G4NPncore-PETIM betagalactose in water
136925
    1aaa     N1    1   3.319   1.698  10.799 -0.1240  0.3397  0.0288
    1aaa     C1    2   3.369   1.841  10.796  0.3217  0.1354 -0.4146
    1aaa     H1    3   3.342   1.891  10.702  0.9660  1.9510  0.3182
    1aaa     H2    4   3.317   1.902  10.870  3.5569  2.0206  0.5162
    1aaa     C2    5   3.385   1.618  10.691  0.2773 -0.0749 -0.9904
    1aaa     H3    6   3.361   1.658  10.592  1.1536  0.0618 -1.1488
    1aaa     H4    7   3.493   1.629  10.701  0.5227 -2.3840 -0.5253
    1aaa     C3    8   3.172   1.682  10.826  0.0451  0.2818  0.1832
    1aaa     H5    9   3.120   1.734  10.745  1.2286  1.2167 -0.0005
    1aaa     H6   10   3.155   1.573  10.825 -0.8889  0.4148  0.5647
    1aaa     C4   11   3.108   1.744  10.947 -0.4206 -0.0224 -0.7288
    1aaa     H7   12   3.115   1.854  10.940  0.0561 -0.0946 -1.4403
    1aaa     H8   13   3.002   1.722  10.933 -0.7549 -0.8575  2.4196
    1aaa     C5   14   3.521   1.857  10.814  0.0312 -0.2149  0.1450
    1aaa     H9   15   3.563   1.787  10.887 -0.4536 -1.9187 -1.1507
    1aaa    H10   16   3.560   1.834  10.714  1.0349  0.8489  0.2718
    1aaa     C6   17   3.358   1.465  10.693 -0.1726 -0.5622 -0.1439
    1aaa    H11   18   3.401   1.420  10.784  2.0728  2.8964  0.6984
    1aaa    H12   19   3.252   1.438  10.702 -0.1551 -1.5187 -2.3199
    1aaa     C7   20   3.411   1.397  10.563  0.0009  0.4748 -0.0831
    1aaa    H13   21   3.395   1.289  10.562 -1.6068  0.6938  0.1761
    1aaa    H14   22   3.352   1.437  10.479 -1.1959 -0.0458  0.4924
    1aaa     C8   23   3.144   1.708  11.092  0.1298 -0.1366 -0.3644
    1aaa    H15   24   3.078   1.638  11.146  1.9179 -2.1354 -0.6364
    1aaa    H16   25   3.234   1.646  11.082  1.0111  0.9567  0.4776
    1aaa     C9   26   3.565   1.999  10.857  0.5714 -0.4185 -0.6632
    1aaa    H17   27   3.509   2.023  10.948  1.0195  0.3216 -0.5736
    1aaa    H18   28   3.673   1.997  10.876  0.3547 -2.8954  0.6991
    2bbb     N1   29   3.967   1.512  10.477  0.2087  0.7809  0.0361
    2bbb     C1   30   3.957   1.664  10.463  0.3418  0.0247  0.3788
    2bbb     H1   31   3.939   1.689  10.357 -0.0246 -0.2886  0.3638
    2bbb     H2   32   4.055   1.709  10.484 -0.1376  0.8091  0.9714
    2bbb     C2   33   4.048   1.455  10.366  0.1179 -0.2475  0.3925
    2bbb     H3   34   4.004   1.484  10.270 -0.8674  0.0403  0.9152
    2bbb     H4   35   4.041   1.345  10.363 -1.1863 -0.1689 -1.9727
    2bbb     C3   36   3.843   1.433  10.499  0.6849 -0.7057 -0.2622
    2bbb     H5   37   3.805   1.474  10.593 -2.5374 -1.7539 -0.9889
    2bbb     H6   38   3.869   1.329  10.523 -1.1359 -0.8686  1.2129
    2bbb     C4   39   3.729   1.448  10.389 -0.3326 -0.0786 -0.3235
    2bbb     H7   40   3.769   1.413  10.293  0.4936 -1.9861  0.6632
    2bbb     H8   41   3.697   1.553  10.389 -0.3376 -0.0512  1.3786
    2bbb     C5   42   3.855   1.734  10.552 -0.3135 -0.0294 -0.4620
    2bbb     H9   43   3.861   1.701  10.657 -0.2251  1.3746  0.0069
    2bbb    H10   44   3.755   1.703  10.520  0.1499  0.0365 -2.0699
    2bbb     C6   45   4.194   1.496  10.370 -0.3988  0.2361 -0.8972
    2bbb    H11   46   4.235   1.491  10.472 -0.6231 -0.4489 -0.8331
    2bbb    H12   47   4.204   1.600  10.337  0.0656  0.7417  0.7274
    2bbb     C7   48   3.603   1.373  10.425  0.1410  1.2808  0.4190
    2bbb    H13   49   3.620   1.266  10.445  0.1780  1.6057  2.3014
    2bbb    H14   50   3.533   1.386  10.342  0.3926 -1.4914 -0.3240
    2bbb     C8   51   4.292   1.403  10.290  0.4515  0.1922 -0.4378
    2bbb    H15   52   4.283   1.303  10.333 -0.6700  0.0255 -1.0208
    2bbb    H16   53   4.394   1.433  10.317  0.1465  1.6786 -0.8133
    2bbb     C9   54   3.859   1.892  10.544 -0.2149 -0.5230 -0.5086
    2bbb    H17   55   3.957   1.927  10.578  0.4975 -0.8044 -2.1664
    2bbb    H18   56   3.785   1.940  10.608 -0.3989 -0.9264 -0.4141
    2bbb     O1   57   3.554   1.424  10.547 -0.0953 -0.3467 -0.1069
    3bbb     N1   58   3.519   2.112  11.249  0.1031 -0.0018 -0.4562
    3bbb     C1   59   3.645   2.133  11.182 -0.3790 -0.7268 -0.0330
    3bbb     H1   60   3.698   2.218  11.226 -0.7730 -0.6785  0.3516
    3bbb     H2   61   3.636   2.158  11.075  4.0802  2.9061  0.1099
    3bbb     C2   62   3.433   2.233  11.259 -0.4384  0.1686 -0.2519
    3bbb     H3   63   3.337   2.222  11.311  0.4962  0.3496  1.6208
    3bbb     H4   64   3.410   2.269  11.159  0.5989 -0.0964 -0.5977
    3bbb     C3   65   3.441   1.991  11.211 -0.1186  0.0598  0.1240
    3bbb     H5   66   3.512   1.908  11.204  0.6047  0.7272 -0.7380
    3bbb     H6   67   3.385   2.003  11.117 -1.0894  2.5840  0.9452
    3bbb     C4   68   3.330   1.950  11.306 -0.9842 -0.0423  0.4195
    3bbb     H7   69   3.250   2.025  11.315 -0.8644  0.1403 -0.0040
    3bbb     H8   70   3.376   1.936  11.405  0.1362  0.4543 -0.0042
    3bbb     C5   71   3.755   2.017  11.208  0.1513  0.1547 -0.2302
    3bbb     H9   72   3.708   1.926  11.167  0.4875 -0.5929  1.0084
    3bbb    H10   73   3.766   1.995  11.314  0.0313  0.2157 -0.2043
    3bbb     C6   74   3.497   2.354  11.337  0.8531 -0.0290 -0.8883
    3bbb    H11   75   3.419   2.429  11.323  0.1329 -0.8199 -1.1614
    3bbb    H12   76   3.591   2.399  11.302  2.1599  0.3545  2.6707
    3bbb     C7   77   3.267   1.815  11.273 -0.3249  0.1636  0.1930
    3bbb    H13   78   3.217   1.771  11.360  0.2495 -1.3823 -0.2201
    3bbb    H14   79   3.349   1.746  11.252  0.6143  0.9758  1.0957
    3bbb     C8   80   3.523   2.333  11.491 -0.6697  0.4211  0.5284
    3bbb    H15   81   3.626   2.297  11.491 -0.9787 -0.7838 -2.2358
    3bbb    H16   82   3.468   2.252  11.540 -2.0315  1.1712  0.2959
    3bbb     C9   83   3.888   2.023  11.123  0.3516 -0.9049 -0.7980
    3bbb    H17   84   3.946   2.112  11.149 -0.2241 -0.0782 -2.2592
    3bbb    H18   85   3.870   2.035  11.016 -1.5106 -1.8864 -0.6434
    3bbb     O1   86   3.175   1.827  11.166 -0.3880 -0.2434 -0.3479
    4bbb     N1   87   3.188   2.336  10.684 -0.3685 -0.3783 -0.4045
    4bbb     C1   88   3.082   2.446  10.734 -0.4088  0.1278 -0.4527
    4bbb     H1   89   2.979   2.426  10.703 -0.9952  1.4047  0.5655
    4bbb     H2   90   3.093   2.547  10.691  1.0210  0.6717  1.0984
    4bbb     C2   91   3.144   2.261  10.565  1.0809  0.5018 -0.0847
    4bbb     H3   92   3.223   2.199  10.520  0.6892  0.6748 -1.0492
    4bbb     H4   93   3.111   2.330  10.487  0.8775  1.8555  1.1629
    4bbb     C3   94   3.323   2.392  10.682 -0.3478  0.3052  0.3378
    4bbb     H5   95   3.348   2.466  10.759  2.0965 -0.0840 -0.0054
    4bbb     H6   96   3.342   2.450  10.591  0.2114  0.8699  0.8132
    4bbb     C4   97   3.428   2.280  10.662 -0.1016 -0.6503 -0.9052
    4bbb     H7   98   3.525   2.328  10.649  0.0574 -1.2142 -1.9367
    4bbb     H8   99   3.407   2.226  10.569 -3.4633 -1.6263  0.2646
    4bbb     C5  100   3.084   2.482  10.879 -0.3508 -0.0940 -0.6272
    4bbb     H9  101   3.017   2.565  10.905 -0.8531 -0.9472  0.9619
    4bbb    H10  102   3.185   2.508  10.911 -0.2530 -2.7444  1.5959
    4bbb     C6  103   3.024   2.160  10.592  0.3252  0.3178  0.4542
    4bbb    H11  104   2.950   2.177  10.513  1.0603  0.1821 -0.2674
    4bbb    H12  105   2.972   2.176  10.688 -2.2726 -0.8161 -0.6726
    4bbb     C7  106   3.425   2.182  10.781  0.1449  0.1238  0.4445
    4bbb    H13  107   3.334   2.120  10.786  0.1368  0.2310  2.6261
    4bbb    H14  108   3.438   2.230  10.879  0.6988  1.0133 -0.0461
    4bbb     C8  109   3.079   2.014  10.575  0.6103 -0.5996  0.4286
    4bbb    H15  110   3.173   2.014  10.631  0.7229  3.9477  0.5863
    4bbb    H16  111   3.108   2.000  10.470 -2.7120 -1.1879 -0.5392
    4bbb     C9  112   3.056   2.348  10.957 -0.1614  0.0133  0.0841
    4bbb    H17  113   3.122   2.268  10.921  0.5209  0.2324  0.8307
    4bbb    H18  114   2.952   2.321  10.932 -1.3130 -0.2136  4.3090
    4bbb     O1  115   3.541   2.099  10.751  0.4968 -0.1619  0.1807
    5bbb     N1  116   4.416   1.041   9.897 -0.1176 -0.4127 -0.0817
    5bbb     C1  117   4.537   0.975   9.843  0.2888 -0.0185  0.2411
    5bbb     H1  118   4.512   0.956   9.738 -0.6865  0.0655  0.4491
    5bbb     H2  119   4.560   0.878   9.890  0.0837  0.1943  0.7830
    5bbb     C2  120   4.295   0.958   9.870  0.5190  0.0019 -0.1499
    5bbb     H3  121   4.260   0.964   9.767 -3.1632  0.8775  0.9995
    5bbb     H4  122   4.209   1.009   9.916 -1.2631 -0.7145 -2.4853
    5bbb     C3  123   4.401   1.183   9.859  0.4946  0.0110 -0.3271
    5bbb     H5  124   4.354   1.181   9.760 -1.6097 -2.9863  0.6008
    5bbb     H6  125   4.489   1.248   9.865  1.4379 -1.0606 -1.7520
    5bbb     C4  126   4.305   1.260   9.947 -0.6622 -0.0017 -0.3577
    5bbb     H7  127   4.204   1.219   9.957 -1.5426  2.5389  2.5279
    5bbb     H8  128   4.290   1.353   9.889  0.6352  0.9820  0.8022
    5bbb     C5  129   4.673   1.054   9.834  0.1131  0.5567  0.8612
    5bbb     H9  130   4.701   1.099   9.931  1.0050 -0.4120  1.0802
    5bbb    H10  131   4.647   1.137   9.768 -2.1952 -1.8527 -1.5411
    5bbb     C6  132   4.310   0.814   9.928 -0.7014 -0.0403 -0.0034
    5bbb    H11  133   4.380   0.763   9.861  0.9633  2.7129 -0.5008
    5bbb    H12  134   4.207   0.777   9.917 -1.1917  1.3438 -0.1826
    5bbb     C7  135   4.359   1.307  10.085  0.2762  0.4551  0.0629
    5bbb    H13  136   4.453   1.357  10.062  0.6840 -1.4385 -2.9397
    5bbb    H14  137   4.390   1.217  10.141  0.2153 -0.9496 -2.0425
    5bbb     C8  138   4.357   0.803  10.079 -0.0926 -0.5419 -0.3444
    5bbb    H15  139   4.325   0.888  10.140 -0.4831 -1.4383  0.7253
    5bbb    H16  140   4.467   0.792  10.081 -0.0859 -0.4508 -0.1762
    5bbb     C9  141   4.794   0.977   9.768  0.5360  0.0556 -0.4222
    5bbb    H17  142   4.838   0.901   9.834 -1.1250 -1.3812 -0.8849
    5bbb    H18  143   4.883   1.039   9.753  1.3521 -0.5491  1.6186
    5bbb     O1  144   4.261   1.388  10.152 -0.2619 -0.2554  0.3360
    6bbb     N1  145   3.457   1.921  10.257 -0.7008  0.8077  0.7593
    6bbb     C1  146   3.346   2.017  10.277 -0.1788  0.4341  0.4713
    6bbb     H1  147   3.364   2.078  10.366  1.1327  1.7236 -0.6180
    6bbb     H2  148   3.256   1.955  10.288  0.7891 -0.9803  0.6572
    6bbb     C2  149   3.449   1.789  10.323 -0.1876  0.3678 -0.0041
    6bbb     H3  150   3.467   1.801  10.431 -0.6973 -0.9995  0.2593
    6bbb     H4  151   3.532   1.726  10.289 -0.5476  0.3822 -0.9333
    6bbb     C3  152   3.597   1.975  10.255  0.7220 -0.4190 -0.4012
    6bbb     H5  153   3.609   2.049  10.174 -0.0102  0.8887  0.6370
    6bbb     H6  154   3.674   1.899  10.240 -0.2607 -1.2050 -1.6821
    6bbb     C4  155   3.634   2.051  10.384  0.0571  0.3244  0.3105
    6bbb     H7  156   3.599   1.989  10.467 -1.0045 -0.8930 -1.0034
    6bbb     H8  157   3.585   2.149  10.387  0.8695  0.7354  0.4300
    6bbb     C5  158   3.329   2.117  10.163 -0.3310  0.3029 -0.0102
    6bbb     H9  159   3.323   2.054  10.073  0.4362 -2.2859  1.6416
    6bbb    H10  160   3.418   2.180  10.150  0.6176 -1.1964 -1.1635
    6bbb     C6  161   3.311   1.716  10.314  0.5341 -0.3002 -0.7438
    6bbb    H11  162   3.229   1.781  10.346 -1.6434 -1.7757 -2.9227
    6bbb    H12  163   3.310   1.627  10.379 -1.4261 -0.9052 -1.5342
    6bbb     C7  164   3.787   2.066  10.397  0.5010  0.7178 -0.2049
    6bbb    H13  165   3.801   2.132  10.483 -1.7065  0.1735  0.6213
    6bbb    H14  166   3.841   2.114  10.314 -0.9926  1.9921 -0.4980
    6bbb     C8  167   3.273   1.674  10.174 -0.1313 -0.3054  0.3481
    6bbb    H15  168   3.359   1.618  10.134  0.8322  0.4743  1.2546
    6bbb    H16  169   3.269   1.763  10.111  1.9307 -1.9011 -2.2355
    6bbb     C9  170   3.199   2.207  10.187 -0.6070  0.4095 -0.0879
    6bbb    H17  171   3.191   2.279  10.104  1.1197  2.2068  1.2022
    6bbb    H18  172   3.221   2.264  10.279  4.4832 -1.4514  0.1470
    6bbb     O1  173   3.845   1.935  10.413  0.2658 -0.4288 -0.0478
    7bbb     N1  174   3.744   2.578  11.841  0.4064 -0.3936  0.0758
    7bbb     C1  175   3.808   2.678  11.748 -0.6449 -0.0095  0.3380
    7bbb     H1  176   3.816   2.781  11.785 -0.5418  0.6179 -1.3419
    7bbb     H2  177   3.742   2.678  11.661  1.2763 -2.7722 -1.2595
    7bbb     C2  178   3.821   2.532  11.962 -0.0934 -0.6003 -0.5732
    7bbb     H3  179   3.904   2.471  11.924 -0.2145 -0.8020 -0.5125
    7bbb     H4  180   3.758   2.472  12.029  0.1658 -0.0330  0.1948
    7bbb     C3  181   3.612   2.632  11.878 -0.5029 -0.0735 -0.5832
    7bbb     H5  182   3.607   2.739  11.903 -1.9581 -0.4199  0.7864
    7bbb     H6  183   3.575   2.581  11.968 -2.9240  1.1890 -0.7780
    7bbb     C4  184   3.518   2.595  11.759 -0.4211 -0.0768 -0.0347
    7bbb     H7  185   3.529   2.678  11.689  1.7202  1.2096  1.6737
    7bbb     H8  186   3.413   2.592  11.788 -0.2479 -1.2332  0.5632
    7bbb     C5  187   3.945   2.636  11.696 -0.9987  0.1623  0.8675
    7bbb     H9  188   4.009   2.631  11.785  0.7918 -1.8034 -0.4137
    7bbb    H10  189   3.980   2.720  11.635  0.9503 -1.2465 -0.0776
    7bbb     C6  190   3.873   2.644  12.043 -0.1232  1.0931 -0.2764
    7bbb    H11  191   3.783   2.688  12.087 -1.2530 -2.0232  0.7908
    7bbb    H12  192   3.925   2.726  11.991  0.1199  0.9290 -0.2963
    7bbb     C7  193   3.546   2.453  11.697  0.4960 -0.1398  1.0705
    7bbb    H13  194   3.479   2.375  11.735  0.2294  0.1067  1.1134
    7bbb    H14  195   3.651   2.424  11.699  0.3931 -0.8634 -1.2965
    7bbb     C8  196   3.975   2.597  12.153 -0.7772  0.4739 -0.4906
    7bbb    H15  197   4.036   2.682  12.185 -0.4054  0.0668 -0.1126
    7bbb    H16  198   4.052   2.536  12.104 -1.1864 -0.4376 -0.0335
    7bbb     C9  199   3.953   2.499  11.617 -0.7615  0.0300  0.5967
    7bbb    H17  200   3.882   2.420  11.646 -0.4431 -0.2452  0.6237
    7bbb    H18  201   4.054   2.457  11.626 -1.4823 -1.9205 -0.0307
    7bbb     O1  202   3.503   2.454  11.557 -0.6092 -0.1582 -0.5229
    8bbb     N1  203   4.299   1.717  10.951 -0.2409 -0.0713  0.2882
    8bbb     C1  204   4.353   1.691  11.089  0.3128 -0.4157  0.0195
    8bbb     H1  205   4.398   1.591  11.093 -1.1201 -1.1764 -1.7399
    8bbb     H2  206   4.270   1.703  11.160 -0.0914  2.0595 -0.7545
    8bbb     C2  207   4.399   1.684  10.842 -0.3080  0.1300  0.0964
    8bbb     H3  208   4.428   1.579  10.852  1.4125  0.5517 -0.0456
    8bbb     H4  209   4.484   1.752  10.858 -0.4013  0.1940  0.3181
    8bbb     C3  210   4.167   1.666  10.933  0.1099 -0.0098  0.3628
    8bbb     H5  211   4.162   1.557  10.945  0.3231  0.0355  0.8982
    8bbb     H6  212   4.124   1.677  10.833 -0.1844 -1.8902  0.2541
    8bbb     C4  213   4.063   1.713  11.038  0.7476  0.5255  0.0750
    8bbb     H7  214   4.077   1.668  11.137 -0.4830  0.3515  0.1818
    8bbb     H8  215   3.965   1.680  11.002  0.8114  0.0936  0.2918
    8bbb     C5  216   4.449   1.801  11.142 -0.3294  0.1825 -0.3325
    8bbb     H9  217   4.380   1.886  11.154 -0.4389  0.1964 -1.0281
    8bbb    H10  218   4.525   1.834  11.071 -0.0708  1.7035  0.5941
    8bbb     C6  219   4.355   1.707  10.694 -0.0730 -0.7309  0.2880
    8bbb    H11  220   4.321   1.809  10.675  0.6116 -0.3049  1.2423
    8bbb    H12  221   4.277   1.635  10.669 -1.4262  0.2841  1.4176
    8bbb     C7  222   4.063   1.861  11.064 -0.6352 -0.4513 -0.0786
    8bbb    H13  223   4.046   1.905  10.965  0.2310 -0.3584 -0.1933
    8bbb    H14  224   4.164   1.895  11.089 -0.2715  2.0062 -4.0013
    8bbb     C8  225   4.475   1.700  10.594  0.3609  0.1202 -0.0643
    8bbb    H15  226   4.572   1.708  10.645 -0.3899  4.1767  1.0271
    8bbb    H16  227   4.463   1.787  10.529  1.4297  0.7778  0.5928
    8bbb     C9  228   4.509   1.766  11.286  0.4948 -0.2837 -0.8575
    8bbb    H17  229   4.424   1.748  11.354 -0.1043  0.5682 -1.3733
    8bbb    H18  230   4.559   1.857  11.320 -0.7192  0.4357 -0.9379
    8bbb     O1  231   3.954   1.894  11.151  0.1172  0.1407 -0.0309
    9bbb     N1  232   2.801   1.509  10.621 -0.1693 -0.3510  0.4703
    9bbb     C1  233   2.678   1.478  10.542 -0.4087  0.4990 -0.2600
    9bbb     H1  234   2.712   1.438  10.445  1.1507 -0.0887  0.5077
    9bbb     H2  235   2.632   1.573  10.513  0.0211  0.2957 -1.7254
    9bbb     C2  236   2.894   1.397  10.647  0.5109  0.3088  0.9930
    9bbb     H3  237   2.838   1.308  10.678  1.6424 -1.4117 -1.5491
    9bbb     H4  238   2.958   1.428  10.731 -0.2449  1.2784  1.2236
    9bbb     C3  239   2.871   1.630  10.574 -0.1952 -0.1787 -0.1984
    9bbb     H5  240   2.911   1.618  10.472  1.9745  2.3613  0.2329
    9bbb     H6  241   2.959   1.656  10.634 -1.0202  0.3433  0.8035
    9bbb     C4  242   2.793   1.767  10.587  0.0255  0.5501 -0.0206
    9bbb     H7  243   2.760   1.782  10.690 -1.1429 -0.7732 -0.1794
    9bbb     H8  244   2.695   1.765  10.538 -1.1236  0.1438  2.1556
    9bbb     C5  245   2.577   1.396  10.607 -0.1741  0.4550 -0.1313
    9bbb     H9  246   2.561   1.443  10.705 -1.2598 -1.7154  0.8167
    9bbb    H10  247   2.617   1.296  10.627  1.8723  0.8961 -1.7337
    9bbb     C6  248   2.975   1.363  10.515  0.1406  0.0481 -0.4185
    9bbb    H11  249   3.023   1.455  10.480 -0.7372  1.3929  1.7267
    9bbb    H12  250   2.915   1.336  10.427  0.8632  1.6118 -1.4208
    9bbb     C7  251   2.870   1.889  10.528 -0.0009  0.5178  0.0002
    9bbb    H13  252   2.796   1.970  10.523 -0.4648  0.4286  3.2102
    9bbb    H14  253   2.907   1.865  10.428 -3.1316 -1.2916 -0.8523
    9bbb     C8  254   3.080   1.254  10.542  0.0415 -0.1309 -0.1835
    9bbb    H15  255   3.158   1.281  10.614 -0.9396  0.1656  0.8021
    9bbb    H16  256   3.137   1.236  10.450 -0.4247  2.2277 -0.9864
    9bbb     C9  257   2.435   1.396  10.532 -0.3310 -1.3902 -0.1810
    9bbb    H17  258   2.387   1.298  10.547  0.5081 -1.7134  0.5428
    9bbb    H18  259   2.442   1.402  10.423  0.1021 -1.1986 -0.1458
    9bbb     O1  260   2.982   1.917  10.615  0.1390  0.8753 -0.7252
   10bbb     N1  261   2.993   2.285  11.573  0.8668 -0.1210 -0.9464
   10bbb     C1  262   2.913   2.404  11.615 -0.2430  0.2785 -0.1197
   10bbb     H1  263   2.808   2.386  11.640 -0.2714  1.4635  0.7107
   10bbb     H2  264   2.918   2.485  11.541  0.1720 -0.8215 -1.3437
   10bbb     C2  265   3.009   2.179  11.677  0.0510 -0.2731 -0.0204
   10bbb     H3  266   2.938   2.099  11.649 -1.3520  1.5685 -2.1414
   10bbb     H4  267   2.973   2.222  11.771 -2.1054 -0.9555 -0.4608
   10bbb     C3  268   2.980   2.244  11.437  0.1613  0.0365 -0.0527
   10bbb     H5  269   2.888   2.186  11.422 -0.1301  0.8841 -1.8151
   10bbb     H6  270   3.067   2.179  11.423 -0.5851 -0.9477 -0.2053
   10bbb     C4  271   2.991   2.348  11.327 -0.1332 -0.6473  0.4070
   10bbb     H7  272   3.083   2.407  11.343  0.9188 -2.2265  0.4103
   10bbb     H8  273   2.910   2.421  11.335  0.6338  0.3759 -0.6292
   10bbb     C5  274   2.964   2.478  11.736 -0.1311 -0.8191 -0.0371
   10bbb     H9  275   3.060   2.519  11.702  0.1460 -1.5098 -0.0881
   10bbb    H10  276   2.985   2.421  11.827 -0.4948  0.1055  0.6427
   10bbb     C6  277   3.148   2.122  11.697  0.6189 -1.2311 -0.3009
   10bbb    H11  278   3.185   2.097  11.597  2.2623  1.6858 -0.5416
   10bbb    H12  279   3.144   2.032  11.759  1.0957 -0.5525  0.7306
   10bbb     C7  280   3.000   2.281  11.188  0.0485 -0.1762  0.4044
   10bbb    H13  281   2.900   2.256  11.150  1.1994 -2.3427 -1.4443
   10bbb    H14  282   3.062   2.191  11.193  0.0882 -0.0796  2.7955
   10bbb     C8  283   3.251   2.227  11.753 -0.0876  0.1346  0.2895
   10bbb    H15  284   3.209   2.272  11.844 -1.0602  0.4998 -0.3307
   10bbb    H16  285   3.256   2.310  11.682 -0.7440  0.5977  0.7794
   10bbb     C9  286   2.870   2.593  11.786 -0.2473  0.3603 -0.0886
   10bbb    H17  287   2.841   2.649  11.696 -1.0701 -1.2340 -0.8433
   10bbb    H18  288   2.929   2.655  11.855  0.5029 -1.2706  0.7867
   10bbb     O1  289   3.061   2.373  11.101 -0.2704  0.2083 -0.1937
   11bbb     N1  290   4.241   0.784  10.628 -0.0549  0.7938 -0.1111
   11bbb     C1  291   4.291   0.745  10.766 -0.1427 -0.1169  0.2374
   11bbb     H1  292   4.401   0.752  10.772 -0.1250  2.6271 -1.5382
   11bbb     H2  293   4.251   0.649  10.801 -0.3607 -0.4161 -0.7826
   11bbb     C2  294   4.091   0.800  10.621 -0.0621  0.1820 -0.0566
   11bbb     H3  295   4.079   0.841  10.519 -1.1248  0.6029  0.2198
   11bbb     H4  296   4.052   0.878  10.688  0.8103 -0.7131  1.5448
   11bbb     C3  297   4.299   0.693  10.524  0.4635  0.7657  0.3399
   11bbb     H5  298   4.263   0.590  10.536  0.3791  0.6310 -0.8997
   11bbb     H6  299   4.404   0.679  10.549 -0.0617  1.3527  3.1371
   11bbb     C4  300   4.281   0.734  10.366 -0.2278  0.4156  0.1260
   11bbb     H7  301   4.314   0.838  10.361  1.6876 -0.2007 -1.6917
   11bbb     H8  302   4.172   0.740  10.358 -0.2717 -0.1453  0.2177
   11bbb     C5  303   4.253   0.851  10.872  0.3328  0.5046  0.2830
   11bbb     H9  304   4.144   0.855  10.884  0.2976 -0.1461  0.2100
   11bbb    H10  305   4.280   0.948  10.829 -2.9283  0.9728 -1.0270
   11bbb     C6  306   4.003   0.674  10.632 -0.6156  0.6584  0.6974
   11bbb    H11  307   4.023   0.628  10.729 -1.2814 -2.2881 -0.4649
   11bbb    H12  308   4.033   0.594  10.563  0.6693  2.5362 -1.0515
   11bbb     C7  309   4.343   0.643  10.263  0.4467 -0.5786  0.1763
   11bbb    H13  310   4.328   0.538  10.289  1.2705 -0.7923 -0.1623
   11bbb    H14  311   4.452   0.656  10.268  0.6607 -2.3169  0.8912
   11bbb     C8  312   3.858   0.687  10.614  0.4193  0.2741  0.3413
   11bbb    H15  313   3.844   0.729  10.514  1.7526 -1.6019 -0.6907
   11bbb    H16  314   3.823   0.759  10.689 -0.7293  0.8839 -0.7447
   11bbb     C9  315   4.316   0.834  11.007  0.1679  0.0518  0.9451
   11bbb    H17  316   4.281   0.912  11.075  0.9860 -0.3339  1.8265
   11bbb    H18  317   4.424   0.842  10.993  0.0313 -0.5478 -0.6295
   11bbb     O1  318   4.301   0.685  10.130  0.0267  0.5832 -0.1959
   12bbb     N1  319   4.827   1.287   9.369 -0.7961 -0.7691 -0.3490
   12bbb     C1  320   4.821   1.432   9.409 -0.2837  0.3048  0.4461
   12bbb     H1  321   4.781   1.493   9.327 -1.3055 -1.5059 -0.4476
   12bbb     H2  322   4.925   1.456   9.434 -0.6375  0.2567  2.0953
   12bbb     C2  323   4.866   1.268   9.228 -0.3056  0.2748 -1.0832
   12bbb     H3  324   4.787   1.314   9.169 -0.7030 -0.0305 -0.7946
   12bbb     H4  325   4.860   1.162   9.201  0.6665 -0.6412  1.8499
   12bbb     C3  326   4.911   1.204   9.465  0.2348  0.1931 -0.3537
   12bbb     H5  327   4.904   1.245   9.566 -1.7631  0.7631 -0.6730
   12bbb     H6  328   5.015   1.228   9.440  0.2907  1.3215  0.8777
   12bbb     C4  329   4.885   1.057   9.470 -0.2233  0.4646 -0.0913
   12bbb     H7  330   4.964   1.005   9.527 -0.4102  1.5784  1.2468
   12bbb     H8  331   4.881   1.010   9.371  0.0018  0.7580 -0.2393
   12bbb     C5  332   4.724   1.460   9.523  0.8662 -0.1139  0.1723
   12bbb     H9  333   4.634   1.402   9.500  0.9365  0.3256 -1.3212
   12bbb    H10  334   4.693   1.565   9.523 -0.2583 -0.4389 -0.2192
   12bbb     C6  335   5.001   1.330   9.188 -0.4788  0.4306  0.0086
   12bbb    H11  336   5.086   1.274   9.230 -0.4292 -0.8501 -1.7026
   12bbb    H12  337   5.013   1.432   9.224 -0.2456  1.2686 -2.2794
   12bbb     C7  338   4.742   1.026   9.529 -0.3851 -0.3468 -0.0332
   12bbb    H13  339   4.667   0.997   9.454 -0.1256 -2.6560  0.5262
   12bbb    H14  340   4.707   1.124   9.565  1.4222 -0.4375  2.1192
   12bbb     C8  341   5.018   1.346   9.034 -0.1445  0.0889 -0.2673
   12bbb    H15  342   4.950   1.428   9.007 -0.5402  0.1289  0.8042
   12bbb    H16  343   4.996   1.252   8.981  2.7636 -0.8980  0.1001
   12bbb     C9  344   4.770   1.425   9.671  0.1727  0.3927 -0.3162
   12bbb    H17  345   4.771   1.317   9.690 -1.7826  0.5910  1.3027
   12bbb    H18  346   4.693   1.458   9.742 -2.1331  0.5616 -2.7121
   12bbb     O1  347   4.751   0.928   9.638 -0.0951 -0.0721  0.1104
   13bbb     N1  348   2.836   1.318  10.111  0.1357  0.6587 -0.6439
   13bbb     C1  349   2.924   1.215  10.062 -0.0760  0.2763 -0.4784
   13bbb     H1  350   2.994   1.198  10.145 -0.3973 -0.4813 -0.3550
   13bbb     H2  351   2.973   1.248   9.969  1.1436 -2.2571 -0.8208
   13bbb     C2  352   2.719   1.354  10.027 -0.0685 -0.0478  0.3565
   13bbb     H3  353   2.670   1.269   9.977 -0.4011  0.4877 -0.2387
   13bbb     H4  354   2.744   1.426   9.949 -1.2384 -0.0883 -0.0751
   13bbb     C3  355   2.907   1.440  10.169  0.3038  0.0677 -0.1547
   13bbb     H5  356   3.002   1.408  10.211 -0.0742 -1.5709 -0.4944
   13bbb     H6  357   2.851   1.480  10.255 -0.5772 -0.7706 -0.3199
   13bbb     C4  358   2.938   1.550  10.066  0.1176 -0.1276 -0.2027
   13bbb     H7  359   2.847   1.599  10.030  0.9744  0.5283 -1.5367
   13bbb     H8  360   2.988   1.509   9.977 -3.0697 -0.2852 -2.0759
   13bbb     C5  361   2.844   1.081  10.041 -0.0058 -0.1004 -0.2022
   13bbb     H9  362   2.903   1.009   9.984 -0.0021 -0.6814  0.5142
   13bbb    H10  363   2.764   1.100   9.969  0.8941 -0.6847 -1.3872
   13bbb     C6  364   2.602   1.406  10.108 -0.0102 -0.6130 -0.0505
   13bbb    H11  365   2.618   1.500  10.162  1.0667  0.7765 -2.6309
   13bbb    H12  366   2.594   1.339  10.195 -1.0182  1.0374  1.1846
   13bbb     C7  367   3.028   1.653  10.139 -0.6532 -0.4576  0.1797
   13bbb    H13  368   2.989   1.683  10.237 -1.0152 -0.8918  0.1698
   13bbb    H14  369   3.033   1.741  10.072 -0.8521 -0.3357  0.3234
   13bbb     C8  370   2.467   1.413  10.033 -0.2715  0.2234 -0.0371
   13bbb    H15  371   2.445   1.317   9.984  0.5188  1.0863 -2.2477
   13bbb    H16  372   2.471   1.489   9.954 -1.0166 -0.2920 -0.5903
   13bbb     C9  373   2.803   1.010  10.172  0.5569 -0.1634  0.2494
   13bbb    H17  374   2.776   1.084  10.249 -4.8570 -0.9409 -0.5570
   13bbb    H18  375   2.887   0.952  10.213  1.6334  1.0482 -0.1411
   13bbb     O1  376   3.155   1.589  10.160 -0.0539 -0.4724  0.7141
   14bbb     N1  377   2.741   1.975   9.987 -0.1099  0.0595 -0.7130
   14bbb     C1  378   2.756   1.934   9.840 -0.2833 -0.2863 -0.3228
   14bbb     H1  379   2.809   2.014   9.787 -1.8991  0.2131 -1.2423
   14bbb     H2  380   2.653   1.933   9.802 -1.2491  1.2802  2.0291
   14bbb     C2  381   2.664   1.885  10.077 -0.0373 -0.8716  0.5742
   14bbb     H3  382   2.656   1.927  10.178  2.2917 -0.6866  0.7155
   14bbb     H4  383   2.722   1.792  10.080  2.5174  0.6534  0.5039
   14bbb     C3  384   2.866   2.017  10.049 -0.5638  0.1106 -0.8561
   14bbb     H5  385   2.912   2.095   9.987  1.2959 -1.2350 -1.2241
   14bbb     H6  386   2.934   1.935  10.075  0.0176  0.3259 -1.6684
   14bbb     C4  387   2.844   2.094  10.185  0.3197  0.4473 -0.7014
   14bbb     H7  388   2.842   2.016  10.262 -0.8736 -0.3478 -1.5122
   14bbb     H8  389   2.752   2.153  10.186 -0.1421 -0.2613 -0.8283
   14bbb     C5  390   2.837   1.806   9.811  0.0781  0.7227 -0.8763
   14bbb     H9  391   2.793   1.718   9.860 -1.6647  1.1550 -1.5801
   14bbb    H10  392   2.936   1.818   9.856 -0.3715 -2.6305  1.3230
   14bbb     C6  393   2.525   1.855  10.025 -0.5386  0.7521 -0.0152
   14bbb    H11  394   2.531   1.792   9.935  1.7681 -2.1224  1.9529
   14bbb    H12  395   2.483   1.950   9.990 -0.2536  0.6972 -0.5050
   14bbb     C7  396   2.959   2.191  10.209  0.0463  0.2350 -0.6743
   14bbb    H13  397   2.953   2.244  10.305 -0.6220  0.2278 -0.7093
   14bbb    H14  398   2.946   2.270  10.134 -0.2468 -0.1158 -0.9950
   14bbb     C8  399   2.438   1.772  10.121  0.6009  0.4761 -1.0000
   14bbb    H15  400   2.469   1.667  10.115 -2.1224 -0.5134  0.3125
   14bbb    H16  401   2.337   1.764  10.079 -0.4208  3.4342  0.5614
   14bbb     C9  402   2.837   1.772   9.654  0.0395  0.1277 -0.4277
   14bbb    H17  403   2.933   1.725   9.629 -0.1201 -1.1545  1.1853
   14bbb    H18  404   2.818   1.862   9.594 -2.8233 -0.3324 -0.3375
   14bbb     O1  405   3.089   2.122  10.198 -0.1883 -0.7295 -0.8336
   15bbb     N1  406   3.844   2.173  12.524 -0.0345  0.6396 -0.3802
   15bbb     C1  407   3.796   2.047  12.457 -0.3486  0.5712  0.5743
   15bbb     H1  408   3.702   2.063  12.402  0.8362  2.0749 -1.1618
   15bbb     H2  409   3.782   1.975  12.538  1.1909  0.9018  1.1627
   15bbb     C2  410   3.750   2.230  12.622  0.7729  0.2926  0.1199
   15bbb     H3  411   3.663   2.267  12.566  1.4785 -1.8910 -2.6401
   15bbb     H4  412   3.786   2.320  12.672 -1.3047  1.8153 -0.9282
   15bbb     C3  413   3.899   2.269  12.421  0.1161 -0.0108 -0.5134
   15bbb     H5  414   3.837   2.280  12.331  1.3253  0.7288 -1.2865
   15bbb     H6  415   3.991   2.223  12.382 -0.2764 -1.0521 -0.2618
   15bbb     C4  416   3.934   2.409  12.480  0.3908  0.3030  0.4187
   15bbb     H7  417   3.998   2.391  12.567  0.9998 -1.3653 -0.3178
   15bbb     H8  418   3.838   2.454  12.507 -0.1002 -0.6521  0.3168
   15bbb     C5  419   3.892   1.987  12.344 -0.2595 -1.2161 -0.2908
   15bbb     H9  420   3.996   1.997  12.379 -0.5047 -1.8087  0.6199
   15bbb    H10  421   3.875   2.056  12.260 -0.1922  1.0037  1.4104
   15bbb     C6  422   3.702   2.129  12.731 -0.6624  0.0298  0.0798
   15bbb    H11  423   3.641   2.044  12.699  0.6014 -0.6366 -0.6253
   15bbb    H12  424   3.648   2.187  12.808 -1.5858  0.7988 -1.1046
   15bbb     C7  425   4.011   2.497  12.376  0.2576 -0.7015 -0.1729
   15bbb    H13  426   4.108   2.459  12.341  1.0205  0.8406  0.1771
   15bbb    H14  427   4.036   2.590  12.429 -4.0187  0.7390 -0.2718
   15bbb     C8  428   3.819   2.057  12.805 -0.8857 -0.0407  0.2148
   15bbb    H15  429   3.882   2.137  12.845 -3.2703  1.0282  2.0778
   15bbb    H16  430   3.874   2.006  12.725 -0.7299  2.2402 -1.2254
   15bbb     C9  431   3.868   1.844  12.303  0.5664  0.6110  0.9267
   15bbb    H17  432   3.915   1.787  12.385 -0.2448  1.1152  1.7593
   15bbb    H18  433   3.913   1.810  12.209 -2.1231 -0.4908 -0.0585
   15bbb     O1  434   3.916   2.529  12.268  0.0921 -0.0121 -0.2442
   16bbb     N1  435   3.886   2.814  11.217  0.3434  0.8123  0.2215
   16bbb     C1  436   3.778   2.873  11.133 -0.4588  0.3547  0.0783
   16bbb     H1  437   3.723   2.799  11.074  4.5269 -2.0748 -2.1347
   16bbb     H2  438   3.834   2.934  11.061  1.3723 -1.8242 -0.4485
   16bbb     C2  439   3.997   2.894  11.269  0.0086  0.1955  1.1610
   16bbb     H3  440   3.973   3.000  11.259 -2.3243 -0.4147 -0.9002
   16bbb     H4  441   4.082   2.862  11.207  0.1309  0.7734  1.0303
   16bbb     C3  442   3.920   2.670  11.196 -0.1732  0.0853 -0.4569
   16bbb     H5  443   4.020   2.644  11.233 -1.0176 -0.1094  1.8194
   16bbb     H6  444   3.910   2.643  11.090 -0.7701 -0.4339 -0.2762
   16bbb     C4  445   3.827   2.571  11.268  0.1150 -0.0858  0.2768
   16bbb     H7  446   3.856   2.470  11.238 -0.7550  0.3414 -2.2183
   16bbb     H8  447   3.727   2.583  11.226 -0.2228  2.5832  1.6479
   16bbb     C5  448   3.685   2.967  11.213  0.8551 -0.0603 -0.3334
   16bbb     H9  449   3.622   3.017  11.139  0.8416 -0.9261 -0.9223
   16bbb    H10  450   3.735   3.050  11.266 -1.4511  2.7925 -2.3140
   16bbb     C6  451   4.016   2.864  11.414 -0.0333 -0.0636  0.1615
   16bbb    H11  452   4.056   2.762  11.417 -0.0821 -0.1014 -0.3844
   16bbb    H12  453   3.921   2.862  11.468 -0.7598  1.0931 -1.0348
   16bbb     C7  454   3.812   2.569  11.426  0.1571 -0.6111  0.6061
   16bbb    H13  455   3.733   2.496  11.447 -0.1837 -0.4157  0.0434
   16bbb    H14  456   3.782   2.671  11.455 -2.0331 -1.5766  1.9474
   16bbb     C8  457   4.105   2.960  11.504 -0.3062 -0.5393  0.4350
   16bbb    H15  458   4.098   2.933  11.610  0.5345 -0.7716  0.4407
   16bbb    H16  459   4.055   3.058  11.497 -0.8402 -0.9087 -1.8948
   16bbb     C9  460   3.598   2.882  11.308  0.1323  0.0439  0.2771
   16bbb    H17  461   3.667   2.827  11.375  1.7679  0.8105 -0.7076
   16bbb    H18  462   3.544   2.803  11.255 -0.0568  0.5505 -0.2987
   16bbb     O1  463   3.940   2.520  11.481 -0.0132  0.0007  0.0859
   17bbb     N1  464   4.558   1.077  10.539  0.1709  0.2435 -0.5894
   17bbb     C1  465   4.577   0.972  10.647  0.4268  0.2585  0.0039
   17bbb     H1  466   4.547   0.870  10.617 -0.8368  0.0758  1.7578
   17bbb     H2  467   4.516   1.000  10.733 -0.5853  1.3942 -1.0351
   17bbb     C2  468   4.638   1.064  10.422 -0.1898 -0.5284  0.0921
   17bbb     H3  469   4.744   1.065  10.449 -0.2019  0.2895  0.1393
   17bbb     H4  470   4.628   1.144  10.347 -2.8546 -0.3540  0.5225
   17bbb     C3  471   4.569   1.209  10.612 -0.6277  1.2077  0.1411
   17bbb     H5  472   4.674   1.238  10.623 -0.8811  1.2649  3.0707
   17bbb     H6  473   4.529   1.201  10.714 -0.0045  1.0175  0.3781
   17bbb     C4  474   4.503   1.330  10.538 -0.4572  0.8611 -0.2894
   17bbb     H7  475   4.396   1.310  10.527 -0.1971 -0.1801 -1.0129
   17bbb     H8  476   4.557   1.349  10.444 -0.3356 -1.4172 -0.7369
   17bbb     C5  477   4.720   0.956  10.707  0.1114 -0.3790  0.1181
   17bbb     H9  478   4.752   1.052  10.750  2.1923 -0.2930 -1.4334
   17bbb    H10  479   4.779   0.936  10.617  0.3198 -0.0109  0.1700
   17bbb     C6  480   4.625   0.938  10.339 -0.8080  0.2101  0.0908
   17bbb    H11  481   4.520   0.926  10.312 -1.1592 -1.1689  1.8401
   17bbb    H12  482   4.653   0.853  10.404 -0.8837 -3.0259 -3.7050
   17bbb     C7  483   4.516   1.463  10.615  0.3676 -0.1126  0.0134
   17bbb    H13  484   4.623   1.480  10.632  0.4824 -1.4627  0.8406
   17bbb    H14  485   4.464   1.452  10.711  0.7196 -1.2945  0.0848
   17bbb     C8  486   4.722   0.936  10.214 -0.1716 -0.4735 -0.1648
   17bbb    H15  487   4.826   0.957  10.241 -0.1757  1.0693 -1.2636
   17bbb    H16  488   4.699   1.020  10.148  0.0157  0.6004  1.0977
   17bbb     C9  489   4.720   0.844  10.815  0.4399  0.3743 -0.0240
   17bbb    H17  490   4.642   0.886  10.880 -0.2168  2.1607 -1.8555
   17bbb    H18  491   4.813   0.835  10.873  1.2744  0.3966 -1.3130
   17bbb     O1  492   4.461   1.564  10.537 -0.0625 -0.5168 -0.1165
   18bbb     N1  493   4.938   1.305  11.383  0.5722  0.0090  0.2133
   18bbb     C1  494   4.854   1.180  11.389  0.3167  0.7949  0.6147
   18bbb     H1  495   4.916   1.090  11.388  0.4530  0.8614  1.5325
   18bbb     H2  496   4.793   1.175  11.298  0.0100 -2.0942  0.8805
   18bbb     C2  497   5.044   1.326  11.278  0.1451  0.1149 -0.8012
   18bbb     H3  498   4.988   1.400  11.221 -1.7748 -1.4246 -1.0393
   18bbb     H4  499   4.993   1.247  11.222 -0.6502  0.2192 -0.2446
   18bbb     C3  500   4.854   1.419  11.424  0.3026 -0.6370 -0.1524
   18bbb     H5  501   4.922   1.498  11.460  2.0766 -2.0157 -0.3461
   18bbb     H6  502   4.796   1.380  11.509 -1.0702 -1.7613 -1.5393
   18bbb     C4  503   4.759   1.478  11.310  0.9210 -0.3793 -0.2174
   18bbb     H7  504   4.697   1.394  11.276 -0.1145 -0.1637  1.0830
   18bbb     H8  505   4.807   1.518  11.220 -2.1442  1.2153 -1.2740
   18bbb     C5  506   4.758   1.148  11.512 -0.4248 -0.5043  1.0336
   18bbb     H9  507   4.718   1.049  11.491  1.5678 -0.4380 -5.2210
   18bbb    H10  508   4.670   1.214  11.505 -0.0685 -0.2052 -1.9571
   18bbb     C6  509   5.307   1.338  11.281  0.9783 -0.1724 -0.5020
   18bbb    H11  510   5.370   1.261  11.328  0.6124  0.1841  0.5984
   18bbb    H12  511   5.356   1.412  11.345 -0.4944 -0.0904  0.5694
   18bbb     C7  512   4.674   1.592  11.365  0.2771  0.2902 -0.1602
   18bbb    H13  513   4.741   1.673  11.396 -0.6034  0.3248  1.8063
   18bbb    H14  514   4.624   1.556  11.456  0.9366 -2.0977 -0.6813
   18bbb     C8  515   5.422   1.348  11.172  0.1142  0.5776 -0.0136
   18bbb    H15  516   5.402   1.418  11.090  0.2867 -0.8494 -1.3298
   18bbb    H16  517   5.435   1.255  11.115 -1.5720  1.7607 -2.4902
   18bbb     C9  518   4.832   1.142  11.648  0.2376 -0.0545  0.5385
   18bbb    H17  519   4.755   1.144  11.726 -0.1774  0.0796  0.1263
   18bbb    H18  520   4.893   1.234  11.659 -0.1240  0.2154  0.3055
   18bbb     O1  521   4.587   1.649  11.263  0.1796  0.3877 -0.8249
   19bbb     N1  522   2.670   0.887  10.670 -0.1363 -0.6989 -0.7787
   19bbb     C1  523   2.635   0.775  10.580 -0.5298  0.1321  0.0309
   19bbb     H1  524   2.729   0.738  10.537  0.1325  0.4626  1.1485
   19bbb     H2  525   2.573   0.819  10.501  1.4667  3.1764  0.0122
   19bbb     C2  526   2.557   0.950  10.758 -0.0234 -0.0198 -0.5322
   19bbb     H3  527   2.586   1.046  10.804  0.0280 -0.5213  0.5151
   19bbb     H4  528   2.521   0.875  10.830 -1.9257  0.4862 -0.8883
   19bbb     C3  529   2.753   0.995  10.607  1.4122 -0.2599 -0.3610
   19bbb     H5  530   2.795   1.062  10.683  0.9128 -0.4258  0.0591
   19bbb     H6  531   2.691   1.052  10.538  0.4348 -1.9782 -0.9583
   19bbb     C4  532   2.879   0.938  10.542 -0.2488  0.6007 -0.9232
   19bbb     H7  533   2.862   0.878  10.452  0.5132 -0.3267 -0.4647
   19bbb     H8  534   2.937   0.878  10.613  0.1336  0.9384 -0.9424
   19bbb     C5  535   2.558   0.665  10.652  0.0243  0.5661  0.1249
   19bbb     H9  536   2.448   0.668  10.644  0.0738  2.0322 -0.1178
   19bbb    H10  537   2.581   0.674  10.759  1.1061  1.7199 -0.1794
   19bbb     C6  538   2.426   0.973  10.683  0.3286 -0.0273  0.9453
   19bbb    H11  539   2.375   0.877  10.665 -0.9522  0.4743  1.7109
   19bbb    H12  540   2.443   1.014  10.582  0.2932  2.0185  1.7195
   19bbb     C7  541   2.968   1.045  10.480 -0.6238  0.5585  0.1003
   19bbb    H13  542   2.908   1.111  10.417 -1.4411 -0.6526 -0.4261
   19bbb    H14  543   3.040   0.987  10.420 -1.5535  1.9687 -2.5558
   19bbb     C8  544   2.332   1.066  10.752 -0.8065  0.5624 -0.3965
   19bbb    H15  545   2.230   1.051  10.715  0.2310 -1.4877 -2.6969
   19bbb    H16  546   2.369   1.168  10.738 -1.1528  0.4691 -2.1645
   19bbb     C9  547   2.594   0.525  10.591  0.8193 -0.2969 -0.7742
   19bbb    H17  548   2.551   0.442  10.648  2.7956 -0.5434  0.4764
   19bbb    H18  549   2.703   0.519  10.598  0.6702 -1.1096  2.2151
   19bbb     O1  550   3.032   1.119  10.581 -0.1237 -0.9470 -0.4857
   20bbb     N1  551   2.110   1.821  10.710  0.1116  0.3092  0.0809
   20bbb     C1  552   2.060   1.926  10.627  0.5612  0.0056  0.1179
   20bbb     H1  553   1.953   1.921  10.604  0.6475  0.2461 -0.3496
   20bbb     H2  554   2.094   1.919  10.523 -1.0815  0.1093 -0.4582
   20bbb     C2  555   2.015   1.793  10.827 -0.2660 -0.4043 -0.0082
   20bbb     H3  556   2.019   1.873  10.902 -2.0138  1.6628 -1.9587
   20bbb     H4  557   2.041   1.695  10.868 -2.5559 -0.7339  0.8029
   20bbb     C3  558   2.151   1.699  10.641 -0.3758  0.8717 -0.3748
   20bbb     H5  559   2.067   1.667  10.577  0.4678  1.0539 -1.6075
   20bbb     H6  560   2.183   1.619  10.709 -1.2668  0.0561 -0.8863
   20bbb     C4  561   2.279   1.732  10.556  0.5439  0.1277 -0.0795
   20bbb     H7  562   2.342   1.804  10.609  0.2977 -0.8899  1.6852
   20bbb     H8  563   2.245   1.787  10.467 -2.2739  0.4360  1.0672
   20bbb     C5  564   2.082   2.075  10.676 -0.6258 -0.4803  0.4465
   20bbb     H9  565   2.182   2.091  10.719 -0.0377 -0.5701 -0.8414
   20bbb    H10  566   2.014   2.092  10.760  1.0431  3.5217  1.2215
   20bbb     C6  567   1.863   1.776  10.790 -0.1791  0.4980 -0.0720
   20bbb    H11  568   1.846   1.698  10.715 -2.8623 -1.2933  2.1912
   20bbb    H12  569   1.823   1.871  10.755 -0.2853 -0.3620 -2.4687
   20bbb     C7  570   2.370   1.628  10.515 -0.1371 -0.1131  0.4449
   20bbb    H13  571   2.471   1.656  10.548 -0.6820  0.4151  1.7609
   20bbb    H14  572   2.369   1.623  10.406  0.0451 -2.1166  0.4955
   20bbb     C8  573   1.777   1.735  10.908  0.7156 -0.1650  0.3071
   20bbb    H15  574   1.765   1.810  10.987 -2.0843 -1.6276  1.4051
   20bbb    H16  575   1.812   1.636  10.943 -1.0954 -0.8045  0.4201
   20bbb     C9  576   2.046   2.183  10.571  0.2441 -0.4847 -0.7174
   20bbb    H17  577   2.103   2.175  10.477  0.7599 -1.8077 -0.3206
   20bbb    H18  578   2.078   2.277  10.618 -0.8295  0.9691 -2.7678
   20bbb     O1  579   2.350   1.502  10.579  0.2571 -0.6250  0.1935
   21bbb     N1  580   3.372   2.202  12.221  0.4899 -0.6762  0.3805
   21bbb     C1  581   3.398   2.074  12.298  0.2229  0.4163  0.7228
   21bbb     H1  582   3.505   2.048  12.296 -0.0956 -0.9966 -1.4236
   21bbb     H2  583   3.340   1.996  12.246  1.4450  0.9616 -1.5985
   21bbb     C2  584   3.456   2.306  12.283  0.3408  0.2306  0.2579
   21bbb     H3  585   3.562   2.280  12.294  0.6466  1.6111  0.8164
   21bbb     H4  586   3.415   2.312  12.385  1.0294 -0.9192  0.6168
   21bbb     C3  587   3.410   2.191  12.076  0.5336  0.4780  0.5028
   21bbb     H5  588   3.520   2.187  12.067  0.5006 -0.1256  0.3011
   21bbb     H6  589   3.372   2.278  12.022 -3.7011 -0.0825  2.2388
   21bbb     C4  590   3.360   2.064  11.991 -0.4251  0.7965 -0.6299
   21bbb     H7  591   3.251   2.059  11.993 -0.3676 -0.6606 -0.4609
   21bbb     H8  592   3.385   1.972  12.045 -0.4840  1.2645  0.2217
   21bbb     C5  593   3.355   2.069  12.446  0.4327  0.1341 -0.0481
   21bbb     H9  594   3.426   2.121  12.512 -0.0419 -0.5332  1.0238
   21bbb    H10  595   3.360   1.964  12.477  1.8146  0.0146 -0.6154
   21bbb     C6  596   3.460   2.445  12.213 -0.6624  0.2899 -0.4636
   21bbb    H11  597   3.361   2.493  12.207 -0.7302  0.6503  2.4660
   21bbb    H12  598   3.492   2.434  12.109 -0.0294  1.3138 -0.3814
   21bbb     C7  599   3.410   2.059  11.847 -0.2875  0.2493 -0.4520
   21bbb    H13  600   3.374   1.966  11.800  0.2208 -0.1272 -0.1012
   21bbb    H14  601   3.519   2.052  11.852 -0.2358  1.6893  0.9772
   21bbb     C8  602   3.558   2.536  12.298  0.6183  0.5476  0.1975
   21bbb    H15  603   3.661   2.499  12.288 -0.0885 -2.0869  1.5473
   21bbb    H16  604   3.539   2.529  12.406  2.8895  0.0855  0.6340
   21bbb     C9  605   3.204   2.115  12.454 -0.4882  0.5404 -0.4145
   21bbb    H17  606   3.137   2.054  12.393  0.6572 -3.0876  1.6361
   21bbb    H18  607   3.193   2.217  12.417 -0.0547 -0.2044 -2.7591
   21bbb     O1  608   3.385   2.171  11.766  0.5398  0.0427  1.2344
   22bbb     N1  609   2.298   2.651  12.037 -0.8998  0.6403  0.7984
   22bbb     C1  610   2.295   2.561  12.153  0.3074  0.4836 -0.2559
   22bbb     H1  611   2.346   2.466  12.132 -0.1897  0.2339 -0.3399
   22bbb     H2  612   2.193   2.525  12.171  0.4382  0.4718  0.5111
   22bbb     C2  613   2.230   2.582  11.926  0.8066  0.1000 -0.0393
   22bbb     H3  614   2.252   2.475  11.912  0.2732  0.1751 -1.6947
   22bbb     H4  615   2.259   2.630  11.832  1.7275  0.3221  0.3406
   22bbb     C3  616   2.436   2.694  11.991 -0.2202 -0.2554  0.0662
   22bbb     H5  617   2.495   2.730  12.076  0.1160 -0.4512 -0.0844
   22bbb     H6  618   2.423   2.784  11.929  0.4979 -0.4422 -0.3595
   22bbb     C4  619   2.523   2.587  11.913 -0.0177  0.2793 -0.9227
   22bbb     H7  620   2.479   2.528  11.832  0.4186  0.3117 -1.1828
   22bbb     H8  621   2.545   2.513  11.990  0.8160  2.1257  0.7199
   22bbb     C5  622   2.344   2.616  12.290  0.3660  0.2385  0.0609
   22bbb     H9  623   2.319   2.722  12.301  0.5124  0.4767 -1.6472
   22bbb    H10  624   2.454   2.614  12.291  0.3493 -0.8262  0.6659
   22bbb     C6  625   2.072   2.578  11.944 -0.6150 -0.3660 -0.5393
   22bbb    H11  626   2.051   2.666  12.006  1.2269  0.7045 -1.3708
   22bbb    H12  627   2.045   2.493  12.009 -0.4761 -1.4325 -1.8376
   22bbb     C7  628   2.655   2.657  11.865  0.0843  0.8530  0.4036
   22bbb    H13  629   2.697   2.718  11.946  0.8452 -0.2258  0.8486
   22bbb    H14  630   2.643   2.725  11.780  0.4351 -1.4801 -1.6243
   22bbb     C8  631   1.987   2.589  11.812 -0.0657  0.2376  0.0075
   22bbb    H15  632   1.892   2.640  11.830  0.7756  0.9259  3.0267
   22bbb    H16  633   1.976   2.487  11.771  0.4161  0.1887 -0.0164
   22bbb     C9  634   2.292   2.523  12.412 -0.1970  0.0785 -0.1994
   22bbb    H17  635   2.183   2.534  12.417 -0.0454  2.1383 -0.6814
   22bbb    H18  636   2.345   2.553  12.503 -0.2573 -2.6428  0.8194
   22bbb     O1  637   2.741   2.548  11.834  0.2569 -0.0434 -0.2461
   23bbb     N1  638   3.621   0.161  10.542  0.2364  0.7825 -0.3154
   23bbb     C1  639   3.479   0.153  10.521 -0.1072 -0.2337 -0.0668
   23bbb     H1  640   3.445   0.210  10.435 -0.4878 -0.3039  0.0377
   23bbb     H2  641   3.435   0.193  10.614  0.8583  1.7607 -0.4050
   23bbb     C2  642   3.664   0.101  10.668 -0.3526  0.9042  0.0640
   23bbb     H3  643   3.635  -0.005  10.665  1.2467  0.4117  0.7609
   23bbb     H4  644   3.609   0.137  10.755  0.4126  0.6954  0.6505
   23bbb     C3  645   3.665   0.300  10.527  0.3474  0.3587  0.2517
   23bbb     H5  646   3.632   0.335  10.429  0.4690  0.6998  0.3301
   23bbb     H6  647   3.774   0.306  10.534  0.5562  2.5744 -2.9856
   23bbb     C4  648   3.606   0.409  10.624  0.0789  0.0861  0.1874
   23bbb     H7  649   3.629   0.394  10.730  0.3387  2.5761  0.5411
   23bbb     H8  650   3.496   0.402  10.619  0.1145 -2.1996  1.1224
   23bbb     C5  651   3.426   0.011  10.498  0.2307  0.1899  0.0713
   23bbb     H9  652   3.440  -0.058  10.582 -0.6420  1.1922  1.0731
   23bbb    H10  653   3.483  -0.031  10.414 -0.7035 -0.7903 -0.0970
   23bbb     C6  654   3.816   0.095  10.706 -0.6969 -0.3025 -0.4100
   23bbb    H11  655   3.855   0.198  10.714 -0.2732 -0.4712 -0.2751
   23bbb    H12  656   3.863   0.050  10.618 -1.0722 -0.7203 -0.3996
   23bbb     C7  657   3.661   0.543  10.587  1.0426  0.4358  0.2295
   23bbb    H13  658   3.597   0.622  10.629  0.1776  0.7660 -1.5982
   23bbb    H14  659   3.658   0.552  10.478  2.5554  1.1299  0.2147
   23bbb     C8  660   3.837   0.023  10.842 -0.5622  0.0991  0.1992
   23bbb    H15  661   3.818  -0.084  10.829  0.4037 -0.2739  1.6332
   23bbb    H16  662   3.772   0.059  10.923  1.7291  2.2227  1.2379
   23bbb     C9  663   3.276   0.006  10.450 -0.2316  0.4826  0.3402
   23bbb    H17  664   3.237  -0.093  10.424 -1.0953  0.9345 -0.1607
   23bbb    H18  665   3.271   0.062  10.355 -1.2598  0.7714  0.5520
   23bbb     O1  666   3.795   0.559  10.624 -0.4391  0.5187  0.2097
   24bbb     N1  667   4.693   0.564  11.138  0.1366 -0.2563 -0.0176
   24bbb     C1  668   4.705   0.453  11.040 -0.1967 -0.5783 -0.2507
   24bbb     H1  669   4.739   0.490  10.942 -0.1782 -2.3897 -0.9863
   24bbb     H2  670   4.614   0.396  11.020 -1.0163  0.6703 -0.1829
   24bbb     C2  671   4.809   0.648  11.131 -0.4168 -0.4761  0.2738
   24bbb     H3  672   4.801   0.709  11.040  0.2670 -2.0492 -0.8780
   24bbb     H4  673   4.898   0.585  11.137 -1.0096 -1.4468 -0.8131
   24bbb     C3  674   4.571   0.630  11.109  0.4753 -0.4403  0.4378
   24bbb     H5  675   4.556   0.642  11.001 -1.4527 -0.9372  0.6161
   24bbb     H6  676   4.566   0.731  11.150 -1.0428 -0.5469  0.5939
   24bbb     C4  677   4.443   0.561  11.157  0.2038  0.2451  0.7669
   24bbb     H7  678   4.465   0.525  11.259  0.0431  1.4078  1.2371
   24bbb     H8  679   4.416   0.477  11.092 -0.2180 -0.0717  1.3427
   24bbb     C5  680   4.817   0.350  11.082  0.4879 -0.3157  0.6156
   24bbb     H9  681   4.913   0.403  11.081  1.6826 -2.2739 -2.6459
   24bbb    H10  682   4.832   0.281  10.998  0.6827  1.2002 -0.6410
   24bbb     C6  683   4.811   0.749  11.248 -0.3317 -0.3776  0.5005
   24bbb    H11  684   4.736   0.829  11.248  0.4289  0.4403  3.2779
   24bbb    H12  685   4.908   0.799  11.237 -1.1493  1.2699  0.4626
   24bbb     C7  686   4.322   0.657  11.165 -0.7002  0.1062 -0.5355
   24bbb    H13  687   4.359   0.746  11.218  0.5409 -0.7794  0.1425
   24bbb    H14  688   4.247   0.607  11.229  1.0041 -0.5352  1.0395
   24bbb     C8  689   4.799   0.691  11.389 -0.3466  0.1485 -0.1631
   24bbb    H15  690   4.703   0.639  11.395  0.1017 -0.5381  2.4738
   24bbb    H16  691   4.789   0.768  11.467  0.1822  0.0442  0.0122
   24bbb     C9  692   4.775   0.273  11.216 -0.2373 -0.1589  0.2286
   24bbb    H17  693   4.691   0.206  11.193  0.1414 -1.4536  2.3633
   24bbb    H18  694   4.755   0.348  11.293 -0.7827 -0.3679  0.2935
   24bbb     O1  695   4.274   0.701  11.043 -0.3090  0.6184  0.2222
   25bbb     N1  696   5.353   1.051   8.879  0.2211 -0.4337  0.2004
   25bbb     C1  697   5.233   0.962   8.870  0.1894  0.1547 -0.0154
   25bbb     H1  698   5.259   0.858   8.848 -0.3758 -0.2769  1.2763
   25bbb     H2  699   5.181   0.994   8.778  1.9687 -1.6729 -1.7630
   25bbb     C2  700   5.471   1.001   8.950 -0.3894  0.6825 -0.2354
   25bbb     H3  701   5.448   0.987   9.057 -0.2758  1.0668 -0.1594
   25bbb     H4  702   5.554   1.072   8.950  0.7525 -0.5779  0.8961
   25bbb     C3  703   5.337   1.202   8.906 -0.4382 -0.2473  0.1315
   25bbb     H5  704   5.423   1.270   8.898 -1.2168  0.6157 -1.1978
   25bbb     H6  705   5.312   1.210   9.013  3.0515 -2.1963  1.2641
   25bbb     C4  706   5.231   1.269   8.819 -0.0831  0.2396 -0.2721
   25bbb     H7  707   5.141   1.208   8.812  0.8622 -1.0784 -1.5860
   25bbb     H8  708   5.264   1.280   8.715  1.1454 -3.7400 -0.4380
   25bbb     C5  709   5.137   0.962   8.992  0.4558  0.5054  0.1458
   25bbb     H9  710   5.094   1.060   9.012 -1.3533  0.0549 -1.2392
   25bbb    H10  711   5.189   0.928   9.083 -2.0322 -0.4780  1.2999
   25bbb     C6  712   5.518   0.873   8.875 -0.1756 -0.3160 -0.6549
   25bbb    H11  713   5.505   0.881   8.767  1.4572 -0.6179 -0.9006
   25bbb    H12  714   5.446   0.793   8.895 -1.4453  0.8327 -0.5293
   25bbb     C7  715   5.188   1.408   8.874 -0.0491  0.6032 -0.0210
   25bbb    H13  716   5.101   1.452   8.823  1.0550  1.2144 -1.4250
   25bbb    H14  717   5.274   1.475   8.873  0.1796  0.3102 -0.4068
   25bbb     C8  718   5.658   0.820   8.914  0.2693 -0.3292  0.6024
   25bbb    H15  719   5.735   0.897   8.897 -1.7673  1.7147  0.0550
   25bbb    H16  720   5.676   0.740   8.841 -0.8195 -0.1974  0.1742
   25bbb     C9  721   5.018   0.866   8.961  0.3899  0.5269  0.5144
   25bbb    H17  722   5.044   0.759   8.961 -0.4769  0.3053  1.5235
   25bbb    H18  723   4.978   0.887   8.861 -1.4012 -1.3526  0.7640
   25bbb     O1  724   5.156   1.390   9.014  0.3777  0.3411 -0.3417
   26bbb     N1  725   5.013   1.356  10.099  0.1096  0.1988  0.3726
   26bbb     C1  726   4.885   1.317  10.141 -0.4759  0.1898  0.5821
   26bbb     H1  727   4.886   1.210  10.166 -2.2747 -0.6239 -2.3401
   26bbb     H2  728   4.819   1.318  10.054 -0.8174  2.4449  0.8279
   26bbb     C2  729   5.130   1.316  10.187  0.2943  0.6331 -0.0994
   26bbb     H3  730   5.118   1.212  10.220 -0.2257  0.6672 -0.1781
   26bbb     H4  731   5.143   1.387  10.270 -0.4820  0.3397  0.2782
   26bbb     C3  732   5.014   1.491  10.042 -0.4091 -0.5201 -0.1238
   26bbb     H5  733   5.114   1.512  10.003 -0.0066  0.8798  1.5763
   26bbb     H6  734   4.999   1.579  10.106  2.8884 -0.3200  0.5345
   26bbb     C4  735   4.921   1.502   9.924 -0.1842  0.2628 -0.1121
   26bbb     H7  736   4.902   1.608   9.906  0.1263  0.6115  1.4750
   26bbb     H8  737   4.819   1.472   9.952 -0.2573  2.4154  2.3154
   26bbb     C5  738   4.814   1.398  10.260  0.0400  0.3039 -0.3882
   26bbb     H9  739   4.718   1.353  10.288  0.9445 -2.5702 -1.5068
   26bbb    H10  740   4.792   1.498  10.222 -1.8652  0.3032  0.5991
   26bbb     C6  741   5.267   1.313  10.112  0.6989  0.2337  0.6021
   26bbb    H11  742   5.303   1.415  10.094 -0.9992  0.7721  0.1230
   26bbb    H12  743   5.252   1.258  10.018  1.6977  0.5884  0.2214
   26bbb     C7  744   4.975   1.434   9.798 -0.0683 -0.0389 -0.0203
   26bbb    H13  745   4.964   1.325   9.808 -0.9477  0.0803  0.3589
   26bbb    H14  746   5.082   1.452   9.784  0.4371  1.0841  4.0285
   26bbb     C8  747   5.374   1.236  10.188  0.0215 -0.0219 -0.8597
   26bbb    H15  748   5.456   1.224  10.117 -0.1601 -1.1930 -0.8797
   26bbb    H16  749   5.340   1.135  10.213  0.9420  0.5855  3.6086
   26bbb     C9  750   4.891   1.408  10.391  0.4974  0.0068  0.2583
   26bbb    H17  751   4.826   1.457  10.465 -0.3656 -0.1308 -0.3814
   26bbb    H18  752   4.983   1.464  10.371  0.2502  0.8587  1.4158
   26bbb     O1  753   4.901   1.479   9.690 -0.9047 -0.7377  0.6930
   27bbb     N1  754   1.911   1.549  10.299  0.4177  0.9959 -0.5306
   27bbb     C1  755   1.920   1.489  10.430  0.1544 -0.5923 -0.0437
   27bbb     H1  756   1.887   1.557  10.510  2.0891 -0.5577  0.7791
   27bbb     H2  757   2.026   1.474  10.452  0.2572  0.1881  0.0449
   27bbb     C2  758   1.771   1.586  10.250 -0.0038  0.1509 -0.2706
   27bbb     H3  759   1.723   1.494  10.213  1.4777 -0.4949 -0.6565
   27bbb     H4  760   1.781   1.649  10.161 -2.4378 -2.1418 -2.3509
   27bbb     C3  761   1.991   1.483  10.190  0.5230 -0.3916 -0.7310
   27bbb     H5  762   1.961   1.533  10.097 -4.0007  3.5736  2.4020
   27bbb     H6  763   1.952   1.381  10.184 -0.4082 -0.1628  0.9374
   27bbb     C4  764   2.146   1.478  10.217 -0.1438 -0.4884 -0.5288
   27bbb     H7  765   2.173   1.398  10.287 -0.2115 -0.2286 -0.1996
   27bbb     H8  766   2.175   1.576  10.259  1.4992 -0.5867 -1.3399
   27bbb     C5  767   1.839   1.352  10.440  0.3362  0.7019  0.5115
   27bbb     H9  768   1.848   1.291  10.349 -1.1487 -0.0848  0.8573
   27bbb    H10  769   1.731   1.374  10.442  0.1481  0.2491 -1.7694
   27bbb     C6  770   1.682   1.657  10.351  0.6439 -0.4379  0.0988
   27bbb    H11  771   1.682   1.594  10.441  1.4987 -4.2708 -2.3592
   27bbb    H12  772   1.580   1.663  10.311  1.5417 -0.5744 -2.3791
   27bbb     C7  773   2.225   1.443  10.093  0.1759 -0.3041  0.0582
   27bbb    H13  774   2.200   1.522  10.021  2.8862 -0.0395 -0.6857
   27bbb    H14  775   2.191   1.350  10.046 -0.1531  1.4819 -3.5715
   27bbb     C8  776   1.736   1.800  10.390  0.3889 -0.0177 -0.6503
   27bbb    H15  777   1.728   1.860  10.299 -0.5284 -2.0494 -2.0031
   27bbb    H16  778   1.840   1.794  10.422  0.7202  0.9263 -1.5213
   27bbb     C9  779   1.868   1.260  10.565  0.2038  0.0218 -0.0790
   27bbb    H17  780   1.973   1.232  10.573 -0.3633 -1.7128  2.9162
   27bbb    H18  781   1.802   1.173  10.562  1.0426 -0.5975 -2.5839
   27bbb     O1  782   2.363   1.446  10.127 -0.0822  0.3144  0.2898
   28bbb     N1  783   2.276   0.973  10.211  0.1387 -0.5443 -0.7568
   28bbb     C1  784   2.297   0.856  10.300 -0.4325  0.0042 -0.2743
   28bbb     H1  785   2.269   0.869  10.405  0.2401 -3.2484  0.4084
   28bbb     H2  786   2.402   0.827  10.292 -0.3580  0.6244 -2.0853
   28bbb     C2  787   2.129   1.009  10.182 -0.2520 -0.8039  0.3508
   28bbb     H3  788   2.082   0.940  10.111 -3.7137  1.4197  0.2700
   28bbb     H4  789   2.136   1.108  10.136  2.9770 -0.1452  1.9661
   28bbb     C3  790   2.365   1.088  10.253 -0.0372 -0.0829  0.4121
   28bbb     H5  791   2.334   1.139  10.345 -0.1786  0.5105  0.0452
   28bbb     H6  792   2.354   1.168  10.178 -1.3250  1.0411  1.7280
   28bbb     C4  793   2.512   1.050  10.261  0.3263 -0.1855 -0.0792
   28bbb     H7  794   2.533   0.996  10.354  1.9990  0.8939  0.2099
   28bbb     H8  795   2.564   1.143  10.290 -3.6664  1.4244  2.8235
   28bbb     C5  796   2.219   0.733  10.256  0.3054 -0.1396  0.8443
   28bbb     H9  797   2.245   0.696  10.156  0.6224  0.0059  0.8738
   28bbb    H10  798   2.112   0.758  10.247  0.8075  2.0713  0.3920
   28bbb     C6  799   2.036   1.020  10.308 -0.7176 -0.2635 -0.0594
   28bbb    H11  800   2.055   1.112  10.364  2.5792 -0.7361 -0.1574
   28bbb    H12  801   2.051   0.936  10.377 -2.3439 -0.2911  0.2804
   28bbb     C7  802   2.570   0.988  10.134  0.1865 -0.0979  0.4377
   28bbb    H13  803   2.576   1.061  10.052  1.6859 -0.7946 -0.1147
   28bbb    H14  804   2.508   0.907  10.091  1.1213  0.1852 -1.5681
   28bbb     C8  805   1.888   1.005  10.273 -1.1033 -1.0843 -0.0770
   28bbb    H15  806   1.821   1.047  10.349 -0.7527 -0.4845 -0.0973
   28bbb    H16  807   1.861   0.902  10.242 -1.2806 -0.4603 -2.2028
   28bbb     C9  808   2.221   0.620  10.365 -0.2249 -0.2036  0.2098
   28bbb    H17  809   2.183   0.527  10.321  1.2132 -0.6568 -0.1400
   28bbb    H18  810   2.326   0.597  10.389  0.1569 -0.6746 -1.7180
   28bbb     O1  811   2.693   0.926  10.154  0.0128  0.0765  0.6002
   29bbb     N1  812   2.526   2.229  10.527 -0.1999  0.3928  0.2203
   29bbb     C1  813   2.603   2.355  10.509 -0.7064 -0.2273  0.0058
   29bbb     H1  814   2.642   2.370  10.610 -0.7647  0.4506 -0.0720
   29bbb     H2  815   2.539   2.441  10.487 -2.2589 -0.9763  1.4052
   29bbb     C2  816   2.420   2.226  10.632  0.4725 -0.8650 -0.6707
   29bbb     H3  817   2.387   2.122  10.645 -0.6896 -0.6746 -1.8666
   29bbb     H4  818   2.341   2.290  10.590 -0.2631 -0.2283  1.5248
   29bbb     C3  819   2.477   2.166  10.400 -0.1698 -0.2347  0.2051
   29bbb     H5  820   2.564   2.159  10.334  1.1885 -0.2696  1.9270
   29bbb     H6  821   2.399   2.231  10.358  2.1339  2.8055  0.2315
   29bbb     C4  822   2.438   2.016  10.404  0.0643  0.9792 -0.2273
   29bbb     H7  823   2.346   2.004  10.462  0.5971 -0.1256  0.4254
   29bbb     H8  824   2.513   1.951  10.451 -2.1723 -1.8174 -0.2357
   29bbb     C5  825   2.727   2.357  10.415  0.3574 -0.1998  0.6706
   29bbb     H9  826   2.691   2.364  10.312 -0.0321 -0.3675  0.7940
   29bbb    H10  827   2.773   2.258  10.417 -0.9163 -1.0649 -3.2349
   29bbb     C6  828   2.459   2.294  10.766  0.8715 -0.4938 -0.2536
   29bbb    H11  829   2.471   2.401  10.745 -1.4874  0.0877  0.9569
   29bbb    H12  830   2.556   2.262  10.804  0.3759  1.2868  2.8623
   29bbb     C7  831   2.398   1.961  10.271  0.0869 -0.2780 -0.2422
   29bbb    H13  832   2.443   2.022  10.193  3.5429  1.3232  2.6965
   29bbb    H14  833   2.289   1.974  10.263  0.2765  1.9827  0.3647
   29bbb     C8  834   2.353   2.298  10.883 -0.2874 -0.3570 -0.1789
   29bbb    H15  835   2.407   2.356  10.958 -1.0477 -0.3058  0.3381
   29bbb    H16  836   2.332   2.194  10.914  1.2033 -0.2297  1.4037
   29bbb     C9  837   2.821   2.472  10.443 -0.8946 -0.1282  0.2543
   29bbb    H17  838   2.877   2.446  10.533 -1.7908 -1.7442  0.3893
   29bbb    H18  839   2.744   2.550  10.455 -0.3907  0.3554  0.3889
   29bbb     O1  840   2.440   1.826  10.258 -0.1829 -0.1892  0.3003
   30bbb     N1  841   2.382   1.468   9.384 -0.4760  0.5959 -0.8118
   30bbb     C1  842   2.269   1.542   9.318  0.1535 -0.0870  0.4522
   30bbb     H1  843   2.276   1.544   9.209 -1.0665  1.2159  0.3641
   30bbb     H2  844   2.270   1.647   9.352  1.1638 -0.0751  0.3912
   30bbb     C2  845   2.401   1.323   9.345  0.2547 -0.5330 -0.2728
   30bbb     H3  846   2.305   1.270   9.342 -0.9891  1.5200  1.0971
   30bbb     H4  847   2.466   1.279   9.422  0.7834  0.1980 -0.2999
   30bbb     C3  848   2.498   1.560   9.390 -0.2998 -0.7298  0.0008
   30bbb     H5  849   2.466   1.662   9.413 -2.5677 -1.4618  0.3937
   30bbb     H6  850   2.543   1.569   9.291 -0.2469  2.3145  0.2107
   30bbb     C4  851   2.604   1.525   9.490  0.6394  0.3081 -0.4373
   30bbb     H7  852   2.650   1.426   9.481  0.1268 -0.3899  3.2419
   30bbb     H8  853   2.555   1.506   9.586  1.8124 -0.2456  0.0762
   30bbb     C5  854   2.132   1.487   9.364  0.8698  0.8020 -0.5527
   30bbb     H9  855   2.123   1.481   9.474  0.6447  4.9541 -0.1903
   30bbb    H10  856   2.109   1.387   9.326 -0.5906  0.7639  0.3801
   30bbb     C6  857   2.463   1.303   9.205 -0.0390  0.4751 -0.5567
   30bbb    H11  858   2.571   1.320   9.221  0.3541 -0.1953 -2.2822
   30bbb    H12  859   2.438   1.387   9.139 -0.5465  0.5185 -0.3135
   30bbb     C7  860   2.717   1.635   9.493  0.4470 -0.0589  0.0939
   30bbb    H13  861   2.683   1.712   9.423  1.3015  0.2065 -0.0477
   30bbb    H14  862   2.814   1.601   9.453  0.3018 -0.2110 -0.1331
   30bbb     C8  863   2.455   1.157   9.145 -0.4661 -0.6512  0.3570
   30bbb    H15  864   2.474   1.081   9.222 -0.7330  0.2218  1.3083
   30bbb    H16  865   2.536   1.134   9.075  1.6297 -0.5397  2.5981
   30bbb     C9  866   2.010   1.578   9.322  0.0310  0.2216  0.5580
   30bbb    H17  867   1.912   1.530   9.334 -2.0509  3.7988 -0.8033
   30bbb    H18  868   2.016   1.604   9.216 -1.3508 -1.4472  0.0266
   30bbb     O1  869   2.731   1.682   9.629  0.7493 -0.2106 -0.0703
   31bbb     N1  870   3.667   1.766  13.307 -0.1047  0.1639 -0.3743
   31bbb     C1  871   3.637   1.626  13.266  0.3239  0.4577  0.2049
   31bbb     H1  872   3.710   1.589  13.193  0.3555 -0.3918  0.6561
   31bbb     H2  873   3.539   1.618  13.218  0.3625 -4.3012  0.4543
   31bbb     C2  874   3.581   1.830  13.404  0.7211 -0.2303  0.0005
   31bbb     H3  875   3.596   1.777  13.499 -1.1063  0.1781  0.5597
   31bbb     H4  876   3.475   1.828  13.377  0.4658 -0.7361  0.9582
   31bbb     C3  877   3.694   1.856  13.190 -0.3837 -0.4496 -0.4984
   31bbb     H5  878   3.725   1.954  13.230  3.1645 -0.8815 -1.8310
   31bbb     H6  879   3.603   1.869  13.131 -0.0493  0.0872 -0.9012
   31bbb     C4  880   3.801   1.807  13.088  0.0317  0.5896 -0.2853
   31bbb     H7  881   3.766   1.721  13.030  0.2202 -1.3858  2.3217
   31bbb     H8  882   3.887   1.764  13.141  0.1034 -0.8839 -1.5323
   31bbb     C5  883   3.621   1.513  13.372 -0.0707  0.1120 -0.1320
   31bbb     H9  884   3.540   1.546  13.438 -1.5137 -1.0813 -1.2441
   31bbb    H10  885   3.710   1.499  13.435  0.1951 -2.1115 -0.9234
   31bbb     C6  886   3.607   1.977  13.439 -0.1555 -0.1851 -0.2239
   31bbb    H11  887   3.578   2.041  13.355  1.1123  2.3603  1.1428
   31bbb    H12  888   3.712   2.000  13.460 -0.4068  2.1110 -1.1929
   31bbb     C7  889   3.862   1.912  12.991 -0.0581  0.4124  0.4758
   31bbb    H13  890   3.946   1.864  12.939  1.2577  0.2679  2.6206
   31bbb    H14  891   3.902   1.997  13.048  0.6370  0.7417 -0.4669
   31bbb     C8  892   3.526   2.025  13.562 -0.2832  0.1683 -0.1262
   31bbb    H15  893   3.522   1.944  13.635  1.8585  0.5361  0.4529
   31bbb    H16  894   3.421   2.047  13.538 -0.8060 -0.4634  1.4810
   31bbb     C9  895   3.580   1.369  13.320 -0.0786 -0.0172  0.2974
   31bbb    H17  896   3.589   1.305  13.409 -2.9230  1.9224  2.1708
   31bbb    H18  897   3.649   1.347  13.238  0.9307  2.1713  0.5020
   31bbb     O1  898   3.762   1.973  12.907 -0.0381  0.1993 -0.4350
   32bbb     N1  899   3.321   1.572  12.331  0.5668 -0.3008 -0.5445
   32bbb     C1  900   3.241   1.452  12.286  0.2749 -0.2648  0.0258
   32bbb     H1  901   3.144   1.475  12.242 -0.4841  0.8899  2.1399
   32bbb     H2  902   3.219   1.389  12.373  0.9573 -0.1455  0.2897
   32bbb     C2  903   3.256   1.649  12.440  0.7217  0.1483 -0.5369
   32bbb     H3  904   3.312   1.743  12.455 -0.4493  1.3590 -3.0438
   32bbb     H4  905   3.256   1.588  12.531 -3.7125 -1.6679 -1.5171
   32bbb     C3  906   3.474   1.562  12.350 -0.3854 -0.0487  0.2408
   32bbb     H5  907   3.525   1.498  12.277 -1.0503 -1.4731  1.0041
   32bbb     H6  908   3.495   1.512  12.445  0.5573 -0.3588 -0.1160
   32bbb     C4  909   3.536   1.699  12.332 -0.3971 -0.0047  0.4415
   32bbb     H7  910   3.538   1.739  12.434  2.1961 -1.9737  1.2798
   32bbb     H8  911   3.476   1.769  12.273 -0.4741 -0.4195  0.0168
   32bbb     C5  912   3.314   1.356  12.187 -0.7720  0.0389 -0.2155
   32bbb     H9  913   3.402   1.307  12.232  0.3430  1.8317 -0.3472
   32bbb    H10  914   3.357   1.428  12.117 -0.4756  0.9296  0.8571
   32bbb     C6  915   3.108   1.693  12.397 -0.2897 -0.0457 -0.5262
   32bbb    H11  916   3.046   1.604  12.380 -2.7267  1.5180 -0.4152
   32bbb    H12  917   3.104   1.755  12.307 -2.2871  1.6068  0.5977
   32bbb     C7  918   3.682   1.690  12.278 -0.0917 -0.2428  0.1961
   32bbb    H13  919   3.672   1.653  12.175 -0.8720  1.4882 -0.3842
   32bbb    H14  920   3.748   1.628  12.341  0.6060  1.1170  0.8570
   32bbb     C8  921   3.040   1.767  12.507  0.7321 -0.0086  0.2908
   32bbb    H15  922   3.084   1.867  12.517  1.6626 -0.2261 -1.2948
   32bbb    H16  923   3.054   1.711  12.600 -2.7879 -0.0183  0.9796
   32bbb     C9  924   3.224   1.256  12.109  0.3661  0.8194 -0.3108
   32bbb    H17  925   3.279   1.246  12.014 -0.7661 -1.2498 -0.8027
   32bbb    H18  926   3.125   1.297  12.083  0.0491  0.3380  0.1239
   32bbb     O1  927   3.725   1.823  12.283 -0.3197 -0.2300  0.1397
   33bbb     N1  928   4.463   2.788  11.813  0.0377  0.9559  0.5793
   33bbb     C1  929   4.583   2.860  11.864  0.0458  0.0187 -0.2731
   33bbb     H1  930   4.555   2.906  11.960 -1.8637 -2.5309  0.4906
   33bbb     H2  931   4.616   2.938  11.794 -0.5128 -2.0473 -2.9910
   33bbb     C2  932   4.401   2.696  11.910  0.2261 -0.0800  0.1671
   33bbb     H3  933   4.479   2.628  11.946  0.4786 -1.0575 -1.9936
   33bbb     H4  934   4.331   2.639  11.847  0.4440  2.4753 -2.5974
   33bbb     C3  935   4.376   2.886  11.746 -0.2715  0.5656 -0.6261
   33bbb     H5  936   4.355   2.970  11.813  0.3328 -1.2627  2.0035
   33bbb     H6  937   4.280   2.837  11.728 -1.0122  1.4542  0.7262
   33bbb     C4  938   4.432   2.942  11.615 -0.1945  0.3727  0.1139
   33bbb     H7  939   4.482   2.861  11.559  0.8600  0.4434  0.9326
   33bbb     H8  940   4.504   3.020  11.639 -1.1967  1.3699 -0.0259
   33bbb     C5  941   4.703   2.770  11.874  0.2445  0.0404 -0.4373
   33bbb     H9  942   4.689   2.677  11.818 -3.0359  0.5260 -0.6534
   33bbb    H10  943   4.696   2.734  11.978 -1.4750 -2.4749 -1.3202
   33bbb     C6  944   4.318   2.761  12.020  0.3364 -0.2265  0.1925
   33bbb    H11  945   4.214   2.785  11.994  0.1326 -0.3966  0.8127
   33bbb    H12  946   4.366   2.854  12.051  1.0247 -0.1657 -1.0075
   33bbb     C7  947   4.333   3.021  11.528  0.2875 -0.0109  0.6548
   33bbb    H13  948   4.394   3.084  11.462 -0.1092  0.6298  0.8969
   33bbb    H14  949   4.276   3.096  11.585 -0.1122  1.1123 -1.1244
   33bbb     C8  950   4.328   2.669  12.142  0.1423  0.5519 -0.4679
   33bbb    H15  951   4.261   2.694  12.225 -0.0249 -1.6167  0.1104
   33bbb    H16  952   4.426   2.667  12.191  0.4015  0.4521 -0.9840
   33bbb     C9  953   4.840   2.837  11.847  0.0509 -0.4434 -0.0187
   33bbb    H17  954   4.918   2.766  11.877 -0.9224 -1.4918  0.0703
   33bbb    H18  955   4.841   2.933  11.901  1.2827  0.9461 -2.3653
   33bbb     O1  956   4.240   2.940  11.458 -0.2788  0.1245  0.1910
   34bbb     N1  957   3.098   3.134  11.534 -0.5726 -0.2820  0.0975
   34bbb     C1  958   3.135   3.229  11.635  0.2308  0.2486  0.3068
   34bbb     H1  959   3.200   3.183  11.710  2.0543  1.5624 -0.3943
   34bbb     H2  960   3.044   3.259  11.689 -0.4019 -0.1405 -0.5156
   34bbb     C2  961   2.998   3.195  11.444 -0.1984  0.3075 -0.0548
   34bbb     H3  962   3.057   3.269  11.390  2.6542 -2.3689 -0.9239
   34bbb     H4  963   2.931   3.258  11.503  2.1757  3.3643 -0.3622
   34bbb     C3  964   3.205   3.066  11.452 -0.5273  0.0406 -0.3180
   34bbb     H5  965   3.245   3.139  11.381  0.1038 -0.1296 -0.1440
   34bbb     H6  966   3.167   2.981  11.393  0.0428 -0.1505 -0.4223
   34bbb     C4  967   3.321   3.005  11.541  0.6278  0.9115 -0.3560
   34bbb     H7  968   3.278   2.949  11.626 -0.2059  2.3205  0.1927
   34bbb     H8  969   3.383   3.084  11.585  0.3354  0.9429  0.0133
   34bbb     C5  970   3.219   3.351  11.592  1.2999 -0.2266 -0.5003
   34bbb     H9  971   3.160   3.419  11.528  2.7368 -0.3353 -1.9782
   34bbb    H10  972   3.297   3.304  11.532  1.1927 -1.2510  0.1393
   34bbb     C6  973   2.910   3.110  11.356 -0.2927 -0.4210  0.4085
   34bbb    H11  974   2.977   3.056  11.288 -0.7502  1.2614 -1.5012
   34bbb    H12  975   2.865   3.177  11.282 -0.2834  0.3927  1.1268
   34bbb     C7  976   3.401   2.900  11.466 -0.5528 -0.1432  1.1315
   34bbb    H13  977   3.334   2.836  11.407  0.2550 -0.1582  0.1898
   34bbb    H14  978   3.450   2.833  11.538 -0.8966 -1.0138  0.5793
   34bbb     C8  979   2.800   3.023  11.412 -0.1334  0.3243 -0.0663
   34bbb    H15  980   2.736   3.093  11.468 -0.1862  1.8721 -1.9690
   34bbb    H16  981   2.838   2.944  11.477 -0.0448 -1.2501 -1.9571
   34bbb     C9  982   3.281   3.436  11.711 -0.2209 -0.3145 -0.2767
   34bbb    H17  983   3.340   3.519  11.672  1.4860 -0.8817  0.9644
   34bbb    H18  984   3.347   3.366  11.766 -0.4335 -1.4330 -1.3953
   34bbb     O1  985   3.501   2.968  11.384 -0.2833 -0.4365 -0.1542
   35bbb     N1  986   4.698   0.517   9.845  0.2343  0.5063  0.1674
   35bbb     C1  987   4.550   0.481   9.845 -0.4101 -0.6280 -0.6090
   35bbb     H1  988   4.495   0.572   9.822  0.4562  0.4996  1.4832
   35bbb     H2  989   4.517   0.443   9.943  1.1408  1.8513  1.0094
   35bbb     C2  990   4.751   0.560   9.714  0.6744  0.2321 -0.0459
   35bbb     H3  991   4.695   0.646   9.676 -2.6556 -2.2716 -1.2828
   35bbb     H4  992   4.732   0.479   9.642  2.4554 -1.6137  1.4258
   35bbb     C3  993   4.745   0.616   9.952  0.1382  0.2596 -0.5985
   35bbb     H5  994   4.697   0.713   9.934 -0.0716  0.4169  0.6802
   35bbb     H6  995   4.854   0.628   9.949  0.3165 -0.9194  0.4125
   35bbb     C4  996   4.702   0.578  10.101 -0.1597  0.2112  0.4031
   35bbb     H7  997   4.729   0.480  10.142 -0.4543  1.3179  3.5489
   35bbb     H8  998   4.593   0.591  10.104 -0.1540  1.1252 -1.6991
   35bbb     C5  999   4.521   0.375   9.737 -0.3999  1.2582  0.4060
   35bbb     H9 1000   4.598   0.296   9.740 -1.3528  0.2988  0.3125
   35bbb    H10 1001   4.528   0.414   9.635 -1.0955 -3.0407 -1.4988
   35bbb     C6 1002   4.899   0.587   9.700 -0.0485 -0.0785  0.5576
   35bbb    H11 1003   4.955   0.500   9.737  0.5668  0.4645  0.9143
   35bbb    H12 1004   4.929   0.669   9.767 -0.9177  2.4689 -1.9576
   35bbb     C7 1005   4.769   0.688  10.188  0.1241  0.7254  0.1347
   35bbb    H13 1006   4.878   0.692  10.180  0.2623  2.2131  1.9908
   35bbb    H14 1007   4.749   0.668  10.294  1.1285  1.2730  0.4467
   35bbb     C8 1008   4.941   0.619   9.550 -0.3611 -0.0884 -0.1855
   35bbb    H15 1009   5.049   0.641   9.554 -0.0835 -1.5115  1.9307
   35bbb    H16 1010   4.891   0.710   9.515  2.2790  1.7738  0.5050
   35bbb     C9 1011   4.378   0.316   9.748  0.3979 -0.7732  0.1926
   35bbb    H17 1012   4.356   0.246   9.667  1.1102  0.1916 -0.8785
   35bbb    H18 1013   4.312   0.396   9.712  1.3393  0.0568  0.2625
   35bbb     O1 1014   4.701   0.813  10.146 -0.6339  0.1073 -0.7487
   36bbb     N1 1015   4.585   0.377  10.504  0.8982 -0.6822 -0.1451
   36bbb     C1 1016   4.450   0.356  10.557  0.2653 -1.6868  0.1169
   36bbb     H1 1017   4.425   0.249  10.553  0.5013 -1.7027 -1.2371
   36bbb     H2 1018   4.376   0.404  10.493 -0.8112 -3.8529 -0.3598
   36bbb     C2 1019   4.586   0.347  10.350  0.1827 -0.5152  0.0521
   36bbb     H3 1020   4.688   0.358  10.311  1.0122 -0.5003  2.0972
   36bbb     H4 1021   4.526   0.421  10.295  1.4798  0.1589 -0.4944
   36bbb     C3 1022   4.652   0.509  10.531 -0.0375  0.2979 -0.0591
   36bbb     H5 1023   4.574   0.583  10.551 -0.3085 -0.0221  0.0618
   36bbb     H6 1024   4.712   0.539  10.444 -0.0004 -0.2360 -0.2194
   36bbb     C4 1025   4.757   0.505  10.643 -0.4039 -0.6099 -0.1903
   36bbb     H7 1026   4.848   0.456  10.605  0.2759 -0.4819  1.1755
   36bbb     H8 1027   4.722   0.436  10.721  1.3323 -1.7990 -0.4001
   36bbb     C5 1028   4.442   0.400  10.708 -0.4619  0.4149  0.7472
   36bbb     H9 1029   4.456   0.508  10.722 -1.7536  0.5059  1.5335
   36bbb    H10 1030   4.523   0.348  10.759 -0.6311 -0.9996 -0.3592
   36bbb     C6 1031   4.541   0.204  10.307  0.3945  0.3304 -0.1065
   36bbb    H11 1032   4.433   0.195  10.325  0.5333  0.1705  0.6807
   36bbb    H12 1033   4.593   0.134  10.373  0.1329 -0.9936 -1.2772
   36bbb     C7 1034   4.800   0.643  10.709 -1.0391  0.2405 -0.5244
   36bbb    H13 1035   4.864   0.704  10.645  0.1670  0.0647  0.4817
   36bbb    H14 1036   4.859   0.611  10.796 -3.9167 -1.9606  0.8389
   36bbb     C8 1037   4.563   0.176  10.157  0.3295 -0.2404 -0.8705
   36bbb    H15 1038   4.521   0.257  10.096  1.9848  0.2103 -1.4606
   36bbb    H16 1039   4.495   0.096  10.126  0.2718 -1.3041  1.6958
   36bbb     C9 1040   4.317   0.356  10.785  0.6869  0.4690 -0.2252
   36bbb    H17 1041   4.309   0.246  10.791  0.1761  0.4433 -1.0550
   36bbb    H18 1042   4.331   0.403  10.883  2.9304  4.0741 -2.0876
   36bbb     O1 1043   4.684   0.717  10.760  0.0878 -0.1230 -0.0634
   37bbb     N1 1044   5.991   1.462  11.293 -0.1626 -0.0135  0.1398
   37bbb     C1 1045   6.031   1.588  11.357  0.2781  0.1271  0.2166
   37bbb     H1 1046   6.123   1.578  11.417  0.8793 -0.6777 -0.8074
   37bbb     H2 1047   5.949   1.601  11.428 -1.1186 -3.1616 -0.6168
   37bbb     C2 1048   6.099   1.393  11.216  0.6255  0.1011  0.6664
   37bbb     H3 1049   6.096   1.430  11.113  1.5551 -0.4461  0.4327
   37bbb     H4 1050   6.077   1.286  11.212  2.0467 -0.1716 -0.7715
   37bbb     C3 1051   5.855   1.462  11.232 -0.8060 -0.0967  0.1787
   37bbb     H5 1052   5.857   1.517  11.137 -0.8977  0.0198  0.2438
   37bbb     H6 1053   5.775   1.506  11.294 -2.7056 -2.2488 -0.6119
   37bbb     C4 1054   5.796   1.314  11.209  0.5946 -0.1089 -0.2538
   37bbb     H7 1055   5.780   1.259  11.302 -0.8107 -2.0034 -1.5354
   37bbb     H8 1056   5.865   1.251  11.152 -0.3330  0.5646 -2.2269
   37bbb     C5 1057   6.032   1.711  11.264 -0.1824  0.0423  0.0841
   37bbb     H9 1058   6.035   1.804  11.322 -1.3380 -0.8348  1.6385
   37bbb    H10 1059   5.943   1.713  11.199  1.2168 -0.0843 -1.9106
   37bbb     C6 1060   6.242   1.376  11.269  0.2182  0.1994  1.2806
   37bbb    H11 1061   6.232   1.295  11.342  0.8630 -0.4370  0.6820
   37bbb    H12 1062   6.271   1.471  11.316 -0.8314  0.2640  1.8306
   37bbb     C7 1063   5.661   1.311  11.139  0.1739 -1.0897 -0.1948
   37bbb    H13 1064   5.631   1.206  11.131 -0.8484 -0.9855  1.6688
   37bbb    H14 1065   5.658   1.376  11.051 -0.7987  0.2910  0.8081
   37bbb     C8 1066   6.347   1.333  11.162 -0.2860  0.5439 -0.0039
   37bbb    H15 1067   6.443   1.306  11.210 -0.3954  0.4513  0.1652
   37bbb    H16 1068   6.368   1.415  11.093 -2.9142  0.7828 -0.6222
   37bbb     C9 1069   6.153   1.708  11.156 -0.9952  0.6845  0.2278
   37bbb    H17 1070   6.237   1.643  11.184 -0.9267  0.3636 -0.7027
   37bbb    H18 1071   6.187   1.810  11.134  0.7746 -0.3541 -2.3449
   37bbb     O1 1072   5.563   1.371  11.223 -0.6191  0.2312 -0.3650
   38bbb     N1 1073   5.281   0.822  11.915  0.7328  0.7012  0.6701
   38bbb     C1 1074   5.237   0.676  11.928 -0.3083  0.5858  0.6460
   38bbb     H1 1075   5.318   0.608  11.957 -1.8764 -1.4692  0.4131
   38bbb     H2 1076   5.188   0.634  11.840  1.0776  1.2512 -0.4712
   38bbb     C2 1077   5.376   0.840  11.803 -0.0861  0.2119 -0.0233
   38bbb     H3 1078   5.399   0.947  11.795  0.4823  0.1591  0.7707
   38bbb     H4 1079   5.328   0.805  11.711  1.1286  1.7385 -1.2954
   38bbb     C3 1080   5.167   0.914  11.912 -0.3642 -0.1240 -0.2055
   38bbb     H5 1081   5.195   1.012  11.952 -0.9792 -0.8553  2.2317
   38bbb     H6 1082   5.088   0.883  11.982 -0.2724 -0.2299 -0.1484
   38bbb     C4 1083   5.103   0.926  11.773 -0.1839 -0.3593 -0.7751
   38bbb     H7 1084   5.053   0.832  11.747 -1.5721  0.5199 -1.4434
   38bbb     H8 1085   5.175   0.970  11.703 -1.8578  1.6042 -1.3658
   38bbb     C5 1086   5.132   0.652  12.043  0.1490 -0.1814 -0.4425
   38bbb     H9 1087   5.114   0.545  12.058 -0.8411 -0.1217 -1.1307
   38bbb    H10 1088   5.039   0.696  12.005  0.6917  1.6106  0.1878
   38bbb     C6 1089   5.511   0.756  11.813  0.1032 -0.8652 -0.4756
   38bbb    H11 1090   5.491   0.654  11.780 -1.0260 -0.4010 -1.3145
   38bbb    H12 1091   5.547   0.760  11.916  0.1162 -0.9838 -0.4759
   38bbb     C7 1092   4.989   1.025  11.788 -0.0031  0.1534  0.4556
   38bbb    H13 1093   5.013   1.128  11.815 -0.3837  0.3690 -0.0013
   38bbb    H14 1094   4.924   0.992  11.870 -0.9214 -0.3729 -0.4475
   38bbb     C8 1095   5.606   0.812  11.703  0.2869 -0.4766 -0.5358
   38bbb    H15 1096   5.642   0.913  11.726 -1.3323  0.1992 -0.8477
   38bbb    H16 1097   5.550   0.833  11.611 -0.2475  2.2077  0.3136
   38bbb     C9 1098   5.169   0.711  12.178  0.8101 -0.1481  0.1152
   38bbb    H17 1099   5.095   0.675  12.250  1.4604  0.2242  0.9747
   38bbb    H18 1100   5.174   0.819  12.160 -0.5590 -0.5520 -3.6495
   38bbb     O1 1101   4.913   1.027  11.661 -0.2165  0.7382  0.5424
   39bbb     N1 1102   2.347   0.886  11.291 -0.0004 -0.8157 -0.5337
   39bbb     C1 1103   2.271   0.982  11.378 -0.2872  0.2256 -0.0662
   39bbb     H1 1104   2.286   0.947  11.480  0.7013 -3.0505 -1.2085
   39bbb     H2 1105   2.163   0.976  11.358 -0.3430  5.0996 -2.8998
   39bbb     C2 1106   2.334   0.741  11.318 -0.0177 -0.3473  0.0398
   39bbb     H3 1107   2.418   0.692  11.265  0.9224 -0.0005  1.1714
   39bbb     H4 1108   2.248   0.710  11.258  0.9828  0.9741 -2.2586
   39bbb     C3 1109   2.360   0.924  11.152 -0.7322  0.0729 -0.4796
   39bbb     H5 1110   2.424   0.855  11.096  0.0541 -1.0015  1.6118
   39bbb     H6 1111   2.411   1.021  11.143 -0.1865 -0.3561 -2.5538
   39bbb     C4 1112   2.225   0.922  11.074  0.0967  0.0701 -0.1597
   39bbb     H7 1113   2.161   1.005  11.104  1.6837  1.3024 -0.0485
   39bbb     H8 1114   2.164   0.834  11.097 -0.2087  0.0565 -0.9677
   39bbb     C5 1115   2.317   1.134  11.377  0.2135 -0.2648  0.8796
   39bbb     H9 1116   2.242   1.188  11.436  1.5177  2.4923  0.1860
   39bbb    H10 1117   2.328   1.180  11.278  3.7083 -1.4333  0.5583
   39bbb     C6 1118   2.326   0.688  11.464 -0.3757 -0.6336  0.3469
   39bbb    H11 1119   2.315   0.579  11.463 -1.4775 -0.5297  0.4088
   39bbb    H12 1120   2.230   0.721  11.505 -1.5801 -1.2767 -1.7952
   39bbb     C7 1121   2.245   0.930  10.922  0.6619  0.0097  0.3822
   39bbb    H13 1122   2.147   0.946  10.876  0.1543 -0.0809  1.4050
   39bbb    H14 1123   2.284   0.837  10.878 -0.6244  0.4871 -1.9408
   39bbb     C8 1124   2.437   0.736  11.557 -0.0577  0.2910  0.4885
   39bbb    H15 1125   2.479   0.833  11.527  1.4307 -0.3626  0.3647
   39bbb    H16 1126   2.526   0.674  11.542  0.3864  1.2844 -1.2851
   39bbb     C9 1127   2.448   1.149  11.450  0.0254  0.6775 -1.2566
   39bbb    H17 1128   2.526   1.123  11.377  0.4170  0.2019 -0.6769
   39bbb    H18 1129   2.453   1.076  11.531  0.8236  0.9894 -1.0180
   39bbb     O1 1130   2.333   1.040  10.892  0.6020 -0.2926 -0.2542
   40bbb     N1 1131   2.689   0.515  10.041 -0.9379  0.5034 -0.6345
   40bbb     C1 1132   2.581   0.615  10.008 -0.5139  0.3747  0.1700
   40bbb     H1 1133   2.579   0.691  10.087 -1.1762  0.0079  0.5202
   40bbb     H2 1134   2.490   0.553  10.011  0.1564 -0.8118 -1.9049
   40bbb     C2 1135   2.710   0.399   9.947 -0.6041 -0.4889  0.0523
   40bbb     H3 1136   2.723   0.426   9.842 -2.2102 -1.6249 -0.4722
   40bbb     H4 1137   2.615   0.345   9.935  0.4553 -2.3160 -0.6928
   40bbb     C3 1138   2.706   0.491  10.188 -0.1491  0.7708  0.1822
   40bbb     H5 1139   2.712   0.584  10.245  3.8489 -0.0897  1.4605
   40bbb     H6 1140   2.796   0.431  10.206 -1.3348 -1.0784  0.2688
   40bbb     C4 1141   2.595   0.397  10.244 -0.1608  0.1939  0.3270
   40bbb     H7 1142   2.603   0.296  10.203 -2.8464  0.2428 -0.4894
   40bbb     H8 1143   2.496   0.434  10.216 -1.3202 -2.2203  0.9760
   40bbb     C5 1144   2.594   0.673   9.863  0.4284  0.4563  0.1326
   40bbb     H9 1145   2.632   0.604   9.787 -0.2081  0.1317  0.1008
   40bbb    H10 1146   2.666   0.755   9.862 -0.5099  1.2970 -0.1419
   40bbb     C6 1147   2.836   0.301   9.976 -0.0536  0.2575 -0.3541
   40bbb    H11 1148   2.837   0.223   9.899  1.1512 -0.1719  0.0768
   40bbb    H12 1149   2.833   0.251  10.074  0.5709 -0.3317 -0.6259
   40bbb     C7 1150   2.603   0.392  10.398  0.0266 -0.0669  0.3628
   40bbb    H13 1151   2.703   0.359  10.428 -0.7673 -1.9246  1.0786
   40bbb    H14 1152   2.530   0.314  10.422  0.1997 -0.5283 -0.5454
   40bbb     C8 1153   2.965   0.380   9.966 -0.0571  0.1402 -0.0300
   40bbb    H15 1154   2.947   0.471  10.025 -1.6826 -1.4102  2.0809
   40bbb    H16 1155   2.978   0.411   9.862  2.0496  1.6685  0.6243
   40bbb     C9 1156   2.462   0.746   9.824 -0.0567 -0.5939  0.4103
   40bbb    H17 1157   2.469   0.795   9.727 -0.3433 -0.8631  0.2506
   40bbb    H18 1158   2.453   0.833   9.891  0.5183  0.7755 -1.2250
   40bbb     O1 1159   2.571   0.523  10.450  0.3475  0.2428  0.7299
   41bbb     N1 1160   1.290   1.693  11.083  0.6178  0.4957 -0.3142
   41bbb     C1 1161   1.227   1.678  11.218 -0.2096 -0.2265  1.0960
   41bbb     H1 1162   1.297   1.617  11.276  3.3096  1.8584 -0.6079
   41bbb     H2 1163   1.135   1.618  11.212 -0.9764  0.7520  2.4420
   41bbb     C2 1164   1.229   1.797  10.999 -0.4895  0.8676  1.0235
   41bbb     H3 1165   1.301   1.834  10.925 -0.2575 -1.9256 -0.2559
   41bbb     H4 1166   1.203   1.889  11.053  0.0944  0.8539  1.3304
   41bbb     C3 1167   1.328   1.561  11.024  0.3716 -0.0005  0.2439
   41bbb     H5 1168   1.232   1.528  10.982 -0.4270  1.8155  0.5512
   41bbb     H6 1169   1.363   1.489  11.100  0.6644  0.8916  0.9729
   41bbb     C4 1170   1.428   1.575  10.909  0.0368 -0.3095  0.1931
   41bbb     H7 1171   1.390   1.638  10.828  1.6594  0.7368  0.1930
   41bbb     H8 1172   1.433   1.477  10.860 -0.3676  0.5238 -1.5806
   41bbb     C5 1173   1.194   1.812  11.288 -0.4777 -0.3151 -0.4306
   41bbb     H9 1174   1.160   1.789  11.390  1.2655 -0.3741  0.1698
   41bbb    H10 1175   1.113   1.860  11.232 -1.0574 -0.4942  0.2260
   41bbb     C6 1176   1.106   1.759  10.911  0.1048  0.5440 -0.2825
   41bbb    H11 1177   1.031   1.705  10.971  0.3312 -0.1582 -0.6167
   41bbb    H12 1178   1.132   1.681  10.838 -1.3583 -0.3056  0.0466
   41bbb     C7 1179   1.561   1.636  10.962  0.3824  0.0579  0.7028
   41bbb    H13 1180   1.615   1.550  11.001 -1.2815 -1.7750 -0.7718
   41bbb    H14 1181   1.545   1.699  11.050 -0.8658 -0.3006  0.7554
   41bbb     C8 1182   1.036   1.876  10.834  0.1463  0.1220 -0.3407
   41bbb    H15 1183   0.983   1.828  10.751  2.1974 -0.9336 -1.1088
   41bbb    H16 1184   1.105   1.953  10.798 -1.7104  2.5821  1.0140
   41bbb     C9 1185   1.326   1.900  11.305  1.0604 -0.4958  0.7450
   41bbb    H17 1186   1.405   1.874  11.234  1.1185 -0.2512  0.7175
   41bbb    H18 1187   1.374   1.871  11.399 -0.1426 -3.7940  0.4868
   41bbb     O1 1188   1.643   1.700  10.857 -0.1883  0.7072  0.2646
   42bbb     N1 1189   1.881   2.117  10.092 -0.3115  0.3953  0.0172
   42bbb     C1 1190   1.899   2.228   9.988  0.6943  0.2239  0.1732
   42bbb     H1 1191   1.955   2.194   9.900  0.6799 -0.3672  0.3858
   42bbb     H2 1192   1.956   2.310  10.034 -0.1848  1.7138 -1.2802
   42bbb     C2 1193   1.990   2.016  10.094  0.3423  0.0296 -0.0416
   42bbb     H3 1194   1.974   1.940  10.171  0.2002 -2.4841 -2.4074
   42bbb     H4 1195   2.086   2.063  10.119  1.0648 -1.6741  0.5158
   42bbb     C3 1196   1.831   2.161  10.225  0.3687 -0.1232 -0.4039
   42bbb     H5 1197   1.817   2.075  10.292 -4.0433 -0.4360 -1.3759
   42bbb     H6 1198   1.729   2.201  10.213  0.3225 -0.5118 -1.4057
   42bbb     C4 1199   1.918   2.264  10.302  0.5431  0.0724  0.1353
   42bbb     H7 1200   1.904   2.359  10.250  0.4716  0.2615  0.5003
   42bbb     H8 1201   2.022   2.229  10.293  0.0117 -1.0918 -2.9871
   42bbb     C5 1202   1.774   2.290   9.937  0.4366 -0.1798 -0.6513
   42bbb     H9 1203   1.716   2.324  10.023  1.5100  1.9221 -0.7058
   42bbb    H10 1204   1.724   2.206   9.887  0.0122 -1.0098  1.1206
   42bbb     C6 1205   2.010   1.949   9.958  0.4728 -0.0700  0.5052
   42bbb    H11 1206   2.033   2.019   9.876 -0.7718 -0.6079 -0.3282
   42bbb    H12 1207   1.919   1.899   9.924  0.0675  1.9715 -1.6566
   42bbb     C7 1208   1.861   2.287  10.446 -0.3322 -0.2898  0.0104
   42bbb    H13 1209   1.752   2.296  10.443 -0.5180 -1.9513  0.3646
   42bbb    H14 1210   1.900   2.383  10.482 -1.4932  0.0317  0.4320
   42bbb     C8 1211   2.128   1.850   9.952  0.8861 -0.3526  0.1399
   42bbb    H15 1212   2.122   1.777  10.033 -2.3370  0.3712  0.7205
   42bbb    H16 1213   2.224   1.902   9.963  1.2926 -0.7828 -1.1744
   42bbb     C9 1214   1.786   2.409   9.842 -1.0308  0.1651  0.3900
   42bbb    H17 1215   1.828   2.369   9.749 -0.4358 -2.0578  1.5397
   42bbb    H18 1216   1.873   2.468   9.873  0.9308 -2.3742  0.0280
   42bbb     O1 1217   1.905   2.182  10.537  0.5630 -0.4388 -0.3990
   43bbb     N1 1218   3.652   3.057  12.075 -0.0707 -0.1340 -0.7031
   43bbb     C1 1219   3.698   3.190  12.128 -0.4572 -0.0343  0.1575
   43bbb     H1 1220   3.640   3.221  12.216  2.3057  0.1645  2.0513
   43bbb     H2 1221   3.686   3.271  12.056 -0.2402 -1.1893 -1.2316
   43bbb     C2 1222   3.517   3.064  12.013 -0.0961  0.3078  0.8195
   43bbb     H3 1223   3.437   3.082  12.085 -0.7264  0.3462  0.1297
   43bbb     H4 1224   3.499   2.969  11.961  2.6641  1.0521 -1.8125
   43bbb     C3 1225   3.671   2.926  12.144  0.0193 -0.2995  0.2040
   43bbb     H5 1226   3.772   2.924  12.187 -0.6578  0.7119  1.9669
   43bbb     H6 1227   3.648   2.847  12.072  0.2422 -0.2494  0.0763
   43bbb     C4 1228   3.580   2.907  12.264  0.3868 -0.1860  0.1942
   43bbb     H7 1229   3.474   2.906  12.235  0.9886  0.5767 -2.2000
   43bbb     H8 1230   3.587   2.974  12.351  2.5715  0.0314 -0.1068
   43bbb     C5 1231   3.848   3.199  12.151 -0.3604  0.1985  0.1077
   43bbb     H9 1232   3.869   3.145  12.244 -1.2572  1.3060  0.9873
   43bbb    H10 1233   3.882   3.301  12.176  0.7953 -0.1049 -0.1594
   43bbb     C6 1234   3.495   3.173  11.909 -0.4535 -0.0602 -0.0643
   43bbb    H11 1235   3.505   3.274  11.950  0.4408  0.1762 -0.8327
   43bbb    H12 1236   3.387   3.165  11.891 -0.5303  1.9740 -0.6719
   43bbb     C7 1237   3.606   2.771  12.327  0.7806 -0.6457  0.3234
   43bbb    H13 1238   3.567   2.774  12.429  1.0945 -0.1995  0.4344
   43bbb    H14 1239   3.713   2.748  12.333  1.3678  1.2845 -1.3662
   43bbb     C8 1240   3.594   3.161  11.783 -0.3644  0.3210 -0.4238
   43bbb    H15 1241   3.586   3.068  11.726 -1.5055  1.9866 -3.1919
   43bbb    H16 1242   3.698   3.171  11.815 -0.4214  2.3389 -0.7273
   43bbb     C9 1243   3.936   3.162  12.023 -0.4043 -0.2599  0.1601
   43bbb    H17 1244   3.893   3.216  11.938  2.3318  2.5451  0.3683
   43bbb    H18 1245   3.937   3.052  12.021 -0.0954 -0.2572  0.0329
   43bbb     O1 1246   3.548   2.671  12.247  0.1782 -0.2235  0.6603
   44bbb     N1 1247   2.844   2.136  12.967  0.5455 -0.1552 -0.0264
   44bbb     C1 1248   2.830   1.993  12.985 -0.5319 -0.4364 -0.9761
   44bbb     H1 1249   2.900   1.936  12.923 -0.4361 -0.4697 -0.8372
   44bbb     H2 1250   2.730   1.956  12.957 -0.7230 -1.7773  1.2609
   44bbb     C2 1251   2.745   2.229  13.027 -1.1424 -0.1138  0.3470
   44bbb     H3 1252   2.772   2.332  13.004 -0.2535 -0.3342  0.3684
   44bbb     H4 1253   2.756   2.219  13.136  1.0567  0.8203  0.2508
   44bbb     C3 1254   2.874   2.179  12.824 -0.5502 -0.6399 -0.0009
   44bbb     H5 1255   2.874   2.289  12.823  2.0551 -0.5734 -0.5418
   44bbb     H6 1256   2.791   2.150  12.759 -0.7868 -1.1230  0.5190
   44bbb     C4 1257   3.011   2.142  12.771 -0.0506  0.8611  0.1014
   44bbb     H7 1258   3.006   2.033  12.780 -1.8916  0.8357 -0.7880
   44bbb     H8 1259   3.090   2.195  12.826  0.9734 -0.1551 -0.3527
   44bbb     C5 1260   2.871   1.947  13.127  0.2664 -0.1567  0.0637
   44bbb     H9 1261   2.839   1.843  13.146  0.1887 -0.0572  0.4925
   44bbb    H10 1262   2.820   2.008  13.203 -0.8919 -2.4700  1.2829
   44bbb     C6 1263   2.603   2.208  12.982  0.9596  0.2535  0.7253
   44bbb    H11 1264   2.585   2.117  13.041 -0.4232 -1.8869 -2.7351
   44bbb    H12 1265   2.606   2.180  12.876  0.1898  0.6361  0.5941
   44bbb     C7 1266   3.032   2.168  12.620  1.1671 -0.2556  0.4981
   44bbb    H13 1267   3.022   2.272  12.589  1.3797 -0.4195 -0.1441
   44bbb    H14 1268   2.968   2.109  12.553 -1.3523  1.3447  1.3641
   44bbb     C8 1269   2.516   2.331  13.006  0.4738 -0.0484 -0.4376
   44bbb    H15 1270   2.552   2.390  13.091  3.7565 -0.9766 -1.0220
   44bbb    H16 1271   2.410   2.311  13.023  0.9880 -2.2308  0.4922
   44bbb     C9 1272   3.029   1.964  13.147  0.4292  0.1124 -0.2061
   44bbb    H17 1273   3.053   2.071  13.136  1.6582 -0.0734  0.4943
   44bbb    H18 1274   3.052   1.929  13.248 -0.1791  0.6501  0.1273
   44bbb     O1 1275   3.166   2.123  12.597 -0.6234  0.1546 -0.2417
   45bbb     N1 1276   2.234   2.880  11.407 -0.4056 -0.3362  0.4158
   45bbb     C1 1277   2.258   2.975  11.525 -0.2277  0.2764  0.0348
   45bbb     H1 1278   2.165   3.013  11.569 -0.3628 -0.3215  0.2787
   45bbb     H2 1279   2.304   3.059  11.472 -2.3131  1.2296 -0.3525
   45bbb     C2 1280   2.160   2.956  11.298 -0.4009 -0.1708 -0.7536
   45bbb     H3 1281   2.202   3.054  11.272  0.4786 -0.0209  1.0149
   45bbb     H4 1282   2.054   2.974  11.320 -0.5177 -0.6335 -0.9327
   45bbb     C3 1283   2.167   2.759  11.442 -0.2422 -0.7436 -0.3158
   45bbb     H5 1284   2.231   2.727  11.525  1.8586  3.1227 -0.2506
   45bbb     H6 1285   2.169   2.678  11.368  0.1203  0.0908 -1.2348
   45bbb     C4 1286   2.022   2.776  11.506  0.1518  0.0545  0.5037
   45bbb     H7 1287   1.957   2.783  11.418 -1.8224  2.0050  1.9965
   45bbb     H8 1288   2.012   2.868  11.565  1.0639  0.2050  0.4384
   45bbb     C5 1289   2.349   2.929  11.637 -0.0505  0.0270  0.0970
   45bbb     H9 1290   2.431   2.886  11.578  1.0974  1.0902  0.8960
   45bbb    H10 1291   2.306   2.851  11.701 -0.9716  0.4157 -0.0288
   45bbb     C6 1292   2.156   2.878  11.167  0.2543  0.2118  0.6784
   45bbb    H11 1293   2.090   2.933  11.099  1.1442  0.4837  0.0106
   45bbb    H12 1294   2.107   2.780  11.174 -1.5357  0.3938 -4.7897
   45bbb     C7 1295   1.985   2.653  11.590 -0.3156 -0.5124  0.7423
   45bbb    H13 1296   2.001   2.556  11.541 -1.5039  0.2275 -1.2089
   45bbb    H14 1297   1.877   2.656  11.606 -0.0121  0.4780  2.9767
   45bbb     C8 1298   2.288   2.848  11.100 -0.0748 -0.4497  0.2296
   45bbb    H15 1299   2.266   2.780  11.017  0.0312  0.3202 -0.4429
   45bbb    H16 1300   2.349   2.793  11.173 -2.4393 -1.2382  1.7752
   45bbb     C9 1301   2.402   3.034  11.732  0.1333  0.1526  0.4995
   45bbb    H17 1302   2.326   3.072  11.802  0.4321  0.5515  0.6117
   45bbb    H18 1303   2.445   3.115  11.672  1.3311 -0.6251  0.2909
   45bbb     O1 1304   2.052   2.673  11.716 -0.0037  0.2072  0.7567
   46bbb     N1 1305   2.068   2.192  12.752  0.7925 -0.9005 -0.0170
   46bbb     C1 1306   2.102   2.288  12.859 -0.3463  0.3549 -0.1686
   46bbb     H1 1307   2.161   2.373  12.822 -1.1066  0.6923 -0.6246
   46bbb     H2 1308   2.167   2.239  12.933  3.6880  0.0472 -3.4769
   46bbb     C2 1309   2.008   2.067  12.804 -0.4252 -0.1926 -0.1369
   46bbb     H3 1310   1.918   2.086  12.863 -0.2664  1.9383 -0.5128
   46bbb     H4 1311   2.089   2.029  12.867 -0.2008 -0.1377 -0.3915
   46bbb     C3 1312   2.189   2.176  12.670  0.0799  0.0239 -0.3046
   46bbb     H5 1313   2.184   2.085  12.608 -0.0199  0.9573 -1.7193
   46bbb     H6 1314   2.282   2.159  12.725 -0.7864  0.3220  1.2883
   46bbb     C4 1315   2.215   2.298  12.579  0.0748 -0.8365 -0.7877
   46bbb     H7 1316   2.219   2.384  12.647 -2.1197 -1.9140  0.8694
   46bbb     H8 1317   2.131   2.321  12.512 -1.5974 -2.8119  0.5062
   46bbb     C5 1318   1.979   2.345  12.930  0.8560  0.2297 -0.2078
   46bbb     H9 1319   1.942   2.265  12.995 -0.0593  0.9864  0.2308
   46bbb    H10 1320   1.907   2.370  12.851  1.3763 -0.2353 -0.8443
   46bbb     C6 1321   1.985   1.950  12.706  0.4936  0.3518 -0.0653
   46bbb    H11 1322   2.068   1.909  12.648  1.6682 -2.1741  3.1232
   46bbb    H12 1323   1.923   1.990  12.625  2.7314 -0.6581 -2.4344
   46bbb     C7 1324   2.337   2.290  12.492 -0.7986  0.3167 -0.3387
   46bbb    H13 1325   2.350   2.185  12.463 -1.4868  0.6593 -1.9964
   46bbb    H14 1326   2.425   2.310  12.555 -0.1365 -0.0915 -1.1281
   46bbb     C8 1327   1.904   1.827  12.764 -0.3940 -0.6332 -0.4367
   46bbb    H15 1328   1.881   1.756  12.684 -0.6985 -0.5885 -0.3895
   46bbb    H16 1329   1.810   1.862  12.808 -0.5149 -0.9438 -0.4445
   46bbb     C9 1330   2.007   2.470  13.027  0.2876 -0.2835  0.0305
   46bbb    H17 1331   2.095   2.452  13.091  0.2218 -0.6904  0.0102
   46bbb    H18 1332   1.920   2.488  13.092 -0.7620 -1.9359 -0.8431
   46bbb     O1 1333   2.340   2.385  12.381 -0.4422  0.2322  0.1135
   47bbb     N1 1334   4.301   0.022  11.259  0.4011  0.1283  0.2696
   47bbb     C1 1335   4.407  -0.052  11.184 -0.6999  0.3468 -0.1497
   47bbb     H1 1336   4.503  -0.038  11.235  0.7984 -4.4099 -1.1350
   47bbb     H2 1337   4.423  -0.007  11.086 -0.8719 -0.8374 -0.7362
   47bbb     C2 1338   4.337   0.164  11.277 -0.1808 -0.2118 -0.1472
   47bbb     H3 1339   4.340   0.212  11.178  1.9536  1.0750  0.4837
   47bbb     H4 1340   4.440   0.164  11.315  0.1159  0.0841 -0.9329
   47bbb     C3 1341   4.156  -0.002  11.213  0.1303  0.4780 -0.0859
   47bbb     H5 1342   4.087   0.049  11.282  0.3437  0.7809 -0.0937
   47bbb     H6 1343   4.135  -0.109  11.219  0.5618  0.3936 -0.0384
   47bbb     C4 1344   4.132   0.053  11.070 -0.8039  0.0789  0.0347
   47bbb     H7 1345   4.201   0.005  11.000 -0.3500  2.4459 -1.2336
   47bbb     H8 1346   4.133   0.163  11.062 -1.5604  0.2283  1.6220
   47bbb     C5 1347   4.404  -0.208  11.179  0.5793 -0.5158 -0.0078
   47bbb     H9 1348   4.333  -0.252  11.108 -1.0298  0.0708  1.1961
   47bbb    H10 1349   4.368  -0.238  11.277 -1.0331  0.3875 -0.2873
   47bbb     C6 1350   4.257   0.252  11.366 -0.3065  0.8326 -0.5200
   47bbb    H11 1351   4.158   0.257  11.319  0.1757  0.3294 -1.6265
   47bbb    H12 1352   4.298   0.354  11.356  0.6461  0.3750 -1.4605
   47bbb     C7 1353   3.990  -0.002  11.028  0.7032  0.1790 -0.9229
   47bbb    H13 1354   3.912   0.026  11.100 -0.8706 -1.6323 -1.8121
   47bbb    H14 1355   3.994  -0.112  11.035 -0.1808  0.2016  0.2398
   47bbb     C8 1356   4.252   0.208  11.514  0.1829 -0.2516  0.7521
   47bbb    H15 1357   4.351   0.189  11.556  0.5041  0.7124  0.4625
   47bbb    H16 1358   4.195   0.115  11.520  1.1073 -0.8375  0.4870
   47bbb     C9 1359   4.543  -0.278  11.168  0.1606 -0.3725 -0.2053
   47bbb    H17 1360   4.535  -0.387  11.158 -0.3419 -0.4360  0.7343
   47bbb    H18 1361   4.593  -0.259  11.264  1.1947 -1.6374 -0.4695
   47bbb     O1 1362   3.972   0.039  10.890  0.0724  0.1525  0.3956
   48bbb     N1 1363   3.119   0.493  10.439 -0.0806  0.0362  0.8073
   48bbb     C1 1364   3.184   0.594  10.525 -0.2314 -0.0284 -0.9959
   48bbb     H1 1365   3.290   0.570  10.541  0.2908  2.7178  0.3418
   48bbb     H2 1366   3.131   0.592  10.621  2.7870 -1.1629  0.7729
   48bbb     C2 1367   3.149   0.509  10.296  0.0906 -0.0045  0.2314
   48bbb     H3 1368   3.125   0.605  10.248 -0.5629 -0.6496 -0.7804
   48bbb     H4 1369   3.080   0.437  10.250  0.3129 -0.5137  0.6838
   48bbb     C3 1370   3.125   0.357  10.502 -0.0097  0.2319 -0.2655
   48bbb     H5 1371   3.076   0.363  10.600  1.4365  0.2702  0.4875
   48bbb     H6 1372   3.231   0.332  10.515 -0.3145 -1.6916 -1.1134
   48bbb     C4 1373   3.068   0.244  10.419 -0.0230 -0.3852 -0.7937
   48bbb     H7 1374   3.127   0.235  10.327 -0.3607  0.6274 -1.1235
   48bbb     H8 1375   2.967   0.282  10.398  0.3176 -0.0466 -1.9032
   48bbb     C5 1376   3.184   0.737  10.476  0.2584  0.5514 -0.2806
   48bbb     H9 1377   3.079   0.766  10.466 -0.0417  0.0134  1.1009
   48bbb    H10 1378   3.229   0.740  10.376  1.3383 -1.9906  0.0404
   48bbb     C6 1379   3.287   0.463  10.247 -0.0889  0.1447  0.0664
   48bbb    H11 1380   3.285   0.435  10.141 -0.1731 -0.8172  0.3134
   48bbb    H12 1381   3.329   0.382  10.308 -0.8648  1.0838  1.9216
   48bbb     C7 1382   3.060   0.111  10.502 -0.1762 -0.2952 -0.5347
   48bbb    H13 1383   3.012   0.023  10.456 -1.4642 -1.1675  2.2530
   48bbb    H14 1384   2.997   0.135  10.589 -1.2388 -2.7242 -0.5555
   48bbb     C8 1385   3.399   0.564  10.261  0.8851  0.3595 -0.2515
   48bbb    H15 1386   3.491   0.524  10.217  0.0652 -0.8599 -0.9218
   48bbb    H16 1387   3.414   0.593  10.366 -1.8200  0.2727  0.2419
   48bbb     C9 1388   3.250   0.846  10.571  0.0236  0.6642  0.4367
   48bbb    H17 1389   3.243   0.944  10.522  1.7564  0.5393 -0.1505
   48bbb    H18 1390   3.358   0.824  10.566  0.5200  3.0632 -2.7947
   48bbb     O1 1391   3.191   0.078  10.546  0.3557 -0.1500 -0.1775
   49bbb     N1 1392   5.097   0.291  11.754  0.3497  0.2255  0.1625
   49bbb     C1 1393   5.099   0.159  11.681  0.3986 -0.1379  0.2104
   49bbb     H1 1394   5.070   0.188  11.580 -1.7857 -1.5287  0.3669
   49bbb     H2 1395   5.027   0.088  11.723 -0.7705  1.2864  0.7030
   49bbb     C2 1396   5.115   0.279  11.897  0.0666  0.8678  0.2071
   49bbb     H3 1397   5.106   0.376  11.947 -1.0633  1.4017 -0.9822
   49bbb     H4 1398   5.220   0.249  11.908  0.3434  1.4219 -0.8258
   49bbb     C3 1399   4.974   0.362  11.717 -0.4551  0.0075  0.3593
   49bbb     H5 1400   4.958   0.442  11.790 -3.1926 -1.0713  1.0526
   49bbb     H6 1401   4.880   0.307  11.722 -0.9997  0.7792 -0.9167
   49bbb     C4 1402   4.981   0.445  11.583  0.1910 -0.0135  0.3958
   49bbb     H7 1403   4.975   0.368  11.504 -2.8362 -1.2044  1.6602
   49bbb     H8 1404   5.076   0.499  11.570  0.3129  0.3371  2.4917
   49bbb     C5 1405   5.243   0.101  11.676  0.2636 -0.1467 -0.0554
   49bbb     H9 1406   5.287   0.118  11.775 -0.6428  0.4752  0.2540
   49bbb    H10 1407   5.311   0.155  11.608 -0.2077 -0.6709 -0.9598
   49bbb     C6 1408   5.030   0.182  11.978  0.1540 -0.2198 -0.0747
   49bbb    H11 1409   5.045   0.079  11.941  2.7907 -0.1638  0.6550
   49bbb    H12 1410   4.923   0.206  11.971  0.4782  1.7507  1.1671
   49bbb     C7 1411   4.863   0.540  11.554 -0.3730 -0.0705  0.2413
   49bbb    H13 1412   4.862   0.608  11.640  2.8667  1.3773 -0.6809
   49bbb    H14 1413   4.763   0.498  11.540 -1.1197  1.5667  0.4635
   49bbb     C8 1414   5.077   0.186  12.131  0.4463  0.3009 -0.0137
   49bbb    H15 1415   5.182   0.207  12.152  0.1908  2.2604 -0.5171
   49bbb    H16 1416   5.047   0.096  12.186  1.0370 -0.0201 -0.2083
   49bbb     C9 1417   5.235  -0.049  11.645 -0.4429  0.5268 -0.2062
   49bbb    H17 1418   5.213  -0.069  11.540  0.6629 -0.5398 -0.2470
   49bbb    H18 1419   5.151  -0.098  11.696  1.0385 -2.5306 -0.5043
   49bbb     O1 1420   4.900   0.605  11.440 -0.1860 -0.6336  0.0704
   50bbb     N1 1421   4.644  -0.043  11.613 -0.2431  0.4900 -0.2241
   50bbb     C1 1422   4.603   0.060  11.712  0.4023 -0.3071 -0.2248
   50bbb     H1 1423   4.500   0.046  11.748  0.4472  1.1304  0.5501
   50bbb     H2 1424   4.599   0.156  11.659  0.0553 -0.2668 -0.1317
   50bbb     C2 1425   4.536  -0.077  11.522  0.0960 -0.2565 -0.2000
   50bbb     H3 1426   4.570  -0.146  11.444 -0.3238 -1.8329  0.9543
   50bbb     H4 1427   4.503   0.019  11.481 -0.4168 -0.2251  0.2694
   50bbb     C3 1428   4.774  -0.024  11.549 -0.5221 -0.3720  0.9166
   50bbb     H5 1429   4.791  -0.102  11.475 -2.0194  0.2543 -0.1281
   50bbb     H6 1430   4.861  -0.025  11.617  1.0474  0.1934 -0.9739
   50bbb     C4 1431   4.790   0.100  11.458 -0.1522  0.2185 -0.2772
   50bbb     H7 1432   4.857   0.168  11.512 -0.1002  0.0221 -0.0915
   50bbb     H8 1433   4.693   0.150  11.450  0.5798  1.7083 -0.0843
   50bbb     C5 1434   4.687   0.068  11.842  0.3885  0.0204  0.6020
   50bbb     H9 1435   4.639   0.138  11.912 -0.4458  3.6750 -3.2298
   50bbb    H10 1436   4.781   0.119  11.818 -0.0059  0.1023 -0.8525
   50bbb     C6 1437   4.412  -0.153  11.579  0.6059 -0.1386 -0.6970
   50bbb    H11 1438   4.344  -0.174  11.495 -2.8521 -2.5636  2.3775
   50bbb    H12 1439   4.351  -0.091  11.647  0.9799 -0.0747 -0.4173
   50bbb     C7 1440   4.833   0.063  11.317 -0.3230  0.6443 -0.6299
   50bbb    H13 1441   4.757   0.004  11.265 -1.0083  0.7200  0.2580
   50bbb    H14 1442   4.919  -0.004  11.321 -1.3014 -0.7610 -1.9652
   50bbb     C8 1443   4.455  -0.289  11.646  0.3309  0.9957  0.5648
   50bbb    H15 1444   4.510  -0.273  11.740  1.8848 -0.2546 -0.0919
   50bbb    H16 1445   4.525  -0.348  11.587  0.5283 -0.3280  2.0427
   50bbb     C9 1446   4.733  -0.058  11.905 -0.2213 -0.1394  0.2095
   50bbb    H17 1447   4.829  -0.057  11.958  0.9597 -1.7041 -1.7131
   50bbb    H18 1448   4.748  -0.129  11.822 -0.6597  2.3345 -2.1183
   50bbb     O1 1449   4.877   0.175  11.245  0.3212 -0.2294 -0.0712
   51bbb     N1 1450   5.989   0.916   9.317 -0.1069 -0.6080 -0.1653
   51bbb     C1 1451   6.088   0.836   9.397 -0.5645 -0.3230  0.4741
   51bbb     H1 1452   6.114   0.745   9.341 -2.2676 -0.6076  0.0854
   51bbb     H2 1453   6.037   0.793   9.484  0.3633 -0.7179  0.8400
   51bbb     C2 1454   6.059   0.995   9.211  0.8322 -0.3008  0.4680
   51bbb     H3 1455   6.115   0.937   9.136 -0.2970  0.9985 -1.4803
   51bbb     H4 1456   6.141   1.056   9.250  1.6919 -1.4461  0.4766
   51bbb     C3 1457   5.867   0.837   9.272  0.3387  0.4312  0.4653
   51bbb     H5 1458   5.786   0.911   9.266 -0.3483 -0.0755  2.7291
   51bbb     H6 1459   5.838   0.772   9.355 -2.0614 -0.6477 -1.0949
   51bbb     C4 1460   5.881   0.763   9.131 -0.1531  0.3506 -0.8569
   51bbb     H7 1461   5.972   0.703   9.132 -0.0448  0.5019  0.4368
   51bbb     H8 1462   5.906   0.832   9.050  2.7822  1.2404  0.6580
   51bbb     C5 1463   6.207   0.914   9.455  0.0478 -0.5493 -0.1547
   51bbb     H9 1464   6.159   1.005   9.494  2.3987  0.6337  0.1034
   51bbb    H10 1465   6.277   0.935   9.374  0.6529  0.5131  0.6300
   51bbb     C6 1466   5.976   1.103   9.138 -1.2416 -0.3144 -0.1987
   51bbb    H11 1467   5.892   1.055   9.087 -1.3966  1.9578 -2.3068
   51bbb    H12 1468   6.042   1.143   9.060 -1.5834  0.3072 -0.1763
   51bbb     C7 1469   5.751   0.685   9.095 -0.6311  0.4585 -0.4219
   51bbb    H13 1470   5.710   0.641   9.187  0.6398  0.4740  0.1761
   51bbb    H14 1471   5.778   0.612   9.017  2.2286  2.7944 -1.8104
   51bbb     C8 1472   5.930   1.216   9.235  0.5231 -0.2495  0.5185
   51bbb    H15 1473   6.012   1.251   9.299 -0.2939 -1.9503  2.6320
   51bbb    H16 1474   5.852   1.182   9.304  0.5152 -0.3830  0.4446
   51bbb     C9 1475   6.273   0.833   9.570 -0.0369 -0.3387  1.1920
   51bbb    H17 1476   6.382   0.848   9.576 -0.3092  2.5340  0.4655
   51bbb    H18 1477   6.254   0.726   9.555 -2.4873  0.1019  0.7708
   51bbb     O1 1478   5.648   0.774   9.046 -0.1359  0.0860 -0.1282
   52bbb     N1 1479   4.494   0.742   9.290  0.3881 -0.6624  0.2362
   52bbb     C1 1480   4.410   0.865   9.287 -0.1149  0.5350  0.1235
   52bbb     H1 1481   4.466   0.951   9.326  2.9393 -1.0402 -0.5118
   52bbb     H2 1482   4.319   0.858   9.348 -0.8727 -0.2328 -1.0467
   52bbb     C2 1483   4.549   0.709   9.421  0.7905 -0.1790  0.2756
   52bbb     H3 1484   4.617   0.788   9.455 -1.0313  1.9648 -0.8189
   52bbb     H4 1485   4.605   0.614   9.423  0.2894 -0.4583  1.5239
   52bbb     C3 1486   4.588   0.729   9.175 -0.1739  0.1333  0.0057
   52bbb     H5 1487   4.537   0.728   9.078 -0.1233 -0.6283 -0.0154
   52bbb     H6 1488   4.640   0.635   9.199 -1.0014  0.1976  2.3550
   52bbb     C4 1489   4.702   0.833   9.172 -0.0306  0.1916 -0.0508
   52bbb     H7 1490   4.756   0.834   9.267  1.4090  0.5251 -0.8363
   52bbb     H8 1491   4.671   0.936   9.151  2.4566  0.9608 -0.3426
   52bbb     C5 1492   4.352   0.917   9.147  0.4765 -0.2653 -0.1182
   52bbb     H9 1493   4.313   0.832   9.088 -0.0674  0.1862 -0.4175
   52bbb    H10 1494   4.432   0.955   9.083  0.6364  0.2245  0.3752
   52bbb     C6 1495   4.432   0.700   9.525  0.0232 -0.1316  0.3513
   52bbb    H11 1496   4.396   0.803   9.537  2.9654  1.1387 -0.7512
   52bbb    H12 1497   4.472   0.675   9.624 -2.2939 -0.5322  1.2443
   52bbb     C7 1498   4.808   0.793   9.063 -0.3720  0.2701  0.6413
   52bbb    H13 1499   4.759   0.806   8.966  1.7852  0.3239 -0.5214
   52bbb    H14 1500   4.841   0.689   9.073  4.4416  1.5557  0.6412
   52bbb     C8 1501   4.321   0.597   9.487  0.7991 -0.6558  0.2909
   52bbb    H15 1502   4.365   0.497   9.476 -1.6763 -1.7439 -0.3437
   52bbb    H16 1503   4.284   0.622   9.387 -2.9568 -1.7029  1.2702
   52bbb     C9 1504   4.242   1.026   9.176  0.0502 -0.1536 -0.4705
   52bbb    H17 1505   4.198   1.066   9.084  0.5024 -0.9681 -1.0558
   52bbb    H18 1506   4.296   1.112   9.218 -1.3507  0.6543 -0.2513
   52bbb     O1 1507   4.923   0.884   9.068 -0.1189 -0.1118 -0.2318
   53bbb     N1 1508   5.373   1.577  10.666 -0.0676 -0.1899 -0.3605
   53bbb     C1 1509   5.241   1.629  10.709 -0.2638  0.0563 -0.5414
   53bbb     H1 1510   5.165   1.551  10.724 -0.2773  0.1685  0.0094
   53bbb     H2 1511   5.194   1.686  10.627 -2.9697  1.7688  1.9714
   53bbb     C2 1512   5.446   1.494  10.762  0.2186 -0.2122  0.1248
   53bbb     H3 1513   5.448   1.549  10.857 -0.2181  0.8490 -0.4638
   53bbb     H4 1514   5.547   1.466  10.731 -0.4573 -1.6559 -0.8869
   53bbb     C3 1515   5.367   1.518  10.529  0.9739  0.1435 -0.4695
   53bbb     H5 1516   5.316   1.588  10.462 -0.1709 -0.2909 -0.0750
   53bbb     H6 1517   5.301   1.431  10.535  2.8657 -1.2954  0.5599
   53bbb     C4 1518   5.499   1.480  10.465 -0.2592  1.2628  0.5317
   53bbb     H7 1519   5.529   1.392  10.524 -2.6248 -0.1437 -0.2123
   53bbb     H8 1520   5.570   1.563  10.473 -0.6089  1.7842 -1.3840
   53bbb     C5 1521   5.240   1.728  10.832 -0.3321  0.0097  0.0297
   53bbb     H9 1522   5.312   1.808  10.812  1.1278 -1.1219  0.6275
   53bbb    H10 1523   5.270   1.685  10.928  1.6833  3.5475  1.1644
   53bbb     C6 1524   5.383   1.356  10.777 -0.5020 -0.5244  0.5245
   53bbb    H11 1525   5.465   1.301  10.824 -0.8100 -0.4662  1.1377
   53bbb    H12 1526   5.360   1.308  10.681  0.6340  2.0169 -1.1380
   53bbb     C7 1527   5.493   1.420  10.320 -0.4257  0.3337  0.0552
   53bbb    H13 1528   5.594   1.388  10.290 -0.4843  1.1327 -1.0987
   53bbb    H14 1529   5.465   1.491  10.241 -0.6958 -2.6267 -2.7339
   53bbb     C8 1530   5.255   1.357  10.871  0.4550 -0.2777 -0.4325
   53bbb    H15 1531   5.154   1.355  10.828 -0.2378  3.0873  0.7414
   53bbb    H16 1532   5.252   1.454  10.921 -1.7524 -1.4724  1.9536
   53bbb     C9 1533   5.101   1.784  10.839  0.1127 -0.2488 -0.0313
   53bbb    H17 1534   5.025   1.705  10.836  1.2300 -1.3379 -1.1673
   53bbb    H18 1535   5.088   1.853  10.754 -0.2931 -1.6812 -1.1738
   53bbb     O1 1536   5.398   1.299  10.314 -0.2846 -1.2171 -0.6395
   54bbb     N1 1537   5.118   0.901  10.581 -0.3242 -0.0745 -0.2997
   54bbb     C1 1538   5.202   0.875  10.458  0.1897 -0.3962 -0.6468
   54bbb     H1 1539   5.262   0.784  10.471  1.0471  0.2512  0.0584
   54bbb     H2 1540   5.279   0.953  10.447  0.8891 -0.9216  0.3285
   54bbb     C2 1541   5.209   0.898  10.698  0.4221  0.4472  0.2639
   54bbb     H3 1542   5.291   0.971  10.696  0.4360  0.4408  0.5817
   54bbb     H4 1543   5.254   0.798  10.698  0.0314  0.2709  0.1620
   54bbb     C3 1544   5.024   1.012  10.572 -0.3108 -0.9313  0.5045
   54bbb     H5 1545   4.975   1.012  10.670 -0.5951 -4.4331  0.4973
   54bbb     H6 1546   4.940   0.985  10.506  0.0791 -0.4483 -0.1980
   54bbb     C4 1547   5.094   1.148  10.539 -0.1272  0.5478  0.0224
   54bbb     H7 1548   5.142   1.151  10.441 -0.9885 -2.8238 -0.6320
   54bbb     H8 1549   5.178   1.147  10.610 -0.0618 -2.5368  0.0577
   54bbb     C5 1550   5.114   0.860  10.329  0.2738 -0.7035  0.0471
   54bbb     H9 1551   5.063   0.954  10.301  1.4247 -0.1067 -0.1082
   54bbb    H10 1552   5.028   0.793  10.344 -0.2165 -0.6376 -2.2348
   54bbb     C6 1553   5.149   0.915  10.840  0.5905 -0.3700  0.5794
   54bbb    H11 1554   5.058   0.854  10.839  0.8611 -0.7812 -0.3195
   54bbb    H12 1555   5.126   1.020  10.861  1.0753 -0.0549 -0.3592
   54bbb     C7 1556   5.003   1.275  10.550  0.0703  0.4781  0.6381
   54bbb    H13 1557   5.070   1.361  10.544 -0.9584  1.2624  0.0161
   54bbb    H14 1558   4.947   1.279  10.644 -0.8895 -2.3323  0.2994
   54bbb     C8 1559   5.242   0.850  10.948  0.7198 -0.3714  0.2972
   54bbb    H15 1560   5.244   0.923  11.030 -2.4321 -1.2900  1.3374
   54bbb    H16 1561   5.338   0.835  10.897  0.2063 -0.1525 -0.7661
   54bbb     C9 1562   5.192   0.797  10.210  0.0314  0.2701  0.1886
   54bbb    H17 1563   5.122   0.785  10.126  1.3766  0.2943 -0.9547
   54bbb    H18 1564   5.223   0.698  10.243 -0.6642  0.2033  0.6543
   54bbb     O1 1565   4.919   1.277  10.436 -0.6806 -0.1585 -0.0470
   55bbb     N1 1566   1.522   2.129  10.870 -0.1558  1.1020  0.5263
   55bbb     C1 1567   1.555   2.238  10.963 -0.4241 -0.2842 -0.7223
   55bbb     H1 1568   1.482   2.243  11.045 -1.4225 -2.7187 -1.3591
   55bbb     H2 1569   1.543   2.331  10.906 -0.1988 -0.1895 -0.6158
   55bbb     C2 1570   1.377   2.123  10.837 -0.9763 -0.4455 -0.2596
   55bbb     H3 1571   1.350   2.021  10.806 -1.4407 -0.3870 -0.0650
   55bbb     H4 1572   1.362   2.196  10.756  0.6893 -0.4928 -0.6339
   55bbb     C3 1573   1.606   2.114  10.754 -0.7074 -0.0653  0.0207
   55bbb     H5 1574   1.708   2.103  10.793 -1.3777 -0.8341  1.6924
   55bbb     H6 1575   1.592   2.205  10.695  2.9719  0.9927  0.5151
   55bbb     C4 1576   1.571   1.995  10.661  0.3317 -0.2536 -0.4490
   55bbb     H7 1577   1.468   2.002  10.623 -0.1947 -0.0108  0.9529
   55bbb     H8 1578   1.578   1.904  10.721 -0.8000 -0.9054 -1.2669
   55bbb     C5 1579   1.700   2.244  11.019 -0.5680 -0.0271 -0.3865
   55bbb     H9 1580   1.716   2.333  11.081  1.8123 -1.0869  0.6668
   55bbb    H10 1581   1.768   2.263  10.936  0.6379  2.2472  1.0159
   55bbb     C6 1582   1.273   2.158  10.944  0.3582  0.0244  0.4044
   55bbb    H11 1583   1.302   2.119  11.042  1.3586 -2.3992 -0.7504
   55bbb    H12 1584   1.187   2.094  10.921  0.8635 -0.2958 -0.7316
   55bbb     C7 1585   1.671   1.978  10.546 -0.0855  0.6054  0.2460
   55bbb    H13 1586   1.769   1.990  10.594 -1.1429  0.8962  2.4854
   55bbb    H14 1587   1.665   2.049  10.463  1.5379 -1.4934 -1.8259
   55bbb     C8 1588   1.244   2.306  10.936  0.3361 -0.9161 -0.2264
   55bbb    H15 1589   1.337   2.363  10.924 -0.1243 -0.1891 -0.3792
   55bbb    H16 1590   1.212   2.343  11.035 -1.4524 -0.4363 -0.9360
   55bbb     C9 1591   1.740   2.120  11.102 -0.1125  0.9042  0.4545
   55bbb    H17 1592   1.844   2.095  11.078 -0.1200 -1.9081  2.7733
   55bbb    H18 1593   1.680   2.037  11.062  0.9938 -0.1034  0.8330
   55bbb     O1 1594   1.646   1.844  10.495 -0.0693  0.1182 -0.1411
   56bbb     N1 1595   2.141   1.425  10.994 -0.1209  0.4833  0.6110
   56bbb     C1 1596   2.107   1.373  11.131 -0.4618  0.5527  0.0209
   56bbb     H1 1597   2.174   1.416  11.207 -1.5596  3.3329 -0.4505
   56bbb     H2 1598   2.118   1.264  11.132  1.3910  0.7074 -0.3004
   56bbb     C2 1599   2.270   1.376  10.944  0.1673 -0.3982 -0.2928
   56bbb     H3 1600   2.296   1.433  10.854 -0.6010  0.5359  0.0593
   56bbb     H4 1601   2.251   1.272  10.916 -1.7928 -0.4394  1.0101
   56bbb     C3 1602   2.035   1.412  10.888  0.1219  0.7383 -0.9753
   56bbb     H5 1603   2.062   1.450  10.789 -3.3104 -0.0449 -2.3510
   56bbb     H6 1604   1.950   1.475  10.918 -0.6126 -1.2242  1.3567
   56bbb     C4 1605   1.998   1.266  10.863  0.0563 -0.0698  0.5319
   56bbb     H7 1606   2.000   1.203  10.953 -1.0291 -0.7305  0.1219
   56bbb     H8 1607   2.063   1.219  10.788 -0.0819 -1.7466  1.4141
   56bbb     C5 1608   1.961   1.408  11.175 -0.3844 -0.1556 -0.9495
   56bbb     H9 1609   1.887   1.367  11.105 -1.5803 -0.4575  0.4524
   56bbb    H10 1610   1.943   1.516  11.173  0.2367 -0.0488 -0.9423
   56bbb     C6 1611   2.385   1.396  11.048  0.5391  0.1540 -0.4707
   56bbb    H11 1612   2.355   1.338  11.136 -0.4015 -1.2792 -1.6937
   56bbb    H12 1613   2.402   1.500  11.080  1.0858 -0.8578  2.8635
   56bbb     C7 1614   1.851   1.248  10.816  0.0749 -0.2787 -0.5504
   56bbb    H13 1615   1.781   1.292  10.887  0.9455  0.0986  0.0911
   56bbb    H14 1616   1.831   1.142  10.792  0.3870 -0.6035  0.5717
   56bbb     C8 1617   2.515   1.346  10.995 -0.1538  0.7524  0.7631
   56bbb    H15 1618   2.539   1.399  10.902  2.6959 -2.1272 -0.3474
   56bbb    H16 1619   2.504   1.241  10.966  0.6639  0.7379  0.4749
   56bbb     C9 1620   1.919   1.348  11.319 -0.4916  0.3130  0.1254
   56bbb    H17 1621   1.950   1.243  11.318  0.7308  0.6461 -1.5371
   56bbb    H18 1622   1.811   1.352  11.335 -0.3863 -1.3766  1.5737
   56bbb     O1 1623   1.839   1.332  10.687 -0.1974 -0.2893 -0.2495
   57bbb     N1 1624   1.828   1.166   9.731 -0.1476 -0.8497 -0.4779
   57bbb     C1 1625   1.717   1.236   9.665  0.0464  0.4948 -0.6669
   57bbb     H1 1626   1.693   1.323   9.728  1.5019  0.3601  0.1227
   57bbb     H2 1627   1.632   1.168   9.656  1.3555 -1.0451 -1.9563
   57bbb     C2 1628   1.900   1.062   9.651  0.1007 -0.0454 -0.0622
   57bbb     H3 1629   1.978   1.023   9.718  0.7761  0.7071 -0.3994
   57bbb     H4 1630   1.951   1.113   9.569 -0.5333 -0.5427 -0.7863
   57bbb     C3 1631   1.801   1.109   9.869 -0.3800 -0.1224  0.0416
   57bbb     H5 1632   1.898   1.073   9.904 -1.0327 -0.3600  1.7084
   57bbb     H6 1633   1.748   1.013   9.864  2.1224 -1.5082 -2.2711
   57bbb     C4 1634   1.738   1.200   9.977 -0.1347  0.1083  0.8929
   57bbb     H7 1635   1.636   1.230   9.950  0.1512 -0.7751 -1.3165
   57bbb     H8 1636   1.789   1.294  10.000 -0.1082 -0.2942  2.6485
   57bbb     C5 1637   1.757   1.306   9.529  0.0284  0.1167 -0.8063
   57bbb     H9 1638   1.768   1.238   9.444  0.5939  0.3866 -0.9608
   57bbb    H10 1639   1.849   1.365   9.545 -0.3795  0.6276 -0.3255
   57bbb     C6 1640   1.810   0.948   9.587 -0.7347 -0.0669 -0.2666
   57bbb    H11 1641   1.724   0.992   9.534 -1.1343 -0.8094 -0.2448
   57bbb    H12 1642   1.765   0.886   9.666  0.9663 -2.4625 -1.0662
   57bbb     C7 1643   1.733   1.116  10.111 -0.5701  0.4110 -0.0283
   57bbb    H13 1644   1.686   1.018  10.097  0.8362 -0.9301  3.5373
   57bbb    H14 1645   1.674   1.171  10.186 -2.3164 -1.6698  0.2344
   57bbb     C8 1646   1.899   0.867   9.493 -0.4292 -0.2519 -0.1821
   57bbb    H15 1647   1.974   0.810   9.549 -1.0010 -0.3255  0.5150
   57bbb    H16 1648   1.954   0.941   9.434  0.3613  0.3276  1.2497
   57bbb     C9 1649   1.636   1.398   9.478 -0.8045  0.8382 -0.5388
   57bbb    H17 1650   1.617   1.471   9.557 -2.4728 -0.3991  0.2539
   57bbb    H18 1651   1.548   1.335   9.460 -0.8036  0.1883  1.5115
   57bbb     O1 1652   1.867   1.091  10.152 -0.6228 -0.1388 -0.2402
   58bbb     N1 1653   2.117   0.494  10.953 -0.0051  0.5724 -0.0134
   58bbb     C1 1654   2.249   0.548  10.992 -0.4110  0.0040 -0.9727
   58bbb     H1 1655   2.246   0.553  11.102 -1.2753  0.7555 -1.0227
   58bbb     H2 1656   2.267   0.653  10.970  1.9869  0.1054  1.0750
   58bbb     C2 1657   1.999   0.565  11.013  0.4750  0.2869  0.2320
   58bbb     H3 1658   2.004   0.666  10.970  1.1787 -0.1651 -0.7946
   58bbb     H4 1659   2.018   0.590  11.118  1.4513  0.2200  0.0736
   58bbb     C3 1660   2.104   0.464  10.813  0.3249 -0.1705  0.5749
   58bbb     H5 1661   2.018   0.403  10.782  1.2396  0.0708 -2.8234
   58bbb     H6 1662   2.182   0.393  10.781  0.0107  0.7389 -2.4690
   58bbb     C4 1663   2.124   0.583  10.711 -0.1235  0.5948  0.4677
   58bbb     H7 1664   2.209   0.645  10.744  0.0389  0.8329 -0.3628
   58bbb     H8 1665   2.037   0.649  10.721 -1.9714 -1.7574  0.8055
   58bbb     C5 1666   2.369   0.459  10.952  0.2608 -0.1269 -0.2236
   58bbb     H9 1667   2.372   0.461  10.843 -1.2270  2.0829 -0.2867
   58bbb    H10 1668   2.357   0.360  10.999 -0.0928  0.7799  1.6693
   58bbb     C6 1669   1.857   0.494  11.005 -0.9811 -0.3427 -0.7127
   58bbb    H11 1670   1.852   0.413  11.080 -1.4098  0.1422 -0.2096
   58bbb    H12 1671   1.831   0.451  10.908  1.7587 -1.5835 -0.9997
   58bbb     C7 1672   2.133   0.533  10.569 -0.4671 -0.5881  0.3983
   58bbb    H13 1673   2.052   0.466  10.541 -0.0288 -0.3468 -1.6287
   58bbb    H14 1674   2.227   0.477  10.570  2.0474  3.0778 -1.7756
   58bbb     C8 1675   1.764   0.603  11.053 -0.0114 -0.1073  0.5179
   58bbb    H15 1676   1.771   0.685  10.981  0.6714 -0.2551  0.4094
   58bbb    H16 1677   1.805   0.637  11.149 -0.4093  1.9277  0.0081
   58bbb     C9 1678   2.495   0.521  11.006 -0.0330  0.3460  0.2574
   58bbb    H17 1679   2.473   0.565  11.104  1.6284  2.3735 -0.2179
   58bbb    H18 1680   2.540   0.596  10.941  1.5756 -0.8028 -0.0192
   58bbb     O1 1681   2.147   0.650  10.480  0.3571  0.4903  0.3086
   59bbb     N1 1682   1.878   2.630  10.898  0.7762 -0.4657  0.3226
   59bbb     C1 1683   1.891   2.776  10.912 -0.1716 -0.4982  0.6311
   59bbb     H1 1684   1.967   2.790  10.990  0.0136 -1.4965  0.6460
   59bbb     H2 1685   1.793   2.816  10.941 -0.5308  0.0907 -1.2385
   59bbb     C2 1686   1.781   2.598  10.791  0.1435 -0.0947  0.0423
   59bbb     H3 1687   1.770   2.489  10.779  1.8080 -0.3112  0.1225
   59bbb     H4 1688   1.819   2.629  10.693  1.5703  1.5168  1.0312
   59bbb     C3 1689   2.009   2.565  10.878  0.0460 -0.7072 -0.2049
   59bbb     H5 1690   2.069   2.626  10.948 -0.0149 -0.2292 -0.5624
   59bbb     H6 1691   2.050   2.593  10.780  1.9841 -1.7219  0.2558
   59bbb     C4 1692   2.012   2.419  10.899 -0.4033  0.2446  0.1174
   59bbb     H7 1693   1.995   2.377  10.799 -0.0833  2.2805 -0.8363
   59bbb     H8 1694   1.927   2.397  10.964 -1.0923  1.0677 -0.4916
   59bbb     C5 1695   1.938   2.857  10.783  0.5446  1.4442  0.3823
   59bbb     H9 1696   1.852   2.852  10.715  0.1589  0.5279  0.9147
   59bbb    H10 1697   2.021   2.804  10.735  0.6992  0.3017  1.8410
   59bbb     C6 1698   1.634   2.660  10.811 -0.9500 -0.6438 -0.2713
   59bbb    H11 1699   1.630   2.768  10.790 -0.9315 -0.4149  0.8059
   59bbb    H12 1700   1.615   2.661  10.919 -1.6643  3.8736 -0.2384
   59bbb     C7 1701   2.142   2.354  10.955 -0.4237  0.3833  0.5441
   59bbb    H13 1702   2.138   2.246  10.976  3.0395  0.2574  1.2074
   59bbb    H14 1703   2.181   2.400  11.047  2.0313  0.2707 -0.3672
   59bbb     C8 1704   1.524   2.590  10.729  0.4148  0.2790  0.0802
   59bbb    H15 1705   1.498   2.500  10.787  3.9840  0.7529  2.7582
   59bbb    H16 1706   1.579   2.555  10.640  2.8023 -0.1901  1.6414
   59bbb     C9 1707   1.973   2.999  10.820  0.3489  0.3021  0.2542
   59bbb    H17 1708   1.989   3.061  10.731 -1.3174 -0.9299 -0.9805
   59bbb    H18 1709   2.074   2.993  10.862  1.1744  0.6434 -1.5833
   59bbb     O1 1710   2.232   2.359  10.843 -0.2670 -0.3090 -0.0174
   60bbb     N1 1711   3.367   2.559  10.185 -0.0148 -0.1829 -0.8018
   60bbb     C1 1712   3.377   2.692  10.117 -0.7713  0.4792  0.0787
   60bbb     H1 1713   3.430   2.760  10.185 -2.0342  0.1576  1.4338
   60bbb     H2 1714   3.276   2.736  10.115 -1.0972 -0.2922 -1.8065
   60bbb     C2 1715   3.494   2.499  10.228  0.0005 -0.2307  0.1258
   60bbb     H3 1716   3.559   2.473  10.144  0.4992 -3.1538  1.2644
   60bbb     H4 1717   3.472   2.401  10.272  1.1430 -1.2384 -1.4620
   60bbb     C3 1718   3.259   2.557  10.288  0.3451 -0.4867 -0.0550
   60bbb     H5 1719   3.289   2.638  10.355 -1.9027  0.0506  0.3847
   60bbb     H6 1720   3.271   2.463  10.342  2.1611 -0.1047  0.2792
   60bbb     C4 1721   3.113   2.576  10.233  0.0010 -0.2199  0.2519
   60bbb     H7 1722   3.081   2.490  10.172  1.9671 -0.4282 -0.5717
   60bbb     H8 1723   3.097   2.666  10.173  0.2194 -0.3764 -0.0501
   60bbb     C5 1724   3.448   2.691   9.972 -0.0771  0.2220  0.3762
   60bbb     H9 1725   3.551   2.654   9.981 -0.1776  0.3494  2.5443
   60bbb    H10 1726   3.456   2.797   9.946  2.9661  0.0569  0.2986
   60bbb     C6 1727   3.579   2.577  10.329  0.2283 -0.3254 -0.0007
   60bbb    H11 1728   3.521   2.628  10.406  1.4550  1.9375 -0.4898
   60bbb    H12 1729   3.635   2.656  10.278  0.5781 -2.3191 -2.9971
   60bbb     C7 1730   3.020   2.582  10.353 -0.9607 -0.1109 -0.4169
   60bbb    H13 1731   2.981   2.682  10.373 -3.4959 -1.2768  1.0383
   60bbb    H14 1732   3.070   2.542  10.442 -5.2800 -1.2120  1.8152
   60bbb     C8 1733   3.681   2.483  10.401 -0.0591  0.1856  0.4984
   60bbb    H15 1734   3.724   2.421  10.321 -0.4200 -1.6515  1.6753
   60bbb    H16 1735   3.640   2.405  10.466  1.0618 -3.1967 -2.5078
   60bbb     C9 1736   3.379   2.596   9.865  0.7472  0.6797 -0.0995
   60bbb    H17 1737   3.273   2.608   9.890  1.4028  2.9263  1.9589
   60bbb    H18 1738   3.409   2.492   9.884  1.0942  0.5629 -1.1867
   60bbb     O1 1739   2.912   2.501  10.331  0.0406 -0.5527  0.3434
   61bbb     N1 1740   1.899   1.045   9.029  0.8361  0.0124 -0.2386
   61bbb     C1 1741   1.871   1.137   8.918  0.0882 -0.2900 -0.1655
   61bbb     H1 1742   1.772   1.113   8.876 -0.2552 -0.9217  0.9638
   61bbb     H2 1743   1.944   1.115   8.840  1.0475 -0.3912  0.7454
   61bbb     C2 1744   1.811   1.072   9.150  0.0259 -0.5297 -0.2736
   61bbb     H3 1745   1.827   1.176   9.181 -2.1850  0.5387 -2.3566
   61bbb     H4 1746   1.827   1.009   9.239 -0.8802  1.4767  1.4025
   61bbb     C3 1747   2.040   1.054   9.074 -0.4743  0.1123 -0.2561
   61bbb     H5 1748   2.062   0.976   9.148 -1.2792  0.0943 -0.0200
   61bbb     H6 1749   2.054   1.148   9.129 -2.3622  1.1855 -1.4793
   61bbb     C4 1750   2.144   1.030   8.957 -0.0826 -0.8068 -0.7158
   61bbb     H7 1751   2.135   1.123   8.901 -1.0654 -0.1822  0.4457
   61bbb     H8 1752   2.129   0.934   8.905 -1.3632 -1.6143  1.0323
   61bbb     C5 1753   1.884   1.288   8.944 -0.6079  0.3160  0.0173
   61bbb     H9 1754   1.979   1.318   8.990 -1.1242  3.5302 -0.7566
   61bbb    H10 1755   1.805   1.316   9.016  0.3267  0.7707  0.8830
   61bbb     C6 1756   1.661   1.057   9.117 -0.2111 -0.2301  0.5988
   61bbb    H11 1757   1.641   0.956   9.079  0.3824  0.1179 -0.6725
   61bbb    H12 1758   1.632   1.132   9.042  2.5756  2.4882  2.0204
   61bbb     C7 1759   2.291   1.020   9.012  0.2647  0.2597 -0.6037
   61bbb    H13 1760   2.364   1.015   8.931  0.1883  0.8743 -0.7182
   61bbb    H14 1761   2.298   0.931   9.075  0.4214  0.9803  0.4332
   61bbb     C8 1762   1.579   1.071   9.245  0.2222 -0.8450 -0.4127
   61bbb    H15 1763   1.606   1.161   9.301 -0.3173 -0.3362 -0.9551
   61bbb    H16 1764   1.597   0.989   9.315  0.7505  0.1651  0.6626
   61bbb     C9 1765   1.891   1.373   8.818 -0.2858  0.4170  0.5671
   61bbb    H17 1766   1.795   1.369   8.765 -0.0099 -2.8620  0.1579
   61bbb    H18 1767   1.981   1.340   8.765 -2.1301 -0.7309 -2.0743
   61bbb     O1 1768   2.317   1.138   9.094  0.0782  0.2398 -0.3603
   62bbb     N1 1769   1.739   2.013   9.540  0.2375 -0.1736  0.4245
   62bbb     C1 1770   1.838   2.112   9.591  0.9889 -0.2148  0.7404
   62bbb     H1 1771   1.891   2.069   9.677 -0.3657  0.0897  1.7682
   62bbb     H2 1772   1.787   2.198   9.636  0.1670 -0.4325  0.2430
   62bbb     C2 1773   1.628   2.070   9.451  0.6942 -0.5409  0.3790
   62bbb     H3 1774   1.668   2.120   9.362  0.9002 -2.9823 -0.9731
   62bbb     H4 1775   1.557   2.134   9.506  0.4484 -0.0956 -0.4400
   62bbb     C3 1776   1.800   1.895   9.474  0.5740  0.2121 -0.0581
   62bbb     H5 1777   1.839   1.915   9.373 -0.6481 -1.9856 -1.0305
   62bbb     H6 1778   1.723   1.819   9.459  1.0732 -0.1192 -1.0806
   62bbb     C4 1779   1.908   1.830   9.573 -0.5552  0.4076  0.0949
   62bbb     H7 1780   1.874   1.828   9.677 -1.0240  2.1754  0.0013
   62bbb     H8 1781   2.005   1.882   9.577  1.2238 -2.6129 -0.5705
   62bbb     C5 1782   1.932   2.164   9.478  0.0290  0.6487 -0.2590
   62bbb     H9 1783   1.869   2.190   9.392  0.5746 -3.4736 -2.1334
   62bbb    H10 1784   1.997   2.081   9.448 -1.3074 -0.3507 -0.4486
   62bbb     C6 1785   1.530   1.972   9.390  0.3026  0.3972 -0.0268
   62bbb    H11 1786   1.591   1.898   9.336  0.1617  0.1648  0.1304
   62bbb    H12 1787   1.474   2.020   9.309 -0.4413  1.6956  1.2167
   62bbb     C7 1788   1.945   1.689   9.527  0.3987 -0.5146  0.3932
   62bbb    H13 1789   1.849   1.638   9.510 -0.6016  1.4549 -0.2284
   62bbb    H14 1790   2.003   1.637   9.604  0.6629  0.0376  0.5738
   62bbb     C8 1791   1.439   1.887   9.482  0.9090 -0.5405 -0.2294
   62bbb    H15 1792   1.377   1.954   9.543 -1.4085 -0.6576 -2.2904
   62bbb    H16 1793   1.504   1.834   9.553  0.9361  1.2438  1.1716
   62bbb     C9 1794   2.019   2.280   9.524 -0.0769 -0.3170 -0.7688
   62bbb    H17 1795   1.963   2.374   9.533  1.3440  0.4428  0.7379
   62bbb    H18 1796   2.105   2.300   9.459  2.0046 -1.1636  1.5510
   62bbb     O1 1797   2.018   1.699   9.400 -0.3552 -0.0786  0.1193
   63bbb     N1 1798   3.422   2.092  14.090  0.5455 -0.2117 -0.8011
   63bbb     C1 1799   3.556   2.067  14.159  0.2692 -0.4747  0.3278
   63bbb     H1 1800   3.626   2.007  14.100  0.5480 -1.6991  1.8276
   63bbb     H2 1801   3.536   2.000  14.244 -1.0695 -1.9243 -1.0590
   63bbb     C2 1802   3.302   2.108  14.176 -0.5972  0.0429  0.2365
   63bbb     H3 1803   3.309   2.204  14.230 -2.1438  1.1009 -1.3223
   63bbb     H4 1804   3.303   2.026  14.248 -0.0056 -1.2609 -1.2122
   63bbb     C3 1805   3.434   2.184  13.976  0.1001 -0.3930 -0.2510
   63bbb     H5 1806   3.453   2.285  14.014  1.2136 -1.6641  2.9529
   63bbb     H6 1807   3.339   2.190  13.922 -0.3526  0.4082  0.6187
   63bbb     C4 1808   3.524   2.138  13.862  0.3334  0.5351  0.2275
   63bbb     H7 1809   3.497   2.033  13.846  1.9306  0.3736 -1.9503
   63bbb     H8 1810   3.629   2.133  13.893 -0.4207 -1.1888  2.7722
   63bbb     C5 1811   3.629   2.193  14.209 -0.4446 -0.1701  0.8470
   63bbb     H9 1812   3.553   2.266  14.240  0.0330  1.0911 -0.7899
   63bbb    H10 1813   3.691   2.236  14.129 -0.4570 -1.0610  0.3464
   63bbb     C6 1814   3.163   2.120  14.115  0.1782  0.2750 -0.2146
   63bbb    H11 1815   3.156   2.190  14.030  0.4188 -0.0204 -0.4783
   63bbb    H12 1816   3.092   2.164  14.187 -0.1796 -1.7858  0.7494
   63bbb     C7 1817   3.516   2.218  13.730 -0.7375 -0.0309  0.2269
   63bbb    H13 1818   3.569   2.314  13.740 -2.2597  1.2409 -2.4621
   63bbb    H14 1819   3.419   2.246  13.685  0.4032 -0.1753 -2.5278
   63bbb     C8 1820   3.102   1.987  14.063 -0.1168  0.2495 -0.6281
   63bbb    H15 1821   3.090   1.920  14.149  0.2010  1.5727  0.4941
   63bbb    H16 1822   3.165   1.929  13.995 -1.1221 -1.6502 -0.0013
   63bbb     C9 1823   3.715   2.160  14.329  0.3044  0.2061 -0.2866
   63bbb    H17 1824   3.805   2.104  14.298 -0.1786 -1.3156  0.9182
   63bbb    H18 1825   3.668   2.099  14.407  1.0892  0.1870  0.1870
   63bbb     O1 1826   3.586   2.147  13.622 -0.1614  0.5766 -0.2041
   64bbb     N1 1827   3.034   1.296  13.329  0.7963 -0.2702 -1.0478
   64bbb     C1 1828   2.966   1.161  13.321  0.8820 -0.5529 -0.6979
   64bbb     H1 1829   2.993   1.103  13.410 -0.2086  0.6032  0.4297
   64bbb     H2 1830   3.000   1.101  13.236 -1.4257  0.8047 -2.7067
   64bbb     C2 1831   2.991   1.400  13.227  0.8399  0.2985 -0.2302
   64bbb     H3 1832   2.884   1.418  13.246  1.5413  3.2625  1.5797
   64bbb     H4 1833   2.987   1.364  13.124  0.6615 -0.1000 -0.0835
   64bbb     C3 1834   3.181   1.276  13.344 -0.1797  0.6334 -0.2721
   64bbb     H5 1835   3.213   1.207  13.423  0.2700  1.7262  0.5256
   64bbb     H6 1836   3.227   1.371  13.374 -0.1592  0.7354 -0.6242
   64bbb     C4 1837   3.253   1.228  13.218 -0.2063  0.6180 -0.0453
   64bbb     H7 1838   3.235   1.294  13.133  0.7473 -0.1569 -0.8759
   64bbb     H8 1839   3.218   1.130  13.186  1.2119 -0.1331  0.6009
   64bbb     C5 1840   2.810   1.173  13.315 -0.2548  0.0740  0.1123
   64bbb     H9 1841   2.782   1.226  13.223 -1.3846 -0.5500  0.0755
   64bbb    H10 1842   2.769   1.218  13.406  1.5905  0.1473  0.9365
   64bbb     C6 1843   3.067   1.538  13.240 -0.0151  0.1962 -0.1503
   64bbb    H11 1844   3.031   1.612  13.167 -1.6381 -0.2003  0.2019
   64bbb    H12 1845   3.172   1.524  13.211 -0.3475  3.4572 -3.7179
   64bbb     C7 1846   3.405   1.233  13.240 -0.1877  0.9843  0.1583
   64bbb    H13 1847   3.458   1.199  13.150  1.6311  0.6758  1.3029
   64bbb    H14 1848   3.425   1.164  13.322 -0.0456  0.1607 -0.5477
   64bbb     C8 1849   3.079   1.600  13.380  0.7583 -0.8772 -0.0208
   64bbb    H15 1850   3.154   1.679  13.369 -1.0042  0.9054 -0.0186
   64bbb    H16 1851   3.111   1.527  13.455  0.8064  1.9722  2.9649
   64bbb     C9 1852   2.756   1.023  13.313 -0.1161 -0.0480  0.7687
   64bbb    H17 1853   2.650   1.022  13.341 -0.4329 -0.1402 -0.3800
   64bbb    H18 1854   2.813   0.964  13.386 -1.3137  1.4623  3.0322
   64bbb     O1 1855   3.444   1.365  13.279 -0.3666  0.0828 -0.1917
   65bbb     N1 1856   2.493   1.834  12.521  0.0111  0.2153 -0.0433
   65bbb     C1 1857   2.426   1.901  12.633 -0.4382  0.1167 -0.2251
   65bbb     H1 1858   2.329   1.855  12.656  0.9828 -1.7054  2.8362
   65bbb     H2 1859   2.407   2.006  12.611 -1.3713  0.2349  1.0212
   65bbb     C2 1860   2.404   1.805  12.405  0.5940  0.2543 -0.7425
   65bbb     H3 1861   2.314   1.755  12.442  3.0776 -1.6591  3.5261
   65bbb     H4 1862   2.452   1.736  12.334  0.4749 -1.4662  0.7495
   65bbb     C3 1863   2.625   1.892  12.490 -0.5793  0.1841 -0.0267
   65bbb     H5 1864   2.693   1.879  12.574 -0.1147 -2.1360 -0.6742
   65bbb     H6 1865   2.618   2.001  12.476 -1.3068  0.4909  2.3728
   65bbb     C4 1866   2.699   1.828  12.371 -0.2333 -0.0820  0.8190
   65bbb     H7 1867   2.661   1.879  12.280 -2.6346 -1.4026  0.9967
   65bbb     H8 1868   2.671   1.723  12.365 -2.1957  0.4642 -1.0381
   65bbb     C5 1869   2.502   1.889  12.769 -0.3313 -0.2256 -0.0240
   65bbb     H9 1870   2.572   1.972  12.783 -0.8734  0.5213 -1.5781
   65bbb    H10 1871   2.569   1.803  12.784 -0.5524 -0.6455 -1.3395
   65bbb     C6 1872   2.351   1.933  12.332 -0.3665  0.4960 -0.2639
   65bbb    H11 1873   2.384   1.933  12.227  0.7007 -2.5596 -0.0180
   65bbb    H12 1874   2.399   2.024  12.369 -1.4847  0.4772  1.3453
   65bbb     C7 1875   2.855   1.839  12.368 -0.2056 -0.1099  0.5077
   65bbb    H13 1876   2.883   1.945  12.378  1.1816 -0.2008 -1.7002
   65bbb    H14 1877   2.894   1.798  12.274 -1.0095 -0.6145  0.3875
   65bbb     C8 1878   2.197   1.957  12.335 -0.0094  0.1616 -0.1502
   65bbb    H15 1879   2.189   2.064  12.313 -1.7518 -0.2039 -1.6249
   65bbb    H16 1880   2.166   1.932  12.437 -1.9233 -0.1474 -0.7574
   65bbb     C9 1881   2.400   1.890  12.882 -0.2022  0.6543  0.4181
   65bbb    H17 1882   2.338   1.801  12.865 -0.5968  0.8730  0.6808
   65bbb    H18 1883   2.337   1.980  12.882  1.5823  1.9851  1.8505
   65bbb     O1 1884   2.903   1.771  12.485 -0.3930 -0.0015  0.2866
   66bbb     N1 1885   3.304   0.708  12.303 -0.2380  0.2853  0.4133
   66bbb     C1 1886   3.234   0.586  12.254  0.5299 -0.6526 -0.5294
   66bbb     H1 1887   3.125   0.599  12.247  0.1035 -3.4349 -0.2193
   66bbb     H2 1888   3.244   0.511  12.334  0.8449 -0.3437 -0.2746
   66bbb     C2 1889   3.446   0.692  12.348 -0.2999  0.1791  0.2600
   66bbb     H3 1890   3.476   0.793  12.377 -0.4141  0.5232 -0.7568
   66bbb     H4 1891   3.502   0.662  12.258 -0.7027  1.9193 -0.6154
   66bbb     C3 1892   3.301   0.837  12.227  0.0690 -0.5506 -0.4231
   66bbb     H5 1893   3.367   0.845  12.140  1.7645 -1.0017  0.7836
   66bbb     H6 1894   3.348   0.914  12.290  0.7924 -0.4931 -1.0185
   66bbb     C4 1895   3.158   0.892  12.183 -0.9091 -0.2622 -0.1378
   66bbb     H7 1896   3.095   0.910  12.272 -0.6811 -0.5715  0.0880
   66bbb     H8 1897   3.105   0.814  12.127  0.4671 -1.5081  0.2303
   66bbb     C5 1898   3.288   0.531  12.120  0.0264  0.6030  0.4723
   66bbb     H9 1899   3.397   0.518  12.127  0.0214  0.1485 -0.1656
   66bbb    H10 1900   3.274   0.612  12.047 -0.8907  0.2734  0.2754
   66bbb     C6 1901   3.462   0.591  12.473  0.0993 -0.3076  0.5011
   66bbb    H11 1902   3.433   0.491  12.437  2.5670 -1.0392  0.3798
   66bbb    H12 1903   3.410   0.628  12.563 -1.1573 -0.6862 -0.0441
   66bbb     C7 1904   3.167   1.019  12.098  0.2549  0.2767 -0.1214
   66bbb    H13 1905   3.070   1.038  12.051  0.0627  1.2251  0.6451
   66bbb    H14 1906   3.247   0.994  12.027  0.1986 -2.3110  0.6159
   66bbb     C8 1907   3.611   0.578  12.502 -0.0501 -0.1856 -0.5913
   66bbb    H15 1908   3.628   0.492  12.568 -1.6128  0.7474  1.1221
   66bbb    H16 1909   3.632   0.660  12.572  0.0090 -1.9895  1.6548
   66bbb     C9 1910   3.217   0.401  12.073  0.4703  0.4821  0.6116
   66bbb    H17 1911   3.115   0.433  12.050  0.1310  0.6439  2.2543
   66bbb    H18 1912   3.203   0.328  12.154 -1.9437  0.4281  0.2172
   66bbb     O1 1913   3.212   1.130  12.177 -0.2023  0.3874 -0.3292
   67bbb     N1 1914   4.200   2.101  12.021 -0.0604  0.9364 -0.1984
   67bbb     C1 1915   4.161   1.990  12.111  0.5882 -0.4227  0.2334
   67bbb     H1 1916   4.095   1.923  12.054 -0.5192 -0.3310  1.3616
   67bbb     H2 1917   4.099   2.026  12.194 -1.4406 -1.1337 -0.9044
   67bbb     C2 1918   4.083   2.151  11.949  0.1522 -0.4651  0.0321
   67bbb     H3 1919   4.021   2.202  12.024  2.8609  0.9846  1.4397
   67bbb     H4 1920   4.024   2.064  11.918  0.8839 -0.9071 -0.1344
   67bbb     C3 1921   4.294   2.195  12.081 -0.2231 -0.8987  0.3192
   67bbb     H5 1922   4.347   2.248  12.001 -1.9133  0.8109  0.2778
   67bbb     H6 1923   4.381   2.149  12.129 -0.2147  1.3457  2.6113
   67bbb     C4 1924   4.232   2.303  12.177 -0.0966  0.2146 -0.0168
   67bbb     H7 1925   4.210   2.256  12.273 -1.1860  0.0340 -0.3438
   67bbb     H8 1926   4.139   2.344  12.137  0.1701  2.6991  1.6621
   67bbb     C5 1927   4.267   1.894  12.168 -0.8029  0.0621  0.0361
   67bbb     H9 1928   4.327   1.955  12.237  0.3054 -0.9689  0.0230
   67bbb    H10 1929   4.348   1.865  12.099 -1.2900  0.7220 -0.8193
   67bbb     C6 1930   4.106   2.248  11.836  0.1928 -0.3594  0.4099
   67bbb    H11 1931   4.148   2.342  11.873  0.7194 -1.3240  2.4158
   67bbb    H12 1932   4.002   2.270  11.808  0.6020  1.3372  0.1246
   67bbb     C7 1933   4.331   2.422  12.207 -0.6413  0.0868  0.0722
   67bbb    H13 1934   4.433   2.383  12.191 -0.9566  0.2900 -2.9527
   67bbb    H14 1935   4.316   2.465  12.307 -2.8099  1.0693 -0.6263
   67bbb     C8 1936   4.172   2.194  11.706  0.6178  0.2200  0.5431
   67bbb    H15 1937   4.135   2.252  11.621  1.2276 -1.0867 -0.6542
   67bbb    H16 1938   4.134   2.091  11.697 -0.7937  0.8296 -0.8871
   67bbb     C9 1939   4.211   1.771  12.236 -0.2849 -0.0642  0.1340
   67bbb    H17 1940   4.149   1.711  12.169  0.4750 -2.1340  1.1991
   67bbb    H18 1941   4.147   1.804  12.320 -1.8285  0.4604 -1.1989
   67bbb     O1 1942   4.302   2.525  12.107 -0.7138 -0.0604 -0.1062
   68bbb     N1 1943   4.756   2.782  11.287 -0.2104 -0.4558  0.3330
   68bbb     C1 1944   4.839   2.840  11.185  0.6177  0.2625 -0.3680
   68bbb     H1 1945   4.942   2.827  11.220  0.0923 -0.1035  1.1082
   68bbb     H2 1946   4.820   2.948  11.183 -0.2319  0.1325  0.1210
   68bbb     C2 1947   4.620   2.761  11.252  0.0198 -0.2908  0.2820
   68bbb     H3 1948   4.557   2.737  11.338 -1.9937 -0.8514 -1.2925
   68bbb     H4 1949   4.615   2.697  11.163 -1.2282  0.3664 -0.1422
   68bbb     C3 1950   4.779   2.853  11.417 -0.1829 -0.0556  0.3973
   68bbb     H5 1951   4.704   2.819  11.489  1.3308 -3.1915  0.6698
   68bbb     H6 1952   4.754   2.958  11.401 -0.2068 -0.1079  0.0802
   68bbb     C4 1953   4.919   2.828  11.482 -0.6257 -0.1293  0.2435
   68bbb     H7 1954   4.979   2.919  11.493 -2.6937  1.1202  1.7135
   68bbb     H8 1955   4.983   2.759  11.425 -1.9016 -0.9434 -0.2611
   68bbb     C5 1956   4.824   2.792  11.038  0.2973 -0.5340 -0.0269
   68bbb     H9 1957   4.886   2.856  10.975 -1.5411  2.3698  0.9209
   68bbb    H10 1958   4.723   2.821  11.005  0.1851 -1.0887 -0.1791
   68bbb     C6 1959   4.552   2.895  11.213 -0.6298 -0.3919  0.2282
   68bbb    H11 1960   4.598   2.951  11.130 -0.7845 -1.6597 -0.7439
   68bbb    H12 1961   4.550   2.967  11.295 -1.1762  1.3720 -1.2692
   68bbb     C7 1962   4.911   2.766  11.619 -0.0090  0.3998 -0.7912
   68bbb    H13 1963   5.015   2.749  11.651 -0.4701  1.1972  1.2823
   68bbb    H14 1964   4.850   2.675  11.622  0.8087 -0.1395  0.2521
   68bbb     C8 1965   4.405   2.883  11.169  0.5949  0.1709 -0.0235
   68bbb    H15 1966   4.348   2.977  11.175 -3.2196 -1.8707 -1.1133
   68bbb    H16 1967   4.350   2.814  11.234  1.3783  0.5359  1.0580
   68bbb     C9 1968   4.854   2.639  11.018 -0.3030 -1.1547  0.5446
   68bbb    H17 1969   4.814   2.580  11.101 -0.9595  1.3010  2.0964
   68bbb    H18 1970   4.962   2.627  11.027 -0.1972 -0.4294  0.3414
   68bbb     O1 1971   4.848   2.870  11.709  0.3715  1.2005  0.2139
   69bbb     N1 1972   2.674   2.604  11.184  0.5791 -0.5036 -0.4395
   69bbb     C1 1973   2.771   2.543  11.090 -0.0477 -0.0746  0.7087
   69bbb     H1 1974   2.795   2.438  11.111  0.1331  0.0461  1.1278
   69bbb     H2 1975   2.870   2.592  11.091 -0.1730  0.1772  1.4113
   69bbb     C2 1976   2.540   2.532  11.200  0.3441 -0.2212 -0.7150
   69bbb     H3 1977   2.487   2.515  11.105  0.4548  0.6923 -0.9486
   69bbb     H4 1978   2.474   2.593  11.263 -0.2913 -0.9292 -0.6847
   69bbb     C3 1979   2.735   2.653  11.312 -0.0322 -0.5220  1.1714
   69bbb     H5 1980   2.828   2.704  11.283 -0.9585 -0.0136 -1.1235
   69bbb     H6 1981   2.761   2.565  11.372 -1.7995 -1.1997  0.9829
   69bbb     C4 1982   2.653   2.751  11.398 -0.1586  0.5932 -0.6177
   69bbb     H7 1983   2.695   2.760  11.499 -2.7351  1.6693  0.4648
   69bbb     H8 1984   2.559   2.701  11.426  0.1477  0.5415  0.3531
   69bbb     C5 1985   2.723   2.565  10.939  0.3661 -0.0542 -0.0197
   69bbb     H9 1986   2.613   2.556  10.944  0.1590  1.2376 -1.6114
   69bbb    H10 1987   2.758   2.477  10.884  0.3575 -1.5749  2.2570
   69bbb     C6 1988   2.543   2.397  11.273 -0.3113  0.4239 -0.2687
   69bbb    H11 1989   2.594   2.409  11.369 -1.3849 -1.3520  0.5601
   69bbb    H12 1990   2.610   2.331  11.217 -0.8030  1.0089 -1.6090
   69bbb     C7 1991   2.618   2.886  11.329 -0.3941  0.2998  0.1837
   69bbb    H13 1992   2.566   2.953  11.398  1.5967  0.2338  1.8435
   69bbb    H14 1993   2.563   2.876  11.235 -0.0961  1.6170 -0.1552
   69bbb     C8 1994   2.406   2.329  11.286 -0.2995  0.2567 -0.5735
   69bbb    H15 1995   2.328   2.401  11.257 -1.1949  0.8696  2.8923
   69bbb    H16 1996   2.386   2.310  11.392 -0.2780  1.9090 -0.2511
   69bbb     C9 1997   2.762   2.694  10.865 -0.9762  0.5507  0.5560
   69bbb    H17 1998   2.860   2.734  10.893  0.5185 -0.5061 -2.6387
   69bbb    H18 1999   2.692   2.770  10.903 -2.6587 -2.3875  3.9761
   69bbb     O1 2000   2.735   2.967  11.294  0.7313  0.2858  1.2342
   70bbb     N1 2001   3.257   3.458  12.271 -0.3570  0.3607  0.3317
   70bbb     C1 2002   3.244   3.538  12.398 -0.6131  0.3193 -0.3867
   70bbb     H1 2003   3.303   3.631  12.396  1.7252 -0.9981  1.6940
   70bbb     H2 2004   3.278   3.485  12.487 -0.2614  1.9070  0.4590
   70bbb     C2 2005   3.366   3.357  12.263 -0.4145 -0.1362 -0.0118
   70bbb     H3 2006   3.459   3.404  12.297 -1.0883  2.5674 -1.5196
   70bbb     H4 2007   3.387   3.330  12.159 -1.2285 -0.0941 -0.1931
   70bbb     C3 2008   3.257   3.544  12.148  0.3317 -0.0846 -0.1186
   70bbb     H5 2009   3.358   3.587  12.141 -0.4013  1.5012 -1.4036
   70bbb     H6 2010   3.176   3.617  12.157 -0.6262 -0.9109 -1.6086
   70bbb     C4 2011   3.238   3.471  12.020 -0.1595  0.0609  0.5114
   70bbb     H7 2012   3.169   3.385  12.028  2.9628 -2.5424  1.8939
   70bbb     H8 2013   3.338   3.438  11.990 -0.9081 -1.6025 -0.2974
   70bbb     C5 2014   3.099   3.587  12.422 -0.3314 -0.2468  0.2924
   70bbb     H9 2015   3.037   3.496  12.421  0.8962 -1.1335 -1.7519
   70bbb    H10 2016   3.056   3.643  12.338 -2.0226 -0.9014  0.6731
   70bbb     C6 2017   3.326   3.228  12.339 -0.0083  0.4641 -0.2703
   70bbb    H11 2018   3.335   3.242  12.447  1.0500 -1.3807 -0.0596
   70bbb    H12 2019   3.391   3.142  12.316  0.2031  0.6379 -0.3323
   70bbb     C7 2020   3.185   3.562  11.905  0.7428  0.3100  0.3131
   70bbb    H13 2021   3.257   3.641  11.882  0.6263  0.1484 -0.6487
   70bbb    H14 2022   3.092   3.614  11.932  1.1443  0.6832  1.0021
   70bbb     C8 2023   3.163   3.186  12.322 -0.9833 -0.1240  0.3471
   70bbb    H15 2024   3.141   3.190  12.215  0.9768 -2.1708 -0.2088
   70bbb    H16 2025   3.106   3.260  12.379  0.9529  0.0750  2.1670
   70bbb     C9 2026   3.077   3.669  12.558 -0.8667 -0.1771 -0.4218
   70bbb    H17 2027   3.137   3.759  12.544  1.0833 -1.7124 -2.9417
   70bbb    H18 2028   3.119   3.611  12.642  0.1036 -0.2082 -0.9105
   70bbb     O1 2029   3.163   3.476  11.788  0.0469  0.0162  0.0882
   71bbb     N1 2030   5.305   0.540   9.244 -0.0392 -0.5777 -0.5308
   71bbb     C1 2031   5.340   0.680   9.205  1.1283  0.2593 -0.3017
   71bbb     H1 2032   5.269   0.704   9.125  1.0450 -0.1730 -0.3577
   71bbb     H2 2033   5.432   0.670   9.148  1.1757  0.9104 -0.3429
   71bbb     C2 2034   5.292   0.452   9.124 -0.2454 -0.4704 -0.0083
   71bbb     H3 2035   5.211   0.481   9.057  0.3259  0.3731 -0.3536
   71bbb     H4 2036   5.270   0.348   9.153 -2.5553 -0.2064 -0.6347
   71bbb     C3 2037   5.188   0.529   9.335  0.8087 -0.5014 -0.0551
   71bbb     H5 2038   5.206   0.595   9.421  4.6764 -0.5857 -0.6192
   71bbb     H6 2039   5.178   0.425   9.365 -0.5371 -0.9252 -1.7714
   71bbb     C4 2040   5.053   0.583   9.271 -0.1201  0.0682  0.3718
   71bbb     H7 2041   5.054   0.582   9.162  0.2132  0.2585  0.3720
   71bbb     H8 2042   5.048   0.689   9.300  2.4060  0.4024 -0.2124
   71bbb     C5 2043   5.345   0.795   9.307  0.1291  0.3233 -0.3859
   71bbb     H9 2044   5.250   0.811   9.360  0.7292  1.9321  0.2695
   71bbb    H10 2045   5.365   0.889   9.253 -1.8250  0.8285 -0.3153
   71bbb     C6 2046   5.420   0.445   9.041  0.4031  0.2644  0.5807
   71bbb    H11 2047   5.510   0.442   9.103 -0.9569  0.1686  2.6261
   71bbb    H12 2048   5.426   0.541   8.989 -2.0388  0.9353  1.3735
   71bbb     C7 2049   4.931   0.513   9.323  0.1485 -0.1422 -0.7659
   71bbb    H13 2050   4.929   0.412   9.282 -0.9192 -0.6782  0.5483
   71bbb    H14 2051   4.843   0.565   9.283  0.6609  2.6045  1.3254
   71bbb     C8 2052   5.414   0.333   8.931 -0.1249  0.6992 -0.2539
   71bbb    H15 2053   5.511   0.332   8.879 -0.3771 -0.4475 -0.7319
   71bbb    H16 2054   5.339   0.372   8.860  1.0189  3.0728 -0.2720
   71bbb     C9 2055   5.451   0.788   9.415 -0.4636 -0.4162  0.0176
   71bbb    H17 2056   5.550   0.762   9.376 -0.1013  1.0675 -0.1207
   71bbb    H18 2057   5.415   0.715   9.489 -0.2478 -1.1012 -0.5343
   71bbb     O1 2058   4.932   0.498   9.473  0.1044  0.2436  0.6068
   72bbb     N1 2059   4.034   0.346  10.255  0.2321 -0.1941 -0.1614
   72bbb     C1 2060   3.893   0.386  10.282  0.8641  0.6347 -0.5511
   72bbb     H1 2061   3.879   0.427  10.382 -0.1988 -2.0761  0.5134
   72bbb     H2 2062   3.829   0.296  10.284  0.0163  1.2418 -0.1536
   72bbb     C2 2063   4.099   0.280  10.361  0.0285  0.2091  0.1062
   72bbb     H3 2064   4.085   0.338  10.453  2.8105 -0.6263  1.1747
   72bbb     H4 2065   4.205   0.277  10.331  0.0564 -1.2483  0.2717
   72bbb     C3 2066   4.049   0.289  10.121  1.1379  0.0687  0.7398
   72bbb     H5 2067   4.005   0.361  10.051 -1.0861 -3.5500 -1.9318
   72bbb     H6 2068   3.985   0.200  10.115  1.4592 -0.2946  2.1040
   72bbb     C4 2069   4.193   0.270  10.070  1.0125 -0.1993 -0.6441
   72bbb     H7 2070   4.239   0.183  10.119  0.5149  0.1899  0.5466
   72bbb     H8 2071   4.245   0.360  10.103 -2.4865  1.4708  0.7498
   72bbb     C5 2072   3.837   0.495  10.186 -0.2414  0.6896  0.0798
   72bbb     H9 2073   3.737   0.510  10.227 -0.1742 -1.0294  0.9535
   72bbb    H10 2074   3.812   0.456  10.087 -1.3589 -1.2158  1.0760
   72bbb     C6 2075   4.062   0.132  10.399 -0.4076 -0.3372 -0.1598
   72bbb    H11 2076   4.069   0.078  10.304 -0.7058 -0.6034 -0.0312
   72bbb    H12 2077   3.957   0.134  10.430 -0.2921  0.2732  0.1996
   72bbb     C7 2078   4.199   0.254   9.914  0.2961 -0.4135 -0.6092
   72bbb    H13 2079   4.147   0.335   9.861 -0.9436 -1.4377 -1.0117
   72bbb    H14 2080   4.149   0.162   9.880  0.0112 -0.0951 -1.0640
   72bbb     C8 2081   4.139   0.076  10.519 -0.4601 -0.4338 -0.4142
   72bbb    H15 2082   4.112   0.112  10.619  0.0587 -2.0520  0.3266
   72bbb    H16 2083   4.247   0.084  10.503 -0.1232 -0.1521  1.6910
   72bbb     C9 2084   3.927   0.623  10.169  0.2257  0.0320 -0.4071
   72bbb    H17 2085   4.025   0.600  10.125  0.7627 -1.2563  1.3182
   72bbb    H18 2086   3.954   0.656  10.270 -1.0342  0.5642 -0.2385
   72bbb     O1 2087   4.342   0.262   9.877  0.1537  0.5749 -0.6095
   73bbb     N1 2088   5.124   0.183  10.046 -0.2239 -0.2327  0.4838
   73bbb     C1 2089   5.161   0.163   9.902 -0.5623 -0.0154  0.2207
   73bbb     H1 2090   5.104   0.083   9.853  0.6825  0.3195 -1.8573
   73bbb     H2 2091   5.269   0.145   9.902 -0.8608 -2.2728  1.7468
   73bbb     C2 2092   5.214   0.267  10.124 -0.1079  0.0438  0.1151
   73bbb     H3 2093   5.184   0.268  10.229  3.5119  3.4087  1.3592
   73bbb     H4 2094   5.216   0.370  10.085 -0.8502  0.4636  1.1643
   73bbb     C3 2095   4.982   0.223  10.065 -0.4323  0.0363  0.3715
   73bbb     H5 2096   4.960   0.312  10.005 -0.1537 -1.7434 -2.5733
   73bbb     H6 2097   4.962   0.248  10.170  2.9448  3.3828  0.4441
   73bbb     C4 2098   4.883   0.123  10.002 -0.8802  0.1602  0.0875
   73bbb     H7 2099   4.902   0.034  10.063  1.2876  2.1706  2.5462
   73bbb     H8 2100   4.913   0.113   9.897  1.5822  1.2106  0.6042
   73bbb     C5 2101   5.141   0.286   9.814  0.5270 -0.6207 -0.2459
   73bbb     H9 2102   5.180   0.379   9.857  0.7375 -1.3980  1.3242
   73bbb    H10 2103   5.035   0.307   9.795  0.5687 -0.2786 -0.1172
   73bbb     C6 2104   5.364   0.216  10.136 -0.0034  0.1067 -0.1150
   73bbb    H11 2105   5.405   0.182  10.040  2.4285 -2.3974  1.6445
   73bbb    H12 2106   5.350   0.122  10.191  2.0427  0.2931  0.8300
   73bbb     C7 2107   4.736   0.162  10.000  0.1375 -0.0779 -0.1263
   73bbb    H13 2108   4.688   0.086   9.938  1.1302 -0.9311  0.1103
   73bbb    H14 2109   4.722   0.266   9.966 -0.5185  0.2513  1.0737
   73bbb     C8 2110   5.459   0.305  10.216  0.8017 -0.4499  0.2499
   73bbb    H15 2111   5.488   0.390  10.153 -2.3038  2.4484  2.3876
   73bbb    H16 2112   5.548   0.245  10.241  0.4184 -0.8181  0.7781
   73bbb     C9 2113   5.209   0.277   9.674 -0.7821 -0.4481 -0.1882
   73bbb    H17 2114   5.160   0.344   9.602  0.7734 -0.1614 -1.0386
   73bbb    H18 2115   5.207   0.173   9.639 -0.2047 -1.0562  1.4911
   73bbb     O1 2116   4.706   0.161  10.139  0.2770 -0.1539 -0.0956
   74bbb     N1 2117   3.863   0.449  11.092  0.1437  0.0829  0.4019
   74bbb     C1 2118   3.921   0.575  11.150  0.0912  0.5279 -0.4535
   74bbb     H1 2119   4.031   0.576  11.157  0.1644  0.0099 -1.3738
   74bbb     H2 2120   3.882   0.586  11.252  0.4322 -3.0827  0.1936
   74bbb     C2 2121   3.889   0.329  11.178 -0.1475 -0.6242 -0.1930
   74bbb     H3 2122   3.997   0.325  11.193 -0.2456  1.5384  1.5606
   74bbb     H4 2123   3.845   0.245  11.123 -2.8338  0.5840 -0.0878
   74bbb     C3 2124   3.892   0.431  10.951 -0.6847 -0.1017  0.4039
   74bbb     H5 2125   3.846   0.508  10.889 -0.2892 -0.0650  0.1517
   74bbb     H6 2126   3.843   0.338  10.918 -0.8542 -0.0172  0.4188
   74bbb     C4 2127   4.044   0.426  10.917 -0.0651  0.5826  1.0080
   74bbb     H7 2128   4.094   0.363  10.991 -1.0252  1.3371  2.3474
   74bbb     H8 2129   4.094   0.524  10.924  4.1478 -1.2556  0.1593
   74bbb     C5 2130   3.882   0.702  11.068 -1.5413  0.2436 -0.2831
   74bbb     H9 2131   3.776   0.707  11.038 -1.8580  1.5182  0.9431
   74bbb    H10 2132   3.950   0.694  10.982  2.5483 -2.1514  2.8273
   74bbb     C6 2133   3.814   0.318  11.323 -0.2811  0.0314  0.7799
   74bbb    H11 2134   3.708   0.307  11.301 -0.6382  3.0357  0.5625
   74bbb    H12 2135   3.833   0.410  11.380  2.5942 -1.4961  2.5493
   74bbb     C7 2136   4.070   0.365  10.775 -0.1971 -0.9157 -0.1938
   74bbb    H13 2137   3.985   0.399  10.714 -0.7004 -0.3519  0.7843
   74bbb    H14 2138   4.079   0.256  10.782  1.2236 -0.7155  1.9815
   74bbb     C8 2139   3.861   0.198  11.405  0.4264  0.6920  0.6313
   74bbb    H15 2140   3.965   0.217  11.434  1.4687 -2.2885 -0.7332
   74bbb    H16 2141   3.866   0.101  11.353  1.1621  1.4493 -0.7906
   74bbb     C9 2142   3.929   0.827  11.150 -0.0619 -0.0777 -0.2748
   74bbb    H17 2143   4.036   0.825  11.176 -0.4291 -1.7054  1.3239
   74bbb    H18 2144   3.870   0.848  11.240  1.1282  1.7680  0.1323
   74bbb     O1 2145   4.198   0.406  10.718  0.1827  0.0821  0.2022
   75bbb     N1 2146   6.331   0.882  10.740 -0.4302  0.1553  0.1013
   75bbb     C1 2147   6.193   0.875  10.690  0.0514  0.3916 -0.1479
   75bbb     H1 2148   6.139   0.912  10.777  0.0865 -2.2068  1.0459
   75bbb     H2 2149   6.154   0.777  10.662  0.1848 -1.1299  4.2530
   75bbb     C2 2150   6.438   0.839  10.644 -0.0858  0.4008  0.2472
   75bbb     H3 2151   6.537   0.850  10.691 -0.2673  0.7743  0.5507
   75bbb     H4 2152   6.450   0.914  10.565  1.2818 -0.6919 -0.6306
   75bbb     C3 2153   6.368   1.023  10.790 -0.7406  0.7757  0.5197
   75bbb     H5 2154   6.348   1.100  10.713 -0.3952  0.5415  0.1920
   75bbb     H6 2155   6.476   1.025  10.810  0.2889  0.2165 -3.7990
   75bbb     C4 2156   6.304   1.072  10.920  0.1267  0.2115 -0.1907
   75bbb     H7 2157   6.320   0.991  10.993  0.1074  1.4814  1.2679
   75bbb     H8 2158   6.196   1.086  10.907  0.5185  2.7360 -1.2311
   75bbb     C5 2159   6.169   0.965  10.566  0.3015  0.2437 -0.0782
   75bbb     H9 2160   6.234   0.927  10.486 -1.6332 -2.6226 -0.4650
   75bbb    H10 2161   6.192   1.069  10.589  0.4118  0.2057 -0.0126
   75bbb     C6 2162   6.430   0.695  10.582  0.2203 -0.1484 -0.3820
   75bbb    H11 2163   6.523   0.674  10.528  0.5727  1.1490 -0.3183
   75bbb    H12 2164   6.358   0.693  10.499 -0.6504  0.1128  0.3571
   75bbb     C7 2165   6.367   1.203  10.974 -0.2244 -0.1756 -0.4200
   75bbb    H13 2166   6.370   1.291  10.909 -1.2382 -0.6091 -1.0806
   75bbb    H14 2167   6.468   1.186  11.012 -0.8563 -0.0326  1.4412
   75bbb     C8 2168   6.404   0.579  10.684 -0.2959  0.4451 -0.2609
   75bbb    H15 2169   6.318   0.612  10.744 -0.4252 -2.1598  1.1232
   75bbb    H16 2170   6.492   0.573  10.748  0.5401  0.5343 -1.3640
   75bbb     C9 2171   6.023   0.959  10.516  0.7551  0.4873  0.3937
   75bbb    H17 2172   5.955   0.964  10.602 -1.1782 -0.3981 -1.0041
   75bbb    H18 2173   6.010   0.854  10.483  0.8469  0.6079 -0.0330
   75bbb     O1 2174   6.287   1.228  11.090  0.1303 -0.9062 -0.0676
   76bbb     N1 2175   5.994   1.431  10.676 -0.2081 -0.1371 -0.2426
   76bbb     C1 2176   5.896   1.517  10.606 -0.0685 -0.2148 -0.4300
   76bbb     H1 2177   5.942   1.616  10.594  0.3664 -0.4408 -0.6556
   76bbb     H2 2178   5.813   1.535  10.676  1.6823 -0.3487  1.7755
   76bbb     C2 2179   5.964   1.286  10.698 -0.1885 -0.7514 -0.0992
   76bbb     H3 2180   6.042   1.243  10.762  0.7049 -0.2915 -0.8395
   76bbb     H4 2181   5.961   1.234  10.601  0.9184 -0.4557 -0.3108
   76bbb     C3 2182   6.047   1.485  10.806  0.0417  0.1680  0.2737
   76bbb     H5 2183   6.120   1.412  10.845 -1.4838 -0.7103  1.6051
   76bbb     H6 2184   5.971   1.495  10.883 -0.5541 -0.4444 -0.2168
   76bbb     C4 2185   6.117   1.627  10.799 -0.5502  0.1427  0.1348
   76bbb     H7 2186   6.045   1.707  10.779 -0.1742  0.0618 -1.7467
   76bbb     H8 2187   6.195   1.623  10.722 -1.3226 -0.0461 -0.6616
   76bbb     C5 2188   5.854   1.456  10.467 -0.4122 -0.2576 -0.1721
   76bbb     H9 2189   5.780   1.522  10.418 -1.9591 -1.2672  0.7099
   76bbb    H10 2190   5.805   1.361  10.490  0.7172 -0.4884  1.4289
   76bbb     C6 2191   5.827   1.268  10.758  0.3993 -0.1010 -0.1292
   76bbb    H11 2192   5.747   1.297  10.688  1.1046  1.3703 -0.3723
   76bbb    H12 2193   5.813   1.336  10.843 -1.8494 -0.1825 -0.3669
   76bbb     C7 2194   6.198   1.653  10.929  0.2435  0.1253  0.5727
   76bbb    H13 2195   6.254   1.747  10.920 -1.1355  1.0721  1.5214
   76bbb    H14 2196   6.266   1.570  10.952  0.6900 -0.0743 -1.3182
   76bbb     C8 2197   5.810   1.116  10.790  0.5680  0.5552  0.2724
   76bbb    H15 2198   5.901   1.081  10.841  0.0240  0.6736  1.3659
   76bbb    H16 2199   5.786   1.060  10.699  0.1414  1.6104 -0.2729
   76bbb     C9 2200   5.976   1.425  10.382 -0.6123 -0.1550  0.5995
   76bbb    H17 2201   6.030   1.340  10.425  0.9120  0.5539  0.1901
   76bbb    H18 2202   6.049   1.508  10.378 -2.0015  1.0994  0.4441
   76bbb     O1 2203   6.101   1.666  11.031  0.2403  0.2156  0.2698
   77bbb     N1 2204   6.015   0.415  11.556  0.9546  0.5287 -0.4013
   77bbb     C1 2205   6.155   0.387  11.596  0.3790  0.2758 -0.0700
   77bbb     H1 2206   6.174   0.283  11.566 -0.4171  0.2774 -0.5921
   77bbb     H2 2207   6.167   0.381  11.705 -0.9861  0.2427  0.0993
   77bbb     C2 2208   5.922   0.303  11.598  0.4619 -0.6924  0.0047
   77bbb     H3 2209   5.818   0.323  11.570  0.1953 -1.6780  0.2216
   77bbb     H4 2210   5.930   0.284  11.706 -0.1421 -0.5414  0.0765
   77bbb     C3 2211   5.958   0.546  11.593  0.4936 -0.7016  0.4543
   77bbb     H5 2212   6.031   0.628  11.585 -0.0920 -0.1891  0.3361
   77bbb     H6 2213   5.934   0.541  11.700 -1.1405 -0.7522  0.1058
   77bbb     C4 2214   5.831   0.593  11.517  0.4499 -0.3977  0.2395
   77bbb     H7 2215   5.739   0.534  11.520 -1.1562  1.8822 -1.3404
   77bbb     H8 2216   5.849   0.586  11.409 -1.0417 -0.8397  0.0032
   77bbb     C5 2217   6.257   0.480  11.526  0.0138  0.5940  0.7165
   77bbb     H9 2218   6.353   0.433  11.546  0.3330  0.9657  0.0791
   77bbb    H10 2219   6.270   0.577  11.576 -0.0360 -0.0880  2.0850
   77bbb     C6 2220   5.955   0.163  11.537 -0.1034 -0.2674  0.3965
   77bbb    H11 2221   6.045   0.128  11.589 -1.5055 -1.6269  2.0308
   77bbb    H12 2222   5.973   0.172  11.429 -2.4012 -0.3928 -0.0632
   77bbb     C7 2223   5.789   0.732  11.564 -0.4274 -0.4939 -0.5448
   77bbb    H13 2224   5.729   0.774  11.483  0.4639  0.8066 -0.5606
   77bbb    H14 2225   5.878   0.795  11.577 -1.0410 -0.0143  1.9111
   77bbb     C8 2226   5.832   0.064  11.558 -0.7209 -0.5892 -0.0059
   77bbb    H15 2227   5.788   0.067  11.659 -1.2241 -1.4957 -0.1875
   77bbb    H16 2228   5.870  -0.038  11.544  0.1174 -0.6337  2.1191
   77bbb     C9 2229   6.233   0.500  11.376 -0.1206 -0.1338 -0.0238
   77bbb    H17 2230   6.134   0.546  11.364  0.7274  1.7558 -0.0848
   77bbb    H18 2231   6.232   0.399  11.335  2.1113 -0.9912  1.8251
   77bbb     O1 2232   5.713   0.712  11.684 -0.1611  0.1078 -0.2622
   78bbb     N1 2233   5.548   0.330  12.045  0.0937  0.6832 -0.8219
   78bbb     C1 2234   5.684   0.378  12.094  0.2371 -0.0539  0.2308
   78bbb     H1 2235   5.764   0.313  12.057  1.5579  2.0347 -0.7652
   78bbb     H2 2236   5.693   0.382  12.203  0.0366  2.0777  0.2178
   78bbb     C2 2237   5.542   0.283  11.905 -0.0536  0.0744  0.2847
   78bbb     H3 2238   5.575   0.367  11.843 -0.7594  0.7406  0.8034
   78bbb     H4 2239   5.440   0.265  11.871  0.6366 -0.9874 -1.3387
   78bbb     C3 2240   5.433   0.416  12.080 -0.2740 -0.1440  0.2765
   78bbb     H5 2241   5.337   0.379  12.045 -1.4755  1.3561  1.7997
   78bbb     H6 2242   5.451   0.515  12.037  1.0952 -0.2625  0.5240
   78bbb     C4 2243   5.415   0.439  12.234 -0.0289  0.3039  0.3530
   78bbb     H7 2244   5.503   0.490  12.274  1.3491 -0.9783 -0.8983
   78bbb     H8 2245   5.418   0.341  12.283  0.2119  0.9618  1.7096
   78bbb     C5 2246   5.737   0.514  12.044 -0.3834  0.1162 -0.1433
   78bbb     H9 2247   5.665   0.595  12.055 -1.6906 -0.2994 -3.9525
   78bbb    H10 2248   5.773   0.500  11.941  0.6166  1.2247  0.0280
   78bbb     C6 2249   5.639   0.164  11.873  0.2967 -0.9048  0.7712
   78bbb    H11 2250   5.746   0.186  11.882  0.0191  0.1568  1.5658
   78bbb    H12 2251   5.625   0.151  11.765  3.5349 -1.5571  0.3201
   78bbb     C7 2252   5.293   0.529  12.276  0.5014  0.2706  0.4785
   78bbb    H13 2253   5.280   0.541  12.385 -0.5104  0.2938  0.3576
   78bbb    H14 2254   5.208   0.466  12.249 -0.3162  0.1562  3.0422
   78bbb     C8 2255   5.610   0.031  11.946  0.3576 -0.3778  0.2049
   78bbb    H15 2256   5.505   0.010  11.926  0.1468  1.4958 -0.8723
   78bbb    H16 2257   5.619   0.055  12.053 -2.9398  0.3167  0.4179
   78bbb     C9 2258   5.863   0.546  12.134 -0.1795  0.1849  0.4358
   78bbb    H17 2259   5.923   0.455  12.126  0.4453  0.6254 -0.0079
   78bbb    H18 2260   5.826   0.550  12.237 -0.3397  0.9694  0.3530
   78bbb     O1 2261   5.301   0.658  12.210 -0.2315 -0.2887  0.3601
   79bbb     N1 2262   2.768   0.515  11.826 -0.2893 -0.0434  0.2779
   79bbb     C1 2263   2.815   0.495  11.682  0.1581 -0.4538 -0.4228
   79bbb     H1 2264   2.859   0.591  11.653 -0.7692  0.1083 -0.0336
   79bbb     H2 2265   2.728   0.475  11.617 -1.2178 -1.9097  1.7316
   79bbb     C2 2266   2.869   0.565  11.919  0.2953  0.8558 -0.2512
   79bbb     H3 2267   2.911   0.657  11.876  3.5518 -0.2656  0.2041
   79bbb     H4 2268   2.962   0.507  11.923  0.1147  0.6254  2.8695
   79bbb     C3 2269   2.641   0.582  11.826  1.8150  0.0788 -0.6151
   79bbb     H5 2270   2.587   0.572  11.921  1.8028 -0.8236 -0.7053
   79bbb     H6 2271   2.572   0.529  11.759 -0.3745 -0.5450  1.9536
   79bbb     C4 2272   2.644   0.726  11.790 -0.3582  0.2692  0.2327
   79bbb     H7 2273   2.695   0.736  11.693  0.2498  0.1130  0.5310
   79bbb     H8 2274   2.701   0.786  11.862  0.9434 -1.3424  0.6096
   79bbb     C5 2275   2.924   0.392  11.661 -0.5959 -0.0792 -0.8132
   79bbb     H9 2276   2.877   0.300  11.698 -0.5100  0.9488  2.1620
   79bbb    H10 2277   3.008   0.398  11.732 -0.6519  0.3845 -0.7819
   79bbb     C6 2278   2.824   0.599  12.060  0.2613  0.4423 -0.7379
   79bbb    H11 2279   2.739   0.668  12.051  0.0054  0.0855 -1.0788
   79bbb    H12 2280   2.904   0.656  12.109 -1.2370  2.0038  0.0329
   79bbb     C7 2281   2.494   0.779  11.792 -0.8068 -0.0610 -0.1597
   79bbb    H13 2282   2.501   0.885  11.767  1.8059 -0.3464 -0.9631
   79bbb    H14 2283   2.458   0.764  11.895 -1.4200  0.0101 -0.3588
   79bbb     C8 2284   2.777   0.476  12.147  0.6092 -0.3816  0.1873
   79bbb    H15 2285   2.856   0.402  12.160  0.2737 -0.9949 -1.1398
   79bbb    H16 2286   2.694   0.434  12.090  1.7515 -0.7334 -1.2749
   79bbb     C9 2287   2.969   0.373  11.513  0.4096 -0.0842 -0.4213
   79bbb    H17 2288   2.876   0.370  11.455 -1.4431 -0.7194  2.3729
   79bbb    H18 2289   3.005   0.270  11.498 -3.2277 -1.8330  1.4717
   79bbb     O1 2290   2.404   0.725  11.694 -0.0287  0.3284  0.9928
   80bbb     N1 2291   2.799   1.289  11.797 -0.0088  0.2151  0.2736
   80bbb     C1 2292   2.713   1.258  11.918  0.4895  0.6671 -0.2440
   80bbb     H1 2293   2.637   1.334  11.939 -2.0285 -1.8603  0.4568
   80bbb     H2 2294   2.774   1.262  12.008 -0.6267  0.7389  0.5321
   80bbb     C2 2295   2.944   1.298  11.838  0.6522 -0.2723 -0.2251
   80bbb     H3 2296   2.962   1.216  11.910 -2.1533 -1.1423 -0.3961
   80bbb     H4 2297   2.950   1.394  11.890 -0.8271 -0.3040  0.0381
   80bbb     C3 2298   2.757   1.404  11.714  0.3516 -0.0991  0.3509
   80bbb     H5 2299   2.827   1.421  11.632  1.3218  1.9561  1.5107
   80bbb     H6 2300   2.755   1.491  11.781  0.2850  1.8666 -2.0408
   80bbb     C4 2301   2.614   1.400  11.661 -0.3085  0.4552 -0.9759
   80bbb     H7 2302   2.592   1.493  11.607  1.5676  2.0883  0.8827
   80bbb     H8 2303   2.541   1.385  11.741  1.5003  2.3855  1.1695
   80bbb     C5 2304   2.646   1.121  11.908  0.6323 -0.1756 -0.1551
   80bbb     H9 2305   2.717   1.051  11.953  1.0967  0.2107 -0.2794
   80bbb    H10 2306   2.630   1.102  11.802  0.2864  2.1610 -0.5622
   80bbb     C6 2307   3.040   1.292  11.714 -0.0011 -0.1651 -0.8196
   80bbb    H11 2308   3.079   1.391  11.687  1.1523 -0.7630 -1.4282
   80bbb    H12 2309   2.990   1.264  11.621 -0.9829  0.3889 -0.4694
   80bbb     C7 2310   2.599   1.294  11.556 -0.0760  0.0990 -0.1628
   80bbb    H13 2311   2.620   1.195  11.599 -0.5693 -0.0770 -0.3151
   80bbb    H14 2312   2.669   1.306  11.473  0.0222  1.1121  0.0532
   80bbb     C8 2313   3.161   1.192  11.738  0.4972 -0.2028 -0.4047
   80bbb    H15 2314   3.135   1.099  11.790  1.8764  0.8764  2.4126
   80bbb    H16 2315   3.224   1.253  11.803 -0.0447  0.0614 -0.1197
   80bbb     C9 2316   2.513   1.106  11.980  0.2657  0.0108 -0.1833
   80bbb    H17 2317   2.472   1.010  11.945  1.0446  0.0840 -1.3215
   80bbb    H18 2318   2.441   1.178  11.940  0.1870 -0.1062 -0.2530
   80bbb     O1 2319   2.462   1.285  11.510  0.0267  0.0476  0.0631
   81bbb     N1 2320   3.497   0.179   9.970 -0.4994  0.8833  0.6845
   81bbb     C1 2321   3.528   0.155  10.115  0.4879 -0.0617  0.0025
   81bbb     H1 2322   3.460   0.077  10.153 -0.1588 -1.0108 -2.8402
   81bbb     H2 2323   3.506   0.250  10.165  1.8123  0.4595 -0.3597
   81bbb     C2 2324   3.601   0.248   9.894 -0.4162 -0.2322  0.5839
   81bbb     H3 2325   3.703   0.226   9.926 -0.3921 -1.2753 -0.1500
   81bbb     H4 2326   3.591   0.351   9.928  0.2910  0.2843 -0.7169
   81bbb     C3 2327   3.358   0.220   9.936  0.2373  0.0772 -0.1486
   81bbb     H5 2328   3.349   0.221   9.826 -0.2277  2.2314 -0.1509
   81bbb     H6 2329   3.341   0.321   9.977  2.5474  0.9808 -1.2114
   81bbb     C4 2330   3.251   0.125   9.991  0.1737 -0.5388  0.0154
   81bbb     H7 2331   3.261   0.142  10.099  0.2903 -1.7591  0.2091
   81bbb     H8 2332   3.265   0.018   9.970 -1.4160 -0.6266 -0.7985
   81bbb     C5 2333   3.671   0.108  10.156  0.2412  0.3854 -0.1959
   81bbb     H9 2334   3.673   0.097  10.265  0.9204  1.6485 -0.0597
   81bbb    H10 2335   3.743   0.187  10.131 -0.2407  1.3319  1.2773
   81bbb     C6 2336   3.609   0.231   9.736  0.4648 -0.3019 -0.4390
   81bbb    H11 2337   3.517   0.272   9.691 -0.2986  0.8331  1.9698
   81bbb    H12 2338   3.608   0.123   9.716  2.9078 -0.9879  2.3737
   81bbb     C7 2339   3.105   0.172   9.955 -0.2913 -0.2508 -0.3171
   81bbb    H13 2340   3.030   0.103   9.995  0.3028 -1.6305 -1.4787
   81bbb    H14 2341   3.081   0.172   9.847 -0.0011 -0.3068 -0.3825
   81bbb     C8 2342   3.744   0.301   9.689  0.0493  0.0774 -0.4356
   81bbb    H15 2343   3.754   0.290   9.580  1.9765 -0.3070 -0.2607
   81bbb    H16 2344   3.830   0.251   9.735 -0.5787  0.0752  0.7650
   81bbb     C9 2345   3.716  -0.019  10.088 -0.4405  0.6212  0.6207
   81bbb    H17 2346   3.681   0.003   9.987  0.7849  0.2854  0.1096
   81bbb    H18 2347   3.658  -0.108  10.118 -1.2236  0.9539  0.1311
   81bbb     O1 2348   3.086   0.312  10.002  0.5683 -0.2547  0.0053
   82bbb     N1 2349   1.871   0.571   9.864 -0.3423 -0.2847 -0.3218
   82bbb     C1 2350   1.876   0.519  10.004 -0.4211  0.3868  0.3193
   82bbb     H1 2351   1.973   0.473  10.027 -0.5872  0.5057  1.3074
   82bbb     H2 2352   1.806   0.435  10.008  0.2171 -0.2465 -1.0992
   82bbb     C2 2353   1.844   0.463   9.767  0.7629  0.0483 -0.6373
   82bbb     H3 2354   1.751   0.412   9.795  1.4731 -0.7812  0.3077
   82bbb     H4 2355   1.910   0.375   9.772 -0.0794 -0.5527  0.7881
   82bbb     C3 2356   1.967   0.679   9.826 -0.7925 -0.1579  0.2858
   82bbb     H5 2357   1.952   0.752   9.907 -0.6800  0.3971 -0.1969
   82bbb     H6 2358   1.946   0.712   9.724 -2.1165 -3.2782 -0.5633
   82bbb     C4 2359   2.115   0.627   9.830  0.2162 -0.1275  0.2031
   82bbb     H7 2360   2.127   0.556   9.748 -1.0559 -1.0225  0.7597
   82bbb     H8 2361   2.139   0.570   9.921 -2.5624 -1.9629 -0.0869
   82bbb     C5 2362   1.834   0.631  10.098  0.3291 -1.3935  0.2292
   82bbb     H9 2363   1.735   0.672  10.072  1.2935  0.8139 -0.1599
   82bbb    H10 2364   1.902   0.716  10.091  1.1033 -2.0611 -0.5516
   82bbb     C6 2365   1.839   0.496   9.619  0.4444 -1.0223 -0.4682
   82bbb    H11 2366   1.942   0.490   9.580  0.3049 -1.3623 -0.7922
   82bbb    H12 2367   1.814   0.603   9.615  1.5597 -0.7352 -0.2648
   82bbb     C7 2368   2.220   0.729   9.810  0.5741  0.6601  0.6961
   82bbb    H13 2369   2.200   0.811   9.880 -1.1000  0.9419 -0.0656
   82bbb    H14 2370   2.211   0.774   9.710  2.3186  1.0615  0.6707
   82bbb     C8 2371   1.742   0.405   9.544 -0.0077  0.6923 -0.3041
   82bbb    H15 2372   1.769   0.305   9.580 -0.5590  1.0807  1.2387
   82bbb    H16 2373   1.749   0.415   9.435 -0.0259  0.5294 -0.3212
   82bbb     C9 2374   1.821   0.576  10.241 -0.4613 -0.1446 -0.8782
   82bbb    H17 2375   1.925   0.568  10.276 -0.2479 -0.1877 -1.4963
   82bbb    H18 2376   1.771   0.479  10.235  0.8141 -0.7639 -1.9832
   82bbb     O1 2377   2.352   0.667   9.842  0.5452  0.6351  0.2810
   83bbb     N1 2378   0.828   2.139  11.198  0.6682  0.2826  0.5890
   83bbb     C1 2379   0.932   2.157  11.305  0.3910  0.2206 -0.6846
   83bbb     H1 2380   0.963   2.259  11.332  3.4903 -0.4701 -1.2190
   83bbb     H2 2381   1.022   2.108  11.267  0.2634 -0.1429 -0.5172
   83bbb     C2 2382   0.694   2.172  11.247  0.0076 -0.1229  0.6050
   83bbb     H3 2383   0.678   2.102  11.330  1.7531 -0.0116  1.0720
   83bbb     H4 2384   0.621   2.140  11.171  0.8851 -2.1254  0.5393
   83bbb     C3 2385   0.865   2.193  11.061 -1.1264 -0.0151 -0.4291
   83bbb     H5 2386   0.969   2.161  11.049  0.2339  2.0998  3.7130
   83bbb     H6 2387   0.854   2.302  11.063  1.2116  0.3026 -1.6875
   83bbb     C4 2388   0.789   2.131  10.947  0.4578 -0.1062 -0.1976
   83bbb     H7 2389   0.719   2.203  10.903 -0.0982 -0.1474  0.5881
   83bbb     H8 2390   0.720   2.056  10.989 -0.7041  1.2097  0.3338
   83bbb     C5 2391   0.908   2.080  11.436  0.2840  0.0984  0.2020
   83bbb     H9 2392   0.881   1.976  11.410  1.0736 -0.1056  0.1924
   83bbb    H10 2393   0.831   2.132  11.494 -0.7022 -1.8159  0.7006
   83bbb     C6 2394   0.667   2.317  11.287 -0.0435  0.1790 -0.0081
   83bbb    H11 2395   0.663   2.382  11.199 -1.5204 -0.2630 -0.2910
   83bbb    H12 2396   0.757   2.350  11.341  0.6961  1.4603 -1.9018
   83bbb     C7 2397   0.869   2.061  10.848 -0.4117  0.0628 -0.1951
   83bbb    H13 2398   0.946   2.126  10.805  1.5061 -0.7350  1.8352
   83bbb    H14 2399   0.803   2.018  10.772  0.0790 -0.7795 -0.1628
   83bbb     C8 2400   0.538   2.342  11.371  0.5532  0.0437  0.2082
   83bbb    H15 2401   0.560   2.329  11.478  0.7352 -0.4382  0.1153
   83bbb    H16 2402   0.463   2.265  11.347 -1.0940  0.9558  2.1092
   83bbb     C9 2403   1.029   2.071  11.527 -0.0458  0.1378  0.4765
   83bbb    H17 2404   1.070   2.172  11.537 -4.1235  1.9867  0.5971
   83bbb    H18 2405   1.098   2.007  11.470 -2.4293 -3.8760  1.6567
   83bbb     O1 2406   0.935   1.951  10.918 -0.4157  0.6769 -0.0168
   84bbb     N1 2407   1.384   2.513  11.407  0.4987  0.0374 -0.8166
   84bbb     C1 2408   1.491   2.597  11.469  0.0684 -0.0679  0.2124
   84bbb     H1 2409   1.581   2.593  11.407 -0.5780 -0.9939 -0.7009
   84bbb     H2 2410   1.508   2.553  11.568 -0.8101  0.8558  0.8064
   84bbb     C2 2411   1.311   2.568  11.281 -0.3158  0.3009  0.3634
   84bbb     H3 2412   1.259   2.659  11.314  0.5257  0.3763  1.5452
   84bbb     H4 2413   1.225   2.510  11.247 -1.2008  1.9757 -0.3987
   84bbb     C3 2414   1.423   2.371  11.402 -0.6916 -0.4024  0.5302
   84bbb     H5 2415   1.429   2.341  11.508 -1.1220  1.1935  1.0374
   84bbb     H6 2416   1.521   2.363  11.354 -1.7350 -1.3521 -1.5339
   84bbb     C4 2417   1.321   2.270  11.341  0.3548 -0.5576 -0.0101
   84bbb     H7 2418   1.322   2.287  11.233  1.5472  0.8727  0.1924
   84bbb     H8 2419   1.230   2.296  11.395  0.6734  0.2258  0.1569
   84bbb     C5 2420   1.460   2.747  11.478  0.7247  0.1561  0.3792
   84bbb     H9 2421   1.361   2.749  11.525 -0.5744 -1.8763 -1.9454
   84bbb    H10 2422   1.456   2.796  11.380  2.0870  1.7156  1.0753
   84bbb     C6 2423   1.406   2.615  11.168 -0.4649  0.4825  0.2966
   84bbb    H11 2424   1.443   2.525  11.116  0.4164 -0.2842  2.1541
   84bbb    H12 2425   1.499   2.664  11.200  0.7384 -2.1734  1.1537
   84bbb     C7 2426   1.374   2.131  11.370  0.1699  0.0100 -0.6122
   84bbb    H13 2427   1.364   2.111  11.477 -1.0009  2.4186 -0.2146
   84bbb    H14 2428   1.478   2.117  11.341 -0.2870 -1.2482 -1.7571
   84bbb     C8 2429   1.332   2.715  11.075  0.1385 -0.0439  0.9938
   84bbb    H15 2430   1.230   2.679  11.057 -0.6465  2.6439 -0.5720
   84bbb    H16 2431   1.383   2.715  10.978 -0.8320  0.4753  0.4672
   84bbb     C9 2432   1.558   2.824  11.560 -0.0608  0.6719 -0.0364
   84bbb    H17 2433   1.648   2.764  11.578 -1.1743 -0.8895  0.4715
   84bbb    H18 2434   1.509   2.848  11.655 -1.7023  3.0540 -1.3826
   84bbb     O1 2435   1.286   2.039  11.296 -0.3622  0.3549 -0.8579
   85bbb     N1 2436   2.389   2.011   9.536 -0.1410  0.1800  0.6002
   85bbb     C1 2437   2.320   2.067   9.415 -0.3574 -0.0737  0.5728
   85bbb     H1 2438   2.366   2.165   9.398  0.7576 -0.8944 -1.5877
   85bbb     H2 2439   2.216   2.088   9.442 -0.6086  0.0231 -0.4129
   85bbb     C2 2440   2.532   1.986   9.507 -0.0223  0.1822  0.1254
   85bbb     H3 2441   2.545   1.913   9.426 -0.3191 -0.8665  0.9989
   85bbb     H4 2442   2.583   1.941   9.593  2.8318  0.8220 -1.1146
   85bbb     C3 2443   2.313   1.891   9.584 -0.3539 -0.1998 -0.2924
   85bbb     H5 2444   2.312   1.811   9.509 -0.9691  0.4778 -1.0363
   85bbb     H6 2445   2.213   1.926   9.615  0.2044  2.1321 -0.9609
   85bbb     C4 2446   2.367   1.825   9.714  0.0617 -0.6302  0.7958
   85bbb     H7 2447   2.386   1.902   9.789 -0.2648  1.4984 -1.1912
   85bbb     H8 2448   2.458   1.768   9.691  0.1994 -0.0076 -0.2529
   85bbb     C5 2449   2.336   1.986   9.284  0.7201  0.3339  0.9579
   85bbb     H9 2450   2.288   1.888   9.282 -1.4411  1.3274  0.9151
   85bbb    H10 2451   2.437   1.965   9.247 -0.3716  0.2776 -2.4025
   85bbb     C6 2452   2.611   2.113   9.473 -0.8091  0.0245 -0.8997
   85bbb    H11 2453   2.600   2.188   9.552 -0.6137 -0.0427 -0.8072
   85bbb    H12 2454   2.560   2.155   9.386 -1.3735  1.9015  0.2858
   85bbb     C7 2455   2.258   1.729   9.773  0.3844  0.3660 -0.0735
   85bbb    H13 2456   2.303   1.674   9.856  1.1650 -0.9413 -1.3105
   85bbb    H14 2457   2.234   1.652   9.697 -1.6862  0.0495  0.8291
   85bbb     C8 2458   2.769   2.093   9.449  0.8719 -0.4087 -0.6284
   85bbb    H15 2459   2.817   2.077   9.546 -1.3609  0.2168  0.6561
   85bbb    H16 2460   2.806   2.192   9.417 -0.7332  0.9084  1.3569
   85bbb     C9 2461   2.280   2.069   9.160  0.7647 -1.0535 -1.1162
   85bbb    H17 2462   2.309   2.024   9.064 -0.7901  0.8262 -2.5584
   85bbb    H18 2463   2.328   2.167   9.171  0.0632 -0.8423  0.3370
   85bbb     O1 2464   2.141   1.788   9.824  0.2453  0.0111  0.1566
   86bbb     N1 2465   1.271   2.636   9.757 -0.0604 -0.3158  0.4651
   86bbb     C1 2466   1.144   2.562   9.781 -0.2434 -0.0816 -0.4027
   86bbb     H1 2467   1.152   2.475   9.715 -0.5968 -1.7712  1.6394
   86bbb     H2 2468   1.056   2.622   9.755 -0.7555  1.6223  4.1727
   86bbb     C2 2469   1.274   2.772   9.824  0.1624  0.7945  0.7668
   86bbb     H3 2470   1.347   2.837   9.774 -3.3254  2.8638 -2.0842
   86bbb     H4 2471   1.278   2.753   9.932 -1.2646 -0.9932  0.5572
   86bbb     C3 2472   1.400   2.567   9.758  0.7139  0.0810  0.4208
   86bbb     H5 2473   1.388   2.503   9.669  1.6947 -0.9379  0.9984
   86bbb     H6 2474   1.422   2.508   9.847  0.5651 -1.7430 -0.6876
   86bbb     C4 2475   1.529   2.649   9.728  0.5931 -0.2348 -0.0831
   86bbb     H7 2476   1.541   2.725   9.806  1.9932 -0.0225 -0.4708
   86bbb     H8 2477   1.504   2.706   9.637 -1.5727  0.2832  0.7864
   86bbb     C5 2478   1.134   2.521   9.934  0.1438 -0.5235  0.8191
   86bbb     H9 2479   1.125   2.611   9.996 -2.7397  0.9548 -1.4886
   86bbb    H10 2480   1.221   2.461   9.964  1.4201  0.1786 -1.2493
   86bbb     C6 2481   1.145   2.852   9.800  0.0518 -0.3011  0.2602
   86bbb    H11 2482   1.068   2.807   9.864  0.5121 -1.2435  0.1597
   86bbb    H12 2483   1.117   2.844   9.694  1.5275 -1.4394 -0.0747
   86bbb     C7 2484   1.657   2.568   9.719  0.3012  0.4188 -0.4971
   86bbb    H13 2485   1.742   2.638   9.713  0.3882  0.7400  2.6818
   86bbb    H14 2486   1.664   2.511   9.626  2.8226  0.4399 -0.3897
   86bbb     C8 2487   1.160   3.001   9.833  0.1500  0.3082  0.2415
   86bbb    H15 2488   1.206   3.049   9.745 -0.1437 -0.1694 -0.1804
   86bbb    H16 2489   1.225   3.019   9.920 -1.7453  1.9761  1.3916
   86bbb     C9 2490   1.016   2.434   9.965 -0.4351 -0.5971 -0.0164
   86bbb    H17 2491   1.014   2.342   9.906  0.0926 -0.5074 -0.1821
   86bbb    H18 2492   0.918   2.481   9.955 -0.2787 -0.2075  0.2426
   86bbb     O1 2493   1.660   2.473   9.827  0.4897  0.0163 -0.2975
   87bbb     N1 2494   3.556   3.561  11.357  0.1156 -0.3267  0.0696
   87bbb     C1 2495   3.433   3.514  11.284 -0.4553  0.4962 -0.2788
   87bbb     H1 2496   3.350   3.520  11.356 -0.7871  1.5591 -0.7220
   87bbb     H2 2497   3.450   3.409  11.261  3.2049  1.6413 -4.0327
   87bbb     C2 2498   3.679   3.585  11.277  0.6458  0.3045 -0.3415
   87bbb     H3 2499   3.648   3.634  11.183 -2.4964  0.1457  0.4843
   87bbb     H4 2500   3.716   3.483  11.266 -2.7946 -1.3542  1.7832
   87bbb     C3 2501   3.578   3.475  11.477 -0.2906 -0.1269  0.9129
   87bbb     H5 2502   3.494   3.477  11.548  0.6252  0.0010  2.0063
   87bbb     H6 2503   3.669   3.509  11.528  0.3846  0.3423 -0.5662
   87bbb     C4 2504   3.606   3.323  11.449  0.8203  0.0691 -0.5659
   87bbb     H7 2505   3.681   3.310  11.370 -0.5579 -0.4196 -1.8429
   87bbb     H8 2506   3.510   3.282  11.415 -0.9787  3.0436  0.5261
   87bbb     C5 2507   3.394   3.581  11.157  0.1350  0.0217  0.0485
   87bbb     H9 2508   3.311   3.529  11.108  0.7748 -0.2543 -0.7747
   87bbb    H10 2509   3.478   3.583  11.086 -0.4740 -0.7283 -0.7163
   87bbb     C6 2510   3.778   3.684  11.344 -0.5975 -0.0183 -0.5649
   87bbb    H11 2511   3.873   3.678  11.290  0.0468 -0.7311  0.6199
   87bbb    H12 2512   3.791   3.655  11.449 -1.9051 -0.7928 -0.5949
   87bbb     C7 2513   3.657   3.244  11.571 -0.3573  0.2900  0.1772
   87bbb    H13 2514   3.759   3.271  11.602  0.0812  0.3179 -1.2508
   87bbb    H14 2515   3.662   3.138  11.544  2.9809  0.3866 -0.0050
   87bbb     C8 2516   3.734   3.833  11.349 -0.6045  0.2953 -0.0199
   87bbb    H15 2517   3.649   3.850  11.416 -0.1549  0.7925  0.4261
   87bbb    H16 2518   3.692   3.866  11.254 -1.1118 -0.0251  0.0903
   87bbb     C9 2519   3.348   3.725  11.191 -0.0551 -0.3250 -0.0940
   87bbb    H17 2520   3.435   3.760  11.247  1.3528 -2.7650 -0.5730
   87bbb    H18 2521   3.269   3.737  11.265 -0.5064  0.3770 -0.6758
   87bbb     O1 2522   3.571   3.266  11.682 -0.0566 -0.4152  0.0332
   88bbb     N1 2523   4.491   3.363  12.007  0.6097 -0.0091 -0.7951
   88bbb     C1 2524   4.586   3.341  12.117  0.4311 -0.1078 -0.6314
   88bbb     H1 2525   4.685   3.379  12.091 -0.2522  2.2421 -0.0166
   88bbb     H2 2526   4.599   3.234  12.136 -2.5046 -0.5041 -0.3230
   88bbb     C2 2527   4.526   3.288  11.882 -0.2338 -0.9379 -0.3178
   88bbb     H3 2528   4.452   3.322  11.809 -0.6584 -2.3358 -0.5652
   88bbb     H4 2529   4.510   3.181  11.900  0.9162 -1.0280  0.2633
   88bbb     C3 2530   4.344   3.344  12.048  0.1166  0.0860  0.6463
   88bbb     H5 2531   4.280   3.383  11.968 -1.8817  1.0212  2.5729
   88bbb     H6 2532   4.316   3.412  12.130 -0.2580  0.0435  0.5543
   88bbb     C4 2533   4.309   3.206  12.095  0.5467  0.4415 -0.6327
   88bbb     H7 2534   4.364   3.197  12.190  0.1631 -2.0245 -0.5646
   88bbb     H8 2535   4.344   3.129  12.025  0.6639 -0.4344  0.3615
   88bbb     C5 2536   4.557   3.431  12.243 -0.2053 -0.0594 -0.0395
   88bbb     H9 2537   4.475   3.391  12.305 -0.4379  2.3338  1.3199
   88bbb    H10 2538   4.532   3.531  12.204  0.6283  0.6250  1.1365
   88bbb     C6 2539   4.665   3.320  11.823 -0.1235  0.3325 -0.3391
   88bbb    H11 2540   4.742   3.283  11.891 -0.3203  2.3869  1.0745
   88bbb    H12 2541   4.661   3.430  11.819 -0.8876  0.3067 -0.4241
   88bbb     C7 2542   4.160   3.168  12.130 -0.4195 -0.3277 -0.2238
   88bbb    H13 2543   4.140   3.199  12.233 -3.4207  0.6338 -1.0091
   88bbb    H14 2544   4.155   3.058  12.123 -0.9748 -0.2056 -2.3672
   88bbb     C8 2545   4.702   3.265  11.679 -0.2198 -0.0232  0.9452
   88bbb    H15 2546   4.730   3.159  11.670  2.1908  0.5488  0.7936
   88bbb    H16 2547   4.799   3.306  11.647 -0.7862  0.1586 -0.6530
   88bbb     C9 2548   4.683   3.450  12.328  1.0158 -0.7687  0.4511
   88bbb    H17 2549   4.657   3.501  12.421  0.0924  0.2081 -0.3125
   88bbb    H18 2550   4.743   3.517  12.265  1.0557 -1.4172 -0.2230
   88bbb     O1 2551   4.072   3.219  12.030 -0.6814 -0.6456 -0.7951
   89bbb     N1 2552   2.740   2.634  12.588  0.5064  0.7929  0.1618
   89bbb     C1 2553   2.703   2.762  12.522 -0.4071  0.2423  0.6070
   89bbb     H1 2554   2.598   2.762  12.489 -0.7194  1.6920  1.5195
   89bbb     H2 2555   2.758   2.769  12.428 -2.2697 -0.7615 -0.6390
   89bbb     C2 2556   2.710   2.519  12.493 -0.6809 -0.0422  0.3879
   89bbb     H3 2557   2.780   2.525  12.409 -1.6347 -1.4199 -0.5508
   89bbb     H4 2558   2.607   2.534  12.458 -0.0256  2.2181 -0.7783
   89bbb     C3 2559   2.678   2.608  12.720  0.4967 -0.5354 -0.2357
   89bbb     H5 2560   2.704   2.692  12.786  2.7612 -1.8330  0.5994
   89bbb     H6 2561   2.716   2.517  12.768 -0.8935 -0.4282  1.1882
   89bbb     C4 2562   2.525   2.600  12.739  0.3898  0.5745  0.1015
   89bbb     H7 2563   2.482   2.541  12.657  0.9869 -0.5988  0.6112
   89bbb     H8 2564   2.485   2.702  12.742 -1.1390 -0.0131  0.6339
   89bbb     C5 2565   2.726   2.894  12.598  0.2585 -0.1524 -0.5160
   89bbb     H9 2566   2.663   2.901  12.687  3.0957 -1.6873  1.7820
   89bbb    H10 2567   2.697   2.973  12.527  0.9394 -1.3786 -2.2223
   89bbb     C6 2568   2.728   2.377  12.561 -0.1042 -0.1977 -0.2253
   89bbb    H11 2569   2.651   2.353  12.635  2.5780  0.7103  3.1268
   89bbb    H12 2570   2.827   2.380  12.609  0.2557 -1.6225 -0.8098
   89bbb     C7 2571   2.479   2.539  12.878  0.4935  0.0776  0.2048
   89bbb    H13 2572   2.371   2.523  12.864  0.3472  1.7157 -0.7083
   89bbb    H14 2573   2.499   2.597  12.968 -1.4524  0.1327  0.6478
   89bbb     C8 2574   2.744   2.267  12.464 -0.7165 -0.2616  0.1752
   89bbb    H15 2575   2.764   2.170  12.513  0.9430 -2.3212 -4.0804
   89bbb    H16 2576   2.837   2.288  12.409  0.4391 -1.2933  1.6358
   89bbb     C9 2577   2.872   2.931  12.633  0.1781  0.7263 -0.1680
   89bbb    H17 2578   2.931   2.926  12.541 -0.0163 -0.2211 -0.2521
   89bbb    H18 2579   2.927   2.858  12.694 -0.2146 -0.1736 -0.8686
   89bbb     O1 2580   2.536   2.405  12.887  0.0330  0.5542  0.0540
   90bbb     N1 2581   3.306   1.622  12.812  0.2630  0.4609  0.1210
   90bbb     C1 2582   3.206   1.514  12.851 -0.5887  0.4530 -0.1244
   90bbb     H1 2583   3.102   1.541  12.831 -0.2747  0.6975 -1.4822
   90bbb     H2 2584   3.216   1.492  12.959  0.9039 -2.6641 -0.7780
   90bbb     C2 2585   3.457   1.600  12.810 -0.5628 -0.5113 -0.4295
   90bbb     H3 2586   3.480   1.510  12.751  0.7933 -0.8079  0.5033
   90bbb     H4 2587   3.497   1.583  12.911 -1.3770  0.3351  0.0465
   90bbb     C3 2588   3.260   1.750  12.861 -0.3168  0.3778  0.6228
   90bbb     H5 2589   3.154   1.758  12.836  0.3512  1.5525 -2.2634
   90bbb     H6 2590   3.315   1.825  12.802 -0.5123 -0.2587 -0.3961
   90bbb     C4 2591   3.293   1.772  13.008  0.1273  0.6437  0.6925
   90bbb     H7 2592   3.402   1.776  13.020  0.2620  2.2049 -0.6623
   90bbb     H8 2593   3.263   1.683  13.065  0.7101 -1.1367 -1.6310
   90bbb     C5 2594   3.231   1.373  12.792  0.0012 -0.7709  0.4526
   90bbb     H9 2595   3.327   1.330  12.822  0.4901 -0.0576 -0.0559
   90bbb    H10 2596   3.245   1.387  12.684 -0.4134  0.6825  0.5704
   90bbb     C6 2597   3.536   1.728  12.750  0.0688  0.1631  0.6923
   90bbb    H11 2598   3.543   1.811  12.821 -0.3834 -0.9765  2.1103
   90bbb    H12 2599   3.477   1.765  12.666 -1.2239 -0.8777  1.1130
   90bbb     C7 2600   3.231   1.900  13.062  0.5562 -0.7615  0.6535
   90bbb    H13 2601   3.257   1.989  13.004 -0.0796 -0.1572  1.2754
   90bbb    H14 2602   3.267   1.915  13.164  0.2495 -0.6415  0.7480
   90bbb     C8 2603   3.671   1.709  12.685 -0.3762  0.1544  0.4821
   90bbb    H15 2604   3.711   1.809  12.666 -0.7912  0.0585 -0.9970
   90bbb    H16 2605   3.676   1.659  12.588 -0.3066 -0.2027  0.6635
   90bbb     C9 2606   3.110   1.276  12.817 -0.9162  0.5282 -0.2341
   90bbb    H17 2607   3.065   1.330  12.901  0.2319  1.8601 -0.4319
   90bbb    H18 2608   3.156   1.179  12.837 -2.3060 -0.2357 -0.6437
   90bbb     O1 2609   3.094   1.880  13.052 -0.2775 -0.6226 -0.3328
   91bbb     N1 2610   2.562   3.316  11.068  0.2635  0.5735 -0.4626
   91bbb     C1 2611   2.568   3.384  11.202  0.2085  1.2616 -1.2495
   91bbb     H1 2612   2.663   3.357  11.248 -1.0646 -0.6790  0.4328
   91bbb     H2 2613   2.482   3.346  11.259  0.3207 -1.0090 -2.4744
   91bbb     C2 2614   2.654   3.372  10.964 -0.4926 -0.0382  0.5618
   91bbb     H3 2615   2.661   3.481  10.974 -2.6463  0.1524  0.4643
   91bbb     H4 2616   2.624   3.346  10.861  2.7514 -0.5539 -0.3558
   91bbb     C3 2617   2.561   3.176  11.084  0.2128  0.5871  0.2539
   91bbb     H5 2618   2.488   3.149  11.161 -0.7737 -0.9575 -1.1586
   91bbb     H6 2619   2.658   3.152  11.129  0.1321  0.4107  0.3322
   91bbb     C4 2620   2.536   3.092  10.953  1.1075  0.6184 -0.3618
   91bbb     H7 2621   2.622   3.087  10.885 -0.1863 -0.6681 -1.9894
   91bbb     H8 2622   2.462   3.152  10.900 -0.6410 -2.0710 -1.1707
   91bbb     C5 2623   2.560   3.545  11.189  0.2420 -0.2923 -0.2892
   91bbb     H9 2624   2.481   3.582  11.122 -0.3831  1.9147  1.5570
   91bbb    H10 2625   2.649   3.587  11.140  0.0935  0.5011  0.1154
   91bbb     C6 2626   2.801   3.321  10.971 -0.3612  0.7044  0.2098
   91bbb    H11 2627   2.801   3.212  10.954 -1.1386  0.5472  1.1055
   91bbb    H12 2628   2.831   3.329  11.077  0.1097  2.4358 -0.0389
   91bbb     C7 2629   2.470   2.950  10.971  0.9370  0.2632 -0.1223
   91bbb    H13 2630   2.535   2.881  11.026  1.9575 -0.4271 -2.1050
   91bbb    H14 2631   2.456   2.900  10.875  0.8985  1.3420 -0.6879
   91bbb     C8 2632   2.893   3.383  10.867 -0.0723  0.3442  0.0637
   91bbb    H15 2633   2.985   3.323  10.872  0.9226  1.4727 -2.7673
   91bbb    H16 2634   2.911   3.488  10.893 -2.7300  1.2552 -1.3568
   91bbb     C9 2635   2.553   3.608  11.328 -0.0637  0.5243  0.3815
   91bbb    H17 2636   2.566   3.716  11.322  1.7363  0.2756 -1.4213
   91bbb    H18 2637   2.641   3.575  11.385  0.1765 -0.4915 -0.5344
   91bbb     O1 2638   2.347   2.968  11.042 -0.2451 -0.0926  0.0570
   92bbb     N1 2639   2.834   3.195  12.000 -0.5024  0.0819  0.0391
   92bbb     C1 2640   2.875   3.343  11.999 -0.0485  0.3876 -0.0736
   92bbb     H1 2641   2.962   3.348  11.932  1.8339 -0.0108  2.1982
   92bbb     H2 2642   2.920   3.356  12.098 -0.0806 -1.6219  0.2380
   92bbb     C2 2643   2.883   3.125  12.120 -0.2773  0.2220 -0.6296
   92bbb     H3 2644   2.990   3.106  12.109  0.1552  0.7043  2.1325
   92bbb     H4 2645   2.828   3.031  12.108 -0.3586  0.3684 -1.4807
   92bbb     C3 2646   2.865   3.128  11.879 -0.6911 -0.0107  0.4686
   92bbb     H5 2647   2.963   3.080  11.871 -0.4899  0.5242 -0.3331
   92bbb     H6 2648   2.845   3.199  11.798 -1.0238  1.1848  1.5625
   92bbb     C4 2649   2.753   3.022  11.858  0.3380  0.2618  0.4662
   92bbb     H7 2650   2.752   2.940  11.930  2.0196 -1.5857 -1.4759
   92bbb     H8 2651   2.769   2.964  11.766 -0.9925  0.6945 -0.0678
   92bbb     C5 2652   2.763   3.432  11.970  0.3429  0.5281 -0.1832
   92bbb     H9 2653   2.676   3.401  12.029  0.9060 -1.2963 -0.2472
   92bbb    H10 2654   2.725   3.418  11.868 -1.2981 -3.0348  0.7808
   92bbb     C6 2655   2.854   3.181  12.267  0.1767 -1.2784 -0.5790
   92bbb    H11 2656   2.908   3.275  12.282 -1.0901 -0.3352 -1.6666
   92bbb    H12 2657   2.895   3.111  12.341 -1.5117  0.6237  2.3788
   92bbb     C7 2658   2.608   3.086  11.841 -0.1406 -0.7628  0.3094
   92bbb    H13 2659   2.611   3.158  11.759  1.7824 -0.5918  0.4981
   92bbb    H14 2660   2.571   3.135  11.932  1.7607  0.9634  0.2141
   92bbb     C8 2661   2.716   3.218  12.303 -0.0959 -0.6307  0.1851
   92bbb    H15 2662   2.650   3.130  12.296 -0.8879  0.0722 -2.2876
   92bbb    H16 2663   2.679   3.282  12.222  0.3415 -1.4464 -0.6866
   92bbb     C9 2664   2.800   3.579  11.991 -0.0631 -0.1893  0.6816
   92bbb    H17 2665   2.887   3.606  11.931 -0.5074 -2.4477 -1.1067
   92bbb    H18 2666   2.816   3.585  12.100 -3.5531  1.9201  1.2454
   92bbb     O1 2667   2.524   2.980  11.802  0.3591  0.1850  0.0724
   93bbb     N1 2668   2.198   1.451  13.156 -0.2089  0.5892  0.5949
   93bbb     C1 2669   2.211   1.536  13.285  0.2465  0.7336  0.7187
   93bbb     H1 2670   2.200   1.644  13.269 -0.8914  0.4183 -0.8539
   93bbb     H2 2671   2.315   1.525  13.316 -0.3837 -0.3355  2.6074
   93bbb     C2 2672   2.233   1.308  13.185 -0.1718  0.4092 -0.4802
   93bbb     H3 2673   2.153   1.251  13.233  1.2759 -0.2535  1.3008
   93bbb     H4 2674   2.320   1.316  13.252  0.7258 -2.5585 -1.1630
   93bbb     C3 2675   2.080   1.470  13.073 -0.7837  0.3507  0.2039
   93bbb     H5 2676   1.995   1.419  13.119  0.6653 -1.4176  1.0983
   93bbb     H6 2677   2.097   1.412  12.982  1.3866  0.8901  0.2001
   93bbb     C4 2678   2.061   1.616  13.019 -0.2611 -0.0718 -0.4727
   93bbb     H7 2679   2.157   1.650  12.980  0.1900  0.3794  0.9826
   93bbb     H8 2680   2.047   1.679  13.108 -1.4649 -1.4513  0.3664
   93bbb     C5 2681   2.107   1.492  13.398  0.6411  0.3389  0.3121
   93bbb     H9 2682   2.140   1.401  13.449 -2.0795 -0.6628  0.4545
   93bbb    H10 2683   2.012   1.465  13.350  0.1666  1.3958  0.6034
   93bbb     C6 2684   2.293   1.225  13.062 -0.2191  0.1481  0.0600
   93bbb    H11 2685   2.385   1.267  13.022 -0.2261  1.9245  1.7913
   93bbb    H12 2686   2.219   1.226  12.980 -1.7962 -1.6204  1.3753
   93bbb     C7 2687   1.954   1.641  12.918 -0.4975  0.1692 -0.6328
   93bbb    H13 2688   1.857   1.632  12.969  0.5808 -2.2172  1.1678
   93bbb    H14 2689   1.965   1.563  12.842 -2.3507 -1.6126  0.8134
   93bbb     C8 2690   2.316   1.072  13.088 -1.4450  0.1309  0.5478
   93bbb    H15 2691   2.219   1.023  13.103 -1.0974 -0.1015  2.1745
   93bbb    H16 2692   2.377   1.069  13.179 -2.1671 -1.1267  1.0094
   93bbb     C9 2693   2.075   1.603  13.503  0.2473  0.4355 -0.1267
   93bbb    H17 2694   2.004   1.562  13.576  0.1825  3.0591  1.4095
   93bbb    H18 2695   2.039   1.696  13.455 -0.3294  1.7311  2.6105
   93bbb     O1 2696   1.990   1.771  12.866  0.4612 -0.2759  0.2621
   94bbb     N1 2697   2.175   2.984  13.095 -0.0578 -0.3495  0.3519
   94bbb     C1 2698   2.167   3.110  13.163 -0.0500  1.0839 -0.5854
   94bbb     H1 2699   2.169   3.196  13.095  0.7020  0.4669 -1.3670
   94bbb     H2 2700   2.249   3.117  13.236  0.6874 -0.5574 -1.2029
   94bbb     C2 2701   2.315   2.953  13.052  0.0314  0.4148  0.0927
   94bbb     H3 2702   2.336   2.846  13.036  0.7380  0.4356  0.7995
   94bbb     H4 2703   2.395   2.978  13.124  0.1408 -2.5828  1.1656
   94bbb     C3 2704   2.064   2.973  12.994  0.8971 -0.1916 -0.8558
   94bbb     H5 2705   2.071   3.049  12.915 -0.0141 -0.7701 -1.5174
   94bbb     H6 2706   1.969   2.994  13.045  0.6537  1.0574 -1.7546
   94bbb     C4 2707   2.060   2.831  12.926 -0.0739  0.1311 -0.2170
   94bbb     H7 2708   2.161   2.811  12.889 -0.6379 -1.3985 -1.0089
   94bbb     H8 2709   1.996   2.843  12.837 -2.2490 -1.1577  1.0862
   94bbb     C5 2710   2.039   3.122  13.253  0.0325  0.6839 -0.5691
   94bbb     H9 2711   1.996   3.022  13.266  1.0285 -0.0217 -2.3157
   94bbb    H10 2712   1.954   3.161  13.196  0.4086 -0.9302 -2.3309
   94bbb     C6 2713   2.363   3.039  12.930 -0.5636  0.4654 -0.3548
   94bbb    H11 2714   2.350   3.145  12.957 -0.6500  0.4273 -0.2441
   94bbb    H12 2715   2.322   3.008  12.834 -0.1091  0.8294 -0.6702
   94bbb     C7 2716   2.025   2.714  13.016  0.2648  0.0588  0.0340
   94bbb    H13 2717   1.920   2.724  13.046  0.6107 -0.1196  1.3617
   94bbb    H14 2718   2.092   2.701  13.102  0.4208  0.2029 -0.0647
   94bbb     C8 2719   2.513   3.006  12.910 -0.3616 -0.6545 -0.3528
   94bbb    H15 2720   2.535   3.038  12.807  1.4876 -0.1850  0.1655
   94bbb    H16 2721   2.524   2.897  12.903 -2.1261 -0.8725 -0.2916
   94bbb     C9 2722   2.055   3.198  13.388 -1.0598 -0.2431 -0.6002
   94bbb    H17 2723   2.133   3.151  13.449 -1.1757 -0.8677 -0.9229
   94bbb    H18 2724   1.962   3.178  13.443  0.1973 -1.0207  1.3429
   94bbb     O1 2725   2.022   2.589  12.945  0.4170 -0.8285 -0.5425
   95ccc     C1 2726   4.269   0.164  11.924  0.1208 -0.2417 -0.3441
   95ccc     C2 2727   4.166   0.237  12.012  0.0392  0.5116  0.1660
   95ccc     H1 2728   4.364   0.215  11.944 -0.3931  0.7286 -0.2934
   95ccc     H2 2729   4.202   0.233  12.116 -1.9050 -0.1869  0.8657
   95ccc     C3 2730   4.155   0.382  11.968 -0.1031 -0.5755 -0.0557
   95ccc     C4 2731   4.126   0.403  11.819 -0.6180  0.2330  0.9919
   95ccc     C5 2732   4.227   0.322  11.734 -0.5354 -0.2223  0.4015
   95ccc     H3 2733   4.029   0.359  11.793 -0.4553  0.1466  0.5179
   95ccc     H4 2734   4.254   0.424  11.993 -1.2063  1.5124  1.0820
   95ccc     H5 2735   4.330   0.359  11.734 -0.2837 -0.8864  1.5057
   95ccc     O1 2736   4.190   0.318  11.592  0.4951  0.2823  0.3741
   95ccc     O2 2737   4.130   0.546  11.786 -0.2186 -0.7652  0.6673
   95ccc     O3 2738   4.058   0.461  12.043  0.2071  0.1809  0.5390
   95ccc     O4 2739   4.052   0.162  11.990 -0.1395  0.2984  0.7104
   95ccc     C6 2740   4.289   0.011  11.954 -0.4395 -0.3587 -0.4539
   95ccc     H6 2741   3.974   0.430  12.006  0.8689  0.6747 -1.5428
   95ccc     H7 2742   4.087   0.080  11.950 -2.1489 -0.7276  0.9402
   95ccc     H8 2743   4.049   0.582  11.826 -0.6127  1.3311 -1.7529
   95ccc     H9 2744   4.320   0.005  12.059  0.1621  0.8787 -0.5423
   95ccc    H10 2745   4.370  -0.022  11.888  1.0473  0.5367  0.8447
   95ccc     O5 2746   4.160  -0.057  11.923 -0.0178  0.4152  0.6671
   95ccc    H11 2747   4.171  -0.134  11.982  0.8583  1.2819  1.6765
   95ccc     O6 2748   4.236   0.188  11.785  0.7265  0.5995 -0.5617
   96ccc     C1 2749   4.969  -0.288  11.169  0.5055 -0.3477  0.2174
   96ccc     C2 2750   5.050  -0.192  11.080 -0.0363  0.5791 -0.5100
   96ccc     H1 2751   4.979  -0.389  11.126  1.7368 -0.1840  0.1092
   96ccc     H2 2752   5.153  -0.228  11.075  0.4519  2.0508 -2.0190
   96ccc     C3 2753   4.988  -0.168  10.935  0.2205  0.0197  0.3580
   96ccc     C4 2754   4.829  -0.160  10.931 -0.0766 -0.1942  0.0475
   96ccc     C5 2755   4.764  -0.249  11.037  1.1568 -0.9824  0.2762
   96ccc     H3 2756   4.802  -0.060  10.967 -0.4286 -0.3709  0.2858
   96ccc     H4 2757   5.011  -0.257  10.875 -1.0015 -1.6294  2.1958
   96ccc     H5 2758   4.777  -0.353  11.002  1.6926 -1.5035  1.9270
   96ccc     O1 2759   4.621  -0.215  11.057  0.7093 -0.5330 -0.1254
   96ccc     O2 2760   4.776  -0.188  10.797  0.2693  0.5951 -0.5862
   96ccc     O3 2761   5.034  -0.039  10.883  0.5427 -0.1408  0.3069
   96ccc     O4 2762   5.049  -0.064  11.144 -0.1738  0.1692 -0.3221
   96ccc     C6 2763   5.018  -0.296  11.317  0.3769  0.4740  0.1222
   96ccc     H6 2764   5.113  -0.051  10.827 -0.2112 -2.9491 -0.3521
   96ccc     H7 2765   5.031  -0.003  11.071 -0.6977 -1.5694 -1.6939
   96ccc     H8 2766   4.847  -0.168  10.733 -0.3131  0.4954 -1.2841
   96ccc     H9 2767   4.971  -0.215  11.374 -0.6628  0.5650 -0.8246
   96ccc    H10 2768   5.123  -0.275  11.341  0.3929  0.6316 -0.0908
   96ccc     O5 2769   4.980  -0.430  11.364  0.6875 -0.7035 -0.4750
   96ccc    H11 2770   4.992  -0.435  11.460 -1.5649 -0.2781 -0.1043
   96ccc     O6 2771   4.829  -0.239  11.162  0.5871 -0.2545 -0.7796
   97ccc     C1 2772   3.568   0.949  10.313 -0.6080  0.1871 -0.0751
   97ccc     C2 2773   3.489   1.070  10.265  0.8849  0.5414  0.1458
   97ccc     H1 2774   3.644   0.937  10.235 -0.8528  1.2026 -0.4870
   97ccc     H2 2775   3.563   1.150  10.251 -0.0973  2.3097  3.8129
   97ccc     C3 2776   3.423   1.041  10.124  0.1757 -0.3043  0.4013
   97ccc     C4 2777   3.352   0.905  10.128 -0.4809  0.4150 -0.8857
   97ccc     C5 2778   3.449   0.794  10.186 -0.7543 -0.4283  0.2607
   97ccc     H3 2779   3.277   0.919  10.206 -0.3582  1.9230 -1.0097
   97ccc     H4 2780   3.497   1.035  10.043 -1.4764 -0.2930 -1.1814
   97ccc     H5 2781   3.532   0.766  10.121 -1.2441 -2.5620  0.4888
   97ccc     O1 2782   3.360   0.680  10.193  0.1679 -0.1235  0.1323
   97ccc     O2 2783   3.298   0.862  10.001 -0.2357 -0.0415  0.1617
   97ccc     O3 2784   3.326   1.142  10.097 -0.3315  0.8542 -0.7559
   97ccc     O4 2785   3.390   1.117  10.358 -0.3688 -0.3131 -0.2491
   97ccc     C6 2786   3.646   0.978  10.446  0.1311 -0.2371  0.2611
   97ccc     H6 2787   3.302   1.129  10.004 -2.1410  0.9492 -0.3385
   97ccc     H7 2788   3.339   1.181  10.306 -2.0004 -2.2371 -1.1444
   97ccc     H8 2789   3.243   0.783  10.013 -0.6136  0.1704 -0.1687
   97ccc     H9 2790   3.705   1.067  10.423 -1.2118  0.3153 -1.2754
   97ccc    H10 2791   3.711   0.896  10.478 -0.0759 -0.5111 -0.0142
   97ccc     O5 2792   3.550   1.008  10.548 -0.5198 -0.0799  0.3879
   97ccc    H11 2793   3.477   1.032  10.489  0.3132 -0.0567 -0.6520
   97ccc     O6 2794   3.500   0.829  10.322  0.0435  0.0542  0.1051
   98ccc     C1 2795   3.477   0.971  10.902 -0.2092  0.0600  0.4191
   98ccc     C2 2796   3.431   0.916  11.034  1.2707 -0.1396  0.2627
   98ccc     H1 2797   3.468   1.080  10.905 -0.0488  0.0573  1.8727
   98ccc     H2 2798   3.496   0.953  11.115  1.1152  0.6325  0.0482
   98ccc     C3 2799   3.283   0.939  11.060 -0.1721  0.1430  0.0549
   98ccc     C4 2800   3.190   0.898  10.941  0.5052  0.1131  0.9176
   98ccc     C5 2801   3.247   0.930  10.797 -0.5991 -0.1511 -0.8020
   98ccc     H3 2802   3.178   0.789  10.946 -1.5925  0.1973 -0.8376
   98ccc     H4 2803   3.255   1.045  11.057 -1.2935 -0.0291  2.0877
   98ccc     H5 2804   3.210   1.032  10.781  0.2191  0.5741  1.4835
   98ccc     O1 2805   3.189   0.845  10.699 -0.2538  0.0830 -0.1993
   98ccc     O2 2806   3.061   0.955  10.965 -0.0850  0.0199  0.1446
   98ccc     O3 2807   3.253   0.872  11.181 -0.0799 -0.7781  0.1658
   98ccc     O4 2808   3.453   0.773  11.035 -0.4608  0.5475 -0.0675
   98ccc     C6 2809   3.621   0.922  10.861  0.0214 -0.3053 -0.9418
   98ccc     H6 2810   3.307   0.920  11.246 -1.5302  1.0180  0.1423
   98ccc     H7 2811   3.456   0.759  11.132  0.7411 -1.8346 -0.3630
   98ccc     H8 2812   3.000   0.889  10.929  2.0341 -1.6099 -0.6368
   98ccc     H9 2813   3.612   0.820  10.822 -3.5980 -1.0819  1.5092
   98ccc    H10 2814   3.690   0.907  10.945  1.2428  0.4031 -1.7818
   98ccc     O5 2815   3.676   1.010  10.767  0.2823 -0.4096  0.2683
   98ccc    H11 2816   3.624   1.003  10.685 -0.3937 -0.1436  0.6699
   98ccc     O6 2817   3.394   0.923  10.796  0.2983  0.0903  0.4670
   99ccc     C1 2818   5.101   0.224  12.545 -0.9194  0.2759  0.0657
   99ccc     C2 2819   5.006   0.110  12.585 -0.5594  0.1256 -0.8163
   99ccc     H1 2820   5.063   0.319  12.586 -1.5652  0.6718 -1.3867
   99ccc     H2 2821   5.001   0.110  12.694  2.3421 -2.4442 -0.5336
   99ccc     C3 2822   4.866   0.149  12.528 -0.0753 -1.0478 -0.5332
   99ccc     C4 2823   4.874   0.196  12.380 -0.0128 -0.1677 -0.1281
   99ccc     C5 2824   4.997   0.286  12.344  0.2785  0.0963  0.6677
   99ccc     H3 2825   4.884   0.112  12.311  0.1627  1.2382 -1.8939
   99ccc     H4 2826   4.827   0.224  12.598  0.8685 -1.7204  0.7625
   99ccc     H5 2827   4.979   0.388  12.381 -0.3679 -0.2429  1.3079
   99ccc     O1 2828   5.003   0.293  12.198 -0.1079 -0.1562 -0.0272
   99ccc     O2 2829   4.746   0.264  12.344 -0.4080  0.6453 -0.1232
   99ccc     O3 2830   4.766   0.043  12.544  0.2271 -0.3496  0.3657
   99ccc     O4 2831   5.051  -0.014  12.530 -0.1366  0.1197  0.5807
   99ccc     C6 2832   5.241   0.212  12.608 -1.1348 -0.1826  0.0165
   99ccc     H6 2833   4.765   0.010  12.636  0.3249  0.6624  0.7418
   99ccc     H7 2834   4.987  -0.079  12.564 -0.4779  1.0009  1.6528
   99ccc     H8 2835   4.697   0.184  12.320  1.3236 -0.4838 -0.0603
   99ccc     H9 2836   5.246   0.239  12.714 -1.5427 -1.4795  0.3854
   99ccc    H10 2837   5.304   0.288  12.559  0.0486 -0.9775  0.2641
   99ccc     O5 2838   5.287   0.084  12.579  0.2808  0.4658 -0.0071
   99ccc    H11 2839   5.203   0.042  12.555  0.5591  0.0049 -0.2071
   99ccc     O6 2840   5.110   0.229  12.403 -0.2369 -1.0438  0.2186
  100ccc     C1 2841   5.259  -0.461  11.618  0.1963  0.0251  0.1831
  100ccc     C2 2842   5.393  -0.539  11.642 -0.3046  0.1280 -0.0946
  100ccc     H1 2843   5.251  -0.467  11.509  0.7023 -1.1757  0.1929
  100ccc     H2 2844   5.396  -0.624  11.573 -0.5986  0.2594 -0.2688
  100ccc     C3 2845   5.517  -0.456  11.602  0.2910 -0.1909 -0.1484
  100ccc     C4 2846   5.514  -0.309  11.651  0.0719 -0.0868 -0.4391
  100ccc     C5 2847   5.382  -0.241  11.608  0.0706 -0.5955 -0.9049
  100ccc     H3 2848   5.510  -0.319  11.761  1.0757  2.4601 -0.0801
  100ccc     H4 2849   5.521  -0.463  11.493 -0.5369 -1.3501 -0.1211
  100ccc     H5 2850   5.380  -0.224  11.499  1.7277  2.0921 -0.6109
  100ccc     O1 2851   5.363  -0.112  11.673 -0.5549 -0.4547  0.5673
  100ccc     O2 2852   5.633  -0.236  11.607 -0.3480 -0.3486 -0.0251
  100ccc     O3 2853   5.633  -0.526  11.645 -0.3079  0.3848  0.0481
  100ccc     O4 2854   5.400  -0.591  11.780 -0.5675 -0.4577  0.1536
  100ccc     C6 2855   5.142  -0.534  11.672  0.7322  0.1392 -0.5701
  100ccc     H6 2856   5.688  -0.468  11.701 -1.2395 -0.6368  2.1103
  100ccc     H7 2857   5.485  -0.636  11.794 -2.0081 -3.2487  0.7757
  100ccc     H8 2858   5.694  -0.216  11.680  0.7830  4.1040 -1.8422
  100ccc     H9 2859   5.136  -0.547  11.780  1.2804 -0.4450 -0.6071
  100ccc    H10 2860   5.134  -0.634  11.628  0.7089  0.0848 -0.4427
  100ccc     O5 2861   5.031  -0.460  11.632 -0.3131  0.1312  0.6164
  100ccc    H11 2862   5.040  -0.379  11.685  1.9512 -0.5170  1.3312
  100ccc     O6 2863   5.271  -0.321  11.656  0.3523  0.6645 -0.3752
  101ccc     C1 2864   4.404  -0.729  11.673  0.9829 -0.6064 -0.0037
  101ccc     C2 2865   4.257  -0.777  11.642  0.1577  0.2237  0.5621
  101ccc     H1 2866   4.423  -0.764  11.775 -0.5380 -0.4161  0.3805
  101ccc     H2 2867   4.249  -0.885  11.655 -2.2775  0.3854  0.9063
  101ccc     C3 2868   4.161  -0.708  11.738  0.2638  0.4749  0.4460
  101ccc     C4 2869   4.171  -0.549  11.719 -0.1138 -0.1822 -0.7721
  101ccc     C5 2870   4.324  -0.488  11.735  0.5025  0.0592 -0.0926
  101ccc     H3 2871   4.143  -0.532  11.614  1.9130  2.1925 -1.0411
  101ccc     H4 2872   4.190  -0.721  11.843  1.1795  3.4444  0.6466
  101ccc     H5 2873   4.350  -0.480  11.841 -0.4264 -0.8514  0.2193
  101ccc     O1 2874   4.326  -0.364  11.668 -0.4946  0.2371  0.1492
  101ccc     O2 2875   4.079  -0.483  11.813 -0.1677 -0.3617  0.1228
  101ccc     O3 2876   4.019  -0.751  11.720 -0.3462 -0.1153  0.0109
  101ccc     O4 2877   4.222  -0.735  11.508  0.4049 -0.4457 -0.3074
  101ccc     C6 2878   4.508  -0.789  11.581 -0.5721 -0.5957  0.3323
  101ccc     H6 2879   4.027  -0.847  11.721  0.0937 -0.0770  0.6307
  101ccc     H7 2880   4.128  -0.759  11.498 -0.8561  3.3805  0.5810
  101ccc     H8 2881   3.987  -0.502  11.787  0.0320 -1.3376  0.0830
  101ccc     H9 2882   4.527  -0.894  11.606  0.0153 -0.3308  1.0108
  101ccc    H10 2883   4.595  -0.726  11.604 -1.8320  1.0587  0.7343
  101ccc     O5 2884   4.475  -0.769  11.445  0.3757  0.3835 -0.0503
  101ccc    H11 2885   4.379  -0.763  11.462  0.1762 -2.6699  0.4380
  101ccc     O6 2886   4.419  -0.575  11.669 -0.5510  0.8842 -0.2249
  102ccc     C1 2887   4.740  -0.437  12.084  0.2980 -1.0991 -0.3546
  102ccc     C2 2888   4.600  -0.499  12.122 -0.5856  0.0671  0.4426
  102ccc     H1 2889   4.796  -0.419  12.177 -1.0047  1.6403 -0.0267
  102ccc     H2 2890   4.607  -0.590  12.184 -2.7083  0.1190  0.8204
  102ccc     C3 2891   4.526  -0.392  12.207 -0.0268 -0.5395 -0.2593
  102ccc     C4 2892   4.517  -0.258  12.130  0.4759  0.2734  0.2297
  102ccc     C5 2893   4.655  -0.215  12.076 -0.0574 -0.2399 -0.2933
  102ccc     H3 2894   4.452  -0.286  12.046  0.0087 -1.4546  1.1063
  102ccc     H4 2895   4.595  -0.363  12.288 -0.8398  3.3152 -0.7242
  102ccc     H5 2896   4.717  -0.192  12.163 -0.7335 -2.1959  0.7733
  102ccc     O1 2897   4.626  -0.102  11.989  0.0223  0.6355 -0.1199
  102ccc     O2 2898   4.449  -0.161  12.211 -0.0376  0.5118  0.2763
  102ccc     O3 2899   4.402  -0.447  12.263 -0.7465 -0.1188  0.1238
  102ccc     O4 2900   4.524  -0.528  12.006 -0.0245  0.2283 -0.6182
  102ccc     C6 2901   4.826  -0.533  12.005  0.2644  0.0341 -0.3879
  102ccc     H6 2902   4.338  -0.437  12.190  0.3021 -1.0531 -0.9587
  102ccc     H7 2903   4.434  -0.549  12.036  0.6279 -0.7575  0.7240
  102ccc     H8 2904   4.362  -0.198  12.236  0.4999 -0.4418  0.7561
  102ccc     H9 2905   4.836  -0.624  12.066 -1.2175  0.3095  0.3206
  102ccc    H10 2906   4.926  -0.490  11.994  0.8959 -0.1586  3.1649
  102ccc     O5 2907   4.752  -0.568  11.893 -0.7528  0.2529  0.0654
  102ccc    H11 2908   4.658  -0.555  11.917 -0.7722  0.7111 -0.2360
  102ccc     O6 2909   4.731  -0.314  12.008 -0.0444 -0.0884  0.1235
  103ccc     C1 2910   5.851   1.556   9.431 -0.0754  0.1634  0.2770
  103ccc     C2 2911   5.705   1.528   9.475 -0.0986 -0.3769  0.2620
  103ccc     H1 2912   5.860   1.656   9.389  0.9670  0.1690  0.4952
  103ccc     H2 2913   5.660   1.611   9.531 -2.1820 -1.4106  0.2044
  103ccc     C3 2914   5.614   1.520   9.356 -0.0979  0.1946  0.3674
  103ccc     C4 2915   5.663   1.415   9.263  0.1143  0.4320  0.3683
  103ccc     C5 2916   5.806   1.436   9.215 -0.2675  0.0571  0.2935
  103ccc     H3 2917   5.650   1.317   9.310 -1.2417 -1.0444 -2.7953
  103ccc     H4 2918   5.607   1.618   9.307  1.0198  0.1280  0.0450
  103ccc     H5 2919   5.813   1.520   9.144  3.9088  1.0481  1.6031
  103ccc     O1 2920   5.862   1.318   9.148  0.2722 -0.0288 -0.1325
  103ccc     O2 2921   5.579   1.421   9.147 -0.0353  0.4377  0.5056
  103ccc     O3 2922   5.478   1.486   9.397 -0.0753 -0.4516 -0.0996
  103ccc     O4 2923   5.704   1.416   9.560  0.3600 -0.0672  0.6740
  103ccc     C6 2924   5.952   1.557   9.551  0.0663 -0.2706 -0.8883
  103ccc     H6 2925   5.407   1.511   9.336 -0.2242  1.1601  0.6967
  103ccc     H7 2926   5.629   1.362   9.529  0.1374  1.7558 -2.4186
  103ccc     H8 2927   5.501   1.365   9.164  1.3694 -2.6145 -2.1182
  103ccc     H9 2928   5.985   1.455   9.572  0.8323 -0.2655 -2.0040
  103ccc    H10 2929   5.908   1.604   9.640 -0.3395 -1.6853 -0.3292
  103ccc     O5 2930   6.054   1.639   9.501 -0.6127 -0.1969 -0.4600
  103ccc    H11 2931   6.088   1.595   9.422  1.3173  0.6992 -0.1855
  103ccc     O6 2932   5.894   1.463   9.327  0.5483 -0.2253  0.6023
  104ccc     C1 2933   6.299   0.584   9.910  0.5174 -0.1695 -0.0680
  104ccc     C2 2934   6.205   0.611  10.030 -0.2808 -0.4724 -0.3632
  104ccc     H1 2935   6.401   0.611   9.942  0.8044 -0.8147 -0.4190
  104ccc     H2 2936   6.236   0.542  10.110 -1.0072 -1.5970 -1.0181
  104ccc     C3 2937   6.207   0.762  10.072 -0.2477  0.8265  0.4987
  104ccc     C4 2938   6.193   0.860   9.949  0.2618  0.6126 -0.1975
  104ccc     C5 2939   6.268   0.809   9.819  0.3842  0.7705 -0.6766
  104ccc     H3 2940   6.087   0.860   9.920  0.1548 -0.4911  0.1408
  104ccc     H4 2941   6.306   0.784  10.115  0.0197 -2.2097  1.6371
  104ccc     H5 2942   6.374   0.838   9.824  0.5964 -0.1031  0.1134
  104ccc     O1 2943   6.210   0.870   9.694 -0.4628  0.6278  0.0382
  104ccc     O2 2944   6.223   0.997   9.976 -0.9742 -0.1034 -0.2063
  104ccc     O3 2945   6.111   0.796  10.166 -0.0020 -0.3470 -0.3706
  104ccc     O4 2946   6.067   0.579  10.001  0.0223 -0.6528  0.0914
  104ccc     C6 2947   6.304   0.431   9.867 -0.2706 -0.6022 -1.1262
  104ccc     H6 2948   6.123   0.734  10.241 -0.1044  0.3986  0.2793
  104ccc     H7 2949   6.014   0.630  10.065  1.8889  1.5663  0.0220
  104ccc     H8 2950   6.200   1.025  10.066 -0.7940  2.5571 -0.9037
  104ccc     H9 2951   6.213   0.408   9.810 -1.7187  1.8460  0.0603
  104ccc    H10 2952   6.304   0.364   9.954 -1.5367  0.2589 -0.4452
  104ccc     O5 2953   6.425   0.421   9.793 -0.6451  0.0427 -0.0603
  104ccc    H11 2954   6.450   0.327   9.802  0.0837 -0.1549 -3.0663
  104ccc     O6 2955   6.254   0.669   9.801 -0.2817 -0.1710  0.4242
  105ccc     C1 2956   4.038   0.287   9.487 -0.2052  0.1041  0.6253
  105ccc     C2 2957   3.963   0.342   9.366 -0.0507 -0.1736  0.1238
  105ccc     H1 2958   3.961   0.277   9.565  1.5336  2.1926  2.7767
  105ccc     H2 2959   3.877   0.278   9.340 -1.3962  1.1637  1.0551
  105ccc     C3 2960   3.906   0.483   9.392  0.8660  0.6317 -0.0545
  105ccc     C4 2961   4.018   0.571   9.447  0.2526  0.1497 -0.1459
  105ccc     C5 2962   4.093   0.509   9.564 -0.8373 -0.7424 -0.1541
  105ccc     H3 2963   4.088   0.596   9.366 -0.5392  2.9154 -0.1022
  105ccc     H4 2964   3.843   0.468   9.481  1.8901 -0.1045  0.5699
  105ccc     H5 2965   4.035   0.512   9.657 -0.1145  1.5957  0.2904
  105ccc     O1 2966   4.206   0.599   9.587  0.2435  0.3442  0.2207
  105ccc     O2 2967   3.963   0.700   9.483 -0.1715  0.3911  0.2632
  105ccc     O3 2968   3.852   0.541   9.272 -0.2384  0.0506  0.4949
  105ccc     O4 2969   4.054   0.356   9.257  0.7654 -0.2113  0.1461
  105ccc     C6 2970   4.108   0.156   9.460 -0.2483 -0.2586 -0.5700
  105ccc     H6 2971   3.789   0.606   9.309 -0.5415  1.3706 -2.1085
  105ccc     H7 2972   4.008   0.419   9.200 -3.0314 -0.5081  2.5704
  105ccc     H8 2973   4.007   0.705   9.570  1.4825 -1.6540 -0.3539
  105ccc     H9 2974   4.027   0.087   9.434 -0.6067 -0.9156  1.9719
  105ccc    H10 2975   4.162   0.128   9.552 -1.3964  2.0858  0.9073
  105ccc     O5 2976   4.198   0.167   9.352 -0.3554  0.0140 -0.0245
  105ccc    H11 2977   4.157   0.247   9.314  0.4970  1.3349  1.6635
  105ccc     O6 2978   4.144   0.379   9.531  0.1606 -0.2139  0.1845
  106ccc     C1 2979   4.049   1.301   9.433  0.1562 -0.0627 -0.4920
  106ccc     C2 2980   3.938   1.256   9.526  0.3911 -0.5015 -0.4046
  106ccc     H1 2981   4.013   1.346   9.339  1.8308 -0.1048 -1.1908
  106ccc     H2 2982   3.875   1.343   9.550  1.1284 -0.3906  1.3330
  106ccc     C3 2983   3.850   1.138   9.475  0.3527 -0.1098 -0.8148
  106ccc     C4 2984   3.947   1.020   9.430  0.4127 -0.0160  0.1847
  106ccc     C5 2985   4.048   1.082   9.322 -0.8280 -0.2315 -0.1767
  106ccc     H3 2986   4.008   1.005   9.520 -0.1927 -0.2140  0.5643
  106ccc     H4 2987   3.795   1.168   9.384 -0.0259  0.5579 -0.3789
  106ccc     H5 2988   3.997   1.126   9.236 -1.1890 -0.1025  0.1028
  106ccc     O1 2989   4.140   0.983   9.276  0.4015  0.4964 -0.3955
  106ccc     O2 2990   3.873   0.905   9.376  0.2123  0.1548  0.3290
  106ccc     O3 2991   3.756   1.105   9.587  0.0722 -0.0521 -0.5135
  106ccc     O4 2992   3.989   1.211   9.658 -0.4022  0.4372 -0.9120
  106ccc     C6 2993   4.131   1.409   9.496 -0.1634 -0.1284 -1.0121
  106ccc     H6 2994   3.718   1.017   9.568  1.4302 -0.4819 -1.3281
  106ccc     H7 2995   3.905   1.192   9.703  0.0032 -0.7920 -0.6339
  106ccc     H8 2996   3.915   0.828   9.418  0.6405 -0.2545 -0.8154
  106ccc     H9 2997   4.061   1.484   9.534  0.5448 -0.0034  0.0817
  106ccc    H10 2998   4.198   1.451   9.420 -1.5736 -1.6114 -3.2166
  106ccc     O5 2999   4.204   1.353   9.602 -0.4095 -0.2311  0.3121
  106ccc    H11 3000   4.143   1.285   9.635  1.2048 -1.1187  1.6329
  106ccc     O6 3001   4.126   1.188   9.388  0.1413  0.8214 -0.2838
  107ccc     C1 3002   5.162   1.526  11.318 -0.4017  0.3604 -0.1194
  107ccc     C2 3003   5.169   1.390  11.474 -1.3869 -0.1250  0.7100
  107ccc     H1 3004   5.064   1.572  11.334 -2.2597 -1.8848 -3.6242
  107ccc     H2 3005   5.077   1.406  11.533 -1.1166 -1.8431  1.6498
  107ccc     C3 3006   5.181   1.200  11.433 -0.8895 -0.7174 -1.0186
  107ccc     C4 3007   5.195   1.138  11.237  1.0395 -0.0508  0.5596
  107ccc     C5 3008   5.174   1.271  11.089  0.3145 -0.3149  0.0025
  107ccc     H3 3009   5.293   1.093  11.215  0.7203 -0.9328  0.8779
  107ccc     H4 3010   5.097   1.153  11.484  1.6985 -2.9918  1.4801
  107ccc     H5 3011   5.074   1.253  11.048  0.2115 -0.6983  0.4183
  107ccc     O1 3012   5.267   1.259  10.976 -0.2938 -0.0658 -0.0323
  107ccc     O2 3013   5.106   1.023  11.207  0.0365 -0.2463  0.0799
  107ccc     O3 3014   5.296   1.144  11.505 -0.1766 -0.3437  0.2413
  107ccc     O4 3015   5.271   1.437  11.560  0.3590 -0.0129 -0.3142
  107ccc     C6 3016   5.256   1.645  11.328  0.1807 -0.5134  0.1269
  107ccc     H6 3017   5.265   1.052  11.515  0.3561 -0.3821  1.7351
  107ccc     H7 3018   5.257   1.375  11.634 -1.7528 -2.4800 -2.5980
  107ccc     H8 3019   5.126   0.960  11.278 -1.7028  0.3782  1.1821
  107ccc     H9 3020   5.358   1.622  11.295 -0.5967 -1.9472 -1.4327
  107ccc    H10 3021   5.254   1.705  11.420 -0.5797 -0.1985 -0.0843
  107ccc     O5 3022   5.196   1.719  11.218  0.0065  0.2121 -0.3843
  107ccc    H11 3023   5.195   1.642  11.159  0.3943 -2.4056  2.7652
  107ccc     O6 3024   5.170   1.457  11.142  0.7650 -0.1394  0.0789
  108ccc     C1 3025   4.910   2.161  10.912 -0.0524  0.4337 -0.3368
  108ccc     C2 3026   4.895   2.199  11.061  0.2272  0.5212  0.1362
  108ccc     H1 3027   4.812   2.116  10.893 -1.0335  1.2848  2.1880
  108ccc     H2 3028   4.812   2.270  11.065  0.0028  0.2551  0.1515
  108ccc     C3 3029   4.868   2.075  11.154  0.4714 -0.1017  0.0196
  108ccc     C4 3030   4.981   1.981  11.131  0.0349 -0.5580 -0.5203
  108ccc     C5 3031   4.988   1.943  10.985 -0.6346  0.0331 -0.1237
  108ccc     H3 3032   5.078   2.028  11.150  0.4765 -1.7538  0.3412
  108ccc     H4 3033   4.775   2.034  11.112  0.6514  1.5648 -2.2093
  108ccc     H5 3034   4.893   1.899  10.953 -0.3054 -0.0157 -1.0685
  108ccc     O1 3035   5.094   1.845  10.966  0.1989  0.3272  0.1548
  108ccc     O2 3036   4.971   1.863  11.220  0.1065 -0.2223  0.7111
  108ccc     O3 3037   4.852   2.126  11.293 -0.5204 -0.2502  0.5613
  108ccc     O4 3038   5.010   2.272  11.111 -0.0847  0.1232  0.6011
  108ccc     C6 3039   4.935   2.286  10.823 -0.5310  0.0095 -0.1273
  108ccc     H6 3040   4.886   2.054  11.349 -1.0096  1.0676  2.6907
  108ccc     H7 3041   4.994   2.283  11.206 -0.0785 -0.2824  0.6511
  108ccc     H8 3042   5.052   1.815  11.196  0.5355  1.2115 -0.9070
  108ccc     H9 3043   5.031   2.332  10.849 -0.1519 -0.4207 -0.7260
  108ccc    H10 3044   4.853   2.359  10.831  0.3354  1.2392 -1.7423
  108ccc     O5 3045   4.941   2.249  10.685 -0.3216  0.3816 -0.0349
  108ccc    H11 3046   5.024   2.199  10.688 -0.7215 -0.3287  2.7929
  108ccc     O6 3047   5.019   2.064  10.905  0.2429  0.1090 -0.1310
  109ccc     C1 3048   5.199   0.684  11.348  0.4889 -0.3364 -0.1926
  109ccc     C2 3049   5.348   0.647  11.367 -0.3031 -0.3327  0.1070
  109ccc     H1 3050   5.142   0.590  11.354  0.2374 -0.1122  1.0379
  109ccc     H2 3051   5.364   0.587  11.457  1.6377  0.9304  0.6754
  109ccc     C3 3052   5.401   0.563  11.243 -0.5968 -0.5909 -0.8705
  109ccc     C4 3053   5.365   0.623  11.105 -0.5139  0.1128 -0.1692
  109ccc     C5 3054   5.219   0.668  11.105 -0.1258  1.3737 -0.5962
  109ccc     H3 3055   5.415   0.720  11.087 -0.1743 -0.2187 -1.1074
  109ccc     H4 3056   5.366   0.460  11.254  0.4439 -0.8152  0.5492
  109ccc     H5 3057   5.154   0.581  11.123  1.2081  0.7768  1.6841
  109ccc     O1 3058   5.183   0.734  10.984  0.5192  0.0945  0.2793
  109ccc     O2 3059   5.398   0.523  11.004 -0.2508  0.4610 -0.5822
  109ccc     O3 3060   5.549   0.568  11.249 -0.4347 -0.7860 -0.3101
  109ccc     O4 3061   5.433   0.758  11.369  0.3302 -0.1751 -0.1596
  109ccc     C6 3062   5.144   0.776  11.454 -0.4585 -0.0448 -0.8932
  109ccc     H6 3063   5.585   0.514  11.177  2.3648  0.3331  0.1287
  109ccc     H7 3064   5.509   0.709  11.334  0.3660 -0.4872  0.3441
  109ccc     H8 3065   5.385   0.576  10.924  0.2833 -0.2256 -1.1409
  109ccc     H9 3066   5.138   0.720  11.548  0.3530  1.4847  0.1075
  109ccc    H10 3067   5.043   0.817  11.440 -0.3909  0.6754  0.5209
  109ccc     O5 3068   5.229   0.892  11.458 -0.2570 -0.2669  0.5886
  109ccc    H11 3069   5.315   0.862  11.425 -0.0369  1.0338 -0.0921
  109ccc     O6 3070   5.186   0.747  11.221  0.4952  0.1509  0.4773
  110ccc     C1 3071   5.293   0.878   9.804 -0.2424  0.1021 -0.4991
  110ccc     C2 3072   5.345   0.732   9.781 -0.0371 -0.2495  0.1108
  110ccc     H1 3073   5.376   0.947   9.782  0.7453 -0.9440 -0.1164
  110ccc     H2 3074   5.387   0.719   9.681 -2.2310 -0.1258 -0.8921
  110ccc     C3 3075   5.452   0.699   9.880  0.3427  0.2961 -0.0109
  110ccc     C4 3076   5.413   0.723  10.033 -0.4374 -0.6116 -0.4339
  110ccc     C5 3077   5.356   0.871  10.043 -0.5079  0.5256 -0.2615
  110ccc     H3 3078   5.329   0.657  10.057 -0.3465 -0.5805 -0.0352
  110ccc     H4 3079   5.543   0.759   9.866 -1.0482  2.3580 -0.6660
  110ccc     H5 3080   5.436   0.943  10.023  2.0390 -2.2104 -0.6118
  110ccc     O1 3081   5.299   0.886  10.176  0.3304  0.7881  0.0586
  110ccc     O2 3082   5.520   0.703  10.126  0.4642  0.0593 -0.0004
  110ccc     O3 3083   5.486   0.560   9.869 -0.8269  0.3315  0.2591
  110ccc     O4 3084   5.241   0.637   9.786  0.2251 -0.8586 -0.3177
  110ccc     C6 3085   5.173   0.907   9.716 -0.3490  0.8897  0.8193
  110ccc     H6 3086   5.521   0.548   9.779  1.7196 -0.8573  1.3128
  110ccc     H7 3087   5.267   0.544   9.799 -0.1181 -0.9091  0.0084
  110ccc     H8 3088   5.576   0.777  10.097 -1.6694  1.9248  0.4053
  110ccc     H9 3089   5.087   0.846   9.744  0.2636 -0.2854  0.1956
  110ccc    H10 3090   5.189   0.870   9.614 -0.9047  0.4118  0.9051
  110ccc     O5 3091   5.155   1.047   9.707 -0.7993  0.8028  0.1168
  110ccc    H11 3092   5.121   1.080   9.792 -1.7448  1.2021 -0.4028
  110ccc     O6 3093   5.254   0.903   9.945 -0.1012 -0.0596  0.9190
  111ccc     C1 3094   0.961   2.629  10.964 -0.6340  1.0498 -0.1347
  111ccc     C2 3095   0.830   2.617  10.876  0.0365 -0.7224 -0.7249
  111ccc     H1 3096   1.023   2.710  10.924  0.4765  0.2495 -0.0942
  111ccc     H2 3097   0.783   2.716  10.865  0.6339 -0.3462 -0.0458
  111ccc     C3 3098   0.859   2.560  10.739 -0.6066 -0.2656  1.1396
  111ccc     C4 3099   0.952   2.437  10.731  0.0703 -0.3163 -0.7459
  111ccc     C5 3100   1.072   2.459  10.831 -0.5631  0.5429  0.7582
  111ccc     H3 3101   0.897   2.349  10.767 -0.0804  0.7903  1.9846
  111ccc     H4 3102   0.907   2.642  10.684  1.0306 -0.2630  2.4752
  111ccc     H5 3103   1.134   2.539  10.790  0.0572 -0.3358 -0.0504
  111ccc     O1 3104   1.148   2.332  10.838  0.1409 -0.1190 -0.0930
  111ccc     O2 3105   1.006   2.418  10.598  0.3942 -0.2300  0.3180
  111ccc     O3 3106   0.737   2.529  10.665  0.8841 -0.5592  0.4210
  111ccc     O4 3107   0.738   2.531  10.945 -0.5521  0.2619  0.3573
  111ccc     C6 3108   0.954   2.655  11.111 -0.4052 -0.8102 -0.4628
  111ccc     H6 3109   0.766   2.480  10.585  0.9772 -1.3732  0.9442
  111ccc     H7 3110   0.771   2.541  11.035  1.6629 -2.8006  0.0320
  111ccc     H8 3111   0.935   2.392  10.537 -0.8161  0.3535  1.4272
  111ccc     H9 3112   0.928   2.761  11.123 -0.6468 -0.8353 -0.7679
  111ccc    H10 3113   1.049   2.646  11.166 -1.0102 -0.7062  0.6325
  111ccc     O5 3114   0.857   2.578  11.175  0.2511 -0.1569 -0.1612
  111ccc    H11 3115   0.874   2.593  11.270  0.6398 -1.6325  0.0408
  111ccc     O6 3116   1.025   2.503  10.959  0.1257 -0.0673  0.5296
  112ccc     C1 3117   1.774   1.820  11.419  0.4183 -0.2721 -0.0854
  112ccc     C2 3118   1.714   1.850  11.560  0.0012 -0.2034 -0.1102
  112ccc     H1 3119   1.883   1.832  11.429  0.3251 -0.0028  0.7208
  112ccc     H2 3120   1.745   1.765  11.622  0.1336  1.1725  1.8058
  112ccc     C3 3121   1.758   1.995  11.598 -0.5611 -0.2286 -0.1518
  112ccc     C4 3122   1.717   2.104  11.490 -0.9859 -0.0264  0.2623
  112ccc     C5 3123   1.753   2.052  11.348 -0.4171 -0.5739  0.1490
  112ccc     H3 3124   1.613   2.138  11.499 -0.5515  2.2206 -1.9384
  112ccc     H4 3125   1.867   1.982  11.598 -0.5907 -0.7270 -2.1989
  112ccc     H5 3126   1.862   2.056  11.338 -0.3843 -1.9315 -0.2925
  112ccc     O1 3127   1.706   2.138  11.244 -0.3802 -0.1926 -0.0924
  112ccc     O2 3128   1.800   2.222  11.518 -0.6073 -0.3696 -0.8214
  112ccc     O3 3129   1.703   2.033  11.726  0.7974 -0.1935  0.0384
  112ccc     O4 3130   1.571   1.845  11.550 -0.3933  0.2713 -0.0664
  112ccc     C6 3131   1.745   1.675  11.367  0.5138  0.1317 -0.7300
  112ccc     H6 3132   1.607   2.032  11.711  0.7559  0.7018  0.2154
  112ccc     H7 3133   1.573   1.774  11.483  0.9986 -0.3350  0.5788
  112ccc     H8 3134   1.744   2.272  11.580  0.8568  0.8422 -0.4359
  112ccc     H9 3135   1.800   1.603  11.428  2.9602  1.8820 -0.6983
  112ccc    H10 3136   1.779   1.675  11.262 -2.8039  0.3056 -1.9202
  112ccc     O5 3137   1.605   1.648  11.376 -0.5065 -0.0030  0.3326
  112ccc    H11 3138   1.583   1.574  11.317  0.6502  0.6965 -1.0278
  112ccc     O6 3139   1.721   1.913  11.326  0.7978 -0.3048  0.0551
  113ccc     C1 3140   2.769   1.030  11.159 -0.0597 -0.0444  0.1776
  113ccc     C2 3141   2.869   1.070  11.269  0.0829  0.3060 -0.5099
  113ccc     H1 3142   2.827   1.027  11.066 -1.6225  1.6702 -0.9171
  113ccc     H2 3143   2.946   0.993  11.259 -0.4361 -0.0582 -1.9284
  113ccc     C3 3144   2.940   1.205  11.241  0.2343 -0.1356 -0.2167
  113ccc     C4 3145   2.833   1.316  11.205  0.6287  0.3459 -0.0056
  113ccc     C5 3146   2.728   1.267  11.099 -0.2825  0.1292  0.1371
  113ccc     H3 3147   2.778   1.336  11.298  1.3626  0.1369  0.4735
  113ccc     H4 3148   3.000   1.176  11.154  1.2092 -0.7501  0.6303
  113ccc     H5 3149   2.778   1.260  11.002  0.2246  2.3101  0.1968
  113ccc     O1 3150   2.612   1.355  11.102 -0.1145 -0.4738 -0.2670
  113ccc     O2 3151   2.904   1.428  11.155  0.6327  0.3051  0.1445
  113ccc     O3 3152   3.026   1.252  11.353  0.4269  0.1893  0.3533
  113ccc     O4 3153   2.809   1.068  11.401  0.3149 -0.4449 -0.2533
  113ccc     C6 3154   2.721   0.893  11.178  0.0922  0.0666 -0.3349
  113ccc     H6 3155   2.974   1.198  11.416 -0.0857 -0.0173 -0.2404
  113ccc     H7 3156   2.732   1.011  11.383 -0.2107  0.6291 -1.5313
  113ccc     H8 3157   2.836   1.473  11.101 -0.3489 -0.4499  0.7347
  113ccc     H9 3158   2.798   0.816  11.166 -1.2615 -1.1231 -1.8036
  113ccc    H10 3159   2.659   0.881  11.089  0.5122  0.9288 -0.7530
  113ccc     O5 3160   2.646   0.868  11.303  0.2775 -0.0815 -0.2358
  113ccc    H11 3161   2.559   0.900  11.274  0.1598  0.2340  0.4649
  113ccc     O6 3162   2.677   1.136  11.147  0.2170  0.3187  0.1146
  114ccc     C1 3163   1.923   1.167  11.692 -0.2714 -0.0068 -0.1777
  114ccc     C2 3164   1.881   1.254  11.812  0.6623  0.4358 -0.1145
  114ccc     H1 3165   2.031   1.153  11.702 -0.2362 -0.6637 -1.3419
  114ccc     H2 3166   1.919   1.198  11.899  2.3499  3.5357  1.3202
  114ccc     C3 3167   1.952   1.397  11.806 -0.0578  0.0890 -0.2502
  114ccc     C4 3168   1.933   1.471  11.669  0.1697 -0.1819  0.6853
  114ccc     C5 3169   1.980   1.372  11.560  0.1505 -0.1403 -0.1890
  114ccc     H3 3170   1.828   1.498  11.650 -0.0240 -2.6117 -2.5040
  114ccc     H4 3171   2.060   1.380  11.815 -0.3471 -1.0959  1.7308
  114ccc     H5 3172   2.089   1.368  11.575  0.1276 -0.3967 -0.0827
  114ccc     O1 3173   1.983   1.424  11.426 -0.0625  0.1369  0.8209
  114ccc     O2 3174   2.015   1.594  11.663 -0.2243 -0.2392 -0.5982
  114ccc     O3 3175   1.909   1.487  11.915  0.8209  0.6199 -0.2472
  114ccc     O4 3176   1.738   1.264  11.810 -0.1065 -0.7473 -0.0110
  114ccc     C6 3177   1.850   1.026  11.684 -0.3334 -0.2983  0.0004
  114ccc     H6 3178   1.812   1.483  11.911  0.8185 -1.4294  0.3997
  114ccc     H7 3179   1.717   1.180  11.767 -0.6752  0.4963 -2.2974
  114ccc     H8 3180   1.976   1.663  11.720  3.1414 -0.4967  2.3561
  114ccc     H9 3181   1.901   0.955  11.751 -1.1106 -1.0497 -0.1886
  114ccc    H10 3182   1.867   0.979  11.587 -0.9686 -0.1444 -0.1879
  114ccc     O5 3183   1.717   1.030  11.724  1.1390  0.3947 -0.3040
  114ccc    H11 3184   1.685   0.939  11.738 -1.1843  1.4339  1.9313
  114ccc     O6 3185   1.902   1.249  11.571 -0.2672  0.2003 -0.0600
  115ccc     C1 3186   2.073   0.593   9.240 -0.3014  0.1702  0.3393
  115ccc     C2 3187   2.021   0.563   9.106 -0.0965 -0.1738  0.7172
  115ccc     H1 3188   2.055   0.496   9.289  0.1682 -0.1379 -0.0942
  115ccc     H2 3189   2.055   0.466   9.067  1.3733  0.8826 -0.7783
  115ccc     C3 3190   1.872   0.562   9.103  0.1769  0.0058  0.4804
  115ccc     C4 3191   1.811   0.681   9.175  0.2446  0.9132 -0.6764
  115ccc     C5 3192   1.860   0.675   9.322  0.1578 -0.6021  1.0085
  115ccc     H3 3193   1.848   0.775   9.134  2.4805  1.7068  2.7578
  115ccc     H4 3194   1.846   0.473   9.160  0.8174  0.5636  1.6789
  115ccc     H5 3195   1.835   0.577   9.364 -1.8797  0.2904  1.9999
  115ccc     O1 3196   1.804   0.777   9.422 -0.1013 -0.5045 -0.1766
  115ccc     O2 3197   1.664   0.670   9.158  0.0101  0.5348  0.5530
  115ccc     O3 3198   1.824   0.563   8.970  0.3549  0.2203 -0.3182
  115ccc     O4 3199   2.080   0.656   9.020 -0.5538  0.0577 -0.3934
  115ccc     C6 3200   2.224   0.603   9.259 -0.0266  0.3962  0.1438
  115ccc     H6 3201   1.865   0.642   8.929  1.8956 -0.7560 -0.7440
  115ccc     H7 3202   2.085   0.627   8.927 -0.4093  0.1314 -0.4103
  115ccc     H8 3203   1.661   0.621   9.074 -1.3806  2.0032 -0.3033
  115ccc     H9 3204   2.285   0.518   9.227 -1.8768 -1.7993  2.0804
  115ccc    H10 3205   2.250   0.599   9.366  0.4245 -1.6488  0.0058
  115ccc     O5 3206   2.273   0.721   9.195  0.4578  0.1967  0.4486
  115ccc    H11 3207   2.198   0.713   9.134 -0.9414  1.0679  1.9420
  115ccc     O6 3208   1.999   0.691   9.319  0.1665  0.1484  0.1188
  116ccc     C1 3209   1.392   1.485   9.114 -0.7354 -0.0902  0.1996
  116ccc     C2 3210   1.462   1.545   8.990  1.3366  0.0308 -0.0124
  116ccc     H1 3211   1.313   1.551   9.149 -3.2216 -2.1522 -1.2148
  116ccc     H2 3212   1.390   1.581   8.915 -0.0949 -1.7647  0.4118
  116ccc     C3 3213   1.564   1.656   9.041  0.2647  0.1313 -1.2357
  116ccc     C4 3214   1.656   1.608   9.156  0.2793 -0.4848 -0.2371
  116ccc     C5 3215   1.579   1.533   9.275  0.3313  0.4808  0.2543
  116ccc     H3 3216   1.734   1.547   9.107 -0.2233 -0.8934 -0.5318
  116ccc     H4 3217   1.505   1.737   9.086 -0.3401 -1.2410  0.5697
  116ccc     H5 3218   1.532   1.604   9.345  1.7524  0.5625  1.1600
  116ccc     O1 3219   1.671   1.457   9.354 -0.3912  0.1388  0.2572
  116ccc     O2 3220   1.718   1.734   9.201 -0.4965 -0.3828  0.7706
  116ccc     O3 3221   1.640   1.704   8.929 -0.0038  0.0314 -0.3831
  116ccc     O4 3222   1.533   1.441   8.928 -0.3863 -0.6237 -0.3522
  116ccc     C6 3223   1.302   1.361   9.092  0.3498 -0.3099  0.9397
  116ccc     H6 3224   1.722   1.738   8.970 -0.3726  0.3028  0.1433
  116ccc     H7 3225   1.599   1.494   8.880 -1.5259  0.2290 -1.0337
  116ccc     H8 3226   1.784   1.720   9.272  0.8295  1.5789  0.0043
  116ccc     H9 3227   1.359   1.267   9.086 -1.7617 -1.5879 -0.4815
  116ccc    H10 3228   1.257   1.361   8.992  0.7473  0.3970  0.7550
  116ccc     O5 3229   1.196   1.360   9.186  0.8622  0.2504 -0.3008
  116ccc    H11 3230   1.155   1.272   9.178 -1.3128  1.2238 -0.4697
  116ccc     O6 3231   1.484   1.442   9.224 -0.9675 -0.8884  0.0924
  117ccc     C1 3232   1.448   0.844  11.216  0.2120 -0.1931 -0.4066
  117ccc     C2 3233   1.308   0.787  11.204  0.2489 -0.3216 -0.5873
  117ccc     H1 3234   1.445   0.921  11.137 -0.0403  1.8301  1.4907
  117ccc     H2 3235   1.230   0.864  11.203 -1.1068 -1.6301  0.4584
  117ccc     C3 3236   1.286   0.722  11.065  0.3116 -0.4467 -0.3274
  117ccc     C4 3237   1.389   0.614  11.045 -0.9888  0.0769  0.1233
  117ccc     C5 3238   1.532   0.673  11.059  0.1152  0.0175  0.2965
  117ccc     H3 3239   1.381   0.535  11.121  1.5599  1.5130  2.0513
  117ccc     H4 3240   1.298   0.799  10.988 -0.3512 -0.8319 -0.8324
  117ccc     H5 3241   1.555   0.743  10.978 -0.3152  0.3574  0.4641
  117ccc     O1 3242   1.629   0.558  11.061 -0.0311  0.3863  0.5846
  117ccc     O2 3243   1.368   0.570  10.906 -0.0268  0.2336 -0.7963
  117ccc     O3 3244   1.151   0.668  11.043 -0.9461 -0.1176  0.4363
  117ccc     O4 3245   1.293   0.681  11.298  0.5009  0.2143 -0.5507
  117ccc     C6 3246   1.478   0.895  11.354  0.2157  0.7253  0.3395
  117ccc     H6 3247   1.173   0.574  11.051  2.1736  0.5413  0.9044
  117ccc     H7 3248   1.200   0.691  11.324  1.1272  1.4849  1.4867
  117ccc     H8 3249   1.401   0.479  10.916  0.4570  0.5274  0.5019
  117ccc     H9 3250   1.493   0.815  11.428 -0.2255  0.4812  0.1744
  117ccc    H10 3251   1.387   0.945  11.392  0.1955 -0.4759  1.9757
  117ccc     O5 3252   1.585   0.976  11.344 -0.3465  0.0702 -0.1780
  117ccc    H11 3253   1.665   0.921  11.348 -0.5527 -0.4692 -2.3437
  117ccc     O6 3254   1.551   0.747  11.184  0.1640  0.6949 -0.0951
  118ccc     C1 3255   2.906   0.602  10.963  0.1524 -0.5862  0.6872
  118ccc     C2 3256   3.009   0.490  10.991  0.2945  0.2157 -0.5108
  118ccc     H1 3257   2.904   0.682  11.038 -0.3431 -0.7540  0.8604
  118ccc     H2 3258   3.105   0.536  11.014  0.0676  0.1119  0.6737
  118ccc     C3 3259   2.969   0.390  11.105  0.4955  0.5487 -0.0963
  118ccc     C4 3260   2.818   0.344  11.094 -0.3047 -0.4505 -0.3224
  118ccc     C5 3261   2.723   0.460  11.061  0.1210 -0.6541  0.7204
  118ccc     H3 3262   2.820   0.269  11.013 -0.0528 -1.3403  0.4954
  118ccc     H4 3263   2.976   0.445  11.200 -1.5830  2.2730 -0.8464
  118ccc     H5 3264   2.714   0.525  11.148  0.7047  2.6093 -1.4847
  118ccc     O1 3265   2.589   0.415  11.027  0.0150  0.0241  0.1013
  118ccc     O2 3266   2.781   0.281  11.222  0.7837  0.1421 -1.0507
  118ccc     O3 3267   3.070   0.285  11.082 -0.1183 -0.1615 -0.0935
  118ccc     O4 3268   3.024   0.427  10.864 -0.2743  0.0164  0.1744
  118ccc     C6 3269   2.929   0.682  10.830 -0.1099 -0.3598  0.0490
  118ccc     H6 3270   3.068   0.269  10.986 -0.9898 -1.4133  0.1068
  118ccc     H7 3271   3.120   0.436  10.850 -0.4025 -1.7594 -2.6243
  118ccc     H8 3272   2.843   0.206  11.217  1.1565  0.2283  1.0636
  118ccc     H9 3273   2.893   0.639  10.736  1.5058  1.5270 -1.5242
  118ccc    H10 3274   3.035   0.690  10.804 -0.7715  0.4827 -2.7022
  118ccc     O5 3275   2.876   0.815  10.850  0.2306 -0.7939 -0.6211
  118ccc    H11 3276   2.797   0.821  10.795 -0.2029  0.2155  0.0981
  118ccc     O6 3277   2.774   0.533  10.945  0.3646 -0.5453  0.2324
  119ccc     C1 3278   1.315   2.528  10.375  0.4907  0.1238 -0.3029
  119ccc     C2 3279   1.219   2.640  10.334  0.5654 -0.4168 -0.6677
  119ccc     H1 3280   1.251   2.444  10.406 -0.5883  1.0554  0.0611
  119ccc     H2 3281   1.148   2.598  10.262 -0.5775 -2.8134  1.6798
  119ccc     C3 3282   1.121   2.676  10.453  0.0503  0.2910  0.8774
  119ccc     C4 3283   1.207   2.717  10.572  0.0810  0.4170  0.1043
  119ccc     C5 3284   1.319   2.608  10.599 -0.1623  1.0303  0.0497
  119ccc     H3 3285   1.257   2.813  10.555  0.0429  1.2385  3.6744
  119ccc     H4 3286   1.043   2.599  10.467  0.6743 -0.5045  0.1380
  119ccc     H5 3287   1.278   2.512  10.631  0.6357 -0.8178 -3.8533
  119ccc     O1 3288   1.412   2.663  10.693  0.1451 -0.3175 -0.1930
  119ccc     O2 3289   1.126   2.745  10.689  0.4342 -0.1333 -0.2604
  119ccc     O3 3290   1.046   2.787  10.405  0.7574  0.6563 -0.0155
  119ccc     O4 3291   1.288   2.760  10.288  0.2652  0.3661 -0.0477
  119ccc     C6 3292   1.411   2.481  10.270  0.0132  0.4319  0.9509
  119ccc     H6 3293   0.985   2.807  10.479  1.6495  0.2249  0.8668
  119ccc     H7 3294   1.367   2.724  10.243 -1.5921 -2.3987 -1.4159
  119ccc     H8 3295   1.136   2.836  10.722 -1.3529 -0.0445  0.1130
  119ccc     H9 3296   1.351   2.455  10.182  0.6949  0.4328  0.4745
  119ccc    H10 3297   1.455   2.387  10.307  2.3020  1.3779  0.8341
  119ccc     O5 3298   1.512   2.579  10.229  0.7283  0.0360  0.1428
  119ccc    H11 3299   1.566   2.601  10.307 -0.8062  1.5291  0.8430
  119ccc     O6 3300   1.397   2.578  10.478 -0.1740 -0.6340  0.0765
  120ccc     C1 3301   2.074   3.311  11.060 -0.0586  0.9974  0.4188
  120ccc     C2 3302   1.983   3.363  11.172  0.0168 -0.6038 -0.0773
  120ccc     H1 3303   2.070   3.384  10.979  0.8102  0.6727  0.0725
  120ccc     H2 3304   2.010   3.466  11.195  0.4421 -0.8804  0.7237
  120ccc     C3 3305   1.834   3.370  11.130  0.4416  0.3347 -0.8679
  120ccc     C4 3306   1.791   3.240  11.059  0.4297 -0.6174 -0.2450
  120ccc     C5 3307   1.892   3.190  10.949 -0.7654  0.1565  0.2939
  120ccc     H3 3308   1.796   3.154  11.127  1.7697  0.8603  1.6271
  120ccc     H4 3309   1.828   3.446  11.051  0.8319 -0.5886 -1.8018
  120ccc     H5 3310   1.904   3.264  10.869  1.2122 -0.8918 -0.4551
  120ccc     O1 3311   1.869   3.057  10.903  0.5283 -0.2093 -0.1795
  120ccc     O2 3312   1.658   3.255  10.997 -0.0744 -0.3945 -0.5208
  120ccc     O3 3313   1.740   3.416  11.234 -0.3635  0.4448 -0.6411
  120ccc     O4 3314   2.003   3.273  11.285  0.5985  0.1923 -0.0487
  120ccc     C6 3315   2.228   3.300  11.084 -0.2469  1.1470  0.1217
  120ccc     H6 3316   1.773   3.390  11.322  3.1267 -0.3683 -2.0334
  120ccc     H7 3317   2.081   3.312  11.329 -0.7264 -0.0606  2.7073
  120ccc     H8 3318   1.621   3.167  10.975 -0.4399 -0.7329  1.3173
  120ccc     H9 3319   2.268   3.204  11.047 -2.3140  0.9169 -1.6996
  120ccc    H10 3320   2.252   3.327  11.188 -2.1820  1.6446  0.4675
  120ccc     O5 3321   2.293   3.389  10.995  0.0498  0.1832  0.0686
  120ccc    H11 3322   2.388   3.372  11.009  0.2868  1.3687  0.0100
  120ccc     O6 3323   2.022   3.183  11.021 -0.0899  0.2082  0.1974
  121ccc     C1 3324   4.090   2.462  10.303  0.1816  0.7751 -0.2781
  121ccc     C2 3325   4.193   2.510  10.405 -0.1402  1.3401 -0.9275
  121ccc     H1 3326   4.092   2.524  10.212 -1.1653 -0.3859 -1.1460
  121ccc     H2 3327   4.289   2.520  10.353 -0.8361 -0.4261 -2.6779
  121ccc     C3 3328   4.150   2.649  10.459  0.0199 -0.3160  0.4447
  121ccc     C4 3329   4.001   2.657  10.503 -0.6474  0.5127 -0.0606
  121ccc     C5 3330   3.906   2.586  10.402 -0.3797 -0.1989  0.0612
  121ccc     H3 3331   3.982   2.595  10.592  2.1022 -0.0268  0.2474
  121ccc     H4 3332   4.178   2.723  10.383 -1.8802  2.2819  2.0975
  121ccc     H5 3333   3.879   2.652  10.318 -0.8947 -1.9650 -1.2272
  121ccc     O1 3334   3.778   2.563  10.473 -0.7571  0.2504  0.0724
  121ccc     O2 3335   3.970   2.798  10.529  0.0150 -0.1755  0.6218
  121ccc     O3 3336   4.234   2.689  10.574 -0.3711  0.0918 -0.4103
  121ccc     O4 3337   4.198   2.414  10.512 -0.4794  0.2528  0.1943
  121ccc     C6 3338   4.121   2.311  10.251  0.2194 -0.2449  0.1047
  121ccc     H6 3339   4.216   2.620  10.640 -2.2147 -0.4343 -1.3962
  121ccc     H7 3340   4.286   2.430  10.550 -1.4753  1.4359  2.1553
  121ccc     H8 3341   4.030   2.837  10.595 -0.7408  0.2330  1.0834
  121ccc     H9 3342   4.113   2.249  10.341 -0.8129  2.2430  1.8468
  121ccc    H10 3343   4.220   2.318  10.204  0.5784  1.5690  1.0494
  121ccc     O5 3344   4.026   2.289  10.149 -0.4290 -0.1043  0.1785
  121ccc    H11 3345   4.008   2.195  10.133 -3.1865  0.6545 -1.8866
  121ccc     O6 3346   3.962   2.459  10.356  0.4434 -0.4550 -0.7710
  122ccc     C1 3347   3.164   2.868   9.603  0.3176 -0.5252 -0.1041
  122ccc     C2 3348   3.232   2.893   9.469 -0.2399 -0.9330  1.0157
  122ccc     H1 3349   3.180   2.952   9.673  0.7690 -1.5372  1.0522
  122ccc     H2 3350   3.195   2.982   9.415  0.0795 -1.1591  0.4164
  122ccc     C3 3351   3.388   2.912   9.474  0.0267  0.4151  0.5311
  122ccc     C4 3352   3.453   2.791   9.552 -0.2055 -0.0867  0.4190
  122ccc     C5 3353   3.374   2.766   9.683  0.2703  0.5555 -0.1420
  122ccc     H3 3354   3.446   2.704   9.485  1.8936 -1.0537  1.3606
  122ccc     H4 3355   3.404   3.011   9.519 -0.3499  0.4142  0.6734
  122ccc     H5 3356   3.389   2.848   9.753 -0.6406  0.1973  0.4990
  122ccc     O1 3357   3.422   2.639   9.734 -0.1645  0.0057 -0.1354
  122ccc     O2 3358   3.591   2.813   9.576  0.2312 -0.5223 -0.6766
  122ccc     O3 3359   3.434   2.905   9.335  0.2771 -0.1800 -0.3100
  122ccc     O4 3360   3.208   2.784   9.376 -0.4391 -0.7726 -0.3474
  122ccc     C6 3361   3.018   2.838   9.588  0.0869 -0.1013  0.2774
  122ccc     H6 3362   3.529   2.926   9.333  0.3516 -0.3147  1.0714
  122ccc     H7 3363   3.291   2.798   9.326 -0.3840  1.4267  0.2727
  122ccc     H8 3364   3.632   2.725   9.577  0.7682 -0.2787 -0.9038
  122ccc     H9 3365   3.009   2.754   9.518 -2.0187  1.1436 -1.0462
  122ccc    H10 3366   2.968   2.918   9.532 -0.2418 -0.5992 -0.1477
  122ccc     O5 3367   2.956   2.817   9.717  0.1203  0.2101  0.2195
  122ccc    H11 3368   2.931   2.723   9.716  0.2112  0.1493 -1.9735
  122ccc     O6 3369   3.226   2.756   9.667 -0.0698 -0.4098 -0.3135
  123ccc     C1 3370   1.317   1.048   9.558  0.2344  0.0647  0.2632
  123ccc     C2 3371   1.167   1.009   9.535 -0.2465 -0.7494 -1.1418
  123ccc     H1 3372   1.312   1.157   9.570 -1.9421 -0.0336  0.7414
  123ccc     H2 3373   1.110   1.052   9.618  1.8562 -3.1247  1.7374
  123ccc     C3 3374   1.103   1.075   9.409  0.5171  0.6542 -0.1236
  123ccc     C4 3375   1.201   1.052   9.289  0.6350 -0.5763  0.0761
  123ccc     C5 3376   1.348   1.087   9.325  0.1854  0.5351  0.3822
  123ccc     H3 3377   1.200   0.944   9.266  4.7133 -1.1010  1.5958
  123ccc     H4 3378   1.093   1.183   9.423 -1.7272  0.4582  0.1079
  123ccc     H5 3379   1.356   1.194   9.349 -0.6796  0.2857  1.9491
  123ccc     O1 3380   1.438   1.059   9.216  0.4935  0.2189  0.5602
  123ccc     O2 3381   1.147   1.114   9.168 -0.0956  0.2436  0.5329
  123ccc     O3 3382   0.971   1.016   9.382 -0.4078  0.3169 -0.1690
  123ccc     O4 3383   1.155   0.873   9.530  0.6280  0.1438  0.1325
  123ccc     C6 3384   1.378   0.979   9.677  0.1341  0.5294 -0.1645
  123ccc     H6 3385   0.924   1.086   9.333  0.8981  2.2841  1.2015
  123ccc     H7 3386   1.241   0.847   9.567  1.3042  0.1542 -1.3716
  123ccc     H8 3387   1.115   1.040   9.114  1.1504 -0.3636  0.5893
  123ccc     H9 3388   1.307   1.008   9.755 -1.9608  2.4332 -2.5990
  123ccc    H10 3389   1.479   1.017   9.696  0.3111  0.4581 -0.9278
  123ccc     O5 3390   1.375   0.833   9.661 -0.2167  0.3101  0.1136
  123ccc    H11 3391   1.418   0.785   9.734  1.2838 -4.3228 -3.3363
  123ccc     O6 3392   1.394   1.016   9.440 -0.0012 -0.3787  0.2281
  124ccc     C1 3393   2.076   1.660   8.581  0.2652  0.3292  0.4195
  124ccc     C2 3394   2.133   1.792   8.642  0.2473  0.7972 -0.8205
  124ccc     H1 3395   1.991   1.705   8.527  0.8581 -1.0812 -1.7933
  124ccc     H2 3396   2.152   1.866   8.563  2.4267  0.4877 -0.6430
  124ccc     C3 3397   2.038   1.851   8.753  0.1208  0.3641  0.1034
  124ccc     C4 3398   1.998   1.742   8.849  0.1819  0.1930 -0.2647
  124ccc     C5 3399   1.937   1.620   8.773 -0.2539  0.9035 -0.2379
  124ccc     H3 3400   2.090   1.707   8.899 -0.4838 -1.2203  0.0357
  124ccc     H4 3401   1.950   1.891   8.699 -0.0491  1.1178  0.9100
  124ccc     H5 3402   1.843   1.645   8.722 -0.8946  0.9220  0.9061
  124ccc     O1 3403   1.911   1.510   8.865 -0.2405  0.0281 -0.6991
  124ccc     O2 3404   1.900   1.784   8.947  1.1101 -0.2465  0.1956
  124ccc     O3 3405   2.094   1.965   8.816 -0.6043 -0.1332 -0.0829
  124ccc     O4 3406   2.264   1.757   8.697  0.4068  0.1919  0.7886
  124ccc     C6 3407   2.156   1.587   8.474  0.2265 -0.4980  0.5148
  124ccc     H6 3408   2.047   1.984   8.899 -0.7118  0.7273 -0.3314
  124ccc     H7 3409   2.325   1.833   8.695  1.8591 -0.9505 -0.4679
  124ccc     H8 3410   1.952   1.812   9.024  2.0575 -1.5839  0.0747
  124ccc     H9 3411   2.181   1.650   8.387 -0.1545 -2.6384 -1.2287
  124ccc    H10 3412   2.095   1.506   8.431  2.7461 -2.2619  0.0516
  124ccc     O5 3413   2.268   1.537   8.546  0.1274 -0.2577  0.0016
  124ccc    H11 3414   2.283   1.608   8.612  0.2335 -0.4182  0.1508
  124ccc     O6 3415   2.027   1.569   8.680 -0.1978 -0.2905 -0.1578
  125ccc     C1 3416   1.237   1.571   9.680  1.1637  0.2071 -0.8866
  125ccc     C2 3417   1.166   1.464   9.593 -0.8928  0.3962 -0.0086
  125ccc     H1 3418   1.158   1.631   9.726  0.5440 -0.3124 -1.2644
  125ccc     H2 3419   1.094   1.428   9.668  1.0619 -0.9597  1.3136
  125ccc     C3 3420   1.095   1.537   9.479 -0.1138 -0.7788 -0.0676
  125ccc     C4 3421   1.189   1.625   9.396 -0.1395  0.3557  0.4474
  125ccc     C5 3422   1.261   1.721   9.488  0.4518  0.3926 -0.2937
  125ccc     H3 3423   1.273   1.573   9.348 -0.0693  1.2472 -0.4193
  125ccc     H4 3424   1.024   1.600   9.533  1.7225  1.9491 -0.6272
  125ccc     H5 3425   1.195   1.802   9.521 -0.7080 -0.9918  0.9175
  125ccc     O1 3426   1.367   1.776   9.412 -0.9152 -0.1710  0.0291
  125ccc     O2 3427   1.118   1.701   9.290  0.0232 -0.1180  0.0399
  125ccc     O3 3428   1.026   1.447   9.384 -0.4501  0.1736 -0.0465
  125ccc     O4 3429   1.263   1.373   9.544  0.2189 -0.3133  0.2095
  125ccc     C6 3430   1.333   1.521   9.794  0.1764 -0.8467 -0.0891
  125ccc     H6 3431   1.096   1.426   9.321 -0.8325  1.7075 -1.0478
  125ccc     H7 3432   1.332   1.397   9.609  0.1765  0.2387  0.0576
  125ccc     H8 3433   1.077   1.630   9.238  1.3612 -0.0950 -1.1007
  125ccc     H9 3434   1.273   1.455   9.858  1.6971 -0.9242  1.3311
  125ccc    H10 3435   1.361   1.607   9.857  0.7986 -1.1658  0.0757
  125ccc     O5 3436   1.440   1.439   9.749 -0.4338 -0.5864 -0.0695
  125ccc    H11 3437   1.521   1.492   9.763 -1.5922  1.4443 -0.7258
  125ccc     O6 3438   1.321   1.652   9.598 -0.7158  0.3787 -0.0362
  126ccc     C1 3439   2.196   2.594   9.734  0.5716 -0.7318  1.2265
  126ccc     C2 3440   2.340   2.565   9.686  0.1992 -0.4970 -0.1781
  126ccc     H1 3441   2.190   2.596   9.843  1.2503 -0.3485  1.2612
  126ccc     H2 3442   2.411   2.642   9.718  1.1121 -1.1410 -0.6012
  126ccc     C3 3443   2.392   2.438   9.756 -0.1185 -0.5313  0.2557
  126ccc     C4 3444   2.303   2.320   9.705 -0.3940  0.3140  0.4111
  126ccc     C5 3445   2.152   2.344   9.730  0.0516 -0.5912 -0.2116
  126ccc     H3 3446   2.304   2.307   9.596 -0.0611  0.1168  0.4360
  126ccc     H4 3447   2.377   2.448   9.864  0.6261  1.6940  0.1928
  126ccc     H5 3448   2.133   2.322   9.836  2.3666 -2.2978 -0.0818
  126ccc     O1 3449   2.067   2.251   9.659  0.0929  0.5614 -0.3278
  126ccc     O2 3450   2.338   2.191   9.770  0.0924  0.5009  0.1353
  126ccc     O3 3451   2.538   2.419   9.733 -0.2974  0.4853 -0.3541
  126ccc     O4 3452   2.343   2.547   9.545  0.2089  0.5252 -0.6328
  126ccc     C6 3453   2.139   2.733   9.675  0.5371 -0.0289 -0.2738
  126ccc     H6 3454   2.562   2.334   9.775 -1.0613 -0.6162 -2.0502
  126ccc     H7 3455   2.431   2.515   9.517  1.3884  2.0968  1.0614
  126ccc     H8 3456   2.343   2.127   9.696 -1.1915  0.5212  0.0155
  126ccc     H9 3457   2.202   2.814   9.713 -0.6540  1.5019 -1.4668
  126ccc    H10 3458   2.033   2.742   9.701  0.2076 -1.1421 -1.1482
  126ccc     O5 3459   2.148   2.721   9.531 -0.8134  0.0382 -0.1316
  126ccc    H11 3460   2.209   2.645   9.528  1.0270  1.3999  0.6032
  126ccc     O6 3461   2.109   2.482   9.693 -0.5072 -0.6085 -0.2131
  127ccc     C1 3462   2.757   1.813  14.224  0.0247 -0.2997  0.4432
  127ccc     C2 3463   2.613   1.852  14.187 -0.5397 -1.3480  0.4355
  127ccc     H1 3464   2.771   1.870  14.317  0.8138  1.0367 -0.4509
  127ccc     H2 3465   2.550   1.849  14.277 -2.5635  1.6658 -0.7067
  127ccc     C3 3466   2.602   2.006  14.142  0.9118 -0.1145 -0.1661
  127ccc     C4 3467   2.718   2.040  14.039 -0.5030  0.2420  0.0504
  127ccc     C5 3468   2.854   1.996  14.096 -1.0603  0.7458  0.2351
  127ccc     H3 3469   2.707   1.982  13.946 -1.1380 -0.8962  0.8099
  127ccc     H4 3470   2.641   2.065  14.226  4.0740  0.2931 -1.7725
  127ccc     H5 3471   2.871   2.061  14.183  1.6407 -0.3571  0.6200
  127ccc     O1 3472   2.973   2.013  14.010  0.2260  0.0529 -0.3636
  127ccc     O2 3473   2.717   2.183  14.015 -0.5091  0.0932  0.5375
  127ccc     O3 3474   2.467   2.039  14.107  0.1128  0.2823 -0.1011
  127ccc     O4 3475   2.563   1.764  14.090  0.3343 -0.0221 -0.7332
  127ccc     C6 3476   2.775   1.662  14.259  0.4125  0.0117  0.1601
  127ccc     H6 3477   2.468   2.016  14.012 -0.3931 -1.0003  0.1855
  127ccc     H7 3478   2.499   1.812  14.034 -0.0327 -0.2061 -0.4742
  127ccc     H8 3479   2.647   2.196  13.949 -1.7032 -0.1990  1.7008
  127ccc     H9 3480   2.789   1.601  14.168  4.1407  2.3110 -1.0505
  127ccc    H10 3481   2.680   1.638  14.307 -1.4476 -0.3997 -3.3752
  127ccc     O5 3482   2.885   1.653  14.347  0.1729  0.2177  0.0843
  127ccc    H11 3483   2.876   1.730  14.405 -2.9191 -0.8264  1.1976
  127ccc     O6 3484   2.851   1.857  14.126  0.4829 -0.1355  1.0976
  128ccc     C1 3485   4.030   2.426  14.209  0.2260 -0.5772 -0.3706
  128ccc     C2 3486   4.056   2.543  14.305  0.0877 -0.2178 -0.3538
  128ccc     H1 3487   3.980   2.457  14.116 -3.1523 -0.4289  1.3235
  128ccc     H2 3488   4.115   2.620  14.253  1.2625 -0.5869  0.3770
  128ccc     C3 3489   3.922   2.613  14.354  0.6404 -0.4370 -0.2084
  128ccc     C4 3490   3.832   2.504  14.419 -0.1147  0.2269 -0.6301
  128ccc     C5 3491   3.815   2.395  14.313 -0.4557 -0.4466 -0.0992
  128ccc     H3 3492   3.889   2.461  14.501 -0.4166  0.9238 -0.0467
  128ccc     H4 3493   3.875   2.653  14.263 -0.1321 -0.3407  0.2269
  128ccc     H5 3494   3.752   2.430  14.230  0.0706  1.3391  0.2243
  128ccc     O1 3495   3.758   2.287  14.384  0.2429 -0.2949 -0.2189
  128ccc     O2 3496   3.715   2.563  14.470  0.6722 -0.6396 -0.3762
  128ccc     O3 3497   3.939   2.720  14.455 -0.5284  0.1392  0.4307
  128ccc     O4 3498   4.132   2.492  14.415 -0.4634 -0.0224 -0.1090
  128ccc     C6 3499   4.164   2.350  14.182 -0.1899  0.4747 -0.4516
  128ccc     H6 3500   4.012   2.688  14.511  2.2057 -0.2962 -2.9680
  128ccc     H7 3501   4.217   2.540  14.414  1.6834 -3.2763  3.0646
  128ccc     H8 3502   3.660   2.491  14.506 -1.2522  0.3819 -1.1614
  128ccc     H9 3503   4.212   2.304  14.269 -0.4284 -0.4156 -0.7889
  128ccc    H10 3504   4.237   2.428  14.155  1.5878  0.2137  3.0922
  128ccc     O5 3505   4.140   2.270  14.070  0.0097  0.2602 -0.1189
  128ccc    H11 3506   4.216   2.210  14.062 -1.7739 -2.2328  0.3752
  128ccc     O6 3507   3.940   2.339  14.272 -0.1920 -0.2961 -0.5372
  129ccc     C1 3508   2.913   1.683  13.787 -0.4943 -0.2995  0.9220
  129ccc     C2 3509   2.770   1.728  13.785 -0.2743 -0.0332  0.4302
  129ccc     H1 3510   2.974   1.773  13.804  0.0443 -0.8535  2.0118
  129ccc     H2 3511   2.749   1.777  13.881 -0.0013  0.6399  0.1538
  129ccc     C3 3512   2.749   1.842  13.680 -0.0283  0.6610  0.1846
  129ccc     C4 3513   2.792   1.783  13.546  0.4955 -0.9775  0.2145
  129ccc     C5 3514   2.933   1.722  13.542  0.0415 -0.0018  0.1012
  129ccc     H3 3515   2.731   1.694  13.525 -0.8776  0.1206 -0.5980
  129ccc     H4 3516   2.814   1.928  13.697  0.9568 -0.0782  0.2695
  129ccc     H5 3517   3.011   1.799  13.543  0.9415 -0.8584  2.3908
  129ccc     O1 3518   2.947   1.654  13.413  0.3054 -0.2618  0.4635
  129ccc     O2 3519   2.778   1.868  13.440  0.1797  0.3045 -0.3898
  129ccc     O3 3520   2.615   1.898  13.691 -0.2841 -0.2574  0.0593
  129ccc     O4 3521   2.679   1.614  13.779  0.2865  0.0222 -0.2145
  129ccc     C6 3522   2.952   1.585  13.904  0.3384  0.2590 -0.2452
  129ccc     H6 3523   2.602   1.938  13.603  0.6998 -2.0518 -0.9521
  129ccc     H7 3524   2.593   1.652  13.754 -0.3997 -0.0477  1.9180
  129ccc     H8 3525   2.858   1.924  13.433 -0.4031  0.9674 -3.0018
  129ccc     H9 3526   2.926   1.479  13.891  2.5126 -0.4546  0.7088
  129ccc    H10 3527   2.906   1.623  13.996  3.1535  2.2861  0.4782
  129ccc     O5 3528   3.094   1.593  13.922 -0.1165 -0.2029  0.3474
  129ccc    H11 3529   3.114   1.599  14.017  0.0659 -1.5318  0.4217
  129ccc     O6 3530   2.946   1.630  13.650 -0.2660 -0.1571 -0.1374
  130ccc     C1 3531   2.591   0.642  13.214  0.2963  0.0951 -0.1845
  130ccc     C2 3532   2.639   0.571  13.086  0.3032 -0.2795 -0.5735
  130ccc     H1 3533   2.487   0.670  13.193  0.1377 -0.6217 -0.3914
  130ccc     H2 3534   2.571   0.490  13.057 -1.3666  1.2432 -1.0533
  130ccc     C3 3535   2.638   0.670  12.968 -0.1893 -0.2908  0.1272
  130ccc     C4 3536   2.726   0.795  12.996  0.4936 -0.3873 -0.9210
  130ccc     C5 3537   2.674   0.866  13.134  0.3300 -0.2461 -0.6492
  130ccc     H3 3538   2.827   0.758  13.014  0.8530  0.8530 -0.3183
  130ccc     H4 3539   2.534   0.704  12.957 -0.3018 -0.7017 -0.1388
  130ccc     H5 3540   2.576   0.913  13.118  0.6810  0.7796  0.1052
  130ccc     O1 3541   2.771   0.966  13.174  0.4566  0.2829 -0.2002
  130ccc     O2 3542   2.714   0.881  12.881 -0.1185 -0.3469 -0.3138
  130ccc     O3 3543   2.677   0.617  12.844  0.1224 -0.2376  0.5579
  130ccc     O4 3544   2.767   0.519  13.106  0.4087 -0.0632 -0.2595
  130ccc     C6 3545   2.582   0.548  13.337 -0.2047  0.3183 -0.4413
  130ccc     H6 3546   2.723   0.690  12.798 -3.9370  1.6733 -0.9049
  130ccc     H7 3547   2.785   0.471  13.024 -1.0336 -0.1284 -0.5759
  130ccc     H8 3548   2.781   0.948  12.901  0.1244 -0.1502 -1.7245
  130ccc     H9 3549   2.518   0.465  13.305 -0.2798  1.2476 -2.9056
  130ccc    H10 3550   2.540   0.592  13.429 -1.8255  0.6619 -1.3136
  130ccc     O5 3551   2.710   0.499  13.358  0.0740 -0.3174  0.4143
  130ccc    H11 3552   2.737   0.491  13.264  1.1717  2.8611  0.3286
  130ccc     O6 3553   2.665   0.767  13.240  0.1508  0.2329 -0.7301
  131ccc     C1 3554   2.140   2.042  11.920  0.2924 -0.5783 -0.3829
  131ccc     C2 3555   2.013   1.987  11.846 -0.4512  0.9641  0.2416
  131ccc     H1 3556   2.232   2.012  11.867  0.2992  1.2445 -1.4814
  131ccc     H2 3557   2.027   2.012  11.740 -0.1264  0.0672  0.0619
  131ccc     C3 3558   2.009   1.832  11.876  0.6907 -0.6654 -0.2746
  131ccc     C4 3559   2.020   1.796  12.027 -0.1561  0.1196 -0.4719
  131ccc     C5 3560   2.138   1.874  12.094  0.0440 -0.6416 -0.6697
  131ccc     H3 3561   1.928   1.833  12.073  0.4375  2.7345 -1.2009
  131ccc     H4 3562   2.099   1.795  11.826  1.1697  0.8435 -0.5707
  131ccc     H5 3563   2.235   1.829  12.073  1.9214  2.8738 -0.3186
  131ccc     O1 3564   2.116   1.873  12.238 -0.0542  0.1028 -0.1300
  131ccc     O2 3565   2.037   1.653  12.052 -0.6429  0.2064 -0.1801
  131ccc     O3 3566   1.890   1.780  11.818 -0.1094  0.2736 -0.3093
  131ccc     O4 3567   1.901   2.058  11.897 -0.0624  0.0575 -0.0046
  131ccc     C6 3568   2.136   2.199  11.912  0.1954  0.7230  0.1639
  131ccc     H6 3569   1.821   1.787  11.887  2.3291  0.5430  2.2527
  131ccc     H7 3570   1.838   2.058  11.823 -0.3219  0.7257  0.2107
  131ccc     H8 3571   1.993   1.600  11.984  0.5828 -0.7315 -0.2811
  131ccc     H9 3572   2.052   2.253  11.957 -1.7164 -1.3453 -0.7493
  131ccc    H10 3573   2.118   2.217  11.805  0.1093  0.1082  0.0697
  131ccc     O5 3574   2.265   2.245  11.946 -0.1785 -0.2141 -0.4196
  131ccc    H11 3575   2.263   2.219  12.040  0.3349 -0.1708 -0.3949
  131ccc     O6 3576   2.147   2.013  12.056 -0.4057  0.3181 -0.2266
  132ccc     C1 3577   2.194   1.936  13.258  0.5023  0.1172  1.1021
  132ccc     C2 3578   2.280   2.024  13.346  0.7243  0.2620 -0.0816
  132ccc     H1 3579   2.170   1.843  13.309 -0.1501  0.6271  1.7357
  132ccc     H2 3580   2.225   2.027  13.441  0.4072 -3.3849 -0.0070
  132ccc     C3 3581   2.414   1.949  13.378  0.5615 -0.3577  0.0137
  132ccc     C4 3582   2.488   1.911  13.247 -0.4637  0.1847  0.4634
  132ccc     C5 3583   2.398   1.856  13.134  0.1695  0.3768 -0.5939
  132ccc     H3 3584   2.533   2.006  13.213  0.5590 -0.6158 -0.4844
  132ccc     H4 3585   2.385   1.853  13.422 -1.3156  1.0609  2.1398
  132ccc     H5 3586   2.391   1.746  13.134 -2.2856  0.4442 -2.2271
  132ccc     O1 3587   2.467   1.877  13.007 -0.0246 -0.3258 -0.0012
  132ccc     O2 3588   2.583   1.809  13.281  0.2946  0.2584  0.2459
  132ccc     O3 3589   2.507   2.019  13.473  0.0434 -0.0513 -0.0922
  132ccc     O4 3590   2.306   2.151  13.271 -0.1475 -0.1186 -0.0157
  132ccc     C6 3591   2.052   1.996  13.237 -0.1888  0.4745  0.7342
  132ccc     H6 3592   2.497   2.114  13.452 -0.4666  0.1029  0.8204
  132ccc     H7 3593   2.344   2.212  13.337  0.4557  0.2257 -0.6748
  132ccc     H8 3594   2.646   1.845  13.346  0.9848  0.3938 -0.4776
  132ccc     H9 3595   2.016   2.020  13.338  2.2455 -2.2588  2.4328
  132ccc    H10 3596   1.986   1.922  13.192 -0.0654  0.8665 -0.1228
  132ccc     O5 3597   2.057   2.111  13.158  0.9146 -0.8585 -0.3865
  132ccc    H11 3598   2.148   2.140  13.175  0.4711  0.1751  0.3422
  132ccc     O6 3599   2.266   1.916  13.128  0.0935  0.8330  0.0685
  133ccc     C1 3600   3.647   0.225  12.280  0.1260 -0.6585 -0.1110
  133ccc     C2 3601   3.736   0.215  12.153 -0.6026 -0.3944 -0.6673
  133ccc     H1 3602   3.542   0.230  12.248  0.0337 -2.1911 -0.1344
  133ccc     H2 3603   3.715   0.136  12.080  0.2686 -1.8617  0.6133
  133ccc     C3 3604   3.730   0.352  12.075  0.2575 -0.5054 -1.1670
  133ccc     C4 3605   3.763   0.473  12.164  0.9497  0.6433  0.4029
  133ccc     C5 3606   3.671   0.465  12.292  0.5204  1.0808  0.1552
  133ccc     H3 3607   3.867   0.454  12.196  1.0099  0.6395  0.2060
  133ccc     H4 3608   3.629   0.376  12.040  0.5434 -0.6080 -2.0875
  133ccc     H5 3609   3.567   0.473  12.260  0.4577  0.4612  0.1842
  133ccc     O1 3610   3.702   0.571  12.390  0.2835 -0.1691 -0.0351
  133ccc     O2 3611   3.749   0.590  12.087 -0.2815 -0.1422 -0.6708
  133ccc     O3 3612   3.821   0.341  11.962 -0.7112 -0.2730 -0.1943
  133ccc     O4 3613   3.875   0.194  12.190 -0.5766  0.4740 -0.2645
  133ccc     C6 3614   3.653   0.101  12.368 -0.5402 -0.1468  0.3556
  133ccc     H6 3615   3.778   0.281  11.899 -0.4662  0.8107 -1.4664
  133ccc     H7 3616   3.924   0.196  12.106  0.1460  1.2869  0.1676
  133ccc     H8 3617   3.781   0.665  12.140 -1.7513  0.8427 -1.1001
  133ccc     H9 3618   3.623   0.011  12.313 -0.1363 -1.4977  2.2508
  133ccc    H10 3619   3.577   0.109  12.447 -0.7667 -1.4405  0.2888
  133ccc     O5 3620   3.791   0.097  12.417  0.2715 -0.4627  0.2034
  133ccc    H11 3621   3.825   0.145  12.339  0.3604 -0.4811  0.2300
  133ccc     O6 3622   3.689   0.338  12.358  0.4356 -0.2923 -0.0537
  134ccc     C1 3623   3.046   0.078  11.902 -0.0352  0.1299 -0.1542
  134ccc     C2 3624   3.131  -0.039  11.967  0.4302 -0.7154 -0.3170
  134ccc     H1 3625   3.040   0.060  11.794  0.3587 -0.3625 -0.0923
  134ccc     H2 3626   3.093  -0.135  11.929  0.3491 -0.2840 -1.3639
  134ccc     C3 3627   3.276  -0.023  11.924 -0.9517  0.6823  0.6215
  134ccc     C4 3628   3.331   0.111  11.976  0.1672 -0.9676 -0.2631
  134ccc     C5 3629   3.250   0.221  11.904  0.1593  0.1386  0.3039
  134ccc     H3 3630   3.320   0.115  12.085  1.2957  0.3633 -0.1676
  134ccc     H4 3631   3.286  -0.018  11.815  0.1386  0.9514  0.7225
  134ccc     H5 3632   3.276   0.223  11.798  2.9154 -0.7956  0.8823
  134ccc     O1 3633   3.292   0.354  11.959 -0.0491  0.2176  0.2129
  134ccc     O2 3634   3.466   0.123  11.935  0.2701  0.6242 -0.1824
  134ccc     O3 3635   3.352  -0.131  11.983  0.7171  0.2902  0.1094
  134ccc     O4 3636   3.125  -0.034  12.111  0.2293  0.3677 -0.0255
  134ccc     C6 3637   2.898   0.085  11.956  0.2698  0.2032 -0.3530
  134ccc     H6 3638   3.340  -0.130  12.079  0.7875 -0.3564  0.1301
  134ccc     H7 3639   3.036   0.003  12.115  0.3106  0.5416  0.1861
  134ccc     H8 3640   3.494   0.030  11.945 -1.0936  0.3812  1.9868
  134ccc     H9 3641   2.856  -0.011  11.925  0.4887 -0.2131  0.6153
  134ccc    H10 3642   2.845   0.172  11.916 -1.6508 -1.0586 -0.6914
  134ccc     O5 3643   2.886   0.089  12.101  0.1668 -0.2222  0.6786
  134ccc    H11 3644   2.790   0.093  12.116  0.3265  1.9254  1.3824
  134ccc     O6 3645   3.107   0.210  11.928 -0.0803  0.3114  0.3965
  135ccc     C1 3646   4.415   2.521  11.568 -0.7974  0.8352  0.8565
  135ccc     C2 3647   4.570   2.499  11.533 -0.1197 -0.3822  0.6978
  135ccc     H1 3648   4.409   2.586  11.656 -0.9864  0.5808  1.0329
  135ccc     H2 3649   4.625   2.591  11.509 -0.0214  0.0211  2.3069
  135ccc     C3 3650   4.642   2.426  11.644  0.1799  0.6082  0.0522
  135ccc     C4 3651   4.555   2.307  11.698 -0.5920  0.4450 -0.4571
  135ccc     C5 3652   4.391   2.322  11.711 -0.2618  0.5429 -0.4148
  135ccc     H3 3653   4.576   2.231  11.621 -1.0680  1.5940 -1.7589
  135ccc     H4 3654   4.646   2.507  11.718 -2.8091  1.4259 -0.5391
  135ccc     H5 3655   4.369   2.378  11.803 -1.4303 -1.0252  0.3169
  135ccc     O1 3656   4.320   2.194  11.703  0.3445  0.6977 -0.3389
  135ccc     O2 3657   4.616   2.255  11.824  0.5948 -0.1263  0.2032
  135ccc     O3 3658   4.775   2.406  11.597  0.0779  0.2188  0.1401
  135ccc     O4 3659   4.563   2.415  11.421 -0.3049  0.0320 -0.7415
  135ccc     C6 3660   4.338   2.596  11.456 -0.0920 -0.4050  0.2489
  135ccc     H6 3661   4.823   2.349  11.660 -1.7828 -1.5042  0.0912
  135ccc     H7 3662   4.658   2.400  11.406 -0.5367 -0.4200 -1.8634
  135ccc     H8 3663   4.590   2.161  11.815 -1.1493  0.4509 -1.7196
  135ccc     H9 3664   4.392   2.688  11.429 -0.7240 -0.1856 -0.2918
  135ccc    H10 3665   4.236   2.618  11.490 -0.5489 -0.0096 -1.2873
  135ccc     O5 3666   4.341   2.519  11.333  0.1074  0.1968  0.9448
  135ccc    H11 3667   4.408   2.455  11.362  0.8737 -0.2115 -1.4992
  135ccc     O6 3668   4.350   2.395  11.596 -0.0115  0.2267  0.4837
  136ccc     C1 3669   4.379   1.441  12.045  0.1613 -0.8187  0.9311
  136ccc     C2 3670   4.462   1.335  12.127 -0.1809  1.1889 -0.6101
  136ccc     H1 3671   4.444   1.482  11.967  0.2124 -0.2436  1.2697
  136ccc     H2 3672   4.520   1.267  12.063  1.0291  1.7262 -0.1039
  136ccc     C3 3673   4.559   1.410  12.226 -0.4006  0.1994 -0.6087
  136ccc     C4 3674   4.478   1.516  12.311 -0.0905 -0.6927 -1.2004
  136ccc     C5 3675   4.402   1.609  12.219 -0.4197  0.5138 -0.3930
  136ccc     H3 3676   4.402   1.472  12.378  0.8621 -0.9126 -0.2300
  136ccc     H4 3677   4.634   1.463  12.167 -1.2442  2.0770 -0.0564
  136ccc     H5 3678   4.471   1.666  12.156  0.7312 -0.5438 -0.1281
  136ccc     O1 3679   4.329   1.703  12.299  0.3436  0.4125  0.1099
  136ccc     O2 3680   4.573   1.582  12.399 -0.1274 -0.1489 -0.5814
  136ccc     O3 3681   4.619   1.315  12.314 -0.5637  0.2248  0.0678
  136ccc     O4 3682   4.382   1.262  12.216  0.3111 -0.5166  0.3133
  136ccc     C6 3683   4.270   1.384  11.967 -0.4162 -0.0148 -0.2861
  136ccc     H6 3684   4.647   1.355  12.398 -0.7617  2.5418 -0.8936
  136ccc     H7 3685   4.453   1.213  12.261  2.4246  0.0643 -2.1603
  136ccc     H8 3686   4.650   1.607  12.345 -0.5044 -1.0571 -1.5773
  136ccc     H9 3687   4.190   1.353  12.036  1.3699  1.2626  2.5237
  136ccc    H10 3688   4.297   1.292  11.914 -0.3627  0.2500 -0.7250
  136ccc     O5 3689   4.239   1.480  11.865  0.0947  0.1108  0.0851
  136ccc    H11 3690   4.163   1.431  11.829  1.4497 -1.1603 -1.1923
  136ccc     O6 3691   4.317   1.535  12.136  0.4659  0.1954 -0.5319
  137ccc     C1 3692   4.220   3.100  10.851 -0.2369  0.3714  0.5797
  137ccc     C2 3693   4.247   3.048  10.705 -0.4697 -0.5303 -0.2700
  137ccc     H1 3694   4.282   3.190  10.861  0.4595  0.0420 -0.6847
  137ccc     H2 3695   4.230   3.135  10.640  0.0032 -0.4468 -0.2804
  137ccc     C3 3696   4.386   2.984  10.676 -0.0621 -0.2733  0.0384
  137ccc     C4 3697   4.446   2.897  10.793 -0.1170 -0.3301 -0.5678
  137ccc     C5 3698   4.413   2.954  10.935  0.5630 -0.1043  0.0930
  137ccc     H3 3699   4.399   2.798  10.787  1.6972 -1.2397 -0.6160
  137ccc     H4 3700   4.465   3.061  10.671 -1.0166  0.8371  1.2887
  137ccc     H5 3701   4.486   3.031  10.961 -0.1955  0.2061  1.3479
  137ccc     O1 3702   4.418   2.845  11.030 -0.2043 -0.2948 -0.0121
  137ccc     O2 3703   4.588   2.884  10.776  0.2987 -0.3856 -0.3722
  137ccc     O3 3704   4.385   2.905  10.548  0.4745 -0.2109 -0.6277
  137ccc     O4 3705   4.144   2.949  10.679 -0.5917  0.4076 -0.5258
  137ccc     C6 3706   4.073   3.139  10.898 -0.6529  0.0663  0.0915
  137ccc     H6 3707   4.307   2.850  10.568  0.3552 -0.2305 -1.1471
  137ccc     H7 3708   4.088   2.982  10.751 -0.8213 -0.9287 -0.0717
  137ccc     H8 3709   4.601   2.808  10.716 -0.6671 -0.6628 -0.2555
  137ccc     H9 3710   4.035   3.226  10.842 -1.7321 -0.3600  0.1234
  137ccc    H10 3711   4.074   3.160  11.005  0.7686  0.2781  0.0479
  137ccc     O5 3712   3.984   3.035  10.866 -0.4618 -0.4128  0.1603
  137ccc    H11 3713   3.893   3.066  10.883 -0.1899  0.1780  0.5631
  137ccc     O6 3714   4.274   2.996  10.940  0.2430  0.4087 -0.6168
  138ccc     C1 3715   4.496   2.411  10.979  0.0787  0.2846 -0.3322
  138ccc     C2 3716   4.466   2.352  10.843  0.2147  0.1368 -0.5100
  138ccc     H1 3717   4.440   2.503  11.001  0.2992  0.6281 -1.1868
  138ccc     H2 3718   4.363   2.314  10.846  0.0158  0.6997 -0.0665
  138ccc     C3 3719   4.481   2.458  10.727 -0.4140 -0.0816 -0.5066
  138ccc     C4 3720   4.616   2.535  10.730  0.1137  0.0017 -0.8507
  138ccc     C5 3721   4.662   2.576  10.878  0.5160 -0.8194  0.4818
  138ccc     H3 3722   4.691   2.459  10.703 -0.0229 -0.6621  0.5364
  138ccc     H4 3723   4.400   2.533  10.730 -1.3669 -1.1139  0.0432
  138ccc     H5 3724   4.613   2.665  10.920  0.6846 -0.3415 -0.3301
  138ccc     O1 3725   4.807   2.604  10.881  0.0268  0.0161  0.2022
  138ccc     O2 3726   4.614   2.653  10.643 -0.0037  0.2822  0.4280
  138ccc     O3 3727   4.455   2.400  10.595  0.2120  0.0832  0.2068
  138ccc     O4 3728   4.552   2.241  10.822 -0.5073 -0.3837 -0.1470
  138ccc     C6 3729   4.469   2.320  11.098 -0.4348  0.5390  0.0789
  138ccc     H6 3730   4.517   2.329  10.570 -1.2377 -0.1499 -3.3233
  138ccc     H7 3731   4.561   2.219  10.917 -2.2680  0.1118  0.1691
  138ccc     H8 3732   4.709   2.664  10.625  0.4154 -2.1706  0.8316
  138ccc     H9 3733   4.369   2.278  11.083  0.0995 -0.8705  0.3505
  138ccc    H10 3734   4.494   2.370  11.193 -2.1451 -0.5918  1.1822
  138ccc     O5 3735   4.559   2.213  11.073 -0.1643 -0.6585 -0.6074
  138ccc    H11 3736   4.551   2.171  11.161 -1.0265  0.7158  0.0208
  138ccc     O6 3737   4.635   2.463  10.969 -0.3166  0.0776  0.6354
  139ccc     C1 3738   2.386   1.951  11.470  0.0184  0.3675  0.5271
  139ccc     C2 3739   2.535   1.921  11.491  0.1760  0.1306 -0.7597
  139ccc     H1 3740   2.351   1.868  11.407  4.2540 -2.2241  1.2242
  139ccc     H2 3741   2.553   1.822  11.535  1.4148  0.9818  0.7480
  139ccc     C3 3742   2.610   1.915  11.351  0.8521  0.8680  0.0830
  139ccc     C4 3743   2.571   2.038  11.263 -0.2002 -0.3652  0.1092
  139ccc     C5 3744   2.414   2.073  11.265 -0.2552 -0.1651 -0.0198
  139ccc     H3 3745   2.628   2.121  11.306  0.2277  0.2424 -1.5475
  139ccc     H4 3746   2.590   1.823  11.294 -0.7352  1.5713 -0.5493
  139ccc     H5 3747   2.363   2.005  11.197  0.4832  0.5480 -1.3460
  139ccc     O1 3748   2.396   2.209  11.206  0.1566  0.9151  0.3756
  139ccc     O2 3749   2.617   2.017  11.126 -0.5063  0.5569 -0.6531
  139ccc     O3 3750   2.752   1.921  11.367  0.0591  0.7915  0.1953
  139ccc     O4 3751   2.592   2.033  11.558 -0.0388  0.6520 -0.3639
  139ccc     C6 3752   2.305   1.947  11.599 -0.4417 -0.4754 -0.1617
  139ccc     H6 3753   2.790   1.878  11.288 -0.3624  0.0561  0.3879
  139ccc     H7 3754   2.685   2.011  11.538 -0.0497  0.4741 -0.2213
  139ccc     H8 3755   2.629   2.109  11.094  1.0073 -0.3207 -2.8130
  139ccc     H9 3756   2.326   2.033  11.664  1.5103 -0.0703 -1.2222
  139ccc    H10 3757   2.318   1.851  11.651 -0.2172 -0.4524 -0.1722
  139ccc     O5 3758   2.170   1.938  11.557  0.0076 -0.3382  0.0991
  139ccc    H11 3759   2.144   2.031  11.549 -1.2502 -0.5972  0.9377
  139ccc     O6 3760   2.359   2.075  11.400  1.1765 -0.0671  0.6168
  140ccc     C1 3761   3.002   2.927  10.593  1.0049  0.0428  0.3030
  140ccc     C2 3762   2.916   3.056  10.601  0.3015  0.1206  1.0764
  140ccc     H1 3763   3.015   2.890  10.491  3.7478  1.2305  0.1390
  140ccc     H2 3764   2.965   3.125  10.531  2.7674  0.2425  2.7900
  140ccc     C3 3765   2.766   3.028  10.563 -0.3315  0.3449  1.4197
  140ccc     C4 3766   2.706   2.898  10.632 -0.4168 -0.5309  0.1169
  140ccc     C5 3767   2.807   2.779  10.629  0.3820  0.5336 -0.1148
  140ccc     H3 3768   2.692   2.934  10.735 -0.3745 -1.0007  0.2864
  140ccc     H4 3769   2.768   2.990  10.461 -2.2884 -1.2028  1.8989
  140ccc     H5 3770   2.810   2.738  10.527 -0.4903  0.0223  0.0510
  140ccc     O1 3771   2.764   2.675  10.720  0.0304 -0.0497  0.2972
  140ccc     O2 3772   2.582   2.864  10.572 -0.2034  0.0036  0.1476
  140ccc     O3 3773   2.674   3.142  10.583  0.2489 -0.1880  0.0848
  140ccc     O4 3774   2.921   3.103  10.735 -0.0377  0.3670 -0.1770
  140ccc     C6 3775   3.143   2.941  10.646  0.3875 -0.1003  0.8141
  140ccc     H6 3776   2.711   3.214  10.528 -0.7955  0.3139  0.0239
  140ccc     H7 3777   2.878   3.188  10.753  2.1206  1.3250  0.7024
  140ccc     H8 3778   2.528   2.943  10.553 -0.5821 -0.4403 -0.6357
  140ccc     H9 3779   3.135   2.928  10.754 -0.6466 -1.4077  0.6164
  140ccc    H10 3780   3.175   3.041  10.614 -0.8306 -0.8569 -3.4158
  140ccc     O5 3781   3.231   2.838  10.596  0.5637  0.0651  0.1549
  140ccc    H11 3782   3.291   2.814  10.669 -1.4167 -1.2937  1.4290
  140ccc     O6 3783   2.936   2.832  10.673  0.0727  0.3010  0.0036
  141ccc     C1 3784   3.237   2.826  12.103  0.4657 -0.0804 -0.3642
  141ccc     C2 3785   3.132   2.715  12.148 -0.6006  0.8070  0.9412
  141ccc     H1 3786   3.336   2.790  12.136  0.9134  0.8190 -0.6982
  141ccc     H2 3787   3.154   2.622  12.093 -0.3179  1.3314  0.1617
  141ccc     C3 3788   3.159   2.683  12.293  0.0724 -0.2325  0.2895
  141ccc     C4 3789   3.142   2.814  12.381  0.3420  0.2240  0.2101
  141ccc     C5 3790   3.212   2.943  12.325 -0.6768  0.2715  0.1320
  141ccc     H3 3791   3.037   2.844  12.385  0.3366  0.3284 -0.5821
  141ccc     H4 3792   3.267   2.665  12.292  0.3918  1.4620 -1.6407
  141ccc     H5 3793   3.318   2.939  12.355 -0.5708  1.2202 -0.0737
  141ccc     O1 3794   3.148   3.060  12.383 -0.2592 -0.4489  0.4916
  141ccc     O2 3795   3.196   2.796  12.512  0.6651 -0.1913 -0.0816
  141ccc     O3 3796   3.083   2.571  12.340 -0.0828  0.3882  0.3439
  141ccc     O4 3797   2.997   2.751  12.116 -0.5562  0.2412 -0.0463
  141ccc     C6 3798   3.239   2.858  11.956 -0.2496  0.6689  0.9723
  141ccc     H6 3799   3.099   2.498  12.278 -0.2206  1.3748 -0.8909
  141ccc     H7 3800   2.947   2.674  12.147 -1.5521  0.4373 -1.1038
  141ccc     H8 3801   3.136   2.726  12.543  0.0018  0.7169  0.7446
  141ccc     H9 3802   3.268   2.777  11.887  0.6602  3.1610 -1.7552
  141ccc    H10 3803   3.300   2.949  11.953 -0.7021  0.9683  0.7634
  141ccc     O5 3804   3.105   2.888  11.926 -0.0499 -0.1860  0.1759
  141ccc    H11 3805   3.050   2.844  11.993 -0.5800  2.5259  1.6438
  141ccc     O6 3806   3.210   2.947  12.176  0.1689 -0.0041 -0.6464
  142ccc     C1 3807   2.900   3.701  12.948 -0.4057 -0.1223  0.2594
  142ccc     C2 3808   2.754   3.648  12.951  0.3970 -0.1560 -0.2960
  142ccc     H1 3809   2.891   3.810  12.963  1.2297  0.4358 -2.2108
  142ccc     H2 3810   2.715   3.664  13.052 -0.9438 -0.2073 -0.7851
  142ccc     C3 3811   2.674   3.724  12.845  0.2136  0.0979  0.3698
  142ccc     C4 3812   2.737   3.701  12.704 -0.0185  1.0060  0.1587
  142ccc     C5 3813   2.884   3.732  12.703  0.2677  0.3314  0.5283
  142ccc     H3 3814   2.718   3.598  12.671 -0.2728  0.6087  1.5038
  142ccc     H4 3815   2.672   3.830  12.873  1.0634 -0.0290  0.9412
  142ccc     H5 3816   2.908   3.838  12.718 -0.2841  0.6302 -0.5544
  142ccc     O1 3817   2.939   3.688  12.573  0.0085  0.1973  0.2205
  142ccc     O2 3818   2.664   3.794  12.617 -0.6017 -0.6560 -0.2777
  142ccc     O3 3819   2.537   3.671  12.848  0.2860  0.7571 -0.4316
  142ccc     O4 3820   2.758   3.509  12.924 -0.0076  0.3836 -0.0740
  142ccc     C6 3821   2.992   3.641  13.054  0.3061  0.5427 -0.1887
  142ccc     H6 3822   2.539   3.574  12.842  0.8109  0.6553  0.9055
  142ccc     H7 3823   2.846   3.492  12.963  0.3432 -0.7297 -1.2758
  142ccc     H8 3824   2.720   3.819  12.542 -0.2601 -1.3124 -0.2428
  142ccc     H9 3825   2.955   3.670  13.153  4.0441  0.9888  1.2293
  142ccc    H10 3826   3.095   3.678  13.041  1.0940 -0.6682  2.0307
  142ccc     O5 3827   2.997   3.494  13.052  0.2137  0.2755 -0.5857
  142ccc    H11 3828   3.067   3.477  12.987  0.7767  3.0157 -0.8146
  142ccc     O6 3829   2.952   3.661  12.814 -0.3073  0.6775 -0.2744
  143ccc     C1 3830   5.398   0.020   8.674  0.1185 -0.2224 -0.4791
  143ccc     C2 3831   5.248   0.001   8.650 -0.3221 -0.0890  0.5850
  143ccc     H1 3832   5.448  -0.070   8.712  0.9047 -0.5137 -2.1343
  143ccc     H2 3833   5.235  -0.084   8.582 -2.9976  0.3747  0.3945
  143ccc     C3 3834   5.169  -0.035   8.777 -0.3177 -0.7649 -0.0551
  143ccc     C4 3835   5.200   0.079   8.887 -0.0431  0.8711  0.8516
  143ccc     C5 3836   5.354   0.095   8.904  0.1995  0.0797  0.8805
  143ccc     H3 3837   5.166   0.174   8.845  0.0901  1.2396  1.5634
  143ccc     H4 3838   5.197  -0.131   8.822 -1.2231 -0.3349  1.5000
  143ccc     H5 3839   5.382   0.000   8.951 -2.0711 -1.1916 -0.1381
  143ccc     O1 3840   5.377   0.211   8.987  0.1409 -0.2063 -0.4041
  143ccc     O2 3841   5.144   0.056   9.018  0.2509  0.1283 -0.7795
  143ccc     O3 3842   5.030  -0.037   8.753  0.4722  0.6134 -0.4373
  143ccc     O4 3843   5.190   0.118   8.578  0.2002  0.2270 -0.2900
  143ccc     C6 3844   5.470   0.059   8.543  0.4868 -0.9602  0.0535
  143ccc     H6 3845   4.987  -0.079   8.829  0.5839  0.1703 -0.6167
  143ccc     H7 3846   5.273   0.161   8.551  1.3227 -0.0963  2.3021
  143ccc     H8 3847   5.204   0.091   9.087  0.1176  0.2661 -0.7320
  143ccc     H9 3848   5.433  -0.009   8.466  1.1252  1.0594 -2.1391
  143ccc    H10 3849   5.578   0.039   8.544  0.8086  0.6462  1.5439
  143ccc     O5 3850   5.435   0.186   8.489  0.5114  0.2105  0.4567
  143ccc    H11 3851   5.466   0.179   8.397 -0.9427  0.9423 -0.1110
  143ccc     O6 3852   5.425   0.119   8.775  0.1060  0.2342 -0.2803
  144ccc     C1 3853   5.786   0.860   9.658 -0.3687 -0.1593  0.2132
  144ccc     C2 3854   5.816   0.997   9.720  0.6276 -0.6784 -0.8060
  144ccc     H1 3855   5.839   0.846   9.562 -1.4126 -2.8224 -0.0652
  144ccc     H2 3856   5.923   1.019   9.724  0.2676  1.0573 -0.1642
  144ccc     C3 3857   5.752   1.118   9.640  0.4546 -0.2536 -0.1283
  144ccc     C4 3858   5.604   1.086   9.598 -0.5829  0.3741  0.7132
  144ccc     C5 3859   5.599   0.951   9.524 -0.0360 -0.3108  0.2860
  144ccc     H3 3860   5.542   1.080   9.689 -2.3939 -0.6377 -0.5127
  144ccc     H4 3861   5.818   1.133   9.553  2.2967 -1.1817  1.0360
  144ccc     H5 3862   5.662   0.959   9.435  1.2387  1.3269  1.3007
  144ccc     O1 3863   5.463   0.913   9.474  0.1974 -0.1204  0.1706
  144ccc     O2 3864   5.567   1.195   9.513  0.4633 -0.7421  0.2725
  144ccc     O3 3865   5.767   1.231   9.728 -0.1062 -0.1039  0.1613
  144ccc     O4 3866   5.763   1.013   9.846  0.5198  0.0439  0.1714
  144ccc     C6 3867   5.823   0.733   9.743 -0.8100  0.3798 -0.0223
  144ccc     H6 3868   5.735   1.304   9.673 -2.0942  0.1226  1.5143
  144ccc     H7 3869   5.773   1.110   9.853 -1.0886  0.1375  2.5969
  144ccc     H8 3870   5.470   1.206   9.509  0.5277 -0.4593 -0.7448
  144ccc     H9 3871   5.752   0.705   9.821 -0.2543 -2.9320 -0.5514
  144ccc    H10 3872   5.908   0.769   9.803 -0.9947  1.5129 -0.4302
  144ccc     O5 3873   5.848   0.623   9.655  0.0251 -0.9602 -0.2715
  144ccc    H11 3874   5.855   0.553   9.723 -0.7831  0.4664  1.3359
  144ccc     O6 3875   5.643   0.852   9.618 -0.2521 -0.1238 -0.1231
  145ccc     C1 3876   4.287  -0.241  10.780  0.1799  0.0609  0.7420
  145ccc     C2 3877   4.255  -0.388  10.741  0.3915 -0.6989  0.2077
  145ccc     H1 3878   4.227  -0.219  10.869  1.5533 -0.3143  1.7865
  145ccc     H2 3879   4.262  -0.445  10.834  0.2385 -0.1666  0.5495
  145ccc     C3 3880   4.109  -0.402  10.687 -0.0838 -1.1935 -0.3987
  145ccc     C4 3881   4.076  -0.295  10.581  0.6505  0.2842 -0.2833
  145ccc     C5 3882   4.117  -0.153  10.625  0.1632 -0.6600  0.3681
  145ccc     H3 3883   4.124  -0.326  10.487 -1.1427  0.6682 -1.3790
  145ccc     H4 3884   4.047  -0.370  10.772 -0.3524 -0.0824 -0.9945
  145ccc     H5 3885   4.055  -0.119  10.708 -1.0294 -2.4095  0.2504
  145ccc     O1 3886   4.108  -0.061  10.507 -0.2590 -0.1559 -0.5068
  145ccc     O2 3887   3.934  -0.302  10.550 -0.2092  0.3218 -0.1911
  145ccc     O3 3888   4.063  -0.526  10.637 -0.1370 -0.1034 -0.3989
  145ccc     O4 3889   4.350  -0.422  10.643 -0.1760 -0.0994 -0.0147
  145ccc     C6 3890   4.437  -0.225  10.822  0.4619 -0.1318  0.2681
  145ccc     H6 3891   3.967  -0.520  10.620 -0.2425 -0.5201  0.0223
  145ccc     H7 3892   4.417  -0.353  10.658 -0.1266 -0.4617  1.7023
  145ccc     H8 3893   3.920  -0.246  10.472  0.8889  0.8868 -0.0114
  145ccc     H9 3894   4.452  -0.295  10.905  1.5334  0.2614  0.4225
  145ccc    H10 3895   4.448  -0.125  10.865 -0.3555  0.7095 -1.3818
  145ccc     O5 3896   4.529  -0.237  10.708 -0.1973 -0.1396 -0.1046
  145ccc    H11 3897   4.615  -0.211  10.744 -0.5327  0.7262  0.1003
  145ccc     O6 3898   4.258  -0.152  10.670  1.0007 -0.0102 -0.2680
  146ccc     C1 3899   4.031   1.034  10.187  0.9414 -0.4443  0.0115
  146ccc     C2 3900   3.952   1.147  10.107  0.2301  0.3152 -0.4647
  146ccc     H1 3901   4.117   1.002  10.127  0.5900 -1.2658 -0.0601
  146ccc     H2 3902   4.010   1.236  10.076 -2.2565  1.7135 -1.3805
  146ccc     C3 3903   3.911   1.086   9.975  0.4056  0.3815  0.1606
  146ccc     C4 3904   3.832   0.945   9.995  0.4251 -0.4106 -0.3899
  146ccc     C5 3905   3.926   0.850  10.081  0.2054  0.0881  0.1165
  146ccc     H3 3906   3.735   0.958  10.044 -0.1783 -4.4006 -0.1498
  146ccc     H4 3907   3.997   1.062   9.912  0.5381  1.0069  0.0980
  146ccc     H5 3908   4.021   0.826  10.033 -0.3124 -0.3708 -0.6932
  146ccc     O1 3909   3.857   0.727  10.103  0.3087  0.1447 -0.5019
  146ccc     O2 3910   3.802   0.906   9.860 -0.0334  0.1407  0.2419
  146ccc     O3 3911   3.828   1.168   9.892 -0.2590  0.0744 -0.4805
  146ccc     O4 3912   3.836   1.184  10.182 -0.0954  0.1269  0.3165
  146ccc     C6 3913   4.069   1.072  10.333  0.3441  0.2845 -0.8750
  146ccc     H6 3914   3.789   1.109   9.826 -0.6460 -1.1869  0.8280
  146ccc     H7 3915   3.776   1.232  10.122  1.6751  1.3218 -0.6086
  146ccc     H8 3916   3.750   0.824   9.872 -0.2515  0.5865  3.0567
  146ccc     H9 3917   4.153   1.142  10.332  1.0521 -0.5432 -0.8390
  146ccc    H10 3918   4.093   0.974  10.375 -0.2909 -0.4000 -2.0476
  146ccc     O5 3919   3.953   1.129  10.404  0.2455 -0.0495  0.1078
  146ccc    H11 3920   3.898   1.145  10.326 -0.7433 -0.8669  0.6180
  146ccc     O6 3921   3.951   0.918  10.200 -0.7430  0.2350 -0.3188
  147ccc     C1 3922   5.688   0.534  10.484  0.0279 -0.3976 -0.3225
  147ccc     C2 3923   5.632   0.574  10.621  0.2086 -0.5198 -0.2038
  147ccc     H1 3924   5.679   0.628  10.428  0.6995  0.4661  0.9812
  147ccc     H2 3925   5.688   0.662  10.654  1.0583 -1.8930  2.2520
  147ccc     C3 3926   5.479   0.603  10.613 -0.4343 -0.7683  0.0866
  147ccc     C4 3927   5.397   0.488  10.541 -0.7800 -0.3947 -0.1200
  147ccc     C5 3928   5.470   0.465  10.407  0.3613 -0.0697 -0.4247
  147ccc     H3 3929   5.400   0.401  10.608 -0.9335  0.2087  0.6866
  147ccc     H4 3930   5.466   0.686  10.542 -0.3360 -1.0178 -0.2251
  147ccc     H5 3931   5.462   0.555  10.346  2.2369  0.8324  0.5575
  147ccc     O1 3932   5.399   0.360  10.333  0.2489 -0.3960 -0.9535
  147ccc     O2 3933   5.258   0.526  10.516 -0.0880  0.1848  0.1057
  147ccc     O3 3934   5.424   0.649  10.739 -0.5536 -0.2406  0.1034
  147ccc     O4 3935   5.658   0.470  10.708  0.1597  0.2029  0.4329
  147ccc     C6 3936   5.834   0.506  10.495  0.6499  0.2764 -0.3267
  147ccc     H6 3937   5.490   0.711  10.776  0.1151  0.8680 -2.7024
  147ccc     H7 3938   5.643   0.509  10.796  1.8941  3.8011 -0.7063
  147ccc     H8 3939   5.219   0.561  10.598  2.0393  1.0032  0.8254
  147ccc     H9 3940   5.862   0.410  10.540 -0.0888 -0.1589 -0.7682
  147ccc    H10 3941   5.890   0.580  10.554  1.5939 -2.3217  2.2964
  147ccc     O5 3942   5.882   0.508  10.356  0.2540  0.8047  0.5009
  147ccc    H11 3943   5.837   0.435  10.310  1.2121  0.4927  0.0248
  147ccc     O6 3944   5.607   0.426  10.430  0.1842 -0.1814 -0.0102
  148ccc     C1 3945   5.457   0.193   9.351 -0.5128 -0.5932  0.6413
  148ccc     C2 3946   5.606   0.236   9.350 -0.1054 -0.1530  0.8808
  148ccc     H1 3947   5.404   0.276   9.303 -1.2369 -0.7715  1.1157
  148ccc     H2 3948   5.643   0.243   9.247  3.9025  0.7584  2.1828
  148ccc     C3 3949   5.616   0.379   9.409  0.3264 -0.5018 -0.2523
  148ccc     C4 3950   5.558   0.388   9.554 -0.6214  0.2031  0.8640
  148ccc     C5 3951   5.410   0.330   9.555  0.1509  0.5069 -0.1795
  148ccc     H3 3952   5.619   0.320   9.615 -1.2995 -0.0230  1.3036
  148ccc     H4 3953   5.546   0.444   9.356 -1.5356 -1.2569  1.1590
  148ccc     H5 3954   5.357   0.395   9.484  1.3778  0.3910 -1.2330
  148ccc     O1 3955   5.350   0.314   9.685  0.1721 -0.7963  0.0434
  148ccc     O2 3956   5.571   0.520   9.611  0.2676 -0.0370  0.0511
  148ccc     O3 3957   5.754   0.423   9.418  0.1491 -0.6430  0.0032
  148ccc     O4 3958   5.687   0.150   9.426 -0.5921  0.1082 -0.6271
  148ccc     C6 3959   5.444   0.059   9.277 -0.0272  0.2483  0.1924
  148ccc     H6 3960   5.801   0.360   9.474  0.5141 -1.3573 -1.0683
  148ccc     H7 3961   5.718   0.090   9.355  0.9259 -0.8449  0.7818
  148ccc     H8 3962   5.656   0.551   9.574  0.0622  0.1254 -0.2961
  148ccc     H9 3963   5.477  -0.029   9.334  0.8202 -1.5900 -2.9160
  148ccc    H10 3964   5.505   0.058   9.187  2.2603 -1.3343  1.6586
  148ccc     O5 3965   5.313   0.039   9.230  0.0776 -0.4449  0.1650
  148ccc    H11 3966   5.266   0.024   9.314 -1.9931 -1.3770 -1.0692
  148ccc     O6 3967   5.407   0.196   9.481 -0.3489  0.5136  0.1895
  149ccc     C1 3968   3.955  -0.106  11.658  0.3147 -0.0957 -0.2701
  149ccc     C2 3969   3.838  -0.144  11.759  0.7407 -0.2311  0.2965
  149ccc     H1 3970   4.040  -0.054  11.703  1.0922 -0.6118 -1.1204
  149ccc     H2 3971   3.881  -0.205  11.839  0.1921  0.9099  1.4823
  149ccc     C3 3972   3.766  -0.029  11.829 -0.1139  0.3943 -0.2221
  149ccc     C4 3973   3.718   0.071  11.728 -0.8757 -0.3025 -0.6030
  149ccc     C5 3974   3.828   0.108  11.627 -0.3295  0.0726  0.4973
  149ccc     H3 3975   3.632   0.031  11.673 -1.5159  1.2520 -0.7974
  149ccc     H4 3976   3.849   0.024  11.878 -0.8282  1.3311  0.0105
  149ccc     H5 3977   3.904   0.166  11.681  1.2038 -0.6670 -0.7842
  149ccc     O1 3978   3.775   0.189  11.522  0.3455 -0.0176  0.1024
  149ccc     O2 3979   3.677   0.190  11.792 -0.6203 -0.3127 -0.2804
  149ccc     O3 3980   3.666  -0.058  11.930  0.1181 -0.3177 -0.4325
  149ccc     O4 3981   3.752  -0.230  11.690  0.7778 -0.5487  0.4790
  149ccc     C6 3982   4.013  -0.219  11.566 -0.3192  0.7857 -0.0331
  149ccc     H6 3983   3.703  -0.094  12.013  2.7598  0.9592 -0.9413
  149ccc     H7 3984   3.815  -0.250  11.619  1.4975  0.4036  0.8311
  149ccc     H8 3985   3.600   0.164  11.846 -1.2690 -1.3907 -1.6526
  149ccc     H9 3986   4.078  -0.291  11.616 -0.7624 -0.5027 -1.2301
  149ccc    H10 3987   4.073  -0.167  11.490  2.4818 -0.0525  1.4836
  149ccc     O5 3988   3.908  -0.292  11.510 -0.1146 -0.4024 -0.0397
  149ccc    H11 3989   3.955  -0.358  11.456  0.7121  0.6684 -0.7002
  149ccc     O6 3990   3.892  -0.016  11.568 -0.2776  0.0687 -0.4089
  150ccc     C1 3991   3.930   1.251  11.248 -0.7678  0.4234 -0.8452
  150ccc     C2 3992   3.897   1.353  11.140  0.3404 -0.4782  0.1729
  150ccc     H1 3993   4.036   1.253  11.279 -1.3210  0.1151  1.1634
  150ccc     H2 3994   3.925   1.454  11.176 -0.3381 -0.0949 -0.3621
  150ccc     C3 3995   3.980   1.315  11.011  0.0947 -1.3157 -0.8454
  150ccc     C4 3996   3.967   1.164  10.968  0.2019  0.4903 -0.1868
  150ccc     C5 3997   3.974   1.065  11.088 -0.0349 -0.1880 -0.0246
  150ccc     H3 3998   3.864   1.150  10.933 -0.2129  2.3627  0.2021
  150ccc     H4 3999   4.085   1.334  11.036  0.5068  1.0759 -3.8406
  150ccc     H5 4000   4.078   1.043  11.116 -0.0676 -2.0476 -1.2059
  150ccc     O1 4001   3.913   0.938  11.056 -0.1315 -0.5741  0.6569
  150ccc     O2 4002   4.072   1.132  10.874  0.0574  0.6069  0.6629
  150ccc     O3 4003   3.943   1.412  10.909  0.6717  0.3368 -0.4964
  150ccc     O4 4004   3.762   1.342  11.102  0.2117  0.0370 -0.1378
  150ccc     C6 4005   3.841   1.257  11.371 -0.2048  0.6780 -0.5119
  150ccc     H6 4006   4.005   1.399  10.835  0.7672 -2.4271 -0.0424
  150ccc     H7 4007   3.760   1.365  11.007 -1.3772 -1.4924 -0.5164
  150ccc     H8 4008   4.020   1.100  10.798 -0.9292  0.4562  1.3775
  150ccc     H9 4009   3.739   1.276  11.334  0.1341 -1.0457 -2.5455
  150ccc    H10 4010   3.873   1.337  11.438  0.1068 -0.7334  1.0757
  150ccc     O5 4011   3.849   1.133  11.438  0.3383 -0.2970  0.5226
  150ccc    H11 4012   3.852   1.067  11.366 -2.7773  0.6628 -0.6207
  150ccc     O6 4013   3.900   1.117  11.203 -0.0131 -0.0604 -0.4748
  151ccc     C1 4014   6.308   0.199  10.849 -0.2177 -0.8675 -0.1617
  151ccc     C2 4015   6.273   0.084  10.751 -0.6140 -0.1098 -0.7982
  151ccc     H1 4016   6.214   0.224  10.899 -0.1449 -0.7243 -0.0986
  151ccc     H2 4017   6.222   0.004  10.806  0.6761 -0.3467  0.0951
  151ccc     C3 4018   6.189   0.136  10.631  0.0578 -0.4946 -0.2035
  151ccc     C4 4019   6.251   0.257  10.562 -0.2305 -0.2492  0.5374
  151ccc     C5 4020   6.286   0.370  10.664 -0.5175  0.1789 -0.1443
  151ccc     H3 4021   6.347   0.225  10.520 -0.2505  1.6392 -1.0972
  151ccc     H4 4022   6.089   0.163  10.668  0.2886  0.5955 -0.3362
  151ccc     H5 4023   6.201   0.431  10.696 -0.1978  2.0910 -2.6728
  151ccc     O1 4024   6.372   0.468  10.601  0.2119  0.3232  0.2548
  151ccc     O2 4025   6.169   0.310  10.454 -0.3734  0.1704 -0.6572
  151ccc     O3 4026   6.173   0.029  10.539  0.2209  0.3163  0.7803
  151ccc     O4 4027   6.399   0.037  10.710  0.4750 -0.1135  0.5109
  151ccc     C6 4028   6.410   0.177  10.964 -0.0133  0.4483  0.3556
  151ccc     H6 4029   6.248  -0.031  10.550  0.4572  0.4152 -0.2287
  151ccc     H7 4030   6.401  -0.056  10.740 -1.6717 -0.2148  0.4984
  151ccc     H8 4031   6.091   0.254  10.441 -0.6427  0.3386  0.1706
  151ccc     H9 4032   6.502   0.139  10.919  0.0844  1.6833 -0.5337
  151ccc    H10 4033   6.373   0.099  11.032  0.2283 -0.3298 -0.3827
  151ccc     O5 4034   6.435   0.293  11.036 -0.5495  0.0347 -0.4625
  151ccc    H11 4035   6.353   0.337  11.065  0.8404  0.9529  2.4525
  151ccc     O6 4036   6.363   0.315  10.778  0.2806  0.0104  0.2822
  152ccc     C1 4037   5.636   1.075  10.416 -0.0797 -0.1639 -0.1858
  152ccc     C2 4038   5.599   0.985  10.300  0.1015  0.8176 -0.4743
  152ccc     H1 4039   5.635   1.176  10.373 -1.3672  1.3520  3.0479
  152ccc     H2 4040   5.503   1.016  10.256 -0.7286 -0.6516  0.1933
  152ccc     C3 4041   5.698   1.002  10.183  0.1279 -0.0762 -0.5170
  152ccc     C4 4042   5.847   0.976  10.237  0.9577 -0.2632 -0.7527
  152ccc     C5 4043   5.873   1.078  10.356  0.2094  0.7910  0.0055
  152ccc     H3 4044   5.860   0.873  10.273 -0.1442 -0.4898 -0.9758
  152ccc     H4 4045   5.685   1.108  10.161 -1.8930  0.3094  1.9824
  152ccc     H5 4046   5.869   1.176  10.307 -1.0386  0.3642 -0.8100
  152ccc     O1 4047   6.002   1.052  10.409  0.3706  0.0136 -0.1113
  152ccc     O2 4048   5.936   1.021  10.125 -0.1885  0.2479 -0.4725
  152ccc     O3 4049   5.659   0.916  10.075  0.1136 -0.1975 -0.1049
  152ccc     O4 4050   5.586   0.844  10.343  0.2516 -0.1157  0.1059
  152ccc     C6 4051   5.534   1.080  10.529 -0.0262 -0.2798  0.0028
  152ccc     H6 4052   5.709   0.938   9.994 -0.7403 -2.8161 -1.4737
  152ccc     H7 4053   5.541   0.794  10.273  1.0658 -0.5067 -0.1562
  152ccc     H8 4054   6.007   0.955  10.130  0.2936  0.6802 -1.3569
  152ccc     H9 4055   5.437   1.119  10.494  0.1550  0.5863  0.4247
  152ccc    H10 4056   5.569   1.142  10.613 -2.5958  0.8082  0.3558
  152ccc     O5 4057   5.527   0.948  10.569  0.2756 -0.2369 -0.0558
  152ccc    H11 4058   5.542   0.896  10.488 -1.7045 -3.0329  1.1861
  152ccc     O6 4059   5.775   1.060  10.462  0.4767 -0.5278 -0.0117
  153ccc     C1 4060   5.846   0.897  11.151  0.4428 -0.1002  0.3587
  153ccc     C2 4061   5.847   0.767  11.084  0.5189  0.5284  0.5846
  153ccc     H1 4062   5.757   0.888  11.214  0.1728 -2.1016 -0.2515
  153ccc     H2 4063   5.853   0.686  11.158 -0.5950  0.6838  0.8622
  153ccc     C3 4064   5.706   0.739  11.012 -0.2597  0.2896  0.1019
  153ccc     C4 4065   5.690   0.855  10.905  0.2488 -0.7388 -0.3803
  153ccc     C5 4066   5.696   0.996  10.982 -0.2666  0.0255  0.6431
  153ccc     H3 4067   5.777   0.852  10.838  2.5973 -0.2298  2.4463
  153ccc     H4 4068   5.628   0.755  11.088 -1.0558 -0.9459 -0.4294
  153ccc     H5 4069   5.603   1.009  11.039  0.5231  1.2957  1.6918
  153ccc     O1 4070   5.698   1.106  10.880  0.7770 -0.2866 -0.4900
  153ccc     O2 4071   5.557   0.844  10.842  0.1833  0.0617 -0.4960
  153ccc     O3 4072   5.692   0.615  10.942 -0.1228  0.8455 -0.6764
  153ccc     O4 4073   5.960   0.767  10.995  0.2406  0.0426 -0.0233
  153ccc     C6 4074   5.974   0.922  11.238  0.3490 -0.2483 -0.8630
  153ccc     H6 4075   5.696   0.541  11.004  3.5633 -0.9742 -2.7926
  153ccc     H7 4076   6.020   0.826  11.042 -0.9309  0.5192  0.9277
  153ccc     H8 4077   5.555   0.907  10.768  0.4619  0.4572 -0.1700
  153ccc     H9 4078   5.970   0.857  11.326 -0.4899  2.4291  1.2100
  153ccc    H10 4079   5.974   1.020  11.286 -0.1016 -0.5553 -0.2337
  153ccc     O5 4080   6.089   0.900  11.164 -1.2359 -0.0668  0.2700
  153ccc    H11 4081   6.159   0.949  11.210 -1.4398 -0.2872  0.8217
  153ccc     O6 4082   5.819   1.008  11.060  0.4279 -0.3827 -0.3677
  154ccc     C1 4083   6.264   1.378  10.070  0.3592 -0.1701  0.1516
  154ccc     C2 4084   6.215   1.364   9.925 -0.1309  0.5850 -1.0852
  154ccc     H1 4085   6.289   1.276  10.102 -1.6899 -0.5812  0.5526
  154ccc     H2 4086   6.291   1.312   9.866  0.7165  0.6436 -0.0833
  154ccc     C3 4087   6.076   1.291   9.899  1.1201  0.0297 -0.6408
  154ccc     C4 4088   5.977   1.330  10.009  0.7977  0.4435  0.4803
  154ccc     C5 4089   6.040   1.331  10.154 -0.0992 -0.3020  0.2164
  154ccc     H3 4090   5.960   1.433   9.977 -1.7536 -0.0077  0.1825
  154ccc     H4 4091   6.095   1.183   9.902  1.3779  0.0911  1.3492
  154ccc     H5 4092   6.069   1.230  10.183  0.4640 -0.5385 -1.1167
  154ccc     O1 4093   5.940   1.380  10.251  0.6178  0.3224 -0.3256
  154ccc     O2 4094   5.851   1.249  10.010  0.4815 -0.8698 -0.0300
  154ccc     O3 4095   6.012   1.323   9.773 -0.6216 -0.7055  0.4651
  154ccc     O4 4096   6.198   1.495   9.865 -0.2947  0.2087  0.1448
  154ccc     C6 4097   6.383   1.465  10.080 -0.0563  1.1300  0.4241
  154ccc     H6 4098   5.918   1.296   9.767 -0.2831 -2.1225  1.1608
  154ccc     H7 4099   6.170   1.485   9.773 -1.9759  0.8430  0.5358
  154ccc     H8 4100   5.881   1.160  10.034 -1.4044 -1.3446  0.7990
  154ccc     H9 4101   6.351   1.569  10.091 -3.2912  0.2209  0.8641
  154ccc    H10 4102   6.439   1.440   9.990 -3.2161  0.3295 -1.4848
  154ccc     O5 4103   6.458   1.422  10.200  0.2766 -0.2186 -0.2991
  154ccc    H11 4104   6.513   1.499  10.222  0.8483 -0.3118 -1.3165
  154ccc     O6 4105   6.152   1.421  10.148  0.3042  0.6240 -0.0031
  155ccc     C1 4106   5.661   0.159  11.128  0.2317  0.8332 -0.0068
  155ccc     C2 4107   5.604   0.020  11.086  0.3149  0.3355 -0.2824
  155ccc     H1 4108   5.767   0.157  11.101  0.3354  1.2039  0.3717
  155ccc     H2 4109   5.621  -0.001  10.980 -0.4385 -1.4130 -0.0987
  155ccc     C3 4110   5.670  -0.103  11.161 -0.1606 -0.5314  0.7869
  155ccc     C4 4111   5.678  -0.075  11.313  0.0986 -0.5106  0.0367
  155ccc     C5 4112   5.739   0.067  11.334  0.0156  0.3407 -0.4616
  155ccc     H3 4113   5.576  -0.068  11.351 -0.4108 -1.5755 -1.0699
  155ccc     H4 4114   5.775  -0.108  11.130 -0.6206 -0.0030 -0.9496
  155ccc     H5 4115   5.839   0.068  11.288 -1.7133  4.6966 -5.1204
  155ccc     O1 4116   5.730   0.107  11.471  0.5538  0.4843 -0.2574
  155ccc     O2 4117   5.748  -0.184  11.376  0.0459 -0.1787  0.1363
  155ccc     O3 4118   5.602  -0.227  11.131  0.3705  0.3379 -0.4023
  155ccc     O4 4119   5.467   0.033  11.113  0.0049 -0.4481 -0.0774
  155ccc     C6 4120   5.601   0.283  11.068 -0.4525  0.0556  1.1561
  155ccc     H6 4121   5.658  -0.301  11.161 -1.0623 -1.2188 -1.3822
  155ccc     H7 4122   5.435  -0.040  11.057 -1.3188  0.2285 -0.2458
  155ccc     H8 4123   5.705  -0.211  11.459 -0.8965  0.5083 -0.1152
  155ccc     H9 4124   5.495   0.301  11.087 -0.3075  1.0438  1.0582
  155ccc    H10 4125   5.589   0.268  10.960 -0.7368 -2.3980  1.4695
  155ccc     O5 4126   5.680   0.402  11.105 -0.2465  0.2003  0.5185
  155ccc    H11 4127   5.748   0.381  11.171  3.6693  2.8348 -2.2628
  155ccc     O6 4128   5.658   0.171  11.272  0.2006  0.1410  0.1012
  156ccc     C1 4129   6.312   0.910  11.487 -0.0659  0.4699 -0.2708
  156ccc     C2 4130   6.370   1.006  11.383  0.2926 -0.4749  0.6887
  156ccc     H1 4131   6.394   0.879  11.552  0.1054 -0.5877 -0.9605
  156ccc     H2 4132   6.409   1.093  11.436 -0.4407 -0.5721  1.3937
  156ccc     C3 4133   6.485   0.935  11.300 -0.1543  0.8419  0.2634
  156ccc     C4 4134   6.443   0.793  11.248  0.2197 -0.6040  1.0835
  156ccc     C5 4135   6.369   0.714  11.362  0.1763 -0.0212 -0.0935
  156ccc     H3 4136   6.368   0.805  11.169  1.9250  1.3352 -0.3614
  156ccc     H4 4137   6.560   0.909  11.375  0.1177 -0.5118 -0.4510
  156ccc     H5 4138   6.431   0.687  11.447 -3.5034 -0.7966  2.6159
  156ccc     O1 4139   6.331   0.585  11.308 -0.3915 -0.3369  0.7361
  156ccc     O2 4140   6.567   0.722  11.202  0.2338 -0.1586 -0.5174
  156ccc     O3 4141   6.539   1.020  11.196  0.1208  0.3033  0.5178
  156ccc     O4 4142   6.263   1.054  11.302 -0.0114  0.5070  0.4868
  156ccc     C6 4143   6.207   0.970  11.583  0.2688 -0.5482 -0.4130
  156ccc     H6 4144   6.608   0.981  11.139 -0.8784  1.3295 -1.5336
  156ccc     H7 4145   6.293   1.131  11.251 -2.7675  0.7741 -0.9294
  156ccc     H8 4146   6.553   0.712  11.106 -0.1838 -1.7965 -0.3135
  156ccc     H9 4147   6.106   0.949  11.546 -0.0437  3.0942 -2.0425
  156ccc    H10 4148   6.220   1.078  11.594  0.0671 -0.4919 -0.7241
  156ccc     O5 4149   6.231   0.928  11.722 -0.3013  0.8495  0.0114
  156ccc    H11 4150   6.218   0.832  11.715  1.6531  0.4434  1.2908
  156ccc     O6 4151   6.258   0.789  11.422 -0.3556  1.1429  0.4362
  157ccc     C1 4152   5.621  -0.285  12.203  0.0317 -0.0662 -0.0143
  157ccc     C2 4153   5.726  -0.394  12.192 -0.1921 -0.3852 -0.0817
  157ccc     H1 4154   5.527  -0.320  12.159 -0.5348  0.2809  0.9036
  157ccc     H2 4155   5.698  -0.482  12.251  1.6737  0.4461  2.1930
  157ccc     C3 4156   5.753  -0.427  12.045 -0.4640  0.5214 -0.7525
  157ccc     C4 4157   5.779  -0.311  11.952  0.1886  0.3636  0.1956
  157ccc     C5 4158   5.668  -0.207  11.986 -0.5443  0.4254  0.0130
  157ccc     H3 4159   5.871  -0.263  11.986  2.0140 -1.5728 -1.7488
  157ccc     H4 4160   5.668  -0.480  12.000  1.4916 -1.4336 -2.3713
  157ccc     H5 4161   5.570  -0.236  11.947  0.0640 -3.1955  0.8221
  157ccc     O1 4162   5.699  -0.080  11.919  0.2345  0.1533  0.1416
  157ccc     O2 4163   5.790  -0.370  11.814  0.0631 -0.2118 -0.2202
  157ccc     O3 4164   5.875  -0.508  12.031  0.0226  0.3032  0.0381
  157ccc     O4 4165   5.847  -0.333  12.244  0.1751  0.4979  0.3017
  157ccc     C6 4166   5.589  -0.251  12.351 -0.6827 -0.4947 -0.2731
  157ccc     H6 4167   5.857  -0.560  11.951 -1.7050  1.9744 -0.7168
  157ccc     H7 4168   5.812  -0.275  12.314 -0.6517 -0.4327  0.6910
  157ccc     H8 4169   5.884  -0.395  11.802  0.1564  0.3964 -0.8504
  157ccc     H9 4170   5.535  -0.332  12.400  0.7116 -0.5354  1.2723
  157ccc    H10 4171   5.529  -0.159  12.352  1.0243  0.7056  1.7981
  157ccc     O5 4172   5.707  -0.218  12.419 -0.6431 -0.2881 -0.7906
  157ccc    H11 4173   5.682  -0.186  12.508 -0.9171  0.5076 -1.1466
  157ccc     O6 4174   5.662  -0.177  12.131 -0.3320 -0.4458  0.3394
  158ccc     C1 4175   6.279   0.574  12.115 -0.5166 -0.4209 -0.3721
  158ccc     C2 4176   6.308   0.599  12.267 -0.2291  0.0249  1.1039
  158ccc     H1 4177   6.319   0.657  12.056 -3.0738  0.6568 -0.7249
  158ccc     H2 4178   6.416   0.612  12.278  0.0647 -0.4275 -0.9446
  158ccc     C3 4179   6.224   0.713  12.332  0.5181 -0.1160  0.9633
  158ccc     C4 4180   6.072   0.702  12.283 -0.5478 -0.2902 -0.1782
  158ccc     C5 4181   6.067   0.682  12.124 -0.3679  0.0680  0.7800
  158ccc     H3 4182   6.040   0.606  12.325  0.7978  0.1571  1.9965
  158ccc     H4 4183   6.263   0.805  12.286  0.0958  0.7044  2.1793
  158ccc     H5 4184   6.113   0.759  12.062 -1.1573 -1.7319 -2.2269
  158ccc     O1 4185   5.931   0.669  12.095  0.6476 -0.1822 -0.0504
  158ccc     O2 4186   5.991   0.814  12.334  0.4342  0.6829 -0.1457
  158ccc     O3 4187   6.242   0.719  12.478  0.2157  0.4080  0.2883
  158ccc     O4 4188   6.262   0.484  12.334 -0.5673  0.1217  0.2066
  158ccc     C6 4189   6.345   0.447  12.056 -0.2320  0.4223 -0.0773
  158ccc     H6 4190   6.188   0.794  12.509  0.2356 -0.3923  2.4124
  158ccc     H7 4191   6.284   0.415  12.270  1.1297  2.1358 -1.5370
  158ccc     H8 4192   5.908   0.817  12.284  0.3452  0.8970  0.0215
  158ccc     H9 4193   6.454   0.460  12.058  0.3330 -3.2205 -0.0007
  158ccc    H10 4194   6.321   0.453  11.950  0.8001 -1.7197 -0.4915
  158ccc     O5 4195   6.299   0.326  12.126 -0.1550 -0.1343 -0.2950
  158ccc    H11 4196   6.282   0.262  12.055  2.3993 -0.4735 -0.6831
  158ccc     O6 4197   6.137   0.561  12.097  0.0354  0.0416  0.1673
  159ccc     C1 4198   2.434   0.335  12.362  1.1411 -0.1791  0.1498
  159ccc     C2 4199   2.399   0.420  12.484  0.9484 -0.8521  0.8436
  159ccc     H1 4200   2.483   0.248  12.406  1.3006  0.9639  2.3393
  159ccc     H2 4201   2.331   0.373  12.557  1.8366 -1.3298  1.3775
  159ccc     C3 4202   2.528   0.445  12.561 -0.5785  0.0394  0.5202
  159ccc     C4 4203   2.626   0.516  12.473 -0.7818 -1.3279  0.1150
  159ccc     C5 4204   2.660   0.431  12.353 -0.4492  0.3470  0.3455
  159ccc     H3 4205   2.589   0.614  12.440  3.4315  0.6214  0.5705
  159ccc     H4 4206   2.559   0.344  12.589  0.1784  0.5148  1.4492
  159ccc     H5 4207   2.715   0.340  12.383 -2.1287 -0.5690  0.7866
  159ccc     O1 4208   2.728   0.523  12.273 -0.5338 -0.1264 -0.6722
  159ccc     O2 4209   2.749   0.540  12.562  0.3553  0.2473  0.6022
  159ccc     O3 4210   2.493   0.515  12.682 -0.3717 -0.1732  0.2673
  159ccc     O4 4211   2.340   0.543  12.441 -0.1945 -0.1617 -0.3552
  159ccc     C6 4212   2.320   0.293  12.267  0.1391 -0.0367  0.2049
  159ccc     H6 4213   2.579   0.547  12.715  0.1566 -1.1630 -0.1212
  159ccc     H7 4214   2.368   0.607  12.508 -1.6345  1.0064 -0.8250
  159ccc     H8 4215   2.738   0.633  12.589 -2.6086 -0.5408  2.5726
  159ccc     H9 4216   2.256   0.220  12.318  0.9388 -0.6997  0.2783
  159ccc    H10 4217   2.363   0.239  12.181 -0.7163 -0.4357  0.0214
  159ccc     O5 4218   2.246   0.407  12.227 -0.4156  0.1879 -0.0298
  159ccc    H11 4219   2.276   0.473  12.292 -1.7350 -0.2413  1.0701
  159ccc     O6 4220   2.535   0.407  12.285  0.5793  0.1964  0.3466
  160ccc     C1 4221   3.390   0.339  11.469  0.0581  0.2486 -0.6662
  160ccc     C2 4222   3.472   0.470  11.436 -0.5368 -0.3770  0.7593
  160ccc     H1 4223   3.389   0.285  11.374 -0.7509 -2.3627  0.7423
  160ccc     H2 4224   3.576   0.444  11.416 -0.2074 -0.9400  2.9825
  160ccc     C3 4225   3.400   0.545  11.321 -0.7105 -0.6548  0.0501
  160ccc     C4 4226   3.253   0.568  11.343 -0.2161  0.3076 -0.1923
  160ccc     C5 4227   3.180   0.440  11.404  0.5994  0.4580 -0.3932
  160ccc     H3 4228   3.250   0.643  11.423 -0.3021 -0.6209  0.6905
  160ccc     H4 4229   3.411   0.481  11.232  4.0248 -2.0830  1.3937
  160ccc     H5 4230   3.168   0.362  11.328  1.3713  0.0609 -0.1142
  160ccc     O1 4231   3.054   0.481  11.478 -0.2373  0.0048 -0.4281
  160ccc     O2 4232   3.186   0.618  11.230 -0.1617 -0.4487  0.4595
  160ccc     O3 4233   3.468   0.679  11.291  0.5315 -0.1630  0.2767
  160ccc     O4 4234   3.477   0.554  11.548 -0.2249  0.0781 -0.2533
  160ccc     C6 4235   3.456   0.260  11.580  0.1321  0.0185  0.4709
  160ccc     H6 4236   3.549   0.680  11.345  0.0446  2.9707  1.1498
  160ccc     H7 4237   3.547   0.519  11.606  0.0784  0.7577 -0.1884
  160ccc     H8 4238   3.229   0.703  11.210  2.2380 -1.4161  1.1506
  160ccc     H9 4239   3.457   0.313  11.676  0.3749 -1.0016  1.0420
  160ccc    H10 4240   3.560   0.257  11.542  0.6067 -1.3977  1.8044
  160ccc     O5 4241   3.402   0.130  11.583  0.3531  0.2206 -0.3185
  160ccc    H11 4242   3.306   0.142  11.598  0.6029  0.1509  1.6457
  160ccc     O6 4243   3.257   0.379  11.505 -0.0487 -0.5049 -0.5506
  161ccc     C1 4244   3.535   1.041  11.781 -0.2792 -0.1452  0.6162
  161ccc     C2 4245   3.631   1.024  11.651 -0.0552 -0.5504 -0.2329
  161ccc     H1 4246   3.496   0.940  11.795 -1.8481  0.0226 -1.9134
  161ccc     H2 4247   3.703   0.942  11.665 -2.1740 -2.6551 -0.8709
  161ccc     C3 4248   3.550   0.987  11.522  0.0619 -0.4708 -0.5197
  161ccc     C4 4249   3.425   1.074  11.512  0.2992  0.3798 -0.1591
  161ccc     C5 4250   3.340   1.075  11.638 -0.0784  0.2431 -0.3506
  161ccc     H3 4251   3.452   1.180  11.504  0.6760  0.2644 -0.4686
  161ccc     H4 4252   3.518   0.883  11.532 -0.9660 -0.4176 -2.6736
  161ccc     H5 4253   3.319   0.972  11.667  4.4932 -1.0519 -0.8249
  161ccc     O1 4254   3.225   1.160  11.611  0.1364  0.3733  0.1529
  161ccc     O2 4255   3.348   1.022  11.396 -0.1797 -0.1594  0.5077
  161ccc     O3 4256   3.627   0.990  11.399 -0.1166 -0.0651  0.2768
  161ccc     O4 4257   3.695   1.150  11.641 -0.6979 -0.1806  0.4404
  161ccc     C6 4258   3.600   1.087  11.911 -0.2971  0.1947 -0.3409
  161ccc     H6 4259   3.577   1.039  11.332 -0.4118 -1.2512 -0.3955
  161ccc     H7 4260   3.748   1.142  11.560  0.9825  2.0147  1.2317
  161ccc     H8 4261   3.301   1.105  11.379 -0.3110 -0.0243  1.4661
  161ccc     H9 4262   3.674   1.012  11.943  1.7603  0.6155 -3.7071
  161ccc    H10 4263   3.525   1.098  11.990 -0.7507 -1.7109 -0.4716
  161ccc     O5 4264   3.661   1.209  11.888 -0.2155  0.3341 -0.1129
  161ccc    H11 4265   3.680   1.199  11.793  0.6376  0.1720  0.0703
  161ccc     O6 4266   3.426   1.127  11.744 -0.8210 -0.3361 -0.7008
  162ccc     C1 4267   2.214   1.269  12.230 -1.1753  0.7248  0.0467
  162ccc     C2 4268   2.241   1.287  12.380  0.3835  0.0186 -0.0385
  162ccc     H1 4269   2.147   1.184  12.219 -0.8754  0.5484 -0.4760
  162ccc     H2 4270   2.145   1.273  12.432 -0.4795 -0.4169 -1.6799
  162ccc     C3 4271   2.318   1.169  12.435 -0.2358  0.4251 -0.8547
  162ccc     C4 4272   2.438   1.123  12.346  0.2467 -0.4365  0.0378
  162ccc     C5 4273   2.405   1.127  12.200  0.2277  0.0305  0.4590
  162ccc     H3 4274   2.520   1.194  12.358 -0.3400  0.0242  1.5797
  162ccc     H4 4275   2.243   1.089  12.444  0.4201 -0.2238 -1.1055
  162ccc     H5 4276   2.350   1.035  12.178  1.3170 -0.2894 -1.0853
  162ccc     O1 4277   2.524   1.116  12.121 -0.0949 -0.2931  0.1645
  162ccc     O2 4278   2.483   0.988  12.394  0.5332  0.1380  0.5538
  162ccc     O3 4279   2.367   1.207  12.569 -0.2620 -0.6533 -0.0293
  162ccc     O4 4280   2.311   1.412  12.408 -0.3026 -0.1467 -0.5566
  162ccc     C6 4281   2.144   1.390  12.155 -0.1980 -0.3474  0.5137
  162ccc     H6 4282   2.408   1.127  12.606 -0.8201 -1.7590 -1.6886
  162ccc     H7 4283   2.273   1.469  12.339 -0.5592  0.7511  0.3056
  162ccc     H8 4284   2.558   0.973  12.334 -0.8665 -1.6260 -0.8911
  162ccc     H9 4285   2.038   1.391  12.182 -0.3240  0.0381  0.0130
  162ccc    H10 4286   2.167   1.378  12.049  2.6320 -1.5631  1.1691
  162ccc     O5 4287   2.207   1.507  12.201 -0.2461  0.1548  0.5594
  162ccc    H11 4288   2.159   1.577  12.154 -2.2563 -0.7854  1.1198
  162ccc     O6 4289   2.338   1.242  12.157  0.5038 -0.5463  0.3056
  163ccc     C1 4290   3.506   0.546   9.451  0.1850 -0.2162  0.0512
  163ccc     C2 4291   3.556   0.689   9.440 -0.1443  0.1092  0.1376
  163ccc     H1 4292   3.408   0.548   9.500  0.4001  0.0515  0.4798
  163ccc     H2 4293   3.479   0.744   9.384 -0.4678 -0.5428 -0.0682
  163ccc     C3 4294   3.559   0.745   9.583 -0.1399 -0.5675 -0.7636
  163ccc     C4 4295   3.651   0.657   9.677  0.3743 -0.2327 -0.8525
  163ccc     C5 4296   3.617   0.512   9.666  0.2223  0.6251  0.3356
  163ccc     H3 4297   3.752   0.665   9.636  0.0957 -0.6808 -1.6448
  163ccc     H4 4298   3.459   0.741   9.627  0.8901 -0.9841  1.6999
  163ccc     H5 4299   3.537   0.484   9.737  1.2380 -0.9206  0.9388
  163ccc     O1 4300   3.735   0.442   9.720  0.1141  0.0086  0.4823
  163ccc     O2 4301   3.645   0.703   9.813 -0.0192 -0.4893  0.1606
  163ccc     O3 4302   3.607   0.882   9.575  0.5725 -0.5361 -0.0622
  163ccc     O4 4303   3.678   0.697   9.385 -0.5178  0.3014 -0.0059
  163ccc     C6 4304   3.492   0.470   9.316  0.0940 -0.6980 -0.1520
  163ccc     H6 4305   3.574   0.906   9.663 -2.0744  0.6703 -1.2819
  163ccc     H7 4306   3.699   0.791   9.404 -2.4706  1.3022 -2.2905
  163ccc     H8 4307   3.574   0.660   9.865  0.5186 -0.9883  0.4989
  163ccc     H9 4308   3.590   0.448   9.273 -0.0360 -0.8014 -0.3997
  163ccc    H10 4309   3.447   0.536   9.240  0.4450 -0.7044 -0.3671
  163ccc     O5 4310   3.419   0.363   9.338  0.5083 -0.0040 -0.0418
  163ccc    H11 4311   3.324   0.385   9.336  0.4555 -0.1296  0.9288
  163ccc     O6 4312   3.603   0.478   9.528  0.5902  0.1187 -0.4067
  164ccc     C1 4313   3.898  -0.409  10.085  0.8683 -0.6038 -0.4637
  164ccc     C2 4314   4.043  -0.420  10.136  0.3899 -0.0216 -0.3436
  164ccc     H1 4315   3.894  -0.423   9.977  0.8749 -0.8022 -0.4393
  164ccc     H2 4316   4.091  -0.512  10.100  0.6689  0.6627 -1.7999
  164ccc     C3 4317   4.124  -0.306  10.065 -0.6838 -0.1375 -0.1188
  164ccc     C4 4318   4.061  -0.174  10.107  0.1185 -0.6002 -0.0796
  164ccc     C5 4319   3.915  -0.168  10.058  0.3401 -0.2419 -0.6230
  164ccc     H3 4320   4.063  -0.170  10.216 -2.3471  0.2193  0.0117
  164ccc     H4 4321   4.113  -0.322   9.957  0.0349 -0.9547 -0.0785
  164ccc     H5 4322   3.891  -0.174   9.952  0.2813  0.1279 -0.6331
  164ccc     O1 4323   3.862  -0.044  10.101  0.3834  0.0942 -0.0191
  164ccc     O2 4324   4.136  -0.069  10.043 -0.0368  0.0155  0.5794
  164ccc     O3 4325   4.267  -0.318  10.096 -0.3279 -0.1804  0.8992
  164ccc     O4 4326   4.044  -0.407  10.277  0.1439 -0.2191 -0.2563
  164ccc     C6 4327   3.803  -0.506  10.155 -0.6218 -0.0587 -0.2574
  164ccc     H6 4328   4.288  -0.271  10.178 -0.4991 -0.7137  1.2504
  164ccc     H7 4329   3.953  -0.430  10.303  0.3483 -2.3973 -1.2029
  164ccc     H8 4330   4.226  -0.085  10.077  0.6381  0.6030 -0.8427
  164ccc     H9 4331   3.846  -0.607  10.151  0.5901  0.3779  1.0332
  164ccc    H10 4332   3.707  -0.510  10.102 -0.2672  0.6697 -0.9772
  164ccc     O5 4333   3.787  -0.465  10.292  0.1457  0.3325  0.3555
  164ccc    H11 4334   3.724  -0.392  10.292  0.6866  0.8180  0.8339
  164ccc     O6 4335   3.848  -0.278  10.114  0.6619  0.0928  0.1392
  165ccc     C1 4336   1.390   0.338   9.297 -0.5213 -0.4410 -0.0972
  165ccc     C2 4337   1.257   0.400   9.343  0.0516  0.1131  0.1711
  165ccc     H1 4338   1.375   0.230   9.313  0.0466 -0.7234 -1.3766
  165ccc     H2 4339   1.173   0.365   9.283 -0.8356  1.5545  0.5234
  165ccc     C3 4340   1.238   0.367   9.495  0.6731  0.2162  0.4122
  165ccc     C4 4341   1.358   0.419   9.581 -0.0921 -0.1223  0.2839
  165ccc     C5 4342   1.497   0.375   9.515  0.3008 -0.7186  0.2076
  165ccc     H3 4343   1.342   0.527   9.576  0.2661 -0.0520  0.6291
  165ccc     H4 4344   1.237   0.257   9.501  0.6774  0.0459 -1.8337
  165ccc     H5 4345   1.508   0.267   9.530  1.4868 -0.3383  2.4041
  165ccc     O1 4346   1.604   0.447   9.578  0.0312  0.2616  0.2038
  165ccc     O2 4347   1.326   0.371   9.711  0.0190  0.4357  0.0913
  165ccc     O3 4348   1.111   0.416   9.537 -0.1396 -0.0301 -0.2420
  165ccc     O4 4349   1.259   0.540   9.326 -0.4205 -0.3193 -0.6790
  165ccc     C6 4350   1.416   0.352   9.143  0.2861  0.6346  0.6336
  165ccc     H6 4351   1.093   0.365   9.618  1.7781  0.0455  0.2868
  165ccc     H7 4352   1.171   0.565   9.358  0.2220 -0.8589  1.6829
  165ccc     H8 4353   1.271   0.442   9.748 -0.3908  1.1735 -1.8432
  165ccc     H9 4354   1.343   0.293   9.087  1.9527  0.8229 -1.9033
  165ccc    H10 4355   1.514   0.306   9.127 -0.3875 -0.7924  0.5118
  165ccc     O5 4356   1.436   0.492   9.103 -0.2534 -0.2791 -0.2756
  165ccc    H11 4357   1.478   0.478   9.017  0.4844 -0.7828  0.1505
  165ccc     O6 4358   1.499   0.402   9.366 -0.0872 -0.2496 -0.0603
  166ccc     C1 4359   1.700   0.460  10.637  0.9215  0.4976 -0.4543
  166ccc     C2 4360   1.628   0.571  10.715 -0.0350 -0.0473  0.3542
  166ccc     H1 4361   1.800   0.454  10.680  0.2707 -0.8257  0.9905
  166ccc     H2 4362   1.634   0.544  10.821  0.0095  2.3224  1.0049
  166ccc     C3 4363   1.699   0.705  10.701 -0.3994 -0.2153  0.4156
  166ccc     C4 4364   1.712   0.740  10.552 -0.3493 -0.7717  0.3389
  166ccc     C5 4365   1.770   0.628  10.472 -0.5208 -0.1609  0.1235
  166ccc     H3 4366   1.612   0.742  10.507 -0.8029  0.7967  1.3215
  166ccc     H4 4367   1.804   0.682  10.723 -1.1545 -2.8981  1.6023
  166ccc     H5 4368   1.877   0.622  10.495 -0.8740  1.3595  2.5215
  166ccc     O1 4369   1.751   0.660  10.332 -0.1570  0.2675  0.6736
  166ccc     O2 4370   1.757   0.876  10.532  0.3672  0.0569 -0.0429
  166ccc     O3 4371   1.647   0.805  10.783 -0.0758 -0.0597 -0.4057
  166ccc     O4 4372   1.496   0.589  10.674  0.0643  0.5961 -0.0998
  166ccc     C6 4373   1.633   0.323  10.651  0.3975  0.8809 -0.3799
  166ccc     H6 4374   1.554   0.823  10.760  0.3193  0.3990 -1.7348
  166ccc     H7 4375   1.452   0.604  10.760  1.0433  0.6722  0.4061
  166ccc     H8 4376   1.679   0.932  10.545  0.7646  0.9374 -1.2514
  166ccc     H9 4377   1.531   0.331  10.611  0.1328  4.2716  0.6206
  166ccc    H10 4378   1.639   0.293  10.757  0.1964 -4.7712 -1.7006
  166ccc     O5 4379   1.712   0.235  10.581  0.0651 -0.3423 -0.4105
  166ccc    H11 4380   1.651   0.160  10.568 -2.6170  1.8064 -1.0709
  166ccc     O6 4381   1.701   0.506  10.499 -0.7539  0.7106 -0.0731
  167ccc     C1 4382   0.276   2.351  11.042  0.7082  0.2255  0.5030
  167ccc     C2 4383   0.341   2.438  10.941 -0.5202 -0.4649 -0.2801
  167ccc     H1 4384   0.174   2.390  11.057  0.3624 -0.4743  0.0415
  167ccc     H2 4385   0.274   2.448  10.855 -0.3802  0.0293 -0.3322
  167ccc     C3 4386   0.354   2.583  10.999 -0.2782 -0.5839  0.6075
  167ccc     C4 4387   0.433   2.592  11.135  0.5703  0.4413 -0.2573
  167ccc     C5 4388   0.386   2.483  11.236 -0.5587 -0.2991 -0.2276
  167ccc     H3 4389   0.537   2.571  11.106 -0.1697 -0.9489 -2.1101
  167ccc     H4 4390   0.252   2.614  11.021 -0.4504  0.0526 -0.9468
  167ccc     H5 4391   0.288   2.509  11.278 -0.0444  0.0240  0.7989
  167ccc     O1 4392   0.492   2.471  11.340  0.3033 -0.6217  0.2755
  167ccc     O2 4393   0.422   2.729  11.193  0.2113 -0.4311  0.2221
  167ccc     O3 4394   0.425   2.663  10.906  0.4388 -0.4625  0.3178
  167ccc     O4 4395   0.471   2.381  10.903 -0.2345  0.5408  0.2596
  167ccc     C6 4396   0.255   2.206  10.986  0.0612  0.7932 -0.2955
  167ccc     H6 4397   0.397   2.756  10.915 -0.3411 -0.5741 -0.7469
  167ccc     H7 4398   0.460   2.293  10.943  0.6400  1.2233  2.1252
  167ccc     H8 4399   0.501   2.736  11.248  0.0681 -1.4538  0.5778
  167ccc     H9 4400   0.205   2.203  10.889  0.9817 -0.4974 -0.7508
  167ccc    H10 4401   0.187   2.144  11.046 -1.8444  1.9593 -1.1489
  167ccc     O5 4402   0.382   2.140  10.974  0.0913 -0.0773  0.1528
  167ccc    H11 4403   0.380   2.057  11.025 -1.9140  0.8330  1.7249
  167ccc     O6 4404   0.367   2.352  11.163  0.4457  0.1624  0.1577
  168ccc     C1 4405   1.276   2.129  11.869  0.3101 -0.9932  0.4544
  168ccc     C2 4406   1.382   2.032  11.820 -0.1479 -0.5896  0.3376
  168ccc     H1 4407   1.230   2.097  11.963  0.6243  1.8425  1.7027
  168ccc     H2 4408   1.456   2.023  11.901  2.2632 -4.0553 -1.9334
  168ccc     C3 4409   1.333   1.887  11.808  0.1226 -0.0199 -0.2999
  168ccc     C4 4410   1.209   1.886  11.709 -0.7575 -0.2830  0.5214
  168ccc     C5 4411   1.103   1.998  11.754  0.2542 -0.4552 -0.3273
  168ccc     H3 4412   1.242   1.919  11.609 -1.6339 -2.9891 -0.7408
  168ccc     H4 4413   1.296   1.860  11.908  1.2651  0.7840  0.3695
  168ccc     H5 4414   1.055   1.972  11.848  3.5836 -0.5181  1.5238
  168ccc     O1 4415   0.993   2.016  11.658 -0.5020 -0.2687 -0.0356
  168ccc     O2 4416   1.149   1.757  11.688 -0.5629 -0.2508 -0.1385
  168ccc     O3 4417   1.433   1.788  11.782 -0.0558 -0.7448  0.0684
  168ccc     O4 4418   1.439   2.077  11.694  0.2308  0.3961  0.2373
  168ccc     C6 4419   1.346   2.266  11.890  0.3987  0.3234  0.1606
  168ccc     H6 4420   1.465   1.831  11.701 -1.8525 -2.1344 -1.4771
  168ccc     H7 4421   1.420   2.171  11.714  0.9190  0.6791 -0.3747
  168ccc     H8 4422   1.224   1.705  11.652 -0.6989 -1.3494  1.0907
  168ccc     H9 4423   1.422   2.250  11.967 -1.2727 -3.1029  1.3043
  168ccc    H10 4424   1.279   2.337  11.940  1.4136  0.9148  0.7171
  168ccc     O5 4425   1.403   2.320  11.766 -0.1083  0.1356  0.0258
  168ccc    H11 4426   1.395   2.413  11.794 -3.3854 -0.3172  1.0008
  168ccc     O6 4427   1.166   2.131  11.775  0.0166 -0.8293  0.6174
  169ccc     C1 4428   1.110   3.080  10.965 -0.2444  0.8074  0.4860
  169ccc     C2 4429   1.180   3.103  10.831 -0.4551 -0.2953  0.3775
  169ccc     H1 4430   1.129   3.173  11.020  3.0560  1.4278 -1.4355
  169ccc     H2 4431   1.145   3.203  10.803 -1.5292 -0.3090  1.5949
  169ccc     C3 4432   1.335   3.109  10.853 -1.1774  0.9741  0.0573
  169ccc     C4 4433   1.390   2.991  10.945 -0.0239  0.0191  0.2717
  169ccc     C5 4434   1.304   2.968  11.071  0.4987  0.5020 -0.6737
  169ccc     H3 4435   1.371   2.905  10.880  0.3070  1.2820 -1.5640
  169ccc     H4 4436   1.352   3.204  10.906 -1.5720  0.6180  0.8344
  169ccc     H5 4437   1.314   3.053  11.139  0.3866  0.2891 -0.3882
  169ccc     O1 4438   1.341   2.843  11.138  0.5136  0.1303 -0.3578
  169ccc     O2 4439   1.532   3.006  10.980 -0.2682  0.1548 -0.0948
  169ccc     O3 4440   1.412   3.124  10.734  0.1711 -0.4598 -0.0997
  169ccc     O4 4441   1.150   2.993  10.737 -0.3328 -0.0686 -0.8880
  169ccc     C6 4442   0.959   3.078  10.966  0.0831  0.1594  0.1391
  169ccc     H6 4443   1.506   3.106  10.752 -0.1024 -0.0482  2.0430
  169ccc     H7 4444   1.192   3.023  10.654 -0.6879 -1.7043 -1.7158
  169ccc     H8 4445   1.564   2.944  11.048  2.6509  1.1801 -0.3835
  169ccc     H9 4446   0.927   3.168  10.910 -0.5144 -0.5929 -0.7608
  169ccc    H10 4447   0.925   3.069  11.069  0.7239 -1.1163  0.2528
  169ccc     O5 4448   0.910   2.963  10.895  0.0661 -0.2248  0.5405
  169ccc    H11 4449   0.976   2.959  10.824  1.1192  3.2190  1.1525
  169ccc     O6 4450   1.164   2.962  11.036  0.2823  0.7081  0.0446
  170ccc     C1 4451   1.790   3.115  11.764  0.0444  0.0978 -0.2740
  170ccc     C2 4452   1.775   3.254  11.699 -0.1561 -0.9224  0.1534
  170ccc     H1 4453   1.891   3.086  11.735  0.1094  1.6251 -1.7608
  170ccc     H2 4454   1.840   3.326  11.751 -2.8136  0.2788  2.0748
  170ccc     C3 4455   1.820   3.246  11.555  0.6157  0.3014 -0.5201
  170ccc     C4 4456   1.743   3.139  11.479  0.1537  0.4022  0.2258
  170ccc     C5 4457   1.703   3.011  11.555 -0.4568 -0.4900  0.4689
  170ccc     H3 4458   1.650   3.184  11.444 -0.0237 -1.7595 -2.3869
  170ccc     H4 4459   1.926   3.219  11.556  0.2041 -1.5715 -1.1445
  170ccc     H5 4460   1.787   2.940  11.555  1.4503  1.6151 -0.7919
  170ccc     O1 4461   1.593   2.942  11.497  0.6774  0.0666  0.5623
  170ccc     O2 4462   1.818   3.098  11.363 -0.1963  0.4188  0.0282
  170ccc     O3 4463   1.807   3.371  11.488  0.3223  0.3284 -0.0860
  170ccc     O4 4464   1.635   3.297  11.712  0.0936 -0.1611  0.1932
  170ccc     C6 4465   1.770   3.115  11.915  0.2047  0.0720  0.2886
  170ccc     H6 4466   1.882   3.430  11.508 -0.0213  0.9124 -0.5054
  170ccc     H7 4467   1.637   3.345  11.796  0.5196 -0.1287  0.1664
  170ccc     H8 4468   1.886   3.163  11.338 -1.3081  1.8331  0.5221
  170ccc     H9 4469   1.662   3.099  11.928 -0.0937  0.2806 -1.6393
  170ccc    H10 4470   1.792   3.211  11.964 -0.1819 -0.4927  1.6153
  170ccc     O5 4471   1.851   3.009  11.963 -0.5147 -0.3665  0.4554
  170ccc    H11 4472   1.840   3.009  12.060  0.5574  0.0566  0.5902
  170ccc     O6 4473   1.688   3.034  11.695 -0.1982  0.2130  0.5196
  171ccc     C1 4474   3.059   2.118   9.150 -0.4888  0.4132  0.3099
  171ccc     C2 4475   3.012   2.064   9.012 -0.0435 -0.1296  0.3409
  171ccc     H1 4476   3.146   2.059   9.182 -2.1617 -1.7270  1.1502
  171ccc     H2 4477   3.094   2.079   8.941  1.0475  0.8626  1.7463
  171ccc     C3 4478   2.973   1.915   9.032 -0.0328 -0.2350  0.6684
  171ccc     C4 4479   2.860   1.899   9.143 -0.9411 -0.2897 -0.0305
  171ccc     C5 4480   2.902   1.975   9.268 -0.5359 -0.1770  0.1143
  171ccc     H3 4481   2.768   1.949   9.108 -1.0725 -0.5520 -0.0612
  171ccc     H4 4482   3.059   1.860   9.071  1.2273  0.4582 -1.0056
  171ccc     H5 4483   2.985   1.919   9.313 -0.0902 -1.3670 -2.0693
  171ccc     O1 4484   2.784   1.988   9.354 -0.1878 -0.2332  0.1442
  171ccc     O2 4485   2.837   1.755   9.164  0.0876 -0.2764 -0.3254
  171ccc     O3 4486   2.925   1.853   8.909 -0.2354 -0.2881 -0.3733
  171ccc     O4 4487   2.892   2.141   8.971 -0.3474 -0.1571  0.2170
  171ccc     C6 4488   3.100   2.263   9.153 -0.0983  0.3988 -0.0407
  171ccc     H6 4489   3.002   1.843   8.850 -1.2061 -2.7038 -1.3418
  171ccc     H7 4490   2.892   2.125   8.875  2.6329 -2.5775  0.4536
  171ccc     H8 4491   2.756   1.743   9.111 -0.2767 -0.2673  0.2209
  171ccc     H9 4492   3.009   2.324   9.142 -0.2934  0.2300  0.5849
  171ccc    H10 4493   3.161   2.287   9.065  0.1190  0.2530  0.0675
  171ccc     O5 4494   3.162   2.297   9.269  0.2278  0.2837 -0.1854
  171ccc    H11 4495   3.110   2.240   9.329 -1.0848  2.6972  1.1189
  171ccc     O6 4496   2.947   2.109   9.241 -0.2870 -0.5139  0.2937
  172ccc     C1 4497   2.052   2.456   9.156 -0.4205 -0.4750 -0.2824
  172ccc     C2 4498   1.897   2.445   9.118 -0.1170  0.0716  0.7624
  172ccc     H1 4499   2.109   2.483   9.066 -0.0900  1.6971  0.5136
  172ccc     H2 4500   1.853   2.535   9.073 -1.2330 -1.6742 -1.9168
  172ccc     C3 4501   1.865   2.323   9.028 -0.0160  0.2246 -0.2464
  172ccc     C4 4502   1.933   2.194   9.085  0.1226 -0.6043  0.3656
  172ccc     C5 4503   2.089   2.210   9.105  0.5218  0.5787 -0.7641
  172ccc     H3 4504   1.889   2.180   9.184  0.4076  1.7264  0.8734
  172ccc     H4 4505   1.905   2.331   8.927  0.7331 -2.3737 -0.2166
  172ccc     H5 4506   2.143   2.216   9.010 -1.5110 -1.6541 -2.1766
  172ccc     O1 4507   2.133   2.095   9.183 -0.0386  0.3365  0.5049
  172ccc     O2 4508   1.903   2.084   8.996  0.0343  1.0242 -0.1132
  172ccc     O3 4509   1.721   2.311   9.013  0.2654 -0.3659  0.0203
  172ccc     O4 4510   1.825   2.420   9.238 -0.5691  0.5004 -0.2463
  172ccc     C6 4511   2.087   2.560   9.266  0.5680  0.3281 -0.0134
  172ccc     H6 4512   1.690   2.341   9.100  0.3715 -1.8461  0.5944
  172ccc     H7 4513   1.887   2.467   9.295  1.9859 -0.8226 -1.7461
  172ccc     H8 4514   1.819   2.047   9.030  1.4565  0.0967  2.6061
  172ccc     H9 4515   2.089   2.660   9.220  0.4979  0.0111 -0.7150
  172ccc    H10 4516   2.189   2.548   9.304  0.2390  0.7495  1.0233
  172ccc     O5 4517   1.989   2.559   9.363  0.2983  0.3837 -0.0192
  172ccc    H11 4518   2.028   2.610   9.436  2.5092 -0.9530 -0.1607
  172ccc     O6 4519   2.114   2.327   9.191  0.3516  0.0945 -0.2335
  173ccc     C1 4520   1.136   3.403   9.902 -0.3093 -0.5592  0.0277
  173ccc     C2 4521   1.030   3.463  10.000  0.6877  0.0336  0.4159
  173ccc     H1 4522   1.117   3.447   9.803  0.5785  1.5555  0.7522
  173ccc     H2 4523   1.041   3.572   9.999  3.2846 -0.1243  2.3334
  173ccc     C3 4524   0.889   3.413   9.958 -0.7911 -0.2010  0.0087
  173ccc     C4 4525   0.892   3.256   9.943 -0.1134 -0.4355  0.2352
  173ccc     C5 4526   1.006   3.206   9.849 -0.0436  0.5433 -0.2600
  173ccc     H3 4527   0.907   3.209  10.041 -1.4004 -0.2749  0.5298
  173ccc     H4 4528   0.867   3.462   9.863  1.5643 -0.1004 -0.5414
  173ccc     H5 4529   0.983   3.241   9.748  0.2442 -1.5838 -1.1104
  173ccc     O1 4530   1.023   3.062   9.850 -0.3662  0.2964 -0.1030
  173ccc     O2 4531   0.761   3.218   9.897 -0.0652 -0.1967  0.4814
  173ccc     O3 4532   0.788   3.452  10.055 -0.1590  0.0035 -0.7497
  173ccc     O4 4533   1.057   3.413  10.131  0.0534 -0.0227 -0.6262
  173ccc     C6 4534   1.274   3.451   9.931 -0.6933  0.0083 -0.7080
  173ccc     H6 4535   0.724   3.500  10.000  0.7103  0.8908 -1.0164
  173ccc     H7 4536   1.005   3.471  10.189 -3.0926 -1.8115 -1.4025
  173ccc     H8 4537   0.717   3.186   9.977  2.4408  0.2637  2.1554
  173ccc     H9 4538   1.284   3.557   9.903  1.5646 -0.1263 -0.5752
  173ccc    H10 4539   1.341   3.403   9.859  0.1005 -2.0927  1.3048
  173ccc     O5 4540   1.311   3.418  10.067 -0.3363  0.6040 -0.1787
  173ccc    H11 4541   1.221   3.409  10.102 -0.5381 -1.7585 -1.1135
  173ccc     O6 4542   1.135   3.261   9.897 -0.0275 -0.0229  0.4511
  174ccc     C1 4543   0.684   2.354  10.234 -0.1718  0.0241  0.2122
  174ccc     C2 4544   0.721   2.300  10.374 -1.2752  0.3790  1.0494
  174ccc     H1 4545   0.643   2.266  10.183  0.1370  1.2731 -2.3078
  174ccc     H2 4546   0.624   2.267  10.413 -1.2071 -0.1799  0.7522
  174ccc     C3 4547   0.821   2.181  10.354 -0.2308 -0.3334 -0.9491
  174ccc     C4 4548   0.947   2.232  10.274 -0.3887 -0.0686  0.6408
  174ccc     C5 4549   0.907   2.308  10.147 -0.9084  0.4403 -0.0803
  174ccc     H3 4550   0.992   2.308  10.339  0.0024  0.6958 -0.4952
  174ccc     H4 4551   0.764   2.114  10.288 -0.8959  0.2658 -0.9980
  174ccc     H5 4552   0.869   2.243  10.068  1.5692  0.7400 -1.6221
  174ccc     O1 4553   1.024   2.390  10.104  0.2006  0.0254  0.2699
  174ccc     O2 4554   1.033   2.121  10.249  1.0126  0.1940 -0.2100
  174ccc     O3 4555   0.855   2.106  10.474 -0.0938  0.7377 -0.0412
  174ccc     O4 4556   0.776   2.412  10.442  0.0173 -0.1217 -0.2943
  174ccc     C6 4557   0.590   2.473  10.233  0.0480 -0.2704 -0.4143
  174ccc     H6 4558   0.775   2.055  10.493  1.2345 -1.1091  0.8343
  174ccc     H7 4559   0.739   2.488  10.393  1.8309 -0.3132 -2.0824
  174ccc     H8 4560   1.037   2.074  10.334  2.2296 -2.1669 -1.4694
  174ccc     H9 4561   0.501   2.430  10.281  1.0636 -3.9047 -1.4977
  174ccc    H10 4562   0.560   2.507  10.133  0.9046 -0.6699 -0.8122
  174ccc     O5 4563   0.654   2.582  10.302 -0.4359 -0.5292  0.0966
  174ccc    H11 4564   0.596   2.658  10.282 -0.7685 -0.9885 -0.7438
  174ccc     O6 4565   0.798   2.397  10.157  0.2188  0.2364 -0.2902
  175ccc     C1 4566   3.782   3.886  11.762 -0.0090 -0.0356  0.2289
  175ccc     C2 4567   3.862   4.009  11.804 -0.6955 -0.0692 -0.8738
  175ccc     H1 4568   3.837   3.801  11.805 -1.6481 -1.1394  0.2605
  175ccc     H2 4569   3.887   3.995  11.910  0.9015 -0.9020 -1.3217
  175ccc     C3 4570   3.998   4.025  11.723 -0.3054  1.1451 -0.3933
  175ccc     C4 4571   3.978   4.021  11.569  0.4304 -0.4066 -0.4741
  175ccc     C5 4572   3.891   3.893  11.541  0.2886 -0.2679  0.3696
  175ccc     H3 4573   3.931   4.116  11.540  1.7491 -0.0239 -1.4531
  175ccc     H4 4574   4.051   3.931  11.740 -1.0030  0.7026 -0.6494
  175ccc     H5 4575   3.949   3.801  11.558  0.9139 -0.0241 -0.4030
  175ccc     O1 4576   3.848   3.914  11.399 -0.1739 -0.5297 -0.7793
  175ccc     O2 4577   4.106   4.005  11.499 -0.5756 -0.6827 -0.6340
  175ccc     O3 4578   4.075   4.138  11.765 -0.5847  0.1971 -0.0355
  175ccc     O4 4579   3.791   4.135  11.793  0.3677  0.0613  0.2653
  175ccc     C6 4580   3.643   3.887  11.830 -0.1462  0.4920  0.1683
  175ccc     H6 4581   4.168   4.108  11.766 -1.1571 -1.8118 -1.2673
  175ccc     H7 4582   3.829   4.203  11.851  1.7770 -0.0142 -0.5135
  175ccc     H8 4583   4.106   4.062  11.420 -0.7751 -2.2376 -1.7920
  175ccc     H9 4584   3.571   3.944  11.770 -0.1226  1.6404  1.1908
  175ccc    H10 4585   3.651   3.915  11.936  2.7985 -0.2949  0.2316
  175ccc     O5 4586   3.593   3.754  11.820 -0.5366  0.3565  0.5238
  175ccc    H11 4587   3.550   3.744  11.734  0.7567  0.3916 -0.1592
  175ccc     O6 4588   3.771   3.881  11.620  0.2562 -0.2572 -0.2601
  176ccc     C1 4589   3.174   4.122  11.171 -0.6233  0.1794  0.3701
  176ccc     C2 4590   3.146   4.183  11.033  0.0215 -0.4043  0.6494
  176ccc     H1 4591   3.261   4.175  11.211 -0.4686 -0.4147  0.8389
  176ccc     H2 4592   3.136   4.292  11.034  0.3587 -0.3429 -0.5582
  176ccc     C3 4593   3.269   4.147  10.946 -0.2495  0.1538  0.1804
  176ccc     C4 4594   3.301   4.000  10.939  0.2299 -0.2256 -0.4686
  176ccc     C5 4595   3.324   3.943  11.081  0.4437  0.0836 -0.5839
  176ccc     H3 4596   3.209   3.952  10.905  0.1014 -0.7160  0.5147
  176ccc     H4 4597   3.356   4.185  11.002 -1.6048 -0.5630  2.9134
  176ccc     H5 4598   3.413   3.988  11.126 -0.5660  1.8061 -0.1942
  176ccc     O1 4599   3.329   3.796  11.069 -0.1652 -0.3482  0.6023
  176ccc     O2 4600   3.403   3.981  10.842 -0.5558  0.2670  0.4119
  176ccc     O3 4601   3.267   4.201  10.820 -0.5371 -0.1370  0.5191
  176ccc     O4 4602   3.027   4.122  10.986  0.2013 -0.3645  0.0775
  176ccc     C6 4603   3.062   4.147  11.274  0.1961  0.0740 -0.2819
  176ccc     H6 4604   3.295   4.294  10.827  1.5462 -0.5278 -1.3249
  176ccc     H7 4605   2.976   4.192  10.942  3.5461  1.2967 -1.4392
  176ccc     H8 4606   3.408   4.064  10.792 -2.3265  0.4428  0.4593
  176ccc     H9 4607   2.975   4.083  11.253 -0.0571  0.6322 -0.9579
  176ccc    H10 4608   3.027   4.251  11.275  0.4929  0.1930 -1.0900
  176ccc     O5 4609   3.131   4.114  11.394  0.3331 -0.5900 -0.0675
  176ccc    H11 4610   3.068   4.143  11.462 -1.2004 -0.1538 -1.6273
  176ccc     O6 4611   3.200   3.980  11.153 -0.1781 -0.3125 -0.3406
  177ccc     C1 4612   4.830   3.292  11.280  0.6338  0.3100  0.5668
  177ccc     C2 4613   4.738   3.369  11.180  0.0852 -0.0059 -0.0116
  177ccc     H1 4614   4.819   3.185  11.257 -1.6010  0.8675 -1.2532
  177ccc     H2 4615   4.761   3.356  11.074  2.5209  1.2411  0.2857
  177ccc     C3 4616   4.585   3.333  11.200 -0.4847  0.3079 -0.6654
  177ccc     C4 4617   4.547   3.356  11.344  0.6836 -0.2506 -0.4561
  177ccc     C5 4618   4.648   3.277  11.440  0.2307  0.2563 -0.2387
  177ccc     H3 4619   4.562   3.464  11.359 -0.9813 -0.2833  1.8379
  177ccc     H4 4620   4.581   3.225  11.183 -0.8261  0.1221  0.5323
  177ccc     H5 4621   4.651   3.168  11.429 -1.1949  0.0324  1.2722
  177ccc     O1 4622   4.605   3.312  11.575  0.1222 -0.6753  0.0561
  177ccc     O2 4623   4.412   3.313  11.370 -0.5679 -0.4025 -0.4679
  177ccc     O3 4624   4.513   3.408  11.106  0.3057 -0.2453 -0.3023
  177ccc     O4 4625   4.767   3.505  11.200  0.2555 -0.4159 -0.2825
  177ccc     C6 4626   4.978   3.323  11.257  0.1373  0.4839 -0.1791
  177ccc     H6 4627   4.491   3.495  11.144 -3.2566 -1.1624  0.0603
  177ccc     H7 4628   4.851   3.496  11.247  0.3713  0.3540 -0.3320
  177ccc     H8 4629   4.395   3.327  11.464  1.4921  0.3997 -0.1754
  177ccc     H9 4630   5.002   3.315  11.150  0.5185  0.5289 -0.0989
  177ccc    H10 4631   5.037   3.247  11.309 -0.0630 -0.2896 -1.0531
  177ccc     O5 4632   5.004   3.457  11.302  0.2732  0.2145 -0.7028
  177ccc    H11 4633   4.984   3.445  11.396  1.5825  0.0910 -0.4114
  177ccc     O6 4634   4.781   3.308  11.416  0.5225 -0.4522  0.0961
  178ccc     C1 4635   4.944   3.416  12.669 -0.6472 -1.1546 -0.1409
  178ccc     C2 4636   5.053   3.512  12.612  0.2993  0.3908 -0.5221
  178ccc     H1 4637   5.000   3.323  12.685 -0.0776 -0.9027 -0.6518
  178ccc     H2 4638   5.140   3.525  12.678 -0.1319 -1.5530  0.4960
  178ccc     C3 4639   5.107   3.459  12.472 -0.6716  0.5735  0.9987
  178ccc     C4 4640   4.985   3.433  12.370 -0.6026  0.4311 -0.0137
  178ccc     C5 4641   4.876   3.338  12.434  0.4268  0.0655  0.4858
  178ccc     H3 4642   4.936   3.531  12.367 -3.1170 -0.7360  0.6860
  178ccc     H4 4643   5.143   3.358  12.495  2.4037  1.4080  0.3829
  178ccc     H5 4644   4.909   3.235  12.448 -0.4267 -0.0175  2.0892
  178ccc     O1 4645   4.760   3.327  12.344  0.1329  0.4820 -0.2889
  178ccc     O2 4646   5.031   3.380  12.244 -0.2842 -0.1050  0.6899
  178ccc     O3 4647   5.217   3.534  12.414  0.0259 -0.5796 -0.3699
  178ccc     O4 4648   4.987   3.630  12.595 -0.4606 -0.4881 -0.5561
  178ccc     C6 4649   4.873   3.465  12.794  0.2833 -0.0462 -0.2307
  178ccc     H6 4650   5.244   3.478  12.339 -0.2663 -1.6683  0.3214
  178ccc     H7 4651   5.058   3.696  12.588 -0.5158 -0.2637  0.7539
  178ccc     H8 4652   5.068   3.290  12.248 -2.2787 -1.1446 -1.5372
  178ccc     H9 4653   4.951   3.489  12.868 -0.0402  1.4325 -0.3207
  178ccc    H10 4654   4.815   3.385  12.842  1.0194  0.3786  1.4661
  178ccc     O5 4655   4.788   3.574  12.759  0.1711  0.9481 -0.0234
  178ccc    H11 4656   4.835   3.598  12.678 -1.1766  1.4220 -0.6848
  178ccc     O6 4657   4.840   3.394  12.563  0.4763  0.0581  0.5917
  179ccc     C1 4658   2.811   2.089  12.092 -0.2826  0.2060  0.6999
  179ccc     C2 4659   2.724   2.135  11.968  0.1831 -0.6197  0.4269
  179ccc     H1 4660   2.783   1.984  12.108 -1.9106  0.5903  0.6184
  179ccc     H2 4661   2.739   2.059  11.891 -0.1233 -2.8306  2.4125
  179ccc     C3 4662   2.571   2.145  12.005  0.3034  0.3064 -1.1989
  179ccc     C4 4663   2.550   2.224  12.133  0.2370 -0.4979 -0.2774
  179ccc     C5 4664   2.639   2.175  12.251  0.4310  0.8223 -0.1907
  179ccc     H3 4665   2.584   2.326  12.112  0.3706 -0.2065  1.2496
  179ccc     H4 4666   2.528   2.046  12.021 -0.7148  0.9386  0.2543
  179ccc     H5 4667   2.598   2.081  12.288 -1.7179  1.3513 -1.1029
  179ccc     O1 4668   2.637   2.269  12.364  0.2985  0.3413  0.5895
  179ccc     O2 4669   2.404   2.222  12.171  0.0162  0.0821 -0.2270
  179ccc     O3 4670   2.508   2.217  11.897  0.5222  0.1687 -0.3361
  179ccc     O4 4671   2.775   2.260  11.927 -0.0011 -0.0720  0.0381
  179ccc     C6 4672   2.964   2.094  12.054 -0.7452  0.1067  0.2433
  179ccc     H6 4673   2.416   2.238  11.921  1.5622  3.4956  1.3347
  179ccc     H7 4674   2.696   2.289  11.878 -1.6403  0.5609  2.8506
  179ccc     H8 4675   2.398   2.287  12.244  2.9264  0.7758 -0.4882
  179ccc     H9 4676   2.976   2.049  11.954 -3.6583  0.8837 -0.5646
  179ccc    H10 4677   3.024   2.026  12.116 -0.4543 -0.8300 -1.0161
  179ccc     O5 4678   3.019   2.229  12.044  0.1161 -0.4210  0.2171
  179ccc    H11 4679   2.952   2.270  11.986  1.9648  0.9140 -1.0717
  179ccc     O6 4680   2.778   2.167  12.209  0.0753 -0.2064 -0.1358
  180ccc     C1 4681   3.240   3.090  12.733 -0.5980  0.3572  0.0984
  180ccc     C2 4682   3.257   3.224  12.816 -0.5436  0.0482  0.2089
  180ccc     H1 4683   3.259   3.115  12.628 -2.5384 -1.6239 -0.8212
  180ccc     H2 4684   3.360   3.257  12.798 -0.3603 -1.0241 -0.8487
  180ccc     C3 4685   3.159   3.330  12.764  0.0268  0.4940  0.0367
  180ccc     C4 4686   3.016   3.263  12.749 -0.1324  0.1093 -0.2447
  180ccc     C5 4687   3.013   3.127  12.682 -0.4928 -0.4301 -0.3583
  180ccc     H3 4688   2.987   3.252  12.854  1.2250  0.9461  0.2410
  180ccc     H4 4689   3.191   3.354  12.662 -2.4823 -0.1481 -1.0017
  180ccc     H5 4690   3.039   3.140  12.576 -1.1352 -2.4621 -0.8119
  180ccc     O1 4691   2.881   3.061  12.692 -0.1441  0.0331 -0.1611
  180ccc     O2 4692   2.937   3.366  12.685  0.1134 -0.1967 -0.1974
  180ccc     O3 4693   3.153   3.445  12.844  0.0386  0.2734 -0.8128
  180ccc     O4 4694   3.228   3.203  12.955  0.0854 -0.0849 -0.3978
  180ccc     C6 4695   3.331   2.975  12.774 -0.3140  0.3458 -0.5910
  180ccc     H6 4696   3.232   3.499  12.830 -0.0138  0.9008  0.9953
  180ccc     H7 4697   3.241   3.289  12.999 -0.4477 -0.9427  1.5396
  180ccc     H8 4698   2.985   3.445  12.715  1.8146 -1.4574  0.5285
  180ccc     H9 4699   3.280   2.896  12.831 -0.6291  1.6349  1.0079
  180ccc    H10 4700   3.412   3.022  12.831 -0.7157  0.5585 -0.1854
  180ccc     O5 4701   3.385   2.912  12.660  0.1292  0.4606  0.0784
  180ccc    H11 4702   3.306   2.881  12.613 -0.1829  0.6453  0.4713
  180ccc     O6 4703   3.110   3.042  12.740  0.0023  0.6654  0.2463
  181ccc     C1 4704   4.043   1.537  12.549 -0.2703  0.7398  0.0578
  181ccc     C2 4705   4.106   1.440  12.650  0.6239 -0.1587 -0.6037
  181ccc     H1 4706   4.100   1.630  12.536 -0.4742  1.3415  2.8320
  181ccc     H2 4707   4.199   1.404  12.605  0.8305  0.8680 -1.0152
  181ccc     C3 4708   4.124   1.508  12.792  0.2787  0.2165 -0.6235
  181ccc     C4 4709   3.989   1.562  12.846 -0.5338  0.3733  0.0720
  181ccc     C5 4710   3.902   1.637  12.739 -0.0688 -0.2396 -0.1281
  181ccc     H3 4711   3.929   1.475  12.876 -0.7135  0.5086  0.1110
  181ccc     H4 4712   4.185   1.598  12.775 -2.2176  1.8386 -1.4074
  181ccc     H5 4713   3.930   1.743  12.734 -1.2955  0.1795  1.0620
  181ccc     O1 4714   3.764   1.641  12.776 -0.2889 -0.2329  0.3790
  181ccc     O2 4715   4.022   1.640  12.966 -0.2899 -0.0720  0.6334
  181ccc     O3 4716   4.191   1.419  12.888 -0.5148  0.3839  0.6193
  181ccc     O4 4717   4.016   1.327  12.671 -0.4182 -0.1936  0.0992
  181ccc     C6 4718   4.024   1.479  12.409  0.0157 -0.1959 -0.1294
  181ccc     H6 4719   4.217   1.467  12.969 -1.8339  0.8481  0.7930
  181ccc     H7 4720   3.976   1.333  12.583 -0.2030  4.1399  0.0745
  181ccc     H8 4721   3.998   1.590  13.046 -0.5623 -0.1726  0.4880
  181ccc     H9 4722   4.125   1.472  12.367 -1.2671  1.3915 -3.8770
  181ccc    H10 4723   3.975   1.550  12.341  2.2542  3.6564  1.9001
  181ccc     O5 4724   3.962   1.353  12.414 -0.6402 -0.5440 -0.5704
  181ccc    H11 4725   4.010   1.304  12.345 -0.6355 -1.0842 -0.1933
  181ccc     O6 4726   3.912   1.571  12.605  0.6594 -0.1222 -0.6651
  182ccc     C1 4727   2.780   1.541  12.803 -0.3300  0.7558 -0.2529
  182ccc     C2 4728   2.675   1.516  12.705  0.8168  0.2707 -0.0789
  182ccc     H1 4729   2.837   1.632  12.781 -0.0518  0.8602  0.8328
  182ccc     H2 4730   2.605   1.601  12.700 -0.1314 -0.5396 -1.1589
  182ccc     C3 4731   2.733   1.479  12.568  0.0556  0.2851  1.1171
  182ccc     C4 4732   2.845   1.373  12.565 -1.1053 -0.5183  0.2376
  182ccc     C5 4733   2.948   1.403  12.680  0.2942 -0.2255  0.5545
  182ccc     H3 4734   2.799   1.275  12.588 -0.6281 -0.5909  0.9118
  182ccc     H4 4735   2.770   1.571  12.522  0.9922  0.3015  1.8759
  182ccc     H5 4736   3.019   1.477  12.641  1.1441 -1.3503 -0.1093
  182ccc     O1 4737   3.025   1.278  12.703 -0.0751 -0.2577  0.0297
  182ccc     O2 4738   2.903   1.366  12.435 -0.2965 -0.4161  0.1469
  182ccc     O3 4739   2.623   1.437  12.481  0.0630 -0.1644  1.0565
  182ccc     O4 4740   2.586   1.414  12.745  0.4569 -0.4719  0.4104
  182ccc     C6 4741   2.729   1.564  12.948 -0.2011  0.0600 -0.0276
  182ccc     H6 4742   2.657   1.439  12.390  0.0698 -1.8589  0.9823
  182ccc     H7 4743   2.628   1.396  12.831  2.7061 -0.4949 -0.6231
  182ccc     H8 4744   2.941   1.276  12.434 -1.4870 -0.9346  0.1171
  182ccc     H9 4745   2.668   1.655  12.957 -0.1145  0.0605  0.5599
  182ccc    H10 4746   2.815   1.581  13.013 -0.1005 -0.5034 -0.0044
  182ccc     O5 4747   2.659   1.455  13.007 -0.1366 -0.0750 -0.0591
  182ccc    H11 4748   2.651   1.480  13.101  0.8167 -1.6690  0.4950
  182ccc     O6 4749   2.875   1.432  12.803 -0.2796  0.1413 -0.4327
  183ccc     C1 4750   3.050   3.631  10.572  0.2560 -0.1190  0.0869
  183ccc     C2 4751   2.969   3.657  10.438 -0.3342 -0.2768 -0.0245
  183ccc     H1 4752   3.128   3.560  10.544 -0.0441 -0.1412 -0.7251
  183ccc     H2 4753   3.029   3.705  10.359 -0.6988 -0.9659 -0.7304
  183ccc     C3 4754   2.931   3.514  10.389 -0.3483  0.4101  0.1865
  183ccc     C4 4755   2.832   3.451  10.495 -0.6679  0.1052 -0.5911
  183ccc     C5 4756   2.915   3.430  10.629 -1.2583  0.6837  0.1361
  183ccc     H3 4757   2.758   3.527  10.521  2.7949  2.2787  4.6955
  183ccc     H4 4758   3.016   3.446  10.378 -0.1733  0.7595 -0.7069
  183ccc     H5 4759   3.004   3.370  10.605  0.0729  2.8477 -0.5918
  183ccc     O1 4760   2.835   3.371  10.735 -0.0015  0.0998 -0.2316
  183ccc     O2 4761   2.783   3.334  10.437  0.0490 -0.0496  0.3859
  183ccc     O3 4762   2.869   3.520  10.261 -0.5031  0.2280 -0.2411
  183ccc     O4 4763   2.846   3.738  10.466 -0.6562  0.5866  0.5243
  183ccc     C6 4764   3.101   3.756  10.647  0.3525 -0.6044 -0.2198
  183ccc     H6 4765   2.772   3.515  10.267 -0.4308 -1.7080  0.0058
  183ccc     H7 4766   2.796   3.763  10.387  1.2299  1.6348 -0.3885
  183ccc     H8 4767   2.810   3.343  10.344  0.9001  0.4539  0.6684
  183ccc     H9 4768   3.184   3.814  10.604  3.1812 -2.0407  2.8630
  183ccc    H10 4769   3.137   3.735  10.748 -2.7474 -0.2190  1.0865
  183ccc     O5 4770   2.984   3.835  10.664  0.2348 -0.3511 -0.1660
  183ccc    H11 4771   2.926   3.805  10.591  1.4052  0.1095 -1.3412
  183ccc     O6 4772   2.967   3.563  10.672  0.1866 -0.0281 -0.1269
  184ccc     C1 4773   2.205   3.850  11.352  0.2323 -0.6773 -0.7397
  184ccc     C2 4774   2.101   3.806  11.460  0.3040  0.2062 -0.5180
  184ccc     H1 4775   2.167   3.829  11.251  0.0126  0.5781 -0.9427
  184ccc     H2 4776   2.006   3.853  11.430 -0.3952 -1.6329 -1.2925
  184ccc     C3 4777   2.074   3.651  11.455  0.1675  0.2631  0.3824
  184ccc     C4 4778   2.202   3.566  11.450  0.9119  0.6429  0.0047
  184ccc     C5 4779   2.313   3.620  11.351  0.5818  0.6065  0.3673
  184ccc     H3 4780   2.249   3.574  11.549  0.4621  1.7235  0.1477
  184ccc     H4 4781   2.034   3.625  11.356  1.9026 -0.9974 -0.0574
  184ccc     H5 4782   2.303   3.578  11.250  1.1617 -1.8408  1.2665
  184ccc     O1 4783   2.439   3.571  11.401 -0.3187 -0.1272 -0.2270
  184ccc     O2 4784   2.165   3.428  11.407  0.1073  0.5501 -0.6532
  184ccc     O3 4785   1.976   3.588  11.549  0.5611 -0.4130  0.1038
  184ccc     O4 4786   2.158   3.848  11.585 -0.0844  0.1058  0.5665
  184ccc     C6 4787   2.247   4.003  11.359 -0.0895  0.4284  0.1066
  184ccc     H6 4788   2.018   3.588  11.636  2.3392 -4.3250 -0.5517
  184ccc     H7 4789   2.083   3.893  11.628 -0.2626 -0.9136  1.3419
  184ccc     H8 4790   2.195   3.373  11.481 -0.6442  0.6416 -0.2727
  184ccc     H9 4791   2.331   4.006  11.429  0.7495 -0.7416 -0.8092
  184ccc    H10 4792   2.170   4.070  11.401  2.3493  3.0306  0.7447
  184ccc     O5 4793   2.280   4.045  11.227  0.4473  0.1362 -0.1280
  184ccc    H11 4794   2.303   4.137  11.250  0.6442  0.1797 -0.5011
  184ccc     O6 4795   2.322   3.766  11.357 -0.2153  0.5040  0.1759
  185ccc     C1 4796   2.359   3.367  12.480 -0.1949  0.2804 -0.1950
  185ccc     C2 4797   2.367   3.439  12.613 -0.3523 -0.1829  0.2389
  185ccc     H1 4798   2.316   3.267  12.494  0.4218 -0.0088 -0.3328
  185ccc     H2 4799   2.267   3.443  12.658 -0.0965  2.2883  0.7441
  185ccc     C3 4800   2.464   3.359  12.706  0.1338  0.0881 -0.0454
  185ccc     C4 4801   2.596   3.330  12.642 -0.1849  0.1512  0.3386
  185ccc     C5 4802   2.577   3.273  12.501 -0.1270 -0.1703 -0.3080
  185ccc     H3 4803   2.650   3.422  12.618  2.2699 -1.6482 -1.7130
  185ccc     H4 4804   2.428   3.258  12.732 -0.2732  0.2670  0.0889
  185ccc     H5 4805   2.534   3.172  12.508  1.2447 -0.9209 -1.8943
  185ccc     O1 4806   2.710   3.276  12.437 -0.3173 -0.4461 -0.1314
  185ccc     O2 4807   2.673   3.244  12.731  0.3022  0.4299  0.0228
  185ccc     O3 4808   2.485   3.426  12.834  0.1088 -0.1125  0.2038
  185ccc     O4 4809   2.416   3.565  12.588 -0.0419 -0.2944  0.3048
  185ccc     C6 4810   2.273   3.436  12.373 -0.0489 -0.1549  0.2045
  185ccc     H6 4811   2.399   3.422  12.878  0.0951 -0.8880  0.1263
  185ccc     H7 4812   2.387   3.576  12.496 -1.0040  3.1172  0.8707
  185ccc     H8 4813   2.762   3.250  12.693  0.1572  0.1486 -0.3635
  185ccc     H9 4814   2.165   3.425  12.387 -0.2778  2.0428  0.4925
  185ccc    H10 4815   2.303   3.386  12.280  0.1270  2.7797 -1.4548
  185ccc     O5 4816   2.314   3.572  12.350  0.1747  0.0269  0.2396
  185ccc    H11 4817   2.359   3.569  12.264  1.1737 -4.6627  0.6601
  185ccc     O6 4818   2.491   3.350  12.424 -0.0531  0.0259  0.5954
  186ccc     C1 4819   2.758   3.830  11.635  0.4009 -0.1316  0.3485
  186ccc     C2 4820   2.638   3.917  11.633 -0.5119  1.1320  0.3597
  186ccc     H1 4821   2.746   3.750  11.561  1.6356  0.0278 -0.0587
  186ccc     H2 4822   2.625   3.952  11.530 -0.2459  0.4314  0.0813
  186ccc     C3 4823   2.508   3.835  11.659  0.6078 -0.6130  0.1119
  186ccc     C4 4824   2.521   3.754  11.792 -0.6726  0.0285  0.3661
  186ccc     C5 4825   2.658   3.680  11.800  0.2526 -1.0743 -0.2034
  186ccc     H3 4826   2.524   3.821  11.878  2.2946  0.7934 -0.1873
  186ccc     H4 4827   2.492   3.760  11.581  0.2189 -0.4210  0.0023
  186ccc     H5 4828   2.649   3.587  11.743 -2.9033 -2.0404  1.6126
  186ccc     O1 4829   2.680   3.655  11.945 -0.1405  0.0540  0.5735
  186ccc     O2 4830   2.412   3.663  11.807  0.2663  0.0881 -0.0390
  186ccc     O3 4831   2.398   3.938  11.662  0.2157 -0.3717  0.1019
  186ccc     O4 4832   2.633   4.024  11.728 -0.3946 -0.1963  0.5157
  186ccc     C6 4833   2.887   3.912  11.620 -0.0598  0.3116  0.5013
  186ccc     H6 4834   2.312   3.896  11.642 -0.5835  1.2388 -0.0180
  186ccc     H7 4835   2.539   4.046  11.720 -0.1005  1.7985  2.0564
  186ccc     H8 4836   2.346   3.726  11.840 -1.3009 -0.7372 -1.4320
  186ccc     H9 4837   2.896   3.964  11.523  0.4894 -1.1905 -0.2760
  186ccc    H10 4838   2.977   3.851  11.614 -1.0421 -1.0501 -1.1549
  186ccc     O5 4839   2.887   4.002  11.732 -0.1528  0.0672 -0.3499
  186ccc    H11 4840   2.792   4.019  11.743 -0.2201  0.6622 -1.6906
  186ccc     O6 4841   2.761   3.771  11.768  0.1301 -0.3153  0.5819
  187ccc     C1 4842   2.130   0.825  12.792  0.1799  0.1008 -1.1492
  187ccc     C2 4843   2.237   0.752  12.705 -0.0873 -0.5094  0.3714
  187ccc     H1 4844   2.069   0.893  12.732 -0.6454  1.6558  1.3232
  187ccc     H2 4845   2.179   0.694  12.631  2.7081 -1.9541 -0.8213
  187ccc     C3 4846   2.338   0.850  12.643  0.1896  1.2094 -0.1585
  187ccc     C4 4847   2.410   0.923  12.752 -0.6727 -0.5374 -0.9968
  187ccc     C5 4848   2.311   0.988  12.860  0.0892  0.5360 -0.5953
  187ccc     H3 4849   2.471   0.847  12.802 -1.9545 -1.8481 -1.3407
  187ccc     H4 4850   2.278   0.916  12.579  0.6843  0.4354 -1.4470
  187ccc     H5 4851   2.262   1.079  12.825 -0.5894  0.2464 -0.4234
  187ccc     O1 4852   2.390   1.008  12.986  0.5430 -0.3770  0.4638
  187ccc     O2 4853   2.493   1.026  12.703  0.1229  0.2440  0.1679
  187ccc     O3 4854   2.432   0.780  12.563  0.1503  0.0800  0.6030
  187ccc     O4 4855   2.308   0.662  12.795  0.3051  0.1351 -0.1898
  187ccc     C6 4856   2.022   0.732  12.858  0.3275 -0.9742  0.5432
  187ccc     H6 4857   2.444   0.846  12.492  1.4121 -0.7920 -0.0328
  187ccc     H7 4858   2.367   0.607  12.740 -1.4720 -2.6726  0.5242
  187ccc     H8 4859   2.545   1.060  12.777  0.8710  1.2221 -0.7821
  187ccc     H9 4860   2.061   0.684  12.948  0.2766  0.3694  1.3063
  187ccc    H10 4861   1.993   0.653  12.787 -0.3957 -0.0313 -0.2408
  187ccc     O5 4862   1.906   0.804  12.903  0.2633 -0.4295  0.6261
  187ccc    H11 4863   1.876   0.757  12.983  1.0739 -1.2766  0.4425
  187ccc     O6 4864   2.192   0.899  12.897  0.5553 -0.2699  0.0261
  188ccc     C1 4865   2.097   1.953  13.720  0.4729  0.7138 -0.1381
  188ccc     C2 4866   2.234   1.993  13.778  0.3493 -0.2241 -0.4184
  188ccc     H1 4867   2.040   1.923  13.809  1.9724  0.2327  0.7016
  188ccc     H2 4868   2.232   2.062  13.863  1.1142  1.0152 -1.3614
  188ccc     C3 4869   2.310   1.872  13.835  0.1027 -0.2525 -0.1201
  188ccc     C4 4870   2.329   1.763  13.724  0.5286 -0.7120 -0.9841
  188ccc     C5 4871   2.184   1.729  13.681  0.7369  0.0777  0.2440
  188ccc     H3 4872   2.384   1.812  13.643  0.5242  0.7873 -0.1236
  188ccc     H4 4873   2.248   1.828  13.914  2.0609 -0.6288  1.2717
  188ccc     H5 4874   2.130   1.677  13.761 -1.7010 -0.3104 -1.5460
  188ccc     O1 4875   2.199   1.634  13.570  0.5958 -0.1622 -0.3210
  188ccc     O2 4876   2.412   1.648  13.771  0.5501  0.3754 -0.0968
  188ccc     O3 4877   2.439   1.903  13.889 -0.5218  0.0554 -0.1011
  188ccc     O4 4878   2.317   2.061  13.680  0.4986  0.0474  0.3553
  188ccc     C6 4879   2.017   2.069  13.667  0.0062  0.1141  0.4430
  188ccc     H6 4880   2.491   1.898  13.807 -0.1453 -0.6543  0.1745
  188ccc     H7 4881   2.250   2.124  13.649  0.5714  0.4959  1.0937
  188ccc     H8 4882   2.368   1.602  13.845  1.9279 -1.7244 -0.5206
  188ccc     H9 4883   1.956   2.115  13.745 -1.5378 -1.6302  0.3428
  188ccc    H10 4884   1.948   2.029  13.592  0.2597  2.0320 -0.8914
  188ccc     O5 4885   2.099   2.167  13.605  0.3624  0.2642 -0.0865
  188ccc    H11 4886   2.062   2.256  13.591 -0.7896 -0.1402  0.2913
  188ccc     O6 4887   2.114   1.843  13.625  0.4265 -0.5017  0.5654
  189ccc     C1 4888   2.892   2.814  13.061 -0.2644  0.0896 -0.0172
  189ccc     C2 4889   2.964   2.908  13.154 -0.6158  0.3743 -0.1882
  189ccc     H1 4890   2.944   2.825  12.965 -0.4221  1.3313  0.0275
  189ccc     H2 4891   3.062   2.865  13.180 -1.2136  0.0238  1.6511
  189ccc     C3 4892   2.977   3.049  13.099  0.0698 -0.6058  0.2981
  189ccc     C4 4893   2.836   3.105  13.085 -0.3805  0.2463 -0.1457
  189ccc     C5 4894   2.746   3.007  13.007 -0.2986 -0.5342 -0.1786
  189ccc     H3 4895   2.795   3.099  13.186 -1.6006 -2.8689 -0.7090
  189ccc     H4 4896   3.013   3.049  12.995 -0.2151  0.2299  0.1996
  189ccc     H5 4897   2.765   3.021  12.900  1.3507 -0.4065  0.1008
  189ccc     O1 4898   2.607   3.050  13.015  0.1818 -0.0522 -0.3462
  189ccc     O2 4899   2.827   3.236  13.022  0.2538 -0.3054 -0.2821
  189ccc     O3 4900   3.067   3.137  13.172  0.0705 -0.6560 -0.1131
  189ccc     O4 4901   2.883   2.892  13.270  0.0947 -0.2505 -0.4669
  189ccc     C6 4902   2.884   2.664  13.104 -0.4737  0.2452  1.1768
  189ccc     H6 4903   3.135   3.156  13.105  0.4054 -0.1643  0.3609
  189ccc     H7 4904   2.869   2.796  13.260 -0.3258 -0.2065 -0.2848
  189ccc     H8 4905   2.882   3.289  13.083  0.2598  0.0461 -0.5899
  189ccc     H9 4906   2.983   2.618  13.090  0.9212  3.0326  1.1303
  189ccc    H10 4907   2.820   2.605  13.037  0.4251  0.5743 -0.0060
  189ccc     O5 4908   2.834   2.645  13.233  0.3754  0.7668 -0.1482
  189ccc    H11 4909   2.879   2.562  13.258  0.9714  0.4288 -2.2017
  189ccc     O6 4910   2.757   2.862  13.047  0.2630 -0.4647  0.0454
  190ccc     C1 4911   2.418   3.420  13.461 -0.1063 -0.5201 -0.3251
  190ccc     C2 4912   2.413   3.572  13.440 -0.7095 -0.2941  0.0834
  190ccc     H1 4913   2.478   3.372  13.383 -1.3028 -2.0639 -0.3401
  190ccc     H2 4914   2.517   3.605  13.426 -1.4929  2.8996  1.0551
  190ccc     C3 4915   2.346   3.611  13.319  0.4154 -0.1074 -0.2201
  190ccc     C4 4916   2.207   3.549  13.316 -0.3387 -0.1855 -0.5465
  190ccc     C5 4917   2.208   3.395  13.334 -0.3595  0.1791  0.1092
  190ccc     H3 4918   2.142   3.578  13.400 -1.1968  0.7695 -1.5108
  190ccc     H4 4919   2.391   3.575  13.226 -1.7545 -2.6474 -0.4304
  190ccc     H5 4920   2.243   3.343  13.244 -1.3704  0.2979 -0.3564
  190ccc     O1 4921   2.077   3.342  13.365  0.3689 -0.0132  0.0712
  190ccc     O2 4922   2.129   3.596  13.203  0.4112  0.6333 -0.0574
  190ccc     O3 4923   2.342   3.752  13.307  0.0376 -0.2079 -0.4468
  190ccc     O4 4924   2.351   3.636  13.543  0.7278  0.1148  0.1182
  190ccc     C6 4925   2.488   3.386  13.590 -0.7250  0.1947  0.3641
  190ccc     H6 4926   2.337   3.770  13.212 -3.4205  0.2085 -0.3314
  190ccc     H7 4927   2.308   3.715  13.507 -1.9965 -1.9693 -1.5779
  190ccc     H8 4928   2.129   3.693  13.210 -0.3812  0.6727 -0.4890
  190ccc     H9 4929   2.439   3.429  13.678  2.9697 -0.3003  2.8949
  190ccc    H10 4930   2.585   3.436  13.582 -1.1529  0.9301 -0.4168
  190ccc     O5 4931   2.507   3.244  13.593  0.4102  0.0458 -0.5020
  190ccc    H11 4932   2.495   3.218  13.500 -0.6448  0.6802 -0.5553
  190ccc     O6 4933   2.282   3.368  13.452  0.0772  0.2235  0.1979
  191SOL     OW 4934   5.336   3.693   6.058 -0.0101  0.3654 -0.3115
  191SOL    HW1 4935   5.306   3.735   6.139  1.3414  1.0846 -0.1497
  191SOL    HW2 4936   5.262   3.700   5.998 -0.2906  1.7776  0.1633
  192SOL     OW 4937   8.186   1.910   5.239  0.2571 -0.2310  0.0773
  192SOL    HW1 4938   8.192   1.979   5.305 -1.9521 -2.1885  2.5165
  192SOL    HW2 4939   8.277   1.896   5.211  0.9197  2.7050  0.4131
  193SOL     OW 4940  10.036   3.729   1.459  0.2170  0.0374  0.3888
  193SOL    HW1 4941   9.956   3.739   1.512  0.1252  1.0770  0.0892
  193SOL    HW2 4942  10.093   3.799   1.490  0.8637 -0.4606  0.3285
  194SOL     OW 4943   0.777   0.819   5.208 -0.1673  0.1007  0.1825
  194SOL    HW1 4944   0.709   0.824   5.141  0.0624  1.3840  0.0249
  194SOL    HW2 4945   0.853   0.783   5.162 -0.2303  0.2822 -0.0657
  195SOL     OW 4946   8.186   6.930   0.294 -0.0819  0.4298  0.3864
  195SOL    HW1 4947   8.228   6.883   0.222  0.4387 -0.7980  1.4798
  195SOL    HW2 4948   8.239   7.009   0.305  1.1438 -0.4360  0.8503
  196SOL     OW 4949   1.420   7.531   6.752 -0.6760 -0.0923 -0.4547
  196SOL    HW1 4950   1.486   7.508   6.686 -0.4909 -1.5851  0.2264
  196SOL    HW2 4951   1.470   7.543   6.832 -1.3282 -3.2054  0.5533
  197SOL     OW 4952   1.545   7.827   1.874  0.4091  0.3576 -0.0807
  197SOL    HW1 4953   1.454   7.857   1.881  0.0437 -0.7349 -0.0613
  197SOL    HW2 4954   1.558   7.769   1.949  0.7291 -0.4785 -0.7619
  198SOL     OW 4955   6.287   1.825   3.390  0.1396  0.4936  0.1603
  198SOL    HW1 4956   6.192   1.831   3.403 -0.0107  1.7717 -1.2762
  198SOL    HW2 4957   6.319   1.913   3.407  0.8640  0.4163 -0.7209
  199SOL     OW 4958   1.634   9.414   5.867  0.3071 -0.7371 -0.0837
  199SOL    HW1 4959   1.699   9.369   5.813 -0.5005 -1.2945 -0.6188
  199SOL    HW2 4960   1.549   9.382   5.834 -0.3195  1.3797 -0.6720
  200SOL     OW 4961   0.672   6.384  10.091 -0.2102 -0.0721 -0.1512
  200SOL    HW1 4962   0.592   6.436  10.097  0.7509  1.2635  2.0644
  200SOL    HW2 4963   0.743   6.449  10.088  0.9290 -1.2275  0.7339
  201SOL     OW 4964   8.468   1.943  10.893  0.2031  0.4588 -0.2748
  201SOL    HW1 4965   8.406   2.004  10.933  1.3683  0.4449  1.6723
  201SOL    HW2 4966   8.496   1.987  10.812 -1.1898  1.1211 -0.4372
  202SOL     OW 4967   6.845   2.580   0.249  0.2889  0.2945  0.5318
  202SOL    HW1 4968   6.841   2.522   0.173 -2.2831  1.1422 -0.0892
  202SOL    HW2 4969   6.876   2.525   0.321 -0.3179 -1.3661 -0.4453
  203SOL     OW 4970  10.707   0.908   9.074  0.3385 -0.6120  0.2047
  203SOL    HW1 4971  10.701   1.003   9.085  0.6065 -0.7601  1.9213
  203SOL    HW2 4972  10.678   0.892   8.984 -0.5594  1.0079  0.1718
  204SOL     OW 4973   6.250   7.262   6.069 -0.0514 -0.5190  0.0678
  204SOL    HW1 4974   6.338   7.296   6.056  0.6335 -2.1916  0.0906
  204SOL    HW2 4975   6.202   7.334   6.111  1.3886  0.2744  0.4104
  205SOL     OW 4976   5.206  11.096   6.850 -0.1631 -0.1857 -0.0055
  205SOL    HW1 4977   5.225  11.019   6.905 -2.3249 -0.8728 -0.1331
  205SOL    HW2 4978   5.224  11.066   6.761 -0.8883 -0.5201 -0.0449
  206SOL     OW 4979   7.661   8.485   1.473  0.7436 -0.6263  0.1356
  206SOL    HW1 4980   7.592   8.459   1.534  1.8174 -0.9955  1.2541
  206SOL    HW2 4981   7.729   8.523   1.529  0.2270  2.5434 -1.1988
  207SOL     OW 4982  10.109   5.113   3.269  0.5342  0.1034 -0.0559
  207SOL    HW1 4983  10.091   5.190   3.216  2.3699  1.4464  1.1422
  207SOL    HW2 4984  10.135   5.046   3.206 -2.5691 -0.1154 -1.2679
  208SOL     OW 4985   7.590   0.496   8.305 -0.2100 -0.1632  0.2268
  208SOL    HW1 4986   7.667   0.440   8.305 -0.1154 -0.0412 -0.9343
  208SOL    HW2 4987   7.618   0.577   8.347  0.9636  0.7530 -2.1680
  209SOL     OW 4988   1.658   7.472   6.941  0.3593  0.5317  0.1938
  209SOL    HW1 4989   1.645   7.403   6.875  0.7552  0.1201  0.5371
  209SOL    HW2 4990   1.742   7.450   6.982 -0.2666  0.3130  1.4011
  210SOL     OW 4991   7.106   2.996   4.221 -0.0833 -0.5525 -0.3333
  210SOL    HW1 4992   7.160   3.075   4.227  0.1238 -0.7505  0.5538
  210SOL    HW2 4993   7.018   3.029   4.206 -0.3256 -0.0247  1.9063
  211SOL     OW 4994   0.005   8.818  11.030  0.0847 -0.1876  0.3583
  211SOL    HW1 4995  -0.010   8.724  11.020  0.0156 -0.0829 -0.5926
  211SOL    HW2 4996  -0.039   8.841  11.112  0.5898 -1.0859  0.8950
  212SOL     OW 4997   6.613   3.689   0.691  0.0499  0.0894 -0.3192
  212SOL    HW1 4998   6.611   3.784   0.692  0.3032  0.0958 -0.4347
  212SOL    HW2 4999   6.581   3.665   0.604 -0.7338  0.0471 -0.0344
  213SOL     OW 5000  10.775   8.984   6.926  0.0113  0.2588 -0.6665
  213SOL    HW1 5001  10.809   9.007   6.840  0.7833 -1.3142 -0.8106
  213SOL    HW2 5002  10.754   8.891   6.920 -2.4209  0.6889  0.0711
  214SOL     OW 5003  10.484   9.397   9.866  0.3933 -0.7816 -0.2846
  214SOL    HW1 5004  10.462   9.470   9.924 -0.1130 -1.6176  0.6159
  214SOL    HW2 5005  10.519   9.438   9.788  1.4158  0.3835  0.7369
  215SOL     OW 5006   0.681   4.005   2.636 -0.1673 -0.1712 -0.3293
  215SOL    HW1 5007   0.750   4.038   2.578 -1.5958  1.0682 -1.3872
  215SOL    HW2 5008   0.622   3.956   2.578 -0.9118 -0.0648  0.3202
  216SOL     OW 5009   7.809   2.057   1.770  0.4834  0.5531 -0.0473
  216SOL    HW1 5010   7.846   2.137   1.732 -1.9811  1.5304 -0.5758
  216SOL    HW2 5011   7.880   1.993   1.766  1.3074  1.5090 -3.4644
  217SOL     OW 5012   0.086   9.891   5.986 -0.2320  0.0790  0.5313
  217SOL    HW1 5013   0.172   9.924   6.011  0.6374 -0.4049 -1.6669
  217SOL    HW2 5014   0.104   9.810   5.939 -1.7152  0.9682 -1.7154
  218SOL     OW 5015   3.128   3.126   9.204  0.2261  0.4913  0.2854
  218SOL    HW1 5016   3.172   3.197   9.250  0.4899 -0.5678  1.7199
  218SOL    HW2 5017   3.195   3.058   9.194 -0.0875  0.3149 -0.8531
  219SOL     OW 5018   0.398   8.851   2.950 -0.0900  0.0653 -0.3593
  219SOL    HW1 5019   0.416   8.943   2.933  0.8889 -0.0822 -0.1917
  219SOL    HW2 5020   0.358   8.850   3.037  1.1790  0.2318  0.2612
  220SOL     OW 5021  10.294   9.478   5.483  0.0899  0.4649  0.2014
  220SOL    HW1 5022  10.199   9.490   5.481 -0.2657 -1.9113 -0.0018
  220SOL    HW2 5023  10.308   9.405   5.544  1.8096  0.8277  0.3005
  221SOL     OW 5024   2.923   3.367   7.406 -0.0854  0.2651 -0.0886
  221SOL    HW1 5025   2.968   3.283   7.407 -0.6801 -0.0621 -0.4483
  221SOL    HW2 5026   2.831   3.345   7.422 -0.0360  0.9854  1.4610
  222SOL     OW 5027   6.052   3.660   3.589 -0.4592  0.7080  0.4458
  222SOL    HW1 5028   6.040   3.630   3.679 -0.3322 -0.2133  0.1698
  222SOL    HW2 5029   6.097   3.588   3.546  3.3676  2.7346  0.6267
  223SOL     OW 5030   0.715   8.529   9.937 -0.0449  0.1788 -0.6972
  223SOL    HW1 5031   0.698   8.460   9.873 -0.9331 -0.0463 -0.2336
  223SOL    HW2 5032   0.706   8.610   9.888 -0.8640  0.0114 -0.8323
  224SOL     OW 5033   7.140  10.520   0.418  0.0556  0.3070  0.0035
  224SOL    HW1 5034   7.186  10.603   0.404  1.1880 -0.2062  0.5994
  224SOL    HW2 5035   7.114  10.492   0.330  0.7575  0.6882 -0.3355
  225SOL     OW 5036   3.176   6.658   3.225 -0.3267  0.0015  0.2221
  225SOL    HW1 5037   3.101   6.670   3.283  0.7794  0.7124  1.5716
  225SOL    HW2 5038   3.184   6.564   3.213  0.0776 -0.2508  2.1783
  226SOL     OW 5039   1.358   4.308  10.337 -0.4361 -0.0057  0.4748
  226SOL    HW1 5040   1.434   4.335  10.388  0.1927 -0.3882 -0.2322
  226SOL    HW2 5041   1.353   4.371  10.265 -1.0510  0.2713  0.7505
  227SOL     OW 5042  10.078   8.045   6.176 -0.5461  0.4268 -0.3202
  227SOL    HW1 5043  10.048   8.044   6.085 -0.1373  2.6579 -0.5443
  227SOL    HW2 5044  10.106   8.135   6.191  0.9408 -0.2754  1.5405
  228SOL     OW 5045   6.567  10.100   3.328 -0.3525  0.1387  0.2521
  228SOL    HW1 5046   6.573  10.194   3.348 -0.4410 -0.0103  1.0219
  228SOL    HW2 5047   6.640  10.061   3.376  1.6394  0.1552 -2.5231
  229SOL     OW 5048   5.235   9.545  10.899  0.2861 -0.1980  0.4511
  229SOL    HW1 5049   5.282   9.628  10.901  0.1447 -0.1002 -0.1002
  229SOL    HW2 5050   5.179   9.551  10.821 -0.1607 -0.5683  0.7389
  230SOL     OW 5051   6.705   0.211   8.779  0.3379 -0.0477 -0.1545
  230SOL    HW1 5052   6.798   0.198   8.762  0.2692  0.6259 -1.0634
  230SOL    HW2 5053   6.660   0.165   8.708 -0.0207  0.0430  0.0065
  231SOL     OW 5054   9.930   1.818   5.228 -0.1976  0.0074  0.4536
  231SOL    HW1 5055   9.908   1.739   5.178 -0.1985 -0.5861  1.3841
  231SOL    HW2 5056   9.980   1.786   5.303  0.7951  1.0035  0.2405
  232SOL     OW 5057  10.909   7.246  10.520 -0.6118  0.2263  0.0266
  232SOL    HW1 5058  10.867   7.303  10.455 -0.7204 -0.5687 -0.6187
  232SOL    HW2 5059  10.914   7.161  10.477  1.2351  0.1721  0.2667
  233SOL     OW 5060   6.836   2.764   2.306  0.3058 -0.6830  0.1163
  233SOL    HW1 5061   6.928   2.777   2.283 -0.0439  0.5436 -0.6346
  233SOL    HW2 5062   6.790   2.840   2.271 -1.0357 -1.3507  0.3312
  234SOL     OW 5063   0.818   0.495   4.260  0.2950 -0.0861 -0.4070
  234SOL    HW1 5064   0.810   0.551   4.183  0.3746  1.8132  0.8867
  234SOL    HW2 5065   0.908   0.463   4.257  0.6449  0.8701 -0.5455
  235SOL     OW 5066   5.227   3.796   4.971  0.8012  0.1224  0.3086
  235SOL    HW1 5067   5.163   3.822   4.905 -0.4623  0.1979  1.5409
  235SOL    HW2 5068   5.231   3.869   5.032 -0.3444 -1.1697  1.9951
  236SOL     OW 5069   8.852   7.422   8.841 -0.1098  0.3557  0.0600
  236SOL    HW1 5070   8.832   7.338   8.800 -0.0068  1.1307 -1.6817
  236SOL    HW2 5071   8.936   7.408   8.884  0.9339  0.0666 -1.9259
  237SOL     OW 5072   8.364   2.847   4.879  0.1059  0.2248 -0.3304
  237SOL    HW1 5073   8.275   2.833   4.846  0.7622 -0.3368 -1.9583
  237SOL    HW2 5074   8.381   2.940   4.862 -1.1477  1.1098  2.6214
  238SOL     OW 5075  10.725   1.281   8.916 -0.2059 -0.5325 -0.3158
  238SOL    HW1 5076  10.756   1.370   8.935 -0.2935 -0.7580  0.9393
  238SOL    HW2 5077  10.666   1.292   8.841  1.4751  0.1433 -1.6207
  239SOL     OW 5078  10.555   4.142   2.999 -0.1020  0.4124 -0.7323
  239SOL    HW1 5079  10.631   4.164   3.053  0.5886 -0.6694 -1.2151
  239SOL    HW2 5080  10.516   4.066   3.043 -1.8267  1.8431  0.3440
  240SOL     OW 5081   7.215   1.667  10.487 -0.2006 -0.3467 -0.0099
  240SOL    HW1 5082   7.289   1.638  10.540 -1.3279 -1.4685  1.0003
  240SOL    HW2 5083   7.255   1.698  10.405  1.5554  1.2136  1.3575
  241SOL     OW 5084   1.453   3.368  10.586  0.1935  0.1348  0.1559
  241SOL    HW1 5085   1.418   3.289  10.627  1.2387 -0.8453 -0.7619
  241SOL    HW2 5086   1.450   3.349  10.492  2.3305  0.3150 -0.0066
  242SOL     OW 5087   8.179   1.288   2.795  0.1230 -0.3278 -0.4258
  242SOL    HW1 5088   8.118   1.215   2.801  0.9496 -1.0088 -0.1301
  242SOL    HW2 5089   8.211   1.300   2.885  0.1558  0.2671 -0.5076
  243SOL     OW 5090   1.070   5.502   1.154 -0.0443  0.3966 -0.2961
  243SOL    HW1 5091   1.015   5.548   1.091  0.2035 -0.8237 -1.4509
  243SOL    HW2 5092   1.065   5.555   1.234 -1.3689  1.3097 -0.9474
  244SOL     OW 5093  10.168   8.480   0.170 -0.2715  0.0423  0.1239
  244SOL    HW1 5094  10.082   8.522   0.179  0.0022  0.6147  0.0866
  244SOL    HW2 5095  10.231   8.552   0.174  0.1533 -0.2412 -0.9630
  245SOL     OW 5096   7.308   1.983   2.769  0.0703  0.2711 -0.2622
  245SOL    HW1 5097   7.347   2.015   2.687  2.4534 -0.6853  0.4051
  245SOL    HW2 5098   7.259   1.905   2.743 -0.3605  0.7501 -0.9429
  246SOL     OW 5099   7.452   2.627   5.423 -0.1353  0.5604  0.7927
  246SOL    HW1 5100   7.470   2.659   5.512 -0.0090 -0.6162  1.2140
  246SOL    HW2 5101   7.441   2.533   5.434 -0.2683  0.4225 -0.4306
  247SOL     OW 5102   3.806   2.538  10.844  0.1888  0.2401  0.1074
  247SOL    HW1 5103   3.868   2.600  10.807  0.1926  0.4815  0.5088
  247SOL    HW2 5104   3.860   2.479  10.898  0.3193 -0.7124 -1.0198
  248SOL     OW 5105   8.206   2.734   0.926 -0.0785 -0.2752 -0.3274
  248SOL    HW1 5106   8.154   2.805   0.963  0.8770 -0.0216  0.5861
  248SOL    HW2 5107   8.225   2.761   0.836 -1.3585 -0.3068 -0.6289
  249SOL     OW 5108   0.473   9.818   4.102 -0.6602  0.0585  0.1147
  249SOL    HW1 5109   0.562   9.838   4.072  0.5901 -3.0961  1.2644
  249SOL    HW2 5110   0.417   9.848   4.031  1.5541 -0.2507 -1.8993
  250SOL     OW 5111   3.447   2.427   7.477  0.0856 -0.1559  0.7436
  250SOL    HW1 5112   3.364   2.385   7.502  0.2539 -0.3285  1.0138
  250SOL    HW2 5113   3.448   2.509   7.525 -0.9720  0.9184 -0.9620
  251SOL     OW 5114   7.138   9.001   7.306 -0.2318  0.5377 -0.1691
  251SOL    HW1 5115   7.190   9.009   7.386 -0.7255  0.1640  0.1966
  251SOL    HW2 5116   7.176   8.925   7.260  0.9316  1.5610 -0.9747
  252SOL     OW 5117   5.316   7.138   5.778  0.4708 -0.2271  0.1823
  252SOL    HW1 5118   5.249   7.112   5.715 -0.2864  1.4812  0.2280
  252SOL    HW2 5119   5.285   7.105   5.862 -1.0720  1.6862  0.4382
  253SOL     OW 5120   1.867   8.815   8.487 -0.0563  0.1353 -0.1945
  253SOL    HW1 5121   1.889   8.744   8.427  0.4168 -0.8054  1.0368
  253SOL    HW2 5122   1.925   8.887   8.461  1.3610 -0.8262  0.1789
  254SOL     OW 5123   6.440   5.488   2.286 -0.1522 -0.1775  0.2543
  254SOL    HW1 5124   6.353   5.529   2.294 -1.3138 -2.3853 -0.2864
  254SOL    HW2 5125   6.479   5.500   2.373  0.1940  3.1791 -0.2122
  255SOL     OW 5126   5.399   6.045   9.432 -0.0000 -0.1628 -0.0215
  255SOL    HW1 5127   5.414   6.122   9.377  0.0939 -1.0384 -1.2676
  255SOL    HW2 5128   5.314   6.061   9.473 -0.1849  0.4045 -0.6126
  256SOL     OW 5129   5.526   3.568   8.371 -0.5763 -0.4226  0.0725
  256SOL    HW1 5130   5.503   3.646   8.423 -2.1665 -1.1114  0.4581
  256SOL    HW2 5131   5.570   3.510   8.434 -0.3431 -0.2726  0.0484
  257SOL     OW 5132   6.279   6.815   3.488  0.5644  0.0277 -0.1733
  257SOL    HW1 5133   6.203   6.873   3.484  1.2066  0.9496  0.7711
  257SOL    HW2 5134   6.261   6.758   3.563  0.3420 -0.4305 -0.5696
  258SOL     OW 5135   6.905   0.230   7.981 -0.0068 -0.0096 -0.2481
  258SOL    HW1 5136   6.862   0.151   8.013 -3.5728  1.7749 -0.1737
  258SOL    HW2 5137   6.892   0.227   7.886  2.4822 -0.8472 -0.6329
  259SOL     OW 5138   9.709   3.910   8.080 -0.0040  0.1655 -0.0699
  259SOL    HW1 5139   9.653   3.939   8.152  0.4901 -1.9007  1.2499
  259SOL    HW2 5140   9.784   3.870   8.123 -0.0513 -1.8290 -1.6825
  260SOL     OW 5141   7.614   2.233   6.157  0.2800 -0.1747 -0.4337
  260SOL    HW1 5142   7.676   2.162   6.140 -0.0916 -0.5081 -0.4001
  260SOL    HW2 5143   7.657   2.287   6.224  0.2694 -0.7483  0.0452
  261SOL     OW 5144   3.230  10.184   8.431  0.0404  0.6639 -0.0715
  261SOL    HW1 5145   3.184  10.263   8.402  1.6913  2.0553  0.8662
  261SOL    HW2 5146   3.320  10.197   8.402  0.5865 -0.3605  1.0590
  262SOL     OW 5147   1.304  10.665   6.560  0.2506  0.1190  0.0310
  262SOL    HW1 5148   1.211  10.668   6.539  0.0794  0.4967  0.8139
  262SOL    HW2 5149   1.319  10.574   6.587  0.4765 -0.3751 -1.6532
  263SOL     OW 5150   9.415   5.803   2.670 -0.5133  0.0104  0.0670
  263SOL    HW1 5151   9.332   5.796   2.624 -0.1007 -1.1499 -0.5360
  263SOL    HW2 5152   9.465   5.869   2.622  0.4185 -2.0849 -2.0353
  264SOL     OW 5153   9.485   9.122  10.744  0.1820  0.1883  0.0014
  264SOL    HW1 5154   9.397   9.102  10.775  1.8249 -2.4175  3.7918
  264SOL    HW2 5155   9.501   9.057  10.675 -0.3222 -0.4946  0.5092
  265SOL     OW 5156   0.277   1.354   8.263 -0.5180  0.1269  0.1663
  265SOL    HW1 5157   0.357   1.302   8.265  1.0327  2.3214 -0.9112
  265SOL    HW2 5158   0.247   1.356   8.354  0.5148 -0.9028  0.5541
  266SOL     OW 5159   5.092   7.980   4.737  0.1060  0.0796  0.0624
  266SOL    HW1 5160   5.188   7.975   4.738  0.0854 -1.6857 -1.7501
  266SOL    HW2 5161   5.072   8.059   4.686  0.6430 -0.6851 -1.3892
  267SOL     OW 5162   7.371   6.230   2.230  0.6790  0.2998  0.1221
  267SOL    HW1 5163   7.441   6.164   2.240 -0.1035 -0.7939 -1.2302
  267SOL    HW2 5164   7.341   6.219   2.140 -0.2312  1.7852  0.2195
  268SOL     OW 5165   6.256   7.950   9.033 -0.1719 -0.3661  0.6826
  268SOL    HW1 5166   6.321   7.913   9.092  0.3901  0.0713  0.3526
  268SOL    HW2 5167   6.181   7.970   9.090 -0.8233 -2.6899  0.7402
  269SOL     OW 5168   0.691  10.349   0.564  0.0877  0.3105 -0.1605
  269SOL    HW1 5169   0.695  10.394   0.480  0.8005 -0.5693 -0.6054
  269SOL    HW2 5170   0.677  10.419   0.628 -0.6344  0.9684 -1.0148
  270SOL     OW 5171   6.850  10.317   8.775  0.5641 -0.2717  0.1770
  270SOL    HW1 5172   6.863  10.410   8.757 -0.0070  0.0599  1.3208
  270SOL    HW2 5173   6.867  10.273   8.692 -0.3006  0.9574 -0.6786
  271SOL     OW 5174   1.455  10.628   7.097  0.4345 -0.0232  0.1878
  271SOL    HW1 5175   1.550  10.636   7.092  0.5456 -1.7760 -1.7309
  271SOL    HW2 5176   1.425  10.649   7.008 -0.7078 -2.0205  0.0617
  272SOL     OW 5177   2.256   6.159   3.101 -0.3338 -0.0595  1.1644
  272SOL    HW1 5178   2.161   6.163   3.111 -0.7129 -0.7989 -1.4302
  272SOL    HW2 5179   2.284   6.251   3.101 -1.2079  0.2114  0.7467
  273SOL     OW 5180   8.637   2.599   4.543 -0.7376 -0.3542  0.1384
  273SOL    HW1 5181   8.646   2.535   4.613  0.8262  1.0371  1.2940
  273SOL    HW2 5182   8.556   2.647   4.564 -0.8346 -0.6348  0.4045
  274SOL     OW 5183   1.769   5.970  10.449 -0.3939  0.2641  0.3246
  274SOL    HW1 5184   1.848   5.935  10.408 -0.2872  0.4587  0.3633
  274SOL    HW2 5185   1.706   5.898  10.446 -0.7702  0.6329 -1.2191
  275SOL     OW 5186   6.120   4.390   3.679 -0.1223  0.0425 -0.5032
  275SOL    HW1 5187   6.096   4.458   3.743 -1.2833  0.0689 -0.9384
  275SOL    HW2 5188   6.156   4.439   3.605  1.8538 -0.0253  0.3427
  276SOL     OW 5189   7.752   0.607  10.577  0.0310 -0.3278  0.1101
  276SOL    HW1 5190   7.844   0.582  10.562 -0.2766 -0.6845 -1.3633
  276SOL    HW2 5191   7.703   0.558  10.510 -1.0183  1.2915 -0.3653
  277SOL     OW 5192   2.807   6.825   3.149  0.4281 -0.3369 -0.5602
  277SOL    HW1 5193   2.867   6.875   3.205  1.2815 -1.9282  0.0209
  277SOL    HW2 5194   2.808   6.870   3.065 -0.2950  1.6735  0.4519
  278SOL     OW 5195   5.178  10.044   4.191 -0.5151  0.5250 -0.6418
  278SOL    HW1 5196   5.163  10.137   4.209 -1.9758  0.1659  0.2682
  278SOL    HW2 5197   5.268  10.029   4.217 -0.5023  1.5245 -0.0319
  279SOL     OW 5198   4.240   6.172  10.450 -0.0763  0.7474 -0.0094
  279SOL    HW1 5199   4.283   6.151  10.368  2.2343 -1.4832  1.6222
  279SOL    HW2 5200   4.205   6.261  10.437  0.9595  0.8219 -3.0267
  280SOL     OW 5201   5.753   6.352   2.693 -0.0587  0.3014 -0.3846
  280SOL    HW1 5202   5.772   6.397   2.610  1.0784  1.7816  0.6344
  280SOL    HW2 5203   5.658   6.349   2.698 -0.1599 -0.3872 -2.0271
  281SOL     OW 5204   1.139  10.963   2.635 -0.4340  0.1389 -0.0942
  281SOL    HW1 5205   1.048  10.944   2.661 -0.1833 -0.5738  0.3021
  281SOL    HW2 5206   1.185  10.880   2.648  0.3232  0.5512 -0.0807
  282SOL     OW 5207   4.358   9.050   6.891 -0.5343 -0.7217 -0.2002
  282SOL    HW1 5208   4.398   8.972   6.929 -1.2980 -0.5102  1.1241
  282SOL    HW2 5209   4.390   9.122   6.946 -0.5350 -0.2150 -0.8553
  283SOL     OW 5210   2.220   0.902   5.774  0.1441 -0.5490  0.2938
  283SOL    HW1 5211   2.185   0.826   5.820  0.0819 -0.4887  0.3449
  283SOL    HW2 5212   2.292   0.933   5.829 -0.4267 -0.0038  0.7489
  284SOL     OW 5213   6.620   5.557   3.062  0.1466  0.4050 -0.4172
  284SOL    HW1 5214   6.650   5.578   3.151  2.0346 -2.1279 -0.3407
  284SOL    HW2 5215   6.537   5.511   3.075 -0.7180  1.9622 -0.1787
  285SOL     OW 5216   2.031   9.028   5.988 -0.0390 -0.4007 -0.0204
  285SOL    HW1 5217   2.036   8.974   5.909 -0.5146 -0.2802 -0.1424
  285SOL    HW2 5218   2.085   9.105   5.968 -0.0631 -0.4270 -0.1858
  286SOL     OW 5219  10.347   8.614   8.770  0.0828  0.1419  0.8476
  286SOL    HW1 5220  10.342   8.694   8.718 -0.2107 -0.4854 -0.0968
  286SOL    HW2 5221  10.425   8.627   8.825  0.3849  0.8148  0.2792
  287SOL     OW 5222   0.171  10.688   4.421 -0.0543 -0.4108  0.0692
  287SOL    HW1 5223   0.266  10.693   4.433 -0.0566 -1.8337  0.8046
  287SOL    HW2 5224   0.135  10.740   4.492  0.1599  2.2120 -1.5936
  288SOL     OW 5225   6.306   1.714   9.578  0.1612 -0.4482 -0.1524
  288SOL    HW1 5226   6.213   1.713   9.555 -0.0289 -0.4037  0.5804
  288SOL    HW2 5227   6.323   1.804   9.604  0.2523 -0.6024  0.3259
  289SOL     OW 5228   2.912   7.877   8.736 -0.6125 -0.0786 -0.5299
  289SOL    HW1 5229   2.896   7.802   8.793  0.0609 -0.3242 -0.6588
  289SOL    HW2 5230   2.983   7.850   8.679  1.8033  1.6690  1.4340
  290SOL     OW 5231   2.594   7.986   6.357 -0.2033  0.6168  0.3418
  290SOL    HW1 5232   2.633   7.913   6.308 -0.0694  0.3149  0.8842
  290SOL    HW2 5233   2.501   7.964   6.363 -0.5960  1.5819 -1.3854
  291SOL     OW 5234   1.055   8.122   1.733 -0.4038 -0.4662  0.5067
  291SOL    HW1 5235   1.137   8.084   1.702 -1.5003 -1.2563 -1.6617
  291SOL    HW2 5236   1.033   8.188   1.667 -1.4926 -0.2276  1.0833
  292SOL     OW 5237   0.909   3.798   8.757 -0.6304  0.2505 -0.2672
  292SOL    HW1 5238   1.003   3.790   8.778 -0.9095  1.6922  1.9520
  292SOL    HW2 5239   0.868   3.726   8.805 -0.7398  0.1599 -0.4990
  293SOL     OW 5240   9.030   9.568   2.891  0.0359  0.0431  0.9944
  293SOL    HW1 5241   9.018   9.543   2.799  1.5015 -1.1121  1.0868
  293SOL    HW2 5242   8.963   9.635   2.906 -2.0208 -1.5945 -0.1804
  294SOL     OW 5243  10.156   7.700   0.347 -0.3850 -0.1033 -1.0479
  294SOL    HW1 5244  10.083   7.744   0.391 -0.5077 -1.2534 -0.0621
  294SOL    HW2 5245  10.203   7.771   0.302 -1.6278  0.7609 -1.0183
  295SOL     OW 5246   5.082   6.438   5.463  0.2164  0.2373  0.6660
  295SOL    HW1 5247   5.146   6.375   5.427  0.0016  0.0192  0.6614
  295SOL    HW2 5248   5.004   6.424   5.410 -0.1614 -0.2029  1.3259
  296SOL     OW 5249   6.260   8.365   6.710  0.4094  0.4405 -0.3289
  296SOL    HW1 5250   6.266   8.415   6.792  3.4136  2.2918 -1.5328
  296SOL    HW2 5251   6.175   8.388   6.674 -0.6549  0.1843  1.8663
  297SOL     OW 5252   2.223   2.935   0.938  0.4396 -0.0509 -0.5648
  297SOL    HW1 5253   2.290   2.866   0.931 -0.0966 -0.6863  0.3181
  297SOL    HW2 5254   2.179   2.933   0.853  2.0486  0.9501 -1.4774
  298SOL     OW 5255  10.040   5.893   5.939  0.3374 -0.0107 -0.3251
  298SOL    HW1 5256  10.122   5.882   5.891  0.0506  0.0297 -0.8309
  298SOL    HW2 5257  10.012   5.804   5.960  1.1831  0.0132  1.0199
  299SOL     OW 5258   9.224   3.740   9.226 -0.4309  0.3630  0.0369
  299SOL    HW1 5259   9.143   3.692   9.208  0.5773 -0.6160 -2.5430
  299SOL    HW2 5260   9.241   3.788   9.144  2.6900 -1.2833 -0.4288
  300SOL     OW 5261   3.371   5.888   5.488  0.0387 -0.4282 -0.1427
  300SOL    HW1 5262   3.369   5.902   5.394 -1.6472 -0.7620 -0.1848
  300SOL    HW2 5263   3.454   5.843   5.504  1.2335  1.2714 -1.1860
  301SOL     OW 5264   9.042   2.062   4.224  0.2108 -0.3807 -0.1135
  301SOL    HW1 5265   9.034   1.977   4.181  1.9462 -0.1063 -1.0478
  301SOL    HW2 5266   9.082   2.119   4.158  0.0123  0.9066  0.8309
  302SOL     OW 5267   0.795   1.019   7.602 -0.0120 -0.2934 -0.7037
  302SOL    HW1 5268   0.740   1.054   7.531  1.1708  0.5174 -1.2405
  302SOL    HW2 5269   0.882   1.054   7.585  0.2126  0.3617  1.4603
  303SOL     OW 5270  10.853   6.633   4.438  0.2275 -0.2985  0.0516
  303SOL    HW1 5271  10.924   6.608   4.379 -0.9917 -1.0203 -1.1633
  303SOL    HW2 5272  10.852   6.728   4.436  0.6474 -0.3057 -0.5493
  304SOL     OW 5273   5.844   2.213   6.163  0.1694  0.1372 -0.5386
  304SOL    HW1 5274   5.936   2.206   6.189  0.4121  1.6185 -0.9149
  304SOL    HW2 5275   5.843   2.185   6.072  0.4212  0.9271 -0.7977
  305SOL     OW 5276   5.256   3.125   1.481  0.2446  0.3920 -0.3904
  305SOL    HW1 5277   5.165   3.105   1.500 -0.3819  2.4196 -1.1168
  305SOL    HW2 5278   5.296   3.141   1.567 -0.3976  0.7452 -0.1559
  306SOL     OW 5279   0.838   1.246   9.304  0.0916 -0.0961  0.0205
  306SOL    HW1 5280   0.744   1.260   9.301  0.2022  1.2087  1.2091
  306SOL    HW2 5281   0.875   1.334   9.295  1.1995 -0.5945 -0.4954
  307SOL     OW 5282   2.164   3.094   4.912 -0.6905  0.0548 -0.1516
  307SOL    HW1 5283   2.163   3.011   4.864 -1.2508 -0.6010  0.9251
  307SOL    HW2 5284   2.254   3.125   4.906 -0.2048 -1.1904  0.3055
  308SOL     OW 5285  10.748   8.673   3.499  0.1744 -0.0996 -0.6249
  308SOL    HW1 5286  10.681   8.691   3.434  1.7376 -1.8689 -2.9017
  308SOL    HW2 5287  10.730   8.584   3.529  1.1302 -0.3986 -0.8778
  309SOL     OW 5288   7.586   9.405   4.494 -0.3438 -0.4504  0.5596
  309SOL    HW1 5289   7.609   9.376   4.406  0.2324  0.3889  0.4208
  309SOL    HW2 5290   7.504   9.454   4.481 -0.8106 -1.1858  0.6559
  310SOL     OW 5291   5.080   5.749   0.851  0.2475  0.2971  0.1345
  310SOL    HW1 5292   5.027   5.805   0.908 -0.2031 -0.3812  0.4014
  310SOL    HW2 5293   5.017   5.711   0.790  0.6561  0.6286 -0.4930
  311SOL     OW 5294   9.049   1.907   6.590  0.5119  0.0110  0.3778
  311SOL    HW1 5295   8.981   1.971   6.609 -1.4951 -0.8867 -2.9878
  311SOL    HW2 5296   9.033   1.835   6.652 -0.7348  0.4074  0.5295
  312SOL     OW 5297   2.306   6.590   0.863  0.3090  0.5172 -0.4757
  312SOL    HW1 5298   2.378   6.527   0.854 -0.3395 -0.2330 -0.5053
  312SOL    HW2 5299   2.267   6.569   0.947 -0.6537  0.0883 -1.0197
  313SOL     OW 5300   8.635   1.976   7.111  0.1227 -0.4662  0.5831
  313SOL    HW1 5301   8.580   2.019   7.044 -0.1678  0.9841  1.6923
  313SOL    HW2 5302   8.713   1.947   7.063 -1.2239 -1.8704 -0.8782
  314SOL     OW 5303  10.928   5.219   4.448  0.3699 -0.2287  0.5272
  314SOL    HW1 5304  10.989   5.145   4.458 -0.5184 -1.0150  0.2664
  314SOL    HW2 5305  10.975   5.281   4.392  0.2310 -1.6561 -1.2840
  315SOL     OW 5306   2.026   0.505   5.601  0.0826 -0.7133  0.3125
  315SOL    HW1 5307   2.027   0.505   5.696  0.5883 -0.4019  0.3107
  315SOL    HW2 5308   2.116   0.483   5.576  0.8453  2.3566 -0.0735
  316SOL     OW 5309   2.109   9.880   3.558 -0.4034  0.1492 -0.1639
  316SOL    HW1 5310   2.170   9.827   3.508  0.8611  3.2091 -2.1088
  316SOL    HW2 5311   2.141   9.969   3.550 -3.8382  1.6439  0.6945
  317SOL     OW 5312   2.427   7.713   3.111  0.3599 -0.4448 -0.3427
  317SOL    HW1 5313   2.411   7.752   3.025  2.5508  0.4707 -0.4090
  317SOL    HW2 5314   2.523   7.716   3.122  0.1329  0.1198  2.3947
  318SOL     OW 5315   4.879   6.584   8.315 -0.6637  0.4182 -0.0298
  318SOL    HW1 5316   4.835   6.527   8.251  0.9218 -1.6296  0.6077
  318SOL    HW2 5317   4.933   6.643   8.261 -0.4716 -0.2990 -0.6375
  319SOL     OW 5318   9.547   0.131   3.643 -0.1221  0.2599 -0.0588
  319SOL    HW1 5319   9.476   0.194   3.652 -0.5231  0.0013 -1.2479
  319SOL    HW2 5320   9.528   0.064   3.708 -0.0431  1.0261  0.7730
  320SOL     OW 5321  10.537   3.582   7.231  0.3055  0.4044  0.7874
  320SOL    HW1 5322  10.569   3.613   7.146  0.1681  0.2239  0.6672
  320SOL    HW2 5323  10.579   3.638   7.295  1.4843 -0.3264  0.6847
  321SOL     OW 5324   7.134   5.631   1.230  0.8870  0.1351 -0.3651
  321SOL    HW1 5325   7.223   5.630   1.196  0.9432  1.1854 -0.2852
  321SOL    HW2 5326   7.103   5.720   1.213 -0.0703 -0.1550 -0.1952
  322SOL     OW 5327   8.979   6.594   3.234 -0.3687 -0.3259  0.1858
  322SOL    HW1 5328   8.885   6.602   3.249 -1.4005 -4.0540 -2.7525
  322SOL    HW2 5329   8.992   6.628   3.146  0.8187 -0.8252  0.1522
  323SOL     OW 5330   0.203   8.220   8.851 -0.3654 -0.2408  0.4967
  323SOL    HW1 5331   0.153   8.189   8.926 -1.7220  1.6266  0.4187
  323SOL    HW2 5332   0.150   8.196   8.775 -1.1061  1.5768  0.4049
  324SOL     OW 5333   8.980  10.834   4.471 -0.2785  0.1964 -0.0004
  324SOL    HW1 5334   9.028  10.797   4.397  0.1156  1.2430 -0.2878
  324SOL    HW2 5335   8.915  10.767   4.494 -0.0487 -0.3622 -0.9426
  325SOL     OW 5336   3.286   3.440   8.709 -0.2593 -0.2604  0.7013
  325SOL    HW1 5337   3.338   3.363   8.686 -1.3422 -0.9691  0.5299
  325SOL    HW2 5338   3.197   3.418   8.682 -0.6049  1.0405  0.7020
  326SOL     OW 5339  10.979   9.914   3.008 -0.2987  0.9139  0.1162
  326SOL    HW1 5340  10.956   9.863   2.930 -2.0426 -0.3905  1.3864
  326SOL    HW2 5341  10.982  10.005   2.977 -0.5490  0.3968 -1.5424
  327SOL     OW 5342   4.636   8.613   5.613  0.4774 -0.0565 -0.1080
  327SOL    HW1 5343   4.653   8.605   5.519  0.6367  0.0597 -0.0908
  327SOL    HW2 5344   4.676   8.535   5.652  0.3518 -0.1386 -0.1439
  328SOL     OW 5345   9.560   4.714   9.695 -0.4315 -0.4574 -0.0325
  328SOL    HW1 5346   9.649   4.749   9.703 -0.8829  0.4987  0.9329
  328SOL    HW2 5347   9.557   4.678   9.606  1.6008 -2.4415  0.5957
  329SOL     OW 5348   5.439   5.938   5.438 -0.0276 -0.5088  0.3659
  329SOL    HW1 5349   5.515   5.996   5.437 -1.4165  1.5677  2.9254
  329SOL    HW2 5350   5.476   5.851   5.453  1.9881 -0.1114 -1.7088
  330SOL     OW 5351   8.644   9.118   3.252  0.1124  0.3520  0.2605
  330SOL    HW1 5352   8.727   9.076   3.231  0.4031  0.1999  1.6524
  330SOL    HW2 5353   8.619   9.082   3.337 -0.8568  1.1782  0.3444
  331SOL     OW 5354   8.031   2.812   4.180 -0.2546 -0.1713 -0.2152
  331SOL    HW1 5355   8.007   2.750   4.111  0.7278  0.7898 -1.4784
  331SOL    HW2 5356   7.957   2.873   4.184 -1.1256 -1.2524  0.8792
  332SOL     OW 5357   4.010   0.836   7.382 -0.1483 -0.0133  0.4369
  332SOL    HW1 5358   4.010   0.819   7.476  0.5584 -0.5816  0.3393
  332SOL    HW2 5359   3.988   0.929   7.375  0.2090  0.1364  1.1856
  333SOL     OW 5360   7.482   9.159   6.882 -0.6583 -0.0835  0.0215
  333SOL    HW1 5361   7.433   9.079   6.864  0.2874 -0.7264  0.2173
  333SOL    HW2 5362   7.570   9.129   6.905 -0.4919  0.9651  0.8887
  334SOL     OW 5363   6.229   4.134   4.798 -0.3395  0.4548 -0.7381
  334SOL    HW1 5364   6.324   4.146   4.808 -0.4734  0.5878  0.5624
  334SOL    HW2 5365   6.202   4.205   4.739  0.3807  0.3242 -1.2490
  335SOL     OW 5366   6.445   4.870   8.402  0.1570 -0.0760 -0.2653
  335SOL    HW1 5367   6.403   4.814   8.336  0.5889 -0.8237  0.0807
  335SOL    HW2 5368   6.434   4.823   8.484 -0.9482  1.1645  0.3302
  336SOL     OW 5369   8.397   1.839   1.110 -0.0038 -0.1710  0.3191
  336SOL    HW1 5370   8.435   1.766   1.062  0.3897 -0.3175  0.8435
  336SOL    HW2 5371   8.467   1.905   1.113 -0.4839  0.4000 -0.4939
  337SOL     OW 5372   9.235   9.433  10.613 -0.7177  0.1810 -0.1762
  337SOL    HW1 5373   9.153   9.457  10.570 -0.8090 -1.5106 -1.0431
  337SOL    HW2 5374   9.212   9.359  10.670  0.4854 -1.6675 -1.9463
  338SOL     OW 5375   8.075   8.939   4.608  0.3243 -0.0944  0.2209
  338SOL    HW1 5376   8.061   8.920   4.516 -0.4704 -1.1085  0.5378
  338SOL    HW2 5377   7.990   8.969   4.640  0.2609 -0.9561  0.8985
  339SOL     OW 5378   5.023   1.229   6.096 -0.3741  0.3204  0.0120
  339SOL    HW1 5379   5.062   1.145   6.117 -0.8253  0.1436  0.1653
  339SOL    HW2 5380   4.931   1.208   6.079 -0.3663  0.6948 -0.5272
  340SOL     OW 5381   2.423   9.706   1.993  0.1546 -0.0002  0.1747
  340SOL    HW1 5382   2.432   9.623   1.948 -0.4122 -0.9707  1.7563
  340SOL    HW2 5383   2.444   9.772   1.927  1.5652 -1.4154 -0.8635
  341SOL     OW 5384   1.429   9.315   6.777  0.0076 -0.3303  0.0820
  341SOL    HW1 5385   1.352   9.372   6.777  0.4110  0.2193  0.4793
  341SOL    HW2 5386   1.491   9.358   6.718 -0.4520 -1.4269 -1.2657
  342SOL     OW 5387  10.148   4.216   6.455 -0.0103 -0.9898  0.1885
  342SOL    HW1 5388  10.214   4.225   6.386 -1.0468 -0.1231 -0.7307
  342SOL    HW2 5389  10.177   4.141   6.507  0.1662 -2.4605 -1.9166
  343SOL     OW 5390   5.369   9.570   1.202  0.1480 -0.4769  0.1932
  343SOL    HW1 5391   5.453   9.563   1.158  0.0068 -2.4115  0.1374
  343SOL    HW2 5392   5.304   9.564   1.132 -0.0555 -0.5117  0.3842
  344SOL     OW 5393   3.353   4.916   4.785 -0.1013  0.3362  0.4593
  344SOL    HW1 5394   3.349   4.849   4.852  0.0244  1.4425  1.6031
  344SOL    HW2 5395   3.416   4.883   4.721 -3.0458 -2.5674 -1.2655
  345SOL     OW 5396   1.588   6.792   1.859 -0.1396 -0.1875 -0.8052
  345SOL    HW1 5397   1.504   6.750   1.878  1.4537 -2.6999  1.5163
  345SOL    HW2 5398   1.581   6.879   1.898 -1.0778 -1.0318  1.0326
  346SOL     OW 5399   3.839   8.322   4.591  0.3760  0.2700  0.0656
  346SOL    HW1 5400   3.764   8.274   4.625  1.1073 -0.0957  1.2284
  346SOL    HW2 5401   3.889   8.257   4.542  0.3725  0.2980  0.0245
  347SOL     OW 5402   3.444   6.543   6.266 -0.5688 -0.0943 -0.2446
  347SOL    HW1 5403   3.452   6.521   6.359  2.7361 -0.5378 -0.4924
  347SOL    HW2 5404   3.400   6.468   6.227 -0.2491 -0.7921  0.7008
  348SOL     OW 5405   1.627   9.946   6.266 -0.0536  0.6108 -0.3781
  348SOL    HW1 5406   1.651   9.931   6.175 -0.2409 -0.6477 -0.2330
  348SOL    HW2 5407   1.532   9.939   6.267 -0.0980  1.1828 -0.1737
  349SOL     OW 5408   0.054   4.142   9.172  0.4170 -0.4172 -0.6000
  349SOL    HW1 5409   0.032   4.229   9.140  2.1543  0.5035  0.5226
  349SOL    HW2 5410  -0.024   4.089   9.154 -0.3012  1.0906 -2.2263
  350SOL     OW 5411   9.266   9.412   6.960  0.8467 -0.0178  0.3409
  350SOL    HW1 5412   9.260   9.426   6.866  2.2307  3.2945  0.6009
  350SOL    HW2 5413   9.175   9.403   6.989  0.4457 -2.3472 -1.3487
  351SOL     OW 5414   1.639   5.974   4.979 -0.1650 -0.6081 -0.5143
  351SOL    HW1 5415   1.698   5.915   5.026 -0.9520 -1.1752 -0.2217
  351SOL    HW2 5416   1.577   6.003   5.045 -0.7606 -0.7254 -1.0209
  352SOL     OW 5417   6.541   3.101   1.880 -0.3620 -0.1507 -0.0277
  352SOL    HW1 5418   6.601   3.119   1.808 -1.1337  0.2125 -0.5909
  352SOL    HW2 5419   6.518   3.008   1.870  0.1937 -0.3268  0.2694
  353SOL     OW 5420   9.932   8.449   4.027 -0.1000 -0.0409  0.0443
  353SOL    HW1 5421   9.984   8.453   4.107 -0.4141 -0.6989  0.2851
  353SOL    HW2 5422   9.845   8.480   4.053 -0.3734 -0.8453  0.1073
  354SOL     OW 5423   4.422   8.511   8.604  0.5885 -0.6418 -0.3605
  354SOL    HW1 5424   4.371   8.433   8.627 -0.7851  0.4109  0.2731
  354SOL    HW2 5425   4.436   8.504   8.509  0.9777 -1.9230 -0.2259
  355SOL     OW 5426   4.840   0.477   0.962 -0.2340  0.5592 -0.1525
  355SOL    HW1 5427   4.835   0.545   1.029 -1.1947 -0.5550  0.9650
  355SOL    HW2 5428   4.888   0.406   1.004 -0.0780  0.1825 -0.9617
  356SOL     OW 5429   0.022   5.870   8.971  0.2813 -0.4293  0.5755
  356SOL    HW1 5430   0.031   5.861   8.876 -0.8765 -0.1377  0.4251
  356SOL    HW2 5431   0.005   5.964   8.985  1.9491 -0.1820  1.2201
  357SOL     OW 5432   0.568   9.015   4.099  0.6251  0.1389 -0.2714
  357SOL    HW1 5433   0.546   8.942   4.040 -0.3279 -1.0001  1.4031
  357SOL    HW2 5434   0.664   9.019   4.098  0.7348 -1.6586  0.1641
  358SOL     OW 5435   5.049   7.309   2.785 -0.0326 -0.2266  0.2600
  358SOL    HW1 5436   5.074   7.373   2.851 -0.0591  0.5566 -0.4650
  358SOL    HW2 5437   4.955   7.321   2.774  0.1524  0.4295 -0.7059
  359SOL     OW 5438   5.626   0.014   5.961 -0.8047  1.2424  0.3390
  359SOL    HW1 5439   5.717   0.005   5.987 -1.0210  0.0421  0.7754
  359SOL    HW2 5440   5.625  -0.004   5.867 -0.9935 -2.4417  0.9027
  360SOL     OW 5441   6.874   4.649   5.108  0.1003 -0.1528 -0.2209
  360SOL    HW1 5442   6.888   4.559   5.077 -1.0233 -0.1008 -0.9435
  360SOL    HW2 5443   6.793   4.644   5.158  1.8046 -0.2030  2.7342
  361SOL     OW 5444   5.605   8.476  10.190 -0.3031 -0.1639  0.1217
  361SOL    HW1 5445   5.590   8.419  10.266  1.6518 -0.5931  0.2526
  361SOL    HW2 5446   5.700   8.476  10.180 -0.5078 -0.1329 -2.3529
  362SOL     OW 5447  10.537   1.545   1.717  0.0239 -0.4864  0.3369
  362SOL    HW1 5448  10.580   1.609   1.774 -0.7275 -0.9805  1.5115
  362SOL    HW2 5449  10.475   1.597   1.665 -0.2892 -0.1872  0.9934
  363SOL     OW 5450  10.154   1.430   3.856  0.0681 -0.0549 -0.1889
  363SOL    HW1 5451  10.242   1.394   3.869  0.3302  0.3279 -0.8053
  363SOL    HW2 5452  10.127   1.460   3.943  0.9213  0.6291 -0.1375
  364SOL     OW 5453   4.396   9.229   5.245  0.5440 -0.3254  0.4162
  364SOL    HW1 5454   4.403   9.133   5.241  0.3289 -0.3244 -0.0951
  364SOL    HW2 5455   4.328   9.245   5.311  0.6747 -0.5204  0.5995
  365SOL     OW 5456   0.692   4.891   9.033  0.4110  0.2592  0.1820
  365SOL    HW1 5457   0.636   4.889   9.110 -0.6748  1.8432 -0.5125
  365SOL    HW2 5458   0.640   4.936   8.967  2.3974  1.5808 -0.5658
  366SOL     OW 5459   7.694   8.182   9.653 -0.1725  0.1483  0.3645
  366SOL    HW1 5460   7.694   8.278   9.647 -0.9620  0.0659 -1.5574
  366SOL    HW2 5461   7.785   8.157   9.635  0.4427  0.5546  2.5727
  367SOL     OW 5462   9.435   8.771   6.153 -0.5028  0.0312 -0.2171
  367SOL    HW1 5463   9.414   8.790   6.245 -0.3309  0.0634 -0.1826
  367SOL    HW2 5464   9.366   8.814   6.103  1.2306  3.0240 -0.2709
  368SOL     OW 5465   2.399   3.169   5.428 -0.2533 -0.1292 -0.0394
  368SOL    HW1 5466   2.454   3.165   5.507 -0.1836 -0.4090 -0.1010
  368SOL    HW2 5467   2.442   3.109   5.366  1.1765  1.9839 -1.2366
  369SOL     OW 5468   3.975   3.139   1.613 -0.1389 -0.0758  0.4685
  369SOL    HW1 5469   4.004   3.228   1.594 -2.5257  0.6350 -0.1054
  369SOL    HW2 5470   3.977   3.132   1.708  1.8469 -0.0896  0.4624
  370SOL     OW 5471   1.545   2.870  10.524  0.4129  0.4644 -0.3176
  370SOL    HW1 5472   1.532   2.936  10.592 -1.8286  1.5698 -1.6595
  370SOL    HW2 5473   1.526   2.786  10.567  2.5381  0.7062  1.2224
  371SOL     OW 5474   3.039   4.102  10.692 -0.3768 -0.4291  0.0926
  371SOL    HW1 5475   3.117   4.122  10.743 -2.4292  1.9452  2.5653
  371SOL    HW2 5476   3.029   4.007  10.700  2.2360 -0.8139 -0.4074
  372SOL     OW 5477   9.832   4.238   5.027  0.1043 -0.8315  0.1373
  372SOL    HW1 5478   9.822   4.146   5.051  2.5053 -1.1191  0.2463
  372SOL    HW2 5479   9.897   4.272   5.088  0.9707  0.3165 -1.3520
  373SOL     OW 5480  10.613   7.186   5.890  0.1088 -0.0450 -0.6724
  373SOL    HW1 5481  10.600   7.094   5.910  0.0047  0.1442  0.1545
  373SOL    HW2 5482  10.707   7.195   5.876  0.1179 -0.2789 -0.7591
  374SOL     OW 5483   7.725   6.677   5.877  0.2341  0.0955 -0.2717
  374SOL    HW1 5484   7.771   6.760   5.890 -0.3720  0.7844 -2.2002
  374SOL    HW2 5485   7.632   6.699   5.891  0.2055 -0.6611  0.8625
  375SOL     OW 5486  10.033   9.865   5.486  0.5227 -0.2712 -0.0298
  375SOL    HW1 5487   9.943   9.893   5.505 -0.1836 -1.0525 -1.9945
  375SOL    HW2 5488  10.073   9.940   5.442  0.3201 -0.4770 -0.5682
  376SOL     OW 5489   9.402   9.508   9.612 -0.3035  0.0997  0.2334
  376SOL    HW1 5490   9.381   9.426   9.657  2.5470 -1.4859 -1.0706
  376SOL    HW2 5491   9.442   9.563   9.679  0.6160 -0.8155  0.4553
  377SOL     OW 5492   9.117   6.770   7.959  0.4418  0.3442  0.4905
  377SOL    HW1 5493   9.024   6.791   7.952  0.4880  0.2102 -0.5723
  377SOL    HW2 5494   9.122   6.706   8.031 -0.3360  0.0379  0.2724
  378SOL     OW 5495   6.365   4.659   6.772 -0.2930 -0.4614  0.0735
  378SOL    HW1 5496   6.323   4.628   6.692  0.6048 -1.1739 -0.1415
  378SOL    HW2 5497   6.448   4.696   6.743 -1.5643  2.8673  0.2371
  379SOL     OW 5498   8.049   5.831   5.895 -0.9009  0.1932 -0.1382
  379SOL    HW1 5499   7.994   5.769   5.942 -0.4981 -1.1830 -1.3912
  379SOL    HW2 5500   8.100   5.875   5.963 -2.2498  0.2042  0.8868
  380SOL     OW 5501   3.842   3.652   6.195  0.6062 -0.1540  0.2365
  380SOL    HW1 5502   3.895   3.703   6.257  0.0991 -0.8990  1.3093
  380SOL    HW2 5503   3.905   3.595   6.151  0.7952 -0.5458  1.0087
  381SOL     OW 5504   4.580   6.385   8.621  0.0143 -0.2571  0.1984
  381SOL    HW1 5505   4.576   6.290   8.632  0.1228 -0.2341  0.4423
  381SOL    HW2 5506   4.600   6.419   8.709 -1.2024  0.0648  0.3764
  382SOL     OW 5507   0.388  10.147   1.747 -0.4489  0.3239 -0.2610
  382SOL    HW1 5508   0.325  10.212   1.716 -1.0559  1.3477  2.8183
  382SOL    HW2 5509   0.335  10.082   1.793  0.6036  2.2412  4.1974
  383SOL     OW 5510   8.785   1.449   5.889  0.1275 -0.1000 -0.2352
  383SOL    HW1 5511   8.717   1.437   5.822  0.4620  1.1103 -0.8207
  383SOL    HW2 5512   8.867   1.447   5.840  0.3038  4.4801 -0.6307
  384SOL     OW 5513   7.078   3.801   3.148 -0.0839 -0.0825  0.0518
  384SOL    HW1 5514   7.087   3.708   3.169  0.7499  0.2597  1.2797
  384SOL    HW2 5515   7.015   3.802   3.075 -0.4901 -1.5640  0.3306
  385SOL     OW 5516   5.523   4.185   0.839 -0.3980  0.2665  0.3892
  385SOL    HW1 5517   5.585   4.160   0.771  1.4785 -0.0764  2.1538
  385SOL    HW2 5518   5.476   4.260   0.801  0.8247  0.3148 -1.1335
  386SOL     OW 5519   7.932   0.224   6.305 -0.9186  0.3939 -0.1666
  386SOL    HW1 5520   7.877   0.149   6.327  0.9537 -1.4119 -1.2781
  386SOL    HW2 5521   7.951   0.213   6.212  0.5993  1.4342 -0.0119
  387SOL     OW 5522   9.258   2.662   0.926 -0.1701  0.0581  0.3156
  387SOL    HW1 5523   9.192   2.666   0.857 -0.1983  0.1757  0.3489
  387SOL    HW2 5524   9.286   2.753   0.938 -0.6402  0.1266  0.9238
  388SOL     OW 5525   3.724   6.455   5.404 -0.2416 -0.1220  0.1669
  388SOL    HW1 5526   3.725   6.544   5.368 -1.2119  0.0076  0.4291
  388SOL    HW2 5527   3.803   6.414   5.370  0.2072  0.8394  0.0216
  389SOL     OW 5528   7.355   2.712   0.750 -0.0278  0.2203 -0.1719
  389SOL    HW1 5529   7.301   2.732   0.827  0.6750  0.1382  0.3435
  389SOL    HW2 5530   7.292   2.708   0.678 -0.8693 -1.0217  0.6089
  390SOL     OW 5531  10.379   4.769   8.755 -0.1413  0.7264  0.2481
  390SOL    HW1 5532  10.340   4.683   8.770 -0.7760  1.0788  0.6493
  390SOL    HW2 5533  10.320   4.830   8.799 -0.3822  1.4947 -1.1021
  391SOL     OW 5534   9.602   2.464   8.121 -0.0145 -0.1972 -0.0687
  391SOL    HW1 5535   9.644   2.401   8.180 -1.9110 -1.1819  0.3154
  391SOL    HW2 5536   9.628   2.550   8.155  1.1275 -0.7458  0.5154
  392SOL     OW 5537   6.417   0.081   3.233  0.0671 -0.0106  0.3515
  392SOL    HW1 5538   6.483   0.112   3.295 -1.3431  0.1740  1.8396
  392SOL    HW2 5539   6.458   0.006   3.190  1.9172  1.2190 -0.1637
  393SOL     OW 5540   3.243  10.359   0.975  0.2063  0.3496  0.5934
  393SOL    HW1 5541   3.294  10.351   0.895  0.7029  1.1265  0.8181
  393SOL    HW2 5542   3.296  10.414   1.033 -0.8530  1.1505  0.8576
  394SOL     OW 5543   8.112   6.919   8.757 -0.4473  0.2652  0.3687
  394SOL    HW1 5544   8.018   6.939   8.760 -1.2779 -2.9205 -0.5656
  394SOL    HW2 5545   8.130   6.875   8.840  0.2206  0.7704  0.4964
  395SOL     OW 5546  10.360   6.129   2.359  0.5787 -0.7719 -0.3799
  395SOL    HW1 5547  10.365   6.053   2.418  0.2705 -0.5844 -0.1136
  395SOL    HW2 5548  10.443   6.126   2.310  1.3690 -0.2757  0.8679
  396SOL     OW 5549   2.404   8.023   3.106 -0.2081 -0.2230 -0.4515
  396SOL    HW1 5550   2.420   8.093   3.043 -0.9235  0.5158  0.1622
  396SOL    HW2 5551   2.412   7.943   3.055 -0.6407  0.3502 -1.4613
  397SOL     OW 5552   6.100   2.977   5.585  0.0619  0.0032 -0.0209
  397SOL    HW1 5553   6.139   2.974   5.673  0.6820  2.6932 -0.1409
  397SOL    HW2 5554   6.160   2.926   5.531  1.1271  0.5551  0.6164
  398SOL     OW 5555   4.360   8.764   7.995  0.2486 -0.3118  0.7516
  398SOL    HW1 5556   4.275   8.750   7.953  1.0691  0.0130 -1.1231
  398SOL    HW2 5557   4.372   8.858   7.994  0.1121 -0.2653  2.1421
  399SOL     OW 5558   1.369   8.154   9.554 -0.3404  0.2576  0.2193
  399SOL    HW1 5559   1.345   8.089   9.619  2.4959 -0.7169  0.4142
  399SOL    HW2 5560   1.401   8.229   9.605  0.3481  0.1286 -0.0045
  400SOL     OW 5561  10.870   3.520   6.936  0.0676  0.0575 -0.0883
  400SOL    HW1 5562  10.946   3.461   6.937  0.7460  0.9120  0.6504
  400SOL    HW2 5563  10.874   3.563   6.850  1.2064  1.0464  0.4250
  401SOL     OW 5564  10.977   3.475   4.740 -0.1193  0.4730 -0.4951
  401SOL    HW1 5565  10.949   3.482   4.649  0.3584 -0.8594 -0.7657
  401SOL    HW2 5566  11.015   3.561   4.760 -3.9728  2.2812 -0.1861
  402SOL     OW 5567   9.021   4.644  10.203 -0.3970  0.4239  0.5910
  402SOL    HW1 5568   9.081   4.570  10.208  1.1977  1.5700 -0.4677
  402SOL    HW2 5569   8.973   4.630  10.121 -0.1088  0.5417  0.3999
  403SOL     OW 5570   0.099   3.283  10.898  0.7769  0.4542  0.6811
  403SOL    HW1 5571   0.116   3.210  10.958 -0.5272 -0.6876 -0.2966
  403SOL    HW2 5572   0.104   3.360  10.954  0.5322 -0.5061  2.0848
  404SOL     OW 5573   4.368   1.331   7.246  0.1467 -0.2433 -0.1351
  404SOL    HW1 5574   4.336   1.282   7.170  1.2516 -0.6507 -0.3574
  404SOL    HW2 5575   4.462   1.313   7.248 -0.0409 -1.1966  2.0246
  405SOL     OW 5576   6.454   9.673   1.769 -0.2181  0.2202  0.1464
  405SOL    HW1 5577   6.548   9.684   1.763 -0.1976  0.0877  0.2174
  405SOL    HW2 5578   6.427   9.730   1.842 -0.3912  1.3947 -0.8174
  406SOL     OW 5579   2.783  11.006  10.680  0.2049  0.1143  0.2170
  406SOL    HW1 5580   2.862  10.963  10.648  0.5456  0.6656  0.3056
  406SOL    HW2 5581   2.721  10.935  10.695  1.0879 -0.4429  1.3292
  407SOL     OW 5582   9.486   9.731   3.122  0.0073 -0.0907  0.2204
  407SOL    HW1 5583   9.406   9.712   3.074  2.6409 -4.9615 -3.1097
  407SOL    HW2 5584   9.481   9.675   3.199 -0.3580  0.7447  0.8149
  408SOL     OW 5585   0.456   8.902   8.226 -0.1712 -0.2730 -0.0521
  408SOL    HW1 5586   0.437   8.852   8.147  0.4791  0.2733 -0.5676
  408SOL    HW2 5587   0.388   8.969   8.229 -0.8750 -0.9936  0.4869
  409SOL     OW 5588   3.996   6.476   0.384  0.0103 -0.4981 -0.9430
  409SOL    HW1 5589   4.052   6.440   0.315  0.4508 -2.5449  0.3989
  409SOL    HW2 5590   3.907   6.451   0.360  0.1458 -1.0619 -0.8584
  410SOL     OW 5591   0.744   9.506   0.304  0.3271 -0.1641  0.4167
  410SOL    HW1 5592   0.705   9.578   0.352  0.9877  0.7301 -0.3459
  410SOL    HW2 5593   0.834   9.535   0.286  0.8419 -1.4876  0.7366
  411SOL     OW 5594   7.064   8.426   1.876  0.7538 -0.3781  0.0672
  411SOL    HW1 5595   6.974   8.401   1.854  1.2008 -0.6812 -1.5069
  411SOL    HW2 5596   7.090   8.489   1.808  2.1915 -1.3441 -0.3326
  412SOL     OW 5597   5.040   3.393   2.720  0.4770 -0.9318 -0.2594
  412SOL    HW1 5598   4.980   3.409   2.793  0.1561  1.7959 -1.0221
  412SOL    HW2 5599   4.992   3.334   2.662 -0.2374 -1.1952  0.5820
  413SOL     OW 5600   5.870   7.752   5.477 -0.0521  0.2393 -0.5483
  413SOL    HW1 5601   5.904   7.663   5.468  0.6082  0.4528 -0.1968
  413SOL    HW2 5602   5.775   7.742   5.466  0.1505 -0.2893 -1.9620
  414SOL     OW 5603   0.978   1.137   3.571 -0.0975 -0.5109  0.0984
  414SOL    HW1 5604   0.917   1.105   3.637 -0.6554 -0.6037 -0.4610
  414SOL    HW2 5605   1.061   1.093   3.591 -0.1924 -0.3485  0.8849
  415SOL     OW 5606   5.592  10.550   8.069  0.5716  0.1381 -0.1831
  415SOL    HW1 5607   5.612  10.459   8.093  1.0069  0.1553 -0.4533
  415SOL    HW2 5608   5.662  10.574   8.007 -0.9596 -0.1918 -2.1381
  416SOL     OW 5609   4.011   2.361   4.928  0.0656  0.0577  0.0190
  416SOL    HW1 5610   4.054   2.279   4.951 -0.7300 -0.2647  0.3643
  416SOL    HW2 5611   4.049   2.425   4.988  1.7955  0.2901 -1.2156
  417SOL     OW 5612  10.551   6.694   1.069  0.1176  0.0044 -1.2192
  417SOL    HW1 5613  10.489   6.621   1.070 -1.3217  1.1833 -0.6206
  417SOL    HW2 5614  10.514   6.755   1.005 -1.0883  2.0954  1.2800
  418SOL     OW 5615   3.653   7.282  10.046  0.1543  0.4917  0.1376
  418SOL    HW1 5616   3.697   7.206  10.083 -1.4345  0.7246  2.7774
  418SOL    HW2 5617   3.687   7.357  10.095 -0.2497  1.1538 -0.5606
  419SOL     OW 5618   2.854   4.494   2.494  0.6180 -0.6102 -0.2572
  419SOL    HW1 5619   2.818   4.562   2.437  2.2129 -0.3160 -0.9634
  419SOL    HW2 5620   2.849   4.414   2.442  0.0313 -0.7702  0.0415
  420SOL     OW 5621  10.990   7.869  10.228 -0.0051 -0.4969  0.5845
  420SOL    HW1 5622  11.040   7.934  10.178  0.5897 -0.7899  0.7828
  420SOL    HW2 5623  10.927   7.920  10.279  1.7377  0.1341  2.2398
  421SOL     OW 5624   7.856   2.042   2.415 -0.4988 -0.0489  0.2175
  421SOL    HW1 5625   7.938   2.072   2.454  0.8084 -1.8145 -1.0151
  421SOL    HW2 5626   7.856   2.080   2.327 -0.2117 -1.2815 -0.3326
  422SOL     OW 5627   8.538   1.979   3.985 -0.1828 -0.3384 -0.4248
  422SOL    HW1 5628   8.468   2.044   3.987 -0.3899 -0.5549  2.1946
  422SOL    HW2 5629   8.581   1.987   4.070  1.8856 -1.4181 -1.2823
  423SOL     OW 5630   4.249   6.302   6.095  0.0140  0.1423 -0.1373
  423SOL    HW1 5631   4.179   6.352   6.054 -1.3311  0.4218  2.2979
  423SOL    HW2 5632   4.206   6.253   6.165  2.0906 -0.5364  0.7634
  424SOL     OW 5633   4.705   1.385   1.450  0.0637  0.0992  0.0567
  424SOL    HW1 5634   4.685   1.393   1.544  0.9268 -1.5264  0.4254
  424SOL    HW2 5635   4.785   1.436   1.438  0.8561 -0.9922  0.5688
  425SOL     OW 5636  10.221   8.036   1.786  0.3991 -0.3846  0.1630
  425SOL    HW1 5637  10.183   8.026   1.873  0.0681 -1.2968 -0.0774
  425SOL    HW2 5638  10.217   7.948   1.747 -0.2665  0.1756 -1.1067
  426SOL     OW 5639   4.646   6.421   3.178  0.1404 -0.5806 -0.3122
  426SOL    HW1 5640   4.606   6.479   3.112 -1.5739 -0.7382  0.5230
  426SOL    HW2 5641   4.711   6.371   3.129  0.1870  0.5755 -1.4953
  427SOL     OW 5642   7.768   4.750   8.104  0.0973 -0.3060 -0.1261
  427SOL    HW1 5643   7.767   4.840   8.136  0.2512 -0.2022 -0.4083
  427SOL    HW2 5644   7.815   4.755   8.021  1.4003 -0.8772  0.5453
  428SOL     OW 5645   1.032   0.266   9.728 -0.3135 -0.0784 -0.1008
  428SOL    HW1 5646   0.992   0.195   9.678 -1.9039 -0.0062  0.9993
  428SOL    HW2 5647   1.063   0.224   9.808 -1.4263  0.4789  0.6374
  429SOL     OW 5648   0.323   0.237   7.216 -0.0368  0.1913  0.0634
  429SOL    HW1 5649   0.229   0.248   7.223 -0.2552 -0.7814 -0.9378
  429SOL    HW2 5650   0.359   0.326   7.221 -0.9274  0.4978  1.2426
  430SOL     OW 5651   9.923   8.031   1.109 -0.5658 -0.4153 -0.0159
  430SOL    HW1 5652   9.949   8.084   1.184 -0.1192 -1.5350  0.6652
  430SOL    HW2 5653   9.948   8.083   1.033  0.1806  0.1987  0.6223
  431SOL     OW 5654  11.109   6.478   0.388 -0.1758 -0.3981 -0.6624
  431SOL    HW1 5655  11.080   6.548   0.447  0.6925 -0.5420 -0.0430
  431SOL    HW2 5656  11.200   6.499   0.368 -0.2297 -0.7772 -1.3266
  432SOL     OW 5657   8.162   5.220  10.005  0.3117 -0.3384 -0.3868
  432SOL    HW1 5658   8.100   5.151  10.028 -0.0044 -0.2419 -0.9330
  432SOL    HW2 5659   8.117   5.301  10.030  1.0139 -0.3544  1.0202
  433SOL     OW 5660   1.398   1.025   8.936  0.4580  0.0205 -0.1087
  433SOL    HW1 5661   1.411   1.058   9.025 -1.0278  0.4869 -0.0370
  433SOL    HW2 5662   1.307   1.045   8.916  0.4946 -0.9643 -1.3829
  434SOL     OW 5663   2.791   2.267   7.212 -0.1488  0.2541  0.0145
  434SOL    HW1 5664   2.774   2.204   7.282  0.0804  1.6747  1.3857
  434SOL    HW2 5665   2.706   2.304   7.192  0.1003  1.5179  1.1956
  435SOL     OW 5666   9.399  10.528   0.623 -0.3533 -0.1697  0.0668
  435SOL    HW1 5667   9.314  10.568   0.640 -0.0887 -0.3477  1.9708
  435SOL    HW2 5668   9.454  10.600   0.593 -0.5391  0.4351  1.1283
  436SOL     OW 5669   0.699   4.014   1.798 -0.2729 -0.1367 -0.0357
  436SOL    HW1 5670   0.716   4.076   1.727 -1.1822 -0.5100 -0.6062
  436SOL    HW2 5671   0.769   3.948   1.790  0.0398  0.2062 -0.1354
  437SOL     OW 5672   2.931   5.986   5.812 -0.5097  0.0423 -0.0128
  437SOL    HW1 5673   2.995   5.946   5.753 -0.3081  1.2159 -0.6125
  437SOL    HW2 5674   2.982   6.043   5.869 -0.8163 -0.4002  0.7307
  438SOL     OW 5675   1.189   0.083   5.618 -0.1867 -0.0514 -0.2529
  438SOL    HW1 5676   1.161   0.166   5.581  1.0234  0.0725 -0.9442
  438SOL    HW2 5677   1.186   0.022   5.544 -0.4825 -0.4813  0.1088
  439SOL     OW 5678   1.699  10.456   2.642  0.1385  0.0951 -0.4199
  439SOL    HW1 5679   1.628  10.397   2.667 -0.0897  0.7970  0.6546
  439SOL    HW2 5680   1.720  10.504   2.722  3.1192 -1.3883 -0.1537
  440SOL     OW 5681   3.847   6.749   9.479  0.1089 -0.0400  0.1525
  440SOL    HW1 5682   3.763   6.717   9.446 -0.4540 -2.4035  3.4521
  440SOL    HW2 5683   3.899   6.764   9.400 -2.7858 -0.1330 -1.9358
  441SOL     OW 5684   1.860   2.608   8.445 -0.3834 -0.8408 -0.2311
  441SOL    HW1 5685   1.843   2.534   8.504 -0.2103  0.0942  1.0268
  441SOL    HW2 5686   1.913   2.571   8.375 -1.1511 -2.1268 -0.1711
  442SOL     OW 5687   2.009   4.378  10.071  0.1788 -0.2289  0.1393
  442SOL    HW1 5688   1.955   4.452  10.098  0.5365  0.2460 -0.4196
  442SOL    HW2 5689   1.960   4.336  10.001 -0.2929 -0.8724  0.8489
  443SOL     OW 5690   4.024   9.450   1.104  0.0630 -0.0467  0.2961
  443SOL    HW1 5691   3.990   9.367   1.137 -0.3562  0.3146  0.7841
  443SOL    HW2 5692   3.973   9.517   1.149  2.1179  0.5545  1.9310
  444SOL     OW 5693   9.778   3.712   2.388 -0.0163 -0.4084  0.5087
  444SOL    HW1 5694   9.791   3.783   2.450  2.1187  0.5841 -0.9672
  444SOL    HW2 5695   9.749   3.756   2.308  0.2310 -1.3344 -0.1007
  445SOL     OW 5696   9.807  10.323   0.044 -0.2942 -0.2243  0.0527
  445SOL    HW1 5697   9.854  10.370  -0.025  1.8878 -0.8539  1.0411
  445SOL    HW2 5698   9.793  10.389   0.112  0.3275 -0.3376  0.2954
  446SOL     OW 5699   2.129  10.721   5.017 -0.6244 -0.1705  0.2877
  446SOL    HW1 5700   2.048  10.686   4.981 -0.7059 -0.9232  1.1599
  446SOL    HW2 5701   2.160  10.784   4.952  0.0521 -2.5424 -1.8310
  447SOL     OW 5702   3.599   4.293   2.093 -0.3962  0.1617  0.4743
  447SOL    HW1 5703   3.607   4.272   2.000  0.9533  0.9230  0.3873
  447SOL    HW2 5704   3.538   4.229   2.128 -0.4922 -0.4735 -0.8312
  448SOL     OW 5705   2.218   9.719   2.645  0.0995  0.2306  0.8565
  448SOL    HW1 5706   2.294   9.775   2.662  0.3843  0.3287 -0.5965
  448SOL    HW2 5707   2.144   9.779   2.639  0.3641  0.4751 -0.4415
  449SOL     OW 5708   5.506   0.592   7.559  0.3216  0.0261  0.7475
  449SOL    HW1 5709   5.430   0.533   7.559  0.2625  0.1009  0.8500
  449SOL    HW2 5710   5.576   0.541   7.519 -0.7571  1.2169 -3.1181
  450SOL     OW 5711   1.807   5.937   2.624 -0.3846  0.4164  0.4348
  450SOL    HW1 5712   1.714   5.912   2.621 -0.4585  0.6092  0.9551
  450SOL    HW2 5713   1.854   5.854   2.636 -0.6465  0.4920  2.4559
  451SOL     OW 5714   3.511   1.420   9.739 -0.1653 -0.4469 -0.2217
  451SOL    HW1 5715   3.485   1.333   9.709 -4.0207  0.3655  0.2246
  451SOL    HW2 5716   3.457   1.436   9.817  3.2305  0.9138  2.0492
  452SOL     OW 5717   2.384   8.100   1.728 -0.3417 -0.2328 -0.1224
  452SOL    HW1 5718   2.416   8.146   1.650 -1.4721  1.5175  0.3835
  452SOL    HW2 5719   2.460   8.096   1.786 -0.4714  2.2410  0.3371
  453SOL     OW 5720   2.781   1.264   6.769  0.2776 -0.3009  0.3730
  453SOL    HW1 5721   2.848   1.250   6.836 -0.0315 -4.1992  0.0815
  453SOL    HW2 5722   2.699   1.236   6.811 -0.6806  1.3083 -0.3177
  454SOL     OW 5723  10.751  10.217   8.916 -0.2126  0.2270 -0.3946
  454SOL    HW1 5724  10.698  10.182   8.844 -0.4128  0.3887 -0.3290
  454SOL    HW2 5725  10.808  10.145   8.941 -0.3629  0.0689 -0.5040
  455SOL     OW 5726   8.080   0.589   8.010  0.4756 -0.3258 -0.0580
  455SOL    HW1 5727   8.029   0.534   7.951 -1.0894  0.3804  0.6049
  455SOL    HW2 5728   8.164   0.601   7.964 -0.5699 -0.0304 -2.0047
  456SOL     OW 5729   2.750  10.605  10.409  0.4621  0.5674 -0.1903
  456SOL    HW1 5730   2.808  10.534  10.436  1.8111  1.7729  0.2067
  456SOL    HW2 5731   2.788  10.637  10.327 -0.7580  0.1612 -0.9430
  457SOL     OW 5732   7.492   0.946   5.493 -0.2307 -0.6157 -0.0725
  457SOL    HW1 5733   7.574   0.899   5.481 -0.1824  0.0351 -3.1522
  457SOL    HW2 5734   7.517   1.039   5.488 -0.8567 -0.3016  1.7762
  458SOL     OW 5735   0.733   1.176   8.456 -0.0820 -0.2845  0.2745
  458SOL    HW1 5736   0.725   1.105   8.520 -0.2842  0.9676  1.6991
  458SOL    HW2 5737   0.820   1.164   8.418 -0.1999 -1.4161  0.3276
  459SOL     OW 5738   7.506   4.060   2.364 -0.2275 -0.0632  0.3592
  459SOL    HW1 5739   7.445   4.111   2.311  0.5517 -0.2424 -0.7559
  459SOL    HW2 5740   7.555   4.125   2.414  1.3921  0.4490 -1.7289
  460SOL     OW 5741  10.820   1.749   5.977 -0.0624 -0.0068  0.4460
  460SOL    HW1 5742  10.759   1.780   6.044 -1.1130  0.0266 -0.4903
  460SOL    HW2 5743  10.772   1.680   5.931  1.4282 -1.5150  1.0812
  461SOL     OW 5744   2.328   9.871   4.217  0.1358  0.0091  0.1444
  461SOL    HW1 5745   2.340   9.883   4.312 -1.1130 -0.3163  0.3575
  461SOL    HW2 5746   2.366   9.785   4.199  1.0941  0.4081  0.1936
  462SOL     OW 5747  10.573   1.072   0.166  0.4111 -0.6472  0.0138
  462SOL    HW1 5748  10.636   1.040   0.230 -0.7553  0.7686  1.9916
  462SOL    HW2 5749  10.616   1.149   0.127 -0.3269  0.8454  1.9865
  463SOL     OW 5750   7.862   7.287   1.663  0.6550  0.4453  0.0501
  463SOL    HW1 5751   7.768   7.293   1.679  0.5660  0.1274 -0.3180
  463SOL    HW2 5752   7.902   7.300   1.749  0.3861  2.7927 -0.1082
  464SOL     OW 5753   6.556   3.545   8.534 -0.4881 -0.3293 -0.2031
  464SOL    HW1 5754   6.539   3.513   8.622 -0.7819 -0.5981 -0.3555
  464SOL    HW2 5755   6.532   3.637   8.537  2.7309  0.6009  0.9347
  465SOL     OW 5756   5.916  10.975   9.574  0.4829 -0.5254 -0.5810
  465SOL    HW1 5757   5.945  10.892   9.535 -0.5384 -0.5771 -1.2689
  465SOL    HW2 5758   5.968  11.042   9.531  0.3904 -0.7057 -0.9738
  466SOL     OW 5759   9.965   0.272   1.925  0.1603  0.5175 -0.3892
  466SOL    HW1 5760   9.946   0.179   1.938  1.4215  0.3913  0.7373
  466SOL    HW2 5761   9.894   0.318   1.971 -0.0696  0.1075 -0.3296
  467SOL     OW 5762   0.354  10.042  10.866  0.6507 -0.8271 -0.5188
  467SOL    HW1 5763   0.366  10.091  10.785  0.2540  1.1411  0.5594
  467SOL    HW2 5764   0.266  10.004  10.858  0.7244 -0.8843 -1.1180
  468SOL     OW 5765   0.392   7.019   4.904 -0.0452 -0.1513  0.4781
  468SOL    HW1 5766   0.299   7.016   4.924  0.0920 -0.8201  1.0587
  468SOL    HW2 5767   0.396   7.014   4.809 -0.6530  1.5046  0.3319
  469SOL     OW 5768   6.556   4.119   3.421  0.4507 -0.6165  0.0088
  469SOL    HW1 5769   6.603   4.111   3.504 -0.0051 -0.4221  0.2907
  469SOL    HW2 5770   6.476   4.167   3.443  0.7673  0.2821 -0.7145
  470SOL     OW 5771   8.767  10.056  11.109 -0.2079  0.0190 -0.3947
  470SOL    HW1 5772   8.860  10.037  11.120  0.5126  1.2140 -3.3702
  470SOL    HW2 5773   8.727   9.971  11.093  0.8434 -0.3074 -1.5016
  471SOL     OW 5774   8.347   7.740   7.338 -0.1916  0.1892 -0.1799
  471SOL    HW1 5775   8.385   7.827   7.350 -1.1885  0.6274 -0.1590
  471SOL    HW2 5776   8.423   7.681   7.339  0.6683  1.1940 -1.8923
  472SOL     OW 5777  10.090   2.911   1.604 -0.0470 -0.0128  0.6877
  472SOL    HW1 5778  10.030   2.897   1.531  1.6622  0.6620 -0.9184
  472SOL    HW2 5779  10.054   2.988   1.650 -0.2978  0.5458 -0.3992
  473SOL     OW 5780   3.988   5.045   8.514 -0.5408 -0.1653  0.3573
  473SOL    HW1 5781   3.897   5.019   8.508  0.0937 -2.3292 -0.7389
  473SOL    HW2 5782   4.005   5.093   8.433 -0.1905 -1.6408 -0.4755
  474SOL     OW 5783  10.098   7.041  10.262 -0.2550 -0.4447  0.1190
  474SOL    HW1 5784  10.068   7.109  10.201  1.3581  0.0249 -0.2056
  474SOL    HW2 5785  10.056   7.064  10.345  0.0968  0.8554 -0.0303
  475SOL     OW 5786   0.018   3.442  10.656  0.1045  0.3847  0.8239
  475SOL    HW1 5787   0.048   3.420  10.744  0.6041 -1.3508  0.2695
  475SOL    HW2 5788  -0.078   3.435  10.661  0.0527  1.3393  1.4579
  476SOL     OW 5789   1.306   8.120   2.673  0.1862 -0.0791 -0.2253
  476SOL    HW1 5790   1.357   8.201   2.675 -0.6923  0.4736  2.0027
  476SOL    HW2 5791   1.273   8.115   2.583  0.6225  1.8055 -0.5241
  477SOL     OW 5792   2.640   5.768   3.962  0.8164  0.7849 -0.5607
  477SOL    HW1 5793   2.714   5.753   4.020 -0.8559 -0.7499  1.3107
  477SOL    HW2 5794   2.585   5.830   4.009  0.0623  0.5458 -1.1085
  478SOL     OW 5795   7.726   9.845   9.208  0.2608  0.0479 -0.2669
  478SOL    HW1 5796   7.673   9.916   9.246  1.0136  1.4792 -1.7953
  478SOL    HW2 5797   7.661   9.787   9.167 -0.4261 -0.6380  1.6600
  479SOL     OW 5798   8.376  10.762   1.207  0.2998 -0.3999  0.0914
  479SOL    HW1 5799   8.316  10.822   1.252  2.5548  1.7039  0.4760
  479SOL    HW2 5800   8.365  10.678   1.251 -2.0169  0.0038  0.4069
  480SOL     OW 5801   8.792   6.372   1.591  0.3276 -0.2917 -0.3032
  480SOL    HW1 5802   8.713   6.323   1.613 -1.2872  1.6076 -1.5311
  480SOL    HW2 5803   8.831   6.322   1.519 -1.1952  0.0432 -1.4201
  481SOL     OW 5804   1.272   7.778   7.361 -0.1193 -0.3832  0.0022
  481SOL    HW1 5805   1.236   7.772   7.273  1.0249 -1.3271 -0.4297
  481SOL    HW2 5806   1.283   7.687   7.389  2.8494 -0.2112 -0.3156
  482SOL     OW 5807   4.358   5.423   7.382 -0.1993  0.1568  0.4341
  482SOL    HW1 5808   4.439   5.472   7.389  0.6214 -0.9009 -0.9098
  482SOL    HW2 5809   4.309   5.468   7.313  0.4118 -0.6752 -0.5715
  483SOL     OW 5810   5.919   3.369   9.633 -0.1294  0.1394 -0.3311
  483SOL    HW1 5811   5.991   3.306   9.628 -0.6654 -0.4147 -1.5695
  483SOL    HW2 5812   5.943   3.437   9.570 -1.0353 -0.4353 -1.3124
  484SOL     OW 5813   8.777   0.936   1.394  0.2604  0.8244  0.4451
  484SOL    HW1 5814   8.788   0.848   1.358  1.4554  1.3479 -0.5489
  484SOL    HW2 5815   8.830   0.936   1.474 -0.5675  0.3474  1.0081
  485SOL     OW 5816   0.172   4.558   0.196 -0.3023 -0.2949  0.0138
  485SOL    HW1 5817   0.176   4.634   0.138  2.0085 -0.7558 -0.5473
  485SOL    HW2 5818   0.083   4.559   0.231 -1.9690 -0.1542 -3.7287
  486SOL     OW 5819   5.821  10.471   7.665 -0.0467 -0.1936  0.0935
  486SOL    HW1 5820   5.835  10.379   7.642 -0.9327  0.2408 -2.4356
  486SOL    HW2 5821   5.726  10.482   7.664  0.0767  1.2885 -2.2149
  487SOL     OW 5822   7.799   2.544   8.908  0.1588  0.0577  0.1007
  487SOL    HW1 5823   7.714   2.501   8.907 -0.6857  1.6389  0.4620
  487SOL    HW2 5824   7.808   2.582   8.821 -0.2511  1.2274  0.5451
  488SOL     OW 5825   1.954   8.194   8.024 -0.1622  0.6891 -0.3236
  488SOL    HW1 5826   1.990   8.121   8.076  0.3008  1.3607  0.3189
  488SOL    HW2 5827   1.892   8.152   7.965  0.0414 -0.2272  0.0842
  489SOL     OW 5828   5.981  10.517  10.157 -0.0757  0.2302 -0.5228
  489SOL    HW1 5829   6.042  10.563  10.099 -0.6999  2.0662  0.1885
  489SOL    HW2 5830   5.894  10.537  10.121 -0.3905  0.1839  0.1900
  490SOL     OW 5831   2.323   5.478   5.941 -0.1596  0.1452 -0.2676
  490SOL    HW1 5832   2.262   5.521   5.881 -2.0937 -0.8728  0.8533
  490SOL    HW2 5833   2.273   5.404   5.977  1.3001  0.0317  1.7083
  491SOL     OW 5834   6.260   8.555   6.923 -0.3406  0.0456  0.1285
  491SOL    HW1 5835   6.298   8.519   7.003 -0.7642  0.4056  0.4974
  491SOL    HW2 5836   6.186   8.608   6.953 -1.7230 -1.3717 -0.6321
  492SOL     OW 5837   3.518   6.712  10.049  0.3524  0.3712 -0.0292
  492SOL    HW1 5838   3.559   6.740  10.131  1.1734 -1.0104  0.0626
  492SOL    HW2 5839   3.534   6.785   9.989 -0.7152  1.6299  1.1452
  493SOL     OW 5840   9.508   2.607   0.670  0.2774 -0.0193  0.3649
  493SOL    HW1 5841   9.500   2.606   0.765 -0.2376  1.1214  0.3453
  493SOL    HW2 5842   9.465   2.688   0.643  1.6997  0.4051 -0.7268
  494SOL     OW 5843   1.793   0.066  10.231 -0.0199 -0.3809 -0.2953
  494SOL    HW1 5844   1.729   0.091  10.164  0.3928 -2.9360 -1.8022
  494SOL    HW2 5845   1.748  -0.002  10.282  0.2589  0.3781  1.0019
  495SOL     OW 5846   4.230   2.168   7.669 -0.1608  0.4278  0.3530
  495SOL    HW1 5847   4.262   2.213   7.748  0.0024 -0.8445  1.0376
  495SOL    HW2 5848   4.202   2.082   7.700  2.1829 -1.0764 -1.3216
  496SOL     OW 5849   2.450   3.439   4.698  0.7833  0.0983 -0.0817
  496SOL    HW1 5850   2.470   3.404   4.611  0.2650  1.3508 -0.7284
  496SOL    HW2 5851   2.471   3.532   4.692  0.4977  0.2471  1.0528
  497SOL     OW 5852   8.037   2.243  11.033  0.0522 -0.2689  0.2610
  497SOL    HW1 5853   7.975   2.238  10.960  1.5543 -0.1271 -1.0583
  497SOL    HW2 5854   8.009   2.173  11.093  0.0937 -1.8511 -1.4921
  498SOL     OW 5855   6.539   0.395   0.266 -0.0286 -0.2507 -0.4836
  498SOL    HW1 5856   6.616   0.412   0.212 -0.2895  1.5412 -0.3289
  498SOL    HW2 5857   6.471   0.452   0.231 -0.7218 -0.3624  0.6100
  499SOL     OW 5858  10.398   1.759   9.527  0.0835 -0.2799  0.7795
  499SOL    HW1 5859  10.322   1.707   9.553 -0.1391 -0.0171  0.6677
  499SOL    HW2 5860  10.466   1.736   9.589 -0.1124 -0.4641  0.9259
  500SOL     OW 5861   8.461   3.255   1.811 -0.2511 -0.4069  0.3711
  500SOL    HW1 5862   8.434   3.304   1.733 -1.4873 -1.4528  0.1074
  500SOL    HW2 5863   8.546   3.218   1.788 -0.7992 -1.0649 -0.6762
  501SOL     OW 5864  10.608   5.188   3.399 -0.3819 -0.3184 -0.1291
  501SOL    HW1 5865  10.533   5.245   3.381  0.4691  0.6155 -0.8786
  501SOL    HW2 5866  10.674   5.215   3.335  1.5077  0.6666  2.0841
  502SOL     OW 5867   4.456   0.354   2.089  0.3928  0.0757  0.5794
  502SOL    HW1 5868   4.432   0.276   2.040 -0.0485  0.0056  0.9016
  502SOL    HW2 5869   4.488   0.415   2.023 -1.5850  0.5402 -0.0227
  503SOL     OW 5870   0.782   8.035   2.846 -0.2662  0.1954  1.1986
  503SOL    HW1 5871   0.872   8.027   2.878  0.0774 -0.3382  0.1277
  503SOL    HW2 5872   0.753   7.945   2.830 -0.5896  0.4217  0.4550
  504SOL     OW 5873   4.797   7.080   9.605  0.2999  0.0708  0.4823
  504SOL    HW1 5874   4.758   7.088   9.693 -0.0217 -0.9740  0.4489
  504SOL    HW2 5875   4.725   7.099   9.546  0.4914  0.6724  0.4391
  505SOL     OW 5876   2.298   4.687   2.874 -0.2798  0.3574  0.0548
  505SOL    HW1 5877   2.286   4.653   2.963  2.1523 -1.1658 -0.1299
  505SOL    HW2 5878   2.209   4.706   2.844 -1.5143 -2.5934  1.4714
  506SOL     OW 5879   5.907   8.336   1.994 -0.3604  0.2432  0.2671
  506SOL    HW1 5880   6.001   8.328   1.980 -0.0221  2.1057  1.2752
  506SOL    HW2 5881   5.872   8.360   1.908  0.2857  0.9801  0.2005
  507SOL     OW 5882   4.903   3.506   3.465 -0.0890 -0.2469  0.4932
  507SOL    HW1 5883   4.869   3.575   3.409 -0.1832  0.4696  1.4170
  507SOL    HW2 5884   4.881   3.425   3.418 -1.8554  0.2380  0.4010
  508SOL     OW 5885   9.762   1.659   0.244 -0.4082 -0.2137  0.4927
  508SOL    HW1 5886   9.683   1.690   0.199 -0.0467 -0.4630 -0.3168
  508SOL    HW2 5887   9.815   1.738   0.255  0.2749 -0.4097 -1.0968
  509SOL     OW 5888   4.505   7.476   3.758  0.2018 -0.0828 -0.1148
  509SOL    HW1 5889   4.493   7.566   3.790  0.2259  0.1511 -0.7423
  509SOL    HW2 5890   4.438   7.467   3.690 -0.3822 -0.8410  0.5421
  510SOL     OW 5891   7.517   7.254   1.968  0.3644 -0.3188 -0.0603
  510SOL    HW1 5892   7.557   7.169   1.985 -0.1205 -0.7276 -0.9068
  510SOL    HW2 5893   7.458   7.268   2.042 -0.1811 -1.1144 -0.3273
  511SOL     OW 5894   4.912   1.083   3.921  0.0950 -0.2899 -0.2794
  511SOL    HW1 5895   4.943   1.074   4.011 -2.3155 -0.6640  0.5916
  511SOL    HW2 5896   4.866   1.002   3.903 -0.4505  0.2454 -1.4333
  512SOL     OW 5897   2.402   6.559   7.916  0.2195  0.0560 -0.0836
  512SOL    HW1 5898   2.340   6.632   7.920 -0.9141 -0.9033  0.4555
  512SOL    HW2 5899   2.465   6.585   7.849 -0.9011  0.9596 -0.8339
  513SOL     OW 5900  10.477   7.402   2.409 -0.3937  0.8497 -0.1010
  513SOL    HW1 5901  10.432   7.392   2.492  1.5154  0.7231  0.9767
  513SOL    HW2 5902  10.559   7.354   2.420 -0.6957 -0.3673 -2.5670
  514SOL     OW 5903   1.035   4.139   3.747  0.1515  0.0440 -0.2616
  514SOL    HW1 5904   1.089   4.109   3.673  1.6762  0.6194  0.5731
  514SOL    HW2 5905   1.067   4.087   3.821 -0.0105  0.8437  0.3744
  515SOL     OW 5906   8.457   3.748   2.223 -0.4084 -0.3034 -0.0541
  515SOL    HW1 5907   8.420   3.836   2.219 -0.5267 -0.2344  1.5828
  515SOL    HW2 5908   8.487   3.739   2.314  2.0111 -0.9986 -0.8577
  516SOL     OW 5909   9.369  10.609   4.279  0.2201  0.1296  0.7361
  516SOL    HW1 5910   9.353  10.516   4.260 -1.0917  0.6381 -0.9212
  516SOL    HW2 5911   9.449  10.630   4.232  0.6965 -0.2236  1.3764
  517SOL     OW 5912   9.377   0.801   4.903 -0.0256  0.0011 -0.6058
  517SOL    HW1 5913   9.284   0.816   4.886  0.1442  0.3332 -1.2802
  517SOL    HW2 5914   9.385   0.802   4.998 -0.6438  0.3949 -0.5552
  518SOL     OW 5915   4.272   3.210   1.856 -0.0763  0.1262  0.7755
  518SOL    HW1 5916   4.256   3.138   1.796  0.1479  0.5545  0.1962
  518SOL    HW2 5917   4.322   3.171   1.928  0.8610 -0.1072  0.0170
  519SOL     OW 5918   3.321   8.878   9.379 -0.3483 -0.3647 -0.2458
  519SOL    HW1 5919   3.279   8.798   9.411  0.6571 -0.2929  1.3624
  519SOL    HW2 5920   3.407   8.878   9.420 -0.2016  1.3714 -0.4860
  520SOL     OW 5921   9.257   2.658  10.669 -0.4374 -0.4025  0.1646
  520SOL    HW1 5922   9.237   2.705  10.588  1.2588  2.4966  1.2866
  520SOL    HW2 5923   9.191   2.688  10.731  0.6061  0.4763  0.8735
  521SOL     OW 5924   2.197   9.650   3.394 -0.4293  0.6417  0.3071
  521SOL    HW1 5925   2.104   9.626   3.401 -0.0118 -1.9291 -1.4746
  521SOL    HW2 5926   2.243   9.583   3.444  0.5427  1.3031  0.3310
  522SOL     OW 5927   8.307   6.819   3.313  0.4740  0.0552  0.3207
  522SOL    HW1 5928   8.396   6.846   3.336  0.4960  0.2135  0.0504
  522SOL    HW2 5929   8.262   6.813   3.397  0.7244  0.0279  0.4547
  523SOL     OW 5930   6.404   7.521   8.692  0.8549  0.1500  0.4017
  523SOL    HW1 5931   6.444   7.605   8.714  1.0601  0.1504  0.0296
  523SOL    HW2 5932   6.398   7.520   8.597 -1.9777  1.0256  0.4856
  524SOL     OW 5933  10.000   1.471   8.796 -0.2622 -0.3527 -0.4102
  524SOL    HW1 5934   9.930   1.438   8.740 -0.9954  1.4632 -0.6432
  524SOL    HW2 5935  10.081   1.441   8.755 -0.8644 -2.8991  0.1280
  525SOL     OW 5936   6.864   9.870   0.990  0.2982 -0.4778 -0.3304
  525SOL    HW1 5937   6.951   9.866   0.951  0.3191  0.0711 -0.3406
  525SOL    HW2 5938   6.876   9.919   1.071 -0.0640 -0.0868 -0.5092
  526SOL     OW 5939  10.669   7.213   6.288  0.2583 -0.0697  0.6213
  526SOL    HW1 5940  10.727   7.137   6.278  1.0530  0.6138 -0.2235
  526SOL    HW2 5941  10.581   7.177   6.279  0.5650 -1.0620  1.4382
  527SOL     OW 5942   5.055   2.355   4.781 -0.2252  0.0449 -0.1860
  527SOL    HW1 5943   5.066   2.447   4.802 -0.1112 -0.2261  1.0207
  527SOL    HW2 5944   5.089   2.308   4.858 -0.0185 -1.0042 -0.8922
  528SOL     OW 5945  10.608   0.264   6.479 -0.5661  0.0120 -0.2256
  528SOL    HW1 5946  10.681   0.203   6.486 -1.4177 -0.9004  1.2665
  528SOL    HW2 5947  10.639   0.332   6.419  1.2411 -0.6987 -0.1571
  529SOL     OW 5948   1.831   8.832   4.117 -0.1455 -0.1953 -0.2404
  529SOL    HW1 5949   1.795   8.900   4.174 -0.3463 -0.4308 -0.0843
  529SOL    HW2 5950   1.858   8.880   4.038  1.7910  0.4071  0.7348
  530SOL     OW 5951   5.760   5.321   2.484 -0.3880  0.2928  0.4658
  530SOL    HW1 5952   5.673   5.361   2.493 -0.8900 -0.5028 -0.6139
  530SOL    HW2 5953   5.758   5.278   2.399  0.4312 -1.2627  1.1877
  531SOL     OW 5954   2.290   4.100   8.765  0.4160  0.2056  0.2788
  531SOL    HW1 5955   2.349   4.051   8.708 -2.3740 -1.0120 -1.7974
  531SOL    HW2 5956   2.255   4.169   8.709 -1.1459  0.0119  0.9554
  532SOL     OW 5957   6.593   7.730   6.013  0.1917 -0.0939  0.1382
  532SOL    HW1 5958   6.501   7.730   6.040  0.5676 -1.9731  1.5926
  532SOL    HW2 5959   6.593   7.690   5.926 -0.3305 -0.2717  0.2174
  533SOL     OW 5960   9.720   8.254   2.073 -0.1471  0.1766 -0.6490
  533SOL    HW1 5961   9.726   8.164   2.105  0.6524  1.1823  2.3509
  533SOL    HW2 5962   9.629   8.264   2.046 -0.5924 -1.1515  0.2660
  534SOL     OW 5963  10.269   0.018   8.440 -0.5918  0.3125 -0.4123
  534SOL    HW1 5964  10.228  -0.021   8.363  0.3881 -2.2746  0.2527
  534SOL    HW2 5965  10.200   0.019   8.506 -0.6547 -0.2389 -0.4665
  535SOL     OW 5966   8.152   0.651   6.767 -0.2620  0.3032  0.2230
  535SOL    HW1 5967   8.213   0.716   6.733 -2.1761  1.5493 -0.9906
  535SOL    HW2 5968   8.205   0.572   6.776  1.1500  0.7929 -2.5278
  536SOL     OW 5969   1.093   0.539   4.678  0.6750 -0.5794 -0.3798
  536SOL    HW1 5970   1.037   0.509   4.750 -0.9319  2.0360 -0.4504
  536SOL    HW2 5971   1.121   0.458   4.636 -2.2620 -2.0784  0.2624
  537SOL     OW 5972   2.783   5.511   6.070  0.1416  0.2309 -0.4799
  537SOL    HW1 5973   2.803   5.572   5.999  0.2214 -1.6483 -2.1349
  537SOL    HW2 5974   2.730   5.563   6.131 -0.2553  1.7979 -2.0770
  538SOL     OW 5975   8.797   0.649   5.485  0.2763 -0.2600 -0.8370
  538SOL    HW1 5976   8.885   0.636   5.521  0.1464  1.1813  0.0726
  538SOL    HW2 5977   8.740   0.598   5.542  0.4740 -1.0398 -1.3125
  539SOL     OW 5978   9.584   9.728   8.755 -0.0662 -0.1645  0.2149
  539SOL    HW1 5979   9.678   9.709   8.747 -0.0316 -0.8873  1.9891
  539SOL    HW2 5980   9.542   9.642   8.754 -0.5022  0.0047  1.5529
  540SOL     OW 5981   2.441   1.139   7.556  0.2623  0.8207  1.0370
  540SOL    HW1 5982   2.516   1.124   7.613  0.3763  2.2963  1.3081
  540SOL    HW2 5983   2.365   1.137   7.615  0.3830  2.3769  1.2725
  541SOL     OW 5984   1.432   6.231   3.944  0.0632  0.3176 -0.6203
  541SOL    HW1 5985   1.469   6.285   4.013  1.8109  1.0146 -2.0274
  541SOL    HW2 5986   1.493   6.240   3.871  0.0413 -2.9886 -1.1982
  542SOL     OW 5987   8.320   6.977   9.103 -0.6136  0.7337  0.3978
  542SOL    HW1 5988   8.398   6.989   9.047 -0.9348  0.0497 -0.2108
  542SOL    HW2 5989   8.268   6.911   9.057 -1.5929  1.2303  0.7666
  543SOL     OW 5990   1.496   2.155   4.154  0.4241 -0.0609 -0.1129
  543SOL    HW1 5991   1.562   2.190   4.094 -0.5080 -0.1843 -1.2254
  543SOL    HW2 5992   1.412   2.179   4.116 -0.2236 -1.7721  0.1221
  544SOL     OW 5993   3.600   3.103   5.836  0.0263 -0.1074  0.9405
  544SOL    HW1 5994   3.541   3.167   5.795  1.1109  1.2239  1.3707
  544SOL    HW2 5995   3.600   3.028   5.776 -0.5437  0.6778 -0.0725
  545SOL     OW 5996   8.268   2.132  10.479 -0.4742 -0.1117  0.0571
  545SOL    HW1 5997   8.190   2.187  10.481 -1.9953 -2.1602  1.7276
  545SOL    HW2 5998   8.283   2.115  10.386 -0.7671  1.9283 -0.4093
  546SOL     OW 5999   2.623   3.917   0.949  0.5299  0.0777  0.2265
  546SOL    HW1 6000   2.611   3.867   1.030  0.6801 -1.0874 -0.4608
  546SOL    HW2 6001   2.705   3.886   0.913  1.0129  1.3705  0.1533
  547SOL     OW 6002   8.831   2.854   8.246 -0.3190 -0.1500 -0.0943
  547SOL    HW1 6003   8.860   2.941   8.274  0.0705  0.0447 -1.0841
  547SOL    HW2 6004   8.753   2.837   8.300  0.9644 -0.2281  1.8251
  548SOL     OW 6005   5.427   0.999   3.960  0.3719 -0.8433 -0.1277
  548SOL    HW1 6006   5.377   0.954   4.028 -1.1072  1.5176  0.4785
  548SOL    HW2 6007   5.361   1.045   3.908  1.6316 -1.0383 -2.0045
  549SOL     OW 6008   1.899   6.451   4.079  0.0716 -0.5654 -0.3323
  549SOL    HW1 6009   1.857   6.535   4.096  1.1176  0.0809 -0.8672
  549SOL    HW2 6010   1.935   6.459   3.991  1.8173 -0.8591  0.2985
  550SOL     OW 6011   6.376   5.205   9.073 -0.3310 -0.2075 -0.0019
  550SOL    HW1 6012   6.292   5.199   9.119 -0.8313 -3.1612 -1.1113
  550SOL    HW2 6013   6.416   5.119   9.084  2.8123  1.2120  0.7826
  551SOL     OW 6014   3.946   0.968   6.040  0.0541 -0.6198  0.5772
  551SOL    HW1 6015   3.992   1.035   5.989  0.8657  0.2020  2.3157
  551SOL    HW2 6016   4.004   0.892   6.036  0.0247 -0.6253  0.1433
  552SOL     OW 6017  10.703   4.848   2.447 -0.7124  0.3741 -0.3225
  552SOL    HW1 6018  10.731   4.764   2.411 -1.9982 -0.2648  0.0766
  552SOL    HW2 6019  10.666   4.895   2.372 -0.7697  0.2182 -0.3934
  553SOL     OW 6020   3.857   9.345   3.116 -0.5336 -0.7998  0.6917
  553SOL    HW1 6021   3.869   9.369   3.208 -1.7008 -1.1935  0.9714
  553SOL    HW2 6022   3.776   9.389   3.090 -0.5191 -1.1544  0.0240
  554SOL     OW 6023   6.475   2.711  10.825  0.2626  0.1890 -0.1326
  554SOL    HW1 6024   6.568   2.726  10.842  0.4680 -0.8794 -0.2341
  554SOL    HW2 6025   6.472   2.676  10.736 -0.3684  1.3871 -0.6088
  555SOL     OW 6026   7.650   2.581  10.685 -0.6813 -0.0874  0.1189
  555SOL    HW1 6027   7.665   2.670  10.716 -2.3923 -0.1766  1.4059
  555SOL    HW2 6028   7.717   2.529  10.729 -0.9934  0.2896  1.0790
  556SOL     OW 6029   4.919   7.456   7.865 -0.3780  1.0109 -0.1661
  556SOL    HW1 6030   4.901   7.376   7.915  0.2147  1.4603  0.7883
  556SOL    HW2 6031   4.898   7.527   7.926  2.7701  1.5941  0.4017
  557SOL     OW 6032   4.911   6.826  10.684 -0.3461  0.1981 -0.1996
  557SOL    HW1 6033   4.967   6.875  10.625 -0.6274  0.5680 -0.1598
  557SOL    HW2 6034   4.854   6.774  10.627  1.4046 -1.8069 -0.2704
  558SOL     OW 6035  11.090   9.850   9.661 -0.9707  0.3873  0.0781
  558SOL    HW1 6036  11.040   9.853   9.743 -0.6559 -0.1034  0.2928
  558SOL    HW2 6037  11.136   9.934   9.659 -1.9705  0.9443 -0.2377
  559SOL     OW 6038   8.625   0.743   1.111  0.2879 -0.4865  0.0787
  559SOL    HW1 6039   8.632   0.754   1.016  2.3896 -1.4018  0.0712
  559SOL    HW2 6040   8.614   0.831   1.145  1.1729  0.0233 -0.9153
  560SOL     OW 6041   9.471   6.152   3.059  0.2200 -0.4474  0.0580
  560SOL    HW1 6042   9.377   6.165   3.070  0.2067  0.8579 -1.2235
  560SOL    HW2 6043   9.509   6.187   3.140 -0.4345 -2.3353  1.2401
  561SOL     OW 6044   1.061   5.739   4.407 -0.1647 -0.1545  0.5629
  561SOL    HW1 6045   0.986   5.681   4.396  0.4653 -0.8816 -0.0425
  561SOL    HW2 6046   1.032   5.804   4.470 -0.2544 -2.2610  2.8632
  562SOL     OW 6047   3.107   9.824   5.956 -0.2723 -0.1590  0.4023
  562SOL    HW1 6048   3.199   9.798   5.967  0.0287  0.5474 -0.3204
  562SOL    HW2 6049   3.074   9.767   5.886 -0.7928 -1.3363  1.5604
  563SOL     OW 6050   2.335   4.687   3.847  0.4065 -0.0289  0.6330
  563SOL    HW1 6051   2.363   4.774   3.877 -1.8363  0.6436  0.9362
  563SOL    HW2 6052   2.320   4.638   3.928 -0.4720  0.0436  0.5231
  564SOL     OW 6053   7.760  10.813  10.977  0.2633 -0.3395 -0.0681
  564SOL    HW1 6054   7.766  10.892  11.031 -1.2642 -0.0424 -0.2773
  564SOL    HW2 6055   7.819  10.828  10.904 -0.2543  0.7706 -0.2735
  565SOL     OW 6056   8.269   2.828   4.283  0.6048  0.5258 -0.2418
  565SOL    HW1 6057   8.190   2.802   4.235  0.0285 -0.6882  1.2716
  565SOL    HW2 6058   8.318   2.882   4.221 -0.6215 -0.0517 -1.7867
  566SOL     OW 6059  10.645   7.474   4.477 -0.6300  0.1510 -0.1862
  566SOL    HW1 6060  10.634   7.546   4.539 -1.6889 -0.8842  0.8551
  566SOL    HW2 6061  10.621   7.512   4.392 -3.1745  0.5438  0.6251
  567SOL     OW 6062   8.976   0.042   9.640 -0.4822 -0.3159 -0.0278
  567SOL    HW1 6063   9.048   0.088   9.683 -0.6842 -1.7271  1.9802
  567SOL    HW2 6064   8.921   0.111   9.604  0.3206  0.8976  1.0131
  568SOL     OW 6065  10.401   9.913   9.724  0.0561  0.6264  0.3774
  568SOL    HW1 6066  10.360   9.844   9.776 -0.0992 -0.7463 -1.4592
  568SOL    HW2 6067  10.346   9.990   9.738 -0.2579  0.1861  1.8019
  569SOL     OW 6068   0.438   9.491   8.838 -0.2170  0.3723  0.3789
  569SOL    HW1 6069   0.409   9.442   8.915 -1.4143  0.4630  0.0088
  569SOL    HW2 6070   0.495   9.559   8.873  0.9394 -0.8514  0.9649
  570SOL     OW 6071   8.547   0.251   1.016  0.6894  0.1003  0.6236
  570SOL    HW1 6072   8.624   0.306   1.003  0.8791 -0.2865  0.0704
  570SOL    HW2 6073   8.487   0.304   1.069  1.4466  0.3022  1.2953
  571SOL     OW 6074   4.933  10.258   3.834 -0.0196  0.2808  0.0422
  571SOL    HW1 6075   4.929  10.166   3.809  0.7766  0.9858 -3.0047
  571SOL    HW2 6076   4.842  10.287   3.832 -1.2024 -1.4112  6.1964
  572SOL     OW 6077   5.904   2.523   7.528  0.3163 -0.1112  0.6381
  572SOL    HW1 6078   5.900   2.433   7.496 -1.1178  0.3585 -0.5783
  572SOL    HW2 6079   5.981   2.560   7.485  0.8189 -0.6783  1.0180
  573SOL     OW 6080   2.374   7.340   9.434 -0.0534  0.1029 -0.1692
  573SOL    HW1 6081   2.419   7.271   9.385  3.2740  1.4708  0.6640
  573SOL    HW2 6082   2.357   7.300   9.519 -0.6396 -0.5072 -0.5622
  574SOL     OW 6083   1.668   1.265   6.431  0.3001  0.1049  0.5326
  574SOL    HW1 6084   1.635   1.332   6.491 -1.7024  1.2523 -1.6810
  574SOL    HW2 6085   1.590   1.216   6.405  1.1236 -0.4601 -0.9650
  575SOL     OW 6086   6.708   6.536   7.097 -0.2231 -0.2417 -0.2083
  575SOL    HW1 6087   6.728   6.530   7.190  1.4055 -0.0662 -0.5226
  575SOL    HW2 6088   6.625   6.489   7.088 -0.4360 -0.2186  1.3278
  576SOL     OW 6089  10.110   1.030  10.820  0.4028 -0.2184  0.8816
  576SOL    HW1 6090  10.084   1.109  10.772  1.3691  0.0412  0.7810
  576SOL    HW2 6091  10.107   0.961  10.754 -0.2584 -0.2401  0.9256
  577SOL     OW 6092   2.804   6.829   5.940 -0.3007  0.6581  0.0041
  577SOL    HW1 6093   2.824   6.741   5.971 -1.1498 -0.8421 -3.2540
  577SOL    HW2 6094   2.881   6.855   5.889 -0.7277  1.1036 -0.4261
  578SOL     OW 6095   8.676   0.870   8.667  0.0330 -0.3823 -0.1742
  578SOL    HW1 6096   8.745   0.935   8.653  0.3241 -0.5867  0.2907
  578SOL    HW2 6097   8.597   0.911   8.631 -0.1594  0.9726  1.6437
  579SOL     OW 6098   2.281   7.190   9.001  0.3104 -0.1237  0.1494
  579SOL    HW1 6099   2.246   7.154   8.920 -1.2384 -0.7333  1.0517
  579SOL    HW2 6100   2.340   7.121   9.033 -0.1490 -0.4827  0.2369
  580SOL     OW 6101   9.968  10.486   2.672  0.0990  0.1068 -0.1837
  580SOL    HW1 6102   9.967  10.502   2.577  0.8851  1.1219 -0.0330
  580SOL    HW2 6103  10.041  10.538   2.705 -1.6822  1.8372  1.3267
  581SOL     OW 6104   0.922   9.687   9.164  0.7300  0.4125 -0.1235
  581SOL    HW1 6105   0.896   9.770   9.205  1.8197  0.7613 -0.1251
  581SOL    HW2 6106   1.001   9.708   9.115  1.5196 -0.8267  0.5755
  582SOL     OW 6107   4.463   3.708  10.692  0.1704  0.7214  0.0998
  582SOL    HW1 6108   4.400   3.750  10.750 -0.3105 -0.8299  0.7647
  582SOL    HW2 6109   4.410   3.668  10.623  0.7068  2.2029 -1.2201
  583SOL     OW 6110   5.317  11.053   5.712  0.3008  0.1297  0.1773
  583SOL    HW1 6111   5.290  11.129   5.762 -0.1317  0.0977  0.0039
  583SOL    HW2 6112   5.350  11.089   5.629 -0.0500  0.1241  0.0324
  584SOL     OW 6113   2.638   8.161   6.860 -0.1631 -0.0995  0.3782
  584SOL    HW1 6114   2.711   8.119   6.905  0.4488  0.2203 -0.2967
  584SOL    HW2 6115   2.652   8.141   6.767 -0.1608  1.1208  0.0966
  585SOL     OW 6116   1.590   1.864   2.682  0.0214 -0.6135 -0.0751
  585SOL    HW1 6117   1.560   1.801   2.617 -0.1954 -1.1717  0.5559
  585SOL    HW2 6118   1.667   1.824   2.721 -0.8644 -1.1186  1.2431
  586SOL     OW 6119   7.745   2.371   6.370 -0.3681 -0.3528 -0.0717
  586SOL    HW1 6120   7.819   2.362   6.430 -0.0815 -2.2883 -0.6653
  586SOL    HW2 6121   7.679   2.418   6.421  1.2330  1.4484  0.4595
  587SOL     OW 6122   4.283   7.185   0.204 -0.2770 -0.1981  0.2335
  587SOL    HW1 6123   4.352   7.156   0.264 -0.4352  0.4948  0.7590
  587SOL    HW2 6124   4.202   7.164   0.248 -0.3958  0.5532  0.3923
  588SOL     OW 6125   5.990   6.501   9.337  0.0866 -0.5209 -0.3113
  588SOL    HW1 6126   5.954   6.556   9.267 -0.8580 -1.1258 -0.3236
  588SOL    HW2 6127   5.920   6.439   9.357 -0.0616  0.2431  1.8501
  589SOL     OW 6128   6.755   6.009   5.386  0.4252  0.2264 -0.2235
  589SOL    HW1 6129   6.850   6.010   5.372  0.3028 -0.7825 -1.3233
  589SOL    HW2 6130   6.726   5.925   5.349 -0.8825  0.4759  0.1785
  590SOL     OW 6131  10.039   9.795   2.596 -0.1362  0.5357  0.2346
  590SOL    HW1 6132   9.956   9.841   2.606 -0.6866 -0.4845  0.5161
  590SOL    HW2 6133  10.058   9.761   2.683 -0.3348 -0.7388 -0.2062
  591SOL     OW 6134   7.738   8.963   7.462 -0.4543 -0.5559 -0.2483
  591SOL    HW1 6135   7.736   9.021   7.539 -1.3009 -1.0731  0.1303
  591SOL    HW2 6136   7.816   8.909   7.476 -0.6100 -0.6595  0.2709
  592SOL     OW 6137   1.455   8.865   4.622  0.1519 -0.2798 -0.1862
  592SOL    HW1 6138   1.410   8.930   4.676 -1.2354 -1.2781 -0.0752
  592SOL    HW2 6139   1.387   8.832   4.563  1.1550 -0.6683 -1.1661
  593SOL     OW 6140   7.090  10.299   3.420  0.4583 -0.5759  1.2052
  593SOL    HW1 6141   7.051  10.373   3.467  0.6972  1.0696 -0.9998
  593SOL    HW2 6142   7.021  10.269   3.361  2.1107  2.3357 -2.7033
  594SOL     OW 6143   2.353   5.951   6.114  0.5868 -0.1464 -0.4643
  594SOL    HW1 6144   2.446   5.941   6.132  0.6069  0.1997 -0.3608
  594SOL    HW2 6145   2.326   6.025   6.169  0.3954  0.1745 -0.9922
  595SOL     OW 6146   2.381   9.424   9.314  0.0374  0.2784 -0.3329
  595SOL    HW1 6147   2.365   9.338   9.274  0.8008 -0.2431  0.4584
  595SOL    HW2 6148   2.355   9.413   9.405  1.3652  0.4859  0.0857
  596SOL     OW 6149   2.657  10.471   5.440 -0.1175  0.1427  0.2817
  596SOL    HW1 6150   2.736  10.491   5.390  0.2366  0.8484  1.1022
  596SOL    HW2 6151   2.679  10.494   5.530 -1.8932  2.2878  0.2542
  597SOL     OW 6152   4.318   4.062   9.066  0.6710  0.7378  0.2490
  597SOL    HW1 6153   4.368   4.121   9.009 -0.3977  0.6064 -0.8821
  597SOL    HW2 6154   4.237   4.044   9.017 -0.0117  0.0968  1.5425
  598SOL     OW 6155   1.422   1.192   2.544  0.2190  0.2726 -0.0064
  598SOL    HW1 6156   1.414   1.131   2.618  0.8945  1.6062  1.2152
  598SOL    HW2 6157   1.369   1.152   2.475 -2.4648  0.1114  1.9437
  599SOL     OW 6158   4.534   3.775   3.541 -0.2177 -0.0770  0.0401
  599SOL    HW1 6159   4.539   3.679   3.545 -0.1791 -0.2030 -1.9299
  599SOL    HW2 6160   4.619   3.805   3.572  0.1851 -0.7414 -0.3818
  600SOL     OW 6161   8.597   3.806   8.639 -0.1424  0.1269  0.9777
  600SOL    HW1 6162   8.517   3.756   8.658 -0.4213  0.6642  1.2270
  600SOL    HW2 6163   8.571   3.897   8.645 -0.0913  0.3469 -1.3480
  601SOL     OW 6164   5.841   8.400   9.770  0.1013  0.1782 -0.6097
  601SOL    HW1 6165   5.819   8.492   9.753  0.6132  0.3863 -0.1621
  601SOL    HW2 6166   5.921   8.385   9.720  0.4359  0.1939 -0.0869
  602SOL     OW 6167   4.569   7.874  10.801 -0.2349  0.2816  0.1527
  602SOL    HW1 6168   4.480   7.848  10.824 -0.3886 -0.8380 -1.5547
  602SOL    HW2 6169   4.622   7.844  10.875 -1.4490  3.0206  2.3415
  603SOL     OW 6170   8.309   7.330   1.497  0.6024 -0.4107  0.1583
  603SOL    HW1 6171   8.368   7.305   1.568  1.6026 -1.2801 -0.9313
  603SOL    HW2 6172   8.296   7.250   1.447  2.5384  0.7828 -2.4618
  604SOL     OW 6173   5.047   0.593   1.912 -0.2065 -0.1286 -0.2856
  604SOL    HW1 6174   5.097   0.662   1.869  1.0229 -0.9678 -0.2404
  604SOL    HW2 6175   5.109   0.521   1.921 -1.3805 -1.1298 -0.0567
  605SOL     OW 6176   1.780   2.695   1.115 -0.0771 -0.7934 -0.5749
  605SOL    HW1 6177   1.864   2.741   1.121 -0.0245 -1.0800  2.4908
  605SOL    HW2 6178   1.799   2.618   1.060  1.8272 -1.0949  0.4178
  606SOL     OW 6179   1.779   3.659   5.859 -0.2876  0.3772 -0.9304
  606SOL    HW1 6180   1.713   3.599   5.894  0.4931 -0.6223 -1.1433
  606SOL    HW2 6181   1.761   3.662   5.765  0.2061 -0.2093 -1.0488
  607SOL     OW 6182   4.044   1.694   0.819  0.2048  0.3386  0.8293
  607SOL    HW1 6183   4.038   1.747   0.740 -1.4306 -0.0541  0.6593
  607SOL    HW2 6184   4.128   1.649   0.811  0.0075  0.2024 -0.7678
  608SOL     OW 6185   8.809   2.156   3.058 -0.0182  0.2290  0.4084
  608SOL    HW1 6186   8.792   2.233   3.112 -1.8878  0.7633 -0.8310
  608SOL    HW2 6187   8.888   2.178   3.009 -0.7494  1.5507 -0.2217
  609SOL     OW 6188   8.179  10.062   1.138 -0.4596 -0.1592  0.1921
  609SOL    HW1 6189   8.174   9.969   1.116 -0.5777 -0.2446  0.5723
  609SOL    HW2 6190   8.158  10.107   1.056  2.0805 -0.4175 -0.7022
  610SOL     OW 6191   8.281   6.081   6.959 -0.0656 -0.2260  0.3002
  610SOL    HW1 6192   8.260   5.988   6.966  0.4281 -0.6512 -2.5081
  610SOL    HW2 6193   8.336   6.099   7.035 -0.0769 -2.2701  0.8649
  611SOL     OW 6194   0.631  10.247   1.300  0.2803  0.0324  0.0827
  611SOL    HW1 6195   0.556  10.299   1.329  0.2360  0.3586 -0.5759
  611SOL    HW2 6196   0.655  10.194   1.375  0.2887  0.9749  0.7616
  612SOL     OW 6197   5.476   7.557   4.415  0.4834 -0.6254 -0.0930
  612SOL    HW1 6198   5.472   7.576   4.321  1.2028 -3.3933 -0.7666
  612SOL    HW2 6199   5.405   7.608   4.453 -1.0728 -0.9243 -2.4304
  613SOL     OW 6200   0.919   0.137   1.252 -0.1586  0.4365 -0.1740
  613SOL    HW1 6201   0.846   0.171   1.304  0.7687  1.3049  0.6019
  613SOL    HW2 6202   0.928   0.199   1.180 -0.8853 -0.2915 -0.9173
  614SOL     OW 6203  10.955   6.468   3.898  0.5943  0.7826 -0.3367
  614SOL    HW1 6204  10.869   6.498   3.928  0.4907  1.7713 -1.5580
  614SOL    HW2 6205  10.967   6.509   3.813  1.2801 -1.1986 -1.2598
  615SOL     OW 6206  10.190   3.756   6.107  0.3117  0.6895 -0.5573
  615SOL    HW1 6207  10.225   3.690   6.166 -0.7870  0.4739 -0.1096
  615SOL    HW2 6208  10.219   3.839   6.144  0.3617  0.5161 -0.2051
  616SOL     OW 6209   3.225   6.230   9.264 -0.0209 -0.5333  0.1960
  616SOL    HW1 6210   3.145   6.255   9.219 -0.1022 -0.1460  0.5456
  616SOL    HW2 6211   3.273   6.177   9.200 -0.2384 -0.1909 -0.2559
  617SOL     OW 6212   0.346   7.203   7.664  0.0831  0.1196 -0.9058
  617SOL    HW1 6213   0.317   7.162   7.745 -0.1237  0.1795 -0.9492
  617SOL    HW2 6214   0.336   7.135   7.598 -0.5675  0.3305 -1.0380
  618SOL     OW 6215   5.331   2.110   0.763  0.0659  0.0116 -0.0413
  618SOL    HW1 6216   5.256   2.123   0.820  0.2789 -3.0768  1.1842
  618SOL    HW2 6217   5.407   2.133   0.817  0.1168  1.8269 -0.8231
  619SOL     OW 6218   7.927   7.185  10.151 -0.2794 -0.2038  0.0734
  619SOL    HW1 6219   7.856   7.249  10.154 -0.5961 -0.5003 -0.9069
  619SOL    HW2 6220   7.895   7.111  10.203  0.3223  0.6253  1.7134
  620SOL     OW 6221   0.879   4.097   6.438 -0.3502  0.6018 -0.0439
  620SOL    HW1 6222   0.933   4.127   6.511  0.5800  0.6761 -0.7440
  620SOL    HW2 6223   0.795   4.142   6.451 -0.5106 -0.0779  1.4610
  621SOL     OW 6224  10.531  10.701   7.316  0.3031  0.1862 -0.3259
  621SOL    HW1 6225  10.469  10.650   7.368  0.9761  0.4746  0.7782
  621SOL    HW2 6226  10.482  10.723   7.236 -0.6232 -0.5691  0.0101
  622SOL     OW 6227   6.012   6.585   6.393 -0.6254 -0.1382  0.3182
  622SOL    HW1 6228   5.992   6.501   6.351  3.6688 -2.5278  2.2734
  622SOL    HW2 6229   5.974   6.578   6.480  0.9343 -0.8760  0.9982
  623SOL     OW 6230   5.653   2.073   2.453 -0.8636 -0.0997 -0.1083
  623SOL    HW1 6231   5.713   2.014   2.500  0.1536 -0.1533 -1.4107
  623SOL    HW2 6232   5.651   2.152   2.507  0.3451 -0.1271  0.0184
  624SOL     OW 6233   3.289   2.687   6.977  0.3931 -0.4453 -0.2559
  624SOL    HW1 6234   3.381   2.712   6.972  0.5373 -1.1291 -1.1917
  624SOL    HW2 6235   3.289   2.609   7.033  0.4529 -0.7483 -0.6733
  625SOL     OW 6236   8.590   2.582   8.640 -0.0297  0.5353  0.0123
  625SOL    HW1 6237   8.559   2.671   8.658  0.1593  0.6199 -0.0714
  625SOL    HW2 6238   8.670   2.595   8.589 -1.3589  0.2888 -2.2927
  626SOL     OW 6239   4.631   2.520   5.514 -0.0317 -0.3226  0.0607
  626SOL    HW1 6240   4.601   2.446   5.461 -0.5885  0.3459 -0.5788
  626SOL    HW2 6241   4.655   2.587   5.451  2.4558 -0.6531  0.5660
  627SOL     OW 6242   5.375   2.643   6.342 -0.0031  0.0634  0.0791
  627SOL    HW1 6243   5.417   2.618   6.424 -1.9204 -2.8497  0.3211
  627SOL    HW2 6244   5.333   2.727   6.361  2.5087  1.2316  0.8905
  628SOL     OW 6245   5.401   7.750   0.733  0.5308  0.2457  0.4775
  628SOL    HW1 6246   5.334   7.734   0.799 -0.1024 -2.2516 -0.6528
  628SOL    HW2 6247   5.452   7.669   0.731 -1.9307 -1.6268 -4.7144
  629SOL     OW 6248   6.131   3.195   9.614 -0.2012 -0.3052  0.0649
  629SOL    HW1 6249   6.179   3.125   9.658  0.3030 -0.9301 -1.3848
  629SOL    HW2 6250   6.070   3.149   9.555  0.9095  0.4087 -1.7330
  630SOL     OW 6251   1.518  10.132  11.101  0.0512  0.1880 -0.5765
  630SOL    HW1 6252   1.438  10.122  11.050  0.3666  0.1390 -1.0685
  630SOL    HW2 6253   1.488  10.136  11.192 -0.5385  0.5284 -0.7755
  631SOL     OW 6254   8.670   7.378   3.512 -0.1685  0.2707  0.5043
  631SOL    HW1 6255   8.595   7.343   3.560  0.7255 -1.9520  0.4276
  631SOL    HW2 6256   8.738   7.311   3.521  1.6252  1.9221  0.0657
  632SOL     OW 6257   7.749   6.302   0.392  0.2551  0.1077 -0.5476
  632SOL    HW1 6258   7.777   6.218   0.428  0.3229  1.1136  1.9635
  632SOL    HW2 6259   7.655   6.291   0.374  0.1510 -0.3462  0.2488
  633SOL     OW 6260   4.746   5.526   2.598 -1.0255 -0.1352 -0.1335
  633SOL    HW1 6261   4.743   5.534   2.503  0.1961 -0.8664 -0.2452
  633SOL    HW2 6262   4.733   5.433   2.615 -1.3697  0.0089  0.4351
  634SOL     OW 6263   2.824   5.585   3.208 -0.2379 -0.6426 -0.7761
  634SOL    HW1 6264   2.857   5.515   3.152  0.8067 -0.5568 -0.2858
  634SOL    HW2 6265   2.842   5.665   3.159 -0.3530 -0.6360 -0.8087
  635SOL     OW 6266   4.276   4.327  10.574  0.2168  0.7379  0.1506
  635SOL    HW1 6267   4.259   4.287  10.490 -0.9220  2.4733 -0.4992
  635SOL    HW2 6268   4.336   4.400  10.554  0.7510  0.5486  1.0010
  636SOL     OW 6269   3.495   0.253   7.800 -0.6338  0.0669  0.0024
  636SOL    HW1 6270   3.568   0.213   7.753  1.6801  2.3358  1.4217
  636SOL    HW2 6271   3.466   0.186   7.861  0.4719 -0.8015 -0.3864
  637SOL     OW 6272   6.996   8.608   2.389  0.0087  0.3704 -0.2054
  637SOL    HW1 6273   7.068   8.670   2.380  1.7216 -1.4961 -0.1090
  637SOL    HW2 6274   7.021   8.533   2.335 -0.7039 -1.3060  1.6424
  638SOL     OW 6275   4.404   6.724   9.785 -0.2277  0.1785  0.1516
  638SOL    HW1 6276   4.475   6.698   9.726 -1.1382  0.7605 -1.2746
  638SOL    HW2 6277   4.376   6.810   9.752 -1.4719  0.0365  0.7638
  639SOL     OW 6278   8.641   5.055   5.589  0.3946  0.3152 -0.3420
  639SOL    HW1 6279   8.691   5.007   5.655 -0.5750  0.7268  0.7221
  639SOL    HW2 6280   8.551   5.025   5.600  0.2500  0.2200 -1.6523
  640SOL     OW 6281  10.883   9.396   1.872 -0.1394 -1.0093  0.2319
  640SOL    HW1 6282  10.905   9.310   1.837 -1.6660 -1.1027 -0.5656
  640SOL    HW2 6283  10.836   9.378   1.953  1.8664 -0.8293  1.4946
  641SOL     OW 6284   3.266   6.254   8.019  0.2685 -0.1493 -0.2643
  641SOL    HW1 6285   3.200   6.196   8.057  1.3803 -1.5817 -0.4298
  641SOL    HW2 6286   3.349   6.208   8.033  1.5893  2.6336  1.9951
  642SOL     OW 6287   9.192   5.397   8.309 -0.2606  0.5634 -0.8364
  642SOL    HW1 6288   9.195   5.483   8.352 -3.2973 -0.7578  2.5592
  642SOL    HW2 6289   9.108   5.397   8.262 -0.9171 -0.9053  0.2739
  643SOL     OW 6290   0.103   4.765   1.139 -0.1808  0.3488 -0.0185
  643SOL    HW1 6291   0.079   4.680   1.177  1.5226 -1.6162 -2.9417
  643SOL    HW2 6292   0.075   4.760   1.048  0.8074  2.5762 -0.5102
  644SOL     OW 6293  11.006  10.616   1.540  0.3392 -0.0887  0.2027
  644SOL    HW1 6294  10.961  10.552   1.595 -0.8897  0.3032 -0.3211
  644SOL    HW2 6295  11.046  10.677   1.602  0.3256 -0.5559  0.6764
  645SOL     OW 6296   2.444  10.876   8.636 -0.4427  0.1394  0.6665
  645SOL    HW1 6297   2.504  10.803   8.625  0.1544  0.5257  1.3108
  645SOL    HW2 6298   2.409  10.866   8.724  0.8213  1.4702  1.3663
  646SOL     OW 6299   6.802   5.052   4.781  0.1631 -0.5172 -0.0196
  646SOL    HW1 6300   6.889   5.081   4.809  0.1681  0.3765 -0.9195
  646SOL    HW2 6301   6.757   5.132   4.756 -0.6294 -1.0652 -0.3863
  647SOL     OW 6302   8.444   9.506   2.219  0.0996  0.2899 -0.0020
  647SOL    HW1 6303   8.395   9.566   2.274  0.1505  1.4067 -1.1260
  647SOL    HW2 6304   8.379   9.443   2.187 -0.7848  2.0609 -1.8963
  648SOL     OW 6305   5.267   4.462   7.663  0.3353 -0.6782 -0.1035
  648SOL    HW1 6306   5.271   4.512   7.581  0.5649  0.0185  0.3234
  648SOL    HW2 6307   5.231   4.524   7.727 -0.0865 -1.2972  0.2686
  649SOL     OW 6308   1.700   0.862   0.898 -0.1971 -0.0363  0.5245
  649SOL    HW1 6309   1.767   0.796   0.914 -0.1442 -0.5845 -1.6028
  649SOL    HW2 6310   1.743   0.945   0.920  0.6160 -0.5053  0.7349
  650SOL     OW 6311   9.728   4.272  10.165  0.4707  0.3708 -0.3699
  650SOL    HW1 6312   9.740   4.271  10.070  0.3581  0.2970 -0.3836
  650SOL    HW2 6313   9.739   4.181  10.192  0.6420  0.4130 -0.2938
  651SOL     OW 6314   3.146   8.513   1.129  0.1112 -0.3156 -0.3928
  651SOL    HW1 6315   3.064   8.563   1.119 -0.5369 -0.6869  2.3043
  651SOL    HW2 6316   3.135   8.438   1.071  0.0280  1.2856 -2.5993
  652SOL     OW 6317  10.704   3.400  10.291  0.8340 -0.1173 -0.5463
  652SOL    HW1 6318  10.630   3.410  10.231  1.5872  1.4096 -1.2661
  652SOL    HW2 6319  10.781   3.400  10.234  1.4152 -2.3739  0.1193
  653SOL     OW 6320   1.929   6.034   2.996 -1.0198  0.4534 -0.2413
  653SOL    HW1 6321   1.841   6.069   3.008 -1.3745  0.5425 -2.6059
  653SOL    HW2 6322   1.937   5.967   3.063 -1.5233  2.7880  2.3348
  654SOL     OW 6323   4.445   9.693  11.099  0.0482  0.5114  0.1900
  654SOL    HW1 6324   4.365   9.693  11.152 -0.0785 -2.7591  0.1843
  654SOL    HW2 6325   4.502   9.755  11.143 -1.2833  0.4210  2.1897
  655SOL     OW 6326   6.501   0.999   8.121 -0.0151  0.0322 -0.2307
  655SOL    HW1 6327   6.434   0.993   8.054 -2.0753 -0.4206  1.7362
  655SOL    HW2 6328   6.567   0.934   8.095 -2.2518 -2.3799 -0.3044
  656SOL     OW 6329   5.618   6.197   8.531  0.0933 -0.0778 -0.1704
  656SOL    HW1 6330   5.714   6.195   8.541  0.1710  2.0283 -0.0961
  656SOL    HW2 6331   5.603   6.251   8.454 -1.0449 -0.7298 -0.4179
  657SOL     OW 6332   9.809   9.365   2.053 -0.5244  0.7978 -0.4544
  657SOL    HW1 6333   9.762   9.287   2.022 -3.2615  3.4864 -3.9015
  657SOL    HW2 6334   9.755   9.397   2.126 -0.6934  0.6717 -0.5221
  658SOL     OW 6335   3.620   4.784   8.774  0.3460 -0.3820 -0.2829
  658SOL    HW1 6336   3.706   4.741   8.777  0.3307 -0.4130 -0.2831
  658SOL    HW2 6337   3.571   4.743   8.846  0.4003 -0.2194 -0.1538
  659SOL     OW 6338   6.706   1.955   5.171  0.0396  0.2714 -0.5977
  659SOL    HW1 6339   6.617   1.985   5.152  0.2219  2.1662  1.1784
  659SOL    HW2 6340   6.696   1.863   5.193 -1.4999  0.4567 -0.3828
  660SOL     OW 6341   9.231   9.478   9.388  0.0816  0.3860  0.5309
  660SOL    HW1 6342   9.301   9.501   9.449  0.3454  1.1292 -0.0266
  660SOL    HW2 6343   9.259   9.396   9.348  0.7863  0.8268  0.1027
  661SOL     OW 6344   4.835   2.521   4.002 -0.6113  0.2521  0.0088
  661SOL    HW1 6345   4.793   2.591   4.052 -0.4601 -0.6571  1.4681
  661SOL    HW2 6346   4.798   2.529   3.914 -1.6776  1.2570  0.5265
  662SOL     OW 6347   3.001   3.220   9.967  0.2440 -0.0884  0.1896
  662SOL    HW1 6348   3.021   3.217   9.874  0.8661  1.4741  0.2357
  662SOL    HW2 6349   3.085   3.202  10.010  0.2396  0.4540  0.4304
  663SOL     OW 6350   8.187   2.755   9.089 -0.5192  0.2832  0.0787
  663SOL    HW1 6351   8.128   2.794   9.024 -0.0626  1.4622  0.3462
  663SOL    HW2 6352   8.266   2.733   9.039 -0.4586  0.4889  0.0810
  664SOL     OW 6353   6.073   5.891  10.375  0.2218  0.0920  0.0736
  664SOL    HW1 6354   6.147   5.946  10.350  0.1313  0.8303  1.3102
  664SOL    HW2 6355   6.107   5.834  10.444 -0.1413 -0.1799  0.0314
  665SOL     OW 6356   3.648  10.622   5.648 -0.0059  0.1904  0.0329
  665SOL    HW1 6357   3.565  10.586   5.680  0.7306 -1.2649  0.4035
  665SOL    HW2 6358   3.634  10.717   5.647 -1.1599  0.0847  1.5503
  666SOL     OW 6359   0.802   8.527   9.109  0.3438 -0.3117  0.1244
  666SOL    HW1 6360   0.759   8.453   9.067 -0.3632 -0.3131  0.8324
  666SOL    HW2 6361   0.871   8.553   9.048 -0.1515 -0.8125 -0.6542
  667SOL     OW 6362   8.023   4.209   2.141 -0.9423 -0.5030  0.1758
  667SOL    HW1 6363   7.944   4.186   2.091  0.4534 -2.1094 -1.4233
  667SOL    HW2 6364   8.022   4.149   2.216 -1.0616 -0.7686 -0.0355
  668SOL     OW 6365   7.549   4.469   8.764  0.0348 -0.5926 -0.3448
  668SOL    HW1 6366   7.589   4.502   8.683 -0.3485  0.3537 -0.1678
  668SOL    HW2 6367   7.623   4.450   8.821  0.2702  0.5357 -0.2513
  669SOL     OW 6368   2.033   0.963   5.561 -0.1250 -0.2511  0.2978
  669SOL    HW1 6369   2.085   0.983   5.483 -0.4797 -0.9361 -0.1282
  669SOL    HW2 6370   2.097   0.939   5.628  0.1361 -0.7963 -0.1341
  670SOL     OW 6371   4.397   4.991  10.948 -0.3926 -0.0358 -0.4664
  670SOL    HW1 6372   4.378   4.909  10.993 -0.2816  0.0826 -0.2000
  670SOL    HW2 6373   4.319   5.008  10.895 -1.0307  0.4402  0.5987
  671SOL     OW 6374   6.183   8.357   1.641  0.0390  0.4344  0.2665
  671SOL    HW1 6375   6.165   8.329   1.731  3.2413 -0.4714  0.7585
  671SOL    HW2 6376   6.244   8.430   1.651  2.0668 -0.9764 -1.1275
  672SOL     OW 6377   2.375   6.498   6.514 -0.2586  0.2088  0.8103
  672SOL    HW1 6378   2.290   6.529   6.485 -1.1925 -1.1966  1.9188
  672SOL    HW2 6379   2.361   6.405   6.535  1.8628 -0.4199 -0.2349
  673SOL     OW 6380   5.118   7.711   5.963  0.7713  0.3509 -0.7351
  673SOL    HW1 6381   5.107   7.754   6.048 -0.7660  0.5757 -1.0234
  673SOL    HW2 6382   5.108   7.618   5.982 -1.3874  0.4931 -0.8779
  674SOL     OW 6383  10.699   2.185   0.861  0.2891 -0.1123 -0.3752
  674SOL    HW1 6384  10.604   2.187   0.849  0.5231  0.0827 -2.7521
  674SOL    HW2 6385  10.715   2.106   0.913 -1.1362 -0.3006 -0.1834
  675SOL     OW 6386   0.864   7.102   8.266  0.1424  0.4653 -0.3416
  675SOL    HW1 6387   0.872   7.169   8.199  0.8860  1.5707  0.8132
  675SOL    HW2 6388   0.949   7.060   8.270 -0.0249  0.1169 -0.3810
  676SOL     OW 6389   2.180  10.999   6.297 -0.0960 -0.7208  0.1189
  676SOL    HW1 6390   2.125  11.018   6.373  0.3519 -2.4341  0.9228
  676SOL    HW2 6391   2.246  11.068   6.297 -1.7157  0.9279 -0.4136
  677SOL     OW 6392   5.686   5.148   6.849 -0.2458 -0.5153 -0.3829
  677SOL    HW1 6393   5.748   5.096   6.798 -0.3039  0.1703 -1.1745
  677SOL    HW2 6394   5.729   5.232   6.861 -1.2820  0.2187 -1.5561
  678SOL     OW 6395   5.354   3.004   1.736  0.0506 -0.0199 -0.1364
  678SOL    HW1 6396   5.375   2.952   1.814 -0.1167  0.0169 -0.0661
  678SOL    HW2 6397   5.325   2.940   1.671 -2.3260  0.1555  0.6602
  679SOL     OW 6398   3.501   9.747   7.835  0.1055 -0.0750  0.1061
  679SOL    HW1 6399   3.484   9.792   7.752 -0.4192 -0.2080  0.1371
  679SOL    HW2 6400   3.577   9.792   7.871 -0.8164  1.2583  0.4686
  680SOL     OW 6401   4.387   0.893   1.606  0.0211  0.4946 -0.7884
  680SOL    HW1 6402   4.387   0.846   1.522  0.9932 -0.1373 -0.4496
  680SOL    HW2 6403   4.380   0.985   1.581  0.6171  0.3404 -1.5837
  681SOL     OW 6404  10.926   4.125   2.890 -0.6661  0.3437  0.2484
  681SOL    HW1 6405  10.851   4.147   2.834 -2.3893  0.0758  2.3053
  681SOL    HW2 6406  10.903   4.162   2.976  0.4756 -1.7326  1.5298
  682SOL     OW 6407   6.932   4.503   1.173  0.1841  0.4530  0.4128
  682SOL    HW1 6408   6.938   4.487   1.267 -0.0332 -0.8132  0.2322
  682SOL    HW2 6409   6.888   4.425   1.139 -1.5007  1.7468 -0.4917
  683SOL     OW 6410   8.127   6.989   6.036 -0.1570 -0.4669 -0.0154
  683SOL    HW1 6411   8.181   6.941   6.100 -0.6271 -0.2297  0.5691
  683SOL    HW2 6412   8.135   6.937   5.956  1.0864 -0.3349 -0.0007
  684SOL     OW 6413   5.676   2.584   9.781  0.0145 -0.3732 -0.2343
  684SOL    HW1 6414   5.751   2.633   9.748 -0.2219 -0.6529 -1.2251
  684SOL    HW2 6415   5.712   2.498   9.802 -0.2738 -1.0077 -2.1344
  685SOL     OW 6416   9.600   1.888   0.960  0.1596  0.4807 -0.4492
  685SOL    HW1 6417   9.661   1.830   1.005 -1.7679 -1.4326 -0.1093
  685SOL    HW2 6418   9.598   1.968   1.013  1.3812  0.0714  0.2364
  686SOL     OW 6419   1.368   8.402   5.798 -0.0307 -0.0038 -0.1627
  686SOL    HW1 6420   1.429   8.465   5.836 -0.5693 -0.3908  1.3871
  686SOL    HW2 6421   1.386   8.320   5.844 -0.1262 -0.7115 -1.3501
  687SOL     OW 6422   4.700   6.560   5.903  0.1965  0.8942 -0.6247
  687SOL    HW1 6423   4.641   6.610   5.959 -0.0322  0.4813 -0.4900
  687SOL    HW2 6424   4.649   6.543   5.824  0.1245  0.5220 -0.5005
  688SOL     OW 6425   6.401  10.608   8.315  0.0805  0.1344 -0.3779
  688SOL    HW1 6426   6.435  10.521   8.294  1.7749  1.1844 -2.3610
  688SOL    HW2 6427   6.371  10.644   8.232  1.4309  2.2504 -0.0391
  689SOL     OW 6428   8.480   7.607   5.900  0.3851 -0.1423 -0.1348
  689SOL    HW1 6429   8.542   7.576   5.834 -1.0307 -0.0576 -1.5898
  689SOL    HW2 6430   8.514   7.691   5.928  1.5524 -0.6438  0.0195
  690SOL     OW 6431   6.111  11.107   7.552 -0.7972  0.1855 -0.0871
  690SOL    HW1 6432   6.096  11.098   7.457 -3.0356 -1.4268  0.3389
  690SOL    HW2 6433   6.042  11.055   7.592 -0.3962  1.4919  2.4931
  691SOL     OW 6434   3.654   5.767   5.849 -0.5048  0.5860  0.5092
  691SOL    HW1 6435   3.721   5.713   5.807 -1.6096  0.1541 -0.8082
  691SOL    HW2 6436   3.642   5.841   5.789 -0.6522  1.0751  1.1319
  692SOL     OW 6437   9.005  10.128   8.879 -0.4391 -0.3618  0.8191
  692SOL    HW1 6438   9.008  10.199   8.944 -0.2941  1.6536 -1.2573
  692SOL    HW2 6439   9.096  10.100   8.870 -0.2334  0.3995  0.4296
  693SOL     OW 6440  10.875   7.272   1.121  0.2537  0.8205 -0.1285
  693SOL    HW1 6441  10.810   7.308   1.060 -0.9904  2.0562  1.7999
  693SOL    HW2 6442  10.826   7.256   1.202  2.0727  0.4307  0.9630
  694SOL     OW 6443   5.622   0.456   8.347 -0.4225 -0.3767  0.1895
  694SOL    HW1 6444   5.633   0.362   8.329  0.0196  0.1834 -3.1169
  694SOL    HW2 6445   5.545   0.481   8.294 -0.1443  1.2365  0.4961
  695SOL     OW 6446   9.824  10.070   0.584  0.7045 -0.1248 -0.3585
  695SOL    HW1 6447   9.876  10.142   0.547  2.5823 -1.6576 -0.8687
  695SOL    HW2 6448   9.886  10.023   0.640 -0.2811 -1.7215 -0.5662
  696SOL     OW 6449   6.163   8.465   2.458 -0.0111 -0.0612 -0.3545
  696SOL    HW1 6450   6.249   8.453   2.499  0.6102  1.1392 -1.2400
  696SOL    HW2 6451   6.160   8.401   2.387 -0.8491 -1.7383  1.1207
  697SOL     OW 6452   2.739  10.907   2.584  0.0472  0.3215 -0.0519
  697SOL    HW1 6453   2.645  10.904   2.606 -0.3988 -1.0383 -1.8967
  697SOL    HW2 6454   2.744  10.872   2.495  2.2860  0.7570 -0.1524
  698SOL     OW 6455   1.443  11.032   1.585  0.0568 -0.5080 -0.2050
  698SOL    HW1 6456   1.479  11.115   1.556  0.5002 -0.8753 -0.7244
  698SOL    HW2 6457   1.348  11.040   1.570  0.0654 -0.0020  0.0076
  699SOL     OW 6458   3.937   8.197   3.612 -0.3656  0.1117 -0.0007
  699SOL    HW1 6459   3.879   8.123   3.630  2.0346 -1.2398  3.3653
  699SOL    HW2 6460   4.020   8.157   3.586  0.7246  1.6162  0.9728
  700SOL     OW 6461  11.007   9.451   7.632 -0.7485 -0.1639  0.5410
  700SOL    HW1 6462  10.979   9.380   7.575 -1.1484 -0.7900  1.4868
  700SOL    HW2 6463  11.097   9.429   7.656 -0.3879  0.3871 -0.2710
  701SOL     OW 6464   7.168   5.403   0.348  0.7079  0.3953  0.2448
  701SOL    HW1 6465   7.089   5.354   0.369  0.3595  1.0796  0.5091
  701SOL    HW2 6466   7.165   5.414   0.253  0.5846  0.2589  0.2334
  702SOL     OW 6467   1.351   8.185  10.192 -0.0100 -0.0480 -0.2080
  702SOL    HW1 6468   1.280   8.124  10.211  0.4645 -0.6129 -0.2340
  702SOL    HW2 6469   1.413   8.173  10.263 -0.4903  1.3140  0.4703
  703SOL     OW 6470   9.063   7.731   9.102  0.1280  0.0900 -0.9879
  703SOL    HW1 6471   9.143   7.678   9.091  1.4077  1.3212  1.6249
  703SOL    HW2 6472   8.999   7.670   9.138  0.8792 -0.2330 -0.1635
  704SOL     OW 6473   1.362   8.645   7.808  0.3968  0.0819 -0.8249
  704SOL    HW1 6474   1.426   8.716   7.804  0.8234 -0.3243 -1.3561
  704SOL    HW2 6475   1.409   8.573   7.850  0.0104  0.0575 -0.4223
  705SOL     OW 6476   6.510   1.120   6.579 -0.0761 -0.3974  0.8242
  705SOL    HW1 6477   6.539   1.145   6.492 -2.9735  0.7826  0.0574
  705SOL    HW2 6478   6.540   1.030   6.590 -0.0622 -0.7624 -1.6217
  706SOL     OW 6479   0.881   5.974   9.831  0.0356  0.1938  0.2456
  706SOL    HW1 6480   0.814   5.959   9.898  0.3428 -0.6948  0.3782
  706SOL    HW2 6481   0.915   5.886   9.812  0.0229  0.4481 -1.0120
  707SOL     OW 6482   9.060   7.906   8.528  0.1647  0.1974 -0.2205
  707SOL    HW1 6483   9.051   7.902   8.433  0.9245 -0.7874 -0.2700
  707SOL    HW2 6484   8.984   7.857   8.561  1.4250 -2.0655 -0.4408
  708SOL     OW 6485   9.211  10.149   3.832 -0.7791 -0.5050  0.1963
  708SOL    HW1 6486   9.300  10.118   3.846 -0.8751 -1.9933 -1.9269
  708SOL    HW2 6487   9.164  10.125   3.911  0.4497 -0.6766  0.9001
  709SOL     OW 6488   7.438  10.508   8.047  0.6475 -0.3203  0.1157
  709SOL    HW1 6489   7.492  10.568   8.099 -1.3988  0.6451  1.2201
  709SOL    HW2 6490   7.491  10.428   8.042  1.2673 -0.2265  3.1094
  710SOL     OW 6491   5.960   0.581  10.799 -0.0046  0.7360 -0.1441
  710SOL    HW1 6492   5.994   0.638  10.867 -0.8043 -0.5559  1.3906
  710SOL    HW2 6493   5.866   0.578  10.815  0.1089 -1.7342  0.4521
  711SOL     OW 6494  10.566   3.920   2.526  0.2446  0.7692 -0.3001
  711SOL    HW1 6495  10.591   3.950   2.438  0.0548 -0.2348 -0.7210
  711SOL    HW2 6496  10.474   3.942   2.534  0.1708  0.5484 -0.5060
  712SOL     OW 6497   8.204   1.055   2.326  0.2485  0.1880  0.2691
  712SOL    HW1 6498   8.141   1.065   2.255  0.5277 -1.2210 -0.2046
  712SOL    HW2 6499   8.214   1.143   2.361  1.0217  1.1923 -2.2513
  713SOL     OW 6500   0.780   5.332   6.175 -0.0430 -0.1451 -0.5769
  713SOL    HW1 6501   0.689   5.302   6.170 -0.5331  1.4036 -2.1697
  713SOL    HW2 6502   0.821   5.293   6.098  0.2993  0.1675 -0.5550
  714SOL     OW 6503   5.365   6.202   7.941 -0.2350 -0.3067  0.1533
  714SOL    HW1 6504   5.446   6.152   7.929  1.7370  2.0203  2.5126
  714SOL    HW2 6505   5.333   6.218   7.853  0.9590 -2.6431 -0.7931
  715SOL     OW 6506   1.646   9.943   0.918  0.9364  0.1747  0.2873
  715SOL    HW1 6507   1.700  10.020   0.901  1.8403 -0.7524 -1.3472
  715SOL    HW2 6508   1.570   9.977   0.965  2.1305  1.7696  1.1800
  716SOL     OW 6509   8.019   8.333   3.774 -0.1395  0.8520 -0.0009
  716SOL    HW1 6510   7.949   8.366   3.718  1.8158  0.8001 -2.6409
  716SOL    HW2 6511   8.100   8.366   3.734  1.4716 -0.6058  1.8491
  717SOL     OW 6512   4.262  10.489   7.881 -0.1813 -0.0400  0.4332
  717SOL    HW1 6513   4.348  10.491   7.839 -0.4249  1.9605 -0.0844
  717SOL    HW2 6514   4.220  10.410   7.846  0.4895  0.3289 -1.3109
  718SOL     OW 6515   2.435   9.182   1.344 -0.0919  0.3960  0.0370
  718SOL    HW1 6516   2.344   9.212   1.343 -0.3802 -0.3485 -2.1867
  718SOL    HW2 6517   2.472   9.215   1.262  1.5734  0.4502  0.7775
  719SOL     OW 6518   2.918   0.373   8.860 -0.0844 -0.2280  0.7767
  719SOL    HW1 6519   2.891   0.322   8.937 -1.6356  0.9214  1.0419
  719SOL    HW2 6520   2.837   0.411   8.827  0.5457 -0.6351 -1.4235
  720SOL     OW 6521   1.844   7.232   5.349 -0.0913 -0.2122  0.3675
  720SOL    HW1 6522   1.933   7.201   5.368 -0.2443 -1.1565 -0.3889
  720SOL    HW2 6523   1.825   7.197   5.262 -2.4981 -2.9366  1.8376
  721SOL     OW 6524   0.651   0.397   5.971  0.1248 -0.0883 -0.2231
  721SOL    HW1 6525   0.688   0.454   6.038  1.5505 -0.9876 -0.1905
  721SOL    HW2 6526   0.704   0.317   5.976  0.9613  0.1770 -3.0623
  722SOL     OW 6527   5.660   1.837   3.119 -0.2685  0.2191 -1.1155
  722SOL    HW1 6528   5.622   1.752   3.140  0.5071 -0.0660 -0.8230
  722SOL    HW2 6529   5.615   1.898   3.178  0.5032 -0.2830  0.0265
  723SOL     OW 6530   4.219   9.246   8.322 -0.2942 -0.2503 -0.1514
  723SOL    HW1 6531   4.262   9.328   8.296 -1.7742  0.2240 -1.2277
  723SOL    HW2 6532   4.143   9.239   8.264 -1.3637 -1.3526  1.3065
  724SOL     OW 6533   8.958   8.272   1.956 -0.4322 -0.0227  0.3722
  724SOL    HW1 6534   9.051   8.294   1.955 -0.4366  0.0317  0.9889
  724SOL    HW2 6535   8.920   8.325   1.886 -0.0026 -0.0563  0.1063
  725SOL     OW 6536   6.155   6.692   2.649  0.0509  0.4388 -0.7394
  725SOL    HW1 6537   6.153   6.726   2.559 -0.4263  0.9019 -0.5589
  725SOL    HW2 6538   6.196   6.761   2.700  0.9305 -0.0914 -0.6967
  726SOL     OW 6539   5.521   6.373   7.197  0.3065  0.1559  0.4348
  726SOL    HW1 6540   5.598   6.399   7.247 -0.4669 -0.0806  1.7904
  726SOL    HW2 6541   5.485   6.455   7.164  1.0275  0.2814 -0.0592
  727SOL     OW 6542   0.713   8.353   8.884  0.5786 -0.3097  0.0470
  727SOL    HW1 6543   0.639   8.407   8.858 -0.9715 -1.5379  1.6977
  727SOL    HW2 6544   0.784   8.379   8.825 -0.7992  1.7461 -0.7941
  728SOL     OW 6545   6.688   2.871   8.281  0.6941  0.5839  0.3299
  728SOL    HW1 6546   6.729   2.949   8.244 -1.1605  1.7248  0.5463
  728SOL    HW2 6547   6.733   2.858   8.365  3.1250 -0.4789 -1.0441
  729SOL     OW 6548   5.678   9.838   6.742 -0.8760  0.0742  0.3086
  729SOL    HW1 6549   5.608   9.859   6.681 -0.9416 -0.5608  0.1704
  729SOL    HW2 6550   5.661   9.896   6.817 -0.8678  0.7602 -0.2023
  730SOL     OW 6551   1.070   8.900  10.634  0.0631 -0.0299  0.2493
  730SOL    HW1 6552   0.988   8.922  10.589 -1.7963 -1.7026  2.5668
  730SOL    HW2 6553   1.123   8.857  10.568  0.0347  2.8661 -1.8804
  731SOL     OW 6554   4.662   6.790   9.917 -0.2401 -0.2219 -0.2681
  731SOL    HW1 6555   4.580   6.742   9.929 -1.3320  1.6444  0.0914
  731SOL    HW2 6556   4.662   6.854   9.987 -0.0014  1.8570 -2.0818
  732SOL     OW 6557  10.804   5.518   1.788 -0.4909 -0.4205  0.3165
  732SOL    HW1 6558  10.741   5.557   1.728  0.4904  0.5341 -0.1522
  732SOL    HW2 6559  10.768   5.535   1.875 -1.5761 -1.1806  0.0309
  733SOL     OW 6560   6.960   8.127  10.713 -0.0925 -0.8181  0.5570
  733SOL    HW1 6561   6.955   8.080  10.795  0.1313 -0.2807  0.8865
  733SOL    HW2 6562   7.013   8.204  10.733 -0.1577 -0.6075 -0.0531
  734SOL     OW 6563   7.528   4.402   8.297 -0.3424 -0.0238  0.0687
  734SOL    HW1 6564   7.617   4.437   8.289 -0.1251 -0.4310  0.6760
  734SOL    HW2 6565   7.479   4.446   8.227  0.4948 -0.3227 -0.7266
  735SOL     OW 6566   7.561   8.178   9.243 -0.2919  0.2175 -0.1089
  735SOL    HW1 6567   7.549   8.122   9.319 -0.9495  0.1475 -0.2531
  735SOL    HW2 6568   7.605   8.122   9.179  0.2452  0.2707  0.2067
  736SOL     OW 6569   0.960   2.372   8.200  0.0454 -0.5720  0.5431
  736SOL    HW1 6570   0.908   2.295   8.221  1.3120 -1.2261  1.4298
  736SOL    HW2 6571   0.993   2.402   8.285 -1.2290  1.5742  0.3450
  737SOL     OW 6572   6.148   5.375   8.206 -0.0551 -0.1613 -0.0001
  737SOL    HW1 6573   6.135   5.294   8.255  1.2693 -0.8861 -0.7736
  737SOL    HW2 6574   6.065   5.390   8.161  0.1589 -2.0502 -1.1611
  738SOL     OW 6575  10.862   2.132   6.055  0.0890 -0.2277 -0.0752
  738SOL    HW1 6576  10.952   2.132   6.025 -0.2731 -1.5102 -1.2485
  738SOL    HW2 6577  10.820   2.202   6.005  0.6760  1.3023  1.4417
  739SOL     OW 6578  10.818   3.441  10.973  0.1576  0.3680  0.4379
  739SOL    HW1 6579  10.844   3.399  10.891  0.2968 -1.1325  1.2133
  739SOL    HW2 6580  10.844   3.533  10.963  0.9234  0.0254 -0.8666
  740SOL     OW 6581   4.541   2.784   1.853 -0.2942  0.1495  0.2659
  740SOL    HW1 6582   4.470   2.817   1.908 -1.5800 -1.7148 -0.1905
  740SOL    HW2 6583   4.588   2.723   1.909  0.7360  1.0552  0.4276
  741SOL     OW 6584   6.655   5.148  10.736 -0.1976  0.5785  0.2227
  741SOL    HW1 6585   6.692   5.100  10.811 -0.0679  0.2258 -0.0671
  741SOL    HW2 6586   6.648   5.082  10.667 -0.3658  0.8954 -0.0604
  742SOL     OW 6587   6.982   1.295   7.739 -0.0245  0.0160  0.3407
  742SOL    HW1 6588   7.053   1.358   7.742  1.2818 -1.4059  1.2601
  742SOL    HW2 6589   7.010   1.229   7.675 -0.5858 -0.4733  0.5812
  743SOL     OW 6590  10.846   7.015   3.916  0.3140 -0.1888 -0.4410
  743SOL    HW1 6591  10.829   6.921   3.918  0.2060 -0.1675 -0.3333
  743SOL    HW2 6592  10.863   7.035   3.824  2.1198 -0.6288 -0.2400
  744SOL     OW 6593   7.559   5.547   7.199  0.0474  0.5244 -0.2445
  744SOL    HW1 6594   7.473   5.507   7.194  1.2691 -2.2074 -1.5028
  744SOL    HW2 6595   7.560   5.593   7.283 -1.4382 -2.3891  1.5156
  745SOL     OW 6596   0.599  10.433   9.601  0.0851  0.1351  0.5857
  745SOL    HW1 6597   0.693  10.418   9.594 -0.1627 -2.0314  1.2825
  745SOL    HW2 6598   0.565  10.416   9.513  0.0446 -1.8463  0.9483
  746SOL     OW 6599   8.560   3.595   5.196 -0.3309  0.0759  0.0089
  746SOL    HW1 6600   8.513   3.546   5.263 -0.5685 -0.8247 -0.7977
  746SOL    HW2 6601   8.553   3.541   5.117 -1.4726  1.8402 -1.1890
  747SOL     OW 6602   5.470   7.018  10.292 -0.1547  0.2202  0.6540
  747SOL    HW1 6603   5.440   7.096  10.338 -0.7290 -0.1547  0.9154
  747SOL    HW2 6604   5.402   7.000  10.227  1.2542  1.5301 -1.3320
  748SOL     OW 6605   0.461   9.320   6.529 -0.6326  0.4711 -0.3326
  748SOL    HW1 6606   0.546   9.276   6.533 -0.5120  0.7573  0.5143
  748SOL    HW2 6607   0.418   9.283   6.452 -0.8248 -1.6729  0.7279
  749SOL     OW 6608   4.503   5.568   8.145  0.5964  0.3054  0.0746
  749SOL    HW1 6609   4.459   5.489   8.113  1.4744 -0.2560  0.2094
  749SOL    HW2 6610   4.497   5.631   8.073 -1.9843  0.9027  0.7244
  750SOL     OW 6611   1.078   2.915   1.734 -0.1811 -0.3867 -0.3656
  750SOL    HW1 6612   1.005   2.886   1.788 -0.8332  1.2756 -0.2867
  750SOL    HW2 6613   1.103   3.000   1.770  1.0525 -0.4035 -1.1038
  751SOL     OW 6614   8.224   1.093   5.771  0.0781  0.2764 -0.3104
  751SOL    HW1 6615   8.197   1.184   5.782 -0.8549  0.2168 -1.8598
  751SOL    HW2 6616   8.282   1.095   5.694 -0.1756 -0.4714 -0.5225
  752SOL     OW 6617   2.328  10.946   0.560 -0.7856 -0.0049  0.3270
  752SOL    HW1 6618   2.273  10.974   0.487  0.1872  1.3856  0.0857
  752SOL    HW2 6619   2.405  11.003   0.555  0.2817 -1.3337  1.1627
  753SOL     OW 6620   3.221   3.271  10.993 -0.0281 -0.2676 -0.0085
  753SOL    HW1 6621   3.163   3.201  10.965 -1.7899  0.5447  1.3966
  753SOL    HW2 6622   3.285   3.228  11.050  0.6807 -1.1406 -1.4148
  754SOL     OW 6623   7.851   0.146   9.797  0.2651 -0.5528  0.2896
  754SOL    HW1 6624   7.842   0.108   9.710 -2.4418  1.1504 -0.3104
  754SOL    HW2 6625   7.894   0.230   9.782 -0.5281 -0.0970  0.5213
  755SOL     OW 6626   9.736   4.019   2.954  0.1141 -0.6957  0.0694
  755SOL    HW1 6627   9.741   4.046   2.862  0.3640 -0.7521  0.0655
  755SOL    HW2 6628   9.645   4.032   2.978  0.0915 -0.4866 -0.1291
  756SOL     OW 6629   9.085   8.958   7.847  0.0207  0.0962 -0.0224
  756SOL    HW1 6630   9.088   8.899   7.772  0.6968  0.3265 -0.1875
  756SOL    HW2 6631   9.177   8.971   7.870 -0.1259  0.9990  0.0803
  757SOL     OW 6632   1.344   0.270   8.711 -0.1954  0.0598 -0.3376
  757SOL    HW1 6633   1.408   0.222   8.764 -0.8226 -1.1265 -0.6018
  757SOL    HW2 6634   1.385   0.355   8.695  0.5154  0.0220  1.0405
  758SOL     OW 6635   8.870   1.869   7.070  0.4133  0.0887  0.4650
  758SOL    HW1 6636   8.889   1.787   7.116 -0.5416 -0.6081 -0.3301
  758SOL    HW2 6637   8.956   1.904   7.047  0.8405 -1.3252 -0.2394
  759SOL     OW 6638   1.828   7.479   5.519  0.5239 -0.0826 -0.5528
  759SOL    HW1 6639   1.825   7.394   5.476  1.8112  0.0205 -0.9053
  759SOL    HW2 6640   1.750   7.525   5.488  0.2210 -0.8483 -0.9483
  760SOL     OW 6641   9.280   9.948   0.885  0.2061 -0.0449 -0.1716
  760SOL    HW1 6642   9.277   9.897   0.966 -1.7657 -0.6754 -0.5813
  760SOL    HW2 6643   9.307   9.886   0.818  0.7197  0.1927 -0.1852
  761SOL     OW 6644   7.893   3.982  10.201 -0.0862 -0.7588 -0.0711
  761SOL    HW1 6645   7.937   3.968  10.117 -0.7006 -0.5156 -0.4379
  761SOL    HW2 6646   7.896   3.897  10.244 -0.6733 -1.1408 -0.7766
  762SOL     OW 6647   0.252   5.445   4.628 -0.1811  0.7332 -0.1072
  762SOL    HW1 6648   0.330   5.405   4.665 -0.0923 -0.8092 -1.8186
  762SOL    HW2 6649   0.179   5.401   4.672 -0.1248  1.9074  1.2168
  763SOL     OW 6650   7.576   7.406   0.053 -0.3482  0.1497  0.5873
  763SOL    HW1 6651   7.482   7.402   0.037  0.0253  0.7515 -2.4482
  763SOL    HW2 6652   7.605   7.315   0.054 -0.7482  0.0011 -0.3386
  764SOL     OW 6653   3.677   5.307   2.528  0.2214  0.0789 -0.6684
  764SOL    HW1 6654   3.648   5.270   2.444  0.6850  1.0146 -1.2586
  764SOL    HW2 6655   3.623   5.263   2.594  0.8302 -1.7427 -1.3179
  765SOL     OW 6656  11.104   2.184   2.047  0.1689 -0.0218  0.1057
  765SOL    HW1 6657  11.094   2.250   2.115 -3.3731  0.0085 -0.2826
  765SOL    HW2 6658  11.116   2.234   1.966  0.4731  0.0272  0.1772
  766SOL     OW 6659   6.414   4.952  10.771  0.3123  0.1158 -0.3147
  766SOL    HW1 6660   6.497   4.909  10.749 -0.3161 -2.7307  2.2099
  766SOL    HW2 6661   6.431   4.994  10.855 -0.6815 -0.1316  0.0155
  767SOL     OW 6662   4.067   8.745  10.520  0.2391 -0.1719  0.0488
  767SOL    HW1 6663   4.032   8.657  10.510 -0.9702  0.4148 -1.0531
  767SOL    HW2 6664   4.125   8.739  10.596  0.1189 -1.8864  0.0362
  768SOL     OW 6665   1.572   3.897   2.560 -0.0605  0.0356  0.0200
  768SOL    HW1 6666   1.660   3.910   2.523 -0.1084 -1.3756 -0.6881
  768SOL    HW2 6667   1.554   3.804   2.544 -0.8983 -0.1737  1.9133
  769SOL     OW 6668   9.359  10.631   6.826 -0.0998 -0.2582 -0.0310
  769SOL    HW1 6669   9.355  10.571   6.752  2.1481 -1.1382  0.4941
  769SOL    HW2 6670   9.384  10.577   6.900 -1.6183  0.7326  1.2833
  770SOL     OW 6671   4.647  10.967   6.361  0.4190  0.0971 -0.5926
  770SOL    HW1 6672   4.606  11.045   6.397  0.5123  0.0687 -0.4228
  770SOL    HW2 6673   4.728  10.957   6.411  0.8564  0.4009 -1.2185
  771SOL     OW 6674   6.344   7.451   4.176 -0.3861  0.0449 -0.4651
  771SOL    HW1 6675   6.338   7.413   4.088  0.6732 -0.5246 -0.3115
  771SOL    HW2 6676   6.328   7.377   4.234 -0.6023  0.3230 -0.1710
  772SOL     OW 6677   4.543   1.820   7.925 -0.7380  0.0033  0.3712
  772SOL    HW1 6678   4.453   1.818   7.893 -0.0148 -1.1659 -1.7312
  772SOL    HW2 6679   4.587   1.884   7.869  0.4609 -1.7600 -0.7851
  773SOL     OW 6680   1.365   4.329   5.139  0.5562  0.7234  0.7436
  773SOL    HW1 6681   1.330   4.303   5.054 -0.0465  1.3521  0.7891
  773SOL    HW2 6682   1.305   4.397   5.170  1.3841  1.2776  1.1686
  774SOL     OW 6683  10.526   2.763   0.882  0.3185 -0.4377 -0.5245
  774SOL    HW1 6684  10.550   2.765   0.789 -0.5030  1.1318 -0.7509
  774SOL    HW2 6685  10.446   2.815   0.887  0.7618  0.1653  1.1691
  775SOL     OW 6686   4.848   9.588   3.430  0.7083  0.5532  0.2058
  775SOL    HW1 6687   4.902   9.619   3.358  2.5382 -1.2114  0.7260
  775SOL    HW2 6688   4.883   9.633   3.507 -0.2830  1.3389  0.2119
  776SOL     OW 6689   3.378   6.143   3.301 -0.0832 -0.3464  0.0743
  776SOL    HW1 6690   3.453   6.121   3.356  0.4555 -0.0728 -0.5259
  776SOL    HW2 6691   3.371   6.070   3.240 -1.2574 -1.0987  1.0669
  777SOL     OW 6692   3.596   6.247   6.208 -0.5145 -0.3139 -0.1960
  777SOL    HW1 6693   3.564   6.264   6.297 -1.2463 -1.0091 -0.3060
  777SOL    HW2 6694   3.584   6.152   6.197 -1.5731 -0.0504 -1.4692
  778SOL     OW 6695   0.553   1.850   9.932  0.0266 -0.8266 -0.1677
  778SOL    HW1 6696   0.491   1.828  10.002  1.6749 -1.9054  1.0313
  778SOL    HW2 6697   0.498   1.882   9.861 -1.8734 -1.4024  0.9598
  779SOL     OW 6698   5.293   4.503   1.678 -0.5085 -0.1906  0.4741
  779SOL    HW1 6699   5.213   4.556   1.688  0.3728  1.0006  1.5828
  779SOL    HW2 6700   5.280   4.429   1.737 -0.3289  0.6170  1.5640
  780SOL     OW 6701  10.677   8.991   0.698  0.9418 -0.1496  0.0291
  780SOL    HW1 6702  10.608   9.016   0.759 -1.7205 -0.1135 -2.7539
  780SOL    HW2 6703  10.652   8.903   0.669  2.7775 -0.6321 -0.1939
  781SOL     OW 6704   9.661   7.557  10.677  0.9480 -0.4207 -0.0426
  781SOL    HW1 6705   9.621   7.639  10.648  2.2424 -0.8022 -3.3613
  781SOL    HW2 6706   9.755   7.575  10.675  1.2248 -1.8133 -0.2482
  782SOL     OW 6707   7.320   1.667   0.936  0.1152  0.9352  0.4504
  782SOL    HW1 6708   7.243   1.623   0.902  1.6950 -1.7664  0.0473
  782SOL    HW2 6709   7.326   1.638   1.027  0.7159  1.0057  0.4368
  783SOL     OW 6710   5.740   0.825   1.116 -0.1914  0.4613 -0.3272
  783SOL    HW1 6711   5.699   0.910   1.101  0.4840  0.7596 -0.5044
  783SOL    HW2 6712   5.760   0.792   1.028 -2.2537 -0.7977 -0.3879
  784SOL     OW 6713   9.105   4.280   9.398 -0.1255 -0.3483 -0.4434
  784SOL    HW1 6714   9.136   4.206   9.345  0.5511 -0.1645 -0.3152
  784SOL    HW2 6715   9.023   4.306   9.357  1.3536  1.1164 -2.6918
  785SOL     OW 6716   6.546   8.297   6.552 -0.0683  0.6666  0.7558
  785SOL    HW1 6717   6.501   8.221   6.589 -2.6032  1.2966 -0.8500
  785SOL    HW2 6718   6.507   8.372   6.596  1.6581  1.1826  1.5371
  786SOL     OW 6719   3.935   3.091   6.059 -1.2453  0.1894  0.4189
  786SOL    HW1 6720   3.925   3.187   6.061  0.5198  0.4400 -0.6579
  786SOL    HW2 6721   3.917   3.064   6.149 -2.2910  1.4512  0.6348
  787SOL     OW 6722   2.161   5.279   6.095  0.4570 -0.1730  0.0088
  787SOL    HW1 6723   2.193   5.191   6.112  0.5935  0.0639  1.0135
  787SOL    HW2 6724   2.094   5.267   6.028 -1.1995 -1.3550  1.7545
  788SOL     OW 6725  10.497  11.092   9.179 -0.0859  0.6850  0.0845
  788SOL    HW1 6726  10.588  11.111   9.158 -0.3946  1.3050 -0.7654
  788SOL    HW2 6727  10.489  11.110   9.272 -0.1301  4.0266 -0.4675
  789SOL     OW 6728   8.768   7.243   1.130 -0.4657  0.3979 -0.8993
  789SOL    HW1 6729   8.752   7.337   1.138 -2.7835  0.1197 -1.5813
  789SOL    HW2 6730   8.839   7.226   1.192 -0.2488  2.5152 -0.4835
  790SOL     OW 6731   7.114   3.196   1.437 -0.2803  0.3634 -0.2070
  790SOL    HW1 6732   7.052   3.175   1.507 -0.2174 -0.0059 -0.2584
  790SOL    HW2 6733   7.199   3.203   1.481 -0.4177  1.3111 -0.0671
  791SOL     OW 6734   0.176   2.473   4.168 -0.0171  0.1016  0.5553
  791SOL    HW1 6735   0.189   2.482   4.263  0.9820 -1.0044  0.5487
  791SOL    HW2 6736   0.260   2.496   4.130  0.6080 -2.4835  0.1673
  792SOL     OW 6737   0.086   5.674   6.081  0.4041 -0.2287  0.2184
  792SOL    HW1 6738   0.022   5.692   6.012  1.3390  1.1191 -0.3340
  792SOL    HW2 6739   0.074   5.744   6.145 -0.2362 -1.2900  1.3114
  793SOL     OW 6740   9.698  10.677   8.688  0.2437 -0.3045 -0.0864
  793SOL    HW1 6741   9.793  10.671   8.681  0.4431  1.4808  0.5013
  793SOL    HW2 6742   9.682  10.696   8.781 -0.7970 -1.7434  0.0710
  794SOL     OW 6743   7.768   7.862   7.480 -0.0609 -0.5231  0.2278
  794SOL    HW1 6744   7.761   7.862   7.384 -0.1419  3.1055  0.0950
  794SOL    HW2 6745   7.862   7.863   7.496 -0.0444 -0.0400  0.1233
  795SOL     OW 6746   3.591   2.765   3.544  0.2327 -0.4833  0.2719
  795SOL    HW1 6747   3.522   2.705   3.570 -1.3365  0.9990 -0.2337
  795SOL    HW2 6748   3.575   2.844   3.596  1.0400  0.1732 -0.4448
  796SOL     OW 6749   5.896   7.175   2.540  0.3468 -0.9388 -0.4466
  796SOL    HW1 6750   5.965   7.162   2.605  0.3209  0.3239 -0.1512
  796SOL    HW2 6751   5.816   7.146   2.583 -0.1497  2.4126  1.1928
  797SOL     OW 6752   9.224   1.742   1.622 -0.2631 -0.6021  0.1605
  797SOL    HW1 6753   9.199   1.816   1.567  0.0917 -0.4435  0.2050
  797SOL    HW2 6754   9.194   1.765   1.710 -1.8867 -1.3828 -0.1649
  798SOL     OW 6755   7.985   6.070   8.393  0.0973  0.2989  0.5486
  798SOL    HW1 6756   8.023   6.039   8.310  0.4781 -1.0840  1.2059
  798SOL    HW2 6757   7.950   5.991   8.434 -0.1424  0.9745  1.6927
  799SOL     OW 6758   5.075  10.121   4.801 -0.3793 -0.5662 -0.1248
  799SOL    HW1 6759   5.124  10.170   4.735 -0.3678 -1.3050 -0.6789
  799SOL    HW2 6760   5.109  10.153   4.885 -0.7779  0.7791 -0.4408
  800SOL     OW 6761   7.411   8.051   6.132 -0.3893 -0.2562  0.4167
  800SOL    HW1 6762   7.428   7.965   6.171  2.4758  1.0287  2.2867
  800SOL    HW2 6763   7.334   8.084   6.177 -0.6316 -1.2363  0.7354
  801SOL     OW 6764   3.763   5.168   9.752 -0.4441 -0.3913 -0.4722
  801SOL    HW1 6765   3.703   5.130   9.817  0.9336 -1.1877  0.3753
  801SOL    HW2 6766   3.767   5.261   9.775 -2.0703 -0.1226 -1.1409
  802SOL     OW 6767   6.547   8.417   9.517 -0.1531 -0.7958  0.4595
  802SOL    HW1 6768   6.589   8.386   9.437 -0.5206 -2.1666  0.7767
  802SOL    HW2 6769   6.603   8.489   9.547 -0.7767  0.7223 -1.7556
  803SOL     OW 6770   5.058   9.206   6.694  0.1236 -0.4728  0.1828
  803SOL    HW1 6771   5.151   9.183   6.703  0.7868  1.2526 -1.4925
  803SOL    HW2 6772   5.038   9.188   6.602 -0.6143  1.0427  0.0113
  804SOL     OW 6773   6.875   9.274  10.927 -0.1196  0.3727  0.5482
  804SOL    HW1 6774   6.899   9.206  10.989 -0.7787  0.6729  1.1409
  804SOL    HW2 6775   6.839   9.345  10.980  0.7357  1.2859 -0.0364
  805SOL     OW 6776   5.946   0.547   6.182 -0.1137  0.2686  0.7485
  805SOL    HW1 6777   5.892   0.626   6.186 -0.8009 -0.1836  0.6057
  805SOL    HW2 6778   6.036   0.579   6.184 -0.3505  1.1572 -0.7894
  806SOL     OW 6779   0.406   6.834   4.012  0.3652 -0.2706 -0.0445
  806SOL    HW1 6780   0.429   6.926   3.996  0.2924 -0.1532  0.4973
  806SOL    HW2 6781   0.394   6.797   3.924  2.2519 -0.2636 -0.3485
  807SOL     OW 6782   9.874  10.047   0.115 -0.1322 -0.3659 -0.3442
  807SOL    HW1 6783   9.867  10.002   0.031  2.6567 -0.4937 -0.6332
  807SOL    HW2 6784   9.880  10.139   0.092 -1.0172 -0.2448 -0.1268
  808SOL     OW 6785  10.712   8.613   5.692 -0.2614  0.3088 -0.1622
  808SOL    HW1 6786  10.642   8.556   5.660  0.0374  0.1505 -0.5378
  808SOL    HW2 6787  10.713   8.598   5.787 -0.3532 -0.1244 -0.2268
  809SOL     OW 6788   7.000   6.435   5.350  0.2619 -0.1567 -0.2510
  809SOL    HW1 6789   6.929   6.477   5.399 -0.7803  0.9965 -2.5800
  809SOL    HW2 6790   7.004   6.346   5.386  0.3548  0.9129  2.6329
  810SOL     OW 6791   7.756   9.145   1.399  0.2219 -0.2518 -0.0474
  810SOL    HW1 6792   7.733   9.237   1.388 -1.2931 -0.6602 -0.6568
  810SOL    HW2 6793   7.845   9.145   1.432  1.1753  1.3958 -2.4125
  811SOL     OW 6794   7.222   5.829   9.668  0.0269 -0.0392  0.2256
  811SOL    HW1 6795   7.298   5.879   9.639 -1.1417  1.8164  0.1967
  811SOL    HW2 6796   7.240   5.811   9.761  0.7965 -0.2011  0.0511
  812SOL     OW 6797  10.836   1.199   9.974 -0.1790 -0.1924  0.0995
  812SOL    HW1 6798  10.747   1.171   9.951  0.6728 -1.0403 -2.5199
  812SOL    HW2 6799  10.893   1.136   9.930  1.7582  0.3431  1.7012
  813SOL     OW 6800   1.868   8.619   7.819 -0.4332  0.4399  0.3253
  813SOL    HW1 6801   1.962   8.612   7.838 -0.0470 -0.2672 -1.6277
  813SOL    HW2 6802   1.826   8.561   7.883  0.7024 -1.2768 -0.4257
  814SOL     OW 6803   1.341  10.268   8.094 -0.2540  0.2416 -0.4534
  814SOL    HW1 6804   1.436  10.279   8.101 -0.3516  1.4472 -0.7977
  814SOL    HW2 6805   1.330  10.190   8.039  0.4877 -2.3092  2.6703
  815SOL     OW 6806   9.208   1.754  10.163  0.6200  0.0846 -0.5410
  815SOL    HW1 6807   9.267   1.679  10.157  1.3613  0.3223  2.2991
  815SOL    HW2 6808   9.129   1.720  10.205  0.2094  0.5502 -0.9105
  816SOL     OW 6809   8.351   3.424   5.979  0.2187  0.2647  0.2407
  816SOL    HW1 6810   8.411   3.370   6.031  0.3680  0.3996  0.2065
  816SOL    HW2 6811   8.360   3.391   5.890  0.3875  0.4178  0.2021
  817SOL     OW 6812   8.441   6.465   2.502  0.1679  0.0295  0.4921
  817SOL    HW1 6813   8.359   6.490   2.460 -0.9058 -2.3660  0.9957
  817SOL    HW2 6814   8.463   6.380   2.463  1.9326  0.1948  1.0311
  818SOL     OW 6815   0.636  10.222   0.081 -0.5170 -0.0122 -0.0545
  818SOL    HW1 6816   0.594  10.192   0.161  2.0722 -0.5252  1.2021
  818SOL    HW2 6817   0.564  10.232   0.019 -2.3931 -1.3250  1.7777
  819SOL     OW 6818   6.821   8.962   2.641 -0.1833 -0.2546 -0.2966
  819SOL    HW1 6819   6.796   8.871   2.627 -0.3677 -0.0334 -1.4634
  819SOL    HW2 6820   6.917   8.961   2.642 -0.1608 -0.2917 -1.5804
  820SOL     OW 6821   5.771   7.910   7.524  0.0422 -0.5656  0.0036
  820SOL    HW1 6822   5.811   7.838   7.476 -0.2496 -0.6048 -0.1815
  820SOL    HW2 6823   5.795   7.988   7.473  0.5621 -0.5005  0.3357
  821SOL     OW 6824   2.266   1.858   3.087 -0.0718  0.6389 -0.3725
  821SOL    HW1 6825   2.230   1.906   3.162  0.8737  0.1783  0.4103
  821SOL    HW2 6826   2.323   1.921   3.043  0.0132  0.6720 -0.2165
  822SOL     OW 6827   5.130   3.494   4.717 -0.2760  0.4576 -0.1389
  822SOL    HW1 6828   5.138   3.580   4.675  1.1524  0.6375  0.4539
  822SOL    HW2 6829   5.175   3.504   4.801  0.6905 -1.1029 -0.4273
  823SOL     OW 6830   1.183   9.063   3.712 -0.3220  0.2821 -0.7805
  823SOL    HW1 6831   1.120   9.045   3.642 -0.0784 -1.0706 -0.6782
  823SOL    HW2 6832   1.263   9.019   3.684  0.1728  0.8284 -0.2556
  824SOL     OW 6833   9.520   4.427   8.857  0.8828 -0.4178  0.4631
  824SOL    HW1 6834   9.601   4.438   8.907  0.5402  1.8124  0.6248
  824SOL    HW2 6835   9.466   4.501   8.882 -1.5772 -2.2477  0.9450
  825SOL     OW 6836   7.476   8.303   2.105  0.3213 -0.3273 -0.4584
  825SOL    HW1 6837   7.384   8.301   2.129 -0.3634  0.5622 -2.8099
  825SOL    HW2 6838   7.499   8.396   2.106  1.1039 -0.5079 -0.3252
  826SOL     OW 6839   9.008   8.603   9.617 -0.3287  0.9969  0.5183
  826SOL    HW1 6840   8.946   8.674   9.632 -0.9640  0.4723  0.3985
  826SOL    HW2 6841   9.056   8.630   9.538 -1.1351  0.9050 -0.0071
  827SOL     OW 6842   7.594   7.678   0.059 -0.3025  0.0393  0.4877
  827SOL    HW1 6843   7.531   7.606   0.065 -0.8730  0.5185  0.3013
  827SOL    HW2 6844   7.604   7.709   0.148 -1.5121  0.9581  0.3311
  828SOL     OW 6845   1.320   3.701   1.969 -0.1197 -0.1310 -0.0903
  828SOL    HW1 6846   1.407   3.697   2.009  0.7739 -2.7326 -1.9638
  828SOL    HW2 6847   1.279   3.778   2.008  2.5444  0.4956  1.7901
  829SOL     OW 6848   5.747   0.482   4.122 -0.0625  0.1515 -0.2766
  829SOL    HW1 6849   5.678   0.415   4.127 -0.7887  0.8974 -0.1432
  829SOL    HW2 6850   5.700   0.565   4.115  0.8276  0.6951  0.0231
  830SOL     OW 6851   6.652   3.630   7.440 -0.2937 -0.1182  0.6592
  830SOL    HW1 6852   6.571   3.614   7.391 -1.9848  3.6063  1.8453
  830SOL    HW2 6853   6.722   3.600   7.382 -2.3899 -0.8871 -1.6317
  831SOL     OW 6854   3.645   3.049   2.985 -0.3536 -0.1628 -0.2988
  831SOL    HW1 6855   3.692   3.077   2.907  0.2120  0.0757  0.1188
  831SOL    HW2 6856   3.588   3.124   3.007 -1.7347 -0.8462 -1.4027
  832SOL     OW 6857   1.344   8.811  10.757 -0.8098  0.3108  0.4216
  832SOL    HW1 6858   1.325   8.717  10.761 -0.8564  0.1677 -1.8129
  832SOL    HW2 6859   1.431   8.816  10.717 -1.1710  1.2244 -0.2900
  833SOL     OW 6860   1.640   0.233   8.501 -0.2878 -0.2560  0.3569
  833SOL    HW1 6861   1.664   0.178   8.427  0.8616 -0.6087  0.9638
  833SOL    HW2 6862   1.717   0.289   8.515 -1.1495  0.9972  0.2123
  834SOL     OW 6863   1.926   4.637   6.377  0.4020  0.1468  0.0370
  834SOL    HW1 6864   2.002   4.676   6.420  0.1929 -0.3474  0.8873
  834SOL    HW2 6865   1.884   4.585   6.446 -1.1152  0.9825 -0.2197
  835SOL     OW 6866  10.696   5.967   5.365  0.1034  0.0551  0.4815
  835SOL    HW1 6867  10.782   5.962   5.407 -0.4830  0.3406  1.7957
  835SOL    HW2 6868  10.646   6.027   5.421 -0.6769  0.5946 -0.7669
  836SOL     OW 6869   4.592   1.549   7.874 -0.2990  0.2842  0.4990
  836SOL    HW1 6870   4.596   1.645   7.876 -0.1023  0.3373 -0.8969
  836SOL    HW2 6871   4.684   1.522   7.866 -0.4063  0.0296  0.0739
  837SOL     OW 6872  10.430   9.207   1.957 -0.0213  0.1269 -0.0460
  837SOL    HW1 6873  10.434   9.303   1.963  2.3674  0.0536  0.7662
  837SOL    HW2 6874  10.517   9.178   1.983 -0.6346 -2.2918 -0.4300
  838SOL     OW 6875   1.767   5.645   6.945  0.1524  0.5870  0.0114
  838SOL    HW1 6876   1.686   5.696   6.956 -0.1262 -0.0458  1.1877
  838SOL    HW2 6877   1.738   5.564   6.903  0.3856  0.8470 -0.6688
  839SOL     OW 6878   6.360  10.839   4.164 -0.3150 -0.7529  0.1992
  839SOL    HW1 6879   6.357  10.863   4.071 -0.4923 -0.1410  0.3551
  839SOL    HW2 6880   6.281  10.786   4.177 -1.4760  0.9390  0.4553
  840SOL     OW 6881   4.467   2.048   3.245 -0.1347  0.6408 -0.1033
  840SOL    HW1 6882   4.424   2.129   3.272  1.5097  1.0530  1.4394
  840SOL    HW2 6883   4.486   2.003   3.327 -0.3734 -0.9912 -0.9059
  841SOL     OW 6884   3.247   4.822   3.428 -0.0723  0.1270  0.3317
  841SOL    HW1 6885   3.236   4.916   3.422 -1.0360  0.0577  0.7393
  841SOL    HW2 6886   3.173   4.793   3.483  1.1507 -0.6520  1.6448
  842SOL     OW 6887   4.457   1.742   1.726  0.4991  0.2360 -0.2464
  842SOL    HW1 6888   4.493   1.681   1.662  1.6517  1.8181 -1.1893
  842SOL    HW2 6889   4.508   1.728   1.806  1.5667  0.7345 -0.8150
  843SOL     OW 6890   4.973   5.955   9.826 -0.1508 -0.2028  0.1574
  843SOL    HW1 6891   4.953   5.950   9.920  0.5519 -0.7265  0.2890
  843SOL    HW2 6892   5.047   5.896   9.815 -0.9472 -1.0399 -0.9303
  844SOL     OW 6893   6.424   4.838  10.334 -0.3406  0.3748  0.6786
  844SOL    HW1 6894   6.384   4.772  10.276 -1.0737 -0.1847  1.7749
  844SOL    HW2 6895   6.515   4.843  10.305 -0.7138  0.2075 -0.5981
  845SOL     OW 6896   6.827   5.298   0.818  0.1952  0.1007  0.3096
  845SOL    HW1 6897   6.795   5.348   0.893 -0.5774  0.8552 -0.5157
  845SOL    HW2 6898   6.783   5.214   0.825 -0.1654  0.3014  0.4980
  846SOL     OW 6899   2.225   6.541  11.095 -0.2032  0.5224  0.1303
  846SOL    HW1 6900   2.293   6.484  11.059 -0.6089  0.0775  0.0575
  846SOL    HW2 6901   2.273   6.611  11.139  0.3364 -0.5579  1.3354
  847SOL     OW 6902   9.329  10.835   5.251 -0.0257 -0.3584 -0.6792
  847SOL    HW1 6903   9.328  10.889   5.330 -0.8358 -2.5508  0.9015
  847SOL    HW2 6904   9.387  10.882   5.191  0.6741  1.3613  1.2199
  848SOL     OW 6905   9.394   7.612   8.661  0.3967  0.0089  0.3296
  848SOL    HW1 6906   9.368   7.701   8.635  0.7693  0.2262  0.6952
  848SOL    HW2 6907   9.485   7.604   8.632 -0.8547 -1.8560 -3.8088
  849SOL     OW 6908   2.070  10.203   1.805  0.1528  0.3062 -0.0895
  849SOL    HW1 6909   1.975  10.190   1.805  0.0284  1.1433  0.6708
  849SOL    HW2 6910   2.097  10.182   1.715 -0.6196 -0.8122 -0.0860
  850SOL     OW 6911   1.295   2.355   1.347 -0.3976  0.5389  0.6087
  850SOL    HW1 6912   1.366   2.308   1.391 -1.9750  0.3955  3.1952
  850SOL    HW2 6913   1.297   2.443   1.386 -0.5991  1.0624 -0.5317
  851SOL     OW 6914   2.122   0.904   2.862 -0.3834  0.2622  0.7966
  851SOL    HW1 6915   2.093   0.872   2.948 -1.7166  0.5169  0.4531
  851SOL    HW2 6916   2.172   0.983   2.882 -1.6449  0.9576  1.2803
  852SOL     OW 6917   9.297   1.862   2.653  0.0689  0.5509 -0.1425
  852SOL    HW1 6918   9.310   1.939   2.597 -0.1527  0.3013 -0.5427
  852SOL    HW2 6919   9.385   1.838   2.683  0.2102  0.5765 -0.5338
  853SOL     OW 6920   3.909   3.635   9.471 -0.1671 -0.3598  0.3366
  853SOL    HW1 6921   3.874   3.691   9.402  0.4534 -0.5171 -0.1133
  853SOL    HW2 6922   4.003   3.637   9.458  0.1038  0.7754  2.0788
  854SOL     OW 6923  10.441   2.985   6.967  0.1306  0.2348 -0.0244
  854SOL    HW1 6924  10.529   3.021   6.976 -1.0036  3.6975 -1.2818
  854SOL    HW2 6925  10.422   2.947   7.053  2.5002  0.1198  0.5194
  855SOL     OW 6926   9.374   4.392   3.695  0.3803 -0.1542  0.0381
  855SOL    HW1 6927   9.345   4.467   3.643 -0.8744 -2.5873 -3.0664
  855SOL    HW2 6928   9.295   4.339   3.708  1.1337 -0.8162  2.5630
  856SOL     OW 6929   7.244   4.208   7.770 -0.3538 -0.0049 -0.0632
  856SOL    HW1 6930   7.285   4.278   7.821  0.1558 -0.2953 -0.0658
  856SOL    HW2 6931   7.295   4.130   7.791 -2.4556 -0.9410  1.8978
  857SOL     OW 6932  10.358   1.745   9.062  0.1303 -0.2677 -0.0018
  857SOL    HW1 6933  10.287   1.736   8.999  0.7004 -0.0449 -0.6944
  857SOL    HW2 6934  10.319   1.794   9.135 -0.0982  0.9874 -0.9331
  858SOL     OW 6935   7.653   3.265   9.397 -0.3285  0.5351 -0.0762
  858SOL    HW1 6936   7.603   3.343   9.420  1.9926  1.9930  0.3087
  858SOL    HW2 6937   7.689   3.284   9.310  0.4964  0.0345  0.1415
  859SOL     OW 6938   4.941   9.817   0.127 -0.1070 -0.5181  0.9852
  859SOL    HW1 6939   4.941   9.910   0.103  1.4318 -1.0285 -1.2777
  859SOL    HW2 6940   4.964   9.817   0.220  1.1076  1.3268  0.7406
  860SOL     OW 6941   7.301   3.303  10.919 -0.1616 -0.1765  0.1008
  860SOL    HW1 6942   7.297   3.214  10.884 -0.5513 -0.4742  0.9019
  860SOL    HW2 6943   7.239   3.353  10.865  0.0669 -0.3813 -0.3571
  861SOL     OW 6944   3.379   1.714   3.108  0.0505  0.0746 -0.2992
  861SOL    HW1 6945   3.401   1.776   3.177  2.3945 -0.9748 -0.0154
  861SOL    HW2 6946   3.373   1.768   3.028 -1.5878  1.1212  0.4645
  862SOL     OW 6947   7.180   3.041   2.293 -0.5275 -0.1207 -0.3101
  862SOL    HW1 6948   7.127   3.082   2.360 -1.2874 -2.9891  1.0190
  862SOL    HW2 6949   7.256   3.005   2.340 -0.6182 -1.4099 -1.0914
  863SOL     OW 6950   6.192   3.703   5.432  0.6657  0.3611 -0.2414
  863SOL    HW1 6951   6.174   3.624   5.382 -0.3818  1.1180 -1.1038
  863SOL    HW2 6952   6.279   3.731   5.401  2.3451 -1.8848  2.0565
  864SOL     OW 6953   8.806   0.735  10.479 -0.5772  0.0792 -0.1090
  864SOL    HW1 6954   8.893   0.707  10.508 -0.7982  0.8514  1.3997
  864SOL    HW2 6955   8.819   0.824  10.448 -0.7597  0.0566 -0.2483
  865SOL     OW 6956  10.735   5.925   0.857 -0.2695 -0.4381 -0.1290
  865SOL    HW1 6957  10.805   5.964   0.908  2.4089 -2.9838 -1.5128
  865SOL    HW2 6958  10.699   5.997   0.806 -1.0959  1.6020  3.0297
  866SOL     OW 6959   9.797   5.881   2.558 -0.1681  0.3752 -0.5234
  866SOL    HW1 6960   9.859   5.950   2.584  0.5287 -0.3170 -0.3129
  866SOL    HW2 6961   9.801   5.818   2.630 -1.1682  0.3423 -0.4857
  867SOL     OW 6962   6.006   9.722   1.945 -0.2264 -0.3068  0.4767
  867SOL    HW1 6963   5.993   9.814   1.968  2.8820  0.0053  1.3517
  867SOL    HW2 6964   6.021   9.722   1.851 -0.7858 -0.0069  0.3839
  868SOL     OW 6965   2.996   7.471   0.615 -0.0524  0.0459  0.8387
  868SOL    HW1 6966   3.018   7.562   0.598  2.0524 -0.3881  0.9390
  868SOL    HW2 6967   2.923   7.452   0.556 -0.6169  1.7974  0.9187
  869SOL     OW 6968  11.079   9.299   3.609  0.0092  0.0792 -0.0239
  869SOL    HW1 6969  11.144   9.314   3.540  0.2163  0.6539  0.2858
  869SOL    HW2 6970  11.067   9.204   3.611  0.6462 -0.0098 -0.2651
  870SOL     OW 6971   0.574   9.113   6.097  0.6858 -0.2767  0.1037
  870SOL    HW1 6972   0.492   9.162   6.092  0.6675 -0.4093 -1.4942
  870SOL    HW2 6973   0.551   9.029   6.136  0.2230  0.0202  0.4643
  871SOL     OW 6974  10.293   2.966  10.139  0.3530  0.3471  0.6776
  871SOL    HW1 6975  10.275   2.955  10.046  1.2981  0.3963  0.4719
  871SOL    HW2 6976  10.251   2.892  10.182  3.3257 -2.0844 -0.2457
  872SOL     OW 6977   4.909   0.157   6.639  0.1978  0.1884  0.5478
  872SOL    HW1 6978   4.857   0.106   6.701 -0.1230  1.3429  1.2621
  872SOL    HW2 6979   4.880   0.126   6.553  0.1286 -0.9232  0.9535
  873SOL     OW 6980   2.266   5.654   6.930  0.5280 -0.1128  0.2327
  873SOL    HW1 6981   2.304   5.583   6.981 -1.3175  0.2060  2.2256
  873SOL    HW2 6982   2.201   5.611   6.875 -0.6383 -0.0375  1.4896
  874SOL     OW 6983   1.267   6.258   4.294  0.2768  0.0054  0.0113
  874SOL    HW1 6984   1.252   6.206   4.373 -1.4402 -1.1225 -0.9716
  874SOL    HW2 6985   1.358   6.240   4.270 -0.0276 -1.9915  0.1513
  875SOL     OW 6986   7.838   8.040   4.883  0.0455  0.1877 -0.1991
  875SOL    HW1 6987   7.753   8.015   4.921  0.3194 -0.7051 -0.1435
  875SOL    HW2 6988   7.842   7.991   4.801  0.7629 -0.2500  0.0900
  876SOL     OW 6989   9.227   7.313   1.400  0.0788  0.0370  0.1955
  876SOL    HW1 6990   9.275   7.321   1.318  1.2108 -0.3597  0.7933
  876SOL    HW2 6991   9.227   7.401   1.437  3.2951 -0.4793  1.7502
  877SOL     OW 6992   2.125   5.237   1.368 -0.1860  0.0084 -0.0164
  877SOL    HW1 6993   2.075   5.174   1.420  0.8059 -0.4797  0.3597
  877SOL    HW2 6994   2.064   5.309   1.353 -0.6173 -0.0153  1.4792
  878SOL     OW 6995   8.878   5.901   5.768 -0.3759  0.3967 -0.6538
  878SOL    HW1 6996   8.784   5.916   5.760 -0.7553 -1.3650 -0.0648
  878SOL    HW2 6997   8.888   5.854   5.851  0.9800  0.3015 -0.8472
  879SOL     OW 6998   3.525   3.266   3.095  0.6566 -0.3135 -0.3635
  879SOL    HW1 6999   3.456   3.199   3.091  0.1248  0.2753 -1.7967
  879SOL    HW2 7000   3.495   3.329   3.160  1.4432 -1.7159  1.4553
  880SOL     OW 7001   7.160   4.263   5.783 -0.2976 -0.0520 -0.1052
  880SOL    HW1 7002   7.069   4.239   5.798 -0.1200 -0.4080  0.4073
  880SOL    HW2 7003   7.161   4.359   5.792 -0.2044 -0.2245  2.2094
  881SOL     OW 7004   2.659   6.026   9.080  0.1106  0.2709 -0.1452
  881SOL    HW1 7005   2.573   5.985   9.089  0.0030  0.5460  0.0966
  881SOL    HW2 7006   2.707   5.998   9.159  0.2232  0.1652 -0.2506
  882SOL     OW 7007   8.667   2.262  10.868  0.8645 -0.0726  0.4917
  882SOL    HW1 7008   8.622   2.188  10.827  1.4965 -0.3851  0.3409
  882SOL    HW2 7009   8.760   2.237  10.866  0.9975  0.3426  1.2276
  883SOL     OW 7010  10.429   9.743   2.582  0.3762  0.1748 -0.6001
  883SOL    HW1 7011  10.418   9.675   2.515  0.1609 -0.5052  0.1083
  883SOL    HW2 7012  10.520   9.734   2.611 -0.6210 -2.5336  2.2849
  884SOL     OW 7013   2.463   4.052  10.461  0.0179 -0.2942  0.2419
  884SOL    HW1 7014   2.426   3.986  10.519  1.5747 -2.1233 -0.7210
  884SOL    HW2 7015   2.400   4.058  10.389  0.2381 -1.3722 -0.0612
  885SOL     OW 7016   9.227   0.830   1.686 -0.1594 -0.3389  0.2174
  885SOL    HW1 7017   9.206   0.794   1.600  0.0100  0.1272 -0.0187
  885SOL    HW2 7018   9.263   0.756   1.735 -0.1445 -0.5755 -0.1492
  886SOL     OW 7019   1.985   0.642   0.255 -0.1126  0.4242 -0.0820
  886SOL    HW1 7020   1.967   0.548   0.266  0.1930  0.3245 -0.3990
  886SOL    HW2 7021   2.024   0.669   0.338  1.2815 -0.0975 -0.5389
  887SOL     OW 7022   5.587   4.718   0.804 -0.2761  0.4644  0.2544
  887SOL    HW1 7023   5.512   4.666   0.778  0.5015 -0.2942 -0.5291
  887SOL    HW2 7024   5.663   4.662   0.787  0.5771  1.7495 -0.4060
  888SOL     OW 7025   8.010   2.437   6.988 -0.3741 -0.1840  0.3754
  888SOL    HW1 7026   7.926   2.396   7.009 -0.1094 -0.4536  0.9458
  888SOL    HW2 7027   7.987   2.519   6.945 -0.9412  0.0339  1.0766
  889SOL     OW 7028   8.108  10.747   8.756 -0.1975  0.0634  0.2564
  889SOL    HW1 7029   8.114  10.771   8.663  1.7698 -3.6190 -0.7799
  889SOL    HW2 7030   8.024  10.782   8.784 -0.2257  2.5684 -2.4808
  890SOL     OW 7031   0.802  10.844   9.681  0.0887  0.0198  0.2650
  890SOL    HW1 7032   0.800  10.923   9.735 -0.2850 -0.8784  1.6015
  890SOL    HW2 7033   0.733  10.788   9.718 -2.1478  0.4456 -2.8234
  891SOL     OW 7034   7.046   5.009   8.315 -0.0383 -0.1068 -0.0833
  891SOL    HW1 7035   7.084   4.927   8.346  0.2995  1.1766  3.3560
  891SOL    HW2 7036   6.954   4.990   8.301  0.5429 -1.6911 -2.1665
  892SOL     OW 7037   1.929   7.862   8.807 -0.1850 -0.5487 -1.0328
  892SOL    HW1 7038   2.000   7.880   8.869  0.3520  0.1657 -1.8229
  892SOL    HW2 7039   1.862   7.926   8.828  0.4256  0.3812 -1.8263
  893SOL     OW 7040   1.055   5.876   3.223  0.5458 -0.0639  0.8536
  893SOL    HW1 7041   0.996   5.806   3.194  0.6768  1.3249 -3.3562
  893SOL    HW2 7042   1.141   5.834   3.227  0.5462 -0.3508 -1.1689
  894SOL     OW 7043   3.993   3.389  10.123  0.3490  0.2316 -0.0058
  894SOL    HW1 7044   3.945   3.331  10.064  0.1264  0.9827 -0.5815
  894SOL    HW2 7045   4.069   3.338  10.151 -0.3714 -0.7123  0.3278
  895SOL     OW 7046   9.900   6.611   2.120 -0.2917  0.7041  0.2134
  895SOL    HW1 7047   9.873   6.675   2.055 -0.7188  0.4237  0.1104
  895SOL    HW2 7048   9.939   6.540   2.070 -2.3130 -0.3833  0.0755
  896SOL     OW 7049   7.717   2.469   1.856  1.3186 -0.1122  0.8707
  896SOL    HW1 7050   7.683   2.513   1.933 -0.9098  2.9004 -1.5828
  896SOL    HW2 7051   7.665   2.389   1.849  0.2805  0.4774  1.5651
  897SOL     OW 7052  10.550   9.743   3.595 -0.0381  0.3226  0.1393
  897SOL    HW1 7053  10.582   9.816   3.648  0.6582  1.7423 -2.0458
  897SOL    HW2 7054  10.547   9.779   3.506  1.1413 -2.5453 -1.1860
  898SOL     OW 7055   0.097   5.843  10.973  0.6850  0.1884 -0.2053
  898SOL    HW1 7056   0.099   5.751  11.000  1.3443  0.3156  0.1964
  898SOL    HW2 7057   0.005   5.868  10.981  0.3679 -0.6443 -1.0533
  899SOL     OW 7058  10.162   6.437   8.938  0.2159  0.3019 -0.7491
  899SOL    HW1 7059  10.213   6.384   8.876  1.4499  1.1529 -0.4823
  899SOL    HW2 7060  10.187   6.527   8.920 -0.8313  0.7147 -0.2558
  900SOL     OW 7061   8.810   5.216   5.969 -0.0446 -0.4508 -0.6675
  900SOL    HW1 7062   8.802   5.123   5.990  0.7570 -0.3968 -0.0836
  900SOL    HW2 7063   8.720   5.248   5.969 -0.2713 -1.0502 -0.0435
  901SOL     OW 7064   6.244   8.658   8.035  0.4712 -0.0229 -0.6187
  901SOL    HW1 7065   6.244   8.677   7.942  0.9342  0.1911 -0.5782
  901SOL    HW2 7066   6.305   8.585   8.045  1.0852  0.5109 -0.3807
  902SOL     OW 7067   6.090   7.406  10.202  0.5343 -0.0090 -0.5246
  902SOL    HW1 7068   6.139   7.482  10.170 -1.1736  1.9459  1.2103
  902SOL    HW2 7069   5.999   7.435  10.204 -0.4195 -2.6490 -1.2124
  903SOL     OW 7070   1.800   5.287   2.140 -0.3049 -0.1784  0.0782
  903SOL    HW1 7071   1.855   5.269   2.216 -0.5720  1.9642  0.8301
  903SOL    HW2 7072   1.848   5.251   2.066 -0.1145 -2.4894  1.2168
  904SOL     OW 7073   7.671   3.043   3.666  0.8047  0.3627  0.3135
  904SOL    HW1 7074   7.728   3.016   3.738  0.3566  0.1767  0.6046
  904SOL    HW2 7075   7.602   2.977   3.664  0.1590  1.0192  0.4853
  905SOL     OW 7076   7.770   8.599  10.622  0.2802 -0.1381 -0.5679
  905SOL    HW1 7077   7.762   8.506  10.641 -0.0729  0.0178  0.0636
  905SOL    HW2 7078   7.689   8.638  10.655 -0.6951  0.0609 -2.9484
  906SOL     OW 7079   7.170  10.648   9.719  0.6068  0.1246 -0.2418
  906SOL    HW1 7080   7.163  10.743   9.722  1.9001  0.3591 -2.5880
  906SOL    HW2 7081   7.080  10.617   9.725  0.0973  1.5171 -0.3033
  907SOL     OW 7082   4.430   9.030   1.866 -0.4780 -0.3680 -0.2859
  907SOL    HW1 7083   4.507   8.974   1.855  1.0368  1.3559  0.9519
  907SOL    HW2 7084   4.461   9.104   1.918 -3.3713 -0.3991  1.7425
  908SOL     OW 7085   2.836   2.771  10.049  0.2783  0.7863 -0.8252
  908SOL    HW1 7086   2.785   2.778   9.967  0.2499  0.8708 -0.7996
  908SOL    HW2 7087   2.789   2.704  10.099 -0.4618  1.6477 -0.3261
  909SOL     OW 7088   8.903   9.492   1.868  0.0090 -0.2306 -0.1045
  909SOL    HW1 7089   8.890   9.580   1.832 -0.9408 -0.7751 -1.1569
  909SOL    HW2 7090   8.927   9.507   1.959  0.4027  1.1365 -0.4038
  910SOL     OW 7091   7.864   1.409   5.998 -0.4084  0.3090 -0.3730
  910SOL    HW1 7092   7.934   1.453   6.047  0.8608 -0.5960 -1.3143
  910SOL    HW2 7093   7.877   1.316   6.016 -1.8431  0.1565  0.0094
  911SOL     OW 7094   3.529   6.132   8.066  0.4830  0.2721 -0.0353
  911SOL    HW1 7095   3.555   6.072   8.136 -0.8392 -0.6153 -0.2642
  911SOL    HW2 7096   3.549   6.219   8.100 -1.1001 -0.0573  1.9374
  912SOL     OW 7097   6.111   2.998   5.239  0.8403  0.0352  0.2960
  912SOL    HW1 7098   6.056   3.004   5.317 -0.0776  1.0551 -0.4002
  912SOL    HW2 7099   6.127   3.088   5.213  1.3788 -0.2800 -0.5197
  913SOL     OW 7100   6.517   5.991   6.940 -0.1206 -0.5005  0.5584
  913SOL    HW1 7101   6.512   6.084   6.963  2.3669 -0.4569  1.2197
  913SOL    HW2 7102   6.503   5.989   6.845 -0.6645  0.4860  0.6051
  914SOL     OW 7103   2.239   8.233  10.162 -0.0718  0.6119 -0.5418
  914SOL    HW1 7104   2.324   8.277  10.169  0.2181 -0.1543  1.8080
  914SOL    HW2 7105   2.259   8.146  10.130  0.3624 -0.2308  1.8220
  915SOL     OW 7106   6.436  10.319   7.808 -0.1757  0.1665 -0.1146
  915SOL    HW1 7107   6.471  10.233   7.831 -0.6119 -0.1951 -0.7802
  915SOL    HW2 7108   6.401  10.353   7.890 -0.8096 -0.6722 -0.0248
  916SOL     OW 7109   8.525  10.125   1.157 -0.8186  0.5691  0.1209
  916SOL    HW1 7110   8.492  10.041   1.125 -0.0662  1.2028 -2.5608
  916SOL    HW2 7111   8.466  10.190   1.119 -0.4351  1.3700  0.8487
  917SOL     OW 7112   5.344   8.265   9.557 -0.5543  0.3229  0.2141
  917SOL    HW1 7113   5.254   8.243   9.531 -0.4941  0.1679  0.1343
  917SOL    HW2 7114   5.335   8.341   9.613 -0.7843 -0.0081  0.6310
  918SOL     OW 7115   7.510   2.197   9.094  0.1530 -0.4978 -0.0194
  918SOL    HW1 7116   7.588   2.142   9.103 -0.3050 -1.3659 -1.0984
  918SOL    HW2 7117   7.528   2.274   9.148  1.5152 -0.9446  0.1924
  919SOL     OW 7118  10.481   9.061   2.907  0.1290 -0.5408 -0.3540
  919SOL    HW1 7119  10.451   9.096   2.823  0.0776 -1.0433 -0.5507
  919SOL    HW2 7120  10.450   9.124   2.972  1.8022  0.8623 -0.8604
  920SOL     OW 7121   8.802   1.666   1.291 -0.0555 -0.3829 -0.1195
  920SOL    HW1 7122   8.895   1.674   1.271  0.0758 -2.0235 -0.3283
  920SOL    HW2 7123   8.791   1.574   1.316 -1.7116 -0.3651 -0.6508
  921SOL     OW 7124   2.902   9.093   2.939 -0.0941 -0.2207  0.5669
  921SOL    HW1 7125   2.840   9.042   2.887 -2.2403  0.9595  1.8383
  921SOL    HW2 7126   2.855   9.114   3.020  1.6404  1.5084  1.2215
  922SOL     OW 7127   9.208   9.930   8.850  0.1590 -0.0627 -0.6456
  922SOL    HW1 7128   9.194   9.854   8.793  1.7037  0.3520 -1.6262
  922SOL    HW2 7129   9.290   9.912   8.895 -0.9029 -0.2642  1.3441
  923SOL     OW 7130   9.094   2.671   0.672 -0.1780 -0.1097 -0.2871
  923SOL    HW1 7131   9.004   2.641   0.660  0.0541 -1.4510  0.9871
  923SOL    HW2 7132   9.087   2.764   0.691 -1.3565 -0.3387  0.4760
  924SOL     OW 7133   1.985  10.337   5.233 -0.1427  0.1288  0.2413
  924SOL    HW1 7134   2.010  10.406   5.295  0.5291  0.2845 -0.2025
  924SOL    HW2 7135   2.062  10.324   5.178  0.0682 -1.5775  0.8531
  925SOL     OW 7136   6.889   6.174   3.289 -0.4432  0.2843 -0.0970
  925SOL    HW1 7137   6.956   6.228   3.247  1.5792 -1.9917 -0.0404
  925SOL    HW2 7138   6.938   6.106   3.335 -2.7240 -3.0641 -2.1239
  926SOL     OW 7139   5.926   9.526   5.959  0.6870 -0.5558  0.5606
  926SOL    HW1 7140   5.903   9.462   5.892  0.0486  0.9245 -0.6970
  926SOL    HW2 7141   5.842   9.562   5.986  1.1382  1.4915 -0.5722
  927SOL     OW 7142   8.210   1.648   1.370  0.0649 -0.0534  0.0216
  927SOL    HW1 7143   8.299   1.625   1.344  0.0878 -1.9366  1.5493
  927SOL    HW2 7144   8.219   1.730   1.418  0.8340  0.2364 -0.6004
  928SOL     OW 7145   5.810   9.259   6.177  0.4859 -0.2118  0.4358
  928SOL    HW1 7146   5.720   9.284   6.157  0.5200 -0.4800 -0.0782
  928SOL    HW2 7147   5.821   9.174   6.134  1.2648  0.2301 -0.2455
  929SOL     OW 7148   0.097   4.232   6.813 -0.0524  0.2306  0.0990
  929SOL    HW1 7149   0.003   4.228   6.826  0.0115 -0.1569  0.4800
  929SOL    HW2 7150   0.117   4.155   6.759 -0.0946  0.9257 -0.9517
  930SOL     OW 7151  10.320   8.879   7.294  0.2093  0.2187  0.0637
  930SOL    HW1 7152  10.277   8.928   7.223  2.5783 -0.8864 -2.2802
  930SOL    HW2 7153  10.368   8.946   7.343  0.0225  0.7743 -0.4935
  931SOL     OW 7154   9.901   6.238   6.155  0.3661  0.5891 -0.4731
  931SOL    HW1 7155   9.854   6.201   6.080 -0.1486  1.0802 -0.4010
  931SOL    HW2 7156   9.979   6.278   6.117 -0.0730  1.1508 -0.7954
  932SOL     OW 7157   7.947   7.334   2.626 -0.1151 -0.4591  0.1496
  932SOL    HW1 7158   7.926   7.406   2.686  1.8021  1.1196 -0.9502
  932SOL    HW2 7159   7.894   7.350   2.549  2.1255  1.4110 -1.1475
  933SOL     OW 7160   5.977  10.470   1.131 -0.1691  0.4157  0.0853
  933SOL    HW1 7161   6.035  10.406   1.174  1.3579  2.4847  1.3050
  933SOL    HW2 7162   5.900  10.474   1.187  0.5164  0.9271  1.0146
  934SOL     OW 7163   1.536   4.889   9.559  0.3692 -0.2795 -0.1397
  934SOL    HW1 7164   1.538   4.951   9.486  2.2417 -1.6928 -1.3697
  934SOL    HW2 7165   1.529   4.803   9.518 -0.6211 -0.9999  1.4613
  935SOL     OW 7166   2.700   5.738   4.534 -0.3104 -0.0608 -0.4317
  935SOL    HW1 7167   2.610   5.751   4.502 -0.7721 -1.9825 -0.0202
  935SOL    HW2 7168   2.724   5.651   4.503  0.8462 -0.1987  0.7683
  936SOL     OW 7169   0.248   4.444   7.964 -0.5274 -0.3099  0.1497
  936SOL    HW1 7170   0.317   4.482   8.019 -0.4937  1.3300 -0.9534
  936SOL    HW2 7171   0.280   4.356   7.943 -0.1251 -0.6444  1.9450
  937SOL     OW 7172   1.404   8.376   9.751 -0.2129  0.4127 -0.0567
  937SOL    HW1 7173   1.464   8.378   9.826 -0.8059 -2.2470  0.6106
  937SOL    HW2 7174   1.317   8.373   9.790 -0.7347  2.0915 -0.9806
  938SOL     OW 7175   2.818  10.189   1.361 -0.0366 -0.6050 -0.2298
  938SOL    HW1 7176   2.902  10.169   1.321 -1.4598 -2.5117 -2.6043
  938SOL    HW2 7177   2.770  10.106   1.357 -2.4417  0.6913 -0.0704
  939SOL     OW 7178   2.615   0.192   8.750 -0.7380 -0.2418  0.3642
  939SOL    HW1 7179   2.626   0.099   8.727  1.1183 -0.1785  0.8233
  939SOL    HW2 7180   2.652   0.199   8.838 -0.0399  1.0950 -0.0143
  940SOL     OW 7181   2.307   3.031   2.473 -0.1611 -0.0246 -0.8615
  940SOL    HW1 7182   2.352   2.978   2.408 -1.8449 -0.4591 -1.7326
  940SOL    HW2 7183   2.366   3.105   2.488  0.4945 -0.1596 -2.5298
  941SOL     OW 7184   6.812   3.976   9.008  0.0908 -0.0096  0.2442
  941SOL    HW1 7185   6.853   4.026   9.078  0.8751 -1.2589  0.7051
  941SOL    HW2 7186   6.844   3.887   9.020 -1.6052 -0.7352 -0.2812
  942SOL     OW 7187   0.250   7.306   6.673 -0.5226 -0.1001  0.4165
  942SOL    HW1 7188   0.321   7.317   6.736 -0.6019  0.4052  0.4219
  942SOL    HW2 7189   0.178   7.270   6.724 -0.2194 -0.7704  0.3776
  943SOL     OW 7190   5.574   2.838   9.680  0.4874  0.3419  0.1733
  943SOL    HW1 7191   5.604   2.756   9.720  0.2982  0.5712  0.7967
  943SOL    HW2 7192   5.484   2.848   9.711 -0.2640 -0.3078 -1.6178
  944SOL     OW 7193   0.631   7.609   1.028  0.1978 -0.1336 -0.4918
  944SOL    HW1 7194   0.711   7.658   1.046 -0.9736  1.7136 -0.0744
  944SOL    HW2 7195   0.563   7.675   1.024 -1.8023 -1.8747  1.8614
  945SOL     OW 7196   6.741   0.582   4.569 -0.1627  0.0066  0.3933
  945SOL    HW1 7197   6.710   0.669   4.592  0.3263 -0.1722  1.7891
  945SOL    HW2 7198   6.662   0.534   4.542 -0.4191  0.8834 -0.4710
  946SOL     OW 7199   5.716   2.608   2.237 -0.4368 -0.7916 -0.3428
  946SOL    HW1 7200   5.714   2.673   2.166 -2.1944 -1.7140 -1.2044
  946SOL    HW2 7201   5.790   2.552   2.216 -1.3560 -1.4859 -1.9158
  947SOL     OW 7202   9.711   6.650   5.829 -0.9908  0.3051  0.1614
  947SOL    HW1 7203   9.702   6.711   5.902 -0.9314  0.2294  0.2326
  947SOL    HW2 7204   9.626   6.649   5.787 -0.2328  2.7082 -1.6410
  948SOL     OW 7205   9.217   7.143   8.502 -0.1951 -0.1966 -0.3379
  948SOL    HW1 7206   9.248   7.077   8.441 -0.7041 -1.3669  0.6298
  948SOL    HW2 7207   9.123   7.150   8.486 -0.5307 -1.2769  0.9633
  949SOL     OW 7208   4.003   8.847   4.493 -0.0738 -0.0105 -0.4099
  949SOL    HW1 7209   3.914   8.855   4.460  0.1700  0.6508 -0.9277
  949SOL    HW2 7210   4.053   8.807   4.422 -0.1319 -1.2046  0.1998
  950SOL     OW 7211   9.327   6.851   0.361 -0.2520 -0.2073 -0.3025
  950SOL    HW1 7212   9.410   6.808   0.379  0.5597  1.7344  0.7549
  950SOL    HW2 7213   9.269   6.823   0.432  0.6322  1.2878  1.0780
  951SOL     OW 7214   9.491   8.059   0.559  0.1343  0.2162  0.8346
  951SOL    HW1 7215   9.531   8.098   0.482  0.6308  0.4116  1.1865
  951SOL    HW2 7216   9.401   8.092   0.558 -0.4296 -1.2441 -0.6574
  952SOL     OW 7217   4.350   8.945   6.599 -0.2469 -0.7326  0.6503
  952SOL    HW1 7218   4.312   9.009   6.659  0.5359  0.3947 -0.0352
  952SOL    HW2 7219   4.306   8.863   6.622 -0.8085 -0.0987  1.9705
  953SOL     OW 7220   7.737   8.969   6.924 -0.4790 -0.4423 -0.8093
  953SOL    HW1 7221   7.762   8.930   7.007 -0.9247 -0.6711 -0.7785
  953SOL    HW2 7222   7.819   8.996   6.883 -0.2211 -0.8179 -0.5357
  954SOL     OW 7223   6.622   3.735   6.068 -0.1737 -0.3987 -0.4275
  954SOL    HW1 7224   6.596   3.670   6.003  2.0374 -2.2001  0.3336
  954SOL    HW2 7225   6.562   3.720   6.141 -1.0434 -0.1093 -1.0710
  955SOL     OW 7226  10.560   8.419   2.741 -0.2854  0.4540 -0.3931
  955SOL    HW1 7227  10.624   8.468   2.690  0.5656 -1.9931 -1.8252
  955SOL    HW2 7228  10.597   8.415   2.829 -0.2133  2.0345 -0.3336
  956SOL     OW 7229   8.440   1.254   5.039  0.3597 -0.6962 -0.6930
  956SOL    HW1 7230   8.445   1.260   5.134 -0.1759 -0.6954 -0.6606
  956SOL    HW2 7231   8.459   1.162   5.020 -2.8473 -1.5639 -0.3102
  957SOL     OW 7232   7.554   0.551   9.464  0.2635  0.0081 -0.4885
  957SOL    HW1 7233   7.465   0.569   9.433  1.0625  1.3131 -2.1939
  957SOL    HW2 7234   7.574   0.623   9.524  0.3756  0.0611 -0.5878
  958SOL     OW 7235   1.174  10.171   6.179 -0.4814 -0.1833  0.6926
  958SOL    HW1 7236   1.108  10.240   6.167 -1.1210 -0.9781 -0.6991
  958SOL    HW2 7237   1.254  10.218   6.202 -1.2271  0.9115  1.1363
  959SOL     OW 7238   7.952   3.048   5.576  0.0258  0.3159  0.0701
  959SOL    HW1 7239   8.026   2.988   5.563 -1.0661 -0.9733 -0.5305
  959SOL    HW2 7240   7.960   3.078   5.666  0.5228 -0.8982  0.4494
  960SOL     OW 7241   3.683   6.793   4.279  0.0082 -0.1397 -0.3952
  960SOL    HW1 7242   3.652   6.798   4.369  0.1998 -1.3407 -0.2465
  960SOL    HW2 7243   3.744   6.866   4.270  1.5047 -1.1567  1.0608
  961SOL     OW 7244   1.827  10.615   4.951 -0.3168  0.9026  0.7176
  961SOL    HW1 7245   1.787  10.646   5.032 -1.3687  2.3291 -0.2874
  961SOL    HW2 7246   1.781  10.663   4.882 -0.3071 -1.1803 -0.8116
  962SOL     OW 7247   6.112   6.805   7.439 -0.1870  0.2848  0.5954
  962SOL    HW1 7248   6.038   6.743   7.438 -0.0094  0.0577 -1.2601
  962SOL    HW2 7249   6.153   6.791   7.524 -0.6862 -1.5345  0.5879
  963SOL     OW 7250   1.478   3.205   0.125  0.1883  0.3456 -0.0524
  963SOL    HW1 7251   1.500   3.135   0.063  0.9390  0.2214  0.3495
  963SOL    HW2 7252   1.460   3.160   0.207 -1.4704  0.4517 -0.3234
  964SOL     OW 7253   3.502   6.944   3.540  0.5126 -0.2339  0.1590
  964SOL    HW1 7254   3.545   6.961   3.624  0.2893 -1.4255  0.5216
  964SOL    HW2 7255   3.414   6.913   3.563  0.4887 -0.6860 -0.5095
  965SOL     OW 7256   8.191   1.172   7.498  0.1231  0.5952 -0.0588
  965SOL    HW1 7257   8.148   1.251   7.464 -0.9809 -0.3869 -1.0012
  965SOL    HW2 7258   8.230   1.131   7.422 -1.3200 -0.9885  0.0006
  966SOL     OW 7259   5.721   8.970  10.143  0.1495 -0.0944 -0.4138
  966SOL    HW1 7260   5.742   8.947  10.234 -0.9009 -0.4089 -0.2334
  966SOL    HW2 7261   5.751   9.060  10.133  0.0567  0.0232  0.3261
  967SOL     OW 7262   6.330   5.628   6.649  0.5957 -0.2285 -0.4304
  967SOL    HW1 7263   6.307   5.574   6.573  1.0485  0.5799 -1.1507
  967SOL    HW2 7264   6.324   5.718   6.618 -0.6792  0.1913  0.8991
  968SOL     OW 7265  10.766   1.967   1.051  0.1341  0.1736 -0.1048
  968SOL    HW1 7266  10.759   1.984   1.145  1.8243  0.0984  0.0668
  968SOL    HW2 7267  10.768   1.871   1.045 -2.1600  0.0923 -0.4467
  969SOL     OW 7268   9.683   7.609   5.459 -0.3841 -0.0639  0.7754
  969SOL    HW1 7269   9.711   7.692   5.497 -1.2496  0.8600 -0.5044
  969SOL    HW2 7270   9.764   7.561   5.443  0.0710  0.1650  2.3112
  970SOL     OW 7271   0.019   6.733   1.001 -0.2805 -0.6662  0.5572
  970SOL    HW1 7272   0.061   6.798   1.058  0.3809 -1.1770  0.6622
  970SOL    HW2 7273  -0.071   6.765   0.991 -0.8000 -1.2070  2.9027
  971SOL     OW 7274   7.921   0.944   2.039 -0.3255  0.4333  0.6755
  971SOL    HW1 7275   7.994   1.006   2.036 -0.1669  0.2266  0.2640
  971SOL    HW2 7276   7.882   0.957   2.126 -1.1893  2.1144  0.0758
  972SOL     OW 7277   5.241   2.138   4.120  0.1673 -0.6665  0.4286
  972SOL    HW1 7278   5.336   2.145   4.119  0.3307 -0.8131 -3.6756
  972SOL    HW2 7279   5.223   2.059   4.067 -2.2755 -2.0558  3.0717
  973SOL     OW 7280  10.660   9.980   8.722  0.4782  0.8815 -0.1117
  973SOL    HW1 7281  10.628   9.920   8.655 -2.2414 -0.3157  2.0680
  973SOL    HW2 7282  10.753   9.962   8.729  0.0455 -1.9372 -0.7249
  974SOL     OW 7283   1.029   0.951   4.271  0.5458 -0.0171  0.3297
  974SOL    HW1 7284   1.051   0.944   4.178  2.9603  2.8693  0.5213
  974SOL    HW2 7285   0.938   0.922   4.277  1.1857 -3.1512 -2.3687
  975SOL     OW 7286   6.788   5.944   9.956 -0.7518  0.7779 -0.2954
  975SOL    HW1 7287   6.693   5.954   9.955 -0.8448  0.2240  1.0643
  975SOL    HW2 7288   6.820   6.032   9.979 -0.8807  1.1553 -1.5089
  976SOL     OW 7289   1.771   8.320   6.458 -0.1600 -0.2375  0.3724
  976SOL    HW1 7290   1.787   8.358   6.371  1.3038 -0.3850  0.5547
  976SOL    HW2 7291   1.735   8.392   6.509 -0.4360  0.0242 -0.1784
  977SOL     OW 7292   4.631   0.099  10.600  0.1127  0.4415 -0.7111
  977SOL    HW1 7293   4.631   0.191  10.573  0.3135  0.8798  0.6724
  977SOL    HW2 7294   4.668   0.101  10.689 -0.2752 -0.9280 -0.5011
  978SOL     OW 7295  10.137  10.091  10.847  0.3502 -0.0290 -0.4188
  978SOL    HW1 7296  10.185  10.168  10.879  2.3202 -1.0427 -0.7677
  978SOL    HW2 7297  10.046  10.121  10.840  0.9757  2.1377 -0.1448
  979SOL     OW 7298   0.218   9.584   5.127  0.0107 -0.3083 -0.6423
  979SOL    HW1 7299   0.140   9.633   5.152  0.9639  0.0863  1.8494
  979SOL    HW2 7300   0.282   9.604   5.195  1.7893 -1.8375 -1.7584
  980SOL     OW 7301   9.084   9.598   9.089 -0.1632 -0.6454 -0.0039
  980SOL    HW1 7302   9.060   9.685   9.058  0.8518 -0.2649  0.2194
  980SOL    HW2 7303   9.159   9.613   9.147 -0.5273 -1.5818  0.7402
  981SOL     OW 7304   4.549  10.195  10.039 -0.2345 -0.6459  0.5083
  981SOL    HW1 7305   4.569  10.124  10.100 -0.3325 -0.6028  0.5908
  981SOL    HW2 7306   4.459  10.177  10.010 -0.1137 -0.7861  0.2134
  982SOL     OW 7307  10.658  10.433   8.268  0.3104 -0.1194 -0.2581
  982SOL    HW1 7308  10.594  10.382   8.219 -0.7174  0.2531  0.6670
  982SOL    HW2 7309  10.743  10.406   8.232 -0.3831  0.0519 -2.1476
  983SOL     OW 7310   9.018   8.080   0.633  0.1692 -0.4607 -0.1270
  983SOL    HW1 7311   9.114   8.077   0.640  0.3427 -0.1904 -1.8798
  983SOL    HW2 7312   8.994   8.160   0.680  0.6090 -1.3523  1.7131
  984SOL     OW 7313  10.786   8.642   6.004 -0.0505 -0.4562 -0.0369
  984SOL    HW1 7314  10.714   8.594   6.045 -0.4263  0.1578  0.0355
  984SOL    HW2 7315  10.846   8.661   6.076 -0.1120 -0.4401  0.0103
  985SOL     OW 7316   5.255   5.041   9.930  0.1675 -0.2995 -0.0841
  985SOL    HW1 7317   5.268   5.119   9.984 -1.1485  0.0980 -0.3061
  985SOL    HW2 7318   5.175   5.002   9.964  1.2120 -2.0110  0.5250
  986SOL     OW 7319   5.378   4.283   7.442 -0.2177  0.1048  0.0208
  986SOL    HW1 7320   5.333   4.220   7.385 -0.6698 -2.8869  3.3031
  986SOL    HW2 7321   5.455   4.309   7.393 -1.5533 -0.6869 -2.6863
  987SOL     OW 7322   3.372   5.669   6.854 -0.1086  0.3829 -0.0806
  987SOL    HW1 7323   3.331   5.723   6.786 -0.0875  0.4786 -0.0173
  987SOL    HW2 7324   3.334   5.700   6.936  1.0172  1.3318  0.1027
  988SOL     OW 7325   5.964   8.207   5.554  0.3846  0.3410  0.0751
  988SOL    HW1 7326   6.008   8.289   5.530  0.7850 -0.4275 -2.0872
  988SOL    HW2 7327   5.944   8.217   5.647  1.3548  2.4527  0.1296
  989SOL     OW 7328   9.213   4.532   4.105 -0.1472  0.2333  0.3984
  989SOL    HW1 7329   9.138   4.589   4.086 -0.3111  0.5467  1.8595
  989SOL    HW2 7330   9.289   4.589   4.095 -0.3274  0.8325  2.1189
  990SOL     OW 7331   6.635   2.238   3.072 -0.2095 -0.0417 -0.5676
  990SOL    HW1 7332   6.611   2.161   3.124 -0.1248  0.0097 -0.4524
  990SOL    HW2 7333   6.602   2.313   3.122 -0.2269  0.0021 -0.6434
  991SOL     OW 7334   3.732   8.864   4.400 -0.4650 -0.5837  0.2365
  991SOL    HW1 7335   3.701   8.804   4.332  4.5798 -0.9700 -2.1393
  991SOL    HW2 7336   3.724   8.951   4.360 -0.6257 -0.4393  0.5774
  992SOL     OW 7337   3.822   9.602   2.166 -0.2858  0.8974 -0.1764
  992SOL    HW1 7338   3.772   9.680   2.141 -3.1380 -0.4352  0.9597
  992SOL    HW2 7339   3.868   9.628   2.246 -0.3323  1.6953 -0.3972
  993SOL     OW 7340   2.831   8.134   7.900  0.1579  0.2625  0.2573
  993SOL    HW1 7341   2.770   8.194   7.942  0.8034  0.9696  0.2085
  993SOL    HW2 7342   2.918   8.165   7.927  0.5539  0.1780 -0.8677
  994SOL     OW 7343   4.231   5.421  10.912  0.2887  0.0776  0.4949
  994SOL    HW1 7344   4.157   5.390  10.964 -0.5947 -0.1634 -0.8530
  994SOL    HW2 7345   4.308   5.392  10.960 -0.4831 -0.1753  1.6294
  995SOL     OW 7346   5.089   4.329   2.744 -0.1789  0.1052  0.1126
  995SOL    HW1 7347   5.150   4.258   2.724 -2.6816 -2.3722  0.6143
  995SOL    HW2 7348   5.060   4.311   2.833 -3.4453 -0.3529 -0.9214
  996SOL     OW 7349   1.660   3.501   9.270 -0.1365 -0.3021  0.3927
  996SOL    HW1 7350   1.606   3.439   9.221  0.9265 -0.5068 -0.5771
  996SOL    HW2 7351   1.606   3.580   9.276 -0.1826 -0.1387 -1.4679
  997SOL     OW 7352   8.345   4.856   2.107 -0.0660 -0.1952 -0.3018
  997SOL    HW1 7353   8.390   4.829   2.187  0.0512  0.6906 -0.0584
  997SOL    HW2 7354   8.291   4.931   2.134 -0.3678 -0.1711 -0.9540
  998SOL     OW 7355   8.896   8.676   1.657  0.0385 -0.7137 -0.1864
  998SOL    HW1 7356   8.851   8.760   1.661  2.4221  0.7083 -0.8797
  998SOL    HW2 7357   8.924   8.669   1.566  2.8959 -0.4730  0.5805
  999SOL     OW 7358   8.230   7.783  10.399  0.4299 -0.1872  0.2569
  999SOL    HW1 7359   8.276   7.820  10.475  1.8634  0.3872 -0.8544
  999SOL    HW2 7360   8.203   7.695  10.428  0.8491  0.0619  1.4656
 1000SOL     OW 7361   6.745   2.773   1.935  0.1849 -0.4216  0.7608
 1000SOL    HW1 7362   6.736   2.786   1.840 -0.5716 -1.2609  0.7017
 1000SOL    HW2 7363   6.751   2.678   1.945  1.9012 -0.2596  1.4333
 1001SOL     OW 7364   5.061   9.869   1.451 -0.7375 -0.3754  0.4071
 1001SOL    HW1 7365   5.137   9.922   1.428  1.0993 -2.5632  1.0486
 1001SOL    HW2 7366   5.063   9.866   1.547 -0.4482 -1.9943  0.3738
 1002SOL     OW 7367   6.396   9.412   1.901  0.3912  0.1527 -0.2083
 1002SOL    HW1 7368   6.488   9.417   1.927  1.6851 -2.0665 -3.5862
 1002SOL    HW2 7369   6.393   9.460   1.818 -1.6697  0.7038  0.1511
 1003SOL     OW 7370   7.335   3.649   5.657  0.4006 -0.3317  0.6532
 1003SOL    HW1 7371   7.315   3.639   5.564 -0.7917  1.2635  0.7020
 1003SOL    HW2 7372   7.279   3.584   5.700  0.8932 -1.0167  0.2874
 1004SOL     OW 7373   5.474   7.240   2.244  0.2185  0.0422 -0.3661
 1004SOL    HW1 7374   5.537   7.218   2.175 -0.3909  0.5938 -1.1234
 1004SOL    HW2 7375   5.492   7.179   2.315 -0.3442 -1.7759 -1.7291
 1005SOL     OW 7376   3.685  11.104   6.307 -0.3105  0.1267 -0.0528
 1005SOL    HW1 7377   3.684  11.166   6.235  0.7460  2.4338  1.7765
 1005SOL    HW2 7378   3.603  11.055   6.298 -0.4531  0.6778 -2.4546
 1006SOL     OW 7379  10.475   5.665   2.600 -0.0171 -0.5502 -0.2949
 1006SOL    HW1 7380  10.553   5.609   2.605 -0.7588 -1.7783 -1.8171
 1006SOL    HW2 7381  10.450   5.678   2.691  1.4739 -0.8223  0.1872
 1007SOL     OW 7382   3.700  10.216   7.261  0.3086  0.1002  0.0988
 1007SOL    HW1 7383   3.752  10.248   7.335  2.0319 -0.4871 -0.7936
 1007SOL    HW2 7384   3.739  10.132   7.239  0.4452  0.6560 -2.0053
 1008SOL     OW 7385   9.282   0.016   6.286 -0.4231 -0.0395  0.1762
 1008SOL    HW1 7386   9.274   0.023   6.190  1.8491  2.5655  0.0599
 1008SOL    HW2 7387   9.375  -0.001   6.301 -0.4414  1.1923  1.9446
 1009SOL     OW 7388   9.409   9.844   9.024  0.3441  0.2091  0.5700
 1009SOL    HW1 7389   9.441   9.873   9.110  2.4352  0.4809 -0.2535
 1009SOL    HW2 7390   9.408   9.748   9.030  4.1274 -0.0223 -0.2082
 1010SOL     OW 7391   4.828   9.539   5.936 -0.8822 -0.5914  0.3319
 1010SOL    HW1 7392   4.853   9.617   5.888  3.9398  0.0439  3.1835
 1010SOL    HW2 7393   4.816   9.472   5.869 -0.2810  1.4511 -1.9394
 1011SOL     OW 7394   8.240  10.600   7.199  0.0436  0.5274 -0.0503
 1011SOL    HW1 7395   8.195  10.684   7.193 -0.0935  0.7047  2.3090
 1011SOL    HW2 7396   8.326  10.622   7.235  0.0804 -0.3072  0.4001
 1012SOL     OW 7397   1.559   6.529   4.637 -0.0561  0.6669  0.6298
 1012SOL    HW1 7398   1.576   6.511   4.729 -0.4501 -0.3602  0.5220
 1012SOL    HW2 7399   1.504   6.607   4.637 -0.7293  0.2080  1.3246
 1013SOL     OW 7400   1.698   2.905   0.077  0.2239 -0.3457  0.4157
 1013SOL    HW1 7401   1.742   2.970   0.132  0.2648 -0.3496  0.3876
 1013SOL    HW2 7402   1.739   2.821   0.100 -0.6515 -0.5416  1.3231
 1014SOL     OW 7403   9.958   8.835   8.231  0.2970  0.4926 -0.2017
 1014SOL    HW1 7404  10.021   8.763   8.242  0.3126  0.6610  0.9086
 1014SOL    HW2 7405  10.005   8.901   8.181  0.4938  0.0026 -0.6783
 1015SOL     OW 7406   1.484   4.317   8.110  0.0140 -0.0118  0.1270
 1015SOL    HW1 7407   1.533   4.235   8.103 -0.8535 -0.4876 -0.6758
 1015SOL    HW2 7408   1.402   4.299   8.063 -0.5341  1.0493  0.6605
 1016SOL     OW 7409   0.312   5.100   3.482 -0.4737 -0.5206  0.2915
 1016SOL    HW1 7410   0.281   5.067   3.566  0.7488  0.7361  1.2807
 1016SOL    HW2 7411   0.297   5.028   3.421  0.4334 -2.2293  1.9660
 1017SOL     OW 7412   6.899   7.753   8.366 -0.0930 -0.7173 -0.4314
 1017SOL    HW1 7413   6.988   7.724   8.351  0.5517 -0.6068  2.4966
 1017SOL    HW2 7414   6.882   7.817   8.297  1.5930 -1.6791 -1.8000
 1018SOL     OW 7415   3.277   9.902   9.302  0.3115  0.1480 -0.1676
 1018SOL    HW1 7416   3.263   9.942   9.216 -1.2992  0.6180  0.2707
 1018SOL    HW2 7417   3.274   9.976   9.363 -0.8083 -0.3973  0.4724
 1019SOL     OW 7418   3.084   3.708   6.048 -0.5674 -0.0238 -0.0108
 1019SOL    HW1 7419   3.017   3.689   5.982 -1.8600  0.7565  1.0213
 1019SOL    HW2 7420   3.040   3.690   6.132  1.7003 -3.1873  0.7029
 1020SOL     OW 7421   0.817   5.415   3.549 -0.1024 -0.3262 -0.4171
 1020SOL    HW1 7422   0.773   5.343   3.503 -0.5506  0.9888 -2.1782
 1020SOL    HW2 7423   0.783   5.410   3.638 -0.6569 -1.8615 -0.6716
 1021SOL     OW 7424   3.048   6.404   2.063  0.3313  0.4861  0.2919
 1021SOL    HW1 7425   2.994   6.342   2.113 -0.4845  1.3704  0.5169
 1021SOL    HW2 7426   3.005   6.410   1.978  0.8080  0.2252  0.0263
 1022SOL     OW 7427   8.079   6.906   1.772 -0.2845  0.3382 -0.0296
 1022SOL    HW1 7428   8.122   6.990   1.759  0.1721  0.4284  1.7359
 1022SOL    HW2 7429   8.138   6.842   1.732  0.1498  0.7120  0.0078
 1023SOL     OW 7430  10.611   2.791   0.379  0.1820  0.2985  0.3660
 1023SOL    HW1 7431  10.618   2.717   0.318  1.6090  0.8597 -0.1682
 1023SOL    HW2 7432  10.543   2.847   0.341  0.1594  0.0065 -0.0299
 1024SOL     OW 7433   1.474   9.529  10.852 -0.5923  0.0226 -0.2812
 1024SOL    HW1 7434   1.391   9.574  10.834  0.0422  1.5057  0.3951
 1024SOL    HW2 7435   1.505   9.501  10.766 -1.4732  0.0270 -0.6107
 1025SOL     OW 7436   0.434   6.184   1.804 -0.3446 -0.9181  0.0729
 1025SOL    HW1 7437   0.353   6.173   1.753  1.1427  0.5565 -2.8407
 1025SOL    HW2 7438   0.496   6.222   1.743  1.9143  0.2242  2.8559
 1026SOL     OW 7439   9.969   0.848  10.197  0.4145 -0.3239  0.0981
 1026SOL    HW1 7440   9.874   0.845  10.181  0.1974 -1.2873  1.3648
 1026SOL    HW2 7441   9.978   0.901  10.276  0.8854 -0.5218  0.1784
 1027SOL     OW 7442   5.844   4.817   9.852 -0.6424 -1.0543 -0.7124
 1027SOL    HW1 7443   5.772   4.836   9.912  0.5531 -0.6199  0.6471
 1027SOL    HW2 7444   5.807   4.830   9.765 -1.7076  1.0535 -0.0077
 1028SOL     OW 7445   0.747   2.621   6.763 -0.0788  0.1465  0.2892
 1028SOL    HW1 7446   0.677   2.683   6.780 -0.9905 -0.5559 -0.7678
 1028SOL    HW2 7447   0.799   2.662   6.693  1.6416  1.4502  2.1898
 1029SOL     OW 7448   0.181   5.416   0.864 -0.4157 -0.2842  0.5133
 1029SOL    HW1 7449   0.108   5.426   0.803 -2.3875 -4.1027  1.8857
 1029SOL    HW2 7450   0.247   5.367   0.816 -0.4560 -0.2816  0.4557
 1030SOL     OW 7451   0.048  10.502   7.698 -0.3713 -0.3326 -0.1064
 1030SOL    HW1 7452   0.041  10.424   7.643  0.5923 -0.3629 -0.2164
 1030SOL    HW2 7453   0.056  10.575   7.635  1.0470 -0.3974 -0.0472
 1031SOL     OW 7454   8.683   3.368   2.577  0.3927  0.4097  0.2484
 1031SOL    HW1 7455   8.591   3.393   2.571 -0.3236 -1.8281  0.9463
 1031SOL    HW2 7456   8.682   3.286   2.627  2.7186  0.0619 -0.1860
 1032SOL     OW 7457   5.238   6.125   6.709 -0.1877 -0.3808  0.2854
 1032SOL    HW1 7458   5.216   6.130   6.615 -0.8816  0.4977  0.4815
 1032SOL    HW2 7459   5.330   6.150   6.714  0.2669 -1.8477 -0.3111
 1033SOL     OW 7460   3.571   7.174   5.090 -0.2384 -0.1938  0.4041
 1033SOL    HW1 7461   3.616   7.197   5.009 -1.2638 -0.9528 -0.4111
 1033SOL    HW2 7462   3.515   7.249   5.109  0.2224  0.1104  0.5891
 1034SOL     OW 7463   9.347   8.292   5.388 -0.8350 -0.5467  0.6601
 1034SOL    HW1 7464   9.287   8.277   5.461 -0.5014  1.2183  1.3608
 1034SOL    HW2 7465   9.386   8.207   5.371 -0.9368 -1.0214  2.5581
 1035SOL     OW 7466   1.988   6.191   1.028 -0.2165 -0.0613 -0.6365
 1035SOL    HW1 7467   1.994   6.201   1.123  0.1034  0.7707 -0.7353
 1035SOL    HW2 7468   2.066   6.234   0.994 -0.4533 -0.1332 -1.2941
 1036SOL     OW 7469   4.160   6.803   0.877 -0.1556  0.2527  0.1851
 1036SOL    HW1 7470   4.094   6.846   0.931 -1.1292  0.0379 -0.8116
 1036SOL    HW2 7471   4.111   6.760   0.807  1.0591  0.5557 -0.9080
 1037SOL     OW 7472   9.789   3.998   1.389 -0.2153 -0.1264 -0.4646
 1037SOL    HW1 7473   9.776   4.075   1.334  1.4688  0.2166 -0.4535
 1037SOL    HW2 7474   9.856   3.947   1.343 -1.4902 -1.7561 -0.6133
 1038SOL     OW 7475   8.263   0.685   0.215 -0.2317  0.4147 -0.2456
 1038SOL    HW1 7476   8.267   0.636   0.132 -0.2889  0.4097 -0.2453
 1038SOL    HW2 7477   8.325   0.640   0.272  0.1194  0.6704 -0.4191
 1039SOL     OW 7478   0.768   6.632   2.719 -0.4138 -0.0565  0.3779
 1039SOL    HW1 7479   0.847   6.594   2.759 -0.2154 -0.1890 -0.1220
 1039SOL    HW2 7480   0.696   6.598   2.772 -0.1158  0.3149  1.0299
 1040SOL     OW 7481   3.678   8.125   4.933 -0.0253 -0.8186  0.0429
 1040SOL    HW1 7482   3.756   8.069   4.931 -0.5690 -1.6440  1.0563
 1040SOL    HW2 7483   3.615   8.076   4.986 -0.1115  1.2871  2.0079
 1041SOL     OW 7484   8.414   8.341   0.778 -0.2403 -0.2086 -0.5845
 1041SOL    HW1 7485   8.485   8.374   0.833  0.5518  1.2715 -2.3890
 1041SOL    HW2 7486   8.411   8.247   0.796  0.2637  0.1350  1.5950
 1042SOL     OW 7487   4.209   5.661   1.762 -0.0288  0.2446  0.1449
 1042SOL    HW1 7488   4.138   5.642   1.700 -0.3363 -2.2594  1.1500
 1042SOL    HW2 7489   4.167   5.659   1.848  1.0299 -0.0816  0.6721
 1043SOL     OW 7490   1.358   6.805   9.854 -0.0106  0.1635  0.1604
 1043SOL    HW1 7491   1.443   6.765   9.873  1.2535  2.0711 -1.1695
 1043SOL    HW2 7492   1.317   6.746   9.791  0.1325 -0.9610  1.0869
 1044SOL     OW 7493   5.775   5.702   6.626  0.7550  0.2812 -0.1020
 1044SOL    HW1 7494   5.693   5.667   6.591  1.3758 -0.8172 -0.4907
 1044SOL    HW2 7495   5.842   5.641   6.595  1.5817  0.5186  1.1762
 1045SOL     OW 7496   6.461   8.747   5.270 -0.3460  0.5626  0.7826
 1045SOL    HW1 7497   6.455   8.729   5.364  0.5693 -0.7682  0.6082
 1045SOL    HW2 7498   6.453   8.662   5.228 -0.7861  1.1419 -0.3733
 1046SOL     OW 7499   0.267   3.158   7.702  0.0180  0.6735 -0.2913
 1046SOL    HW1 7500   0.333   3.089   7.711 -0.1340  0.4046 -1.1767
 1046SOL    HW2 7501   0.204   3.140   7.772  0.2401  0.2185 -0.2071
 1047SOL     OW 7502   7.059   4.243   1.252 -0.0957 -0.5832 -0.5912
 1047SOL    HW1 7503   7.063   4.222   1.159  0.4747  0.4348 -0.8106
 1047SOL    HW2 7504   7.018   4.166   1.292 -1.0193 -0.7367 -1.7711
 1048SOL     OW 7505   3.941   4.338  10.052  0.1199  0.0120 -0.4362
 1048SOL    HW1 7506   3.847   4.343  10.072 -0.1653  0.6526 -1.8534
 1048SOL    HW2 7507   3.983   4.376  10.130 -0.7810 -0.3043  0.2312
 1049SOL     OW 7508  10.068   1.932   1.340  1.0303 -0.0839 -0.0628
 1049SOL    HW1 7509  10.009   1.866   1.304  1.3720 -0.7287  0.5365
 1049SOL    HW2 7510  10.013   2.009   1.354  0.6704 -0.1636 -0.9631
 1050SOL     OW 7511   5.320   8.083   7.271 -0.3107 -0.1480  0.3928
 1050SOL    HW1 7512   5.247   8.050   7.323 -2.3164  3.4496  0.2518
 1050SOL    HW2 7513   5.389   8.101   7.336  0.1300 -2.6087  0.6774
 1051SOL     OW 7514   8.635   2.435   8.171 -0.2647  0.2127 -0.0979
 1051SOL    HW1 7515   8.702   2.370   8.155 -0.2459  0.5327 -1.4824
 1051SOL    HW2 7516   8.557   2.385   8.194  0.0100 -0.2463 -0.1687
 1052SOL     OW 7517   4.200   3.820   3.194  0.3766 -0.2496  0.0966
 1052SOL    HW1 7518   4.141   3.892   3.174  0.7648  0.0375 -0.0336
 1052SOL    HW2 7519   4.283   3.845   3.152  0.0385 -1.5914 -1.5055
 1053SOL     OW 7520   6.429   3.067   5.005  0.1336 -0.3093 -0.1049
 1053SOL    HW1 7521   6.481   2.987   5.009  1.2093  0.2788 -1.6275
 1053SOL    HW2 7522   6.353   3.043   4.952  0.7006 -0.2238 -0.9835
 1054SOL     OW 7523   2.229   9.354  10.444  0.0984  0.4792  0.3050
 1054SOL    HW1 7524   2.184   9.436  10.420 -2.5299 -1.3434 -1.4729
 1054SOL    HW2 7525   2.171   9.314  10.509  0.7146 -0.5612  0.2217
 1055SOL     OW 7526   7.522   7.662   3.388 -0.2452 -0.2066  0.4639
 1055SOL    HW1 7527   7.534   7.740   3.333  0.8090 -0.1000  0.8297
 1055SOL    HW2 7528   7.428   7.643   3.382 -0.4108  0.7290 -0.1172
 1056SOL     OW 7529   0.131   6.043   0.371 -0.7432 -0.1759  0.4630
 1056SOL    HW1 7530   0.162   6.133   0.382  3.6255 -1.3607 -0.2126
 1056SOL    HW2 7531   0.140   6.025   0.278 -0.5714 -1.6149  0.7332
 1057SOL     OW 7532   6.921   5.742   0.330  0.3087  0.3897  0.7039
 1057SOL    HW1 7533   6.943   5.783   0.413  0.3074 -0.6935  1.2647
 1057SOL    HW2 7534   6.829   5.718   0.339  0.3374  0.1755  0.4444
 1058SOL     OW 7535   7.269   9.036   4.267  0.2249 -0.0225 -0.3853
 1058SOL    HW1 7536   7.297   9.060   4.355  0.1688 -1.0729 -0.0669
 1058SOL    HW2 7537   7.188   9.086   4.253  1.8906  2.6675 -1.1337
 1059SOL     OW 7538   3.690   6.390   7.116 -0.0748 -0.0011  0.1098
 1059SOL    HW1 7539   3.773   6.343   7.117  0.3991  0.8165 -0.2009
 1059SOL    HW2 7540   3.690   6.439   7.034 -0.8032  0.1221  0.1729
 1060SOL     OW 7541   2.546   6.208   1.414 -0.8386  0.0773  0.1418
 1060SOL    HW1 7542   2.585   6.294   1.426 -0.4429 -0.3946  2.7581
 1060SOL    HW2 7543   2.496   6.193   1.493 -0.3274 -2.3860  0.0685
 1061SOL     OW 7544   7.867   6.371   1.822  0.1601  0.3302 -0.0364
 1061SOL    HW1 7545   7.921   6.293   1.834  1.4356  0.8996 -1.7801
 1061SOL    HW2 7546   7.808   6.349   1.750 -1.1669  0.1558  1.0559
 1062SOL     OW 7547  10.646   1.580   2.917 -0.2280 -0.0033 -0.2243
 1062SOL    HW1 7548  10.729   1.618   2.890  0.1053 -1.9394 -2.1982
 1062SOL    HW2 7549  10.667   1.530   2.996 -0.5772  3.2428  2.1041
 1063SOL     OW 7550   8.969   5.266   7.350 -0.0456 -0.3209 -0.1142
 1063SOL    HW1 7551   8.970   5.175   7.323 -1.5214  0.0503 -1.5426
 1063SOL    HW2 7552   9.059   5.283   7.379  0.3891 -2.0564 -0.3325
 1064SOL     OW 7553   1.209  10.692   2.706 -0.1755 -0.4593 -0.2512
 1064SOL    HW1 7554   1.161  10.672   2.625  1.9783 -2.2118 -1.2241
 1064SOL    HW2 7555   1.216  10.607   2.750  0.8247 -0.0028  0.5007
 1065SOL     OW 7556   0.128  10.966   9.573  0.5889  0.4821  0.0730
 1065SOL    HW1 7557   0.115  10.880   9.614  0.5395 -0.2319 -1.3903
 1065SOL    HW2 7558   0.192  10.951   9.504 -0.7062  1.2373 -1.3528
 1066SOL     OW 7559   2.680  10.600  10.020 -0.1972 -0.0806 -0.1745
 1066SOL    HW1 7560   2.621  10.525  10.021 -0.4335  0.1042  0.3786
 1066SOL    HW2 7561   2.632  10.668   9.974 -1.2246  0.6777  1.8662
 1067SOL     OW 7562   9.282   4.074   4.682 -0.2411 -0.0788 -0.1874
 1067SOL    HW1 7563   9.189   4.092   4.669 -0.0954  0.6382 -0.3039
 1067SOL    HW2 7564   9.289   3.979   4.684 -1.0312 -0.1297  0.2030
 1068SOL     OW 7565   9.169   6.794   9.356 -0.1765 -0.5347 -0.5021
 1068SOL    HW1 7566   9.161   6.856   9.283 -1.8059  0.1680  0.2247
 1068SOL    HW2 7567   9.190   6.849   9.432  1.2288 -1.2283 -0.3517
 1069SOL     OW 7568   0.608  10.723   7.012  0.9279 -0.0691  0.4895
 1069SOL    HW1 7569   0.644  10.804   7.048 -0.6596  0.6504  0.5305
 1069SOL    HW2 7570   0.596  10.742   6.919  0.7477 -0.3299  0.4582
 1070SOL     OW 7571   2.201   9.770   6.359 -0.2938 -0.0735  0.0652
 1070SOL    HW1 7572   2.272   9.744   6.418 -1.3910 -1.1058  0.9824
 1070SOL    HW2 7573   2.200   9.702   6.292 -1.3882 -0.9430  0.9261
 1071SOL     OW 7574   8.468   1.566   3.764 -0.1409 -0.8463  0.8579
 1071SOL    HW1 7575   8.499   1.656   3.757 -0.1405 -0.7774  1.6885
 1071SOL    HW2 7576   8.456   1.552   3.858 -0.2825 -1.6632  0.7225
 1072SOL     OW 7577   2.903   5.973   1.315  0.1582 -0.0283  0.2505
 1072SOL    HW1 7578   2.893   5.938   1.227  0.6647 -0.7168  0.4658
 1072SOL    HW2 7579   2.852   6.054   1.314 -1.5680 -1.0694 -0.0641
 1073SOL     OW 7580   0.884   8.540   4.573 -0.0060 -0.2845 -0.4109
 1073SOL    HW1 7581   0.913   8.450   4.585  1.0438 -0.0672 -1.0909
 1073SOL    HW2 7582   0.789   8.536   4.575  0.0446 -1.2274  0.7260
 1074SOL     OW 7583  10.256   1.661   1.311 -0.0629  0.1749 -0.3247
 1074SOL    HW1 7584  10.270   1.627   1.222 -1.5710  0.4538 -0.7032
 1074SOL    HW2 7585  10.169   1.628   1.335  0.2925  0.1843  1.0228
 1075SOL     OW 7586   9.664   2.918  10.303 -0.5585 -0.1558 -0.3100
 1075SOL    HW1 7587   9.718   2.959  10.236 -0.2880 -2.6730 -1.7631
 1075SOL    HW2 7588   9.727   2.884  10.367 -0.6647  0.0989 -0.0685
 1076SOL     OW 7589   9.756   0.561   5.944  0.6083 -0.0586  0.1617
 1076SOL    HW1 7590   9.726   0.540   5.856 -1.5232  1.3008  0.4814
 1076SOL    HW2 7591   9.794   0.649   5.935 -0.8352  0.6759  0.7548
 1077SOL     OW 7592   0.296   2.639   3.267  0.3679  0.2355  0.2337
 1077SOL    HW1 7593   0.319   2.550   3.293 -1.0209 -0.2945 -0.2671
 1077SOL    HW2 7594   0.233   2.628   3.196 -0.8729  1.5728  1.0446
 1078SOL     OW 7595   1.938   4.271   0.060 -0.6483 -0.3317 -0.0687
 1078SOL    HW1 7596   1.881   4.261  -0.017  1.2690 -0.2686 -1.5832
 1078SOL    HW2 7597   1.969   4.362   0.055  0.1390 -0.5739  0.3059
 1079SOL     OW 7598   5.608   1.581   6.155 -0.0657 -0.1555  0.1568
 1079SOL    HW1 7599   5.547   1.561   6.084  1.1915 -1.3013 -0.6349
 1079SOL    HW2 7600   5.556   1.570   6.235 -1.1596 -0.1015 -0.5244
 1080SOL     OW 7601   7.424   8.972   4.045  0.5100 -0.7887  0.7008
 1080SOL    HW1 7602   7.368   9.010   4.112 -0.9726  0.2554 -1.0190
 1080SOL    HW2 7603   7.487   9.041   4.025 -0.8088  0.0343 -0.8760
 1081SOL     OW 7604   2.304   7.466   8.757 -0.4436 -0.1758 -0.2116
 1081SOL    HW1 7605   2.261   7.502   8.835  0.2701 -1.4901  0.8244
 1081SOL    HW2 7606   2.376   7.526   8.739 -0.4569 -0.0025  0.2960
 1082SOL     OW 7607   1.101   5.921   2.421  0.0957  0.2748  0.1836
 1082SOL    HW1 7608   1.054   5.898   2.341 -0.1474  0.1275  0.3652
 1082SOL    HW2 7609   1.040   5.898   2.492  1.3385 -2.2319  0.5556
 1083SOL     OW 7610   2.447   7.532   6.693 -0.2017  0.0026  0.3912
 1083SOL    HW1 7611   2.508   7.460   6.673 -0.5098 -0.2072  0.1956
 1083SOL    HW2 7612   2.394   7.499   6.765 -0.8783 -0.2862 -0.2203
 1084SOL     OW 7613   0.475   3.415  10.235 -0.3811 -0.2497 -0.5489
 1084SOL    HW1 7614   0.515   3.452  10.314  1.5817 -2.0553 -0.6282
 1084SOL    HW2 7615   0.504   3.473  10.165 -0.4513  0.1842 -0.2293
 1085SOL     OW 7616   7.294   8.163  10.108 -0.5990  0.1160  0.1146
 1085SOL    HW1 7617   7.311   8.243  10.159 -0.9828  0.2234  0.0768
 1085SOL    HW2 7618   7.236   8.191  10.038  0.6841  0.1654 -0.9641
 1086SOL     OW 7619   9.623  10.422   8.050  0.2219  0.3422  0.3730
 1086SOL    HW1 7620   9.613  10.336   8.091  0.1363 -0.0744 -0.5221
 1086SOL    HW2 7621   9.534  10.459   8.052 -0.2945 -0.6724 -1.6009
 1087SOL     OW 7622   3.278   3.784   8.110  0.3569 -0.1964 -0.2000
 1087SOL    HW1 7623   3.339   3.818   8.045  0.2340  2.5700  0.9766
 1087SOL    HW2 7624   3.332   3.772   8.189  0.6395 -4.0782 -0.8070
 1088SOL     OW 7625   9.226   1.226  10.885 -0.2204 -0.6843  0.1774
 1088SOL    HW1 7626   9.153   1.165  10.895 -0.5205 -0.3134  0.2577
 1088SOL    HW2 7627   9.185   1.312  10.875  0.1069 -0.7001 -1.8801
 1089SOL     OW 7628  10.998   6.872   5.724 -0.0307 -0.1718  0.3141
 1089SOL    HW1 7629  10.971   6.957   5.688  1.2235  0.2948  0.4169
 1089SOL    HW2 7630  11.093   6.871   5.714  0.2532 -0.4863  2.6210
 1090SOL     OW 7631   5.070   0.978   3.231 -0.0931 -0.4038  0.4780
 1090SOL    HW1 7632   4.978   0.980   3.259 -0.2880 -0.4855 -0.1265
 1090SOL    HW2 7633   5.097   0.887   3.242  0.2189 -0.1901  1.5745
 1091SOL     OW 7634   4.330   8.944   7.629  0.1851  0.1234 -0.4473
 1091SOL    HW1 7635   4.341   8.952   7.724  0.7186 -1.8824 -0.2943
 1091SOL    HW2 7636   4.239   8.966   7.614  0.3015  1.2991  0.4071
 1092SOL     OW 7637   5.263   5.745   1.059  0.2224  0.2556  0.4273
 1092SOL    HW1 7638   5.197   5.738   0.990 -0.6989  0.9847  1.2020
 1092SOL    HW2 7639   5.234   5.820   1.111  3.4642  2.8206 -1.1180
 1093SOL     OW 7640   9.052   2.358   3.518  0.4458  0.4204 -0.3646
 1093SOL    HW1 7641   9.101   2.338   3.597  0.3558 -0.6347 -0.5594
 1093SOL    HW2 7642   9.077   2.289   3.456  1.5796  1.9653 -1.7485
 1094SOL     OW 7643   5.594   4.316   9.386 -0.3778  0.1603 -0.4475
 1094SOL    HW1 7644   5.661   4.294   9.451  0.2408 -0.8200 -1.3725
 1094SOL    HW2 7645   5.601   4.246   9.320 -0.4695  1.5095 -1.9498
 1095SOL     OW 7646  10.557   2.235   7.955  0.7662 -0.2562 -0.1947
 1095SOL    HW1 7647  10.641   2.220   7.999  0.3858 -1.1369  0.2622
 1095SOL    HW2 7648  10.492   2.226   8.024  0.1907 -1.1786 -0.8392
 1096SOL     OW 7649   7.408   6.131   1.026 -0.3430  0.8425  0.2798
 1096SOL    HW1 7650   7.414   6.223   1.000 -0.8388  0.7023 -0.3545
 1096SOL    HW2 7651   7.315   6.117   1.044 -0.0976  0.7755  1.5736
 1097SOL     OW 7652   2.061   8.762   8.088 -0.0360  0.0086  0.0172
 1097SOL    HW1 7653   2.097   8.839   8.131 -1.5981  1.7129 -1.5759
 1097SOL    HW2 7654   2.014   8.715   8.157  0.0855  1.0029  0.7930
 1098SOL     OW 7655   6.523   0.516  10.289 -0.7666  0.3018  0.4581
 1098SOL    HW1 7656   6.470   0.449  10.245  1.6332 -0.4513 -1.5110
 1098SOL    HW2 7657   6.562   0.471  10.364 -0.3304 -0.0928 -0.0019
 1099SOL     OW 7658   2.541   9.051   5.181  0.7064  0.3876 -0.4215
 1099SOL    HW1 7659   2.619   9.013   5.140  0.6967 -0.6856  0.5090
 1099SOL    HW2 7660   2.573   9.132   5.221  1.1096  0.5040 -0.9687
 1100SOL     OW 7661   5.899   1.662  10.184  0.5739  0.4051 -0.1363
 1100SOL    HW1 7662   5.916   1.571  10.207  1.8995  1.0516  1.6168
 1100SOL    HW2 7663   5.815   1.682  10.226  1.4925  0.6692  1.6904
 1101SOL     OW 7664   3.802  10.048   6.584 -0.5298  0.3949 -0.1673
 1101SOL    HW1 7665   3.733  10.074   6.523 -0.0261  0.7582 -0.5857
 1101SOL    HW2 7666   3.798  10.113   6.654 -0.5334  0.4773 -0.2456
 1102SOL     OW 7667   5.152   0.727   3.299  0.5512 -0.2130  0.5587
 1102SOL    HW1 7668   5.202   0.683   3.230 -2.2531 -1.0988 -1.0958
 1102SOL    HW2 7669   5.131   0.656   3.360 -0.5529 -0.3735  0.0203
 1103SOL     OW 7670   8.633   9.916   0.225  0.5664  0.3909  0.3066
 1103SOL    HW1 7671   8.608  10.005   0.251  3.8303  1.4921  0.1819
 1103SOL    HW2 7672   8.598   9.860   0.293  0.4791  2.0721  1.7167
 1104SOL     OW 7673   1.787   4.576   6.623  0.1318  0.3921  0.0639
 1104SOL    HW1 7674   1.872   4.610   6.650  1.4735 -1.7359 -1.1855
 1104SOL    HW2 7675   1.760   4.519   6.695  0.5801 -0.2226 -0.2475
 1105SOL     OW 7676   0.396   9.686   7.869  0.3953 -0.4574 -0.5927
 1105SOL    HW1 7677   0.474   9.731   7.902 -0.1166  0.0753 -0.0882
 1105SOL    HW2 7678   0.429   9.629   7.799  1.3488 -0.8122  0.1213
 1106SOL     OW 7679   0.564   6.951   3.548 -0.6305 -0.3266  0.4053
 1106SOL    HW1 7680   0.630   6.882   3.535 -0.2759  0.2745 -1.3210
 1106SOL    HW2 7681   0.543   6.980   3.459  0.2030  2.6723  1.0868
 1107SOL     OW 7682   7.424   7.589   8.689  0.4468  0.1840 -0.1132
 1107SOL    HW1 7683   7.436   7.639   8.608 -0.7245  0.2038 -0.2935
 1107SOL    HW2 7684   7.343   7.540   8.676  0.1139  0.3581  1.1313
 1108SOL     OW 7685   8.261  11.006   5.834 -0.7208  0.0231 -0.2541
 1108SOL    HW1 7686   8.299  10.971   5.754  0.8961  1.7811 -0.3215
 1108SOL    HW2 7687   8.310  11.087   5.851 -0.0164 -0.9738  3.2873
 1109SOL     OW 7688   4.108  10.993   1.519  0.0257  0.2611 -0.6218
 1109SOL    HW1 7689   4.074  10.913   1.479  0.3093 -0.7167  0.9962
 1109SOL    HW2 7690   4.078  11.063   1.461 -2.6683 -0.7373 -0.6063
 1110SOL     OW 7691   1.516   1.851   8.125  0.6631 -0.0490 -0.8986
 1110SOL    HW1 7692   1.578   1.780   8.107 -0.8384 -1.8669  0.6564
 1110SOL    HW2 7693   1.442   1.833   8.068  0.8461  1.1532 -1.5468
 1111SOL     OW 7694   7.597   4.385   6.971 -0.0477  0.4128  0.2211
 1111SOL    HW1 7695   7.543   4.396   7.050 -0.0312  1.4356  0.1064
 1111SOL    HW2 7696   7.662   4.455   6.978  1.8107 -1.2999  0.7732
 1112SOL     OW 7697   7.933   2.101   9.379  0.0662 -0.1282  0.2070
 1112SOL    HW1 7698   7.971   2.034   9.323  2.6772 -0.2729  2.0221
 1112SOL    HW2 7699   7.973   2.183   9.349 -0.5036  0.1696  0.2284
 1113SOL     OW 7700   1.277   5.489   3.994 -0.2039  0.6676 -0.3291
 1113SOL    HW1 7701   1.246   5.572   4.030  2.4932  1.3301  0.6983
 1113SOL    HW2 7702   1.367   5.481   4.025  0.0776 -2.0219 -1.5146
 1114SOL     OW 7703   5.164   3.842   1.483 -0.1089 -0.7300 -0.2634
 1114SOL    HW1 7704   5.111   3.912   1.445 -0.8085 -0.1293  1.7094
 1114SOL    HW2 7705   5.251   3.879   1.492 -0.3528 -0.2646  0.2741
 1115SOL     OW 7706   1.673   7.968   5.431  0.4199 -0.1003  0.0601
 1115SOL    HW1 7707   1.633   8.034   5.487  1.0190  0.3851 -0.0653
 1115SOL    HW2 7708   1.616   7.892   5.438 -1.8066  1.2667 -1.8933
 1116SOL     OW 7709   1.649  10.815  10.930  0.4152 -0.0637  0.3386
 1116SOL    HW1 7710   1.668  10.859  10.848  0.0941  0.8709  0.7496
 1116SOL    HW2 7711   1.639  10.723  10.907 -0.3300  0.2788 -0.7674
 1117SOL     OW 7712   6.293   4.663   8.713  0.0590 -0.1227  0.4669
 1117SOL    HW1 7713   6.232   4.721   8.667 -0.1185 -0.9310 -0.3379
 1117SOL    HW2 7714   6.370   4.657   8.656  0.4181 -0.0296  0.9313
 1118SOL     OW 7715  10.372   7.387   5.602  0.4443 -0.2374  0.3561
 1118SOL    HW1 7716  10.296   7.398   5.658 -0.0506 -0.6433 -0.2184
 1118SOL    HW2 7717  10.435   7.452   5.633 -0.0758 -0.0047  0.9352
 1119SOL     OW 7718   4.350   5.160   1.650  0.0068  0.3815  0.0643
 1119SOL    HW1 7719   4.272   5.137   1.701  0.0213  0.6703  0.2237
 1119SOL    HW2 7720   4.316   5.207   1.574  0.0139  0.3647  0.0512
 1120SOL     OW 7721   3.301   3.397  10.610  0.0442 -0.1660 -0.0762
 1120SOL    HW1 7722   3.376   3.366  10.660  0.6879  0.5850 -0.5487
 1120SOL    HW2 7723   3.331   3.398  10.519 -0.3066  0.7774 -0.1922
 1121SOL     OW 7724   7.967   1.663   6.993  0.0422  0.6531 -0.0816
 1121SOL    HW1 7725   7.981   1.647   6.900 -1.8238  1.6042 -0.5840
 1121SOL    HW2 7726   8.005   1.587   7.037  0.5117 -0.0569 -1.6494
 1122SOL     OW 7727   5.729   4.534   7.517 -0.7266 -0.0996 -0.0775
 1122SOL    HW1 7728   5.764   4.455   7.475 -0.2752 -0.2296  0.5213
 1122SOL    HW2 7729   5.692   4.503   7.600 -2.0351  0.0819 -0.5704
 1123SOL     OW 7730   1.697   9.819   9.652 -0.6560 -0.6643 -0.5236
 1123SOL    HW1 7731   1.745   9.892   9.613 -0.3096 -1.4361 -1.5747
 1123SOL    HW2 7732   1.641   9.786   9.581 -1.4163 -0.9202  0.1716
 1124SOL     OW 7733   1.206   8.645   2.565  0.4903 -0.5289  0.0254
 1124SOL    HW1 7734   1.245   8.677   2.483  0.8601 -1.3314 -0.1164
 1124SOL    HW2 7735   1.164   8.563   2.541 -1.4222  0.3569  0.1505
 1125SOL     OW 7736   0.598   3.779  10.616 -0.7334 -0.1902 -0.2282
 1125SOL    HW1 7737   0.566   3.816  10.698 -0.5051 -1.3464  0.4082
 1125SOL    HW2 7738   0.671   3.835  10.591 -0.7340  0.1085  0.4152
 1126SOL     OW 7739   4.835   7.797   6.242 -0.4327 -0.1773  0.4110
 1126SOL    HW1 7740   4.774   7.845   6.187 -0.2783 -0.6901 -0.2297
 1126SOL    HW2 7741   4.791   7.714   6.260 -0.4598 -0.0364  1.0317
 1127SOL     OW 7742   6.056  10.672   8.264 -0.4499  0.7452 -0.3044
 1127SOL    HW1 7743   6.029  10.746   8.209 -2.0497  1.2308  1.0395
 1127SOL    HW2 7744   6.095  10.713   8.341  1.9111  0.0646 -1.0488
 1128SOL     OW 7745  10.236   5.945   4.267  0.3945  0.1101 -0.0548
 1128SOL    HW1 7746  10.310   5.973   4.320  0.5930  0.2888 -0.4222
 1128SOL    HW2 7747  10.199   5.870   4.315  0.9520 -0.1294  0.0101
 1129SOL     OW 7748   6.143   1.695   4.230  0.1737  0.3690 -0.8665
 1129SOL    HW1 7749   6.138   1.608   4.192 -3.5278  0.6048 -1.2631
 1129SOL    HW2 7750   6.099   1.688   4.314 -2.2453  2.1901 -1.8533
 1130SOL     OW 7751  10.425   9.995  10.826 -0.9672 -0.4036 -0.5103
 1130SOL    HW1 7752  10.379  10.070  10.863 -1.6931 -1.0929  0.0020
 1130SOL    HW2 7753  10.377   9.975  10.745 -2.2250 -1.7280  0.5106
 1131SOL     OW 7754  10.291   4.387   0.779 -0.0046  0.0674 -0.2983
 1131SOL    HW1 7755  10.212   4.393   0.726 -2.2475 -2.3798  2.4105
 1131SOL    HW2 7756  10.302   4.293   0.796  1.3112  0.6110  2.3933
 1132SOL     OW 7757   7.598  11.013  10.736 -0.0721  0.6429 -0.0441
 1132SOL    HW1 7758   7.646  10.942  10.692  1.3469  1.8494 -0.5263
 1132SOL    HW2 7759   7.571  11.071  10.665 -1.0807  0.6831  0.3586
 1133SOL     OW 7760   0.840  10.844   6.024 -0.0088 -0.4157  0.2021
 1133SOL    HW1 7761   0.887  10.782   5.967 -1.2453  0.0837 -1.4584
 1133SOL    HW2 7762   0.901  10.916   6.036  0.0009 -0.1455 -1.2399
 1134SOL     OW 7763   5.323   0.220   5.288  0.3311  0.3393  0.5518
 1134SOL    HW1 7764   5.379   0.167   5.232 -0.6570 -0.5669  0.3911
 1134SOL    HW2 7765   5.338   0.310   5.259 -0.6235 -0.1397 -1.6397
 1135SOL     OW 7766   4.599   9.555   3.339 -0.4449 -0.8873 -0.0934
 1135SOL    HW1 7767   4.683   9.558   3.385 -1.4377  1.0561  1.7702
 1135SOL    HW2 7768   4.611   9.611   3.262 -0.3505  0.4732  0.8685
 1136SOL     OW 7769   5.100   6.386   5.768  0.2424 -0.7632  0.1113
 1136SOL    HW1 7770   5.120   6.476   5.792 -0.9823 -0.6298  0.6879
 1136SOL    HW2 7771   5.122   6.380   5.674 -0.5198  0.3824 -0.1480
 1137SOL     OW 7772   9.270   8.161  10.286  0.2524 -0.6070 -0.0166
 1137SOL    HW1 7773   9.231   8.148  10.199  1.9872 -1.2219 -0.7411
 1137SOL    HW2 7774   9.244   8.250  10.311 -0.0027 -0.3050 -1.3042
 1138SOL     OW 7775   0.185   0.449   5.706  0.7834 -0.6283  0.0139
 1138SOL    HW1 7776   0.233   0.458   5.624 -0.8680  0.4880 -0.9129
 1138SOL    HW2 7777   0.126   0.525   5.707 -1.9937 -2.6296  0.2973
 1139SOL     OW 7778   4.111   6.597   2.143 -0.3332 -0.0525  0.1932
 1139SOL    HW1 7779   4.071   6.556   2.220  1.0060 -0.2620  0.8193
 1139SOL    HW2 7780   4.038   6.621   2.087 -1.2685 -1.1168  0.9249
 1140SOL     OW 7781   1.827   8.425   2.619  0.1529  0.2141  0.4717
 1140SOL    HW1 7782   1.922   8.413   2.622  0.1631  0.4311  1.0632
 1140SOL    HW2 7783   1.802   8.399   2.530  1.0008  1.9562 -0.3246
 1141SOL     OW 7784  10.905   7.403   3.195  0.3101 -0.0360  0.1658
 1141SOL    HW1 7785  10.855   7.405   3.277 -0.0503  2.8401 -0.0067
 1141SOL    HW2 7786  10.839   7.413   3.126  0.6013 -2.5192 -0.5723
 1142SOL     OW 7787   4.528   5.631   0.463  0.2326  0.0257 -0.7025
 1142SOL    HW1 7788   4.556   5.674   0.544  1.9086 -3.2230  0.6291
 1142SOL    HW2 7789   4.606   5.587   0.430 -1.3157 -2.0858 -1.8226
 1143SOL     OW 7790   5.879   5.708   9.161 -0.0905 -0.0713 -0.1140
 1143SOL    HW1 7791   5.850   5.777   9.102 -1.9341  0.2872  1.0996
 1143SOL    HW2 7792   5.922   5.755   9.233 -1.0762 -0.1538  0.5613
 1144SOL     OW 7793   0.948   7.796   6.007  0.4154  0.7248  0.0319
 1144SOL    HW1 7794   1.013   7.824   6.071  2.1725 -1.6684 -0.5359
 1144SOL    HW2 7795   0.909   7.717   6.046 -1.8629  1.8177  0.1254
 1145SOL     OW 7796   3.793   1.898   6.070  0.0008 -0.1399  0.3345
 1145SOL    HW1 7797   3.857   1.942   6.126  0.0400 -0.4328  0.5229
 1145SOL    HW2 7798   3.712   1.901   6.119  0.0375 -0.4062  0.4149
 1146SOL     OW 7799   5.654   0.756   2.542 -0.4260 -0.7947  0.1577
 1146SOL    HW1 7800   5.599   0.725   2.470  0.0103 -0.5435 -0.2918
 1146SOL    HW2 7801   5.673   0.847   2.520  0.5525 -1.0096  0.0556
 1147SOL     OW 7802   9.651   4.715   1.808  0.2709  0.2370  0.1088
 1147SOL    HW1 7803   9.681   4.804   1.827  0.1339  0.8968 -2.4090
 1147SOL    HW2 7804   9.722   4.659   1.840  0.5784  1.2606  1.3066
 1148SOL     OW 7805   8.890  10.292   2.900 -0.2005  0.3260  0.1065
 1148SOL    HW1 7806   8.881  10.345   2.980 -0.8266  0.8633 -0.3087
 1148SOL    HW2 7807   8.976  10.251   2.908  0.4282  1.6405  0.3106
 1149SOL     OW 7808   1.599   8.138   7.179  0.3510  0.1906  0.2120
 1149SOL    HW1 7809   1.669   8.095   7.228  1.6834  0.0845 -1.7021
 1149SOL    HW2 7810   1.520   8.089   7.202  1.5160 -2.1434 -0.4863
 1150SOL     OW 7811   5.010  10.274   8.932  0.1643 -0.2609 -0.0385
 1150SOL    HW1 7812   4.963  10.231   8.860 -0.2462  1.5514 -0.9056
 1150SOL    HW2 7813   5.041  10.356   8.894  3.1587 -0.8918  0.8284
 1151SOL     OW 7814   2.090  10.534   6.560  0.2410  0.2511 -0.0608
 1151SOL    HW1 7815   2.033  10.570   6.492  1.9503  1.1841 -1.0758
 1151SOL    HW2 7816   2.138  10.609   6.594  1.2791 -0.5663  0.3436
 1152SOL     OW 7817   6.615   6.915  10.977 -0.4374  0.5452  0.0361
 1152SOL    HW1 7818   6.702   6.879  10.963  0.3655  1.9738  1.0510
 1152SOL    HW2 7819   6.556   6.852  10.938  1.0926 -0.1255 -1.2869
 1153SOL     OW 7820   5.740   6.733  10.534 -0.0980 -0.3030 -0.3842
 1153SOL    HW1 7821   5.694   6.805  10.578  3.7196  1.7487  0.7567
 1153SOL    HW2 7822   5.781   6.774  10.458  2.4902 -1.0775  0.4992
 1154SOL     OW 7823   4.880   5.613   1.993 -0.0245 -0.6333  0.0179
 1154SOL    HW1 7824   4.932   5.538   1.964  0.2100 -0.1640 -0.8273
 1154SOL    HW2 7825   4.898   5.681   1.928  0.0695  0.2840  0.9766
 1155SOL     OW 7826   5.100   8.392   8.959 -0.5455 -0.4496 -0.3258
 1155SOL    HW1 7827   5.159   8.368   8.888 -0.6076  0.1755 -0.6017
 1155SOL    HW2 7828   5.040   8.318   8.967  0.2012 -1.0474 -0.1141
 1156SOL     OW 7829   4.286  10.441   8.683  0.0139  0.3696  0.1957
 1156SOL    HW1 7830   4.355  10.506   8.669 -0.0007  0.1877 -0.8434
 1156SOL    HW2 7831   4.330  10.357   8.676 -0.3040  0.2519 -0.4671
 1157SOL     OW 7832   0.211   0.640   2.361 -0.0439  0.5273  0.0123
 1157SOL    HW1 7833   0.208   0.617   2.268 -0.9862  1.4264 -0.1981
 1157SOL    HW2 7834   0.280   0.707   2.366  2.0250 -1.5142  0.4688
 1158SOL     OW 7835   0.561   1.912   0.621  0.0003  0.3615 -0.0642
 1158SOL    HW1 7836   0.527   1.866   0.698  1.8798 -2.2812 -0.6767
 1158SOL    HW2 7837   0.604   1.989   0.657  1.1523 -0.9974  1.6205
 1159SOL     OW 7838   6.429   7.114   7.321 -0.0716 -0.3776  0.5033
 1159SOL    HW1 7839   6.454   7.034   7.367 -0.9084 -0.3393  1.0634
 1159SOL    HW2 7840   6.488   7.119   7.246  0.9115 -0.7738  1.2345
 1160SOL     OW 7841  10.985   2.879   5.966 -0.1672 -0.4769 -0.2076
 1160SOL    HW1 7842  11.045   2.821   6.012  0.9652  0.2828 -0.6719
 1160SOL    HW2 7843  11.015   2.878   5.875  0.6023  1.6231 -0.0537
 1161SOL     OW 7844   3.084   4.896   4.084  0.2128  0.9014 -0.0988
 1161SOL    HW1 7845   3.161   4.863   4.130 -0.3597  1.7196  1.5508
 1161SOL    HW2 7846   3.033   4.818   4.062  1.6899  0.3057 -1.6522
 1162SOL     OW 7847   9.866   7.937   2.929 -0.1565 -0.0229  0.4040
 1162SOL    HW1 7848   9.848   8.030   2.945 -0.0947 -0.0404  0.5816
 1162SOL    HW2 7849   9.946   7.920   2.977  0.5985  0.1640 -0.7570
 1163SOL     OW 7850   2.520   6.432   0.829 -0.6558  0.2204  0.3219
 1163SOL    HW1 7851   2.565   6.355   0.864 -0.9978 -0.0305  0.2113
 1163SOL    HW2 7852   2.582   6.504   0.843 -0.3131 -0.0810  0.3784
 1164SOL     OW 7853  10.242   8.953   3.751 -0.6227 -0.3991  0.0553
 1164SOL    HW1 7854  10.197   9.034   3.727 -0.0252 -0.3515 -0.9640
 1164SOL    HW2 7855  10.190   8.916   3.822 -0.8754  0.9047  0.5715
 1165SOL     OW 7856   2.944   5.024   7.562  0.1795 -0.2889 -0.1522
 1165SOL    HW1 7857   2.983   4.971   7.631  2.0069  2.1017  0.7665
 1165SOL    HW2 7858   2.988   4.995   7.482  0.9007 -0.4489  0.2892
 1166SOL     OW 7859   5.932   3.146   3.536 -0.4665 -0.5028 -0.4423
 1166SOL    HW1 7860   5.913   3.236   3.566  0.8924 -0.2616 -0.2142
 1166SOL    HW2 7861   5.938   3.095   3.617  0.0261 -0.5200 -0.4841
 1167SOL     OW 7862   8.100  10.739   2.240  0.2058 -0.6264  0.2211
 1167SOL    HW1 7863   8.153  10.733   2.319 -0.8023 -1.2411  0.8646
 1167SOL    HW2 7864   8.095  10.650   2.207 -0.1978 -0.5329  0.0192
 1168SOL     OW 7865   6.803   9.522   8.768  0.1713  0.3331  0.0556
 1168SOL    HW1 7866   6.830   9.599   8.718 -1.1687  0.4704 -0.4802
 1168SOL    HW2 7867   6.734   9.482   8.715 -1.6782  0.7775  2.0012
 1169SOL     OW 7868  10.576   3.325   4.750  0.3264  0.3613 -0.4454
 1169SOL    HW1 7869  10.635   3.362   4.684 -0.4180 -0.3359 -1.5337
 1169SOL    HW2 7870  10.501   3.292   4.699 -2.2386  3.3891  1.0421
 1170SOL     OW 7871   8.346   9.954   3.272 -0.4356  0.1905 -0.4436
 1170SOL    HW1 7872   8.339  10.040   3.231  0.0301  0.4051 -0.0841
 1170SOL    HW2 7873   8.324   9.969   3.364 -3.4319 -0.6287 -0.9063
 1171SOL     OW 7874   9.548   7.054   4.173  0.4363  0.1631 -0.8184
 1171SOL    HW1 7875   9.596   6.976   4.204  0.2292  0.5691  0.6339
 1171SOL    HW2 7876   9.613   7.104   4.124  1.4260  0.4646  0.7095
 1172SOL     OW 7877   8.712   9.720   3.740  0.1048 -0.0638  0.2579
 1172SOL    HW1 7878   8.630   9.733   3.788  0.6177 -2.3172  1.9039
 1172SOL    HW2 7879   8.726   9.803   3.694 -2.8506  0.5467  0.2465
 1173SOL     OW 7880   8.628   3.260   6.836 -0.1601 -0.9218  0.1861
 1173SOL    HW1 7881   8.629   3.346   6.793  2.0224 -1.1963 -0.4353
 1173SOL    HW2 7882   8.559   3.267   6.902  0.5603  1.6478  0.7788
 1174SOL     OW 7883   6.945   9.965   7.039  0.0626 -0.2195  0.1979
 1174SOL    HW1 7884   6.906  10.036   7.090  0.6456  0.1748  0.1095
 1174SOL    HW2 7885   6.923   9.986   6.948  1.2802  0.5497  0.0488
 1175SOL     OW 7886   4.504   1.185   6.833  0.4743 -0.0842 -0.9146
 1175SOL    HW1 7887   4.596   1.158   6.840  1.2251  2.0396 -1.4420
 1175SOL    HW2 7888   4.482   1.170   6.741  0.3142 -0.5611 -0.7964
 1176SOL     OW 7889   9.306   5.291   9.508 -0.4134 -0.1786 -0.3438
 1176SOL    HW1 7890   9.324   5.377   9.546  0.8371 -0.9868  0.9903
 1176SOL    HW2 7891   9.227   5.261   9.554 -0.0944 -0.2883  0.1387
 1177SOL     OW 7892   6.171   5.243   9.242 -0.0403  0.0169 -0.2055
 1177SOL    HW1 7893   6.138   5.320   9.288 -0.0921 -0.1071 -0.0340
 1177SOL    HW2 7894   6.092   5.195   9.215 -0.0005 -0.5415  0.6482
 1178SOL     OW 7895   0.064   9.633   5.397 -0.2664  0.4239  0.4323
 1178SOL    HW1 7896   0.035   9.559   5.344 -0.3264  0.4146  0.4778
 1178SOL    HW2 7897   0.043   9.607   5.487 -0.5998  0.6365  0.4207
 1179SOL     OW 7898   8.046   1.337  10.516 -0.1723  0.0344  0.4229
 1179SOL    HW1 7899   7.962   1.317  10.557  0.2831 -0.8733  0.9431
 1179SOL    HW2 7900   8.093   1.386  10.583 -0.0091 -0.1083  0.4129
 1180SOL     OW 7901   6.618   2.411   0.955  0.0295  0.2346  0.2530
 1180SOL    HW1 7902   6.594   2.434   1.045  0.4318  0.7632  0.2241
 1180SOL    HW2 7903   6.694   2.465   0.935 -0.3548  0.4787 -0.5836
 1181SOL     OW 7904   5.435   0.610   5.986  0.1017  0.4501  0.3989
 1181SOL    HW1 7905   5.451   0.520   6.015  0.5584  0.6771  0.8684
 1181SOL    HW2 7906   5.347   0.631   6.018 -0.7331 -0.4097 -1.1981
 1182SOL     OW 7907   6.390   4.108   9.760  0.1612  0.0030  0.1688
 1182SOL    HW1 7908   6.422   4.187   9.717  1.6160 -1.2005 -1.0855
 1182SOL    HW2 7909   6.450   4.039   9.732 -1.7258 -1.7868  0.2736
 1183SOL     OW 7910  10.173   3.084   5.510 -0.2285 -0.5366  0.3609
 1183SOL    HW1 7911  10.130   3.140   5.575 -1.1356  0.7099 -1.2306
 1183SOL    HW2 7912  10.111   3.015   5.492 -0.3037 -0.4409  0.2541
 1184SOL     OW 7913   3.387   6.366   7.472  0.2752  0.3058  0.7542
 1184SOL    HW1 7914   3.293   6.353   7.490  0.0864  0.3187 -0.1855
 1184SOL    HW2 7915   3.411   6.292   7.416  0.4876  1.0681 -0.1695
 1185SOL     OW 7916   0.217   7.146   7.915  0.1427 -0.5595 -0.5183
 1185SOL    HW1 7917   0.217   7.215   7.982 -0.3197 -0.9675 -0.0883
 1185SOL    HW2 7918   0.124   7.127   7.900  0.2700 -1.2239 -0.4881
 1186SOL     OW 7919   7.250   4.801   5.568  0.4815 -0.5099  0.3928
 1186SOL    HW1 7920   7.156   4.812   5.551  0.7019  0.2323 -0.4735
 1186SOL    HW2 7921   7.257   4.721   5.619 -0.6416 -0.4819  0.6058
 1187SOL     OW 7922  10.610   5.599   9.972 -0.0267  0.2353 -0.0043
 1187SOL    HW1 7923  10.618   5.591  10.067  0.6842 -0.3520 -0.1028
 1187SOL    HW2 7924  10.699   5.582   9.939  0.1614  2.2184 -0.6687
 1188SOL     OW 7925  10.007   9.952   3.904  0.2642  0.1189  0.0539
 1188SOL    HW1 7926  10.030   9.909   3.986 -1.2001 -1.2442 -0.2074
 1188SOL    HW2 7927  10.088   9.951   3.853  0.6730 -0.9139  0.6841
 1189SOL     OW 7928   0.776   7.771   3.693 -0.0374 -0.5008 -0.5807
 1189SOL    HW1 7929   0.692   7.771   3.649  0.2048 -0.8586 -1.0567
 1189SOL    HW2 7930   0.767   7.706   3.763 -0.2624 -0.2923 -0.4147
 1190SOL     OW 7931   8.930   8.331   5.668  0.4840 -0.6808  0.1554
 1190SOL    HW1 7932   8.897   8.312   5.756 -0.1342 -2.4893 -0.4141
 1190SOL    HW2 7933   8.859   8.377   5.625  0.3109 -0.8740  0.2331
 1191SOL     OW 7934   7.993   1.075  11.038  0.6497 -0.3293 -0.3410
 1191SOL    HW1 7935   8.013   1.167  11.023  2.4627 -0.7694 -0.8486
 1191SOL    HW2 7936   8.053   1.028  10.980  0.7457 -1.8637  0.9547
 1192SOL     OW 7937   6.245  10.618   6.470  0.5081 -0.1810  0.1084
 1192SOL    HW1 7938   6.172  10.662   6.513  0.0124  2.0078 -2.6911
 1192SOL    HW2 7939   6.322  10.643   6.521 -0.3296 -0.0895  1.3784
 1193SOL     OW 7940  11.047   2.624   0.851  0.0495 -0.1717  0.7771
 1193SOL    HW1 7941  11.065   2.606   0.943 -2.6565 -0.6108  1.3114
 1193SOL    HW2 7942  10.958   2.658   0.850 -0.1368 -0.5087 -1.7197
 1194SOL     OW 7943   3.706   2.554   8.341  0.4359  0.2123  0.3826
 1194SOL    HW1 7944   3.687   2.486   8.406  2.7853 -0.6155  0.3037
 1194SOL    HW2 7945   3.665   2.523   8.261 -1.7168  0.8007  1.1647
 1195SOL     OW 7946   7.865  10.010   0.194  0.1111 -0.1495 -0.2975
 1195SOL    HW1 7947   7.940  10.060   0.162 -1.2682  0.3048 -3.1331
 1195SOL    HW2 7948   7.806  10.076   0.231  0.6057 -0.3822  0.9509
 1196SOL     OW 7949   2.486   5.087   0.463 -0.5113  0.4913  0.5276
 1196SOL    HW1 7950   2.545   5.162   0.456 -0.2263  0.4892  2.3679
 1196SOL    HW2 7951   2.543   5.014   0.485 -0.3701 -1.0186 -3.8890
 1197SOL     OW 7952   3.936   4.801   0.110 -0.0061 -0.1068 -0.2848
 1197SOL    HW1 7953   3.858   4.803   0.166  1.0298  2.5270  1.2570
 1197SOL    HW2 7954   3.988   4.728   0.143 -0.7605 -0.4508  0.1695
 1198SOL     OW 7955  10.227   0.591   3.003 -0.5207  0.3323  0.3596
 1198SOL    HW1 7956  10.214   0.643   2.923 -1.1796 -0.7105 -0.2286
 1198SOL    HW2 7957  10.299   0.635   3.049 -0.0220  0.8523 -0.8863
 1199SOL     OW 7958   8.152  10.731  10.811  0.3959  0.2800 -0.0717
 1199SOL    HW1 7959   8.167  10.684  10.728 -0.9155 -1.0530  0.4118
 1199SOL    HW2 7960   8.151  10.662  10.877 -1.2812  0.9962  0.7020
 1200SOL     OW 7961   2.844   5.350   9.286  0.0702  0.4697  0.1038
 1200SOL    HW1 7962   2.930   5.356   9.245  0.8850 -0.6569  1.5511
 1200SOL    HW2 7963   2.788   5.309   9.220  1.5065 -1.8924  0.2728
 1201SOL     OW 7964   6.715   1.389   5.541 -0.1650 -0.1524  0.2185
 1201SOL    HW1 7965   6.786   1.410   5.602 -0.0959 -2.6658  1.1251
 1201SOL    HW2 7966   6.688   1.474   5.505  2.9778  0.9498  0.1557
 1202SOL     OW 7967   4.225   0.634   7.069  0.1763  0.3827  0.2619
 1202SOL    HW1 7968   4.154   0.598   7.015 -0.2653  1.5509  0.0331
 1202SOL    HW2 7969   4.300   0.577   7.051 -0.3655 -0.1250 -0.4456
 1203SOL     OW 7970  10.085   3.597   4.300 -0.5429 -0.2940 -0.5487
 1203SOL    HW1 7971  10.107   3.639   4.383 -0.5053 -1.0947 -0.1452
 1203SOL    HW2 7972  10.023   3.657   4.258 -1.4926 -0.4404  0.6004
 1204SOL     OW 7973   9.529  10.647   4.502 -0.2444 -0.1566  0.6035
 1204SOL    HW1 7974   9.620  10.659   4.475  0.0604 -0.1275  1.5952
 1204SOL    HW2 7975   9.485  10.612   4.425  0.8559 -1.2346  0.4342
 1205SOL     OW 7976   2.581   4.221   3.438 -0.2623  0.1838 -0.3050
 1205SOL    HW1 7977   2.620   4.259   3.359 -0.9986  2.0406  0.1561
 1205SOL    HW2 7978   2.614   4.276   3.510 -2.9185  1.3060  0.1915
 1206SOL     OW 7979   1.109   1.329   5.230  0.0403  0.0087  0.2478
 1206SOL    HW1 7980   1.132   1.236   5.223  1.5271  0.4134 -0.6757
 1206SOL    HW2 7981   1.169   1.363   5.297 -0.7756  0.2340  0.8777
 1207SOL     OW 7982   3.231   6.871   4.500 -0.0522  0.5594  0.0592
 1207SOL    HW1 7983   3.189   6.838   4.420 -0.1438 -0.1174  0.3780
 1207SOL    HW2 7984   3.178   6.836   4.571  0.3976  0.6312  0.4342
 1208SOL     OW 7985   2.292   5.976   1.631 -0.2062  0.0996  0.4800
 1208SOL    HW1 7986   2.246   5.957   1.713  0.9706  0.9028  1.3608
 1208SOL    HW2 7987   2.384   5.960   1.651 -0.0419 -1.2374 -1.1795
 1209SOL     OW 7988  10.111   5.221   9.303 -0.1170 -0.3205  0.5119
 1209SOL    HW1 7989  10.073   5.134   9.318  2.5019 -1.5088  1.0337
 1209SOL    HW2 7990  10.189   5.203   9.250  1.0306  1.6024  1.4499
 1210SOL     OW 7991   0.767   1.736   4.617  0.1864 -0.2071  0.5390
 1210SOL    HW1 7992   0.761   1.831   4.606  2.1238 -0.2004 -0.9387
 1210SOL    HW2 7993   0.792   1.725   4.709  2.9917  0.9516  0.0023
 1211SOL     OW 7994   2.599   9.537   9.981 -0.4105 -0.3155 -0.2299
 1211SOL    HW1 7995   2.523   9.497  10.022  0.2316  0.5966  1.9637
 1211SOL    HW2 7996   2.619   9.613  10.035  0.6714  0.8315 -2.1111
 1212SOL     OW 7997   3.928   8.274   5.031  0.2544  0.0637  0.3879
 1212SOL    HW1 7998   3.986   8.225   5.089  2.3204  0.2789 -1.3626
 1212SOL    HW2 7999   3.871   8.208   4.992  1.1510 -0.5887  0.1346
 1213SOL     OW 8000  10.331   1.225   9.662  0.7793 -0.7129 -0.3221
 1213SOL    HW1 8001  10.320   1.275   9.743  2.9174 -1.3383  0.4167
 1213SOL    HW2 8002  10.295   1.139   9.682  1.8052 -1.0409  0.1918
 1214SOL     OW 8003   1.436   9.146   6.054 -0.2850 -0.2653  0.0516
 1214SOL    HW1 8004   1.455   9.053   6.064  0.7687 -0.0719 -0.0394
 1214SOL    HW2 8005   1.394   9.171   6.137 -0.9095 -0.8969 -0.0737
 1215SOL     OW 8006  10.680   4.276   5.172  0.1661  0.3770  0.9771
 1215SOL    HW1 8007  10.716   4.187   5.177  0.5266  0.4036 -0.8153
 1215SOL    HW2 8008  10.755   4.331   5.149 -0.1779  1.0827  1.5084
 1216SOL     OW 8009   7.360   5.900   8.309 -0.0040 -0.0478 -0.3115
 1216SOL    HW1 8010   7.356   5.881   8.402  4.9265  0.9845  0.3788
 1216SOL    HW2 8011   7.360   5.813   8.267 -1.9448 -0.5218  0.5514
 1217SOL     OW 8012   3.104   4.811   6.311 -0.9874  0.1247 -0.1224
 1217SOL    HW1 8013   3.048   4.880   6.275 -0.1236  0.7719 -0.2580
 1217SOL    HW2 8014   3.158   4.855   6.377 -1.4114 -0.7199  0.8225
 1218SOL     OW 8015   4.998   9.436   0.316 -1.2094 -0.1222 -0.0029
 1218SOL    HW1 8016   4.907   9.460   0.300 -0.4460  2.4242 -1.0414
 1218SOL    HW2 8017   5.038   9.433   0.229 -0.1039 -0.3874  0.4877
 1219SOL     OW 8018   5.043   4.381   4.495  0.3350  0.0281  0.0733
 1219SOL    HW1 8019   4.954   4.392   4.530  0.6177 -0.5835  1.0302
 1219SOL    HW2 8020   5.090   4.333   4.563  1.5154  0.6611 -0.2634
 1220SOL     OW 8021   3.094   8.799   3.352  0.4621 -0.0703 -0.2066
 1220SOL    HW1 8022   3.139   8.876   3.387  2.1764 -0.6466 -1.0113
 1220SOL    HW2 8023   3.111   8.802   3.258 -0.1133 -1.0000 -0.3511
 1221SOL     OW 8024   7.803   2.090   0.866  0.6601  0.9431  0.4687
 1221SOL    HW1 8025   7.747   2.154   0.822  0.9597  1.1407  0.3801
 1221SOL    HW2 8026   7.749   2.011   0.870  0.6514  0.9004 -0.3210
 1222SOL     OW 8027   8.984   8.094   6.577  0.2096  0.4954 -0.3140
 1222SOL    HW1 8028   9.056   8.158   6.579 -0.2819  1.0577 -0.1979
 1222SOL    HW2 8029   8.905   8.148   6.567 -0.2926 -0.0314  0.6809
 1223SOL     OW 8030  11.057   1.885   1.911 -0.5556  0.2017  0.0324
 1223SOL    HW1 8031  11.045   1.966   1.961  1.5000  1.1514 -0.8847
 1223SOL    HW2 8032  11.151   1.870   1.912 -0.3664  0.3218 -3.4987
 1224SOL     OW 8033   3.571   6.929   9.856 -0.0229 -0.3314 -0.7166
 1224SOL    HW1 8034   3.486   6.931   9.814 -0.2203 -1.3621 -0.3952
 1224SOL    HW2 8035   3.616   7.008   9.825 -1.4996  0.8320  0.0012
 1225SOL     OW 8036   7.657   0.873   1.507  0.2951 -0.7663 -0.6886
 1225SOL    HW1 8037   7.747   0.866   1.537  0.1883 -0.5304 -0.3193
 1225SOL    HW2 8038   7.605   0.884   1.587 -0.0724 -1.0180 -0.8882
 1226SOL     OW 8039  10.638   6.904   7.613 -0.0401 -0.1427  0.3786
 1226SOL    HW1 8040  10.682   6.933   7.532  1.8645  0.2320  1.4860
 1226SOL    HW2 8041  10.591   6.981   7.644 -1.3932 -0.4898 -0.7185
 1227SOL     OW 8042   8.362   3.248  10.842  0.2088  0.2322  0.0161
 1227SOL    HW1 8043   8.300   3.315  10.813 -0.7883 -0.0038  1.4581
 1227SOL    HW2 8044   8.447   3.290  10.836 -0.0487  0.5498 -2.0874
 1228SOL     OW 8045  10.180   5.224   0.126  0.0141  0.1466  0.0401
 1228SOL    HW1 8046  10.240   5.192   0.192  0.8563  0.2511 -0.6515
 1228SOL    HW2 8047  10.099   5.176   0.141  0.7499 -1.1496  0.0188
 1229SOL     OW 8048   8.563   6.733   9.059 -0.5763 -0.1593  0.3047
 1229SOL    HW1 8049   8.644   6.704   9.100 -1.2846  0.2086  2.0565
 1229SOL    HW2 8050   8.495   6.716   9.125 -1.5675  1.8194 -0.1418
 1230SOL     OW 8051   6.343   4.322   0.750 -0.4139 -0.4999  0.5170
 1230SOL    HW1 8052   6.380   4.316   0.838  0.4037 -1.0126  0.1486
 1230SOL    HW2 8053   6.391   4.257   0.699  0.3780  1.0173 -0.7464
 1231SOL     OW 8054   1.148   6.812   6.249  0.0873  0.1967 -0.6137
 1231SOL    HW1 8055   1.097   6.815   6.168 -0.3554 -0.7794 -0.3949
 1231SOL    HW2 8056   1.082   6.802   6.318  0.5528 -1.2016 -0.3333
 1232SOL     OW 8057   0.785   8.940   9.307 -0.5006 -0.5139  0.4411
 1232SOL    HW1 8058   0.841   9.018   9.309  1.5506 -1.6852 -3.0331
 1232SOL    HW2 8059   0.721   8.957   9.238 -1.1048 -1.2476  0.8053
 1233SOL     OW 8060   7.646   7.708   5.739  0.5132 -0.1124  0.5726
 1233SOL    HW1 8061   7.591   7.631   5.724 -0.6615  1.0070 -1.2423
 1233SOL    HW2 8062   7.593   7.765   5.794  0.6430  0.1809  0.3927
 1234SOL     OW 8063   3.121   0.236   1.735 -0.0296 -0.2474 -0.1298
 1234SOL    HW1 8064   3.099   0.324   1.703 -0.2145  0.8129  2.6023
 1234SOL    HW2 8065   3.208   0.246   1.772  0.8737 -1.8352 -1.6780
 1235SOL     OW 8066   8.470   0.965   3.594  0.1538  0.3359 -0.2892
 1235SOL    HW1 8067   8.523   0.908   3.649 -0.5661  1.1311  1.2878
 1235SOL    HW2 8068   8.458   0.915   3.513 -0.7616 -1.9525  1.1325
 1236SOL     OW 8069   1.635   3.573   1.679 -0.0437  0.5650  0.2994
 1236SOL    HW1 8070   1.672   3.660   1.698 -0.2511  1.0815 -1.4032
 1236SOL    HW2 8071   1.675   3.515   1.743 -0.4829  2.0445  1.9758
 1237SOL     OW 8072   1.662   5.264   9.177 -0.8010 -0.6207  0.1266
 1237SOL    HW1 8073   1.639   5.229   9.091 -1.4497 -0.7475  0.3516
 1237SOL    HW2 8074   1.752   5.233   9.192 -0.4043  0.0287 -0.8243
 1238SOL     OW 8075   5.798   7.017   1.803 -0.1749 -0.3454  0.3008
 1238SOL    HW1 8076   5.893   7.031   1.808 -0.2696 -0.1781  2.7060
 1238SOL    HW2 8077   5.787   6.922   1.809 -0.0821 -0.9368 -4.5200
 1239SOL     OW 8078   6.228   6.170   9.469 -0.4839  0.3019 -0.1764
 1239SOL    HW1 8079   6.133   6.177   9.475 -0.3543  1.5019  0.7010
 1239SOL    HW2 8080   6.261   6.218   9.545  0.8039 -1.2057  0.2655
 1240SOL     OW 8081   5.981   1.411   1.073  0.1181 -0.6738 -0.0839
 1240SOL    HW1 8082   6.022   1.436   1.156 -3.3674  1.6246  1.1207
 1240SOL    HW2 8083   6.039   1.447   1.006  0.6517  1.5383  1.4732
 1241SOL     OW 8084   8.035  10.502   8.620  0.6912 -0.1017  0.5115
 1241SOL    HW1 8085   8.061  10.565   8.687  0.3458  1.0780 -0.4204
 1241SOL    HW2 8086   7.939  10.501   8.623  0.7019 -1.2125  1.0584
 1242SOL     OW 8087   4.269   7.517   7.845  0.1421 -0.2215  0.0697
 1242SOL    HW1 8088   4.194   7.458   7.841  0.7776 -1.1320  0.9675
 1242SOL    HW2 8089   4.344   7.459   7.856  0.6408  0.7472  2.7802
 1243SOL     OW 8090   2.748   1.069   5.974  0.1497  0.1195 -0.2035
 1243SOL    HW1 8091   2.770   1.037   6.062  0.5721  0.6081 -0.1222
 1243SOL    HW2 8092   2.833   1.082   5.931  0.2010  3.2396  0.5515
 1244SOL     OW 8093   0.353   9.996   7.012 -0.1023 -0.3660 -0.0326
 1244SOL    HW1 8094   0.367  10.021   7.103 -0.9465  2.5311 -0.6022
 1244SOL    HW2 8095   0.289   9.926   7.016  1.4653 -1.8322  1.6494
 1245SOL     OW 8096   6.716   7.711   4.505 -0.0179 -0.5071  0.7461
 1245SOL    HW1 8097   6.632   7.755   4.506 -0.4008 -1.1829 -0.3341
 1245SOL    HW2 8098   6.780   7.779   4.528 -0.7450  0.2339  0.5860
 1246SOL     OW 8099   4.130   2.178   8.680 -0.1848 -0.3029 -0.1141
 1246SOL    HW1 8100   4.175   2.247   8.728  0.6854 -0.4985 -0.6208
 1246SOL    HW2 8101   4.037   2.200   8.686 -0.0889 -0.2512  1.5345
 1247SOL     OW 8102   5.652  10.385  10.449 -0.4407  0.1840  1.0279
 1247SOL    HW1 8103   5.609  10.426  10.524 -2.1192  2.0050 -0.7793
 1247SOL    HW2 8104   5.664  10.457  10.387  0.5542 -1.3051 -0.5911
 1248SOL     OW 8105   2.829   6.296   8.979 -0.1196 -0.0985 -0.3134
 1248SOL    HW1 8106   2.868   6.282   8.893  0.3820 -0.3277 -0.0529
 1248SOL    HW2 8107   2.799   6.209   9.006  0.4313 -0.1714  0.0775
 1249SOL     OW 8108   4.239   1.297   6.766  0.0904 -0.0898 -0.0531
 1249SOL    HW1 8109   4.264   1.231   6.702  2.1389  1.1681 -0.6437
 1249SOL    HW2 8110   4.198   1.247   6.837  0.4421 -1.8265 -1.0179
 1250SOL     OW 8111   2.369   7.222   3.160 -0.3922 -0.3356  0.5981
 1250SOL    HW1 8112   2.353   7.297   3.103  1.1827  2.0198  3.0291
 1250SOL    HW2 8113   2.446   7.180   3.123 -0.3808  0.1423  0.0640
 1251SOL     OW 8114   0.612   5.335   6.431 -0.0920  0.0005 -0.1329
 1251SOL    HW1 8115   0.653   5.335   6.518  0.7469  0.5883 -0.5103
 1251SOL    HW2 8116   0.673   5.384   6.377  0.8628 -2.7630 -1.7511
 1252SOL     OW 8117   9.652   7.652   8.193 -0.3672 -0.1799  0.6777
 1252SOL    HW1 8118   9.639   7.557   8.188  1.3838 -0.5297  1.8307
 1252SOL    HW2 8119   9.714   7.664   8.265 -0.6233  1.8634  0.6243
 1253SOL     OW 8120   0.317   5.670   7.235  0.9628  0.7821 -0.4810
 1253SOL    HW1 8121   0.290   5.753   7.194  1.1965  0.9025 -0.3910
 1253SOL    HW2 8122   0.343   5.615   7.162  0.5490  0.6898 -0.5645
 1254SOL     OW 8123   0.886   9.258   9.302 -0.2532  0.4487  0.1877
 1254SOL    HW1 8124   0.951   9.262   9.232 -0.6810 -0.2883 -0.2692
 1254SOL    HW2 8125   0.813   9.311   9.269 -0.2624  0.4979  0.2868
 1255SOL     OW 8126   1.374   3.502   5.990  0.0924 -0.8844 -0.4275
 1255SOL    HW1 8127   1.459   3.491   5.947  0.1172  0.7369 -0.8587
 1255SOL    HW2 8128   1.318   3.437   5.950  0.8883 -1.3444 -0.8162
 1256SOL     OW 8129   0.513   5.003   0.770 -0.5106 -0.8873 -0.1641
 1256SOL    HW1 8130   0.478   4.914   0.772  1.2616 -1.6413  0.4124
 1256SOL    HW2 8131   0.593   4.996   0.717 -0.6719  0.5034 -0.6271
 1257SOL     OW 8132   8.554   5.324   5.632 -0.9771 -0.2386  0.2089
 1257SOL    HW1 8133   8.580   5.234   5.655  1.2344  0.0822 -0.7935
 1257SOL    HW2 8134   8.458   5.323   5.640 -0.8562 -1.8348  3.1338
 1258SOL     OW 8135   7.397   1.475   0.718 -0.0894 -0.2770 -0.1244
 1258SOL    HW1 8136   7.405   1.550   0.777 -0.7000  0.0735 -0.4819
 1258SOL    HW2 8137   7.372   1.513   0.634  1.5733 -0.6799 -0.8509
 1259SOL     OW 8138  10.219   1.350   6.492  0.6991 -0.5358  0.2228
 1259SOL    HW1 8139  10.179   1.264   6.503  1.0338 -0.8156 -0.6158
 1259SOL    HW2 8140  10.166   1.409   6.545 -0.7195 -0.9157 -0.7237
 1260SOL     OW 8141   8.129   2.568   2.914  0.3343 -0.5000 -0.2509
 1260SOL    HW1 8142   8.109   2.526   2.831  0.8382  0.7607 -1.0326
 1260SOL    HW2 8143   8.080   2.517   2.979 -3.0588  0.6663 -1.7045
 1261SOL     OW 8144   6.857   9.532  10.824  0.0743 -0.3583 -0.0016
 1261SOL    HW1 8145   6.929   9.568  10.875 -1.4676  0.4882  1.6902
 1261SOL    HW2 8146   6.859   9.438  10.841  0.8923 -0.3879 -0.1873
 1262SOL     OW 8147   6.729   8.647   0.057  0.3630  0.1193 -0.0012
 1262SOL    HW1 8148   6.660   8.714   0.060  1.0304  0.7793  1.4278
 1262SOL    HW2 8149   6.718   8.597   0.138  1.5586  0.2422  0.2534
 1263SOL     OW 8150   4.911   8.290  10.449 -0.1439  0.0109  0.3697
 1263SOL    HW1 8151   4.859   8.256  10.376 -1.8429 -0.6440  1.8198
 1263SOL    HW2 8152   4.911   8.385  10.435  0.0852 -0.1429 -0.7982
 1264SOL     OW 8153   9.043   8.837   2.800  0.1329  0.5184  0.0009
 1264SOL    HW1 8154   9.137   8.851   2.810  0.9689 -3.3693 -0.9727
 1264SOL    HW2 8155   9.025   8.850   2.707  0.1317 -0.5544 -0.1636
 1265SOL     OW 8156  11.099   5.060   3.184 -0.1395  0.1218 -0.2480
 1265SOL    HW1 8157  11.085   5.104   3.100  1.6280  1.7512  0.2365
 1265SOL    HW2 8158  11.107   5.131   3.248  0.3169 -0.9996  0.9998
 1266SOL     OW 8159   6.225   5.811   9.211  0.6838  0.3792  0.0438
 1266SOL    HW1 8160   6.200   5.830   9.120  0.1605 -0.4510 -0.0041
 1266SOL    HW2 8161   6.153   5.847   9.263 -0.0563 -0.9281 -0.0178
 1267SOL     OW 8162   0.785   9.554   8.822 -0.1391  0.2461  0.2156
 1267SOL    HW1 8163   0.729   9.583   8.894 -0.7779 -1.3896  0.4385
 1267SOL    HW2 8164   0.870   9.594   8.839 -0.6200  0.8881  1.1775
 1268SOL     OW 8165   3.527  10.536   3.856  0.4081  0.0937 -0.3186
 1268SOL    HW1 8166   3.540  10.603   3.788 -0.3056 -1.5366 -2.1464
 1268SOL    HW2 8167   3.432  10.536   3.870  0.5948  0.7894  1.1457
 1269SOL     OW 8168   9.232   0.755   8.036  0.4675 -0.0002 -0.0543
 1269SOL    HW1 8169   9.258   0.748   7.944  2.1471 -1.8780  0.4842
 1269SOL    HW2 8170   9.234   0.665   8.068  0.3338  0.6689  1.9282
 1270SOL     OW 8171   5.482   8.606  10.675 -0.1020 -0.0778  0.1080
 1270SOL    HW1 8172   5.469   8.561  10.592  2.0686  0.3363 -0.5373
 1270SOL    HW2 8173   5.405   8.661  10.686 -0.1531  0.3322 -1.9777
 1271SOL     OW 8174   2.614   0.140   0.991  0.3376 -0.3447 -0.2099
 1271SOL    HW1 8175   2.605   0.193   0.911  1.0278 -0.3879 -0.3191
 1271SOL    HW2 8176   2.569   0.192   1.058 -0.0807 -0.2153 -0.5807
 1272SOL     OW 8177   7.312   1.184   4.268  0.2398 -0.3655 -0.4971
 1272SOL    HW1 8178   7.261   1.103   4.273 -0.3519 -0.0359 -0.9740
 1272SOL    HW2 8179   7.331   1.194   4.174 -2.0267  1.4307 -0.8646
 1273SOL     OW 8180   8.034   1.895   4.989  0.1929  0.1589 -0.1036
 1273SOL    HW1 8181   8.034   1.900   5.085  1.2682 -0.4684 -0.0467
 1273SOL    HW2 8182   7.946   1.867   4.966 -0.2524  0.8882  0.6608
 1274SOL     OW 8183   2.510  10.987   1.019 -0.4551 -0.2177  0.0779
 1274SOL    HW1 8184   2.568  10.916   0.992 -0.6893 -0.3462 -0.0830
 1274SOL    HW2 8185   2.568  11.064   1.022 -0.8044  0.3295 -3.0490
 1275SOL     OW 8186   1.148   8.592   0.984  0.2521 -0.4890 -0.4159
 1275SOL    HW1 8187   1.108   8.679   0.979  1.1520 -0.0422  0.0120
 1275SOL    HW2 8188   1.204   8.586   0.906  1.7712  0.1407  0.5770
 1276SOL     OW 8189   6.135   9.180   4.343  0.0661 -0.3509  0.0960
 1276SOL    HW1 8190   6.100   9.240   4.409 -1.8108 -2.7930  1.5271
 1276SOL    HW2 8191   6.200   9.128   4.389  1.7223  0.5284 -1.1358
 1277SOL     OW 8192   6.492   8.150   3.415  0.0802 -0.0437 -0.4486
 1277SOL    HW1 8193   6.460   8.139   3.326  0.6493 -2.6511 -0.3875
 1277SOL    HW2 8194   6.426   8.205   3.457  0.4779  2.4187 -2.7707
 1278SOL     OW 8195   7.298   1.179  11.013 -0.0960 -0.1352 -0.0543
 1278SOL    HW1 8196   7.327   1.264  10.981 -0.6865  0.9069  2.0185
 1278SOL    HW2 8197   7.367   1.151  11.073  0.7510 -1.8108 -1.7013
 1279SOL     OW 8198   2.554   7.092   7.519  0.5044 -0.1268 -0.0386
 1279SOL    HW1 8199   2.558   7.131   7.606  1.7806  1.4352 -0.7563
 1279SOL    HW2 8200   2.460   7.081   7.503  0.2281 -2.9954  2.5582
 1280SOL     OW 8201   0.043   7.642   0.032 -0.1577 -0.1219 -0.1171
 1280SOL    HW1 8202  -0.013   7.583  -0.018  0.6621 -1.4343  0.4534
 1280SOL    HW2 8203  -0.011   7.720   0.048 -0.6150  0.1463 -2.5790
 1281SOL     OW 8204   4.314   3.664   4.584  0.3336 -0.3162 -0.1792
 1281SOL    HW1 8205   4.341   3.713   4.661  1.1043  1.2632 -1.3778
 1281SOL    HW2 8206   4.393   3.659   4.530 -0.4692 -0.2812 -1.4137
 1282SOL     OW 8207  10.138   7.110   4.695  0.3320  0.5131 -0.6597
 1282SOL    HW1 8208  10.112   7.188   4.647 -3.8335  0.6890  1.3952
 1282SOL    HW2 8209  10.125   7.133   4.787 -2.5109 -2.8431  0.0075
 1283SOL     OW 8210  10.186   6.201   5.835 -0.0751  0.0063  1.1754
 1283SOL    HW1 8211  10.168   6.295   5.843 -1.0261  0.2227 -2.0750
 1283SOL    HW2 8212  10.131   6.161   5.903 -2.1924  1.6404  0.5427
 1284SOL     OW 8213   6.867   5.073   1.204  0.3633 -0.2959  0.7549
 1284SOL    HW1 8214   6.861   5.168   1.208  0.2937 -0.3224  1.3326
 1284SOL    HW2 8215   6.957   5.055   1.178  0.4474 -0.0765  0.8968
 1285SOL     OW 8216   6.334   5.857   8.708 -0.2279  0.1886 -0.1321
 1285SOL    HW1 8217   6.420   5.846   8.748 -0.5441  0.1684  0.5627
 1285SOL    HW2 8218   6.344   5.928   8.645  0.7286 -0.9680 -1.3317
 1286SOL     OW 8219   7.430   5.759   2.387 -0.1618 -0.2283  0.3359
 1286SOL    HW1 8220   7.361   5.759   2.320 -0.6333  0.3684  0.8053
 1286SOL    HW2 8221   7.396   5.702   2.456  0.1816 -0.5910  0.2035
 1287SOL     OW 8222   5.729   4.901  10.281 -0.3002  0.2878  0.4678
 1287SOL    HW1 8223   5.727   4.982  10.332 -2.3129 -0.1883  1.2115
 1287SOL    HW2 8224   5.672   4.918  10.206  1.2408  0.3641 -0.7577
 1288SOL     OW 8225   4.229   2.563   8.142  0.3756 -0.2988 -0.1059
 1288SOL    HW1 8226   4.276   2.572   8.225  0.0448 -1.0132  0.1655
 1288SOL    HW2 8227   4.197   2.651   8.123  1.8009  0.2072 -0.3014
 1289SOL     OW 8228   0.959   3.291   8.405 -0.0871  0.0613  0.2004
 1289SOL    HW1 8229   0.902   3.350   8.453  0.3760  1.2608 -0.6891
 1289SOL    HW2 8230   0.906   3.263   8.330  0.3272  0.8282 -0.3862
 1290SOL     OW 8231   6.535   4.834   0.263  0.2311  0.0824  0.2932
 1290SOL    HW1 8232   6.572   4.794   0.342 -0.9418  1.7689  1.7695
 1290SOL    HW2 8233   6.499   4.760   0.213  3.0141 -1.2960  0.1141
 1291SOL     OW 8234   2.004   6.107   2.712 -0.2342  0.9005  0.4139
 1291SOL    HW1 8235   1.999   6.093   2.807  0.8256 -0.6176  0.2811
 1291SOL    HW2 8236   1.979   6.023   2.674  0.8568  1.0168 -0.6118
 1292SOL     OW 8237   5.314   4.777   9.509  0.1394  0.2039  0.2293
 1292SOL    HW1 8238   5.249   4.788   9.440 -0.2711  1.5663  0.8126
 1292SOL    HW2 8239   5.380   4.719   9.470  0.0993  1.2140 -1.4566
 1293SOL     OW 8240   9.818   1.004   3.049 -0.1365 -0.0475  0.3284
 1293SOL    HW1 8241   9.844   1.086   3.091  0.5155  0.7344 -1.4748
 1293SOL    HW2 8242   9.722   1.008   3.046 -0.0797  2.0320 -2.1389
 1294SOL     OW 8243   7.475   6.948   1.438  0.7363  0.2750  0.2275
 1294SOL    HW1 8244   7.467   6.856   1.416  0.0607  0.2767  0.4242
 1294SOL    HW2 8245   7.561   6.956   1.481  1.6371  0.1072 -1.4808
 1295SOL     OW 8246   5.089  10.470   9.242 -0.2039  0.5716  0.8916
 1295SOL    HW1 8247   5.086  10.559   9.207 -1.3291  0.1847 -0.0575
 1295SOL    HW2 8248   5.007  10.430   9.213  0.4063 -0.8682  1.0731
 1296SOL     OW 8249   1.641   1.538   6.532 -0.4740 -0.0494 -0.1726
 1296SOL    HW1 8250   1.600   1.623   6.545 -0.1643  0.0667  0.0481
 1296SOL    HW2 8251   1.715   1.538   6.592 -0.4597 -0.4650 -0.1883
 1297SOL     OW 8252  10.140   6.083   2.825 -0.3714  0.1340  0.0770
 1297SOL    HW1 8253  10.140   6.166   2.778 -0.8455  0.6357  0.9296
 1297SOL    HW2 8254  10.141   6.017   2.757  1.2351  0.8123 -0.6275
 1298SOL     OW 8255   5.338   9.300   9.230 -0.1444  0.7755  0.6103
 1298SOL    HW1 8256   5.405   9.232   9.241  0.6026  1.1641 -1.1399
 1298SOL    HW2 8257   5.256   9.256   9.248  0.4915 -0.0198  1.6733
 1299SOL     OW 8258   8.244   0.444  10.707 -0.1251 -0.4171  0.3684
 1299SOL    HW1 8259   8.166   0.422  10.757  0.0241  0.8428  1.2047
 1299SOL    HW2 8260   8.259   0.369  10.650 -2.5286 -0.2828 -0.5412
 1300SOL     OW 8261   8.054  10.360   3.198 -0.4270  0.6096 -0.6042
 1300SOL    HW1 8262   8.067  10.339   3.291  0.4983  0.9516 -0.6584
 1300SOL    HW2 8263   8.114  10.432   3.180 -0.4703  0.4284 -1.5174
 1301SOL     OW 8264   6.968   6.988   1.350 -0.3491  0.4930  0.1416
 1301SOL    HW1 8265   7.016   7.051   1.404  0.6988 -0.5370  0.4400
 1301SOL    HW2 8266   6.940   6.920   1.411  0.0142 -0.2028 -0.4638
 1302SOL     OW 8267   4.287   5.751   3.420  0.0076  0.1327  0.2299
 1302SOL    HW1 8268   4.260   5.670   3.463 -1.7311  0.5093 -0.0794
 1302SOL    HW2 8269   4.277   5.818   3.488 -4.7379  1.0832 -1.0642
 1303SOL     OW 8270  10.873   8.548   9.958 -0.0736 -0.0553  0.3161
 1303SOL    HW1 8271  10.805   8.583  10.015  0.1441  1.3654 -0.2524
 1303SOL    HW2 8272  10.871   8.454   9.973 -1.2779  0.1000  1.2708
 1304SOL     OW 8273  10.456   3.190   2.923 -0.2886  0.3580 -0.1208
 1304SOL    HW1 8274  10.526   3.207   2.860  0.5454  0.7305  0.8733
 1304SOL    HW2 8275  10.407   3.272   2.927  0.1284  0.5937  0.2731
 1305SOL     OW 8276   2.715   7.636   0.002  0.1788  0.6900 -0.3439
 1305SOL    HW1 8277   2.783   7.575  -0.026 -0.0859  0.9907 -1.7122
 1305SOL    HW2 8278   2.759   7.695   0.063  0.7949  0.0533 -0.1535
 1306SOL     OW 8279   3.379   9.878   7.005 -0.2591 -0.1551 -0.0076
 1306SOL    HW1 8280   3.442   9.824   7.053 -0.5975 -1.5125 -1.0077
 1306SOL    HW2 8281   3.433   9.933   6.948  0.0614 -1.4559 -1.0144
 1307SOL     OW 8282   6.211  10.859   0.743  0.3273 -0.3521  0.1632
 1307SOL    HW1 8283   6.191  10.841   0.835  0.9345 -0.3046  0.3038
 1307SOL    HW2 8284   6.146  10.808   0.694  0.3071 -0.7601  0.6070
 1308SOL     OW 8285   9.711   3.394   2.868 -0.3863 -0.6587  0.2730
 1308SOL    HW1 8286   9.805   3.398   2.853 -0.4501 -0.3372 -0.0467
 1308SOL    HW2 8287   9.702   3.370   2.961 -0.0001  1.2859  0.8389
 1309SOL     OW 8288   2.112   3.936   9.687 -0.2985 -0.5193 -0.4802
 1309SOL    HW1 8289   2.187   3.946   9.746  0.6033  0.3006 -1.7064
 1309SOL    HW2 8290   2.134   3.861   9.632 -0.4195 -0.3452 -0.7726
 1310SOL     OW 8291   7.257   9.304   6.824 -0.3393 -0.0522 -0.5427
 1310SOL    HW1 8292   7.340   9.256   6.835  0.0156 -0.1336 -3.0296
 1310SOL    HW2 8293   7.283   9.395   6.814 -0.6555  0.0872 -0.0935
 1311SOL     OW 8294   6.057   6.985   3.442 -0.6689 -0.6382 -0.2492
 1311SOL    HW1 8295   5.980   6.951   3.397  0.5969 -1.4810 -1.9040
 1311SOL    HW2 8296   6.026   7.007   3.530 -3.6986  2.6007 -1.8496
 1312SOL     OW 8297   9.216  10.595   7.377 -0.0309  0.7621 -0.5429
 1312SOL    HW1 8298   9.140  10.596   7.318  0.8446 -1.1271 -1.7971
 1312SOL    HW2 8299   9.262  10.677   7.358 -0.7132  1.0080 -1.2051
 1313SOL     OW 8300   9.516   5.488   1.530 -0.1835 -0.0869 -0.4512
 1313SOL    HW1 8301   9.544   5.410   1.481  0.6689 -0.1921  0.1820
 1313SOL    HW2 8302   9.589   5.508   1.588 -1.5972 -0.6216  1.6095
 1314SOL     OW 8303   7.397   8.746   3.619  0.0834  0.2838  0.1420
 1314SOL    HW1 8304   7.480   8.778   3.656  1.1813 -1.8658 -0.3103
 1314SOL    HW2 8305   7.393   8.654   3.645 -0.9914 -0.2721 -1.8344
 1315SOL     OW 8306   3.245   2.045   4.587 -0.1205 -0.1318  0.3751
 1315SOL    HW1 8307   3.176   2.069   4.526 -0.3752  1.2354  1.1553
 1315SOL    HW2 8308   3.264   1.953   4.567 -1.8912 -0.4293 -0.1030
 1316SOL     OW 8309   0.671   9.035   7.072 -0.2867  0.2723  0.0386
 1316SOL    HW1 8310   0.593   8.982   7.088  0.4088 -1.3365 -1.5033
 1316SOL    HW2 8311   0.721   8.985   7.007  0.6713  2.6223 -1.1570
 1317SOL     OW 8312   8.515   6.555   7.018 -0.2558  0.3781 -0.1638
 1317SOL    HW1 8313   8.521   6.636   6.966  0.1826  0.0902 -0.5717
 1317SOL    HW2 8314   8.525   6.485   6.953  4.4794 -0.0370  0.7011
 1318SOL     OW 8315   1.228  10.899   1.174 -0.0921  0.2262 -0.0440
 1318SOL    HW1 8316   1.263  10.935   1.092  2.0016  2.2043  1.6019
 1318SOL    HW2 8317   1.305  10.875   1.225 -1.3663 -1.9003  1.0195
 1319SOL     OW 8318   2.362  10.120   3.273 -0.2803  0.1764 -0.0459
 1319SOL    HW1 8319   2.304  10.128   3.197 -0.1005  1.2345 -0.0896
 1319SOL    HW2 8320   2.401  10.033   3.265 -0.7153  0.0458 -0.8336
 1320SOL     OW 8321   6.291  10.934   3.400 -0.0122 -0.4297  0.6435
 1320SOL    HW1 8322   6.223  10.945   3.333  0.3436 -2.0262 -0.0090
 1320SOL    HW2 8323   6.366  10.983   3.365  0.3261 -1.6299 -0.3885
 1321SOL     OW 8324   9.995   6.448   5.539  0.3869 -0.2992 -0.3570
 1321SOL    HW1 8325  10.087   6.461   5.563 -0.2617 -0.8936  2.9150
 1321SOL    HW2 8326   9.960   6.536   5.525  1.2513 -0.0314 -0.8791
 1322SOL     OW 8327   2.361   8.041   5.639 -0.1659 -0.3950  0.0859
 1322SOL    HW1 8328   2.441   7.992   5.654  0.6360  1.1944  1.2578
 1322SOL    HW2 8329   2.386   8.111   5.578 -1.0623 -0.8131 -0.8029
 1323SOL     OW 8330   7.974   9.743   6.146  0.1951  0.4441  0.7537
 1323SOL    HW1 8331   7.963   9.818   6.204 -1.6754  1.1396 -0.3961
 1323SOL    HW2 8332   8.057   9.759   6.100 -0.9094  2.6913 -0.6142
 1324SOL     OW 8333   5.400   3.634   5.401 -0.0625  0.2332 -0.0705
 1324SOL    HW1 8334   5.418   3.541   5.388  0.0375  0.1348  0.7626
 1324SOL    HW2 8335   5.473   3.679   5.359  0.7510 -0.1042  0.9426
 1325SOL     OW 8336   2.566   2.715   2.108 -0.0242  0.6718 -0.2256
 1325SOL    HW1 8337   2.568   2.728   2.013 -0.0379 -1.7096 -0.6155
 1325SOL    HW2 8338   2.656   2.693   2.131 -0.0816  0.9507  0.2737
 1326SOL     OW 8339   7.143   3.118   3.449  0.5669  0.2791 -0.6581
 1326SOL    HW1 8340   7.074   3.142   3.387  0.6671  0.7108 -0.6056
 1326SOL    HW2 8341   7.112   3.150   3.533 -0.1629 -1.4165 -0.2329
 1327SOL     OW 8342   9.011   9.867  10.101 -0.1714  0.2710 -0.0787
 1327SOL    HW1 8343   9.095   9.869  10.147 -0.4121  0.1338  0.3795
 1327SOL    HW2 8344   9.032   9.889  10.011  0.3718  0.1175  0.0091
 1328SOL     OW 8345   4.743   7.133  10.377 -0.1726  0.0931  0.4821
 1328SOL    HW1 8346   4.761   7.216  10.421 -0.9339 -0.5027  2.0027
 1328SOL    HW2 8347   4.648   7.127  10.374 -0.1533 -1.3370  1.6902
 1329SOL     OW 8348   1.751   0.299   8.111  0.0061  0.5318 -0.2823
 1329SOL    HW1 8349   1.834   0.312   8.066 -0.1178  1.2294 -0.3116
 1329SOL    HW2 8350   1.728   0.385   8.147 -0.5333  0.2729  0.0184
 1330SOL     OW 8351   9.912   4.551   8.824  0.3677 -0.3608  0.3602
 1330SOL    HW1 8352   9.901   4.616   8.754  0.3233  0.3288  0.9981
 1330SOL    HW2 8353   9.907   4.467   8.779  0.0711  0.0689 -0.4335
 1331SOL     OW 8354   5.121   5.024  10.702  0.5474  0.0292  0.4765
 1331SOL    HW1 8355   5.183   5.049  10.771  0.5188 -2.0332  1.3167
 1331SOL    HW2 8356   5.123   5.097  10.641  2.0696  1.0466  1.6524
 1332SOL     OW 8357   5.231  10.611   5.996  0.1507  0.7665 -0.2860
 1332SOL    HW1 8358   5.138  10.600   6.014  0.7486 -4.0037  1.1441
 1332SOL    HW2 8359   5.266  10.654   6.074 -0.5657  0.7305  0.0578
 1333SOL     OW 8360   2.866   9.217   9.240  0.2057 -0.2090 -0.2123
 1333SOL    HW1 8361   2.887   9.284   9.175  2.6555  0.0775  0.7640
 1333SOL    HW2 8362   2.952   9.188   9.272 -0.8948 -1.3222  1.8783
 1334SOL     OW 8363   2.201   4.030   7.353 -0.0361  0.5350 -0.2532
 1334SOL    HW1 8364   2.235   3.977   7.425 -0.4594  2.0733  1.1331
 1334SOL    HW2 8365   2.106   4.015   7.355  0.1263 -1.0402 -1.8853
 1335SOL     OW 8366   9.236  10.295   2.625  0.5583 -0.0434 -0.2742
 1335SOL    HW1 8367   9.300  10.303   2.696  0.8320  2.9066 -0.7572
 1335SOL    HW2 8368   9.282  10.324   2.547 -0.2483 -1.6770 -1.4202
 1336SOL     OW 8369   5.526   4.432   8.046  0.1824  0.3731 -0.0690
 1336SOL    HW1 8370   5.567   4.438   7.960  1.7302  0.7957  0.6752
 1336SOL    HW2 8371   5.553   4.347   8.080 -0.2434  0.3030  0.1125
 1337SOL     OW 8372   8.022   4.896   9.934  0.1183  0.1732  0.3535
 1337SOL    HW1 8373   8.064   4.828   9.986 -1.9605 -1.3398  0.1867
 1337SOL    HW2 8374   8.094   4.940   9.889  1.5592 -1.8599  0.5534
 1338SOL     OW 8375   6.615   6.437   2.054  0.2780 -0.3720  0.1348
 1338SOL    HW1 8376   6.636   6.386   1.976  0.0267 -0.1688 -0.0702
 1338SOL    HW2 8377   6.624   6.376   2.126 -1.3559 -1.0969 -0.2140
 1339SOL     OW 8378   7.833   6.102   0.062  0.3249 -0.0259 -0.7439
 1339SOL    HW1 8379   7.782   6.145  -0.007  0.8012 -0.0815 -1.1415
 1339SOL    HW2 8380   7.798   6.137   0.144  1.3190  1.8670 -1.0675
 1340SOL     OW 8381   7.855   3.575   3.162 -0.0269 -0.1380 -0.1079
 1340SOL    HW1 8382   7.943   3.588   3.198 -0.0361  0.5314 -0.3088
 1340SOL    HW2 8383   7.800   3.561   3.239 -0.0727  1.4316  0.1818
 1341SOL     OW 8384   3.860   1.168   4.160 -0.3626  0.0929 -0.0343
 1341SOL    HW1 8385   3.815   1.090   4.193 -2.2286  0.7038 -0.9872
 1341SOL    HW2 8386   3.888   1.144   4.072  0.7544 -0.0950  0.3532
 1342SOL     OW 8387   5.703   5.633  10.393 -0.1959 -0.1237 -0.3369
 1342SOL    HW1 8388   5.729   5.705  10.450 -0.2400 -0.2822 -0.1111
 1342SOL    HW2 8389   5.735   5.657  10.307  0.4364 -0.1796 -0.1228
 1343SOL     OW 8390   4.046   0.980   8.863 -0.4430  0.5445  0.1053
 1343SOL    HW1 8391   3.962   1.025   8.870 -0.8157 -0.0777 -0.3364
 1343SOL    HW2 8392   4.051   0.924   8.940 -1.2168 -0.7126 -0.7278
 1344SOL     OW 8393   6.024   8.876  10.236  0.0572  0.4718 -0.3673
 1344SOL    HW1 8394   6.104   8.823  10.233  0.1891  0.7055 -1.8362
 1344SOL    HW2 8395   5.953   8.813  10.243  0.1937  0.0205 -2.4240
 1345SOL     OW 8396   8.154   9.353   7.529 -0.2265 -1.0600 -0.0607
 1345SOL    HW1 8397   8.207   9.428   7.501 -0.6280 -0.4652  0.7533
 1345SOL    HW2 8398   8.132   9.371   7.620 -3.1889 -0.4881 -0.8091
 1346SOL     OW 8399   7.484   3.791   4.549 -0.1994 -0.2774  0.0933
 1346SOL    HW1 8400   7.570   3.772   4.511  0.5209 -0.0620  1.5511
 1346SOL    HW2 8401   7.493   3.768   4.642 -1.7146 -0.2237  0.2757
 1347SOL     OW 8402   0.917   9.840   6.602 -0.5088  0.5829  0.0145
 1347SOL    HW1 8403   1.003   9.873   6.626 -0.6561  1.4418 -0.5972
 1347SOL    HW2 8404   0.933   9.751   6.571 -0.2594 -0.3945  2.7526
 1348SOL     OW 8405   0.324  10.027   6.653 -0.0789 -0.5629  0.0283
 1348SOL    HW1 8406   0.388  10.098   6.665 -1.3095  0.1037  4.3228
 1348SOL    HW2 8407   0.368   9.949   6.688 -0.2392 -1.0066 -0.7335
 1349SOL     OW 8408   2.115   8.324   6.267 -0.0513 -0.1061 -0.2832
 1349SOL    HW1 8409   2.067   8.391   6.315 -2.4029 -1.4739 -0.5951
 1349SOL    HW2 8410   2.142   8.261   6.334  0.3565  0.0963 -0.2532
 1350SOL     OW 8411   1.095   5.317   7.969  0.0185 -0.4840 -0.0493
 1350SOL    HW1 8412   1.121   5.390   7.913  0.7846  0.0391  0.9448
 1350SOL    HW2 8413   1.049   5.257   7.911  4.4649 -2.1034 -2.3685
 1351SOL     OW 8414   2.414   1.249   2.393 -0.5899  0.3169  0.1167
 1351SOL    HW1 8415   2.365   1.223   2.472 -1.1050  1.5753  0.2433
 1351SOL    HW2 8416   2.457   1.169   2.364  0.2972 -0.0127  2.1653
 1352SOL     OW 8417   0.848  10.796   2.460  0.6532 -0.0751  0.0089
 1352SOL    HW1 8418   0.853  10.885   2.425 -0.6822 -0.0570 -0.1760
 1352SOL    HW2 8419   0.785  10.752   2.403 -0.2103 -0.5596  1.3084
 1353SOL     OW 8420   2.145   9.607  11.070  0.2565 -0.1962  0.5043
 1353SOL    HW1 8421   2.130   9.518  11.101 -0.2740 -0.0945  0.5451
 1353SOL    HW2 8422   2.095   9.663  11.129 -0.5338  0.0186 -0.3386
 1354SOL     OW 8423   1.995   4.797   8.880 -0.3302  0.1640 -0.3153
 1354SOL    HW1 8424   1.991   4.855   8.956  0.8466  1.8449 -1.4458
 1354SOL    HW2 8425   1.937   4.838   8.815  0.0789 -0.2237 -0.9430
 1355SOL     OW 8426   8.067   2.545   2.634  0.1037  0.6459  0.0596
 1355SOL    HW1 8427   8.050   2.625   2.583 -0.3621  0.1013 -0.6633
 1355SOL    HW2 8428   7.984   2.499   2.635 -0.2334  1.1901  2.3782
 1356SOL     OW 8429   8.933   0.643   1.525  0.1163  0.0967  0.6544
 1356SOL    HW1 8430   8.897   0.658   1.437  0.0406 -0.6220  0.5628
 1356SOL    HW2 8431   9.027   0.634   1.510 -0.0836 -1.9538  0.3782
 1357SOL     OW 8432   9.350   4.068   9.333  0.1982  0.1806  0.1755
 1357SOL    HW1 8433   9.316   4.077   9.244  0.1756 -0.3009  0.1317
 1357SOL    HW2 8434   9.412   3.995   9.328  1.6287  1.3443  0.1468
 1358SOL     OW 8435   9.404   7.929   1.335 -0.0832 -0.4528 -0.3237
 1358SOL    HW1 8436   9.476   7.947   1.275 -0.2046  1.9756  0.1581
 1358SOL    HW2 8437   9.325   7.933   1.281 -0.0221 -0.9204 -0.4540
 1359SOL     OW 8438   3.448   1.877   5.033 -0.6406  0.2633 -0.0416
 1359SOL    HW1 8439   3.391   1.810   5.071 -2.2128  1.9271  0.7004
 1359SOL    HW2 8440   3.394   1.920   4.967  0.4026  0.6543 -0.6633
 1360SOL     OW 8441  10.527   6.102   3.356 -0.0800  0.3214 -0.0985
 1360SOL    HW1 8442  10.562   6.148   3.433 -1.0447  0.7878  0.0733
 1360SOL    HW2 8443  10.443   6.067   3.385 -0.1657 -0.0363 -0.7621
 1361SOL     OW 8444   4.317   6.359   8.862  0.5897 -0.6938 -0.2328
 1361SOL    HW1 8445   4.264   6.435   8.841 -0.3213 -1.4105 -0.5854
 1361SOL    HW2 8446   4.310   6.302   8.785  1.1020 -1.2253  0.1001
 1362SOL     OW 8447   3.247   3.962   7.587 -0.0245 -0.1021  0.2735
 1362SOL    HW1 8448   3.169   4.011   7.560 -0.5010 -0.2258  1.3629
 1362SOL    HW2 8449   3.244   3.964   7.683  0.8406 -0.8655  0.3274
 1363SOL     OW 8450   2.432   6.758  10.780 -0.1312  0.2698 -0.0028
 1363SOL    HW1 8451   2.356   6.700  10.780  0.6614 -0.8338  1.3524
 1363SOL    HW2 8452   2.455   6.768  10.872  0.9937  1.0840 -0.3432
 1364SOL     OW 8453   8.070   1.657   5.747 -0.1624 -0.4726 -0.1565
 1364SOL    HW1 8454   7.989   1.613   5.722 -0.3113 -0.0846 -0.3539
 1364SOL    HW2 8455   8.060   1.674   5.841  0.7679 -2.7255  0.4218
 1365SOL     OW 8456   0.156  10.460   7.003 -0.3614  0.0057 -0.1255
 1365SOL    HW1 8457   0.232  10.462   6.945 -2.0840  0.1340 -2.4755
 1365SOL    HW2 8458   0.081  10.475   6.946 -2.3975 -2.3565  1.7020
 1366SOL     OW 8459   5.277   7.297   6.583 -0.0760  0.4061  0.1708
 1366SOL    HW1 8460   5.305   7.384   6.612 -0.3878  1.0249 -1.2787
 1366SOL    HW2 8461   5.354   7.242   6.595 -0.0590  0.7104  1.6990
 1367SOL     OW 8462   1.606   7.803   6.023  0.2483  0.3233 -0.1974
 1367SOL    HW1 8463   1.536   7.848   6.070 -0.7850 -0.5842 -0.8283
 1367SOL    HW2 8464   1.589   7.710   6.038  0.1358  0.0174 -1.9918
 1368SOL     OW 8465  11.112  10.343   6.359  0.1672  0.0082 -0.2819
 1368SOL    HW1 8466  11.080  10.253   6.353 -2.0287  0.8233 -1.7368
 1368SOL    HW2 8467  11.122  10.359   6.453  0.2763 -1.6134  0.0052
 1369SOL     OW 8468   5.344   6.576   2.192 -0.2161  0.2629  0.7356
 1369SOL    HW1 8469   5.283   6.583   2.118  0.2809 -0.6949  0.2265
 1369SOL    HW2 8470   5.430   6.592   2.154 -0.1275  1.6851  1.4700
 1370SOL     OW 8471   6.370   2.295   3.783  0.5623  0.1238  0.6623
 1370SOL    HW1 8472   6.354   2.282   3.690  0.2631 -0.7226  0.8296
 1370SOL    HW2 8473   6.465   2.289   3.793  0.5514 -0.3482  0.4924
 1371SOL     OW 8474   9.941   9.984   7.890 -0.1151 -0.2024 -0.2007
 1371SOL    HW1 8475   9.951   9.912   7.952  3.0865  0.6835  0.5350
 1371SOL    HW2 8476   9.854  10.019   7.908  0.2262 -0.6643  3.1103
 1372SOL     OW 8477   1.094   0.154   6.892 -0.1002  0.1026  0.2663
 1372SOL    HW1 8478   1.123   0.245   6.887 -0.6275  0.3050  0.7531
 1372SOL    HW2 8479   1.023   0.155   6.956 -1.8148 -0.2168 -1.5420
 1373SOL     OW 8480   0.558   0.967  10.874  0.1052  1.1504 -0.0819
 1373SOL    HW1 8481   0.550   0.973  10.779  0.1689 -1.9425 -0.3882
 1373SOL    HW2 8482   0.491   1.026  10.908  0.7119  3.0406 -1.9820
 1374SOL     OW 8483   0.063   3.823   4.347 -0.2763  0.4005 -0.3700
 1374SOL    HW1 8484   0.058   3.835   4.252  0.4155 -2.3674 -0.8665
 1374SOL    HW2 8485   0.157   3.825   4.366 -0.2573 -1.1953 -0.1536
 1375SOL     OW 8486   0.052   0.814   0.911 -0.0349 -0.0066  0.4799
 1375SOL    HW1 8487   0.005   0.804   0.828  0.2451 -2.1821  0.5123
 1375SOL    HW2 8488   0.009   0.751   0.969  0.4871  0.7006  1.6522
 1376SOL     OW 8489   1.039   2.464   7.236 -0.3576 -0.2306  0.5107
 1376SOL    HW1 8490   0.990   2.458   7.154 -0.3245 -1.6487  0.5740
 1376SOL    HW2 8491   1.097   2.388   7.234  0.6616  0.5140  1.2014
 1377SOL     OW 8492   4.714   5.179   6.643  0.2259 -0.2291  0.3941
 1377SOL    HW1 8493   4.649   5.246   6.621 -1.4821 -1.3753  1.6968
 1377SOL    HW2 8494   4.740   5.201   6.733  1.6875  0.2162 -0.1177
 1378SOL     OW 8495   7.979   7.454   7.946  0.2752 -0.2257 -0.2655
 1378SOL    HW1 8496   7.891   7.479   7.972  0.5963  0.3146  0.3522
 1378SOL    HW2 8497   8.035   7.488   8.016  0.9221 -1.0040 -0.3937
 1379SOL     OW 8498   8.712   8.856   0.102  0.0779  0.4150  0.2997
 1379SOL    HW1 8499   8.679   8.820   0.019  1.1949  0.4521 -0.1725
 1379SOL    HW2 8500   8.668   8.804   0.169 -1.4444  0.8912 -0.2848
 1380SOL     OW 8501   3.577   1.537   5.453  0.0815  0.0838  0.6798
 1380SOL    HW1 8502   3.620   1.502   5.531 -1.3394  1.2521  2.0467
 1380SOL    HW2 8503   3.647   1.542   5.388  1.4603 -0.2909  2.0699
 1381SOL     OW 8504  10.304  11.030   7.984 -0.1149  0.1196  0.6326
 1381SOL    HW1 8505  10.352  11.013   7.903 -0.7327  1.4489 -0.0594
 1381SOL    HW2 8506  10.335  10.964   8.045  0.3120 -0.9701 -0.7130
 1382SOL     OW 8507   5.017   2.267   8.000  0.4354  0.1809 -0.2551
 1382SOL    HW1 8508   5.024   2.245   7.907 -0.7513 -2.8775  0.2754
 1382SOL    HW2 8509   5.069   2.201   8.045 -1.5986 -0.4384  1.3883
 1383SOL     OW 8510   5.040   2.515   0.750 -0.2185  0.2316 -0.1575
 1383SOL    HW1 8511   5.116   2.477   0.794 -1.5095 -1.0222  1.0414
 1383SOL    HW2 8512   4.996   2.441   0.708 -2.1658  0.4921  1.2909
 1384SOL     OW 8513   9.174   3.956   3.061  0.4228  0.8493 -0.3294
 1384SOL    HW1 8514   9.124   4.036   3.076  0.1592  0.9008 -1.3982
 1384SOL    HW2 8515   9.218   3.970   2.977  1.1006  0.2313 -0.0919
 1385SOL     OW 8516   7.632   5.789   1.871 -0.0225  0.1971  0.5143
 1385SOL    HW1 8517   7.544   5.825   1.859 -0.5735 -0.8465  1.2967
 1385SOL    HW2 8518   7.625   5.698   1.842  1.1953  0.4953 -0.8560
 1386SOL     OW 8519   0.777   1.834   1.697  0.3176 -0.6921  0.1711
 1386SOL    HW1 8520   0.869   1.808   1.709  0.4913  0.2277  0.9040
 1386SOL    HW2 8521   0.781   1.919   1.655 -0.0232  1.4152  3.9794
 1387SOL     OW 8522   5.357  10.160   6.571 -0.2809  0.0968  0.3605
 1387SOL    HW1 8523   5.351  10.186   6.479  0.3310 -0.3878  0.1807
 1387SOL    HW2 8524   5.341  10.241   6.619 -1.5220  0.1917 -0.1478
 1388SOL     OW 8525  10.374   8.335   6.625 -0.5544  0.6617 -0.3819
 1388SOL    HW1 8526  10.362   8.240   6.613 -0.9586  0.5137  0.9613
 1388SOL    HW2 8527  10.468   8.348   6.615 -0.4271  0.0278 -0.1183
 1389SOL     OW 8528   5.327   3.696   9.370 -0.3328 -1.0283  0.1400
 1389SOL    HW1 8529   5.296   3.610   9.396 -1.6490 -0.4644  0.5631
 1389SOL    HW2 8530   5.251   3.737   9.328  0.6768 -0.5706 -1.3424
 1390SOL     OW 8531   1.505   5.215   4.978 -0.3238 -0.0904 -0.0313
 1390SOL    HW1 8532   1.479   5.134   5.020 -1.4150 -0.8495 -2.0307
 1390SOL    HW2 8533   1.550   5.187   4.898 -2.5167  1.1543 -1.8375
 1391SOL     OW 8534   7.163   2.017   5.087 -0.5086 -0.4971 -0.0235
 1391SOL    HW1 8535   7.162   1.953   5.158 -0.6049 -1.0638 -0.5295
 1391SOL    HW2 8536   7.181   1.966   5.009  0.4781  0.2534 -0.2941
 1392SOL     OW 8537   2.308   9.446   6.924 -0.4809 -0.1302  0.2075
 1392SOL    HW1 8538   2.278   9.503   6.995  0.0673 -0.5472  0.7871
 1392SOL    HW2 8539   2.227   9.415   6.883 -0.7906  1.0479 -0.1252
 1393SOL     OW 8540   3.364   9.947   0.081  0.3920  0.4472  0.3073
 1393SOL    HW1 8541   3.432   9.917   0.021 -0.1425  0.4689 -0.3176
 1393SOL    HW2 8542   3.337  10.032   0.046 -0.0556  0.3745  0.4621
 1394SOL     OW 8543   7.403   5.834   6.418 -0.0400  0.1359 -0.7388
 1394SOL    HW1 8544   7.361   5.752   6.442 -2.2668  0.7854 -2.1044
 1394SOL    HW2 8545   7.413   5.881   6.500 -0.1018 -0.8863 -0.1308
 1395SOL     OW 8546   2.623   6.703   7.337 -0.5812  0.5393  0.4648
 1395SOL    HW1 8547   2.534   6.706   7.373 -1.1722 -1.3393 -0.6990
 1395SOL    HW2 8548   2.674   6.760   7.395 -2.4732  1.4857  1.3039
 1396SOL     OW 8549   8.346   8.121   6.331 -0.1275 -0.2825  0.6250
 1396SOL    HW1 8550   8.422   8.099   6.386  0.0111 -0.6340  0.2943
 1396SOL    HW2 8551   8.297   8.040   6.324 -0.1050 -0.2613  0.1683
 1397SOL     OW 8552   0.737  11.065  10.310 -0.3226  0.7494  0.1186
 1397SOL    HW1 8553   0.642  11.056  10.299 -0.0308 -0.3319 -1.9273
 1397SOL    HW2 8554   0.774  10.993  10.259  1.6263  1.3715  0.5816
 1398SOL     OW 8555   5.621   6.660   0.803 -0.1297 -0.2435 -0.2756
 1398SOL    HW1 8556   5.611   6.565   0.806 -0.9998 -0.3036 -2.8090
 1398SOL    HW2 8557   5.534   6.693   0.777  0.6085  1.0875 -1.2018
 1399SOL     OW 8558   0.317   2.290   5.464 -0.1317  0.1148  0.0791
 1399SOL    HW1 8559   0.356   2.244   5.538  0.3698 -0.0197 -0.2695
 1399SOL    HW2 8560   0.296   2.222   5.401  0.2521  0.3141 -0.2729
 1400SOL     OW 8561   3.612   0.795   9.036 -0.4326 -1.2272  0.4446
 1400SOL    HW1 8562   3.576   0.709   9.056 -0.1260 -1.5580 -0.3852
 1400SOL    HW2 8563   3.567   0.822   8.956  0.5239 -1.2701 -0.1219
 1401SOL     OW 8564  10.023   2.709   4.280 -0.1436 -0.1138 -0.2249
 1401SOL    HW1 8565  10.058   2.785   4.326 -0.7731  0.3378 -0.4818
 1401SOL    HW2 8566  10.074   2.635   4.313 -1.0286  0.0911  1.7243
 1402SOL     OW 8567   9.700   7.999   8.574 -0.3383  0.2560 -0.4758
 1402SOL    HW1 8568   9.733   8.089   8.580 -0.9501  0.6377 -2.1416
 1402SOL    HW2 8569   9.626   8.005   8.514 -2.0587 -0.9453  1.4205
 1403SOL     OW 8570  11.047   0.617   1.057 -0.6528  0.3312 -0.1980
 1403SOL    HW1 8571  11.066   0.526   1.034  0.1884  0.9063 -1.9806
 1403SOL    HW2 8572  11.018   0.614   1.148  0.4797 -1.5729  0.1384
 1404SOL     OW 8573   1.456   8.884   6.119  0.2656  0.3831  0.5205
 1404SOL    HW1 8574   1.543   8.853   6.143  0.1374 -0.6150 -0.2667
 1404SOL    HW2 8575   1.401   8.860   6.193  0.5349  0.4831  0.7576
 1405SOL     OW 8576   5.263   9.002   2.666 -0.6965 -0.1921  0.1274
 1405SOL    HW1 8577   5.278   8.908   2.657 -3.3257 -0.6541 -0.3195
 1405SOL    HW2 8578   5.312   9.026   2.744  1.5235 -1.5025 -0.7431
 1406SOL     OW 8579   9.273   9.539   9.891  0.2181 -0.6970  0.5379
 1406SOL    HW1 8580   9.215   9.572   9.823  2.1870  1.2252 -0.3184
 1406SOL    HW2 8581   9.268   9.444   9.884 -1.8546 -0.5654 -0.2835
 1407SOL     OW 8582   3.575   8.870   0.718 -0.1662  0.1249 -0.4688
 1407SOL    HW1 8583   3.604   8.926   0.790 -1.8433 -0.7554  0.9513
 1407SOL    HW2 8584   3.601   8.919   0.639  0.7101  1.6556  0.6977
 1408SOL     OW 8585   3.960   4.632   1.032  0.0336 -0.0871  0.6896
 1408SOL    HW1 8586   4.028   4.697   1.046  0.5058 -0.2712 -0.5683
 1408SOL    HW2 8587   3.948   4.631   0.937  0.8430 -2.6307  0.5504
 1409SOL     OW 8588   1.775   7.145   5.095 -0.2047 -0.1650  0.3448
 1409SOL    HW1 8589   1.746   7.169   5.008  1.7242 -1.2640 -0.6834
 1409SOL    HW2 8590   1.809   7.056   5.085 -2.4555 -1.4400  2.8492
 1410SOL     OW 8591   3.325  10.509   6.270  0.0464 -0.1726 -0.1202
 1410SOL    HW1 8592   3.420  10.518   6.263 -0.1836  2.7799 -1.0486
 1410SOL    HW2 8593   3.312  10.423   6.308  3.0090 -1.5485 -1.7986
 1411SOL     OW 8594   2.666   9.950   7.105 -0.2981 -0.2504  0.1393
 1411SOL    HW1 8595   2.612   9.904   7.040 -0.6536  0.1628  0.1424
 1411SOL    HW2 8596   2.675  10.038   7.070  1.4821 -0.6409 -0.5385
 1412SOL     OW 8597   8.782   2.846   3.194 -0.3078 -0.2386  0.2080
 1412SOL    HW1 8598   8.776   2.940   3.182  0.0829 -0.2112  0.2112
 1412SOL    HW2 8599   8.876   2.827   3.190 -0.3452 -0.5525  0.7680
 1413SOL     OW 8600   2.020   6.816   7.714 -0.1649  0.4709 -0.2706
 1413SOL    HW1 8601   1.973   6.789   7.635  0.4275  0.7552 -0.7215
 1413SOL    HW2 8602   2.072   6.892   7.687 -0.2212  0.7877  0.4771
 1414SOL     OW 8603   6.931   2.609   1.331  0.0661 -0.2245  0.1885
 1414SOL    HW1 8604   6.909   2.519   1.304  0.6436  0.0133 -1.1480
 1414SOL    HW2 8605   7.025   2.617   1.314 -0.0337  0.7189  0.0145
 1415SOL     OW 8606   4.380   6.393   2.514 -0.1315 -0.3712  0.1987
 1415SOL    HW1 8607   4.407   6.321   2.456 -1.3917  0.4855 -1.5155
 1415SOL    HW2 8608   4.460   6.443   2.528  0.6004 -1.6353  0.7890
 1416SOL     OW 8609   3.685   2.060   8.044 -0.4029 -0.7976  0.1119
 1416SOL    HW1 8610   3.731   1.982   8.077 -0.1029 -0.8898 -0.5007
 1416SOL    HW2 8611   3.721   2.133   8.095  1.3016 -0.7080 -1.1421
 1417SOL     OW 8612   1.218   3.796   3.702  0.2375  0.2341  0.3259
 1417SOL    HW1 8613   1.229   3.701   3.701  0.1917  0.2272 -0.8483
 1417SOL    HW2 8614   1.128   3.811   3.675 -0.4496  0.5656  2.6083
 1418SOL     OW 8615  10.877   0.821   2.252  0.0637 -0.1960  0.0007
 1418SOL    HW1 8616  10.934   0.800   2.326 -0.2972 -1.1247  0.0335
 1418SOL    HW2 8617  10.926   0.886   2.201  0.0629  0.9105  1.3580
 1419SOL     OW 8618   0.096   0.814   6.371  0.5111  0.7409  0.1898
 1419SOL    HW1 8619   0.084   0.722   6.392  1.8217  0.2285 -1.0677
 1419SOL    HW2 8620   0.016   0.839   6.324  0.0490  0.3198  0.7447
 1420SOL     OW 8621   8.558   5.078   2.646 -0.1453 -0.1753  0.2630
 1420SOL    HW1 8622   8.478   5.078   2.698  0.7960 -2.3565  1.8774
 1420SOL    HW2 8623   8.620   5.129   2.698  0.2764 -0.8007  0.3818
 1421SOL     OW 8624   1.378  10.939   2.088  0.4068 -0.0450  0.0714
 1421SOL    HW1 8625   1.443  10.904   2.027  0.5024  0.5456 -0.1726
 1421SOL    HW2 8626   1.359  10.866   2.147  0.2344 -0.6539 -0.7246
 1422SOL     OW 8627   0.755   9.608   3.149 -0.2435  0.4389 -0.5678
 1422SOL    HW1 8628   0.822   9.561   3.199 -0.0330 -0.8909 -2.0190
 1422SOL    HW2 8629   0.804   9.657   3.083 -0.5631  1.5534  0.0029
 1423SOL     OW 8630   1.345   1.571  10.204  0.2883 -0.1198  0.2060
 1423SOL    HW1 8631   1.400   1.493  10.203 -0.0914 -0.3869 -0.5574
 1423SOL    HW2 8632   1.389   1.633  10.146  0.7828  0.3816  1.0950
 1424SOL     OW 8633   7.846   7.520   2.839 -0.3850  0.3901  1.0955
 1424SOL    HW1 8634   7.934   7.534   2.873 -0.0614  3.0339 -0.5864
 1424SOL    HW2 8635   7.789   7.539   2.914  0.4011  2.7387  1.1695
 1425SOL     OW 8636   8.311   9.409   1.699 -0.1331 -0.3283  0.0146
 1425SOL    HW1 8637   8.309   9.474   1.629 -1.0197  0.8629  1.1040
 1425SOL    HW2 8638   8.401   9.376   1.699  0.3192  0.8647 -0.5813
 1426SOL     OW 8639   7.802   4.111   5.743  0.2421  0.3826  0.1526
 1426SOL    HW1 8640   7.797   4.165   5.822  1.9400  1.1042 -0.1745
 1426SOL    HW2 8641   7.798   4.173   5.671  0.2315 -0.1220 -0.2898
 1427SOL     OW 8642   6.550   6.349   8.965 -0.4114  0.3129 -0.1867
 1427SOL    HW1 8643   6.591   6.411   9.026 -2.7170  1.2875  0.4638
 1427SOL    HW2 8644   6.571   6.263   9.001  0.7883  0.7598  0.2648
 1428SOL     OW 8645   9.823   0.652   7.286  0.1103 -0.1332  0.1174
 1428SOL    HW1 8646   9.768   0.574   7.273 -0.4813  0.3626 -0.4155
 1428SOL    HW2 8647   9.766   0.713   7.334  1.2532 -0.7894  2.4666
 1429SOL     OW 8648  10.797   0.479   2.922 -0.2186  0.2533 -0.3798
 1429SOL    HW1 8649  10.725   0.476   2.985  0.5521  0.8308  0.5681
 1429SOL    HW2 8650  10.871   0.515   2.972  0.7560 -0.4213 -1.2838
 1430SOL     OW 8651   5.959   9.964  10.460  0.1950  0.0050 -0.9249
 1430SOL    HW1 8652   5.906   9.910  10.402  1.5950 -1.6902 -0.7227
 1430SOL    HW2 8653   6.048   9.953  10.427  0.6242  1.5235 -0.3258
 1431SOL     OW 8654   7.714   1.745   0.594 -0.0459 -0.3563  0.3255
 1431SOL    HW1 8655   7.747   1.830   0.563 -1.4326 -0.1247 -0.6330
 1431SOL    HW2 8656   7.629   1.735   0.550  0.2154 -2.3915  0.1744
 1432SOL     OW 8657   6.319   3.293   7.223  0.2619 -0.2479 -0.1674
 1432SOL    HW1 8658   6.371   3.232   7.275 -1.7996 -2.0092 -0.0337
 1432SOL    HW2 8659   6.322   3.375   7.272 -0.4263 -1.4523  2.0045
 1433SOL     OW 8660   2.340   8.989  10.152 -0.5026 -0.2237 -0.3753
 1433SOL    HW1 8661   2.256   8.948  10.175 -2.0200  0.5515 -3.8718
 1433SOL    HW2 8662   2.405   8.921  10.168 -2.1762 -1.9090 -0.3824
 1434SOL     OW 8663   8.553   6.239   3.380 -0.4844  0.0498  0.1088
 1434SOL    HW1 8664   8.488   6.265   3.315 -0.5943 -0.0383  0.1819
 1434SOL    HW2 8665   8.632   6.288   3.356 -1.1293  1.6888  1.1989
 1435SOL     OW 8666   7.177   2.573  10.461  0.1000  0.4383 -0.2228
 1435SOL    HW1 8667   7.138   2.527  10.535  0.3048  2.6968  1.3648
 1435SOL    HW2 8668   7.271   2.575  10.481  0.5087 -0.9942 -1.7723
 1436SOL     OW 8669   4.658   4.412   1.068  0.3050  0.1099 -0.1428
 1436SOL    HW1 8670   4.707   4.454   0.997  2.6889 -0.9570  0.7303
 1436SOL    HW2 8671   4.635   4.483   1.127  0.7916  0.6609 -0.6043
 1437SOL     OW 8672   0.580   6.178   9.897 -0.0683 -0.7895  0.2533
 1437SOL    HW1 8673   0.600   6.225   9.978 -0.6122  0.1942 -0.1648
 1437SOL    HW2 8674   0.539   6.244   9.841 -1.6929 -1.9670 -0.0275
 1438SOL     OW 8675   4.833   4.496   4.237  0.5007  0.4738  0.5229
 1438SOL    HW1 8676   4.778   4.510   4.313 -1.4510 -1.0520 -0.5058
 1438SOL    HW2 8677   4.843   4.583   4.198  0.5490  1.0788  1.8346
 1439SOL     OW 8678   4.394   1.563   9.720  0.4662 -0.3334  0.4395
 1439SOL    HW1 8679   4.343   1.500   9.669 -1.2533  0.4109  1.1620
 1439SOL    HW2 8680   4.331   1.601   9.781  1.3814  2.2764 -0.1114
 1440SOL     OW 8681   9.933   4.494   4.195 -0.3541  0.2657  0.0671
 1440SOL    HW1 8682   9.981   4.422   4.236 -0.6823  0.0547  0.0867
 1440SOL    HW2 8683   9.980   4.573   4.223 -1.0688  0.1975  1.5823
 1441SOL     OW 8684   9.656   4.647   4.447  0.2190 -0.3363  0.5610
 1441SOL    HW1 8685   9.653   4.564   4.494 -0.8618 -0.8947 -0.4542
 1441SOL    HW2 8686   9.624   4.626   4.359  1.3092  0.8689 -0.1469
 1442SOL     OW 8687   9.591   4.510   3.833  0.4698 -0.9646  0.1585
 1442SOL    HW1 8688   9.651   4.443   3.800 -0.2450 -0.9213 -1.3453
 1442SOL    HW2 8689   9.506   4.485   3.797 -0.0143  0.1403  0.5049
 1443SOL     OW 8690   9.774   5.684  10.738 -0.4474 -0.1603  0.1686
 1443SOL    HW1 8691   9.681   5.705  10.748 -0.5454 -0.0356 -0.8505
 1443SOL    HW2 8692   9.787   5.605  10.789 -1.2452 -0.4836 -0.1199
 1444SOL     OW 8693   4.512   2.876   5.331 -0.3480 -0.2410 -0.5068
 1444SOL    HW1 8694   4.465   2.924   5.400 -0.2300 -0.4333 -0.2918
 1444SOL    HW2 8695   4.443   2.831   5.283 -0.6045  1.2277 -1.5715
 1445SOL     OW 8696   8.325   8.878   5.785  0.0397  0.4967 -0.5504
 1445SOL    HW1 8697   8.331   8.815   5.857  0.8581  0.9072 -0.2425
 1445SOL    HW2 8698   8.233   8.900   5.780 -0.2231 -0.5261 -0.4899
 1446SOL     OW 8699   8.207   6.563   6.333 -0.2450  0.5920 -0.2203
 1446SOL    HW1 8700   8.182   6.527   6.248 -0.5482  2.3687 -0.9402
 1446SOL    HW2 8701   8.300   6.585   6.323 -0.1900  0.4755  0.0301
 1447SOL     OW 8702   2.942   0.070   0.152 -0.4211  0.0812  0.0676
 1447SOL    HW1 8703   3.037   0.068   0.138 -0.6639 -1.3679 -1.8181
 1447SOL    HW2 8704   2.924  -0.007   0.205 -0.6876 -0.5544 -0.9208
 1448SOL     OW 8705   3.228  10.711   8.001 -0.1698 -0.3719  0.1761
 1448SOL    HW1 8706   3.309  10.717   7.952 -0.9094  0.2425 -1.0248
 1448SOL    HW2 8707   3.177  10.643   7.957 -1.2077  0.8098 -0.5254
 1449SOL     OW 8708  10.321   3.623   6.997 -0.5571 -0.1842 -0.2347
 1449SOL    HW1 8709  10.280   3.591   6.917  0.2801 -2.6884  0.2541
 1449SOL    HW2 8710  10.393   3.562   7.014  0.9100  1.7762  1.0611
 1450SOL     OW 8711  10.071   0.115   7.641  0.2138 -0.0214  0.5523
 1450SOL    HW1 8712  10.070   0.147   7.551 -0.2006 -0.3160  0.4533
 1450SOL    HW2 8713  10.042   0.191   7.693 -2.8731 -0.7857  0.1282
 1451SOL     OW 8714   6.425   9.836   1.120 -0.2375  0.1833  0.0558
 1451SOL    HW1 8715   6.443   9.915   1.069 -0.5017  0.9177  1.0367
 1451SOL    HW2 8716   6.409   9.870   1.209  1.1474 -1.1148  0.8408
 1452SOL     OW 8717   6.268   6.956   0.551  0.3749  0.0172 -0.4817
 1452SOL    HW1 8718   6.278   6.867   0.584 -0.0655 -1.0949 -3.1065
 1452SOL    HW2 8719   6.175   6.976   0.564  0.2617 -0.3041 -0.7790
 1453SOL     OW 8720   7.190  10.607   3.299  0.5199  0.5662 -0.0976
 1453SOL    HW1 8721   7.188  10.513   3.319  0.9380  0.9095  1.7149
 1453SOL    HW2 8722   7.098  10.631   3.289  0.4305 -0.1253 -1.1209
 1454SOL     OW 8723   4.659  10.147   1.199 -0.2285  0.2135  0.2674
 1454SOL    HW1 8724   4.747  10.151   1.236 -0.5850 -0.1703  1.1759
 1454SOL    HW2 8725   4.671  10.107   1.113  0.2260 -2.0628  1.3170
 1455SOL     OW 8726   8.547   2.890   1.247  0.5693 -0.1177 -0.2120
 1455SOL    HW1 8727   8.548   2.848   1.161  2.6637 -1.0099  0.1844
 1455SOL    HW2 8728   8.596   2.972   1.235 -0.0827  0.2903 -0.1100
 1456SOL     OW 8729   2.285   0.996   5.410  0.8673  0.1137 -0.3394
 1456SOL    HW1 8730   2.345   1.049   5.462  2.3499 -1.0601 -0.7540
 1456SOL    HW2 8731   2.299   0.906   5.441 -1.5153 -0.1163  0.3103
 1457SOL     OW 8732   2.847   6.518   1.881  0.3469  0.1951 -0.4409
 1457SOL    HW1 8733   2.860   6.582   1.811 -1.7299 -0.8989 -1.9327
 1457SOL    HW2 8734   2.769   6.548   1.927  1.1858  0.4068  0.9009
 1458SOL     OW 8735   9.743   0.698   9.634  0.5916 -0.0277  0.0970
 1458SOL    HW1 8736   9.751   0.604   9.618  0.8844  0.3242 -2.1836
 1458SOL    HW2 8737   9.651   0.711   9.659  0.1939 -0.7663 -0.9203
 1459SOL     OW 8738   7.506   9.509   7.635 -0.4572  0.5944  0.5315
 1459SOL    HW1 8739   7.530   9.566   7.708 -1.3789  1.1740  0.4039
 1459SOL    HW2 8740   7.570   9.438   7.638  1.5713  2.2624 -0.0916
 1460SOL     OW 8741   0.792   9.709  10.796  0.0284 -0.2697  0.1342
 1460SOL    HW1 8742   0.772   9.796  10.762  0.3342 -0.5035 -0.6877
 1460SOL    HW2 8743   0.723   9.691  10.859 -0.6329  0.1511 -0.4551
 1461SOL     OW 8744   1.944   0.743   2.730  0.0770  0.1692  0.0196
 1461SOL    HW1 8745   2.013   0.800   2.764 -2.1483  1.4411  2.8216
 1461SOL    HW2 8746   1.921   0.781   2.645  0.4639  1.8919  0.6441
 1462SOL     OW 8747   1.234   2.045   9.275  0.9614  0.0822 -0.0077
 1462SOL    HW1 8748   1.200   2.119   9.325 -1.5755 -0.9461 -0.0674
 1462SOL    HW2 8749   1.292   1.999   9.337  1.1219  1.1018  0.6132
 1463SOL     OW 8750   8.701   6.935   3.135 -0.6188  0.4815  0.3431
 1463SOL    HW1 8751   8.737   7.017   3.101  0.1346  0.4334  1.0100
 1463SOL    HW2 8752   8.608   6.954   3.148 -0.0312  2.1434  3.0271
 1464SOL     OW 8753   1.485   2.034   2.375  0.1571  0.6746 -0.2287
 1464SOL    HW1 8754   1.446   2.024   2.288 -0.2762  1.0793 -0.0854
 1464SOL    HW2 8755   1.567   1.985   2.370  0.3215  1.0048 -0.9887
 1465SOL     OW 8756   4.060   9.584   0.199 -0.2994  0.2399 -0.0888
 1465SOL    HW1 8757   3.980   9.608   0.247  0.4263  3.3599 -0.2274
 1465SOL    HW2 8758   4.029   9.531   0.126 -2.0913  0.2618  0.5932
 1466SOL     OW 8759   5.720   9.817  10.083 -0.4515  0.3798 -0.0326
 1466SOL    HW1 8760   5.739   9.809   9.990 -0.7329  0.3648 -0.0907
 1466SOL    HW2 8761   5.653   9.750  10.099  0.1758 -0.1712  0.3479
 1467SOL     OW 8762   2.895   9.600   9.160 -0.3675  0.2024 -0.0039
 1467SOL    HW1 8763   2.969   9.650   9.195 -0.5249  0.3098  0.1805
 1467SOL    HW2 8764   2.846   9.663   9.107 -0.5383  0.2351  0.1881
 1468SOL     OW 8765   9.250   2.647   7.389  0.2390  0.3060 -0.9114
 1468SOL    HW1 8766   9.304   2.687   7.321  1.7743  0.5149  0.3640
 1468SOL    HW2 8767   9.310   2.631   7.461 -0.8470 -2.0853 -0.4518
 1469SOL     OW 8768   0.257   0.529   3.043  0.1826  0.0540 -0.0069
 1469SOL    HW1 8769   0.221   0.451   3.086  0.2908 -0.2219 -0.4064
 1469SOL    HW2 8770   0.196   0.547   2.972  0.1744  0.3180  0.0682
 1470SOL     OW 8771   6.159   5.138  10.209  0.6368 -0.4994  0.0151
 1470SOL    HW1 8772   6.137   5.226  10.242  1.6967 -0.0143 -0.5266
 1470SOL    HW2 8773   6.084   5.114  10.154 -0.2679 -0.5123  1.2103
 1471SOL     OW 8774   3.617   5.339   1.795 -0.2005 -0.4340  0.0758
 1471SOL    HW1 8775   3.539   5.381   1.759  1.2473 -1.1078 -4.5293
 1471SOL    HW2 8776   3.602   5.245   1.781  0.6912 -0.7080  0.8592
 1472SOL     OW 8777   5.010   5.339   7.739 -0.0846 -0.5890 -0.6880
 1472SOL    HW1 8778   5.004   5.311   7.830  1.2546 -1.9617 -0.9775
 1472SOL    HW2 8779   5.098   5.375   7.730  0.1265 -1.3028 -1.6451
 1473SOL     OW 8780   2.371   5.818   7.563 -0.1441  0.0609 -0.1814
 1473SOL    HW1 8781   2.443   5.759   7.542 -1.8612 -2.5951  0.9165
 1473SOL    HW2 8782   2.381   5.835   7.657 -1.2526 -0.8752  0.1320
 1474SOL     OW 8783   3.638   3.270   2.308 -0.2909 -0.3688 -0.0193
 1474SOL    HW1 8784   3.582   3.310   2.375 -1.0754 -0.5499 -0.5565
 1474SOL    HW2 8785   3.580   3.256   2.233  0.3661 -0.9859 -0.4267
 1475SOL     OW 8786   3.332   9.668   0.892  0.0749 -0.1964 -0.0831
 1475SOL    HW1 8787   3.321   9.646   0.984  2.6489  0.1122  0.3694
 1475SOL    HW2 8788   3.245   9.697   0.863 -0.8129 -0.4654  2.1811
 1476SOL     OW 8789   5.377  10.333   9.573  0.0263 -0.3402 -0.3986
 1476SOL    HW1 8790   5.330  10.332   9.657  0.9461 -0.9377  0.1224
 1476SOL    HW2 8791   5.416  10.246   9.566  1.2185  0.1999 -0.7296
 1477SOL     OW 8792   1.938   3.982  10.974  0.5752  0.2270  0.1234
 1477SOL    HW1 8793   1.968   3.985  10.883  1.4749  1.5351  0.4336
 1477SOL    HW2 8794   1.908   4.071  10.992 -1.7882 -0.5614  0.4305
 1478SOL     OW 8795   2.650   8.410   7.809 -0.4816  0.2433 -0.3914
 1478SOL    HW1 8796   2.676   8.497   7.776  0.8836  0.0225  0.0338
 1478SOL    HW2 8797   2.584   8.429   7.876  0.8904  1.0985  0.7876
 1479SOL     OW 8798  10.654   0.606   1.755 -0.0445  0.5914 -0.1401
 1479SOL    HW1 8799  10.711   0.683   1.747  0.9537 -0.2495 -1.8328
 1479SOL    HW2 8800  10.715   0.532   1.755 -1.1118 -0.3531 -2.1337
 1480SOL     OW 8801   5.732   8.861   9.709 -0.4052  0.0642  0.7199
 1480SOL    HW1 8802   5.708   8.774   9.742  0.8697 -0.3384  0.6487
 1480SOL    HW2 8803   5.789   8.898   9.776  1.3278 -0.3218 -0.4626
 1481SOL     OW 8804   6.048   8.572   6.696  0.2509  0.4908  0.8636
 1481SOL    HW1 8805   5.964   8.617   6.682 -1.2053 -2.1815  0.2910
 1481SOL    HW2 8806   6.059   8.573   6.791 -0.3878  0.9517  0.9474
 1482SOL     OW 8807   0.010   9.492   1.792 -0.8363 -0.5038 -0.1769
 1482SOL    HW1 8808  -0.077   9.471   1.826 -0.2817 -1.0504  0.9686
 1482SOL    HW2 8809   0.006   9.585   1.772 -1.2797 -0.2014  1.2047
 1483SOL     OW 8810   2.809   1.170   9.027 -1.1655 -0.1856 -0.1677
 1483SOL    HW1 8811   2.888   1.172   8.973 -2.1352  1.1305 -1.6769
 1483SOL    HW2 8812   2.840   1.172   9.117  0.5218 -1.5548 -0.6633
 1484SOL     OW 8813   5.894  10.174  10.638  0.0577  0.0952 -0.0585
 1484SOL    HW1 8814   5.919  10.087  10.606  2.2732  0.3110  0.8757
 1484SOL    HW2 8815   5.892  10.229  10.559 -1.8830 -0.8627 -0.7270
 1485SOL     OW 8816   4.895   4.249   7.611 -0.2178  0.0604 -0.2700
 1485SOL    HW1 8817   4.878   4.315   7.679 -2.1633 -0.4315 -0.2104
 1485SOL    HW2 8818   4.809   4.232   7.573  0.2395 -2.3966 -0.3401
 1486SOL     OW 8819  10.980   4.186  10.773 -0.1084  0.2270  0.0601
 1486SOL    HW1 8820  10.921   4.117  10.805 -0.2638  1.0399  1.6434
 1486SOL    HW2 8821  10.960   4.262  10.828  0.9837  1.1412 -0.7596
 1487SOL     OW 8822   2.127   5.427   7.422 -0.2285  0.3078  0.2312
 1487SOL    HW1 8823   2.090   5.388   7.501  0.6762  0.0386  0.5245
 1487SOL    HW2 8824   2.054   5.478   7.385 -0.9310 -0.3127  0.7280
 1488SOL     OW 8825   8.370   0.387   9.257 -0.6761 -0.1614  0.5817
 1488SOL    HW1 8826   8.285   0.359   9.224 -0.4279 -1.1282  0.7090
 1488SOL    HW2 8827   8.433   0.354   9.193 -0.4402  1.1277  0.1428
 1489SOL     OW 8828   5.140   4.868   1.554 -0.6740  0.1746  0.3096
 1489SOL    HW1 8829   5.122   4.819   1.473  0.2270 -0.3670  0.4223
 1489SOL    HW2 8830   5.076   4.939   1.553 -2.8069 -1.6265  0.7159
 1490SOL     OW 8831   9.435   8.621   7.581  0.3004 -0.0271 -0.0729
 1490SOL    HW1 8832   9.443   8.684   7.509 -0.1642  0.4601  0.2891
 1490SOL    HW2 8833   9.369   8.660   7.639  0.6046 -0.4557  0.5690
 1491SOL     OW 8834   1.779   3.853   2.148 -0.4074  0.1752  0.2975
 1491SOL    HW1 8835   1.745   3.921   2.089  1.0016 -0.5149 -1.3984
 1491SOL    HW2 8836   1.715   3.782   2.141 -1.3244  0.8823  1.2472
 1492SOL     OW 8837   2.282   8.584   0.965  0.1065 -0.4198  0.1981
 1492SOL    HW1 8838   2.224   8.559   0.893  1.4795 -0.9157 -0.7589
 1492SOL    HW2 8839   2.309   8.501   1.005 -0.6467 -0.1526  1.3295
 1493SOL     OW 8840   4.007  10.888   3.879  0.4426  0.3637 -0.0063
 1493SOL    HW1 8841   4.001  10.827   3.805  0.3516  2.2156 -1.5939
 1493SOL    HW2 8842   4.080  10.854   3.931  1.1570 -0.4650 -1.4678
 1494SOL     OW 8843   2.796   6.308   1.717  0.0712 -0.3708  0.3314
 1494SOL    HW1 8844   2.843   6.302   1.634 -1.0954  0.8792 -0.4744
 1494SOL    HW2 8845   2.830   6.388   1.758 -3.2006  2.2859 -1.6202
 1495SOL     OW 8846  10.662   2.961   6.681  0.2983  0.5030  0.4227
 1495SOL    HW1 8847  10.601   2.909   6.628  1.4469 -0.7187  0.2328
 1495SOL    HW2 8848  10.636   3.052   6.666 -0.5044  0.0884 -0.8391
 1496SOL     OW 8849   9.924   6.437   4.324 -0.5817 -0.1935  0.1471
 1496SOL    HW1 8850   9.840   6.469   4.357 -0.8416  0.1457 -0.8088
 1496SOL    HW2 8851   9.961   6.388   4.397 -1.5947 -0.3216  0.5975
 1497SOL     OW 8852   9.829   5.678   2.766 -0.3088  0.7114 -0.1750
 1497SOL    HW1 8853   9.879   5.669   2.847  0.4292  1.7357 -0.5001
 1497SOL    HW2 8854   9.738   5.685   2.795 -0.0311  1.2973  0.5795
 1498SOL     OW 8855   0.601   1.459   2.685 -0.0426  0.3046  0.2800
 1498SOL    HW1 8856   0.672   1.520   2.666 -0.5745  0.5305 -1.0862
 1498SOL    HW2 8857   0.574   1.480   2.774  0.9264  0.8874  0.4457
 1499SOL     OW 8858   8.643   4.356  11.006 -0.6347 -0.5408  0.3081
 1499SOL    HW1 8859   8.571   4.313  11.051 -0.5883 -1.4905 -0.4891
 1499SOL    HW2 8860   8.640   4.321  10.917  1.2349 -1.1468  0.4274
 1500SOL     OW 8861   2.646   1.167   1.770  0.0824  0.0337  0.3114
 1500SOL    HW1 8862   2.630   1.200   1.858 -0.0189  0.4295  0.1444
 1500SOL    HW2 8863   2.741   1.150   1.768  0.2051  0.7033  0.2670
 1501SOL     OW 8864   1.801   9.225   0.564  0.1302  0.1582 -0.5929
 1501SOL    HW1 8865   1.756   9.281   0.500  0.6950 -0.2913 -1.4167
 1501SOL    HW2 8866   1.894   9.237   0.544  0.2618 -0.9507 -0.6945
 1502SOL     OW 8867   1.021   8.376  10.582 -0.8408  0.1932  0.4268
 1502SOL    HW1 8868   1.093   8.313  10.584  0.0300  1.1181 -0.6123
 1502SOL    HW2 8869   1.062   8.460  10.563 -2.2383  0.6220 -0.9607
 1503SOL     OW 8870   9.962   6.139   9.385  0.3182 -0.1471 -0.3737
 1503SOL    HW1 8871   9.886   6.081   9.375  0.1389  0.1470 -0.7472
 1503SOL    HW2 8872  10.011   6.102   9.459 -0.2203 -0.3086 -0.0894
 1504SOL     OW 8873   2.016   6.617   4.429 -0.1625  1.0251  0.4053
 1504SOL    HW1 8874   2.047   6.674   4.500  1.8922 -1.2040  1.4445
 1504SOL    HW2 8875   1.935   6.579   4.463  1.2967 -0.7690  2.1094
 1505SOL     OW 8876   0.792   0.727   8.498 -0.2192  0.2277  0.8213
 1505SOL    HW1 8877   0.823   0.656   8.441  2.3886  0.8209  1.3478
 1505SOL    HW2 8878   0.791   0.689   8.586 -1.5991  0.0790  0.7619
 1506SOL     OW 8879   5.273   2.675   0.370  0.3766  0.0501  0.3192
 1506SOL    HW1 8880   5.367   2.665   0.382  0.3098 -0.4764  0.4382
 1506SOL    HW2 8881   5.237   2.679   0.458  0.3729  1.2024  0.2795
 1507SOL     OW 8882   4.818   4.754   4.183  0.7008 -0.1840 -0.3044
 1507SOL    HW1 8883   4.839   4.727   4.094  0.7392 -2.4465  0.3238
 1507SOL    HW2 8884   4.787   4.844   4.174  1.9562  0.1055 -2.4106
 1508SOL     OW 8885   5.216   8.785   7.415  0.6796 -0.2864 -0.4149
 1508SOL    HW1 8886   5.142   8.727   7.397 -0.1030  0.0988  1.3368
 1508SOL    HW2 8887   5.211   8.852   7.347  1.3575 -1.9639 -2.2361
 1509SOL     OW 8888  10.051   2.188   4.770 -0.6115 -0.0474 -0.2793
 1509SOL    HW1 8889  10.047   2.245   4.846  1.4679  1.1680 -0.9834
 1509SOL    HW2 8890  10.017   2.242   4.698 -1.6841 -0.8558 -0.3973
 1510SOL     OW 8891   3.478  10.391   8.772  0.2310  0.2938 -0.2228
 1510SOL    HW1 8892   3.464  10.301   8.740  0.1562 -0.2432  1.2640
 1510SOL    HW2 8893   3.550  10.382   8.835  0.3393  1.3190 -0.1934
 1511SOL     OW 8894   6.129   9.907   0.271 -0.2588 -0.4666  0.0951
 1511SOL    HW1 8895   6.101   9.997   0.285 -0.6517 -0.0610 -2.7205
 1511SOL    HW2 8896   6.219   9.904   0.302 -0.8224  0.3386  1.9562
 1512SOL     OW 8897   1.951   9.945   1.155 -0.0930  0.6762  0.2233
 1512SOL    HW1 8898   1.928  10.012   1.091  0.3105 -0.3566 -1.0603
 1512SOL    HW2 8899   1.998   9.992   1.224 -0.5132  1.8136 -0.2410
 1513SOL     OW 8900   8.209   2.293   4.666  0.1338 -0.0764  0.2503
 1513SOL    HW1 8901   8.145   2.226   4.688  0.7476 -0.2713  1.5521
 1513SOL    HW2 8902   8.285   2.244   4.634 -0.1731  0.1253 -0.8113
 1514SOL     OW 8903   7.377   8.878   0.403 -0.5798 -0.2456  0.4023
 1514SOL    HW1 8904   7.404   8.969   0.410  0.7678 -0.4143 -1.7099
 1514SOL    HW2 8905   7.345   8.869   0.313 -1.7137 -1.6170  0.9031
 1515SOL     OW 8906   4.322   5.072   4.626 -0.0206  0.3128 -0.1009
 1515SOL    HW1 8907   4.383   5.091   4.555 -0.2098 -0.5690 -0.5077
 1515SOL    HW2 8908   4.360   5.116   4.702  2.1355 -1.7231  0.1088
 1516SOL     OW 8909  10.503   9.305   0.736  0.3876 -0.3383  0.6059
 1516SOL    HW1 8910  10.456   9.224   0.753 -1.1324  0.3267 -0.2298
 1516SOL    HW2 8911  10.494   9.319   0.642  1.2638  0.4358  0.6195
 1517SOL     OW 8912   9.205   7.039   9.215 -0.2737  0.0512 -0.2086
 1517SOL    HW1 8913   9.203   7.043   9.311 -1.9112  1.4885 -0.2585
 1517SOL    HW2 8914   9.189   7.129   9.186 -1.6502 -0.6478 -1.8154
 1518SOL     OW 8915   6.197   3.418  10.301 -0.2144  0.2870 -1.0411
 1518SOL    HW1 8916   6.120   3.394  10.352  0.8880 -0.3812  0.3892
 1518SOL    HW2 8917   6.208   3.346  10.239  0.2177 -0.4868 -0.0958
 1519SOL     OW 8918  10.268   6.436   0.730  0.6862 -0.5733 -0.2271
 1519SOL    HW1 8919  10.357   6.468   0.718 -0.0827  2.9980  2.0621
 1519SOL    HW2 8920  10.233   6.490   0.802 -2.7454 -3.0464  0.1722
 1520SOL     OW 8921   8.346   9.732   8.922 -0.0480  0.3267 -0.2262
 1520SOL    HW1 8922   8.257   9.760   8.946  0.3738  2.4024 -0.8993
 1520SOL    HW2 8923   8.341   9.636   8.922 -2.0511  0.3717  0.5849
 1521SOL     OW 8924   9.169   2.396   9.854  0.1619 -0.2335 -1.0431
 1521SOL    HW1 8925   9.120   2.468   9.893  1.5804  1.4580 -2.2137
 1521SOL    HW2 8926   9.110   2.359   9.788 -1.0010 -0.9575  0.3457
 1522SOL     OW 8927   2.731  10.652   0.714  0.0776 -0.0185 -0.0310
 1522SOL    HW1 8928   2.719  10.716   0.784  0.0522 -2.2186  2.1413
 1522SOL    HW2 8929   2.815  10.611   0.734  0.2660 -0.4295 -1.5707
 1523SOL     OW 8930   0.718   5.359  10.418  0.2785  0.5545 -0.0383
 1523SOL    HW1 8931   0.746   5.435  10.367  0.1609  0.5248 -0.1471
 1523SOL    HW2 8932   0.765   5.368  10.501  0.3200  0.7087 -0.0771
 1524SOL     OW 8933   6.255   5.278   0.920  0.0813 -0.2935  0.2046
 1524SOL    HW1 8934   6.268   5.370   0.943  1.6296 -0.9321  2.2050
 1524SOL    HW2 8935   6.161   5.270   0.904 -0.6341  1.0599  3.0942
 1525SOL     OW 8936   5.344   7.571  10.082 -0.0023 -0.1665 -0.1671
 1525SOL    HW1 8937   5.274   7.577  10.016  0.1888  1.5785 -0.2429
 1525SOL    HW2 8938   5.423   7.557  10.031 -0.0428 -0.2997 -0.1960
 1526SOL     OW 8939   3.391   6.738   2.499  0.8861  0.1926 -0.9234
 1526SOL    HW1 8940   3.307   6.698   2.478  0.3102  0.9483 -0.1302
 1526SOL    HW2 8941   3.390   6.823   2.455  1.6108 -0.1509 -1.6294
 1527SOL     OW 8942   2.318   0.743   3.292 -0.2926  0.1230  0.2551
 1527SOL    HW1 8943   2.372   0.758   3.214 -0.8440  3.5254  0.3609
 1527SOL    HW2 8944   2.236   0.707   3.257  0.9822 -2.6553 -0.1558
 1528SOL     OW 8945   7.799   4.720   4.639  0.4199  0.5426 -0.5796
 1528SOL    HW1 8946   7.713   4.723   4.597 -0.6681 -1.9185  1.1843
 1528SOL    HW2 8947   7.844   4.648   4.596  0.2399 -0.3763  0.6967
 1529SOL     OW 8948   9.195   0.090   6.029 -0.6390 -0.6438  0.0784
 1529SOL    HW1 8949   9.104   0.099   6.056 -0.9098 -0.1045 -0.9599
 1529SOL    HW2 8950   9.231   0.179   6.037 -0.3968 -0.7187 -0.1753
 1530SOL     OW 8951   7.359   7.637   5.274  1.0993 -0.0950 -0.0491
 1530SOL    HW1 8952   7.357   7.600   5.362 -2.9849 -2.0165 -0.6593
 1530SOL    HW2 8953   7.375   7.561   5.217 -1.3054  0.0442 -1.0565
 1531SOL     OW 8954   2.820   2.668   3.012 -0.0407 -0.4571  0.2919
 1531SOL    HW1 8955   2.745   2.637   3.063 -0.6770 -0.7773 -0.8116
 1531SOL    HW2 8956   2.864   2.587   2.984  0.4055 -0.2796  0.4795
 1532SOL     OW 8957   8.416   4.325   2.024 -0.2304 -0.0811  0.2653
 1532SOL    HW1 8958   8.369   4.343   2.105 -0.2594 -2.6312  0.9090
 1532SOL    HW2 8959   8.429   4.230   2.025 -1.1963 -0.3826 -3.2321
 1533SOL     OW 8960   2.123   9.488   2.986 -0.5825  0.2701  0.2529
 1533SOL    HW1 8961   2.142   9.570   3.031 -0.1747 -0.3673  1.2691
 1533SOL    HW2 8962   2.170   9.495   2.903  0.1826  0.7086  0.7077
 1534SOL     OW 8963   4.708   2.641   6.245  0.4747  0.2528  0.0119
 1534SOL    HW1 8964   4.710   2.554   6.285  0.9597  0.1491 -0.2202
 1534SOL    HW2 8965   4.650   2.692   6.301  1.7069  0.3194  1.2903
 1535SOL     OW 8966   3.483   2.200   4.246  0.5769  0.0082 -0.3988
 1535SOL    HW1 8967   3.556   2.251   4.282  0.2168  0.8375 -0.8096
 1535SOL    HW2 8968   3.458   2.141   4.317  2.2030 -0.9064 -0.5405
 1536SOL     OW 8969  10.080   0.026   9.130 -0.0167  0.2649  0.0170
 1536SOL    HW1 8970  10.124   0.055   9.049  0.9124  0.4568  0.5738
 1536SOL    HW2 8971  10.037   0.105   9.163  1.3938  0.7553  0.8168
 1537SOL     OW 8972   6.139   1.462   5.905 -0.2968  0.0275  0.1701
 1537SOL    HW1 8973   6.138   1.517   5.983 -4.3307  2.7463 -1.4310
 1537SOL    HW2 8974   6.099   1.380   5.933  0.3371  0.1184  1.3899
 1538SOL     OW 8975   0.007   8.160   2.642 -0.3125 -0.3349 -0.0107
 1538SOL    HW1 8976   0.068   8.231   2.619  0.3332 -0.9789 -0.3707
 1538SOL    HW2 8977  -0.080   8.198   2.629  0.0017  0.6816  0.7382
 1539SOL     OW 8978   0.991   9.643   0.234 -0.1481 -0.2059 -0.5601
 1539SOL    HW1 8979   1.063   9.696   0.198  1.1984 -2.7641 -1.9556
 1539SOL    HW2 8980   1.002   9.648   0.328 -0.3951  2.3023 -0.5845
 1540SOL     OW 8981   3.713   3.687   7.451  0.1571  0.1984  0.2989
 1540SOL    HW1 8982   3.759   3.770   7.436  1.9910 -0.9788 -1.1527
 1540SOL    HW2 8983   3.638   3.710   7.506  0.4922  2.8224 -0.2178
 1541SOL     OW 8984   0.787   9.208   3.625  0.0293 -0.0426 -0.2894
 1541SOL    HW1 8985   0.860   9.185   3.568  0.2371 -1.7327  0.5908
 1541SOL    HW2 8986   0.710   9.171   3.582  0.0015 -0.1335 -0.1645
 1542SOL     OW 8987   7.317   7.382   0.023  0.5599 -0.1170 -0.0569
 1542SOL    HW1 8988   7.278   7.331  -0.049  1.1177 -0.4934 -0.0982
 1542SOL    HW2 8989   7.243   7.403   0.080  0.1308  0.0741 -0.6718
 1543SOL     OW 8990   4.289   5.336   4.402  0.3308  0.6782  0.2339
 1543SOL    HW1 8991   4.264   5.304   4.315 -0.9684  2.6173 -0.1591
 1543SOL    HW2 8992   4.220   5.303   4.460 -0.2484  1.5718  0.0640
 1544SOL     OW 8993   5.162   9.163   7.492  0.2200  0.5181 -0.4434
 1544SOL    HW1 8994   5.194   9.100   7.557  0.5944 -0.6207 -1.6872
 1544SOL    HW2 8995   5.227   9.160   7.422  0.7355  2.9794 -0.1743
 1545SOL     OW 8996   6.445   7.425   9.319  0.4903 -0.0079 -0.1195
 1545SOL    HW1 8997   6.385   7.356   9.347  1.0858 -1.4161 -2.0999
 1545SOL    HW2 8998   6.502   7.383   9.255  1.2384  2.1976 -1.0072
 1546SOL     OW 8999  10.852  10.031   6.811 -0.0688  0.0876  0.1391
 1546SOL    HW1 9000  10.813   9.945   6.827  0.7647 -0.2807  0.2632
 1546SOL    HW2 9001  10.866  10.034   6.717  0.6869 -0.2744  0.2306
 1547SOL     OW 9002   0.593   9.011   5.356 -0.5495  0.3212 -0.0156
 1547SOL    HW1 9003   0.604   9.061   5.437  1.1675  0.1676 -0.1222
 1547SOL    HW2 9004   0.530   8.943   5.379 -1.4378  1.3379  0.6788
 1548SOL     OW 9005   8.695   3.818   5.094  0.4171 -0.2733  0.2802
 1548SOL    HW1 9006   8.630   3.752   5.121 -0.2904  0.3340  0.0770
 1548SOL    HW2 9007   8.647   3.900   5.092  1.5164  0.4469  1.4866
 1549SOL     OW 9008   0.415   7.856   5.982 -0.2363 -0.1042 -0.8098
 1549SOL    HW1 9009   0.510   7.868   5.988 -0.1094 -1.1756 -0.5715
 1549SOL    HW2 9010   0.403   7.774   5.935 -1.1052  1.1899 -3.0031
 1550SOL     OW 9011   1.277   8.631   9.531  0.1503  0.1246  0.4202
 1550SOL    HW1 9012   1.187   8.602   9.547 -0.4814  0.7426 -1.7501
 1550SOL    HW2 9013   1.271   8.726   9.524  1.0307  0.1981  0.4736
 1551SOL     OW 9014   8.290   2.509   7.443 -0.3293  0.3899  0.1321
 1551SOL    HW1 9015   8.205   2.476   7.412  0.3914  0.3889 -1.9986
 1551SOL    HW2 9016   8.304   2.590   7.393 -0.3505  2.0087  2.5671
 1552SOL     OW 9017   5.573   7.881   3.090 -0.2481  0.2102 -0.2197
 1552SOL    HW1 9018   5.566   7.972   3.121 -1.9665  0.0682 -0.1372
 1552SOL    HW2 9019   5.568   7.887   2.995  1.9433  0.3597 -0.3925
 1553SOL     OW 9020   8.990   8.692   0.539 -0.0661  0.0284  0.3348
 1553SOL    HW1 9021   8.986   8.695   0.635  0.4066 -0.1128  0.3608
 1553SOL    HW2 9022   8.903   8.720   0.511  0.7843  3.5047  0.7352
 1554SOL     OW 9023   1.406   6.981  10.518  0.6763  0.0392  0.4147
 1554SOL    HW1 9024   1.460   7.049  10.557  1.1082  0.4165 -0.7900
 1554SOL    HW2 9025   1.432   6.901  10.563  2.1209  0.2465 -0.0110
 1555SOL     OW 9026   3.204   9.018   5.195 -0.2614  0.2822 -0.0652
 1555SOL    HW1 9027   3.157   8.935   5.186 -2.4482  1.4260  0.2258
 1555SOL    HW2 9028   3.214   9.050   5.105 -0.2656  0.1591 -0.1101
 1556SOL     OW 9029   4.393   6.705   9.421  0.1286  0.3779  0.1380
 1556SOL    HW1 9030   4.460   6.688   9.487  0.1439 -0.4820 -0.0866
 1556SOL    HW2 9031   4.344   6.780   9.455  1.4385  1.2748  0.1159
 1557SOL     OW 9032   8.549   0.420   5.143  0.1162  0.1704 -0.6065
 1557SOL    HW1 9033   8.583   0.381   5.224 -0.0793  1.6223  0.2129
 1557SOL    HW2 9034   8.626   0.456   5.099  0.0051  1.0327 -0.1166
 1558SOL     OW 9035   5.690  10.657  10.937  0.0724  0.8251 -0.5400
 1558SOL    HW1 9036   5.595  10.645  10.928  0.0123  0.8867 -0.0047
 1558SOL    HW2 9037   5.703  10.678  11.030  0.8539 -1.7548  0.0181
 1559SOL     OW 9038   9.859   9.180  11.053  0.0356  0.1364 -0.4415
 1559SOL    HW1 9039   9.818   9.231  11.122 -0.1498  0.8362 -1.0551
 1559SOL    HW2 9040   9.928   9.130  11.097 -0.6418 -0.0785  0.3781
 1560SOL     OW 9041   1.610   4.230   0.969 -0.1454  0.5131 -0.1494
 1560SOL    HW1 9042   1.572   4.189   0.891  0.6698  0.2770 -0.4295
 1560SOL    HW2 9043   1.541   4.288   1.001 -1.6831 -1.6321  0.7193
 1561SOL     OW 9044   5.559   4.180   9.883 -0.2913 -0.0236 -0.0313
 1561SOL    HW1 9045   5.547   4.263   9.837  3.0087  0.4545 -0.3217
 1561SOL    HW2 9046   5.577   4.116   9.814 -0.2651 -0.4060  0.3196
 1562SOL     OW 9047   9.799  11.030   3.967 -0.4162 -0.5680  0.8874
 1562SOL    HW1 9048   9.711  11.004   3.939 -1.4191  1.0625  2.3932
 1562SOL    HW2 9049   9.838  10.949   4.000 -1.5776 -1.1950  0.7758
 1563SOL     OW 9050  10.246   9.624   3.664  0.1064 -0.3727 -0.0968
 1563SOL    HW1 9051  10.317   9.678   3.630 -1.7453  0.1315 -3.5556
 1563SOL    HW2 9052  10.192   9.685   3.715  1.7168 -0.6633  2.1423
 1564SOL     OW 9053   0.390   9.156   4.969  0.0293 -0.0284  0.3642
 1564SOL    HW1 9054   0.433   9.071   4.980  0.8728  0.5704  2.1207
 1564SOL    HW2 9055   0.452   9.208   4.917  0.3187  0.0501  0.7823
 1565SOL     OW 9056  10.499   7.944   6.221  0.0057 -0.0351  0.0193
 1565SOL    HW1 9057  10.567   7.890   6.182  0.4885  0.0372  0.7554
 1565SOL    HW2 9058  10.442   7.882   6.267 -1.3769 -0.2987 -1.8919
 1566SOL     OW 9059   8.053   7.825   4.993  0.1444 -0.3626 -0.1952
 1566SOL    HW1 9060   7.967   7.788   4.977 -0.6496  1.4593 -0.4239
 1566SOL    HW2 9061   8.104   7.754   5.031 -1.9593 -1.0473  1.5278
 1567SOL     OW 9062  10.089   9.009   1.207 -0.3953 -0.0119 -0.2216
 1567SOL    HW1 9063  10.080   9.105   1.204 -1.6941 -0.0861  0.4042
 1567SOL    HW2 9064  10.182   8.993   1.197  0.1113  1.4369  1.5318
 1568SOL     OW 9065   3.417   6.629   8.150  0.4714 -0.1809 -0.0702
 1568SOL    HW1 9066   3.414   6.700   8.214  2.0311  0.6716 -0.9053
 1568SOL    HW2 9067   3.487   6.652   8.090 -1.0851 -0.8078 -2.2854
 1569SOL     OW 9068   6.124   9.777  10.665  0.7542  0.0726  0.5248
 1569SOL    HW1 9069   6.033   9.798  10.688  0.3476 -2.1019  1.0909
 1569SOL    HW2 9070   6.169   9.774  10.749  0.5181 -2.3279  0.6256
 1570SOL     OW 9071   2.526   7.802   6.172  0.0238 -0.2322 -0.3616
 1570SOL    HW1 9072   2.528   7.891   6.135  1.1246 -0.2554 -0.3724
 1570SOL    HW2 9073   2.450   7.761   6.131  0.5657  0.1127 -1.7614
 1571SOL     OW 9074   4.104   4.972   3.657 -0.1588  0.2320 -0.3381
 1571SOL    HW1 9075   4.079   5.029   3.585 -0.7355  0.8051  0.2938
 1571SOL    HW2 9076   4.167   5.023   3.708  0.2374 -0.1618 -0.4338
 1572SOL     OW 9077   2.960   3.911   5.180  0.1833  0.1433  0.7543
 1572SOL    HW1 9078   3.014   3.881   5.108 -0.4126  2.4517 -0.7789
 1572SOL    HW2 9079   3.020   3.921   5.254  1.3507  0.2201 -0.1852
 1573SOL     OW 9080   2.818   3.762   7.939 -0.1237  0.2087 -0.4036
 1573SOL    HW1 9081   2.878   3.765   7.864  2.0843  1.4303  1.2825
 1573SOL    HW2 9082   2.873   3.732   8.012 -2.0407 -0.3576  0.8830
 1574SOL     OW 9083   4.462   7.752   1.739 -0.3107  0.2088  0.2286
 1574SOL    HW1 9084   4.472   7.827   1.797  1.2733 -0.7732  1.3328
 1574SOL    HW2 9085   4.371   7.755   1.710 -0.9452  1.2071  2.1578
 1575SOL     OW 9086  11.086   5.513   6.826 -0.0178  0.1948  0.1734
 1575SOL    HW1 9087  10.997   5.525   6.792  0.3514 -1.2393 -1.4883
 1575SOL    HW2 9088  11.074   5.472   6.911 -0.9630  1.4384  0.6637
 1576SOL     OW 9089   4.459   3.574  10.117  0.2368 -0.2163 -0.6450
 1576SOL    HW1 9090   4.507   3.531  10.045 -0.3571 -2.7835  0.3647
 1576SOL    HW2 9091   4.373   3.592  10.080 -0.1039 -1.6238 -0.5953
 1577SOL     OW 9092   0.777   1.647   3.722 -0.1401  0.3611  0.1806
 1577SOL    HW1 9093   0.837   1.680   3.788  1.0530 -1.0818 -0.1263
 1577SOL    HW2 9094   0.714   1.718   3.709  1.2699  1.7889  0.7912
 1578SOL     OW 9095   0.935   7.536   0.573 -0.3399 -0.2196  0.0436
 1578SOL    HW1 9096   0.890   7.552   0.489 -0.6514 -1.6692 -0.1031
 1578SOL    HW2 9097   1.022   7.506   0.548  0.3214  1.3915  0.3084
 1579SOL     OW 9098   3.524   6.945   1.654  0.2955  0.0910 -0.3501
 1579SOL    HW1 9099   3.532   6.920   1.562  0.6098  1.0041 -0.5744
 1579SOL    HW2 9100   3.613   6.966   1.682 -0.0564  1.8688 -0.4413
 1580SOL     OW 9101   5.014   8.170   6.078 -0.4656  0.1639  0.2172
 1580SOL    HW1 9102   4.994   8.086   6.038 -2.6392 -0.1059  1.6888
 1580SOL    HW2 9103   4.950   8.231   6.040 -0.0798  0.7452  0.4788
 1581SOL     OW 9104   2.648   7.273   5.684  0.0152  0.4120 -0.0568
 1581SOL    HW1 9105   2.707   7.252   5.756 -0.4517 -0.1225  0.1802
 1581SOL    HW2 9106   2.569   7.306   5.726 -0.0069  0.7449 -0.3543
 1582SOL     OW 9107   4.881   8.614   4.789  0.2069 -0.4904 -0.0240
 1582SOL    HW1 9108   4.966   8.571   4.800 -0.1072 -1.2015 -0.3175
 1582SOL    HW2 9109   4.877   8.677   4.861  0.7915 -0.7601  0.2547
 1583SOL     OW 9110   2.021   9.648  10.620  0.4986  0.0841  0.8531
 1583SOL    HW1 9111   1.985   9.723  10.668  0.6683  0.1821  0.8291
 1583SOL    HW2 9112   1.946   9.591  10.605  0.2473  0.5388  0.3214
 1584SOL     OW 9113   1.830   6.108   8.723 -0.2832  0.2984 -0.5359
 1584SOL    HW1 9114   1.846   6.123   8.630  1.5170 -0.1703 -0.3396
 1584SOL    HW2 9115   1.736   6.119   8.734 -0.4141  1.1062 -2.2666
 1585SOL     OW 9116   5.768   5.403   1.233  0.4829 -0.3628  0.0058
 1585SOL    HW1 9117   5.765   5.390   1.328 -1.6002 -0.2355  0.0103
 1585SOL    HW2 9118   5.677   5.394   1.205  0.8327  1.0788 -1.7807
 1586SOL     OW 9119   9.791   6.571   7.288  0.6052  0.0305 -0.5156
 1586SOL    HW1 9120   9.755   6.651   7.251 -1.0288 -0.5081 -0.1551
 1586SOL    HW2 9121   9.872   6.556   7.239  0.2799  1.2024 -1.4550
 1587SOL     OW 9122   1.765   5.932   7.348 -0.2938 -0.3023  0.1062
 1587SOL    HW1 9123   1.859   5.933   7.328  0.0191 -1.1910  1.4217
 1587SOL    HW2 9124   1.752   5.850   7.395 -1.3517  0.7942  1.7981
 1588SOL     OW 9125   6.629   3.100  10.646  0.2603 -0.3279  0.2584
 1588SOL    HW1 9126   6.663   3.124  10.732  0.4535  0.1753  0.0437
 1588SOL    HW2 9127   6.704   3.067  10.598 -0.0572 -1.6707  0.6474
 1589SOL     OW 9128   0.461   8.315   5.489  0.1805  1.1567  0.4290
 1589SOL    HW1 9129   0.480   8.267   5.408 -0.8285  1.5095 -0.0266
 1589SOL    HW2 9130   0.381   8.274   5.522 -0.1764  1.9228  0.5201
 1590SOL     OW 9131   9.143   9.917   7.362  0.5836  0.1399  0.1493
 1590SOL    HW1 9132   9.192   9.943   7.284  0.4447 -0.4896 -0.1534
 1590SOL    HW2 9133   9.093   9.995   7.386  0.8717  0.4361 -0.2033
 1591SOL     OW 9134   0.614   7.578   0.724  0.4339 -0.6165  0.2707
 1591SOL    HW1 9135   0.699   7.552   0.687  0.8574 -0.6331  1.2416
 1591SOL    HW2 9136   0.616   7.546   0.814 -1.3365 -2.2823 -0.1934
 1592SOL     OW 9137   1.468   2.390   2.347  0.1922 -0.2418  0.0783
 1592SOL    HW1 9138   1.559   2.377   2.320  0.2400 -1.0958  0.5887
 1592SOL    HW2 9139   1.417   2.341   2.282  0.2252 -1.1992  0.7398
 1593SOL     OW 9140   1.386   4.755  10.853 -0.6156 -0.0723 -0.7832
 1593SOL    HW1 9141   1.464   4.738  10.800 -0.2150  1.6626 -0.8162
 1593SOL    HW2 9142   1.324   4.795  10.792 -0.5911  0.8516 -0.2127
 1594SOL     OW 9143  10.117   0.734   3.357 -0.0855 -0.6249 -0.4393
 1594SOL    HW1 9144  10.085   0.761   3.271 -1.0308  0.4776  0.2396
 1594SOL    HW2 9145  10.090   0.642   3.365 -0.5789 -0.5400 -1.0419
 1595SOL     OW 9146   4.198   9.507   8.187 -0.3012  0.4462 -0.6058
 1595SOL    HW1 9147   4.104   9.522   8.190 -0.4790 -0.7185  0.0136
 1595SOL    HW2 9148   4.236   9.595   8.189 -1.3900  1.0389 -2.8949
 1596SOL     OW 9149   7.578   0.793   4.453 -0.2005 -0.1554 -0.6398
 1596SOL    HW1 9150   7.574   0.818   4.545 -2.1646  1.4337 -1.0786
 1596SOL    HW2 9151   7.565   0.698   4.453 -0.2292 -0.1654  0.7056
 1597SOL     OW 9152   1.331   3.369  11.061  0.2531  0.5471 -0.4703
 1597SOL    HW1 9153   1.264   3.349  11.126  2.0335  1.2545  1.7041
 1597SOL    HW2 9154   1.295   3.441  11.010 -1.2709 -0.1688 -0.4714
 1598SOL     OW 9155   6.809   7.428   8.505 -0.4074 -0.3280 -0.1109
 1598SOL    HW1 9156   6.715   7.410   8.505 -1.2843  3.2627  1.7330
 1598SOL    HW2 9157   6.822   7.492   8.436  0.6759 -0.6321 -0.2131
 1599SOL     OW 9158  10.660   1.915   9.258 -0.7952  1.0529  0.3360
 1599SOL    HW1 9159  10.570   1.942   9.275 -0.5246  1.2354  1.5903
 1599SOL    HW2 9160  10.706   1.931   9.341  0.2458  0.3739 -0.0862
 1600SOL     OW 9161   8.147   2.807  11.090 -0.3023 -0.1788  0.7459
 1600SOL    HW1 9162   8.190   2.892  11.104  0.4793 -0.5959  0.9430
 1600SOL    HW2 9163   8.061   2.829  11.053 -1.0871  0.8286  2.9851
 1601SOL     OW 9164   8.753   4.291   1.793 -0.1950 -0.1230  0.1737
 1601SOL    HW1 9165   8.696   4.332   1.857 -1.5105 -1.3585 -0.1436
 1601SOL    HW2 9166   8.798   4.363   1.750 -1.4675  0.8915  0.4967
 1602SOL     OW 9167   4.727   7.387  10.450 -0.7051 -0.0499  0.6500
 1602SOL    HW1 9168   4.635   7.405  10.434 -0.4533  0.7135 -0.0677
 1602SOL    HW2 9169   4.767   7.474  10.457  0.0686 -0.3600  0.2042
 1603SOL     OW 9170   6.369   3.628   3.398 -0.3861  0.0171  0.3229
 1603SOL    HW1 9171   6.341   3.547   3.441 -1.0081  0.8710  1.5721
 1603SOL    HW2 9172   6.291   3.684   3.400 -0.3775  0.1638 -1.7765
 1604SOL     OW 9173   8.218   2.886   0.389  0.6568  0.4181  0.4698
 1604SOL    HW1 9174   8.299   2.937   0.400  0.3820  0.8052  0.7673
 1604SOL    HW2 9175   8.152   2.952   0.368 -0.0831  0.4503  2.6423
 1605SOL     OW 9176   5.407   8.654   5.661 -0.4178  0.3436 -0.5125
 1605SOL    HW1 9177   5.447   8.597   5.726 -0.1458  0.2392 -0.7654
 1605SOL    HW2 9178   5.313   8.647   5.677 -0.3118  1.1902  0.5790
 1606SOL     OW 9179   9.696   6.494   7.574 -0.5133 -0.1369  0.5313
 1606SOL    HW1 9180   9.743   6.519   7.495 -0.4556 -0.5048  0.4471
 1606SOL    HW2 9181   9.611   6.539   7.566 -1.1156 -1.3922 -0.5038
 1607SOL     OW 9182   7.284  10.759   8.178 -0.0699 -0.0414  0.0968
 1607SOL    HW1 9183   7.194  10.791   8.176  0.3883  1.3367 -2.3398
 1607SOL    HW2 9184   7.277  10.665   8.162 -1.0091  0.5360 -3.6645
 1608SOL     OW 9185  10.228   8.386  10.937  0.2455 -0.7068  0.5556
 1608SOL    HW1 9186  10.212   8.443  10.862 -1.2351  0.3021  1.5928
 1608SOL    HW2 9187  10.312   8.344  10.916  1.2282  1.5302 -0.4584
 1609SOL     OW 9188   4.947   6.293   9.278 -0.3038 -0.1550  0.1345
 1609SOL    HW1 9189   5.027   6.337   9.249  0.0894  0.6020  2.2129
 1609SOL    HW2 9190   4.975   6.241   9.353 -1.7350 -0.0458  0.7640
 1610SOL     OW 9191   1.122   2.994   5.975  0.5069 -0.4981  0.7215
 1610SOL    HW1 9192   1.217   2.999   5.986  0.3660  0.6954  1.5482
 1610SOL    HW2 9193   1.089   2.970   6.061  0.0306 -0.4094  0.5657
 1611SOL     OW 9194   3.746  10.218  10.998 -0.0135 -0.2625  0.6194
 1611SOL    HW1 9195   3.831  10.202  10.957  1.0345  0.4558  2.3945
 1611SOL    HW2 9196   3.711  10.294  10.951  0.5695 -0.2210  0.2358
 1612SOL     OW 9197   7.311   8.946   6.842 -0.4654 -0.0219  0.3501
 1612SOL    HW1 9198   7.295   8.922   6.751  0.0971 -0.8061  0.4457
 1612SOL    HW2 9199   7.226   8.939   6.884 -0.8485  0.9361 -0.2415
 1613SOL     OW 9200  10.231   2.320   6.738 -0.6325  0.0731 -0.0566
 1613SOL    HW1 9201  10.206   2.270   6.661 -2.1255 -0.4543  0.7391
 1613SOL    HW2 9202  10.163   2.301   6.803 -0.0178  1.3694  1.0242
 1614SOL     OW 9203   3.499   5.647   2.574 -0.9469 -0.6246  0.7134
 1614SOL    HW1 9204   3.519   5.626   2.665 -2.2428 -0.2846  1.0964
 1614SOL    HW2 9205   3.585   5.656   2.532 -0.3336 -2.7950  1.4035
 1615SOL     OW 9206   7.787  10.923   3.863  0.7671 -0.5267  0.2758
 1615SOL    HW1 9207   7.732  10.995   3.895 -0.0048 -0.9400 -0.1147
 1615SOL    HW2 9208   7.804  10.945   3.771 -0.4168 -1.4063 -0.1690
 1616SOL     OW 9209   7.431   7.601   4.349  0.5146 -0.2459 -0.6421
 1616SOL    HW1 9210   7.479   7.528   4.387 -0.1468 -0.8391 -0.9083
 1616SOL    HW2 9211   7.470   7.614   4.263  1.4166  0.5064 -0.1337
 1617SOL     OW 9212   3.662   7.259   1.967  0.5704 -0.3034 -0.4453
 1617SOL    HW1 9213   3.753   7.233   1.952  0.4381 -0.9328 -0.2151
 1617SOL    HW2 9214   3.665   7.310   2.048  0.5021 -1.7612  0.5138
 1618SOL     OW 9215   7.738  10.770   5.257  0.6429 -0.2583  0.3758
 1618SOL    HW1 9216   7.766  10.817   5.336 -0.4554  1.3408 -0.1321
 1618SOL    HW2 9217   7.762  10.827   5.185  2.8943 -2.3248 -0.6285
 1619SOL     OW 9218   8.072  10.695   4.211  0.6305  0.3972  0.6318
 1619SOL    HW1 9219   8.141  10.762   4.212  2.2240 -1.1515  0.2724
 1619SOL    HW2 9220   8.095  10.639   4.138  0.1830 -1.3728  1.7961
 1620SOL     OW 9221   2.496   9.757   1.227 -0.1550  0.1200  0.2805
 1620SOL    HW1 9222   2.414   9.784   1.186  0.5130  0.1923 -1.0690
 1620SOL    HW2 9223   2.561   9.765   1.157  0.7615 -1.2249  0.9299
 1621SOL     OW 9224   6.639   4.445  10.441  0.4069 -0.6158 -0.5791
 1621SOL    HW1 9225   6.557   4.456  10.394  0.3596 -1.9363 -0.8497
 1621SOL    HW2 9226   6.706   4.437  10.373  1.0078  1.7881 -0.3654
 1622SOL     OW 9227   1.671   1.025   5.118  0.0275  0.3552  0.2441
 1622SOL    HW1 9228   1.737   1.049   5.183  1.9752 -0.4608 -1.3269
 1622SOL    HW2 9229   1.699   1.068   5.038 -1.8102  0.5930 -0.3210
 1623SOL     OW 9230   7.822   6.208   8.620  0.1443 -0.2417 -0.0962
 1623SOL    HW1 9231   7.877   6.228   8.696  0.1743 -0.3633 -0.0847
 1623SOL    HW2 9232   7.871   6.141   8.572  0.5545  0.4689 -0.6999
 1624SOL     OW 9233   0.737   4.820   2.204  0.2985  0.0428  0.2432
 1624SOL    HW1 9234   0.742   4.897   2.261  2.0114  0.2770 -0.1824
 1624SOL    HW2 9235   0.822   4.777   2.214  0.0264 -0.8010 -0.9038
 1625SOL     OW 9236   3.875   5.368   7.853  0.1731 -0.4762  0.4400
 1625SOL    HW1 9237   3.928   5.382   7.932  1.4729  2.7286 -0.8160
 1625SOL    HW2 9238   3.893   5.278   7.827  0.9849 -1.0859  2.8712
 1626SOL     OW 9239  11.102   6.219   7.286 -0.4611  0.1045 -1.0274
 1626SOL    HW1 9240  11.085   6.253   7.198  0.8269  0.5169 -1.1445
 1626SOL    HW2 9241  11.194   6.190   7.283  0.8199  3.3258  1.1184
 1627SOL     OW 9242  10.605   3.926   3.600  0.1550 -0.1065 -0.8075
 1627SOL    HW1 9243  10.671   3.927   3.669 -1.4305  1.6369  0.8160
 1627SOL    HW2 9244  10.552   3.849   3.619 -0.9486  0.9551  0.7240
 1628SOL     OW 9245   1.407   2.891   3.599  0.8642  0.7114  0.1090
 1628SOL    HW1 9246   1.325   2.870   3.555 -0.3360 -0.2564  2.6611
 1628SOL    HW2 9247   1.475   2.865   3.536 -0.6934  1.6561 -2.1191
 1629SOL     OW 9248   0.294  10.155   8.095  0.1065 -0.1700 -0.0833
 1629SOL    HW1 9249   0.314  10.069   8.133 -0.2374 -0.1589  0.1362
 1629SOL    HW2 9250   0.293  10.140   8.001  3.3331  0.2969 -0.3000
 1630SOL     OW 9251   3.409   0.107   7.540 -0.0373  0.0087  0.7447
 1630SOL    HW1 9252   3.406   0.127   7.446  0.2055  0.3973  0.8197
 1630SOL    HW2 9253   3.373   0.185   7.582 -1.7858 -0.8299  0.8911
 1631SOL     OW 9254   3.472   7.464   4.912  0.2894 -0.7418 -0.1843
 1631SOL    HW1 9255   3.552   7.492   4.867 -0.5592 -0.1407 -1.3575
 1631SOL    HW2 9256   3.494   7.469   5.005  0.8799  1.7535 -0.3918
 1632SOL     OW 9257  10.958   5.454   4.070 -0.0417  0.4981  0.1508
 1632SOL    HW1 9258  10.914   5.370   4.087  1.6886 -0.8268 -1.3958
 1632SOL    HW2 9259  11.025   5.459   4.139  0.1470  0.3657 -0.0202
 1633SOL     OW 9260   7.829   6.960   5.859  0.1706 -0.5801 -0.2651
 1633SOL    HW1 9261   7.922   6.943   5.846  0.4747  0.1963  0.7263
 1633SOL    HW2 9262   7.826   7.019   5.934 -1.0434  0.5237 -1.1384
 1634SOL     OW 9263   7.618   3.969   6.716  0.2113  0.2573 -0.1682
 1634SOL    HW1 9264   7.653   3.896   6.766  1.9385  1.1606 -0.0046
 1634SOL    HW2 9265   7.557   4.012   6.776  1.8075  0.9820  0.9896
 1635SOL     OW 9266   6.033   9.194   3.018 -0.3857 -0.1934  0.0961
 1635SOL    HW1 9267   5.946   9.153   3.021 -0.0678 -1.2614 -2.6585
 1635SOL    HW2 9268   6.093   9.124   3.042 -0.1915  0.3412  1.2406
 1636SOL     OW 9269   4.154   2.113   1.780  0.2622  0.0399 -1.0010
 1636SOL    HW1 9270   4.152   2.018   1.778  0.3591  0.0372 -0.9781
 1636SOL    HW2 9271   4.234   2.135   1.826 -0.2528  0.1236 -0.1188
 1637SOL     OW 9272   5.913   5.705   4.927 -0.4068 -0.6688  0.3259
 1637SOL    HW1 9273   5.940   5.783   4.878  0.2889 -1.6345 -0.9028
 1637SOL    HW2 9274   5.880   5.738   5.010 -0.3908  0.9480 -0.2848
 1638SOL     OW 9275   8.927   6.711   2.584 -0.4018 -0.8263 -0.5731
 1638SOL    HW1 9276   8.861   6.778   2.600 -0.1260 -0.8413  0.7299
 1638SOL    HW2 9277   8.927   6.699   2.489  0.1423  1.6362 -0.9554
 1639SOL     OW 9278   7.348   4.114   5.130  0.1248 -0.2248  0.0791
 1639SOL    HW1 9279   7.269   4.168   5.127 -0.0707 -0.4508  0.9350
 1639SOL    HW2 9280   7.391   4.139   5.212  1.3621  0.4661 -0.7519
 1640SOL     OW 9281   1.087   0.247   5.903  0.3917  0.0865  0.2758
 1640SOL    HW1 9282   1.114   0.192   5.829  0.2590  0.0552  0.2489
 1640SOL    HW2 9283   1.165   0.255   5.957  0.8105  1.0298 -0.4367
 1641SOL     OW 9284  10.879   3.629   7.473  0.5362 -0.1091  0.3506
 1641SOL    HW1 9285  10.963   3.584   7.463  0.1412 -0.6234 -0.8437
 1641SOL    HW2 9286  10.857   3.659   7.385 -0.1591  0.7214  0.7854
 1642SOL     OW 9287   9.608   2.445   9.671  0.2165  0.7966 -0.7620
 1642SOL    HW1 9288   9.544   2.476   9.607  0.2722 -0.4458 -1.4496
 1642SOL    HW2 9289   9.571   2.467   9.756  0.1664  2.5317 -1.2051
 1643SOL     OW 9290   0.433   4.999   6.984 -0.3552 -0.2057  0.3354
 1643SOL    HW1 9291   0.402   4.969   7.070 -0.4035 -1.9194 -0.2538
 1643SOL    HW2 9292   0.468   4.921   6.942 -1.7588  0.2382 -1.8395
 1644SOL     OW 9293   1.448   1.458   8.288  0.2288  0.7527 -0.2861
 1644SOL    HW1 9294   1.396   1.387   8.250  0.5109  1.0198 -1.1883
 1644SOL    HW2 9295   1.521   1.470   8.227  0.0395  2.0115 -0.2931
 1645SOL     OW 9296   6.753   1.627   2.202 -0.0903  0.3960  0.0733
 1645SOL    HW1 9297   6.748   1.535   2.176 -2.9861  0.2548  0.8693
 1645SOL    HW2 9298   6.788   1.671   2.124  1.3514 -1.3117 -0.3287
 1646SOL     OW 9299   6.368   0.626   7.929  0.0290 -0.2790  0.4159
 1646SOL    HW1 9300   6.457   0.628   7.893 -0.7197  0.8525 -1.5363
 1646SOL    HW2 9301   6.365   0.546   7.981  2.9884  0.9398  2.7598
 1647SOL     OW 9302   1.963   5.433   3.762 -0.4828 -0.1673 -0.1403
 1647SOL    HW1 9303   2.041   5.397   3.803 -1.0077 -0.7736  0.3550
 1647SOL    HW2 9304   1.993   5.513   3.718  0.0966  0.5823  1.5209
 1648SOL     OW 9305   5.573   9.971  10.986  0.2862 -0.1866  0.2780
 1648SOL    HW1 9306   5.624   9.965  11.067  0.0117 -0.1389  0.4567
 1648SOL    HW2 9307   5.592  10.058  10.951 -0.9990  0.5188  1.2479
 1649SOL     OW 9308   9.808   2.298   5.687  0.1262  0.0849  0.4770
 1649SOL    HW1 9309   9.836   2.288   5.778 -2.1020 -0.0872  1.2048
 1649SOL    HW2 9310   9.744   2.370   5.690 -0.2430 -0.1641 -0.8965
 1650SOL     OW 9311   7.698   2.474   0.033  0.0827  0.4067 -0.5612
 1650SOL    HW1 9312   7.734   2.466   0.122 -1.5114 -1.1762  0.0124
 1650SOL    HW2 9313   7.774   2.470  -0.024  0.9756 -2.8313  0.5813
 1651SOL     OW 9314   8.925   2.577   3.149  0.2228 -0.2520  0.1829
 1651SOL    HW1 9315   8.920   2.618   3.063  0.0505  0.3654  0.4835
 1651SOL    HW2 9316   9.014   2.543   3.154  0.4644  0.3482  0.0490
 1652SOL     OW 9317   7.892  10.891   4.638  0.3156  0.1865 -0.1580
 1652SOL    HW1 9318   7.975  10.847   4.650 -0.8682 -1.8088  1.1560
 1652SOL    HW2 9319   7.890  10.914   4.545  1.3873 -1.7308 -0.6893
 1653SOL     OW 9320   5.318   7.976   4.401  0.2587  0.5371  0.1878
 1653SOL    HW1 9321   5.299   7.945   4.313  2.3532  0.5079 -0.2913
 1653SOL    HW2 9322   5.329   7.897   4.453  0.7047  0.5339  0.0890
 1654SOL     OW 9323   7.022   2.539   6.432 -0.3367 -0.0870 -0.2676
 1654SOL    HW1 9324   7.035   2.475   6.502 -0.6815  0.1422  0.0084
 1654SOL    HW2 9325   7.009   2.487   6.353  1.1769 -0.3498 -0.3798
 1655SOL     OW 9326   3.586   1.504   0.101  0.1005  0.1200 -0.0735
 1655SOL    HW1 9327   3.653   1.444   0.068  0.6122  1.3625 -1.4016
 1655SOL    HW2 9328   3.524   1.512   0.029 -2.7699 -2.6375  1.8135
 1656SOL     OW 9329   0.591   0.827   3.617  0.2448  0.1280 -0.6369
 1656SOL    HW1 9330   0.593   0.815   3.522  1.2270 -0.7858 -0.5194
 1656SOL    HW2 9331   0.497   0.826   3.639  0.0184  0.0243 -1.5541
 1657SOL     OW 9332   7.201   3.217   7.773  0.0829 -0.2556 -0.0372
 1657SOL    HW1 9333   7.183   3.131   7.734  0.1137 -0.8386  1.1716
 1657SOL    HW2 9334   7.129   3.272   7.742 -0.3031 -0.8946 -0.3137
 1658SOL     OW 9335   7.962   6.621   8.412 -0.5256 -0.5732 -0.3143
 1658SOL    HW1 9336   7.900   6.552   8.389 -0.5580 -0.3032 -1.0614
 1658SOL    HW2 9337   8.042   6.575   8.435 -0.2905 -0.8476 -1.6018
 1659SOL     OW 9338   2.944   0.858   9.239  0.3216  0.4712  0.1819
 1659SOL    HW1 9339   3.029   0.816   9.254  1.0818  2.0662  0.5750
 1659SOL    HW2 9340   2.947   0.883   9.146  0.3618  0.6901  0.2423
 1660SOL     OW 9341   1.657   9.933   3.205 -0.3519 -0.1942  0.2105
 1660SOL    HW1 9342   1.648   9.844   3.171  2.4956 -1.6999  2.9232
 1660SOL    HW2 9343   1.626   9.928   3.295 -0.7753  1.7679  0.2202
 1661SOL     OW 9344   4.856   7.013   4.437 -0.3197  0.0617  0.3195
 1661SOL    HW1 9345   4.873   6.984   4.527 -0.3048 -2.0308 -0.3138
 1661SOL    HW2 9346   4.943   7.028   4.400 -0.1739 -1.4677 -0.0450
 1662SOL     OW 9347   7.318   7.708   6.504  0.8588  0.5807 -0.1240
 1662SOL    HW1 9348   7.341   7.658   6.426 -0.6295  1.5374 -1.2480
 1662SOL    HW2 9349   7.360   7.662   6.576 -0.3169 -2.2169 -1.0952
 1663SOL     OW 9350   1.630   7.241   5.776 -0.3772  0.1993 -0.5356
 1663SOL    HW1 9351   1.698   7.175   5.790 -2.4353 -2.4145 -1.8912
 1663SOL    HW2 9352   1.567   7.198   5.717 -4.4064  1.4817  2.3550
 1664SOL     OW 9353   7.910   9.781   0.626  0.2569 -0.3187  0.5842
 1664SOL    HW1 9354   7.874   9.759   0.540 -0.3631  0.5514  0.6144
 1664SOL    HW2 9355   7.841   9.760   0.688  1.8056 -4.1495  1.3104
 1665SOL     OW 9356   9.901   8.820  10.779  0.6021  0.7971  0.4384
 1665SOL    HW1 9357   9.817   8.866  10.785  0.3446  0.6854 -1.6539
 1665SOL    HW2 9358   9.878   8.728  10.793  0.4740  0.8323  0.4609
 1666SOL     OW 9359   9.683   9.564   2.258  0.4080 -0.1691 -0.3144
 1666SOL    HW1 9360   9.742   9.631   2.292 -0.4066  0.8977 -0.9149
 1666SOL    HW2 9361   9.698   9.488   2.314  1.5281  0.4341  0.2386
 1667SOL     OW 9362   6.849   6.783   0.443 -0.2117 -0.0042  0.4384
 1667SOL    HW1 9363   6.808   6.868   0.426 -0.3235 -0.1576 -0.0767
 1667SOL    HW2 9364   6.847   6.774   0.538 -0.7649  0.2891  0.4594
 1668SOL     OW 9365   0.931   5.545   4.661  0.0021 -0.5774  0.1573
 1668SOL    HW1 9366   0.839   5.573   4.666  0.1370 -0.1016 -0.0170
 1668SOL    HW2 9367   0.931   5.475   4.595  0.1086  0.8630 -1.4278
 1669SOL     OW 9368   9.055   8.129  10.520  0.4013  0.2048  0.4517
 1669SOL    HW1 9369   9.066   8.040  10.553  0.0627  0.0434  0.1381
 1669SOL    HW2 9370   8.970   8.127  10.476 -0.2560  1.0398  1.6462
 1670SOL     OW 9371   1.008   3.704   6.712 -0.1877  0.5052  0.1518
 1670SOL    HW1 9372   0.970   3.709   6.625  1.0526 -2.0891 -0.6357
 1670SOL    HW2 9373   1.095   3.745   6.703 -0.5360  1.3622  0.5294
 1671SOL     OW 9374   4.334   1.062   5.189 -0.3124 -0.4023  0.3524
 1671SOL    HW1 9375   4.349   1.060   5.283  0.2599 -0.7684  0.2629
 1671SOL    HW2 9376   4.415   1.026   5.152 -0.9456 -1.2623 -0.2319
 1672SOL     OW 9377   2.330   5.464  10.649  0.0762  0.2512  0.1285
 1672SOL    HW1 9378   2.377   5.452  10.567 -1.5763  1.7879 -1.1376
 1672SOL    HW2 9379   2.365   5.545  10.686  1.7573 -1.1153  1.7005
 1673SOL     OW 9380   9.934   8.400   4.745  0.1086 -0.2658 -0.1984
 1673SOL    HW1 9381  10.005   8.451   4.705  0.0542 -0.4055 -0.4719
 1673SOL    HW2 9382   9.938   8.422   4.838  0.8167 -0.6419 -0.1386
 1674SOL     OW 9383  10.634   9.376   3.363  0.8349  0.2509  0.1258
 1674SOL    HW1 9384  10.552   9.385   3.315  0.0727  1.1762  1.5371
 1674SOL    HW2 9385  10.642   9.282   3.380 -0.7132  0.2747  1.2311
 1675SOL     OW 9386  11.072   9.667   6.298 -0.2620  0.9040  0.0700
 1675SOL    HW1 9387  11.104   9.636   6.383  0.5363  0.4910 -0.3691
 1675SOL    HW2 9388  10.977   9.660   6.305 -0.2300  1.3215  1.0916
 1676SOL     OW 9389   5.472   3.215   0.542 -0.1410  0.2627  0.1796
 1676SOL    HW1 9390   5.462   3.120   0.543  0.3879  0.1951 -0.2772
 1676SOL    HW2 9391   5.411   3.246   0.609 -0.4143 -0.3857  0.2428
 1677SOL     OW 9392  10.529   8.485   3.576 -0.3271 -0.1022  0.2541
 1677SOL    HW1 9393  10.536   8.431   3.655 -1.5346  0.6638  0.9198
 1677SOL    HW2 9394  10.481   8.430   3.514 -0.2863 -0.3275  0.4211
 1678SOL     OW 9395   6.498   2.424   5.215 -0.0444 -0.6494 -0.5624
 1678SOL    HW1 9396   6.481   2.517   5.200 -0.7481 -1.1071 -2.9296
 1678SOL    HW2 9397   6.583   2.422   5.259  0.2095  1.0916 -0.9205
 1679SOL     OW 9398   9.036   0.569   6.737  0.1946 -0.5404  0.7287
 1679SOL    HW1 9399   9.027   0.629   6.811  0.1835  1.0949 -0.5361
 1679SOL    HW2 9400   9.123   0.587   6.702 -0.1425 -0.6485 -0.1900
 1680SOL     OW 9401   0.494   8.449   8.064 -0.2673 -0.1858  0.4247
 1680SOL    HW1 9402   0.427   8.381   8.063 -0.7465  0.1617  2.9636
 1680SOL    HW2 9403   0.550   8.428   8.139  0.1494  1.6436  0.6825
 1681SOL     OW 9404   8.934   4.624   2.958 -0.6525  0.4424 -0.1232
 1681SOL    HW1 9405   8.857   4.589   3.002 -1.0612 -0.1708 -1.2818
 1681SOL    HW2 9406   8.903   4.651   2.872  0.2123  1.1980 -0.2213
 1682SOL     OW 9407   9.463   0.281   7.608  0.6365 -0.4132 -0.2892
 1682SOL    HW1 9408   9.470   0.367   7.566  1.2459 -0.9222 -1.2697
 1682SOL    HW2 9409   9.530   0.282   7.675  0.6288 -0.1162 -0.2840
 1683SOL     OW 9410   1.412   4.581   0.756  0.8531 -0.5034 -0.0558
 1683SOL    HW1 9411   1.349   4.642   0.718  0.2478  0.0457  1.7275
 1683SOL    HW2 9412   1.439   4.526   0.682  0.5720  1.1804 -1.4854
 1684SOL     OW 9413   5.440   2.397   8.254 -0.0745  0.8181 -0.3057
 1684SOL    HW1 9414   5.352   2.362   8.241  0.4299 -0.6225 -0.0810
 1684SOL    HW2 9415   5.489   2.368   8.177  0.6479  0.0125  0.4319
 1685SOL     OW 9416   7.734   1.712   1.356 -0.0089  0.0888 -0.3592
 1685SOL    HW1 9417   7.806   1.772   1.336  0.7730 -0.9736 -0.8770
 1685SOL    HW2 9418   7.705   1.680   1.271  0.9979 -1.8194 -0.0626
 1686SOL     OW 9419   6.592   4.283   7.352 -0.2935 -0.1867  0.0789
 1686SOL    HW1 9420   6.686   4.287   7.371 -0.4432 -1.3817  1.2313
 1686SOL    HW2 9421   6.553   4.253   7.434 -1.7333  0.6325 -0.2781
 1687SOL     OW 9422   9.067   1.421   0.243 -0.2618 -0.5190  0.4539
 1687SOL    HW1 9423   8.973   1.430   0.254 -0.4876 -2.0414  0.1039
 1687SOL    HW2 9424   9.095   1.364   0.315  0.4301  0.0746  0.6700
 1688SOL     OW 9425   6.833  10.908   5.829  0.8692  0.0353  0.2695
 1688SOL    HW1 9426   6.817  10.965   5.904 -0.8928 -0.1380  0.0615
 1688SOL    HW2 9427   6.829  10.819   5.866 -2.2242 -0.1643 -0.3060
 1689SOL     OW 9428   5.531   9.540   2.981  0.1676  0.3686  0.7272
 1689SOL    HW1 9429   5.438   9.549   2.960 -0.3019 -2.2766  1.3725
 1689SOL    HW2 9430   5.533   9.532   3.076  0.9987 -0.0435  0.6771
 1690SOL     OW 9431   9.382   1.503   7.930 -0.4571  0.6849  0.2424
 1690SOL    HW1 9432   9.445   1.576   7.929  0.4489 -0.0490  1.0250
 1690SOL    HW2 9433   9.322   1.521   7.858  2.3699 -0.0515 -2.5068
 1691SOL     OW 9434   7.676   3.867   9.209  0.0912 -0.1024  0.7596
 1691SOL    HW1 9435   7.671   3.867   9.305 -0.8408  0.3824  0.7317
 1691SOL    HW2 9436   7.584   3.869   9.181  0.3644  0.1519 -0.1416
 1692SOL     OW 9437   0.521   5.213   8.013  0.5518  0.3364 -0.4360
 1692SOL    HW1 9438   0.436   5.241   7.980 -1.0974 -0.2008  2.8796
 1692SOL    HW2 9439   0.540   5.133   7.965 -0.3701  0.9094 -1.8268
 1693SOL     OW 9440   2.684   6.926   4.992  0.1353  0.3965 -0.5419
 1693SOL    HW1 9441   2.590   6.944   4.986 -0.0709 -0.7589 -1.0252
 1693SOL    HW2 9442   2.720   6.959   4.909  0.1764  0.9183 -0.3192
 1694SOL     OW 9443   9.226   9.836   8.281  0.4848 -0.1819  0.3419
 1694SOL    HW1 9444   9.141   9.853   8.239 -0.2575 -1.0209  1.4707
 1694SOL    HW2 9445   9.263   9.923   8.293  0.4134  0.1373 -1.3828
 1695SOL     OW 9446   6.540   2.579   6.559 -0.5234 -0.7987  0.1364
 1695SOL    HW1 9447   6.537   2.527   6.639 -0.6736  0.1052  0.7369
 1695SOL    HW2 9448   6.631   2.609   6.553 -0.8114  0.2721  0.7457
 1696SOL     OW 9449   1.048   2.692   6.632 -0.5079  0.3833 -0.0906
 1696SOL    HW1 9450   1.027   2.783   6.654 -0.7950  0.2063  0.3996
 1696SOL    HW2 9451   1.027   2.684   6.539  1.2071  1.2907 -0.5912
 1697SOL     OW 9452   1.530   9.228  10.391 -0.6531 -0.0472 -0.3940
 1697SOL    HW1 9453   1.599   9.165  10.411  0.0742  0.8428 -0.0298
 1697SOL    HW2 9454   1.449   9.182  10.413 -0.0248  0.0893  2.6461
 1698SOL     OW 9455   1.100  10.563   1.494  0.2007 -0.0318 -0.0187
 1698SOL    HW1 9456   1.065  10.599   1.412  1.0751 -1.2589 -0.9766
 1698SOL    HW2 9457   1.024  10.535   1.543 -0.2788 -1.4920 -1.4964
 1699SOL     OW 9458   7.127   9.887   9.792  0.0037  0.1750 -0.1163
 1699SOL    HW1 9459   7.051   9.906   9.737  1.0072  1.1738 -1.2239
 1699SOL    HW2 9460   7.172   9.816   9.745  0.0645 -0.0029  0.2118
 1700SOL     OW 9461   1.944   8.768   4.656 -0.2275  0.3472 -0.5296
 1700SOL    HW1 9462   1.890   8.785   4.733  0.2010 -1.5475  0.2410
 1700SOL    HW2 9463   1.887   8.719   4.597  0.9798 -3.2457  1.0183
 1701SOL     OW 9464   2.271   6.823   5.296  0.5987 -0.7286 -0.5306
 1701SOL    HW1 9465   2.250   6.848   5.386  0.7572 -3.4850  0.3786
 1701SOL    HW2 9466   2.356   6.864   5.278  0.6013 -0.2065  0.5986
 1702SOL     OW 9467   5.611   3.089   6.605 -0.4972  0.3450 -0.2791
 1702SOL    HW1 9468   5.689   3.095   6.550  0.0358  1.0736  0.5200
 1702SOL    HW2 9469   5.643   3.106   6.694 -1.4353 -0.1567  0.1745
 1703SOL     OW 9470   3.632  10.495   7.594  0.3645  0.1213  0.0088
 1703SOL    HW1 9471   3.611  10.525   7.506 -2.7636  1.9657  1.2201
 1703SOL    HW2 9472   3.663  10.574   7.639  0.9937 -0.5912  0.8677
 1704SOL     OW 9473   4.221   9.745   1.776 -0.0497  0.2780  0.2472
 1704SOL    HW1 9474   4.306   9.732   1.734  0.4674  1.1992  0.9606
 1704SOL    HW2 9475   4.220   9.681   1.847  0.1062  0.3544  0.3191
 1705SOL     OW 9476   9.085   8.127   1.273  0.5171 -0.3676 -0.1386
 1705SOL    HW1 9477   9.131   8.055   1.229  0.9675 -0.3084  0.2241
 1705SOL    HW2 9478   9.105   8.204   1.219  0.5147 -0.4132 -0.2052
 1706SOL     OW 9479   1.668   5.071   6.007  0.1468  0.1297 -0.2081
 1706SOL    HW1 9480   1.640   5.161   6.021  3.1324  1.4234 -1.4121
 1706SOL    HW2 9481   1.699   5.041   6.092 -1.5053 -0.0584  0.3497
 1707SOL     OW 9482   7.072   6.416   7.669  0.3759 -0.0813  0.1893
 1707SOL    HW1 9483   7.083   6.456   7.583 -0.4290 -0.6455 -0.1946
 1707SOL    HW2 9484   7.061   6.490   7.729 -0.8356  0.2972 -0.4680
 1708SOL     OW 9485   2.505   8.081   2.325 -0.4732 -0.3145 -0.2680
 1708SOL    HW1 9486   2.552   8.163   2.311  1.1688 -1.2297 -0.4755
 1708SOL    HW2 9487   2.574   8.015   2.327 -1.3725 -1.3588  3.1620
 1709SOL     OW 9488   2.852   9.605   4.360  0.1695 -0.0710  0.3746
 1709SOL    HW1 9489   2.937   9.560   4.350  0.8078  1.0114  0.7415
 1709SOL    HW2 9490   2.875   9.690   4.397 -1.0857  0.2842  0.3600
 1710SOL     OW 9491   6.923   8.056   7.390 -0.3931  0.6344  0.1527
 1710SOL    HW1 9492   6.828   8.048   7.397 -0.2046 -1.7851  0.8633
 1710SOL    HW2 9493   6.948   7.991   7.324  0.8843  0.0122  1.1835
 1711SOL     OW 9494   8.494   1.587   1.010 -0.7474  0.4117 -0.0598
 1711SOL    HW1 9495   8.458   1.498   1.003 -1.1963  0.5677  0.2190
 1711SOL    HW2 9496   8.547   1.597   0.931 -1.5685  0.2878 -0.6503
 1712SOL     OW 9497   5.222   8.898   3.030  0.3326  0.2275  0.6718
 1712SOL    HW1 9498   5.147   8.896   3.090  0.3518 -0.9506  0.6676
 1712SOL    HW2 9499   5.207   8.825   2.970  0.9971  0.5769  0.0643
 1713SOL     OW 9500   5.573   9.470   0.166 -0.0772  0.3457  0.2709
 1713SOL    HW1 9501   5.534   9.554   0.140 -0.4916 -0.1241 -0.6562
 1713SOL    HW2 9502   5.597   9.428   0.084 -0.6696 -0.8225  0.6731
 1714SOL     OW 9503   0.629   2.790   0.230 -0.0795 -0.4400  0.2138
 1714SOL    HW1 9504   0.620   2.764   0.322  0.6499  0.3813  0.5260
 1714SOL    HW2 9505   0.707   2.846   0.228  1.0320 -1.9129 -1.2158
 1715SOL     OW 9506   7.312   8.452   0.694  0.1168 -0.5843 -0.2628
 1715SOL    HW1 9507   7.253   8.517   0.732  0.3586  0.3234 -1.3824
 1715SOL    HW2 9508   7.395   8.498   0.685  0.6680 -1.4790  0.1889
 1716SOL     OW 9509   8.768  10.788  10.274  0.4741 -0.4108  0.0763
 1716SOL    HW1 9510   8.738  10.878  10.285 -2.5028 -1.3731  0.4787
 1716SOL    HW2 9511   8.771  10.775  10.180  0.1922 -0.1246  0.0277
 1717SOL     OW 9512   7.438  10.989  10.342  0.1402 -0.3042 -0.5901
 1717SOL    HW1 9513   7.394  10.915  10.384 -0.0741  0.9267  1.4670
 1717SOL    HW2 9514   7.403  11.066  10.386  0.7348  1.0133 -2.3422
 1718SOL     OW 9515   5.403  10.026   1.150 -0.1080  0.5219 -0.1207
 1718SOL    HW1 9516   5.463  10.050   1.220 -0.7287  1.6730  0.0434
 1718SOL    HW2 9517   5.447   9.956   1.103  0.1617 -0.5394  1.6398
 1719SOL     OW 9518   6.601   0.810   1.317  0.0885  0.2679 -0.4050
 1719SOL    HW1 9519   6.661   0.819   1.243  0.0426  2.2225 -0.2655
 1719SOL    HW2 9520   6.540   0.883   1.307  0.8455  1.3712  2.2170
 1720SOL     OW 9521   1.598   7.459   3.122 -0.3076  0.0091 -0.2754
 1720SOL    HW1 9522   1.609   7.552   3.139  2.0552 -0.5090  1.5626
 1720SOL    HW2 9523   1.559   7.424   3.202  1.0831 -0.8960  0.0445
 1721SOL     OW 9524   5.759   7.696   8.734 -0.2825  0.0279  0.1305
 1721SOL    HW1 9525   5.838   7.741   8.703  1.5420 -2.8331  0.1915
 1721SOL    HW2 9526   5.710   7.676   8.655 -1.8610  3.1122  0.1846
 1722SOL     OW 9527   1.842   3.099   3.306  0.5700  0.7275  0.1206
 1722SOL    HW1 9528   1.819   3.009   3.329 -1.8947  0.6244 -2.2271
 1722SOL    HW2 9529   1.874   3.093   3.216 -2.9781  2.4360 -1.4388
 1723SOL     OW 9530   7.501   4.257   7.499  0.0619  0.1265 -0.7053
 1723SOL    HW1 9531   7.543   4.173   7.517  0.4602  0.3638 -0.4979
 1723SOL    HW2 9532   7.412   4.235   7.473 -0.2724 -0.2916  0.7208
 1724SOL     OW 9533   3.987   8.727   2.500  0.1422  0.2916  0.1328
 1724SOL    HW1 9534   4.012   8.641   2.536  0.9115 -0.9823 -3.0532
 1724SOL    HW2 9535   3.937   8.705   2.421 -0.1744  2.8192 -0.4303
 1725SOL     OW 9536   6.812   8.758   6.044 -0.2548  0.2891 -0.2968
 1725SOL    HW1 9537   6.778   8.710   6.120  0.7803 -0.4140 -0.2710
 1725SOL    HW2 9538   6.843   8.691   5.984  2.0031  0.8892  0.0990
 1726SOL     OW 9539   8.049   7.856   7.564 -0.4793  0.0141 -0.7827
 1726SOL    HW1 9540   8.051   7.791   7.634 -0.8090 -0.5479 -1.2905
 1726SOL    HW2 9541   8.118   7.918   7.588  1.4323 -1.7513 -1.4551
 1727SOL     OW 9542   5.199   6.735   9.751 -0.3244 -0.2650  0.4248
 1727SOL    HW1 9543   5.166   6.683   9.823  1.8135 -1.6169  0.5236
 1727SOL    HW2 9544   5.254   6.802   9.792  0.6665 -0.8602  0.1198
 1728SOL     OW 9545   6.044  10.672   0.648 -0.1387 -0.0987  0.3472
 1728SOL    HW1 9546   6.105  10.600   0.664  0.1074  0.0102 -0.0866
 1728SOL    HW2 9547   6.031  10.672   0.553  1.1025  1.4164  0.1368
 1729SOL     OW 9548   5.522   4.689   8.110  0.1053 -0.1700  0.4411
 1729SOL    HW1 9549   5.522   4.594   8.099 -0.7269  0.0345 -1.6285
 1729SOL    HW2 9550   5.476   4.723   8.034  2.5567  2.0607 -0.2010
 1730SOL     OW 9551   7.234   2.977   7.603  0.0920  0.2676 -0.0880
 1730SOL    HW1 9552   7.285   2.908   7.645 -0.1437 -0.9117 -1.6497
 1730SOL    HW2 9553   7.293   3.011   7.535 -0.6587 -0.1114 -0.9462
 1731SOL     OW 9554   4.949   9.940   8.545  0.7217  0.2408  0.4695
 1731SOL    HW1 9555   4.998   9.920   8.465 -1.9553 -2.6508 -0.6148
 1731SOL    HW2 9556   4.998   9.895   8.614  0.6649 -1.0380 -0.2842
 1732SOL     OW 9557   4.564   9.568   1.489 -0.4364  0.1550  0.3496
 1732SOL    HW1 9558   4.659   9.574   1.484 -0.1494 -2.4899  0.7428
 1732SOL    HW2 9559   4.539   9.633   1.554  1.0124  1.2980 -0.1738
 1733SOL     OW 9560   4.292   4.189   2.665 -0.4411 -0.0216 -0.0730
 1733SOL    HW1 9561   4.303   4.284   2.662  0.1601 -0.1019 -1.3788
 1733SOL    HW2 9562   4.365   4.158   2.719 -0.2729  0.2186 -0.1603
 1734SOL     OW 9563   3.445   4.008   3.878  0.0947 -0.4936 -0.0694
 1734SOL    HW1 9564   3.505   4.076   3.848  1.8654 -2.1692 -0.5781
 1734SOL    HW2 9565   3.500   3.950   3.931 -1.9619 -0.0296  2.8248
 1735SOL     OW 9566   8.559  11.055   2.421 -0.4307 -0.1615 -0.6757
 1735SOL    HW1 9567   8.621  11.119   2.386 -0.5302 -0.7634 -1.9779
 1735SOL    HW2 9568   8.541  11.086   2.510  2.0345 -0.1764 -0.1056
 1736SOL     OW 9569   2.094   5.933   7.970  0.5279 -0.4283 -0.3524
 1736SOL    HW1 9570   2.160   5.971   8.028  1.0576  0.3882 -1.4522
 1736SOL    HW2 9571   2.012   5.975   7.996  1.0415  1.2577 -1.2936
 1737SOL     OW 9572   6.526   3.712  11.081 -0.3768  0.3556  0.2338
 1737SOL    HW1 9573   6.438   3.680  11.101 -0.1974  0.1009  0.6316
 1737SOL    HW2 9574   6.514   3.770  11.005 -0.7122 -0.5826 -0.4438
 1738SOL     OW 9575   7.367   7.531   2.966 -0.0089 -0.2757 -0.1115
 1738SOL    HW1 9576   7.314   7.571   2.897  2.6799  0.6136 -1.8154
 1738SOL    HW2 9577   7.316   7.454   2.994 -2.4300  0.8493 -1.1206
 1739SOL     OW 9578   4.736   8.396   8.072  0.5678  0.0432  0.3914
 1739SOL    HW1 9579   4.791   8.458   8.024 -0.3611  0.9870  0.5031
 1739SOL    HW2 9580   4.647   8.429   8.059  0.0287 -1.4093  0.2619
 1740SOL     OW 9581   3.376   1.828   2.856 -0.6348 -0.1997  0.0666
 1740SOL    HW1 9582   3.306   1.829   2.791 -0.2245 -0.4972 -0.3859
 1740SOL    HW2 9583   3.413   1.916   2.851 -0.4836 -0.2782 -0.2389
 1741SOL     OW 9584   3.127   1.232   7.263 -0.4585 -0.0593  0.6543
 1741SOL    HW1 9585   3.179   1.303   7.225  0.0082 -0.8120 -0.1466
 1741SOL    HW2 9586   3.062   1.276   7.316  1.1111  0.9119  1.8539
 1742SOL     OW 9587   6.776  10.032  10.034  0.0794 -0.3098  0.2281
 1742SOL    HW1 9588   6.782   9.936  10.028  0.8414 -0.4171  2.0360
 1742SOL    HW2 9589   6.716  10.047  10.107 -1.3414  0.6345 -1.0961
 1743SOL     OW 9590   7.423   7.849   8.832  0.4941  0.4134  0.1955
 1743SOL    HW1 9591   7.515   7.824   8.818 -0.0650 -1.5575 -0.3405
 1743SOL    HW2 9592   7.374   7.796   8.768 -0.9761  2.0032 -0.0768
 1744SOL     OW 9593   2.876   3.069   9.015 -0.4238  0.7671  0.3380
 1744SOL    HW1 9594   2.909   3.147   8.971 -0.4370 -0.8175 -2.7707
 1744SOL    HW2 9595   2.952   3.012   9.023 -0.5389  0.7752  2.0448
 1745SOL     OW 9596   9.332   0.229   2.170  0.8396 -0.3393  0.1249
 1745SOL    HW1 9597   9.245   0.205   2.202  1.3124 -0.5015  1.3429
 1745SOL    HW2 9598   9.363   0.296   2.231  1.0630  0.6734 -1.0564
 1746SOL     OW 9599  10.510   2.499  10.179 -0.4732 -0.1148 -0.0364
 1746SOL    HW1 9600  10.441   2.498  10.112 -0.4561 -0.8575 -0.0524
 1746SOL    HW2 9601  10.521   2.407  10.202  1.4428 -0.1552 -0.9669
 1747SOL     OW 9602   9.417   8.146   9.155 -0.2581  0.6474 -0.2110
 1747SOL    HW1 9603   9.347   8.081   9.164  1.6352 -1.3615  1.1400
 1747SOL    HW2 9604   9.460   8.124   9.072  0.2297  0.3144  0.1250
 1748SOL     OW 9605   1.622   3.632   8.008 -0.0369 -0.2534  0.0250
 1748SOL    HW1 9606   1.587   3.564   7.949  1.8352 -0.5342 -0.8551
 1748SOL    HW2 9607   1.648   3.703   7.949  0.1768  0.2398  0.7069
 1749SOL     OW 9608   6.888   7.079   2.990 -0.2128  0.2256 -0.0237
 1749SOL    HW1 9609   6.903   6.990   2.958 -0.8439 -0.0411  0.4102
 1749SOL    HW2 9610   6.838   7.120   2.920 -1.2735 -0.2472  0.4342
 1750SOL     OW 9611   2.389   9.909   5.628 -0.0366  0.0252  0.2195
 1750SOL    HW1 9612   2.392  10.000   5.599 -0.6486  0.2179  0.7336
 1750SOL    HW2 9613   2.479   9.891   5.657 -0.3065  1.0603  1.8376
 1751SOL     OW 9614   7.361   5.105   6.897  0.2711 -0.0106  0.2973
 1751SOL    HW1 9615   7.314   5.116   6.979  0.4803  0.2750  0.3822
 1751SOL    HW2 9616   7.304   5.145   6.831  0.4350  0.4123  0.4126
 1752SOL     OW 9617  10.409   4.442   3.285 -0.1418  0.4207 -0.1166
 1752SOL    HW1 9618  10.463   4.455   3.207 -0.0497  0.1000 -0.1036
 1752SOL    HW2 9619  10.397   4.531   3.320  0.5987  0.4578  0.0397
 1753SOL     OW 9620   8.332   7.810  10.950 -0.8038 -0.2298 -0.1121
 1753SOL    HW1 9621   8.402   7.843  11.005 -0.4234 -0.5341 -0.4106
 1753SOL    HW2 9622   8.358   7.720  10.928 -0.7651 -0.0016 -1.0760
 1754SOL     OW 9623   9.211   2.438   4.525  0.2727  0.3520  0.1269
 1754SOL    HW1 9624   9.144   2.443   4.594  1.1933  1.9027  0.9724
 1754SOL    HW2 9625   9.198   2.518   4.474  0.3845 -0.1947 -0.7733
 1755SOL     OW 9626   9.917   0.738   1.120  0.8963 -0.3824  0.3398
 1755SOL    HW1 9627   9.932   0.708   1.030 -1.3317  1.0846 -0.6189
 1755SOL    HW2 9628   9.907   0.657   1.170  1.6065 -1.2362 -0.8434
 1756SOL     OW 9629   7.974   2.752   9.388 -0.3130 -0.3629 -0.1403
 1756SOL    HW1 9630   7.926   2.689   9.334  0.7449 -3.3663  2.1112
 1756SOL    HW2 9631   7.921   2.759   9.468 -0.9701  2.6038 -0.7219
 1757SOL     OW 9632   0.822   7.138   6.632 -0.0470  0.3054  0.2059
 1757SOL    HW1 9633   0.869   7.177   6.706  0.6194 -0.6124  0.2715
 1757SOL    HW2 9634   0.880   7.152   6.557  0.3183 -0.7689  0.2759
 1758SOL     OW 9635   6.152   3.155  10.748 -0.2475  0.5340  0.3478
 1758SOL    HW1 9636   6.119   3.124  10.663  0.2409  1.8723 -0.3547
 1758SOL    HW2 9637   6.244   3.131  10.747  0.5328  3.2410 -0.8798
 1759SOL     OW 9638   4.821   8.498   8.328 -0.2175  0.6971  0.0924
 1759SOL    HW1 9639   4.830   8.410   8.291 -0.0783  0.9148 -0.3960
 1759SOL    HW2 9640   4.873   8.554   8.271  2.4119  0.6438  2.2500
 1760SOL     OW 9641   3.081   0.127   7.008 -0.3238 -0.2643 -0.3312
 1760SOL    HW1 9642   3.027   0.094   7.080 -0.9255 -0.0386 -0.6714
 1760SOL    HW2 9643   3.169   0.096   7.028 -0.5613 -0.5629  0.2814
 1761SOL     OW 9644   5.538  10.343   8.721  0.0932 -0.6014 -0.7772
 1761SOL    HW1 9645   5.483  10.282   8.771  1.3874 -1.5897 -0.5039
 1761SOL    HW2 9646   5.533  10.312   8.631 -0.1513 -0.4111 -0.8307
 1762SOL     OW 9647   5.655   3.521   0.306 -0.5333 -0.0103  0.1120
 1762SOL    HW1 9648   5.669   3.582   0.233 -1.1563 -0.3338 -0.2829
 1762SOL    HW2 9649   5.643   3.578   0.383  2.4319  0.3238  0.4433
 1763SOL     OW 9650   6.946   6.267   2.634 -0.1273  0.0562 -0.4127
 1763SOL    HW1 9651   6.929   6.259   2.540  1.2521  2.4479 -0.9373
 1763SOL    HW2 9652   7.025   6.320   2.640 -1.0494  1.2917  2.1184
 1764SOL     OW 9653   9.259   7.831   5.720  0.0238  0.9192 -0.0538
 1764SOL    HW1 9654   9.232   7.854   5.631 -0.5123 -0.7766 -0.3643
 1764SOL    HW2 9655   9.235   7.739   5.729 -1.8333  1.5318  2.5541
 1765SOL     OW 9656   1.852   3.684   9.015 -0.5434 -0.0831  0.1234
 1765SOL    HW1 9657   1.802   3.740   8.955 -2.7641 -1.0240  0.9686
 1765SOL    HW2 9658   1.873   3.740   9.089 -1.9840 -0.0609  0.5606
 1766SOL     OW 9659   1.955   7.889   2.066  0.0576  0.2706  0.4083
 1766SOL    HW1 9660   1.931   7.803   2.100 -0.6622 -0.1988 -1.2212
 1766SOL    HW2 9661   1.874   7.923   2.027  0.5027  1.3972  0.4373
 1767SOL     OW 9662   9.356  10.409   6.622 -0.6769 -0.3200  0.0151
 1767SOL    HW1 9663   9.304  10.395   6.543 -0.3252 -2.8386  0.1414
 1767SOL    HW2 9664   9.446  10.390   6.595 -0.5815 -1.4207  1.0255
 1768SOL     OW 9665   0.408   2.302   2.665 -0.2842  0.2575 -0.1939
 1768SOL    HW1 9666   0.384   2.258   2.747  0.5745  0.0922 -0.0154
 1768SOL    HW2 9667   0.491   2.261   2.640 -0.6471  0.1552 -1.2678
 1769SOL     OW 9668  10.191   0.277   8.306 -0.2050  0.4351 -0.0354
 1769SOL    HW1 9669  10.144   0.239   8.232  0.4038 -0.6859  0.1333
 1769SOL    HW2 9670  10.264   0.217   8.322  2.1186  2.7969 -1.1276
 1770SOL     OW 9671   1.749  10.187   4.161  0.6704  0.1337 -0.3345
 1770SOL    HW1 9672   1.797  10.250   4.107  0.1955 -1.5897 -2.9642
 1770SOL    HW2 9673   1.817  10.142   4.211  1.7528 -1.0817 -2.7171
 1771SOL     OW 9674   2.111   8.781   4.967  0.4360 -0.5774  0.1747
 1771SOL    HW1 9675   2.076   8.778   5.056  1.0126  0.2444  0.4341
 1771SOL    HW2 9676   2.184   8.842   4.971 -2.3573  3.3267 -1.8103
 1772SOL     OW 9677   1.271   1.443   1.940  0.6702 -0.4144  0.2294
 1772SOL    HW1 9678   1.184   1.463   1.905  0.5675 -1.7222 -0.2930
 1772SOL    HW2 9679   1.323   1.418   1.864  1.7102  0.9364  0.4500
 1773SOL     OW 9680   9.963   3.710   9.847  0.2849  0.2454  0.2031
 1773SOL    HW1 9681   9.883   3.674   9.884 -0.1492  0.0771 -0.8823
 1773SOL    HW2 9682   9.934   3.765   9.774  1.0796  1.0893  0.5001
 1774SOL     OW 9683   4.456   9.906   2.096  0.6520  0.2257 -0.0815
 1774SOL    HW1 9684   4.548   9.924   2.075  1.9491 -0.3888  4.1905
 1774SOL    HW2 9685   4.437   9.961   2.171 -2.8753  0.9595 -1.3269
 1775SOL     OW 9686   9.009   2.612   3.661  0.1774 -0.3141  0.2987
 1775SOL    HW1 9687   8.946   2.624   3.732 -1.6451 -2.3572 -0.8690
 1775SOL    HW2 9688   9.057   2.695   3.657 -1.4327  0.7863  2.1868
 1776SOL     OW 9689   6.190   8.547   9.286 -0.0748  0.6232  0.6546
 1776SOL    HW1 9690   6.226   8.467   9.250 -1.1773  0.1299  0.6144
 1776SOL    HW2 9691   6.097   8.544   9.264 -0.6776  0.6176  2.9064
 1777SOL     OW 9692   1.976   0.066   3.144  0.0062 -0.0276  0.2184
 1777SOL    HW1 9693   2.058   0.097   3.104  0.1622 -0.0578  0.5126
 1777SOL    HW2 9694   1.911   0.075   3.074  0.0671  0.8696  0.2585
 1778SOL     OW 9695   9.676  10.086   4.143  0.2821  0.1520 -0.1785
 1778SOL    HW1 9696   9.760  10.092   4.189  0.3037 -1.3702  0.0533
 1778SOL    HW2 9697   9.696  10.109   4.053  0.5808  1.5431  0.2246
 1779SOL     OW 9698   2.455   3.221   8.809  0.1816  0.1773  0.2477
 1779SOL    HW1 9699   2.429   3.183   8.893  1.2738  1.5057  1.2498
 1779SOL    HW2 9700   2.545   3.189   8.796  0.1072  0.1844 -0.2873
 1780SOL     OW 9701   1.955   5.761   6.741  0.6651 -0.4657  0.5580
 1780SOL    HW1 9702   1.907   5.745   6.660  1.6060 -0.6767  0.0406
 1780SOL    HW2 9703   1.961   5.675   6.783  2.3107 -0.8192 -0.3414
 1781SOL     OW 9704   6.877   3.389  10.639  0.4071  0.5217 -0.4646
 1781SOL    HW1 9705   6.822   3.464  10.660  1.1687  1.1599 -0.6908
 1781SOL    HW2 9706   6.852   3.365  10.550 -0.1829  0.1869 -0.2144
 1782SOL     OW 9707   3.215   9.105  10.886  0.4759 -0.0573 -0.1517
 1782SOL    HW1 9708   3.269   9.115  10.964  0.3062  0.4480 -0.0924
 1782SOL    HW2 9709   3.213   9.193  10.847  0.8240 -0.3719 -0.9018
 1783SOL     OW 9710   4.161   8.454   4.554 -0.0893  0.3841  0.0903
 1783SOL    HW1 9711   4.235   8.393   4.550  0.0188  0.4802  0.5469
 1783SOL    HW2 9712   4.142   8.462   4.647  0.1992  1.4090  0.0779
 1784SOL     OW 9713   7.144   2.978  11.039 -0.2197 -0.0802 -0.3025
 1784SOL    HW1 9714   7.065   3.017  11.076  0.5094  0.9078  0.2658
 1784SOL    HW2 9715   7.215   3.017  11.089  0.8597  1.6322 -2.9635
 1785SOL     OW 9716   1.087   0.396   4.127  0.2023 -0.1029 -1.0522
 1785SOL    HW1 9717   1.131   0.313   4.144  0.3900  0.3433  0.9460
 1785SOL    HW2 9718   1.077   0.400   4.032  2.9040 -1.0154 -1.4382
 1786SOL     OW 9719  10.167   7.197   8.657  0.2585 -0.2347  0.2532
 1786SOL    HW1 9720  10.072   7.186   8.662  0.2435 -0.0465  0.3723
 1786SOL    HW2 9721  10.181   7.291   8.667  0.4915 -0.3173  0.6935
 1787SOL     OW 9722   4.617   2.059   9.112 -0.5188 -0.4877  0.0147
 1787SOL    HW1 9723   4.557   2.130   9.135  0.2639 -0.0226  0.6439
 1787SOL    HW2 9724   4.689   2.067   9.174  0.6950 -0.4289 -1.3690
 1788SOL     OW 9725  10.810   8.188   8.408 -0.1201 -0.0021 -0.0013
 1788SOL    HW1 9726  10.734   8.153   8.456 -0.0098 -0.5659 -0.2270
 1788SOL    HW2 9727  10.875   8.118   8.414  0.7615  0.8649  1.0525
 1789SOL     OW 9728   8.230   9.365   2.117 -0.2804  0.2635 -0.2491
 1789SOL    HW1 9729   8.176   9.357   2.195 -0.3308 -0.5418 -0.3491
 1789SOL    HW2 9730   8.178   9.419   2.057 -1.2743 -0.9585 -0.5640
 1790SOL     OW 9731  10.034   0.854   3.100  0.1612 -0.2243 -0.5622
 1790SOL    HW1 9732   9.996   0.781   3.051 -1.3857 -0.6620  1.1517
 1790SOL    HW2 9733   9.962   0.916   3.111  0.4108 -0.1771  1.1539
 1791SOL     OW 9734   9.124   0.517   2.462  0.1740 -0.1350  0.3558
 1791SOL    HW1 9735   9.055   0.545   2.523 -0.1184 -1.3238  0.5865
 1791SOL    HW2 9736   9.192   0.479   2.518  0.9338  0.8079  0.1092
 1792SOL     OW 9737   9.471  10.469   1.577 -0.0722  0.0044 -1.1516
 1792SOL    HW1 9738   9.534  10.508   1.517 -0.1075  1.0316 -0.5492
 1792SOL    HW2 9739   9.425  10.543   1.615  0.3563 -0.5575  0.5892
 1793SOL     OW 9740   4.160   2.348   4.440  0.0413 -0.2856  0.3246
 1793SOL    HW1 9741   4.134   2.256   4.438 -0.2127 -0.2279  0.8494
 1793SOL    HW2 9742   4.126   2.384   4.358  0.0848 -0.6418  0.1468
 1794SOL     OW 9743   4.084   1.048   8.585  0.1563  0.1701  0.5465
 1794SOL    HW1 9744   4.053   0.963   8.555 -1.5143  1.3803 -1.4750
 1794SOL    HW2 9745   4.053   1.055   8.676 -0.7827 -0.8908  0.3259
 1795SOL     OW 9746   6.713  10.367   1.166 -0.4642  0.8841 -0.0313
 1795SOL    HW1 9747   6.727  10.290   1.110 -1.3613  0.5966  0.1171
 1795SOL    HW2 9748   6.789  10.423   1.149  0.1201  0.0439 -0.2686
 1796SOL     OW 9749   7.133   5.174   1.428 -0.4099 -0.0992  0.6626
 1796SOL    HW1 9750   7.224   5.152   1.444 -0.3998 -0.1794  0.4971
 1796SOL    HW2 9751   7.136   5.242   1.361 -0.2008  3.3940  3.8424
 1797SOL     OW 9752   3.345   8.707   4.119  0.5201  0.0583 -0.4317
 1797SOL    HW1 9753   3.294   8.772   4.071  0.1317  0.8141  0.9568
 1797SOL    HW2 9754   3.301   8.624   4.099  1.4680  0.0323 -2.8161
 1798SOL     OW 9755  10.465   4.942   7.168  0.1654  0.2009 -0.6220
 1798SOL    HW1 9756  10.449   5.015   7.108 -0.5186  1.2791  0.7914
 1798SOL    HW2 9757  10.507   4.983   7.244 -1.9696 -0.4836  1.0337
 1799SOL     OW 9758   4.047   2.379   8.047  0.6449 -0.2074  0.1285
 1799SOL    HW1 9759   4.122   2.418   8.092 -0.5226  0.1390  1.8712
 1799SOL    HW2 9760   3.995   2.454   8.019 -0.8227 -0.4086  2.1127
 1800SOL     OW 9761   4.950   9.688   5.731 -0.4363 -0.0895  0.0560
 1800SOL    HW1 9762   4.971   9.752   5.663 -1.9102  0.2885 -0.0644
 1800SOL    HW2 9763   5.022   9.624   5.726  0.6829  1.1561 -0.2828
 1801SOL     OW 9764   1.264  10.485   4.941 -0.1585  0.5597 -0.3243
 1801SOL    HW1 9765   1.181  10.482   4.895  0.0996 -2.2668 -0.7892
 1801SOL    HW2 9766   1.330  10.478   4.872  0.2814 -1.7217  0.2432
 1802SOL     OW 9767  11.059   3.954   6.100 -0.0553 -0.1785  0.3332
 1802SOL    HW1 9768  11.150   3.941   6.074 -0.1753  1.4611 -1.0903
 1802SOL    HW2 9769  11.024   4.016   6.036 -1.6809  0.6025  1.8713
 1803SOL     OW 9770   1.853   6.311   9.251  0.0870 -0.1247 -0.2092
 1803SOL    HW1 9771   1.877   6.218   9.256  1.6202  0.2591 -0.0905
 1803SOL    HW2 9772   1.859   6.333   9.158  1.4125  0.2619 -0.0489
 1804SOL     OW 9773   3.607   4.791  10.056 -0.1626 -0.0406  0.4118
 1804SOL    HW1 9774   3.591   4.711  10.106 -0.7742 -0.4187 -0.3502
 1804SOL    HW2 9775   3.548   4.784   9.981  1.2998  0.0833 -0.8204
 1805SOL     OW 9776   3.100   1.620   7.397 -0.0736  0.2181 -0.7435
 1805SOL    HW1 9777   3.101   1.709   7.431 -0.2380  0.4263 -1.2840
 1805SOL    HW2 9778   3.170   1.619   7.332  1.0474 -0.5080  0.4175
 1806SOL     OW 9779   5.093   1.397   7.720 -0.2241 -0.4738 -0.0105
 1806SOL    HW1 9780   5.140   1.481   7.724  0.1131 -0.7057  1.0213
 1806SOL    HW2 9781   5.105   1.368   7.629 -0.0861  0.4395 -0.3019
 1807SOL     OW 9782   7.291   6.629   4.059  0.1547  0.6738  0.2903
 1807SOL    HW1 9783   7.289   6.722   4.077  1.8483  0.7006  0.4876
 1807SOL    HW2 9784   7.375   6.614   4.016 -0.0222 -0.7860  0.3824
 1808SOL     OW 9785   1.564   5.259   7.109  0.3077 -0.3662  0.0160
 1808SOL    HW1 9786   1.534   5.169   7.101  1.3834 -0.8701  1.1484
 1808SOL    HW2 9787   1.633   5.255   7.176 -1.4244  1.7054  2.0837
 1809SOL     OW 9788   7.051   6.208   5.056 -0.3087 -0.2388  0.2384
 1809SOL    HW1 9789   6.997   6.238   5.130 -0.7577 -1.9221  0.6230
 1809SOL    HW2 9790   7.141   6.219   5.087 -0.3092  2.7994 -0.4883
 1810SOL     OW 9791   3.774   4.420   6.464 -0.8415  0.6149 -0.1235
 1810SOL    HW1 9792   3.738   4.462   6.542  0.8346  0.7246  0.6262
 1810SOL    HW2 9793   3.734   4.333   6.464 -0.7952  0.5725  0.9308
 1811SOL     OW 9794   1.421   1.341   0.508 -0.5336  0.3250 -0.4481
 1811SOL    HW1 9795   1.351   1.276   0.514  0.6079 -0.8273  2.0499
 1811SOL    HW2 9796   1.493   1.294   0.465  0.3954 -0.2786  1.6261
 1812SOL     OW 9797   0.151   9.645   0.296 -0.0195  0.2507  0.6974
 1812SOL    HW1 9798   0.216   9.598   0.348 -0.1770 -0.8339 -0.0643
 1812SOL    HW2 9799   0.160   9.736   0.324  0.8690 -0.0927  1.5952
 1813SOL     OW 9800   0.120   2.053   9.817 -0.1154  0.2309  0.2012
 1813SOL    HW1 9801   0.136   1.989   9.886  0.6448 -0.1159 -0.2902
 1813SOL    HW2 9802   0.147   2.010   9.736  0.7471  1.2649 -0.1038
 1814SOL     OW 9803   2.910   9.345   7.814 -0.1484  0.3206 -0.0409
 1814SOL    HW1 9804   2.965   9.313   7.743  1.0017 -0.0307  0.9635
 1814SOL    HW2 9805   2.971   9.360   7.887 -1.2946  0.5698  0.9096
 1815SOL     OW 9806   0.040   1.443   2.822  0.0567 -0.4031  0.3705
 1815SOL    HW1 9807   0.011   1.381   2.889  0.9633  0.7819  1.9083
 1815SOL    HW2 9808   0.066   1.388   2.748 -0.3380 -1.7840  1.2317
 1816SOL     OW 9809   7.212   6.601   3.539 -0.0701  0.4690  0.2783
 1816SOL    HW1 9810   7.119   6.588   3.522 -0.4428  1.7386  1.1266
 1816SOL    HW2 9811   7.237   6.529   3.597 -0.4010 -0.1393 -0.3268
 1817SOL     OW 9812  11.053   3.214   9.921 -0.2997 -0.5927 -0.1477
 1817SOL    HW1 9813  11.146   3.194   9.914 -0.2003 -0.0336 -0.4803
 1817SOL    HW2 9814  11.030   3.254   9.837 -0.6223  0.1156  0.2660
 1818SOL     OW 9815   7.519   4.850   1.742  0.1775 -0.1041  0.5635
 1818SOL    HW1 9816   7.525   4.827   1.835 -2.4419 -0.3462  0.7317
 1818SOL    HW2 9817   7.521   4.945   1.740  0.0975 -0.0960  0.8752
 1819SOL     OW 9818   1.285   3.025   3.997 -0.0791 -0.0918  0.0170
 1819SOL    HW1 9819   1.248   3.095   4.051  1.1193 -0.2674  1.0988
 1819SOL    HW2 9820   1.324   2.963   4.059 -0.5814 -1.4241 -0.9527
 1820SOL     OW 9821   6.448   5.773   2.087 -0.3468 -0.1603 -0.2795
 1820SOL    HW1 9822   6.396   5.783   2.008 -0.9253 -0.0632  0.1017
 1820SOL    HW2 9823   6.506   5.700   2.070 -0.2390  0.0709 -0.9105
 1821SOL     OW 9824   2.646   8.408  10.219  0.4650 -0.2527 -0.4089
 1821SOL    HW1 9825   2.717   8.406  10.284  0.8391 -1.8059 -0.8186
 1821SOL    HW2 9826   2.570   8.439  10.267  0.7418 -1.3477  0.7929
 1822SOL     OW 9827   8.917   7.712   4.883  0.5207 -0.1516  0.2144
 1822SOL    HW1 9828   8.839   7.721   4.936 -0.2681  0.9550 -1.0771
 1822SOL    HW2 9829   8.928   7.617   4.872 -0.3074 -0.3327  0.8835
 1823SOL     OW 9830   3.281   0.575   4.157 -0.0246  0.4795  0.2750
 1823SOL    HW1 9831   3.190   0.605   4.162 -0.1500 -0.1040  2.3127
 1823SOL    HW2 9832   3.307   0.561   4.248  1.2162 -2.0728 -0.3907
 1824SOL     OW 9833  10.607   3.343   9.813 -0.1318 -0.0791 -0.3038
 1824SOL    HW1 9834  10.527   3.291   9.802 -0.4668  0.4098 -0.1877
 1824SOL    HW2 9835  10.668   3.282   9.855 -0.0654 -0.7975 -1.3929
 1825SOL     OW 9836   8.159   1.156   1.167  0.1313  0.5799 -0.1357
 1825SOL    HW1 9837   8.234   1.138   1.224 -1.8114 -0.4391  2.2910
 1825SOL    HW2 9838   8.150   1.252   1.169  0.9487  0.6586  0.0912
 1826SOL     OW 9839   3.649   3.885  10.644  0.3991  0.0145 -0.3037
 1826SOL    HW1 9840   3.631   3.965  10.694 -0.2339 -0.9862  1.1450
 1826SOL    HW2 9841   3.584   3.822  10.676  1.2728 -1.2678 -0.9582
 1827SOL     OW 9842   8.981   4.862   5.182  0.8593 -0.1337  0.0190
 1827SOL    HW1 9843   9.024   4.777   5.192  0.8898 -0.2359 -0.8836
 1827SOL    HW2 9844   8.888   4.844   5.194  0.9192 -0.1815  0.4291
 1828SOL     OW 9845   4.321   3.405   3.859  0.3558 -0.1158  0.1070
 1828SOL    HW1 9846   4.350   3.379   3.946  1.1622 -1.5186 -0.5487
 1828SOL    HW2 9847   4.399   3.398   3.804 -0.2007  0.4907 -0.7938
 1829SOL     OW 9848   2.427   7.702   7.049 -0.4091 -0.2959 -0.1313
 1829SOL    HW1 9849   2.378   7.646   7.109  0.1525  1.3744  1.9820
 1829SOL    HW2 9850   2.369   7.776   7.031 -0.2297 -0.3447 -0.9983
 1830SOL     OW 9851   5.901   2.443  10.865 -0.4301  0.1319  0.2928
 1830SOL    HW1 9852   5.953   2.374  10.825 -0.0165  0.6581 -0.0852
 1830SOL    HW2 9853   5.823   2.398  10.899 -0.9775 -0.2688 -1.4242
 1831SOL     OW 9854   5.671   6.065   6.805  0.0483  0.1839 -0.0647
 1831SOL    HW1 9855   5.708   5.978   6.795  1.1852  0.7800 -1.3846
 1831SOL    HW2 9856   5.742   6.117   6.843 -0.4868  0.6324  0.3396
 1832SOL     OW 9857   1.110   0.210   7.697  0.2126  0.4584  0.2731
 1832SOL    HW1 9858   1.201   0.181   7.692 -0.5929 -2.2911  0.0472
 1832SOL    HW2 9859   1.085   0.198   7.788  0.1911  1.6621  0.4373
 1833SOL     OW 9860   9.881   8.722   6.972  0.4372  0.1546  0.1631
 1833SOL    HW1 9861   9.871   8.683   6.885 -1.6497  0.4805  0.1925
 1833SOL    HW2 9862   9.890   8.648   7.031 -1.3016 -0.2368 -0.0224
 1834SOL     OW 9863   3.567   3.107   9.035  0.6775 -0.6810 -0.4863
 1834SOL    HW1 9864   3.511   3.184   9.035  0.5546 -0.7513 -1.4401
 1834SOL    HW2 9865   3.645   3.134   9.084  0.6608  0.0723 -0.8555
 1835SOL     OW 9866   7.143   6.528  10.655  0.2128 -0.2694  0.1119
 1835SOL    HW1 9867   7.159   6.591  10.725 -0.6696 -1.7814  1.7474
 1835SOL    HW2 9868   7.228   6.489  10.637  0.8654  1.5933 -1.2323
 1836SOL     OW 9869   6.474   9.945  10.964 -0.2084  0.9171 -0.1549
 1836SOL    HW1 9870   6.438  10.024  10.923  0.7129  0.0183 -2.9507
 1836SOL    HW2 9871   6.563   9.939  10.930 -0.0775 -1.0199  0.4049
 1837SOL     OW 9872   8.614   1.681   9.526 -0.4657  0.1888  0.0807
 1837SOL    HW1 9873   8.663   1.600   9.540  1.8426  1.1786 -1.6661
 1837SOL    HW2 9874   8.604   1.688   9.431 -1.1594  1.6678  0.2283
 1838SOL     OW 9875   4.661   0.451   3.489 -0.1526 -0.0956  0.2232
 1838SOL    HW1 9876   4.726   0.483   3.427 -0.8893 -0.5194 -0.8177
 1838SOL    HW2 9877   4.594   0.520   3.491 -0.1626 -0.1146  0.4815
 1839SOL     OW 9878   7.197   8.007   2.047 -0.0486 -0.0782  0.0265
 1839SOL    HW1 9879   7.156   8.038   1.966 -0.7239  1.3751  0.8892
 1839SOL    HW2 9880   7.252   7.934   2.019 -0.1476  0.4820 -1.7721
 1840SOL     OW 9881   3.407   9.912   5.877 -0.2332 -0.0800 -0.0752
 1840SOL    HW1 9882   3.496   9.948   5.884  0.1028 -0.9617  0.3860
 1840SOL    HW2 9883   3.393   9.866   5.960 -1.1482  0.0915 -0.1228
 1841SOL     OW 9884   2.861  10.179   8.921  0.0411  0.2326 -0.1145
 1841SOL    HW1 9885   2.809  10.114   8.970 -0.2967 -0.6660 -1.6198
 1841SOL    HW2 9886   2.803  10.255   8.914  0.2665  0.5611  1.2522
 1842SOL     OW 9887   4.229   6.241   2.273  0.3357 -0.4085 -0.3038
 1842SOL    HW1 9888   4.156   6.268   2.217 -0.2281 -0.3248  0.4583
 1842SOL    HW2 9889   4.187   6.199   2.349  1.0975 -0.8239 -0.1044
 1843SOL     OW 9890   0.439   5.355  10.254 -0.5384 -0.1163  0.4713
 1843SOL    HW1 9891   0.464   5.441  10.220 -2.4315  0.1892 -0.2654
 1843SOL    HW2 9892   0.466   5.293  10.186  0.8563 -0.1483  1.0169
 1844SOL     OW 9893   7.537   5.214   4.052  0.5265  0.2279  0.2592
 1844SOL    HW1 9894   7.457   5.169   4.079 -1.0812  1.9302 -1.3872
 1844SOL    HW2 9895   7.540   5.203   3.957  0.3127  3.1161 -0.1473
 1845SOL     OW 9896   8.028  10.243   0.405 -0.1408 -0.3237 -0.4728
 1845SOL    HW1 9897   7.992  10.304   0.469 -0.0204 -0.5105 -0.2282
 1845SOL    HW2 9898   8.034  10.160   0.451 -0.4501 -0.5640 -0.8509
 1846SOL     OW 9899   1.618   2.279   7.094  0.3441  0.4948  0.2836
 1846SOL    HW1 9900   1.615   2.188   7.064 -0.7333  0.6955 -0.2745
 1846SOL    HW2 9901   1.540   2.319   7.055 -0.7069  0.9890  2.6660
 1847SOL     OW 9902  10.940   6.366   0.214 -0.1804 -0.3903 -0.6908
 1847SOL    HW1 9903  11.007   6.421   0.254  0.4794 -0.6699 -1.3817
 1847SOL    HW2 9904  10.882   6.427   0.167 -0.7378 -0.0991  0.3477
 1848SOL     OW 9905   1.771  10.792   1.524 -0.1547 -0.3644  0.4310
 1848SOL    HW1 9906   1.829  10.748   1.461 -0.2006 -0.9380  0.7823
 1848SOL    HW2 9907   1.826  10.806   1.601  0.2614  1.4560 -0.1615
 1849SOL     OW 9908   1.532   6.580   0.205 -0.2837 -0.2057  0.4451
 1849SOL    HW1 9909   1.475   6.532   0.143 -1.7126  0.6535  1.0424
 1849SOL    HW2 9910   1.552   6.662   0.160 -0.6343  0.0575  0.7533
 1850SOL     OW 9911   3.290   8.490   2.740  0.2395 -0.6350 -0.2954
 1850SOL    HW1 9912   3.304   8.580   2.713  0.2667 -0.1054  1.3839
 1850SOL    HW2 9913   3.259   8.496   2.830 -0.8798 -2.2554 -0.5167
 1851SOL     OW 9914   1.622   8.868   6.632 -0.6827  0.0729  0.9260
 1851SOL    HW1 9915   1.712   8.862   6.599 -1.6678 -2.2799 -1.7779
 1851SOL    HW2 9916   1.601   8.961   6.628  1.6120  0.6869  1.6714
 1852SOL     OW 9917   5.003   0.212   3.576  0.4296 -0.3184  0.6929
 1852SOL    HW1 9918   5.013   0.164   3.658  2.0978 -0.0821  0.6616
 1852SOL    HW2 9919   4.989   0.143   3.510 -0.5880 -0.5267  1.1048
 1853SOL     OW 9920   4.159   4.389   9.722 -0.0307  0.0332 -0.0729
 1853SOL    HW1 9921   4.072   4.428   9.734 -0.6255 -1.5803  1.1816
 1853SOL    HW2 9922   4.169   4.383   9.627 -1.1323  0.5619 -0.2475
 1854SOL     OW 9923   5.345   4.439   6.696 -0.6354  1.2160  0.0129
 1854SOL    HW1 9924   5.252   4.439   6.720 -1.0664  0.4928 -1.5599
 1854SOL    HW2 9925   5.350   4.494   6.618 -0.0406 -0.0640 -0.8925
 1855SOL     OW 9926   9.091   4.709   7.353  0.0934  0.5660  0.3239
 1855SOL    HW1 9927   9.103   4.632   7.408  1.0248  0.6540  0.2474
 1855SOL    HW2 9928   9.163   4.767   7.376  0.2773  0.7731 -0.7055
 1856SOL     OW 9929   4.539   1.209   8.173  0.2440 -0.0876  0.0489
 1856SOL    HW1 9930   4.541   1.206   8.077 -2.1780 -2.1044 -0.0432
 1856SOL    HW2 9931   4.602   1.143   8.200  0.1582 -0.2683 -0.1864
 1857SOL     OW 9932  10.432   1.420   5.874  0.0600  0.1210  0.0520
 1857SOL    HW1 9933  10.348   1.404   5.916  0.5336  0.3537  1.1138
 1857SOL    HW2 9934  10.447   1.342   5.821 -0.9559  0.2066 -0.3832
 1858SOL     OW 9935   7.350   1.752   5.262 -0.5184 -0.1551 -0.6415
 1858SOL    HW1 9936   7.289   1.709   5.201  0.9943  0.0689 -2.4103
 1858SOL    HW2 9937   7.396   1.816   5.208  2.2149 -1.2435  0.2468
 1859SOL     OW 9938   4.688  10.312   2.296 -0.1861 -0.3179 -0.2597
 1859SOL    HW1 9939   4.710  10.226   2.332 -0.5305  0.5055  2.0733
 1859SOL    HW2 9940   4.769  10.344   2.257  0.0900 -1.4466 -0.6367
 1860SOL     OW 9941   1.660   9.692   3.088 -0.2020  0.2703  0.0931
 1860SOL    HW1 9942   1.716   9.676   3.012  0.0606  0.3182  0.2766
 1860SOL    HW2 9943   1.641   9.606   3.124  1.9571  0.3752  1.6243
 1861SOL     OW 9944   2.075   2.946   0.724  0.0471  1.1412  0.1260
 1861SOL    HW1 9945   2.073   2.851   0.713 -1.4871  1.3980 -2.7686
 1861SOL    HW2 9946   1.999   2.966   0.779 -0.3301  0.7721 -0.2590
 1862SOL     OW 9947   2.173   7.186  10.607 -0.0993  0.1888 -0.2068
 1862SOL    HW1 9948   2.255   7.235  10.616  0.2007 -0.3983  0.2697
 1862SOL    HW2 9949   2.109   7.237  10.657  0.0389  0.4704 -0.3101
 1863SOL     OW 9950   3.094   9.074   8.024  0.3348 -0.4155 -0.0322
 1863SOL    HW1 9951   3.027   9.087   8.091 -1.4888 -1.2016 -1.6168
 1863SOL    HW2 9952   3.102   9.160   7.982  1.0838 -0.0647  0.7849
 1864SOL     OW 9953  10.774   2.864   1.944  0.1491  0.2771  0.3246
 1864SOL    HW1 9954  10.850   2.920   1.959 -0.6234  0.8892  2.1609
 1864SOL    HW2 9955  10.711   2.921   1.900  0.4142  0.0120 -0.4144
 1865SOL     OW 9956   8.350   6.337   6.119  0.2237  0.0503  0.4657
 1865SOL    HW1 9957   8.263   6.367   6.093  0.3800 -0.7083 -1.0631
 1865SOL    HW2 9958   8.389   6.303   6.038  2.1567  0.8590  1.0017
 1866SOL     OW 9959   2.778   1.387   5.925 -0.0598  0.1549  0.1734
 1866SOL    HW1 9960   2.832   1.466   5.931 -1.5515  1.2118  0.1042
 1866SOL    HW2 9961   2.833   1.318   5.962  0.9342  1.3885  1.0976
 1867SOL     OW 9962   5.483   1.108   6.610 -0.3485  0.5086 -0.2651
 1867SOL    HW1 9963   5.447   1.161   6.538 -2.5184 -1.1554 -0.4998
 1867SOL    HW2 9964   5.560   1.066   6.571 -1.5814 -0.5003 -1.7304
 1868SOL     OW 9965   8.583   5.306   6.769 -0.2854 -0.1575  0.3556
 1868SOL    HW1 9966   8.543   5.380   6.814  1.0901  1.8051 -1.5036
 1868SOL    HW2 9967   8.675   5.309   6.793  0.0554 -0.3819 -0.8660
 1869SOL     OW 9968   8.217   8.289   2.390  0.3821 -0.0534  0.2738
 1869SOL    HW1 9969   8.277   8.218   2.413  1.1462  0.4056 -0.2706
 1869SOL    HW2 9970   8.168   8.306   2.470 -0.0346 -1.3961  0.3334
 1870SOL     OW 9971   3.306   1.587   6.420  0.1329  0.5025 -0.4884
 1870SOL    HW1 9972   3.302   1.550   6.508  0.9086 -1.6849 -1.3285
 1870SOL    HW2 9973   3.215   1.588   6.391  0.1708 -1.7292 -0.7964
 1871SOL     OW 9974   0.205   1.207   3.773 -0.2326  0.0734  0.0524
 1871SOL    HW1 9975   0.237   1.118   3.764 -0.3219  0.2436 -3.2901
 1871SOL    HW2 9976   0.117   1.197   3.810 -0.0923 -1.1773  0.0981
 1872SOL     OW 9977   2.629   2.636   3.526  0.0406  0.0910  0.0010
 1872SOL    HW1 9978   2.583   2.688   3.592  0.1671 -0.3623  0.4526
 1872SOL    HW2 9979   2.563   2.618   3.459  0.1187  1.2456 -0.4161
 1873SOL     OW 9980  10.656   4.149   0.825  0.2547  0.0089 -0.3647
 1873SOL    HW1 9981  10.659   4.068   0.775 -1.9847  0.0797 -0.7383
 1873SOL    HW2 9982  10.652   4.218   0.758  2.8153  0.5670 -0.0719
 1874SOL     OW 9983   2.102   1.903   5.524  0.0240 -0.2525  0.0509
 1874SOL    HW1 9984   2.074   1.968   5.588 -0.0802 -0.7525  0.5235
 1874SOL    HW2 9985   2.070   1.937   5.440  0.8258  0.7840  0.1503
 1875SOL     OW 9986   1.938   8.976   0.747 -0.4415 -0.2929  0.0246
 1875SOL    HW1 9987   1.916   9.052   0.694  1.5834 -0.1914 -0.7550
 1875SOL    HW2 9988   1.953   9.011   0.835 -2.1075 -0.2180  0.3086
 1876SOL     OW 9989  10.123   7.349  10.227 -0.0495  0.2828  0.3032
 1876SOL    HW1 9990  10.099   7.391  10.144 -0.2603  0.4132  0.4280
 1876SOL    HW2 9991  10.219   7.346  10.225 -0.0886 -1.8425 -0.9854
 1877SOL     OW 9992   4.934  10.331   0.356 -0.0431 -0.3817  0.2828
 1877SOL    HW1 9993   4.894  10.340   0.442 -1.7379  0.3826 -0.5407
 1877SOL    HW2 9994   4.872  10.278   0.306  0.9505 -0.8772 -0.4554
 1878SOL     OW 9995   7.665   0.236   0.338  0.2260  0.4880 -0.5023
 1878SOL    HW1 9996   7.585   0.278   0.309  0.5534  0.4045 -1.5594
 1878SOL    HW2 9997   7.724   0.241   0.263  0.5279 -1.2107 -0.4203
 1879SOL     OW 9998   6.719  10.919   7.760  0.1533 -0.1385  0.2743
 1879SOL    HW1 9999   6.804  10.908   7.802  0.3300 -1.0459 -0.2729
 1879SOL    HW210000   6.733  10.890   7.669 -0.8304 -0.7431  0.2904
 1880SOL     OW10001   6.059  10.469   8.879  0.2619  0.1647 -0.0069
 1880SOL    HW110002   6.148  10.456   8.913 -0.1610 -1.3343  0.5989
 1880SOL    HW210003   6.055  10.415   8.800  0.3127  1.3672 -0.8686
 1881SOL     OW10004   1.830   8.863   4.877 -0.3928 -0.2405 -0.6195
 1881SOL    HW110005   1.880   8.839   4.955 -0.8989 -2.1057 -0.8063
 1881SOL    HW210006   1.741   8.831   4.895 -0.6039 -0.3420 -1.7757
 1882SOL     OW10007  10.658   2.080   8.546  0.3262 -0.0806 -0.3355
 1882SOL    HW110008  10.696   2.057   8.631  0.8980 -0.6475 -0.7279
 1882SOL    HW210009  10.722   2.139   8.507  0.7841 -0.9677 -0.9634
 1883SOL     OW10010   2.213   5.820   7.149 -0.0149 -0.7247 -0.0805
 1883SOL    HW110011   2.122   5.789   7.146  0.1332 -1.1784 -3.1101
 1883SOL    HW210012   2.259   5.764   7.087  1.5092  1.8707 -1.4519
 1884SOL     OW10013   7.658   7.237   5.408  0.1857  0.1695  0.4478
 1884SOL    HW110014   7.693   7.158   5.367 -1.1366  1.3219 -3.4039
 1884SOL    HW210015   7.734   7.281   5.445  1.3984 -1.4454  0.0163
 1885SOL     OW10016   3.585   2.021   0.428 -0.1250  0.4795 -0.1340
 1885SOL    HW110017   3.571   2.046   0.337 -0.9720 -0.1399 -0.1858
 1885SOL    HW210018   3.497   2.004   0.462  0.1905  0.6188  0.7723
 1886SOL     OW10019  10.268   9.592   9.665  0.3241  0.6544 -0.1256
 1886SOL    HW110020  10.361   9.612   9.658  0.5445  0.3479  1.4981
 1886SOL    HW210021  10.239   9.637   9.744 -1.1412  1.5031 -1.0886
 1887SOL     OW10022   7.820  11.096   0.346  0.2594 -0.0296 -0.0674
 1887SOL    HW110023   7.901  11.146   0.334 -0.3283  0.9084 -0.1935
 1887SOL    HW210024   7.751  11.162   0.351 -0.8707 -0.8703 -2.7548
 1888SOL     OW10025   8.662   9.712   0.635  0.3682 -0.6269 -0.5856
 1888SOL    HW110026   8.730   9.773   0.664 -0.2849 -0.1456 -0.0423
 1888SOL    HW210027   8.599   9.766   0.589 -0.3642 -0.8331  0.1549
 1889SOL     OW10028   6.423   0.974   7.339  0.0976  0.2976 -0.0088
 1889SOL    HW110029   6.340   0.934   7.313 -0.6304  1.9687 -0.3865
 1889SOL    HW210030   6.398   1.056   7.382  1.4246 -0.5552  2.6683
 1890SOL     OW10031   8.515   8.301   9.321  0.1243 -1.1996 -0.0394
 1890SOL    HW110032   8.481   8.219   9.285 -1.0039 -0.6306 -0.3061
 1890SOL    HW210033   8.495   8.297   9.414 -0.8163 -0.8106 -0.2174
 1891SOL     OW10034   0.061   5.221   6.267  0.1460  0.2757 -0.8965
 1891SOL    HW110035   0.057   5.183   6.179 -0.3117  2.0507 -1.6926
 1891SOL    HW210036   0.126   5.291   6.260  0.6739 -0.0566  0.4080
 1892SOL     OW10037   1.517   2.186   4.442 -0.6198  0.0462 -0.5595
 1892SOL    HW110038   1.509   2.172   4.348  2.8563  0.6734 -1.0657
 1892SOL    HW210039   1.489   2.276   4.455  0.0137  0.3442 -1.2034
 1893SOL     OW10040   0.909   8.044   5.376 -0.2408  0.1685  0.0458
 1893SOL    HW110041   0.921   7.984   5.303  0.1954 -0.8160  0.9086
 1893SOL    HW210042   0.963   8.009   5.446  1.1746  2.3388  0.1541
 1894SOL     OW10043   9.864   2.771   4.043 -0.0696  0.1554  0.5206
 1894SOL    HW110044   9.854   2.680   4.015  1.2530 -0.4604  1.8831
 1894SOL    HW210045   9.899   2.764   4.132  1.9537  1.9975 -0.0705
 1895SOL     OW10046   2.095   9.382   6.778 -0.1310  0.0417  0.2569
 1895SOL    HW110047   2.040   9.424   6.712 -1.2059 -1.1822  0.3391
 1895SOL    HW210048   2.121   9.298   6.740  0.1187 -0.2187  0.9668
 1896SOL     OW10049   0.531   9.847   5.011 -0.5141  0.0404  0.5407
 1896SOL    HW110050   0.450   9.831   4.962 -0.2958 -1.8466  0.7258
 1896SOL    HW210051   0.517   9.803   5.095  0.8205 -0.5466  0.4687
 1897SOL     OW10052   1.806   5.042   2.756  0.4341 -0.3269  0.2730
 1897SOL    HW110053   1.832   5.094   2.831 -0.1380  1.3422 -0.6472
 1897SOL    HW210054   1.714   5.020   2.772 -0.4097  2.0021 -0.9457
 1898SOL     OW10055  10.416  10.559   2.320 -0.3589  0.1298  0.3075
 1898SOL    HW110056  10.405  10.593   2.231  1.2388 -1.6018 -0.6175
 1898SOL    HW210057  10.335  10.583   2.365 -0.0939  3.4382 -0.7584
 1899SOL     OW10058   8.119   9.658   2.386  0.3368  0.1135 -0.1422
 1899SOL    HW110059   8.174   9.635   2.460 -0.0607 -0.7023 -0.0822
 1899SOL    HW210060   8.074   9.576   2.364 -2.0106  1.0753  0.7825
 1900SOL     OW10061  10.868   7.874   0.293  0.5139  0.4741  0.1097
 1900SOL    HW110062  10.870   7.968   0.271  0.7469  0.2624 -0.8356
 1900SOL    HW210063  10.776   7.850   0.289  0.5423  0.4537 -0.6450
 1901SOL     OW10064   1.915   6.771   5.817 -0.4213  0.2340 -0.1857
 1901SOL    HW110065   1.896   6.700   5.879  1.5873 -0.3437 -0.1367
 1901SOL    HW210066   2.005   6.755   5.790 -0.5743  1.6632 -1.7114
 1902SOL     OW10067   3.342   2.518   6.454 -0.1192 -0.4665 -0.3563
 1902SOL    HW110068   3.263   2.464   6.447  0.1329 -0.6332 -2.3145
 1902SOL    HW210069   3.380   2.493   6.538 -1.8061 -0.8169  0.3584
 1903SOL     OW10070   6.090   0.734   4.922  0.3139 -0.2549  0.4182
 1903SOL    HW110071   6.011   0.681   4.914 -0.0774  0.5202 -1.4510
 1903SOL    HW210072   6.128   0.734   4.834  0.3348  2.4564  0.3301
 1904SOL     OW10073   2.818   8.317   1.093 -0.0400  0.3149 -0.2483
 1904SOL    HW110074   2.829   8.222   1.085  1.4624  0.4757 -0.3231
 1904SOL    HW210075   2.875   8.354   1.026 -3.0320  1.2726 -2.4714
 1905SOL     OW10076   9.540   0.525   3.522  0.0602  0.0723 -0.1688
 1905SOL    HW110077   9.516   0.455   3.583 -1.1383  0.0646 -0.6273
 1905SOL    HW210078   9.579   0.592   3.578 -0.8638 -0.0035  0.5952
 1906SOL     OW10079   7.323   2.158   9.757 -0.1372  0.6063 -0.4799
 1906SOL    HW110080   7.347   2.217   9.829  0.8548 -1.2256  0.7662
 1906SOL    HW210081   7.232   2.179   9.738 -0.8575  0.2701  2.2305
 1907SOL     OW10082   7.317   1.627   7.283 -0.2979  0.4484  0.2152
 1907SOL    HW110083   7.355   1.657   7.201  1.1643 -0.3094  0.5781
 1907SOL    HW210084   7.266   1.550   7.259  1.3420 -0.6862  0.1674
 1908SOL     OW10085   9.163   5.517   4.503  0.2553  0.4556  0.2704
 1908SOL    HW110086   9.194   5.430   4.478  3.3069  2.1974 -2.7646
 1908SOL    HW210087   9.131   5.556   4.422 -1.5456  2.0660  1.6491
 1909SOL     OW10088  10.095   1.161   3.238 -0.3047 -0.4420  0.1173
 1909SOL    HW110089  10.042   1.093   3.280  0.0461 -0.9005 -0.1779
 1909SOL    HW210090  10.116   1.222   3.309  0.7364 -1.4930  0.7444
 1910SOL     OW10091   0.047   0.239   1.143  0.1949 -0.1678  0.9020
 1910SOL    HW110092  -0.018   0.235   1.213 -0.8262 -1.2064 -0.0566
 1910SOL    HW210093   0.037   0.156   1.096  0.0930  0.9221 -1.1239
 1911SOL     OW10094   0.578   8.540   6.362  0.3835  0.0271  0.3134
 1911SOL    HW110095   0.586   8.508   6.273  2.0736  0.1137  0.3971
 1911SOL    HW210096   0.553   8.463   6.413  0.2428 -0.2051 -0.1038
 1912SOL     OW10097  10.785  10.395  10.913  0.2179 -0.1191 -0.6525
 1912SOL    HW110098  10.838  10.454  10.967 -1.0160  1.3367 -0.9372
 1912SOL    HW210099  10.698  10.435  10.913 -0.5113 -1.6299 -1.3963
 1913SOL     OW10100   3.187   2.284   3.353  0.0545  0.2964  0.4818
 1913SOL    HW110101   3.093   2.288   3.369  0.0890  0.1780  0.7176
 1913SOL    HW210102   3.206   2.360   3.299 -0.2823 -0.0224 -0.0875
 1914SOL     OW10103   8.344   2.568   4.388 -0.0452 -0.0904 -0.6021
 1914SOL    HW110104   8.352   2.604   4.300  0.9980  1.5855  0.1274
 1914SOL    HW210105   8.257   2.528   4.389  1.1518 -3.2029 -3.3942
 1915SOL     OW10106   8.195   7.220   2.621 -0.0314  1.0467 -0.2474
 1915SOL    HW110107   8.200   7.207   2.526  0.4402  0.4535 -0.1451
 1915SOL    HW210108   8.105   7.251   2.636  0.7689  4.1533 -1.2131
 1916SOL     OW10109   2.276   3.845   7.711 -0.2876  0.2836 -0.2568
 1916SOL    HW110110   2.278   3.868   7.804 -1.0146 -2.0809  0.4096
 1916SOL    HW210111   2.367   3.850   7.682 -0.0176  0.7650  0.6561
 1917SOL     OW10112   9.843   5.200   3.233  0.3399 -0.5440 -0.0378
 1917SOL    HW110113   9.891   5.157   3.304  2.1428  2.3782  0.6845
 1917SOL    HW210114   9.781   5.258   3.278 -0.8164 -1.0262 -0.9521
 1918SOL     OW10115   6.170   7.048   7.256  0.7713 -0.7852 -0.3183
 1918SOL    HW110116   6.167   6.996   7.336 -0.1551  1.3107  1.0968
 1918SOL    HW210117   6.248   7.102   7.265 -0.9395  1.7265  0.8062
 1919SOL     OW10118   0.189   2.051   6.429  0.3823 -0.0223 -0.3109
 1919SOL    HW110119   0.269   2.027   6.383  0.1116 -0.1904 -0.6981
 1919SOL    HW210120   0.204   2.142   6.456 -0.2504  0.7995 -2.5251
 1920SOL     OW10121   6.176   4.564   2.020 -0.2342  0.0933  0.1717
 1920SOL    HW110122   6.083   4.561   1.997 -1.1626  0.2928  3.4123
 1920SOL    HW210123   6.189   4.488   2.077  1.0366  1.2153  1.4644
 1921SOL     OW10124   0.040   7.419   7.610  0.7080 -0.3530 -0.0774
 1921SOL    HW110125   0.076   7.331   7.599 -0.1054 -0.8015  0.6399
 1921SOL    HW210126   0.085   7.453   7.688  3.3072  1.1286 -2.0682
 1922SOL     OW10127   5.405   3.306   0.111 -0.1746 -0.0489  0.4655
 1922SOL    HW110128   5.480   3.248   0.096  0.4305  0.9900 -0.7749
 1922SOL    HW210129   5.364   3.314   0.025 -2.0009 -0.9193  1.1979
 1923SOL     OW10130   4.585   2.472   7.106 -0.6715 -0.0695  0.6951
 1923SOL    HW110131   4.635   2.529   7.164 -1.1785 -0.3918  1.4667
 1923SOL    HW210132   4.532   2.418   7.165 -0.2600 -1.2897 -0.0046
 1924SOL     OW10133   5.700   5.831   7.419 -0.2541  0.0415 -0.5344
 1924SOL    HW110134   5.710   5.812   7.512  0.8274  2.7702  0.0016
 1924SOL    HW210135   5.747   5.760   7.375 -1.4599 -1.7296  0.9189
 1925SOL     OW10136   6.502  10.377   8.543  0.2957  0.3431 -0.3490
 1925SOL    HW110137   6.423  10.377   8.488 -1.3146  1.9563  1.7987
 1925SOL    HW210138   6.490  10.303   8.603  1.5186 -0.7277 -1.3481
 1926SOL     OW10139   5.316   5.034   7.997  0.4138 -0.1174 -0.0293
 1926SOL    HW110140   5.318   4.942   7.973  1.5481 -0.0481 -0.2674
 1926SOL    HW210141   5.382   5.042   8.066  0.8992  0.6420 -0.5562
 1927SOL     OW10142   6.385   1.290   9.230 -0.1739  0.4860 -0.6750
 1927SOL    HW110143   6.378   1.266   9.138 -0.4418  0.0541 -0.5448
 1927SOL    HW210144   6.417   1.210   9.273 -0.3415  0.5919 -0.3511
 1928SOL     OW10145  10.707   7.136   4.119  0.1320 -0.6028  0.1826
 1928SOL    HW110146  10.712   7.230   4.107  1.5594 -0.7403 -0.4555
 1928SOL    HW210147  10.750   7.099   4.041 -1.4154 -1.8093 -0.1636
 1929SOL     OW10148   9.848   7.763   1.173 -0.0892  0.1067 -0.3871
 1929SOL    HW110149   9.880   7.849   1.145 -1.1014  0.5225 -0.3229
 1929SOL    HW210150   9.912   7.701   1.139  3.2741  1.1033  3.3644
 1930SOL     OW10151   1.395   0.926  10.794  0.4279  0.5377  0.6590
 1930SOL    HW110152   1.308   0.925  10.755  0.6448  0.8201  0.1601
 1930SOL    HW210153   1.420   1.019  10.795  1.7571  0.2798 -1.5624
 1931SOL     OW10154   5.680   9.145   4.762  0.5958 -0.0462  0.5425
 1931SOL    HW110155   5.769   9.156   4.794  0.2218 -0.5165  1.8406
 1931SOL    HW210156   5.673   9.204   4.687  2.4416 -1.0919 -0.5226
 1932SOL     OW10157   0.849   2.822   4.640  0.0708  0.2865  0.5261
 1932SOL    HW110158   0.915   2.830   4.708 -0.8886 -0.2799  1.5463
 1932SOL    HW210159   0.766   2.842   4.684 -0.6685 -0.9224 -0.2484
 1933SOL     OW10160   7.140   1.318   2.143 -0.1026 -0.3280 -0.5980
 1933SOL    HW110161   7.050   1.290   2.160 -0.7548  1.6010 -0.6701
 1933SOL    HW210162   7.183   1.314   2.229 -0.4631 -0.5494 -0.4270
 1934SOL     OW10163   0.397  10.976  10.925 -0.1680  0.2157  0.7367
 1934SOL    HW110164   0.333  11.046  10.933  1.6723  2.0538  0.2033
 1934SOL    HW210165   0.368  10.910  10.988 -3.4060  0.2300 -0.5771
 1935SOL     OW10166   3.776   6.988   7.258 -0.0477  0.6243 -0.1546
 1935SOL    HW110167   3.707   6.943   7.307 -0.8469  0.3318 -1.4882
 1935SOL    HW210168   3.805   6.924   7.192 -0.1247  1.5187 -1.0889
 1936SOL     OW10169   6.137   0.557   8.948 -0.5069  0.0232 -0.2300
 1936SOL    HW110170   6.069   0.490   8.959 -1.5651  0.5940 -2.6623
 1936SOL    HW210171   6.113   0.603   8.868  0.3010  3.1926  1.1634
 1937SOL     OW10172   2.699   7.236   2.355  0.1497  0.6140  0.3031
 1937SOL    HW110173   2.634   7.278   2.410 -0.2278  0.9342 -0.3717
 1937SOL    HW210174   2.650   7.205   2.279  0.8056  1.0320 -0.3082
 1938SOL     OW10175   2.223   2.020   3.643 -0.3130 -0.5528 -0.0271
 1938SOL    HW110176   2.170   1.944   3.669 -1.8310 -0.9960 -3.8343
 1938SOL    HW210177   2.168   2.068   3.581  2.5368  0.7872 -1.7187
 1939SOL     OW10178   1.813   5.958   5.789  0.6826 -0.0206 -0.5660
 1939SOL    HW110179   1.868   5.899   5.737 -0.1454  1.3867 -3.2050
 1939SOL    HW210180   1.723   5.935   5.765  0.2201  0.2850  0.7588
 1940SOL     OW10181   9.192   6.177   7.667  0.0613  0.3754 -0.4030
 1940SOL    HW110182   9.244   6.107   7.706 -1.6241 -0.3892  0.5921
 1940SOL    HW210183   9.253   6.250   7.659  1.2492 -0.4223  0.8411
 1941SOL     OW10184   3.848  10.277   3.789  0.6502  1.2607  0.1339
 1941SOL    HW110185   3.837  10.183   3.803  0.3674  1.2715  0.0005
 1941SOL    HW210186   3.942  10.289   3.774  0.2921  0.3947 -4.1330
 1942SOL     OW10187   1.018   3.748   9.801 -0.2325 -0.2060  0.0714
 1942SOL    HW110188   0.966   3.792   9.869 -0.9644 -2.6546  1.2113
 1942SOL    HW210189   1.088   3.810   9.782 -1.2394  1.4894  1.4658
 1943SOL     OW10190  10.133   5.782   6.351 -0.1815 -0.0087  0.4511
 1943SOL    HW110191  10.076   5.858   6.338  0.1665  0.5840  2.0772
 1943SOL    HW210192  10.145   5.778   6.446  1.0775 -1.1630  0.2687
 1944SOL     OW10193   6.750   0.076   2.994  0.4594  0.3839 -0.5098
 1944SOL    HW110194   6.694   0.138   2.948  1.1788  0.4543 -1.3108
 1944SOL    HW210195   6.731  -0.009   2.955  0.4390  0.3012 -0.3245
 1945SOL     OW10196   5.752   3.070   9.610 -0.8640  0.2659 -0.2862
 1945SOL    HW110197   5.691   2.999   9.628 -0.0762 -0.2917  0.2333
 1945SOL    HW210198   5.725   3.140   9.670 -1.0197  0.0327 -0.0811
 1946SOL     OW10199   1.783   7.102   6.301 -0.4383 -0.4326 -0.2990
 1946SOL    HW110200   1.859   7.160   6.308  0.3548 -1.0445 -2.6865
 1946SOL    HW210201   1.718   7.153   6.253 -1.1000 -0.3452  0.6583
 1947SOL     OW10202   5.168  10.670   1.017 -0.0840 -0.1062  0.0277
 1947SOL    HW110203   5.095  10.637   1.069  0.4123  2.2518  2.4060
 1947SOL    HW210204   5.147  10.762   1.001  1.1996 -0.0323 -1.4733
 1948SOL     OW10205   3.297   9.580   1.144  0.3099  0.2200 -0.3259
 1948SOL    HW110206   3.241   9.519   1.191 -0.8508  1.8330  0.4967
 1948SOL    HW210207   3.382   9.574   1.187  0.1939 -0.7568 -0.2248
 1949SOL     OW10208   5.710   5.011   3.299  0.1357 -0.5850  0.0077
 1949SOL    HW110209   5.642   5.024   3.234  0.6175  0.6285 -0.2832
 1949SOL    HW210210   5.676   4.942   3.356 -0.5146 -1.2998 -1.2128
 1950SOL     OW10211   7.863   0.214   4.160 -0.4529 -0.0481  0.3384
 1950SOL    HW110212   7.787   0.234   4.106 -0.1490 -0.9310 -0.4373
 1950SOL    HW210213   7.938   0.248   4.111  0.0547 -2.6933 -0.8925
 1951SOL     OW10214   5.973   0.351   8.980 -0.1139  0.4826 -0.1479
 1951SOL    HW110215   5.942   0.385   9.063 -1.4394 -0.0522 -0.3918
 1951SOL    HW210216   5.918   0.275   8.963  1.5290 -0.6897 -0.5070
 1952SOL     OW10217   0.881   6.517   0.359  0.3351  0.1535 -0.0576
 1952SOL    HW110218   0.866   6.424   0.344  1.7265  0.2860 -3.0391
 1952SOL    HW210219   0.865   6.529   0.453 -1.8104 -2.6410  0.0724
 1953SOL     OW10220   4.182  10.618   9.727 -0.7384 -0.2584 -0.0592
 1953SOL    HW110221   4.227  10.695   9.760  0.1387 -1.1478  0.9020
 1953SOL    HW210222   4.170  10.634   9.634  0.1176  0.7002 -0.0145
 1954SOL     OW10223   7.344   2.345  10.577  0.1926  0.7002  0.1675
 1954SOL    HW110224   7.314   2.254  10.576 -0.2966  0.8427  0.7871
 1954SOL    HW210225   7.347   2.370  10.484  0.5229  0.0014 -0.0211
 1955SOL     OW10226   6.261  11.019   5.066  0.4854  0.7314 -0.3067
 1955SOL    HW110227   6.303  11.014   5.152  2.6799  0.5571 -1.3033
 1955SOL    HW210228   6.260  10.929   5.035  1.9699  1.0580 -1.4139
 1956SOL     OW10229   0.617  10.059   2.850 -0.3930  0.0024 -0.1691
 1956SOL    HW110230   0.556  10.129   2.872  0.4719  0.6368  0.2431
 1956SOL    HW210231   0.674  10.096   2.783  2.4502  1.0814  2.5876
 1957SOL     OW10232   8.656  10.492   6.563 -0.0704 -0.1828  0.0782
 1957SOL    HW110233   8.626  10.524   6.649  0.3083 -0.0233  0.1534
 1957SOL    HW210234   8.604  10.413   6.548  0.4359 -0.6804  0.8335
 1958SOL     OW10235   5.609   8.154   3.175 -0.1879 -0.3129 -0.1465
 1958SOL    HW110236   5.592   8.246   3.197  0.3524  0.1879 -1.7288
 1958SOL    HW210237   5.704   8.144   3.183 -0.3241 -0.9839  0.8524
 1959SOL     OW10238   4.879  10.360   4.700  0.7433  0.0140  0.1432
 1959SOL    HW110239   4.890  10.265   4.698 -0.6432 -0.1738  0.2499
 1959SOL    HW210240   4.946  10.394   4.640  0.3370 -1.1218 -0.9909
 1960SOL     OW10241  10.217   9.316  11.049 -0.4184 -0.0145 -0.1618
 1960SOL    HW110242  10.237   9.406  11.025  1.1636 -0.3396 -0.1471
 1960SOL    HW210243  10.144   9.323  11.110  1.1577  1.4583  1.6809
 1961SOL     OW10244   2.715   4.703   1.637  0.4860  0.0644 -0.1746
 1961SOL    HW110245   2.623   4.723   1.656  0.6491 -1.1435  2.1886
 1961SOL    HW210246   2.721   4.710   1.542 -2.6953 -2.2874 -0.7441
 1962SOL     OW10247  10.486   8.264   0.125 -0.2659 -0.0645 -0.5897
 1962SOL    HW110248  10.479   8.191   0.063  0.3133 -1.4331  0.8844
 1962SOL    HW210249  10.399   8.273   0.163 -0.5070  0.4811 -1.2484
 1963SOL     OW10250   7.610   4.150   9.341 -0.4810 -0.4076 -0.6078
 1963SOL    HW110251   7.524   4.114   9.361 -0.4266  0.0658  0.5099
 1963SOL    HW210252   7.671   4.099   9.395 -0.2433  0.3526 -0.1406
 1964SOL     OW10253   3.576   6.168   0.416 -0.2747 -0.2259 -0.1444
 1964SOL    HW110254   3.551   6.217   0.338 -0.0582 -0.4802 -0.3714
 1964SOL    HW210255   3.622   6.091   0.383  0.4840  0.0487  0.2607
 1965SOL     OW10256   2.954   7.783   6.536 -0.5432  0.5739  0.2877
 1965SOL    HW110257   3.028   7.725   6.553 -1.4009 -0.7835 -0.4298
 1965SOL    HW210258   2.903   7.781   6.616 -0.9706 -0.2998  0.0034
 1966SOL     OW10259   4.803   7.646  10.460  0.2231  0.1348 -0.2681
 1966SOL    HW110260   4.730   7.702  10.433  0.2324 -0.3600 -1.3723
 1966SOL    HW210261   4.879   7.705  10.463 -0.0065  0.4273 -0.1794
 1967SOL     OW10262   5.075   8.606   3.180  0.0064 -0.1017  0.1366
 1967SOL    HW110263   5.048   8.686   3.225 -3.7440 -1.5328  0.7469
 1967SOL    HW210264   5.086   8.632   3.088  0.2798  1.3556  0.5613
 1968SOL     OW10265  11.101   4.411   3.315 -0.0508 -0.2217 -0.0263
 1968SOL    HW110266  11.078   4.480   3.378 -0.4103 -0.7496  0.4361
 1968SOL    HW210267  11.157   4.351   3.365 -1.7418 -1.5783  0.3499
 1969SOL     OW10268   1.187   8.811   7.549  0.1270  0.1274  0.4306
 1969SOL    HW110269   1.161   8.887   7.497  0.8935  0.3606  0.3870
 1969SOL    HW210270   1.230   8.848   7.627 -1.5245 -0.1923  1.5551
 1970SOL     OW10271   8.890   0.590   4.512  0.4149  0.1957  0.1411
 1970SOL    HW110272   8.918   0.669   4.465 -0.0218  0.5370  0.4459
 1970SOL    HW210273   8.927   0.601   4.600 -0.7148  0.6941  0.5759
 1971SOL     OW10274   4.004   5.140   6.096 -0.0939 -0.4595  0.2972
 1971SOL    HW110275   4.021   5.061   6.148 -0.8901  0.1683  1.5411
 1971SOL    HW210276   3.982   5.207   6.160 -1.0390  0.3638 -0.8429
 1972SOL     OW10277   3.798   5.320   2.213  0.6721  0.1000  0.1369
 1972SOL    HW110278   3.846   5.242   2.240  1.0575  0.9442  2.0570
 1972SOL    HW210279   3.708   5.303   2.239  0.9896  0.7860  1.8468
 1973SOL     OW10280  10.040   2.799   5.289 -0.1702 -0.1851 -0.0312
 1973SOL    HW110281  10.082   2.816   5.205 -0.9527  0.5774 -0.2754
 1973SOL    HW210282   9.997   2.714   5.277  0.6249 -0.5981 -0.0344
 1974SOL     OW10283   8.168   9.191   8.266 -0.6098 -0.2286  0.9433
 1974SOL    HW110284   8.116   9.250   8.210 -2.3994 -3.2843 -0.9109
 1974SOL    HW210285   8.231   9.151   8.206 -2.5110 -3.5322  0.9023
 1975SOL     OW10286   0.571   8.473  10.773  0.1771  0.6762  0.2381
 1975SOL    HW110287   0.499   8.416  10.744  1.1716 -0.0920 -0.8136
 1975SOL    HW210288   0.610   8.426  10.846  0.3722  0.4795  0.0111
 1976SOL     OW10289   3.713   8.124   4.129 -0.3235 -0.1843  0.3430
 1976SOL    HW110290   3.729   8.031   4.113 -1.3282 -0.2934 -0.0975
 1976SOL    HW210291   3.720   8.164   4.043 -0.0102  0.1348  0.5168
 1977SOL     OW10292   4.501   6.774   7.499  0.4734  0.2510  0.6947
 1977SOL    HW110293   4.583   6.728   7.482  0.5109  0.7534 -0.5757
 1977SOL    HW210294   4.506   6.799   7.591  0.8337 -1.4987  1.1962
 1978SOL     OW10295   7.667   1.162   2.233 -0.0966 -0.2931  0.2388
 1978SOL    HW110296   7.692   1.070   2.224  0.3873 -0.0724 -0.8791
 1978SOL    HW210297   7.615   1.181   2.155  2.7183  1.2632 -1.4643
 1979SOL     OW10298  10.188   9.056   7.127  0.1267  0.5631 -0.2641
 1979SOL    HW110299  10.116   9.115   7.148  0.6525  1.2757 -0.4470
 1979SOL    HW210300  10.153   8.998   7.059 -0.5610  0.3117  0.2948
 1980SOL     OW10301   7.858   8.668   7.972  0.0513  0.2200  0.0575
 1980SOL    HW110302   7.845   8.575   7.991  0.1034  0.3627  0.8159
 1980SOL    HW210303   7.771   8.707   7.984  0.3498  0.5367  1.3905
 1981SOL     OW10304   2.344   9.595   1.639  0.3797 -0.2145  0.3227
 1981SOL    HW110305   2.268   9.640   1.677  1.0797  0.2226  1.2212
 1981SOL    HW210306   2.387   9.553   1.713  1.7818  0.6882  0.0465
 1982SOL     OW10307   9.853   4.592  11.092 -0.1830 -0.2575  0.0681
 1982SOL    HW110308   9.823   4.559  11.177 -0.5233 -0.4547 -0.1265
 1982SOL    HW210309   9.790   4.661  11.070 -1.7050 -1.9830 -1.2675
 1983SOL     OW10310   7.911   0.814   8.029 -0.1525  0.7665 -0.1720
 1983SOL    HW110311   7.959   0.731   8.017 -0.3650  0.7159 -0.7205
 1983SOL    HW210312   7.881   0.836   7.941 -0.1284  1.4109 -0.0200
 1984SOL     OW10313   6.664   7.442   9.483 -0.8156 -0.1882  0.0238
 1984SOL    HW110314   6.585   7.427   9.431  0.7299 -2.4608 -1.9093
 1984SOL    HW210315   6.690   7.355   9.513  0.9709  0.4746  0.5533
 1985SOL     OW10316   9.854   7.558   0.618 -0.1831  0.2957  0.6423
 1985SOL    HW110317   9.866   7.631   0.557  1.3862  0.5019  1.1620
 1985SOL    HW210318   9.764   7.528   0.602 -0.3032  1.2915 -0.7169
 1986SOL     OW10319   8.220   7.931   4.744 -0.0988 -0.3277  0.1186
 1986SOL    HW110320   8.187   7.921   4.834  2.7776 -0.6134  1.2466
 1986SOL    HW210321   8.192   8.019   4.718 -2.2266 -0.7876  0.7077
 1987SOL     OW10322   5.228   7.613   0.599  0.9846  0.5287  0.2005
 1987SOL    HW110323   5.281   7.534   0.604 -0.5313 -0.6626 -1.4639
 1987SOL    HW210324   5.288   7.684   0.624  3.1975 -0.7902 -1.1077
 1988SOL     OW10325   6.417  10.226   6.311 -0.3024  0.4076  0.2222
 1988SOL    HW110326   6.418  10.301   6.371 -1.8217  0.1322  0.6156
 1988SOL    HW210327   6.470  10.255   6.236 -0.6964  1.7923  0.4497
 1989SOL     OW10328   7.259   6.794   8.468  0.2816 -0.6039 -0.0805
 1989SOL    HW110329   7.195   6.865   8.462 -0.7366 -1.5071 -0.0901
 1989SOL    HW210330   7.287   6.780   8.378  0.5891 -0.1419 -0.0646
 1990SOL     OW10331  10.422   8.216   6.009  0.1074 -0.3439  0.6396
 1990SOL    HW110332  10.489   8.232   6.076  0.6353  1.5745 -0.2580
 1990SOL    HW210333  10.350   8.275   6.032 -0.3290 -0.7522  0.3485
 1991SOL     OW10334   7.128  10.369   7.719  0.2861  0.0854 -0.1449
 1991SOL    HW110335   7.221  10.379   7.698  0.2620 -1.8716 -1.3688
 1991SOL    HW210336   7.085  10.359   7.634 -0.8187 -0.6724  0.4831
 1992SOL     OW10337   4.877   2.194   7.544  0.3076 -0.5183 -0.2144
 1992SOL    HW110338   4.809   2.247   7.586  0.0720 -0.8008 -0.2341
 1992SOL    HW210339   4.831   2.116   7.515 -0.2457  0.9622 -3.8078
 1993SOL     OW10340   9.251   7.734  10.532 -0.0196 -0.4860  0.2479
 1993SOL    HW110341   9.176   7.681  10.557  0.4993 -1.3282  0.0820
 1993SOL    HW210342   9.219   7.789  10.461 -0.1008 -1.9856 -0.9416
 1994SOL     OW10343   2.407   7.649   9.648 -0.2409 -0.3902 -0.3492
 1994SOL    HW110344   2.433   7.563   9.682  0.2780  0.1161  0.5717
 1994SOL    HW210345   2.386   7.700   9.727  0.6881  0.7163 -0.7965
 1995SOL     OW10346   4.233   8.529  10.218  0.1304  0.0198  0.2514
 1995SOL    HW110347   4.215   8.441  10.249 -0.1527 -0.2947 -0.7567
 1995SOL    HW210348   4.273   8.574  10.293 -2.7492  0.0701  1.8725
 1996SOL     OW10349   2.286   1.556   5.993  0.1391  0.1293  0.1889
 1996SOL    HW110350   2.290   1.643   6.033  1.1903  0.8590 -1.3765
 1996SOL    HW210351   2.373   1.519   6.007  1.4426  1.4103 -3.3377
 1997SOL     OW10352   2.853   2.699   7.309 -0.0898  0.1373 -0.1726
 1997SOL    HW110353   2.911   2.698   7.233 -0.4667 -0.1803 -0.4585
 1997SOL    HW210354   2.765   2.696   7.273 -0.3069  1.0991  0.2486
 1998SOL     OW10355   7.048  11.084   5.471  0.1911  0.7212  0.3517
 1998SOL    HW110356   7.054  11.165   5.523 -4.4281  2.0711 -0.7661
 1998SOL    HW210357   7.027  11.016   5.534  1.5825  0.8340  0.9838
 1999SOL     OW10358   8.926   7.007   4.299  0.0085  0.3163 -0.3722
 1999SOL    HW110359   9.013   6.986   4.266  0.9367  1.0177  1.4576
 1999SOL    HW210360   8.890   7.071   4.238  0.7896  0.0365 -1.1286
 2000SOL     OW10361   4.240  10.104   9.004  0.2526 -0.1490 -0.5440
 2000SOL    HW110362   4.175  10.042   9.036 -0.3523  0.6951 -0.1148
 2000SOL    HW210363   4.282  10.138   9.083  0.2497  0.3453 -0.7526
 2001SOL     OW10364   9.450   5.121   7.804  0.5609  0.1067  0.2920
 2001SOL    HW110365   9.470   5.200   7.854  1.9272 -0.2899  0.4150
 2001SOL    HW210366   9.446   5.051   7.869  2.3262 -0.4086 -0.1034
 2002SOL     OW10367   3.631   9.421   2.101 -0.3497  0.4188 -0.1914
 2002SOL    HW110368   3.697   9.489   2.109 -0.2995  0.4438 -0.7621
 2002SOL    HW210369   3.670   9.344   2.143 -0.4467  0.7634  0.5379
 2003SOL     OW10370   5.295   3.996   3.058  0.2075  0.3828  0.2720
 2003SOL    HW110371   5.252   3.913   3.079 -0.7283  0.4146 -1.3281
 2003SOL    HW210372   5.263   4.058   3.123 -0.7369 -0.0408  0.2204
 2004SOL     OW10373   9.818   9.042   8.018 -0.0684 -0.1163  0.2933
 2004SOL    HW110374   9.817   9.136   8.003  0.7062 -0.1257  0.1467
 2004SOL    HW210375   9.907   9.023   8.047  0.0648 -0.9495 -0.6220
 2005SOL     OW10376   0.881   2.570   2.739 -0.3341  0.0559  0.3325
 2005SOL    HW110377   0.915   2.586   2.827 -3.1866 -0.3778  1.5914
 2005SOL    HW210378   0.896   2.477   2.724  0.1398  0.1283  0.3398
 2006SOL     OW10379   7.385   7.595   2.231 -0.5292  0.7032 -0.4644
 2006SOL    HW110380   7.387   7.500   2.217 -1.0838  0.1881  2.3025
 2006SOL    HW210381   7.451   7.629   2.170  0.5399 -1.5947 -0.7260
 2007SOL     OW10382   8.260   3.286  10.210  0.2993  0.2189  0.2424
 2007SOL    HW110383   8.333   3.347  10.196 -0.0184  0.8592  1.2826
 2007SOL    HW210384   8.222   3.313  10.294 -0.8035 -0.4563 -0.0285
 2008SOL     OW10385   7.186   1.387   4.106  0.1901 -0.0959  0.2809
 2008SOL    HW110386   7.143   1.318   4.055 -0.1731  0.4214 -0.1228
 2008SOL    HW210387   7.279   1.378   4.086 -0.0226  0.5926 -1.0931
 2009SOL     OW10388   4.733   8.813   0.542 -0.4346 -0.3320 -0.5154
 2009SOL    HW110389   4.760   8.777   0.457 -0.9083  0.2907 -0.9455
 2009SOL    HW210390   4.745   8.908   0.531  0.7208 -0.3321  0.5559
 2010SOL     OW10391   4.113   0.544   6.824 -0.0354 -0.3035  0.4816
 2010SOL    HW110392   4.169   0.501   6.760 -1.1902 -2.1855  0.6844
 2010SOL    HW210393   4.095   0.630   6.786  2.2168  0.0253  0.0085
 2011SOL     OW10394   9.414   9.742   0.615  0.0067 -0.5153 -0.2378
 2011SOL    HW110395   9.319   9.735   0.614  0.0252 -1.1822  1.1498
 2011SOL    HW210396   9.445   9.657   0.649  1.1186 -0.4838 -1.0972
 2012SOL     OW10397   8.889   5.234   4.423 -0.0409  0.3893  0.1604
 2012SOL    HW110398   8.816   5.259   4.366  0.5437 -0.3779 -0.9722
 2012SOL    HW210399   8.862   5.151   4.462  1.2458 -1.3734 -2.3952
 2013SOL     OW10400   8.771   5.606   2.106 -0.0276  1.0505  0.0824
 2013SOL    HW110401   8.689   5.560   2.123  0.9504 -1.7203 -1.8168
 2013SOL    HW210402   8.750   5.672   2.040 -0.5046 -1.0115 -1.9710
 2014SOL     OW10403   8.940   6.967   2.873 -0.5751 -0.0930 -0.0777
 2014SOL    HW110404   8.988   6.986   2.792 -0.6997 -0.4863 -0.2431
 2014SOL    HW210405   8.889   6.889   2.853 -0.8493 -0.0066  0.2818
 2015SOL     OW10406  10.714   9.773   6.802 -0.0033 -0.5287  0.2396
 2015SOL    HW110407  10.723   9.679   6.786  0.1349 -1.0353  2.8530
 2015SOL    HW210408  10.673   9.779   6.888  2.8272  1.7374  1.6040
 2016SOL     OW10409   4.588   8.180   2.468  0.0750 -0.4465 -0.8995
 2016SOL    HW110410   4.682   8.167   2.483 -0.1410  0.3236  1.4724
 2016SOL    HW210411   4.582   8.262   2.419  0.5818  1.7614  2.4198
 2017SOL     OW10412   6.921   0.582   7.213 -0.3939  0.1842 -0.0491
 2017SOL    HW110413   6.832   0.548   7.206 -0.1419 -0.7332  0.9821
 2017SOL    HW210414   6.929   0.609   7.304  0.3326  0.4046 -0.1752
 2018SOL     OW10415   3.534   6.317   9.208 -0.3187 -0.5668  0.4448
 2018SOL    HW110416   3.507   6.343   9.120 -1.5068 -1.3846  0.5430
 2018SOL    HW210417   3.617   6.363   9.222 -0.4042  0.0410 -0.8639
 2019SOL     OW10418   8.050   9.393   2.352 -0.0717  0.3009  0.4373
 2019SOL    HW110419   8.060   9.353   2.438 -1.9629  2.5189  1.7951
 2019SOL    HW210420   7.962   9.368   2.324  0.3257  0.0494 -0.6332
 2020SOL     OW10421   1.904   5.936  10.972  0.0304 -0.0649 -0.1108
 2020SOL    HW110422   1.931   5.844  10.962  0.2700  0.0651 -0.6907
 2020SOL    HW210423   1.857   5.956  10.891  0.7683  0.5953 -0.3773
 2021SOL     OW10424   6.905   1.252   0.393  0.9262 -0.0076 -0.2004
 2021SOL    HW110425   6.932   1.320   0.455  2.8165 -0.0398 -0.9257
 2021SOL    HW210426   6.855   1.190   0.446  0.1835  1.3105  0.7107
 2022SOL     OW10427   5.710   4.769   5.086  1.1757  0.0594 -0.0060
 2022SOL    HW110428   5.685   4.828   5.016  1.1722 -0.3676 -0.3713
 2022SOL    HW210429   5.663   4.688   5.067 -0.1083  0.4398  1.3915
 2023SOL     OW10430   1.886   0.658   4.471 -0.0464  0.2272  0.4381
 2023SOL    HW110431   1.909   0.633   4.381 -1.6961  0.8298 -0.1822
 2023SOL    HW210432   1.845   0.580   4.508 -1.3866  0.6448 -0.1039
 2024SOL     OW10433   9.622   4.896   2.866  0.3252  0.0444 -0.3461
 2024SOL    HW110434   9.648   4.974   2.915  1.4414  0.0708 -0.9373
 2024SOL    HW210435   9.658   4.823   2.917  1.3793  0.0657 -1.0300
 2025SOL     OW10436  10.004   3.750   0.145 -0.3066  0.0145 -0.4835
 2025SOL    HW110437  10.089   3.753   0.103 -0.3196 -0.8871 -0.5897
 2025SOL    HW210438  10.022   3.771   0.237 -0.2502  1.7379 -0.8530
 2026SOL     OW10439   7.980   0.043   5.650  0.3482  0.2729  0.1249
 2026SOL    HW110440   7.994  -0.052   5.647  0.3893  0.2979 -1.1557
 2026SOL    HW210441   7.980   0.070   5.558  0.1797  1.4970  0.4651
 2027SOL     OW10442   3.517   7.982  10.409  0.3886 -0.0455 -0.1842
 2027SOL    HW110443   3.551   8.071  10.412 -1.3322  0.6310 -0.3004
 2027SOL    HW210444   3.456   7.976  10.483  0.0368 -0.9381 -0.5265
 2028SOL     OW10445   5.846   7.364   7.302  0.1213  0.3994 -0.1874
 2028SOL    HW110446   5.861   7.438   7.243 -0.3371  0.8859  0.3011
 2028SOL    HW210447   5.822   7.403   7.385 -0.4452 -0.3016 -0.0105
 2029SOL     OW10448   9.364   2.609   6.058 -0.6683 -0.2354  0.4434
 2029SOL    HW110449   9.422   2.589   6.131  0.4647  2.2739  0.3498
 2029SOL    HW210450   9.395   2.554   5.986  2.5507  1.8442  0.0291
 2030SOL     OW10451   0.407   0.478   0.153 -0.5759 -0.0624  0.6640
 2030SOL    HW110452   0.361   0.561   0.144 -0.5721 -0.0870  0.4164
 2030SOL    HW210453   0.355   0.416   0.101 -0.0515 -0.0053  0.0610
 2031SOL     OW10454   9.962   6.623   9.236 -0.1616  0.3372  0.1861
 2031SOL    HW110455   9.969   6.530   9.257 -0.8719 -0.1305 -1.4927
 2031SOL    HW210456  10.035   6.639   9.176 -0.1513  0.8225  0.3284
 2032SOL     OW10457   5.500   0.649   2.332  0.6023 -0.6701 -0.6511
 2032SOL    HW110458   5.481   0.726   2.278 -0.5211 -0.7564 -0.4030
 2032SOL    HW210459   5.488   0.575   2.271 -0.9671 -0.7866 -0.2527
 2033SOL     OW10460   5.257   9.091   7.884 -0.7384  1.2819  0.7558
 2033SOL    HW110461   5.252   9.056   7.795  1.1611 -1.1028  1.4608
 2033SOL    HW210462   5.170   9.124   7.902 -1.5697  0.4898 -1.4819
 2034SOL     OW10463   6.899   4.581   8.835 -0.5420  0.4767  0.2946
 2034SOL    HW110464   6.975   4.534   8.871 -0.5936  0.4801  0.4102
 2034SOL    HW210465   6.825   4.551   8.889 -0.8434 -0.4938 -0.6316
 2035SOL     OW10466   9.282  10.766   6.440  0.3703  0.6331  0.3696
 2035SOL    HW110467   9.350  10.710   6.402  1.8106  1.9806  0.8429
 2035SOL    HW210468   9.205  10.751   6.385  0.7608 -1.6094  0.3698
 2036SOL     OW10469   2.839   1.205   9.345 -0.1217 -0.6944 -0.0187
 2036SOL    HW110470   2.782   1.192   9.421  0.3820 -2.1825  0.1484
 2036SOL    HW210471   2.832   1.298   9.325 -0.5121 -0.3310  1.6598
 2037SOL     OW10472   4.187   3.180   0.172  0.0091 -0.0549  0.2784
 2037SOL    HW110473   4.267   3.217   0.212  0.0227 -1.1285  1.2888
 2037SOL    HW210474   4.191   3.087   0.193 -0.8968 -0.3344 -0.7499
 2038SOL     OW10475   7.652   1.520   4.528  0.4369 -0.6250 -0.0767
 2038SOL    HW110476   7.663   1.453   4.460 -0.7529 -0.7254 -0.2018
 2038SOL    HW210477   7.722   1.583   4.513 -0.6574  0.1423 -2.3385
 2039SOL     OW10478   3.528   4.158   4.957  0.5611 -0.3046 -0.1875
 2039SOL    HW110479   3.477   4.164   5.037 -1.1440 -0.5990 -1.2069
 2039SOL    HW210480   3.611   4.201   4.978 -0.6964  1.6580  1.0752
 2040SOL     OW10481   1.206   2.306   9.408  0.1635  0.3869  0.0805
 2040SOL    HW110482   1.118   2.339   9.426  0.6842  0.6380  2.6204
 2040SOL    HW210483   1.257   2.383   9.384 -0.5095  0.0697 -2.7305
 2041SOL     OW10484   6.059   4.633   8.841 -0.6195  0.6441 -0.1394
 2041SOL    HW110485   6.141   4.607   8.800 -0.2039 -0.2411  1.1988
 2041SOL    HW210486   6.020   4.695   8.779  0.2319 -0.2189 -1.5946
 2042SOL     OW10487   4.211   5.074   2.795  0.7593 -0.3762  0.6993
 2042SOL    HW110488   4.250   5.111   2.715 -0.8533  0.1213  0.1091
 2042SOL    HW210489   4.118   5.094   2.788  0.0670 -2.9881  1.2239
 2043SOL     OW10490   5.727   1.839   7.824  0.1686 -0.0038  0.1405
 2043SOL    HW110491   5.774   1.856   7.743 -1.3812 -1.4595 -1.1172
 2043SOL    HW210492   5.796   1.826   7.889  1.4392  1.2168 -0.9000
 2044SOL     OW10493   8.590   9.084   4.766 -0.4007  0.7792 -0.5339
 2044SOL    HW110494   8.545   9.158   4.726 -1.5729 -0.9150 -2.5281
 2044SOL    HW210495   8.521   9.033   4.809 -0.0164 -0.4029 -1.2597
 2045SOL     OW10496   1.914   4.823   4.248 -0.1847 -0.0625 -0.9234
 2045SOL    HW110497   1.942   4.804   4.159  1.4066 -3.5767  0.1448
 2045SOL    HW210498   1.825   4.788   4.255  0.0801 -0.7407 -0.8858
 2046SOL     OW10499  10.631   0.620   0.998  0.4511 -0.1498  0.1799
 2046SOL    HW110500  10.626   0.619   0.903 -0.2536  1.5072  0.1634
 2046SOL    HW210501  10.540   0.630   1.027  0.2408 -3.8019  1.1794
 2047SOL     OW10502   1.777   9.920   4.522 -0.0342 -0.0601  0.2523
 2047SOL    HW110503   1.738   9.879   4.445  0.9599 -0.9016  0.1803
 2047SOL    HW210504   1.767   9.856   4.592  2.6096 -1.0209 -0.1478
 2048SOL     OW10505   8.956   8.141   3.961 -0.3115  0.3748 -0.2443
 2048SOL    HW110506   9.024   8.107   3.904 -0.0095  0.9046 -0.2032
 2048SOL    HW210507   8.941   8.230   3.930 -0.7052  0.3958 -0.0006
 2049SOL     OW10508   7.333   9.132   2.397  0.1350 -0.7921  0.3637
 2049SOL    HW110509   7.313   9.225   2.402  0.4712 -0.7361  0.6779
 2049SOL    HW210510   7.248   9.088   2.407 -0.0704 -0.5168 -0.1255
 2050SOL     OW10511   3.982  10.412   0.902  0.2469  0.4132  0.0536
 2050SOL    HW110512   3.994  10.317   0.900  0.4331  0.3284  2.5815
 2050SOL    HW210513   3.947  10.433   0.815 -0.2289 -2.0086 -0.4206
 2051SOL     OW10514   7.242   5.792   1.687  0.5157  0.3650 -0.0272
 2051SOL    HW110515   7.239   5.863   1.752  0.9909  1.3413 -1.0372
 2051SOL    HW210516   7.325   5.804   1.642 -0.4457  0.6295 -1.8129
 2052SOL     OW10517  10.153   2.402   0.114 -0.1822  0.1224 -0.3601
 2052SOL    HW110518  10.063   2.424   0.136 -0.8242  0.0056 -2.6597
 2052SOL    HW210519  10.192   2.484   0.084  0.2341  0.0014 -0.1687
 2053SOL     OW10520   6.307   7.659   4.804  0.1724  0.0708 -0.2180
 2053SOL    HW110521   6.257   7.740   4.794 -2.4669 -1.5982 -2.3008
 2053SOL    HW210522   6.396   7.681   4.777 -0.6530  2.1261 -1.5002
 2054SOL     OW10523   8.033   6.732  10.942 -0.4949 -0.2058  0.8175
 2054SOL    HW110524   8.074   6.818  10.946 -1.4232  0.3112 -0.4050
 2054SOL    HW210525   8.106   6.671  10.938  0.2004  0.6816 -1.1462
 2055SOL     OW10526   8.289   3.755   4.647 -0.1531 -0.0274  0.2068
 2055SOL    HW110527   8.328   3.734   4.732 -0.3370  0.1856  0.3454
 2055SOL    HW210528   8.329   3.693   4.586  0.8249  0.5568  0.2412
 2056SOL     OW10529   4.424   5.802  10.529 -0.1525 -0.3705 -0.3815
 2056SOL    HW110530   4.439   5.744  10.604 -0.4556 -0.7911 -0.6396
 2056SOL    HW210531   4.374   5.748  10.467  0.3549 -0.1258 -1.0148
 2057SOL     OW10532   7.171   8.905   6.036 -0.4635  0.1363 -0.1120
 2057SOL    HW110533   7.086   8.939   6.012 -0.7327 -0.7093 -0.4118
 2057SOL    HW210534   7.161   8.810   6.031  0.3053  0.0073  0.5039
 2058SOL     OW10535   4.285   5.565   0.396  0.5157 -0.0563 -0.0970
 2058SOL    HW110536   4.375   5.593   0.412  0.9785 -1.3055 -0.3884
 2058SOL    HW210537   4.290   5.512   0.316 -0.0330 -2.1248  1.1480
 2059SOL     OW10538   0.641   1.299  10.484 -0.6691 -0.0754  0.3514
 2059SOL    HW110539   0.607   1.245  10.413 -1.6017 -1.0183  1.4663
 2059SOL    HW210540   0.731   1.270  10.496 -0.0236  1.0808 -1.3399
 2060SOL     OW10541   2.286   2.212   5.542 -0.2544  0.3305  0.4330
 2060SOL    HW110542   2.197   2.243   5.527 -0.3936  0.1134  0.8051
 2060SOL    HW210543   2.316   2.260   5.619  0.1910  0.8926 -0.0808
 2061SOL     OW10544   3.686   5.383   9.402  0.0924  0.1160  0.1720
 2061SOL    HW110545   3.759   5.438   9.433 -0.1927 -0.0190  1.1136
 2061SOL    HW210546   3.613   5.445   9.391  0.6896  0.5180 -2.1850
 2062SOL     OW10547   2.489   6.513   3.774 -0.2475 -0.4274 -0.4920
 2062SOL    HW110548   2.537   6.576   3.828  1.8882 -0.7270 -1.8976
 2062SOL    HW210549   2.516   6.428   3.808 -0.1434 -0.5987 -0.9966
 2063SOL     OW10550   1.026   2.675   3.764  0.4557  0.4402  0.6182
 2063SOL    HW110551   1.106   2.717   3.732 -0.0086  0.2920 -0.8062
 2063SOL    HW210552   1.049   2.583   3.771  1.2596  0.7564  3.0585
 2064SOL     OW10553   9.634   7.553   2.762 -0.5104 -0.2440 -0.4722
 2064SOL    HW110554   9.619   7.482   2.701 -0.2647 -0.5609 -0.1688
 2064SOL    HW210555   9.547   7.576   2.795 -0.3838 -2.1325  1.3503
 2065SOL     OW10556   1.621  10.598   7.590  0.2532 -0.1859 -0.0069
 2065SOL    HW110557   1.632  10.536   7.662 -1.5874 -0.2005  0.3088
 2065SOL    HW210558   1.699  10.586   7.536  2.1349  0.4649  2.4169
 2066SOL     OW10559   1.315   2.318   3.992  0.3528 -0.1586  0.0706
 2066SOL    HW110560   1.263   2.238   3.999 -0.3029  0.3328  1.0162
 2066SOL    HW210561   1.351   2.316   3.903 -1.2105 -0.5709 -0.5849
 2067SOL     OW10562   0.110   3.532   8.341  0.2518 -0.4848 -0.4270
 2067SOL    HW110563   0.032   3.563   8.296  1.5867  0.9072 -1.9537
 2067SOL    HW210564   0.168   3.609   8.343  1.7239 -1.5637  0.2959
 2068SOL     OW10565   3.481   3.004   2.671  0.4074 -0.0502 -0.9714
 2068SOL    HW110566   3.431   2.988   2.591 -0.6595  0.9744 -0.5475
 2068SOL    HW210567   3.517   3.092   2.659  1.9013 -0.6453 -1.1318
 2069SOL     OW10568   4.545   2.959   7.739  0.5927 -0.3256 -0.5804
 2069SOL    HW110569   4.475   2.913   7.785  0.5413 -0.8017 -1.1289
 2069SOL    HW210570   4.581   3.020   7.805 -1.8111  1.5748 -0.8623
 2070SOL     OW10571   9.106   5.236   2.017  0.0295 -0.0159  0.2615
 2070SOL    HW110572   9.073   5.325   2.008  1.0667  0.2170 -1.9432
 2070SOL    HW210573   9.126   5.208   1.927 -0.6104 -2.6293  0.8262
 2071SOL     OW10574   8.722   1.435   1.481  0.0529 -0.0291 -0.3094
 2071SOL    HW110575   8.669   1.452   1.559  1.6478 -1.7395  1.2440
 2071SOL    HW210576   8.690   1.351   1.448 -0.7344  0.7682 -1.6642
 2072SOL     OW10577   0.155   5.988  10.424  0.3180  0.1698 -0.1392
 2072SOL    HW110578   0.175   6.082  10.425 -0.1600  0.3487 -1.9664
 2072SOL    HW210579   0.072   5.981  10.472 -0.2137  0.8729 -0.9181
 2073SOL     OW10580   7.969   3.195   1.585 -0.1364  0.2216  0.1093
 2073SOL    HW110581   7.884   3.160   1.556 -0.9025  0.4567  1.9280
 2073SOL    HW210582   7.948   3.282   1.621  1.0668  0.7476 -0.3953
 2074SOL     OW10583   8.896   4.585   5.056  0.0514  0.2028  0.1369
 2074SOL    HW110584   8.818   4.536   5.030 -0.8653  2.0386 -0.7562
 2074SOL    HW210585   8.922   4.546   5.140 -2.7007  0.4888  1.2258
 2075SOL     OW10586   0.962   8.698   8.864  0.9854 -0.3207 -0.3291
 2075SOL    HW110587   0.963   8.779   8.812 -1.0639  0.7302  1.1578
 2075SOL    HW210588   1.030   8.644   8.823  2.5313  2.1511 -1.3303
 2076SOL     OW10589   4.216   9.965   5.514 -0.6950  0.1133 -0.2578
 2076SOL    HW110590   4.191   9.874   5.532 -0.0924 -0.0287 -0.1253
 2076SOL    HW210591   4.255   9.996   5.595 -1.5677  0.7382 -0.0604
 2077SOL     OW10592   3.714   4.706   4.815 -0.3002  0.3330  0.3869
 2077SOL    HW110593   3.638   4.710   4.757 -0.4306  0.3921  0.5606
 2077SOL    HW210594   3.761   4.787   4.799  0.1418 -0.0423 -0.2810
 2078SOL     OW10595   2.724   9.999   9.076 -0.0538  0.1665  0.0388
 2078SOL    HW110596   2.689   9.920   9.034 -0.8289  1.1485 -1.2697
 2078SOL    HW210597   2.748   9.972   9.164 -1.5311 -1.2297  0.0587
 2079SOL     OW10598   3.453   6.156  10.015  0.1020  0.1997  0.6781
 2079SOL    HW110599   3.487   6.235  10.057 -1.6276  0.6801  1.2570
 2079SOL    HW210600   3.359   6.157  10.034 -0.3408 -0.8340 -1.1969
 2080SOL     OW10601   8.089   1.348   9.620  0.1587  0.0313 -0.4614
 2080SOL    HW110602   8.059   1.321   9.707  0.2978 -0.5554 -0.5917
 2080SOL    HW210603   8.151   1.419   9.637  2.0177 -1.6410  0.0918
 2081SOL     OW10604   0.180   8.535   5.579  0.0805 -0.1318 -0.1693
 2081SOL    HW110605   0.257   8.541   5.635 -0.3968  0.7907  0.4029
 2081SOL    HW210606   0.115   8.592   5.621 -0.6198 -0.2132 -1.1178
 2082SOL     OW10607   4.488   2.666   1.618  0.0176 -0.3311  0.0715
 2082SOL    HW110608   4.581   2.647   1.604  0.2804  0.7898  0.1936
 2082SOL    HW210609   4.487   2.720   1.698 -0.8698 -1.4463  0.8477
 2083SOL     OW10610   9.482   9.487   3.749 -0.5272  0.0471  0.3814
 2083SOL    HW110611   9.391   9.509   3.771 -0.5012  0.1344  0.4017
 2083SOL    HW210612   9.528   9.491   3.832 -0.1687  1.6207  0.1369
 2084SOL     OW10613   3.207   7.016   6.639 -0.0315  0.1681  0.2412
 2084SOL    HW110614   3.296   7.051   6.644 -0.3264  0.9060  0.4502
 2084SOL    HW210615   3.177   7.038   6.551  0.1657 -0.5400 -0.0165
 2085SOL     OW10616   4.492   7.758   8.469 -0.1513 -0.1008  0.3740
 2085SOL    HW110617   4.431   7.812   8.418  0.1813 -1.3574 -1.4407
 2085SOL    HW210618   4.579   7.785   8.440  0.0781 -0.1998  0.9581
 2086SOL     OW10619  11.020  10.817  10.621 -0.1844  0.0385  0.9353
 2086SOL    HW110620  11.007  10.909  10.599  0.1924 -0.2569 -0.6103
 2086SOL    HW210621  11.062  10.819  10.707  0.9524  1.3670  0.3980
 2087SOL     OW10622   6.703   1.226   7.777  0.0966  0.0633  0.5072
 2087SOL    HW110623   6.798   1.234   7.783  0.3001  0.2539 -1.8922
 2087SOL    HW210624   6.678   1.284   7.705 -1.6992 -0.7652  0.3898
 2088SOL     OW10625   6.789   4.425   3.717  0.1100  0.2779 -0.0137
 2088SOL    HW110626   6.733   4.451   3.644  1.3922  0.6039 -0.9221
 2088SOL    HW210627   6.739   4.359   3.764 -0.1909 -1.0039 -2.0163
 2089SOL     OW10628   9.054   1.239   1.435  0.1099 -0.0015  0.1532
 2089SOL    HW110629   9.023   1.237   1.526  0.2857 -3.6332  0.2466
 2089SOL    HW210630   9.143   1.206   1.439  1.0218  2.0892 -1.1488
 2090SOL     OW10631   5.429   4.044   6.160 -0.0555  0.3999 -0.2759
 2090SOL    HW110632   5.519   4.054   6.130 -0.0859  4.9333  0.4537
 2090SOL    HW210633   5.433   3.975   6.226  2.4573 -0.7858 -1.5542
 2091SOL     OW10634   5.585   4.811  10.510 -0.0395  0.0130  0.0464
 2091SOL    HW110635   5.627   4.850  10.433 -0.3781  0.5055  0.1053
 2091SOL    HW210636   5.492   4.826  10.497 -0.1453 -0.4832  0.2384
 2092SOL     OW10637   6.537   2.061   8.858 -0.2749 -0.0679 -0.4244
 2092SOL    HW110638   6.487   2.129   8.904 -1.2257 -0.0634 -1.4288
 2092SOL    HW210639   6.485   1.982   8.869  0.0822 -0.3138 -0.5045
 2093SOL     OW10640  10.949   5.652   3.867  0.0544 -0.3513 -0.3216
 2093SOL    HW110641  10.962   5.577   3.926  1.5702  1.0461  1.2276
 2093SOL    HW210642  11.022   5.647   3.805  0.8522  0.4711  0.5263
 2094SOL     OW10643   1.337   8.667   5.156 -0.9206  0.1221 -0.9937
 2094SOL    HW110644   1.296   8.701   5.235  2.1587  0.8356  0.4692
 2094SOL    HW210645   1.341   8.572   5.170  0.3911  0.3226  0.1990
 2095SOL     OW10646   6.894   2.784   4.139  0.3706  0.0681 -0.3452
 2095SOL    HW110647   6.898   2.878   4.120  0.1683  0.8054  2.7420
 2095SOL    HW210648   6.970   2.747   4.094  0.9550  1.8608 -0.9056
 2096SOL     OW10649   0.159   8.711   7.982 -0.3670 -0.3801 -0.1344
 2096SOL    HW110650   0.143   8.798   7.945  3.0889  1.3545  1.9804
 2096SOL    HW210651   0.115   8.713   8.067 -0.7768 -0.9706 -0.3252
 2097SOL     OW10652   4.973  10.874  10.019 -0.3203 -0.1158  0.9507
 2097SOL    HW110653   4.881  10.859   9.997  0.1119 -0.9889 -0.3507
 2097SOL    HW210654   5.018  10.796   9.988  1.1202  1.1079 -0.1729
 2098SOL     OW10655  10.856   7.015   1.722  0.2465  0.2371 -0.1135
 2098SOL    HW110656  10.847   6.980   1.633  2.4593  0.9460 -0.6682
 2098SOL    HW210657  10.855   7.110   1.711  1.1418  0.3333  0.5392
 2099SOL     OW10658   2.133   4.942  10.284  0.0350 -0.2401 -0.1387
 2099SOL    HW110659   2.155   5.032  10.308  1.8064 -0.9727  1.2048
 2099SOL    HW210660   2.195   4.919  10.215 -1.1096 -0.1191 -1.2382
 2100SOL     OW10661   0.811   8.253   4.472  0.0385  0.3040 -0.0232
 2100SOL    HW110662   0.877   8.272   4.539 -2.3900  2.5216  1.9408
 2100SOL    HW210663   0.844   8.295   4.393  2.1879 -0.9749  0.1016
 2101SOL     OW10664   7.415   3.984   1.937  0.2222 -0.1098 -0.0214
 2101SOL    HW110665   7.412   4.023   1.850 -0.2048  1.4612  0.6640
 2101SOL    HW210666   7.505   3.997   1.966  0.7263 -1.8418 -0.7345
 2102SOL     OW10667   7.561   9.789   7.852  0.0122  0.2600 -0.1399
 2102SOL    HW110668   7.487   9.755   7.901 -0.4609 -0.5607 -1.3638
 2102SOL    HW210669   7.624   9.817   7.919 -1.1484  0.4372  0.9102
 2103SOL     OW10670   5.375  10.883   3.209 -0.0138  0.5786  0.1157
 2103SOL    HW110671   5.336  10.807   3.166  3.6554 -0.5002 -1.7692
 2103SOL    HW210672   5.413  10.848   3.289 -0.0137  0.8664  0.2418
 2104SOL     OW10673  10.237   6.028   8.966  0.1826 -0.1875  0.3107
 2104SOL    HW110674  10.255   5.995   8.877 -1.1732 -0.5465  0.1413
 2104SOL    HW210675  10.280   6.113   8.969  0.6175 -0.3642 -0.5437
 2105SOL     OW10676   4.480   5.779   6.195 -0.1366  0.7231  0.1860
 2105SOL    HW110677   4.529   5.698   6.185 -0.2846  0.4380  1.6207
 2105SOL    HW210678   4.480   5.817   6.107 -0.0131 -0.7835 -0.5054
 2106SOL     OW10679   5.876  10.545   8.603 -0.7454  0.5425 -0.2174
 2106SOL    HW110680   5.850  10.551   8.510 -0.6938  0.0496 -0.2664
 2106SOL    HW210681   5.919  10.460   8.610 -1.2486  0.3350  0.3842
 2107SOL     OW10682   2.405   4.135  10.930 -0.0496 -0.0467 -0.1800
 2107SOL    HW110683   2.493   4.148  10.965 -0.1980 -1.0500  0.6089
 2107SOL    HW210684   2.365   4.069  10.988 -0.6555 -1.0069 -1.6394
 2108SOL     OW10685   0.259   5.009  10.259 -0.5689  0.5992  0.1246
 2108SOL    HW110686   0.355   5.008  10.258 -0.5523 -1.1954  0.6471
 2108SOL    HW210687   0.234   5.012  10.167  0.0387 -2.3089 -0.2111
 2109SOL     OW10688   8.572  10.974  10.847  0.4193 -0.5365  0.0429
 2109SOL    HW110689   8.508  10.924  10.796 -0.8263  0.7489  0.2817
 2109SOL    HW210690   8.608  11.037  10.784 -1.4332  1.3444  0.7375
 2110SOL     OW10691   1.037   9.326   0.090 -0.6867  0.0157  0.5183
 2110SOL    HW110692   1.090   9.313   0.011 -1.8267  0.1538 -0.2996
 2110SOL    HW210693   0.984   9.404   0.071 -0.3156  0.6050  1.8042
 2111SOL     OW10694   1.469   9.404   7.439  0.1631 -0.3737 -0.1537
 2111SOL    HW110695   1.471   9.309   7.448 -0.0974 -0.5595 -1.7702
 2111SOL    HW210696   1.556   9.427   7.407  0.8703  0.1860  1.9786
 2112SOL     OW10697  10.638   7.232   7.561  0.6057  0.5237  0.1003
 2112SOL    HW110698  10.624   7.215   7.468  1.6664 -0.5199  0.1139
 2112SOL    HW210699  10.555   7.207   7.602  0.4270  0.1665 -0.4658
 2113SOL     OW10700   0.032   0.403  10.485 -0.0791  0.2047 -0.4129
 2113SOL    HW110701  -0.061   0.392  10.465 -0.2944  0.3774  0.4241
 2113SOL    HW210702   0.065   0.314  10.497 -0.4467  0.1758  0.5313
 2114SOL     OW10703   0.705   8.679   1.793 -0.0775  0.1133  0.0450
 2114SOL    HW110704   0.674   8.745   1.855 -0.8359 -1.7538  1.7669
 2114SOL    HW210705   0.791   8.652   1.826  0.8662  1.1729 -1.4401
 2115SOL     OW10706   6.214   3.594   9.861 -0.0861  0.3802 -0.2210
 2115SOL    HW110707   6.194   3.688   9.869  0.5360  0.5086 -0.1537
 2115SOL    HW210708   6.297   3.583   9.907 -0.4367 -0.3138  0.2747
 2116SOL     OW10709   4.179  10.624   6.638  0.0347 -0.1883  0.0650
 2116SOL    HW110710   4.160  10.538   6.600  1.2024 -0.8318  0.8612
 2116SOL    HW210711   4.122  10.684   6.591 -2.0196 -1.6115  0.5935
 2117SOL     OW10712   6.046  10.529  10.564  0.1678  0.4822  0.0980
 2117SOL    HW110713   6.093  10.548  10.645  2.5335 -1.3100 -0.7499
 2117SOL    HW210714   6.052  10.609  10.513  2.1201  0.4174  0.1544
 2118SOL     OW10715   0.958   4.608   4.105 -0.3793 -0.6944 -0.1447
 2118SOL    HW110716   0.896   4.555   4.054  0.7368 -1.9784 -0.2322
 2118SOL    HW210717   1.042   4.593   4.063  0.0986  0.5339  0.3424
 2119SOL     OW10718   0.663   3.496   6.168 -0.3504 -0.1437 -0.6587
 2119SOL    HW110719   0.725   3.570   6.161 -1.2057  0.6277 -0.2198
 2119SOL    HW210720   0.691   3.436   6.099  0.8387  0.2307 -0.5273
 2120SOL     OW10721   8.136   6.510   9.496  0.8088  0.3904 -0.1226
 2120SOL    HW110722   8.180   6.433   9.533 -0.2985 -0.2448 -0.0654
 2120SOL    HW210723   8.140   6.575   9.565  1.9395  0.4683 -0.2428
 2121SOL     OW10724   6.400   1.391   8.454  0.2992 -0.1251 -0.0525
 2121SOL    HW110725   6.454   1.378   8.377 -0.9538  1.5969 -1.3112
 2121SOL    HW210726   6.455   1.440   8.515  0.1965  1.6868 -1.3477
 2122SOL     OW10727   0.421   1.269   3.567 -0.0308 -0.0121  0.0117
 2122SOL    HW110728   0.371   1.324   3.626  0.9579 -1.0508  1.8961
 2122SOL    HW210729   0.512   1.279   3.596  0.4454 -0.8014 -1.1265
 2123SOL     OW10730   4.298   7.494   6.882  0.3739 -0.3486 -0.3439
 2123SOL    HW110731   4.220   7.511   6.934  0.0397  0.8823 -1.1884
 2123SOL    HW210732   4.305   7.399   6.879 -1.2719 -0.4932 -0.4924
 2124SOL     OW10733   0.664   0.210   9.081  0.4094  0.2214  0.2313
 2124SOL    HW110734   0.730   0.276   9.060  0.3457 -0.2953 -1.8560
 2124SOL    HW210735   0.582   0.247   9.049  0.4505 -1.0244 -1.4765
 2125SOL     OW10736   5.893   4.671  10.877  0.4216  0.4655  0.0621
 2125SOL    HW110737   5.947   4.671  10.798  1.0707  2.2444  0.4445
 2125SOL    HW210738   5.921   4.593  10.925  1.8120  0.6979 -0.3242
 2126SOL     OW10739   4.461   0.460   9.162  0.6224 -0.2746  0.0110
 2126SOL    HW110740   4.482   0.542   9.206 -0.2015  1.5749 -2.7874
 2126SOL    HW210741   4.531   0.447   9.099 -0.0542 -0.8679 -0.6446
 2127SOL     OW10742   2.097   9.516   7.340 -0.3797  0.0158 -0.0029
 2127SOL    HW110743   2.019   9.475   7.304 -0.8869  0.9950 -0.0404
 2127SOL    HW210744   2.137   9.561   7.265 -0.8798  1.1916  0.4091
 2128SOL     OW10745   3.942   0.928   2.989 -0.2533 -0.0157  0.4515
 2128SOL    HW110746   3.911   0.875   2.915 -1.9227  1.7275 -0.1819
 2128SOL    HW210747   4.019   0.881   3.021  0.3113 -1.0583 -2.1597
 2129SOL     OW10748   8.576   4.475   6.501 -0.4370 -0.6769  0.4905
 2129SOL    HW110749   8.561   4.381   6.513  1.0185 -0.8491  1.1161
 2129SOL    HW210750   8.615   4.482   6.414 -2.6749 -0.3656 -0.5657
 2130SOL     OW10751   1.303   7.709   2.873  0.2867 -0.9612 -0.4680
 2130SOL    HW110752   1.370   7.776   2.880 -0.5435  0.1036 -2.0338
 2130SOL    HW210753   1.253   7.716   2.954  0.8546 -0.4187 -0.1582
 2131SOL     OW10754   2.071   5.891   1.130  0.0833 -0.4772  0.3366
 2131SOL    HW110755   2.097   5.924   1.216  1.2415 -1.3395  0.3335
 2131SOL    HW210756   2.127   5.938   1.068  1.2682 -1.8950  0.2834
 2132SOL     OW10757   2.615   1.860   4.058 -0.0003 -0.5631 -0.3410
 2132SOL    HW110758   2.628   1.807   3.979 -1.2828 -1.3009 -0.0751
 2132SOL    HW210759   2.560   1.806   4.115 -0.7784  0.7854  0.2172
 2133SOL     OW10760   7.884   8.312   0.857  0.1597 -0.0417  0.2373
 2133SOL    HW110761   7.941   8.354   0.793  3.1423  0.3283  2.8671
 2133SOL    HW210762   7.866   8.226   0.821  0.6107  0.6146 -1.6581
 2134SOL     OW10763   8.267   8.932   3.193  0.4967 -0.4475  0.0211
 2134SOL    HW110764   8.265   9.000   3.126  0.4311 -1.3913 -0.9695
 2134SOL    HW210765   8.175   8.914   3.213  0.5126 -0.2763  0.2458
 2135SOL     OW10766   7.072   1.535   6.905  0.0215 -0.0676 -0.1189
 2135SOL    HW110767   7.016   1.463   6.934 -0.0932 -0.3180 -0.9113
 2135SOL    HW210768   7.068   1.530   6.809 -1.6475  2.2212 -0.2741
 2136SOL     OW10769   8.706   6.001   8.681 -0.0010 -0.0390  0.4731
 2136SOL    HW110770   8.709   6.070   8.616 -0.3917 -0.1111  0.3758
 2136SOL    HW210771   8.717   6.046   8.765  2.7301 -0.1659  0.2604
 2137SOL     OW10772   3.404   1.878   8.524  0.0266 -0.1117 -0.2613
 2137SOL    HW110773   3.372   1.961   8.489  1.9139  1.0117  0.5420
 2137SOL    HW210774   3.499   1.890   8.532 -0.0484 -0.7548  3.8069
 2138SOL     OW10775   9.629   9.801   0.784  0.0193  0.0429 -0.5335
 2138SOL    HW110776   9.695   9.750   0.737  0.0132 -0.5333  0.0681
 2138SOL    HW210777   9.564   9.823   0.717  1.3061  1.5203 -1.3696
 2139SOL     OW10778   5.153   2.423   9.937  0.4124  0.9612  0.1915
 2139SOL    HW110779   5.184   2.428   9.847 -2.0834  2.3701 -0.6621
 2139SOL    HW210780   5.109   2.338   9.943 -0.3723  1.3266 -0.2723
 2140SOL     OW10781   0.065  10.451  10.354  0.1619  0.2146 -0.3777
 2140SOL    HW110782  -0.016  10.402  10.365  0.7813 -0.3470  2.2453
 2140SOL    HW210783   0.043  10.541  10.380  0.1599  0.2790 -0.5985
 2141SOL     OW10784   7.692   6.208   9.253  0.0128  0.0171  0.0714
 2141SOL    HW110785   7.782   6.216   9.284  0.2852 -1.6529 -0.2248
 2141SOL    HW210786   7.666   6.118   9.273 -1.6192  0.4639  0.1830
 2142SOL     OW10787   9.872   3.539   4.977  0.4137 -0.6781 -0.2740
 2142SOL    HW110788   9.960   3.517   4.947  0.7346  1.9468 -1.5454
 2142SOL    HW210789   9.819   3.540   4.898 -0.3676 -0.5510  0.2408
 2143SOL     OW10790   3.898   4.997   3.244  0.1975 -0.5425  0.4517
 2143SOL    HW110791   3.963   4.992   3.174 -0.4260  1.0787 -0.2999
 2143SOL    HW210792   3.900   4.911   3.285  0.8234 -1.4345 -1.3535
 2144SOL     OW10793   8.880   9.837   9.312 -0.4438 -0.1946 -0.3795
 2144SOL    HW110794   8.911   9.822   9.223  0.7968  1.3105 -0.2404
 2144SOL    HW210795   8.817   9.909   9.304  0.9031  1.0749  0.1364
 2145SOL     OW10796   4.221   5.583  10.473 -0.0435 -0.5739 -0.6887
 2145SOL    HW110797   4.239   5.516  10.407 -0.4347 -2.0083  0.5838
 2145SOL    HW210798   4.145   5.631  10.439 -2.0536 -3.0941 -0.1291
 2146SOL     OW10799   1.865   7.497   9.190 -0.1911 -0.2848 -0.5035
 2146SOL    HW110800   1.866   7.526   9.282  0.0530 -1.3810 -0.1450
 2146SOL    HW210801   1.945   7.446   9.181 -0.8327 -1.2261 -0.9832
 2147SOL     OW10802   4.880  10.888   6.565  0.4853  0.2666  0.3449
 2147SOL    HW110803   4.907  10.805   6.525 -0.7314  0.1232 -0.2279
 2147SOL    HW210804   4.960  10.924   6.602  1.3031 -0.4614 -0.6685
 2148SOL     OW10805   6.717   9.483   9.534 -0.0663  0.4363  0.1378
 2148SOL    HW110806   6.811   9.504   9.529  0.2430 -0.2448  1.9913
 2148SOL    HW210807   6.712   9.391   9.509 -0.4272  0.7922 -1.1369
 2149SOL     OW10808  10.975   5.511   8.815 -0.4832  0.2169  0.0914
 2149SOL    HW110809  10.985   5.560   8.896 -1.8292 -0.4341  0.6921
 2149SOL    HW210810  10.936   5.428   8.842 -0.2048 -0.3326 -1.1334
 2150SOL     OW10811   4.251   7.208   6.523 -0.3270  0.0653 -0.2275
 2150SOL    HW110812   4.214   7.128   6.560 -0.4245 -0.2914 -1.0847
 2150SOL    HW210813   4.205   7.279   6.569 -2.0314 -0.3616 -1.1912
 2151SOL     OW10814   8.872   0.366   9.747 -0.3894 -0.0410  0.5544
 2151SOL    HW110815   8.819   0.302   9.794 -0.0245  0.4518  1.6739
 2151SOL    HW210816   8.867   0.446   9.800 -1.8218  1.2691 -1.4364
 2152SOL     OW10817   0.770   6.567   6.013 -0.3968  0.1633 -0.2158
 2152SOL    HW110818   0.708   6.625   6.057  1.8181  2.2355  0.3890
 2152SOL    HW210819   0.782   6.493   6.073 -1.6066  0.1444  0.0204
 2153SOL     OW10820   1.000   5.285   3.101 -0.2562  0.4047  0.2011
 2153SOL    HW110821   1.017   5.306   3.009  1.4734 -0.0770  0.3751
 2153SOL    HW210822   1.001   5.370   3.145 -0.4532  0.5817 -0.1347
 2154SOL     OW10823   4.241   5.124   9.593  0.5005 -0.0000  0.1270
 2154SOL    HW110824   4.280   5.067   9.527 -3.0220 -1.5846 -0.8022
 2154SOL    HW210825   4.210   5.200   9.544 -1.3181 -0.7574  0.0580
 2155SOL     OW10826   3.112   7.780   5.527 -0.4693  0.0789  0.0067
 2155SOL    HW110827   3.122   7.809   5.618  0.2791  0.8814 -0.3095
 2155SOL    HW210828   3.020   7.793   5.508 -0.3962  1.1305  0.2712
 2156SOL     OW10829   5.491   3.251   1.711  0.4113 -0.1353 -0.3467
 2156SOL    HW110830   5.585   3.234   1.701  0.3404 -1.2241  0.6415
 2156SOL    HW210831   5.453   3.164   1.724 -0.7324  0.3080 -0.6465
 2157SOL     OW10832   3.997   4.505   2.717  0.0188  0.5236 -0.3859
 2157SOL    HW110833   3.981   4.426   2.769  0.1401  0.5474 -0.3124
 2157SOL    HW210834   3.963   4.484   2.630  2.3060 -0.5526 -1.1121
 2158SOL     OW10835   9.184   9.294   8.359  0.1165 -0.7850  0.0136
 2158SOL    HW110836   9.226   9.347   8.427  0.6788 -0.0227 -0.9041
 2158SOL    HW210837   9.180   9.351   8.283  0.7019 -2.0371 -1.0070
 2159SOL     OW10838   9.069   7.318   2.915  0.2636  0.3157 -0.0247
 2159SOL    HW110839   9.161   7.304   2.893  0.0739 -1.9789  0.3234
 2159SOL    HW210840   9.049   7.247   2.977 -2.2380 -0.5036 -1.6276
 2160SOL     OW10841   1.462  10.719   6.794 -0.1559  0.0742  0.4261
 2160SOL    HW110842   1.498  10.806   6.810  0.4365 -0.0124 -0.3907
 2160SOL    HW210843   1.408  10.729   6.716  0.2431 -0.3709  0.0860
 2161SOL     OW10844   8.862  10.725   7.744  0.6983  0.3477  0.0019
 2161SOL    HW110845   8.940  10.671   7.730  0.1342 -0.5248  0.1215
 2161SOL    HW210846   8.825  10.737   7.657  0.2833 -0.3216  0.0710
 2162SOL     OW10847   4.649   1.001   5.637  0.5302 -0.1271 -0.4074
 2162SOL    HW110848   4.724   0.961   5.593  1.2075 -0.4903  1.0142
 2162SOL    HW210849   4.678   1.090   5.657 -0.2154  0.4335 -1.7254
 2163SOL     OW10850   3.331   1.022   3.372 -0.0722  0.1351  0.1849
 2163SOL    HW110851   3.325   1.060   3.459 -0.7875  0.9114 -0.1967
 2163SOL    HW210852   3.242   0.995   3.351  0.3579 -1.5131  0.3249
 2164SOL     OW10853   2.739   8.948   9.535  0.3509 -0.1829  0.1345
 2164SOL    HW110854   2.702   9.027   9.574 -0.1253 -0.5637  0.4541
 2164SOL    HW210855   2.750   8.971   9.442  1.1411  0.5940  0.4034
 2165SOL     OW10856   9.545   7.429   3.456 -0.2015 -0.0280 -0.1826
 2165SOL    HW110857   9.621   7.401   3.405 -2.1137 -0.8977 -2.8164
 2165SOL    HW210858   9.552   7.524   3.459  1.5456 -0.1501  0.6367
 2166SOL     OW10859   7.151   7.833   8.878  0.2397 -0.4333 -0.0039
 2166SOL    HW110860   7.181   7.820   8.968  0.2411 -2.4620 -0.2407
 2166SOL    HW210861   7.217   7.791   8.824  0.1353  0.5950 -0.9640
 2167SOL     OW10862   3.389   7.501   1.062  0.8438  0.1950  0.5059
 2167SOL    HW110863   3.373   7.439   1.133 -1.0114  0.3383  0.2706
 2167SOL    HW210864   3.476   7.536   1.079  0.8171 -0.4669  2.1815
 2168SOL     OW10865   6.182   5.279   1.915 -0.2394  0.2012 -1.0038
 2168SOL    HW110866   6.163   5.185   1.915 -1.0797  0.3566 -0.4991
 2168SOL    HW210867   6.242   5.291   1.988 -0.6042  0.1401 -0.6910
 2169SOL     OW10868   9.028   1.821   9.165 -0.5415 -0.7013  0.7174
 2169SOL    HW110869   9.099   1.863   9.214 -0.1730 -0.7804  0.2492
 2169SOL    HW210870   8.949   1.864   9.198 -0.1167  1.2088 -0.5456
 2170SOL     OW10871   9.891   9.743   0.027 -0.1854  0.0112  0.7108
 2170SOL    HW110872   9.961   9.746   0.091  0.7276 -0.9011 -0.2105
 2170SOL    HW210873   9.914   9.671  -0.031 -2.1773 -0.6672  0.6948
 2171SOL     OW10874   0.249   0.580   3.516 -0.1493  0.1526  0.4779
 2171SOL    HW110875   0.285   0.587   3.427 -1.3957  1.5767  0.0347
 2171SOL    HW210876   0.325   0.566   3.572  1.0875  2.3639 -0.5021
 2172SOL     OW10877   2.478   1.003   8.144 -0.4181  0.1005  0.3462
 2172SOL    HW110878   2.477   0.962   8.230  0.2100 -1.3927 -0.3197
 2172SOL    HW210879   2.413   0.954   8.093  1.6750 -1.4530 -1.0078
 2173SOL     OW10880  10.655  10.796   8.712 -0.1550  0.2454 -0.5307
 2173SOL    HW110881  10.735  10.748   8.689 -0.7182 -0.5806 -0.7963
 2173SOL    HW210882  10.605  10.800   8.630 -1.6795 -1.7495  0.2336
 2174SOL     OW10883   6.868   9.016   8.931  0.5833 -0.6993  0.1599
 2174SOL    HW110884   6.776   9.044   8.934  0.3412 -1.4621  0.1691
 2174SOL    HW210885   6.889   9.012   8.838  0.4024 -1.1504  0.1357
 2175SOL     OW10886   8.095   2.233   6.363  0.1452 -0.4956  0.2764
 2175SOL    HW110887   8.046   2.295   6.417 -3.1735 -1.4303 -1.4016
 2175SOL    HW210888   8.120   2.284   6.286  1.0807 -0.2580  0.7205
 2176SOL     OW10889   0.478   7.232   1.327 -0.2339 -0.7506  0.4036
 2176SOL    HW110890   0.491   7.324   1.304 -0.4481 -0.6337  0.7319
 2176SOL    HW210891   0.526   7.183   1.261 -1.2163 -0.4417 -0.5688
 2177SOL     OW10892   5.693   8.645   9.477  0.6451 -0.4385  0.1207
 2177SOL    HW110893   5.642   8.616   9.401  2.5569 -1.5241 -0.8369
 2177SOL    HW210894   5.643   8.616   9.553 -0.1970 -1.3813 -0.7693
 2178SOL     OW10895   1.783   0.247   7.785 -0.1661  0.4239  0.3859
 2178SOL    HW110896   1.826   0.312   7.842  1.8352 -0.3945 -0.1035
 2178SOL    HW210897   1.767   0.172   7.843 -0.8881  0.6902  0.5432
 2179SOL     OW10898   2.577   2.570   6.614 -0.1191  0.5526  0.2501
 2179SOL    HW110899   2.501   2.629   6.618  0.3220  1.0887  1.4893
 2179SOL    HW210900   2.644   2.621   6.568  0.1032  0.8466  0.8852
 2180SOL     OW10901   7.195   2.817   3.494 -0.0651 -0.2687  0.1697
 2180SOL    HW110902   7.162   2.907   3.483 -2.5280 -1.0733  0.3118
 2180SOL    HW210903   7.226   2.792   3.407 -1.8799 -0.1501 -0.5698
 2181SOL     OW10904   3.987   9.425  10.276 -0.1459  0.1037  0.3136
 2181SOL    HW110905   3.937   9.433  10.195  0.0255 -0.6213  0.1358
 2181SOL    HW210906   4.001   9.331  10.287 -0.4786  0.1612  1.3740
 2182SOL     OW10907   3.215   8.532   5.091  0.2791 -0.2688 -0.3479
 2182SOL    HW110908   3.174   8.446   5.095 -0.7805  0.1980  3.6660
 2182SOL    HW210909   3.308   8.514   5.078 -0.2176 -1.7730 -2.2876
 2183SOL     OW10910   0.576   4.305   3.775 -0.0471  0.5516  0.0622
 2183SOL    HW110911   0.657   4.291   3.823  0.2069  2.0129  0.0874
 2183SOL    HW210912   0.603   4.343   3.692 -0.6219 -0.2089 -0.4950
 2184SOL     OW10913   0.678   5.247   5.046  0.1739 -0.2852  0.5470
 2184SOL    HW110914   0.659   5.320   5.105 -1.0603  0.5737 -0.8542
 2184SOL    HW210915   0.766   5.264   5.014 -0.2797  0.8558 -0.1169
 2185SOL     OW10916   4.699   7.907   1.949  0.0309  0.4516 -0.5306
 2185SOL    HW110917   4.730   7.818   1.930  1.4398  1.1411 -1.6852
 2185SOL    HW210918   4.749   7.935   2.025 -0.3656  0.2933 -0.2070
 2186SOL     OW10919   1.957   0.129   2.300 -0.0118  0.5133  0.0953
 2186SOL    HW110920   1.961   0.035   2.283  1.7465  0.9305 -2.4483
 2186SOL    HW210921   1.999   0.141   2.385 -1.5024 -1.0653  1.1139
 2187SOL     OW10922   3.085   1.532   8.797 -0.5544 -0.0677  0.2279
 2187SOL    HW110923   3.117   1.442   8.797  1.6115  0.5999  1.9263
 2187SOL    HW210924   3.147   1.580   8.743 -1.8425  0.3948 -0.8824
 2188SOL     OW10925   5.233   9.838   2.185  0.4078  0.5327 -0.6787
 2188SOL    HW110926   5.247   9.889   2.105  1.2803 -1.2047 -1.7165
 2188SOL    HW210927   5.155   9.786   2.166  0.4106  0.3751 -0.2527
 2189SOL     OW10928   1.335  10.047   9.283 -0.1542 -0.3468  0.2801
 2189SOL    HW110929   1.425  10.063   9.255 -0.6270  0.3001 -0.9503
 2189SOL    HW210930   1.338  10.051   9.378  0.9022  0.8632  0.2184
 2190SOL     OW10931   4.248   0.238   3.499 -0.3348 -0.1239  0.1567
 2190SOL    HW110932   4.185   0.219   3.429 -0.8862  1.0316  0.3131
 2190SOL    HW210933   4.333   0.232   3.456 -0.6329 -0.1682 -0.4436
 2191SOL     OW10934   2.039  10.559   1.656 -0.3532 -0.3851  0.0466
 2191SOL    HW110935   2.133  10.542   1.649  0.2635  2.9826 -2.2044
 2191SOL    HW210936   2.030  10.652   1.636 -4.1856 -0.5076  0.4959
 2192SOL     OW10937  10.900   9.750   5.128  0.0489  0.1047 -0.5013
 2192SOL    HW110938  10.820   9.738   5.178  1.2208 -0.4623  1.3519
 2192SOL    HW210939  10.951   9.813   5.178  0.1408  1.7261 -2.4959
 2193SOL     OW10940  10.908   2.184  10.954 -0.1690 -0.0985  0.0875
 2193SOL    HW110941  10.932   2.098  10.918 -0.5048 -1.0876  2.0996
 2193SOL    HW210942  10.872   2.165  11.040 -1.8882  1.9314 -0.0866
 2194SOL     OW10943  10.614   7.125   8.959 -0.2934 -0.2548 -0.0299
 2194SOL    HW110944  10.630   7.037   8.993  0.1773 -0.4673 -0.7783
 2194SOL    HW210945  10.693   7.175   8.983 -1.5456  0.6610  2.5375
 2195SOL     OW10946   8.149   9.309   5.344 -0.2930 -0.0519  0.2067
 2195SOL    HW110947   8.056   9.321   5.359 -0.5459 -0.8815 -0.6059
 2195SOL    HW210948   8.185   9.398   5.339 -1.0354  0.2701  0.5061
 2196SOL     OW10949   2.610   4.364   1.877 -0.4191  0.4431  0.2990
 2196SOL    HW110950   2.591   4.275   1.907 -0.1140  0.2743  0.0013
 2196SOL    HW210951   2.629   4.354   1.783  0.0486  0.7575  0.3585
 2197SOL     OW10952   3.497   2.508   2.073  0.0482  0.2481  0.7736
 2197SOL    HW110953   3.483   2.433   2.015 -1.4270  0.4466  0.8342
 2197SOL    HW210954   3.434   2.495   2.144  2.0376 -0.1782  2.5715
 2198SOL     OW10955   3.104   5.001   1.455 -0.7696 -0.4114  0.0591
 2198SOL    HW110956   3.176   5.063   1.443 -1.1751  0.0320 -0.1141
 2198SOL    HW210957   3.037   5.051   1.502  0.4013 -1.7709  3.5802
 2199SOL     OW10958   8.363   5.360   5.328  0.0107  0.0320 -0.2359
 2199SOL    HW110959   8.380   5.453   5.345  1.5040 -0.2075 -0.2351
 2199SOL    HW210960   8.419   5.315   5.392  1.1419 -0.8575 -1.7973
 2200SOL     OW10961   0.472   9.241   5.794  0.5205  0.1770 -0.3079
 2200SOL    HW110962   0.498   9.316   5.740  1.4477 -0.4617 -0.7721
 2200SOL    HW210963   0.437   9.281   5.874  0.7608  1.1083 -0.6525
 2201SOL     OW10964   1.741   6.390   8.389 -0.5886 -0.0453  0.0255
 2201SOL    HW110965   1.763   6.297   8.398 -1.8723 -0.3111  0.6740
 2201SOL    HW210966   1.750   6.425   8.477  0.3477  0.5750 -0.3024
 2202SOL     OW10967   6.804  10.617   8.812  0.4873  0.1688  0.0835
 2202SOL    HW110968   6.848  10.648   8.891  1.2463 -0.2392 -0.1706
 2202SOL    HW210969   6.827  10.682   8.745  1.4497 -0.5062 -0.2634
 2203SOL     OW10970   1.475   6.202   7.171 -0.5132 -0.3809 -0.6642
 2203SOL    HW110971   1.562   6.238   7.154 -0.1440  0.4381  2.3430
 2203SOL    HW210972   1.493   6.120   7.218 -1.3321  0.2610  0.8058
 2204SOL     OW10973   4.343  10.463   4.400 -0.1969  0.3179 -0.2111
 2204SOL    HW110974   4.273  10.426   4.346 -0.1246  1.1502 -0.8894
 2204SOL    HW210975   4.299  10.529   4.454  0.2068  1.6041 -1.3944
 2205SOL     OW10976   2.849   6.009   2.878 -0.1440 -0.3353  0.1876
 2205SOL    HW110977   2.776   5.977   2.824  1.9133 -3.2273 -1.1067
 2205SOL    HW210978   2.912   6.044   2.815  0.7594 -0.4148  1.0346
 2206SOL     OW10979   5.614   7.936   0.783 -0.0393  0.1417  0.6218
 2206SOL    HW110980   5.583   8.013   0.736  0.4041 -0.9287 -1.5204
 2206SOL    HW210981   5.553   7.926   0.856  0.0919  2.6838  1.1963
 2207SOL     OW10982   5.758   8.260   5.801  0.3560 -0.3195 -0.6470
 2207SOL    HW110983   5.808   8.290   5.877  0.1737 -1.2539 -0.1469
 2207SOL    HW210984   5.690   8.327   5.790  0.0995 -0.4024  0.3015
 2208SOL     OW10985   0.136  10.450   9.559  0.9836 -0.1792 -0.0932
 2208SOL    HW110986   0.103  10.493   9.480 -0.1490 -0.8929 -0.0183
 2208SOL    HW210987   0.107  10.360   9.552  0.1978 -0.0896  1.5120
 2209SOL     OW10988   3.994   7.882  10.522 -0.8824  1.0923 -0.0359
 2209SOL    HW110989   3.968   7.790  10.517  1.0089  0.5196 -0.4016
 2209SOL    HW210990   3.998   7.901  10.615  1.2636 -0.0662  0.1961
 2210SOL     OW10991   8.620   4.929   6.458 -0.6797  0.0409 -0.2874
 2210SOL    HW110992   8.588   4.981   6.531  0.3430  1.0105 -0.5072
 2210SOL    HW210993   8.540   4.895   6.416 -1.2664 -1.5251  1.9253
 2211SOL     OW10994   8.129   8.321   1.898 -0.0984 -0.0163 -0.0509
 2211SOL    HW110995   8.157   8.408   1.871 -0.3100  0.1207  0.1663
 2211SOL    HW210996   8.051   8.302   1.846  0.2794 -0.3187 -0.5159
 2212SOL     OW10997   9.171  10.954   5.975  0.3329  0.3814  0.3299
 2212SOL    HW110998   9.090  10.928   6.018 -0.0258 -0.2958 -0.7123
 2212SOL    HW210999   9.175  11.049   5.985  0.5799  0.2008  2.3633
 2213SOL     OW11000   4.360   6.848   1.604  0.2514  0.1088 -0.0597
 2213SOL    HW111001   4.272   6.881   1.619  0.5225  0.6977  0.3022
 2213SOL    HW211002   4.384   6.807   1.687 -0.1817 -1.2714 -0.5881
 2214SOL     OW11003   8.673   1.745   2.307  0.0924  0.6238 -0.9042
 2214SOL    HW111004   8.708   1.791   2.384  2.6100 -2.9280  0.3388
 2214SOL    HW211005   8.578   1.752   2.316  0.3451  2.1675  1.3137
 2215SOL     OW11006   6.243   3.671   4.535  0.0843  0.4346 -0.2091
 2215SOL    HW111007   6.200   3.748   4.498  0.9763  1.0355 -0.0231
 2215SOL    HW211008   6.261   3.614   4.460  0.9333  1.1689 -0.5698
 2216SOL     OW11009   3.594   9.521   3.651  0.0236  0.2766  0.0198
 2216SOL    HW111010   3.538   9.538   3.727  0.8635  0.4630  0.6065
 2216SOL    HW211011   3.629   9.433   3.667  2.2861  1.3139  1.2184
 2217SOL     OW11012   6.408   3.565   5.091  0.4354  0.1454  0.0999
 2217SOL    HW111013   6.433   3.537   5.003 -0.4038 -0.2718 -0.0210
 2217SOL    HW211014   6.449   3.651   5.101 -2.0878  1.7663 -1.9984
 2218SOL     OW11015   3.227   7.846   4.856  0.6912 -0.2844  0.4171
 2218SOL    HW111016   3.299   7.905   4.830  0.5045 -0.2867 -0.1075
 2218SOL    HW211017   3.172   7.840   4.778 -0.8151  1.0699  1.3231
 2219SOL     OW11018   1.570   6.537   0.497 -0.6431 -0.5346 -0.1288
 2219SOL    HW111019   1.586   6.501   0.410  0.3323  2.5780 -1.3397
 2219SOL    HW211020   1.505   6.606   0.483 -1.4944 -0.8658  1.8689
 2220SOL     OW11021   0.351   0.112  10.013  0.7492 -0.2684 -0.3276
 2220SOL    HW111022   0.285   0.113  10.082  0.9813 -0.6766 -0.0942
 2220SOL    HW211023   0.304   0.086   9.934  0.8399 -1.7533  0.0734
 2221SOL     OW11024   4.863  10.384   6.932  0.1323 -0.5936  0.0845
 2221SOL    HW111025   4.877  10.291   6.946 -0.9295 -1.2164 -2.5132
 2221SOL    HW211026   4.770  10.392   6.911 -0.0478  1.2360  1.3215
 2222SOL     OW11027   9.502   8.418   6.002  0.5320  0.7231 -0.4345
 2222SOL    HW111028   9.580   8.460   5.965  2.0133 -2.2324 -0.9882
 2222SOL    HW211029   9.460   8.377   5.926 -0.2893  0.3577  0.2162
 2223SOL     OW11030  10.025   4.324   5.722  0.8111  0.3425 -0.5313
 2223SOL    HW111031   9.959   4.374   5.674  1.9820  2.4883 -0.0280
 2223SOL    HW211032   9.981   4.294   5.801  0.0076  0.2980 -0.9854
 2224SOL     OW11033   3.136   8.469   1.434  0.5548  0.2488 -0.6003
 2224SOL    HW111034   3.129   8.373   1.440  1.9708  0.1311 -0.4414
 2224SOL    HW211035   3.163   8.485   1.343  1.2443  0.4220 -0.3695
 2225SOL     OW11036   3.286   4.593   0.258  0.5745  0.7613 -0.0341
 2225SOL    HW111037   3.356   4.648   0.294 -0.5797  2.1069  0.2056
 2225SOL    HW211038   3.297   4.509   0.303  2.6490  0.5993 -0.7334
 2226SOL     OW11039   1.156   5.401   9.330 -0.8424  0.0688  0.9174
 2226SOL    HW111040   1.075   5.350   9.327 -1.5203  1.0819  1.3677
 2226SOL    HW211041   1.159   5.446   9.246  1.0809 -2.5825 -0.5961
 2227SOL     OW11042   8.958   7.595  10.885  0.2437  0.3232 -0.4087
 2227SOL    HW111043   8.963   7.682  10.925  0.6567  0.1519 -0.0794
 2227SOL    HW211044   8.998   7.606  10.799 -0.4840  0.6518 -0.7119
 2228SOL     OW11045   2.282   2.976  10.217 -0.2422  0.3962 -0.6425
 2228SOL    HW111046   2.367   3.014  10.241 -0.5405  0.5360  0.2368
 2228SOL    HW211047   2.303   2.912  10.149  0.8179 -0.8657  0.7859
 2229SOL     OW11048   4.066   7.809   8.568 -0.4679  0.8023 -0.3527
 2229SOL    HW111049   4.075   7.846   8.480  0.6530  1.6023  0.0646
 2229SOL    HW211050   4.039   7.883   8.622  1.2456  0.9364  0.3946
 2230SOL     OW11051   7.990   9.742   4.693  0.2404 -0.2027 -0.2026
 2230SOL    HW111052   7.971   9.705   4.606  0.7068  0.2741 -0.5139
 2230SOL    HW211053   8.075   9.706   4.716 -0.3678 -1.2045  0.5594
 2231SOL     OW11054   5.516   9.807   7.869 -0.3870  0.1981 -0.5533
 2231SOL    HW111055   5.460   9.741   7.828  1.2856 -1.3896 -0.4405
 2231SOL    HW211056   5.604   9.785   7.838  0.7222  0.0656  2.3701
 2232SOL     OW11057   0.670   6.875   5.401  0.2116  0.2377 -0.1955
 2232SOL    HW111058   0.578   6.854   5.382  0.3259  0.5772 -1.1456
 2232SOL    HW211059   0.714   6.790   5.403  0.0229  0.1304 -0.5485
 2233SOL     OW11060  11.014  10.857   9.086 -0.2273 -0.5046  0.0974
 2233SOL    HW111061  10.968  10.897   9.012  0.4614  0.2096  0.0507
 2233SOL    HW211062  11.096  10.824   9.048  1.6202  2.5944  1.0449
 2234SOL     OW11063   7.769   7.451   9.250  0.4850 -0.3305 -0.1386
 2234SOL    HW111064   7.684   7.447   9.294  0.9888 -0.3347  0.8639
 2234SOL    HW211065   7.815   7.372   9.280  0.8258 -0.3561 -0.7128
 2235SOL     OW11066   8.615   8.602  11.030 -0.4937  0.5075  0.1419
 2235SOL    HW111067   8.571   8.644  10.955  1.1206  0.4662 -0.8840
 2235SOL    HW211068   8.623   8.510  11.004  1.2372  0.7351 -0.2671
 2236SOL     OW11069  10.673   3.937   1.561  0.1235  0.3132 -0.0624
 2236SOL    HW111070  10.719   4.017   1.588 -0.5736  1.0626 -1.0531
 2236SOL    HW211071  10.635   3.958   1.476 -0.5389 -0.8997 -0.0902
 2237SOL     OW11072   0.374   2.531   0.505 -0.0888  0.0203  0.2264
 2237SOL    HW111073   0.451   2.587   0.500  0.3595 -0.6258 -0.1847
 2237SOL    HW211074   0.372   2.484   0.422  0.7836 -2.1888  1.3593
 2238SOL     OW11075   2.823   1.810   4.792 -0.3119  0.2610 -0.0352
 2238SOL    HW111076   2.742   1.853   4.768 -0.9604  0.2753  2.0170
 2238SOL    HW211077   2.890   1.879   4.787 -0.3667  0.2246 -1.8185
 2239SOL     OW11078   6.656   3.949   5.915  1.0059  0.1955  0.0502
 2239SOL    HW111079   6.657   3.875   5.976 -1.0505  0.2168  0.1721
 2239SOL    HW211080   6.592   3.924   5.848 -1.4466  2.6844  1.2584
 2240SOL     OW11081   8.004   7.805   0.995  0.7123  0.4175  0.0760
 2240SOL    HW111082   8.098   7.787   1.008  1.0256  0.7761 -1.4728
 2240SOL    HW211083   7.995   7.898   1.015  0.4498  0.1356  1.3300
 2241SOL     OW11084   9.089   8.815  10.714  0.0912 -0.5870  0.3805
 2241SOL    HW111085   9.052   8.863  10.641  1.3696  0.3045  0.2805
 2241SOL    HW211086   9.086   8.723  10.686  0.2086 -0.2945 -0.6276
 2242SOL     OW11087   1.794   3.140   5.362  0.7447 -0.3912  0.0061
 2242SOL    HW111088   1.833   3.135   5.275  1.1989 -1.9635  0.2705
 2242SOL    HW211089   1.843   3.077   5.414 -0.1217 -0.1440  1.1602
 2243SOL     OW11090   2.612  10.183   6.983 -0.3699 -0.4498  0.0359
 2243SOL    HW111091   2.581  10.241   7.052 -0.0376  1.2840 -1.2054
 2243SOL    HW211092   2.669  10.238   6.928 -1.2533 -1.5154 -2.0862
 2244SOL     OW11093   8.945   4.499   1.147  0.4902 -0.1224  0.1406
 2244SOL    HW111094   8.896   4.580   1.136 -2.0369 -1.4234  1.0721
 2244SOL    HW211095   8.976   4.478   1.058 -4.2601 -1.3040 -1.5079
 2245SOL     OW11096   8.311   4.812   4.808  0.1769 -0.0375  0.5133
 2245SOL    HW111097   8.340   4.804   4.899  0.8314 -2.0978  0.1701
 2245SOL    HW211098   8.388   4.845   4.762  0.7293 -1.5391  0.3000
 2246SOL     OW11099   0.332   9.998   0.488 -0.0293 -0.7230  0.5693
 2246SOL    HW111100   0.250   9.965   0.452  0.8186 -0.2506 -2.0278
 2246SOL    HW211101   0.387   9.921   0.499 -0.7405 -1.0380  2.2946
 2247SOL     OW11102   4.122   2.851   9.415  0.4841  0.3933  0.2001
 2247SOL    HW111103   4.152   2.858   9.505  0.3280  0.1499  0.2719
 2247SOL    HW211104   4.063   2.925   9.403  0.6666  0.5434  0.2353
 2248SOL     OW11105   9.312   7.325   0.475 -0.1613 -0.8299 -0.6490
 2248SOL    HW111106   9.268   7.384   0.414  0.5781 -1.3705 -1.7461
 2248SOL    HW211107   9.357   7.262   0.419  0.5315 -1.3590  0.4636
 2249SOL     OW11108   7.512   3.075   1.886  0.0469  0.3382  0.7188
 2249SOL    HW111109   7.553   3.038   1.809 -0.1658  1.7970 -0.1412
 2249SOL    HW211110   7.432   3.025   1.898  0.2309 -0.0910  0.1659
 2250SOL     OW11111   5.688   2.694  10.861  0.1057  0.0278  0.1369
 2250SOL    HW111112   5.684   2.631  10.788 -0.3084  0.2069 -0.0018
 2250SOL    HW211113   5.650   2.647  10.935  1.8863 -0.6799  0.6514
 2251SOL     OW11114   2.435   1.158   5.615  0.3931 -0.0936 -0.1862
 2251SOL    HW111115   2.363   1.220   5.623 -0.7055 -1.3160 -0.2049
 2251SOL    HW211116   2.433   1.108   5.696  0.1353 -1.2556 -0.8893
 2252SOL     OW11117   4.294   3.897   9.285  0.2979 -0.2153  0.1114
 2252SOL    HW111118   4.297   3.946   9.367 -0.5657 -0.2756  0.1938
 2252SOL    HW211119   4.322   3.960   9.218 -1.1291  0.5222  0.1676
 2253SOL     OW11120   1.650   8.112   8.526  0.4642  0.1672  0.0927
 2253SOL    HW111121   1.607   8.102   8.441  1.0297  0.9342 -0.2865
 2253SOL    HW211122   1.743   8.101   8.508  0.4771 -1.2050  0.8689
 2254SOL     OW11123   0.946   8.091   8.878 -0.1796  0.1575  0.5042
 2254SOL    HW111124   0.939   8.150   8.953  0.8395 -0.1670  0.8703
 2254SOL    HW211125   1.040   8.079   8.865 -0.3533 -0.4825 -0.2824
 2255SOL     OW11126   2.999   7.186   9.499 -0.1044 -0.3257 -0.7120
 2255SOL    HW111127   2.972   7.144   9.581  1.0455 -0.8259 -0.5757
 2255SOL    HW211128   3.048   7.118   9.453 -0.3181  0.1104 -1.5998
 2256SOL     OW11129   1.149   0.294   1.623 -0.2147 -0.0775 -0.2780
 2256SOL    HW111130   1.212   0.243   1.675 -0.3419  0.7675  0.7448
 2256SOL    HW211131   1.173   0.276   1.532  0.5982 -0.8861  0.0744
 2257SOL     OW11132   8.314   8.354   4.090  0.2895 -0.1387  0.5613
 2257SOL    HW111133   8.253   8.287   4.122 -0.6187  1.3728  2.2441
 2257SOL    HW211134   8.401   8.318   4.107 -0.1738 -1.1132  0.9431
 2258SOL     OW11135   0.293   4.021  10.525  0.3429  0.1886  0.0619
 2258SOL    HW111136   0.235   3.953  10.560  0.7420  0.2236  0.7951
 2258SOL    HW211137   0.316   3.988  10.437  0.0011 -0.2998  0.1468
 2259SOL     OW11138   9.537   1.710  10.029 -0.4325  0.0822  0.1686
 2259SOL    HW111139   9.525   1.791   9.980  0.1011  0.6780  0.9995
 2259SOL    HW211140   9.612   1.667   9.987 -1.4402 -0.5889 -1.0300
 2260SOL     OW11141   7.031   5.896   8.979  0.3183  0.2208  0.5311
 2260SOL    HW111142   6.993   5.882   8.892 -0.6266  0.9378  0.8153
 2260SOL    HW211143   7.097   5.964   8.965 -0.4432  0.9660  0.5241
 2261SOL     OW11144   1.876  10.732   8.514 -0.0307 -0.2663  0.5830
 2261SOL    HW111145   1.894  10.696   8.427  0.7830 -0.4165  0.7995
 2261SOL    HW211146   1.949  10.701   8.567  0.4011  1.2680  0.9091
 2262SOL     OW11147   3.633   8.095   4.598 -0.0573  0.5314 -0.0320
 2262SOL    HW111148   3.596   8.095   4.509 -1.4532 -1.6712  0.4827
 2262SOL    HW211149   3.677   8.011   4.606 -2.4672 -0.6266  2.2935
 2263SOL     OW11150   9.972   7.870  10.701 -0.0735 -0.0595 -0.4797
 2263SOL    HW111151   9.958   7.797  10.641  1.5575 -0.1789 -0.7591
 2263SOL    HW211152   9.884   7.903  10.720 -0.7431 -1.2605 -1.3756
 2264SOL     OW11153   2.604   1.689   8.619 -0.7243 -0.1059  0.0556
 2264SOL    HW111154   2.636   1.759   8.676 -0.1532  0.0519 -0.4466
 2264SOL    HW211155   2.559   1.628   8.678  1.0068 -0.6516  0.8843
 2265SOL     OW11156  11.000   0.326   6.647  0.0046 -0.1655 -0.2828
 2265SOL    HW111157  10.939   0.371   6.589  1.0766  2.0758  0.2089
 2265SOL    HW211158  11.017   0.242   6.605  1.0081  1.4690 -3.4388
 2266SOL     OW11159   8.569   4.653   3.891 -0.5599 -0.8583  0.6885
 2266SOL    HW111160   8.607   4.639   3.804  0.3036 -0.2274  0.9415
 2266SOL    HW211161   8.479   4.679   3.874 -0.9852 -2.5631  0.0655
 2267SOL     OW11162   7.275   5.837   5.308  0.4776 -0.4375  0.0577
 2267SOL    HW111163   7.357   5.788   5.310  0.6289 -0.2063 -0.3409
 2267SOL    HW211164   7.248   5.835   5.216  0.6814  0.5421 -0.0334
 2268SOL     OW11165   3.024   4.795   7.725  0.1372  0.6610  0.0118
 2268SOL    HW111166   2.949   4.738   7.710  1.2015 -0.7241 -0.3181
 2268SOL    HW211167   3.025   4.810   7.819 -1.5035  2.1216 -0.1535
 2269SOL     OW11168   1.008   5.771   1.660 -0.0592  0.0145  0.0613
 2269SOL    HW111169   0.932   5.798   1.711 -1.2744  0.7214 -2.0052
 2269SOL    HW211170   1.057   5.713   1.719 -3.6676 -2.9016  0.5936
 2270SOL     OW11171   6.758   4.971   5.825 -0.4379 -0.0357  0.0933
 2270SOL    HW111172   6.850   4.959   5.846 -0.2888 -0.7956 -0.9506
 2270SOL    HW211173   6.755   5.051   5.773  0.0528 -1.4509 -2.2646
 2271SOL     OW11174   2.425   9.555   2.489 -0.3945  0.0989 -0.3290
 2271SOL    HW111175   2.347   9.499   2.491 -1.2802  1.2888 -0.6424
 2271SOL    HW211176   2.393   9.640   2.460  1.0699  0.5574 -0.6971
 2272SOL     OW11177  10.223   4.320   8.616 -0.4283  0.3997  0.7062
 2272SOL    HW111178  10.214   4.342   8.524  1.3097  0.3148  0.4869
 2272SOL    HW211179  10.169   4.242   8.627  0.4716 -0.4437 -0.5922
 2273SOL     OW11180   2.236  10.764   3.720 -0.5693  0.0282 -0.2492
 2273SOL    HW111181   2.268  10.835   3.664 -1.8137  1.6098  0.9615
 2273SOL    HW211182   2.255  10.793   3.809 -0.6097 -1.4416  0.2726
 2274SOL     OW11183   7.322   5.594   8.848 -0.0092 -0.0481  0.4666
 2274SOL    HW111184   7.251   5.610   8.786  0.2124  0.6259  0.3772
 2274SOL    HW211185   7.280   5.602   8.934 -0.3987 -1.3666  0.4216
 2275SOL     OW11186   0.795   1.955   5.102  0.3459  0.3670 -0.5738
 2275SOL    HW111187   0.747   1.872   5.101  0.9751 -0.0247  0.5254
 2275SOL    HW211188   0.773   1.995   5.186  1.3007  0.5543 -0.3988
 2276SOL     OW11189   8.847   6.977   8.834 -0.5757  0.1359  0.1548
 2276SOL    HW111190   8.909   6.962   8.906 -0.8034 -2.1289 -0.0480
 2276SOL    HW211191   8.764   6.995   8.878 -0.4642 -0.0777  0.4594
 2277SOL     OW11192  10.564   5.179   1.905  0.1536 -0.0217  0.3406
 2277SOL    HW111193  10.505   5.116   1.945 -1.2003 -0.6501 -2.3974
 2277SOL    HW211194  10.646   5.170   1.954 -1.1554 -1.1342  2.4593
 2278SOL     OW11195   3.939   6.804   3.785  0.0551 -0.2054 -0.1179
 2278SOL    HW111196   4.032   6.822   3.772 -0.4557  2.0794 -1.2511
 2278SOL    HW211197   3.936   6.729   3.844  2.6110 -1.2315 -1.1681
 2279SOL     OW11198   7.025   1.991   6.517  0.1123  0.2197  0.5865
 2279SOL    HW111199   7.006   1.951   6.432  1.1364  1.1787 -0.1303
 2279SOL    HW211200   7.055   1.919   6.572  2.2999 -0.0090 -0.7887
 2280SOL     OW11201   5.287   7.357   8.726  0.1229 -0.4557 -0.4455
 2280SOL    HW111202   5.301   7.310   8.644  2.0849 -0.5940 -0.0675
 2280SOL    HW211203   5.303   7.449   8.704 -0.1935 -0.3892 -0.4028
 2281SOL     OW11204   3.932   2.625   8.649 -0.2312 -0.4045 -0.4174
 2281SOL    HW111205   3.931   2.553   8.713 -1.6100  0.9322  1.1809
 2281SOL    HW211206   3.840   2.645   8.635  0.1086  1.9771  0.3236
 2282SOL     OW11207  10.781   4.131   6.601 -0.2568 -0.0372  0.6951
 2282SOL    HW111208  10.711   4.091   6.651 -0.3254 -1.2875 -0.3494
 2282SOL    HW211209  10.823   4.058   6.555 -0.0832  1.0265 -0.9112
 2283SOL     OW11210   9.965   8.375  10.346 -0.4423 -0.2708  0.3844
 2283SOL    HW111211  10.057   8.373  10.320 -1.2729  1.6256 -3.4298
 2283SOL    HW211212   9.951   8.463  10.379 -1.7243  1.4574 -3.9694
 2284SOL     OW11213   6.251  10.935   2.785  0.2077  0.2244  0.2617
 2284SOL    HW111214   6.297  10.933   2.869  0.2529 -0.0318  0.2333
 2284SOL    HW211215   6.320  10.928   2.720  0.1631  0.2982  0.2072
 2285SOL     OW11216   8.432   9.554   4.450 -0.2372  0.3061 -0.3374
 2285SOL    HW111217   8.477   9.637   4.464 -0.2304  0.0520  1.2827
 2285SOL    HW211218   8.436   9.509   4.534  1.7572 -2.3546 -1.6702
 2286SOL     OW11219   2.887   9.241   0.113 -0.0361  0.1492  0.0772
 2286SOL    HW111220   2.970   9.272   0.148  0.2742  0.0172 -0.5312
 2286SOL    HW211221   2.911   9.173   0.051 -0.4956  1.0444 -1.1339
 2287SOL     OW11222   6.140   9.069   0.832 -0.1746 -0.7441 -0.1739
 2287SOL    HW111223   6.201   9.003   0.800  1.4192  0.1759  0.8719
 2287SOL    HW211224   6.078   9.021   0.887  0.0692 -1.5646 -0.6108
 2288SOL     OW11225   4.413   9.115  10.094 -0.2143 -0.1509  0.5876
 2288SOL    HW111226   4.458   9.167  10.028  0.6349 -1.6770 -0.0903
 2288SOL    HW211227   4.443   9.026  10.079 -2.3434 -1.0225  1.0837
 2289SOL     OW11228   6.875   1.692  10.392 -0.0880  0.6560  0.1022
 2289SOL    HW111229   6.865   1.597  10.393 -0.7556  0.7231  0.1528
 2289SOL    HW211230   6.916   1.711  10.307  1.3498  0.2106  0.6651
 2290SOL     OW11231   8.696   2.795   9.121 -0.3352  0.3858  0.2451
 2290SOL    HW111232   8.742   2.716   9.147  0.3073  1.0910  1.3176
 2290SOL    HW211233   8.757   2.840   9.063  0.4518  1.3930  1.7850
 2291SOL     OW11234   4.945   2.965   8.915 -0.1398 -0.3301 -0.4985
 2291SOL    HW111235   4.953   2.879   8.956  0.3502 -0.7473 -1.4231
 2291SOL    HW211236   4.854   2.991   8.931 -0.4590 -1.2764 -0.6824
 2292SOL     OW11237   4.663   8.180   9.459  0.2369 -0.0156  0.0055
 2292SOL    HW111238   4.714   8.233   9.521  0.0262 -0.9016  0.9538
 2292SOL    HW211239   4.641   8.241   9.389  0.7516  0.9308  0.6397
 2293SOL     OW11240   6.590   8.572   7.279 -0.0039 -0.4167  0.4214
 2293SOL    HW111241   6.538   8.522   7.217  0.2463  2.4716 -2.4281
 2293SOL    HW211242   6.527   8.627   7.325  0.0560 -0.6468  0.7789
 2294SOL     OW11243   0.055   8.101   4.723 -0.3564 -0.1400  0.0708
 2294SOL    HW111244   0.095   8.078   4.807  0.6199  0.5332 -0.1935
 2294SOL    HW211245   0.102   8.048   4.659  1.1521  1.6764 -0.4108
 2295SOL     OW11246   1.404   8.388   9.305  0.3974 -0.2885  0.6774
 2295SOL    HW111247   1.329   8.366   9.361  0.8605 -0.1632  1.3584
 2295SOL    HW211248   1.468   8.319   9.322  1.4276  0.9135  2.0134
 2296SOL     OW11249   2.554   3.768   3.735  0.1599 -0.6449 -0.2224
 2296SOL    HW111250   2.617   3.830   3.771 -2.8749  2.0031  1.0926
 2296SOL    HW211251   2.525   3.808   3.653 -0.8889 -0.9948 -0.0397
 2297SOL     OW11252   7.246   7.043   7.278  0.3254  0.4179 -0.3735
 2297SOL    HW111253   7.304   7.095   7.334  1.8904 -0.6076 -0.9706
 2297SOL    HW211254   7.275   7.062   7.189 -0.1336 -0.2626 -0.6753
 2298SOL     OW11255   5.142   2.461   6.005  0.5184 -0.3917 -0.5496
 2298SOL    HW111256   5.120   2.497   6.091  0.4211 -0.0833 -0.6995
 2298SOL    HW211257   5.078   2.501   5.946 -0.2844 -1.6270 -0.5615
 2299SOL     OW11258   1.847   9.604   2.495 -0.3923 -0.7912  0.3522
 2299SOL    HW111259   1.914   9.672   2.492  0.5130 -1.6924 -1.3149
 2299SOL    HW211260   1.875   9.546   2.565  0.7187 -1.2658 -0.4536
 2300SOL     OW11261   1.714   4.761   6.282  0.1426  0.5391  0.1607
 2300SOL    HW111262   1.803   4.726   6.278 -0.1238 -0.0362 -0.9419
 2300SOL    HW211263   1.725   4.852   6.310  0.9904  0.1926  1.0175
 2301SOL     OW11264  10.486   7.962   0.488  0.4629 -0.7425 -0.5862
 2301SOL    HW111265  10.563   7.931   0.536 -1.7580 -0.5214  3.5118
 2301SOL    HW211266  10.478   8.054   0.513 -1.0966 -0.7482 -1.0045
 2302SOL     OW11267   7.683   7.245  10.530  0.6199 -0.1569  0.3992
 2302SOL    HW111268   7.678   7.156  10.566  0.8817  0.0358  0.9285
 2302SOL    HW211269   7.593   7.267  10.507  0.6820 -0.9609 -0.7529
 2303SOL     OW11270   4.332   5.521   4.902 -0.5615 -0.1962  0.5248
 2303SOL    HW111271   4.339   5.528   4.807  1.8509 -1.6318  0.4862
 2303SOL    HW211272   4.262   5.458   4.917 -0.8635 -0.0656 -0.2921
 2304SOL     OW11273   4.460   3.776   8.912 -0.5442  0.5862 -0.0612
 2304SOL    HW111274   4.513   3.841   8.959 -0.4668  0.2376  0.3452
 2304SOL    HW211275   4.424   3.823   8.837 -0.1540  0.9865  0.0031
 2305SOL     OW11276   2.256   2.395   6.759  0.4582 -0.5651  0.3107
 2305SOL    HW111277   2.319   2.416   6.828 -0.4161  1.4456  0.5858
 2305SOL    HW211278   2.194   2.336   6.800  0.0408  0.4763  1.2363
 2306SOL     OW11279   5.003   1.297   0.906 -0.0288  0.1613 -0.1982
 2306SOL    HW111280   5.029   1.304   0.998 -0.6928 -0.0775  0.0184
 2306SOL    HW211281   4.914   1.261   0.910 -1.6965  3.8022 -0.7705
 2307SOL     OW11282   3.084   3.263   5.026 -0.4410 -0.3708  0.2088
 2307SOL    HW111283   3.137   3.292   4.952 -1.4033  2.6516  0.5567
 2307SOL    HW211284   2.995   3.258   4.991 -0.6984 -0.2409  0.8239
 2308SOL     OW11285  10.164   9.978   8.497  0.2213  0.2690 -0.2318
 2308SOL    HW111286  10.160   9.963   8.592  1.1388 -0.9917 -0.3713
 2308SOL    HW211287  10.098   9.920   8.460  0.0825  0.5286 -0.3958
 2309SOL     OW11288   7.489  10.742   5.085 -0.6262  0.2611  0.4213
 2309SOL    HW111289   7.455  10.664   5.128  0.1634  0.2203  1.0029
 2309SOL    HW211290   7.574  10.758   5.127 -0.5685  1.1676 -0.0013
 2310SOL     OW11291   9.574   8.018   1.109  0.2272  0.3690 -0.3667
 2310SOL    HW111292   9.660   7.976   1.111 -0.5315 -1.4661 -2.4418
 2310SOL    HW211293   9.572   8.065   1.026  0.3805  3.2304  1.1161
 2311SOL     OW11294   7.383   8.509   2.475 -0.3084  0.5999  0.4080
 2311SOL    HW111295   7.335   8.592   2.480 -1.6514 -0.1742  0.9931
 2311SOL    HW211296   7.445   8.521   2.403 -1.7097  1.5026 -0.7007
 2312SOL     OW11297   6.173   7.589   1.752 -0.1152  0.2570 -0.1543
 2312SOL    HW111298   6.267   7.590   1.769  0.1858  0.5909 -1.6658
 2312SOL    HW211299   6.149   7.681   1.748 -0.5735  0.1705  0.5212
 2313SOL     OW11300   3.248   3.434   3.291  0.0905  0.2813 -0.0735
 2313SOL    HW111301   3.198   3.486   3.353 -0.9213 -1.6504  0.8242
 2313SOL    HW211302   3.239   3.344   3.322  0.0891 -0.7037 -2.6491
 2314SOL     OW11303  10.641   9.449   1.703  0.0661 -0.2829 -0.1419
 2314SOL    HW111304  10.719   9.466   1.754  2.1747  1.7673 -3.6354
 2314SOL    HW211305  10.647   9.355   1.682  2.0125 -0.0589 -0.8252
 2315SOL     OW11306   8.846   3.138  10.916  0.4829 -0.0341 -0.0175
 2315SOL    HW111307   8.812   3.207  10.974  0.2624 -0.3954  0.2911
 2315SOL    HW211308   8.855   3.180  10.831 -0.7651  0.0723 -0.1127
 2316SOL     OW11309   1.373   2.803   7.562  0.0679  0.0248 -0.1977
 2316SOL    HW111310   1.299   2.765   7.609  1.5201 -1.0903  1.3336
 2316SOL    HW211311   1.336   2.837   7.481 -2.0262 -0.8651  0.3319
 2317SOL     OW11312   1.373  11.101   2.329  0.0729 -0.3589 -0.2716
 2317SOL    HW111313   1.387  11.019   2.376  2.2069  0.0569 -0.0644
 2317SOL    HW211314   1.356  11.075   2.239  0.2795 -1.0504 -0.1152
 2318SOL     OW11315   1.724   4.829   8.216 -0.0349 -0.2453 -0.3100
 2318SOL    HW111316   1.785   4.880   8.162 -1.0782  0.8086 -0.5241
 2318SOL    HW211317   1.638   4.847   8.179 -0.3915 -2.9432 -1.0048
 2319SOL     OW11318   5.231   2.580   1.590 -0.1798  0.1826  0.5707
 2319SOL    HW111319   5.262   2.667   1.565  0.3491 -0.5681 -1.6688
 2319SOL    HW211320   5.246   2.526   1.512  0.9444 -2.3068  2.3690
 2320SOL     OW11321   9.160  10.495   4.559  0.2333  0.2799 -0.0853
 2320SOL    HW111322   9.204  10.439   4.495 -1.6505 -2.1516  0.5801
 2320SOL    HW211323   9.111  10.557   4.505  1.9247  0.9971 -0.8654
 2321SOL     OW11324  10.975   4.370   9.180 -0.3235 -0.1182  0.0579
 2321SOL    HW111325  11.021   4.425   9.244 -0.7579  0.8776 -0.4524
 2321SOL    HW211326  10.927   4.306   9.233  0.7121 -0.4309  0.6407
 2322SOL     OW11327   1.977   2.742   2.428 -0.3314  0.2109 -0.3090
 2322SOL    HW111328   1.906   2.729   2.365 -0.6705  1.7016 -0.2570
 2322SOL    HW211329   1.934   2.771   2.508  0.1602 -1.0528  0.4500
 2323SOL     OW11330   6.705   2.802   3.632  0.4017 -0.2838  0.2757
 2323SOL    HW111331   6.670   2.826   3.546 -0.9824 -2.3821  0.1771
 2323SOL    HW211332   6.729   2.886   3.672 -0.6707  0.9035 -1.4098
 2324SOL     OW11333   1.000   1.987   6.911 -0.0435 -0.1974  0.0113
 2324SOL    HW111334   1.002   2.044   6.834  4.5063  2.3226  1.6044
 2324SOL    HW211335   1.055   1.913   6.888  0.0185 -0.2400  0.2931
 2325SOL     OW11336   6.466   1.110   2.723  0.2932  0.5368 -0.2352
 2325SOL    HW111337   6.497   1.052   2.793  0.6336  1.6317  0.5493
 2325SOL    HW211338   6.546   1.139   2.679  0.1132  0.2871 -0.7272
 2326SOL     OW11339   1.684   0.482   4.928 -0.4748 -0.3272 -0.2291
 2326SOL    HW111340   1.622   0.540   4.885 -1.1996 -0.0387  1.1488
 2326SOL    HW211341   1.646   0.465   5.014  0.2816 -1.9192 -0.1556
 2327SOL     OW11342   3.960   4.755   2.790 -0.5355  0.4465  0.7053
 2327SOL    HW111343   4.018   4.795   2.725  1.4565 -0.5517  1.7888
 2327SOL    HW211344   3.954   4.664   2.764 -0.0687  0.1331  1.6499
 2328SOL     OW11345   7.697   0.670   4.225  0.3334 -0.0455 -0.0095
 2328SOL    HW111346   7.692   0.668   4.320 -1.2742  1.3003 -0.0203
 2328SOL    HW211347   7.762   0.738   4.206 -0.0747  0.3859  0.1305
 2329SOL     OW11348   4.010   6.732   8.882  0.3897  0.0351  0.2982
 2329SOL    HW111349   4.045   6.793   8.948  0.7482 -0.8021  0.9079
 2329SOL    HW211350   3.916   6.746   8.884  0.1562 -1.3432  2.4518
 2330SOL     OW11351   6.445  10.536   4.227  0.6875 -0.0145  0.1740
 2330SOL    HW111352   6.492  10.619   4.224  0.0299  0.3745  0.5240
 2330SOL    HW211353   6.371  10.551   4.286 -2.2262  0.6045 -3.2896
 2331SOL     OW11354   7.311   8.572   4.154 -0.2950  0.2521  0.2215
 2331SOL    HW111355   7.381   8.614   4.203 -0.9932 -1.9357  3.4365
 2331SOL    HW211356   7.235   8.629   4.167  0.0724  0.9093 -0.4288
 2332SOL     OW11357   8.404   6.807   6.033  0.0327  0.3325  0.7268
 2332SOL    HW111358   8.344   6.827   6.104 -4.0484  1.9273 -2.7340
 2332SOL    HW211359   8.463   6.882   6.029 -0.9766  1.1701  1.2300
 2333SOL     OW11360   1.671   7.833   8.049 -0.3100  0.1556  0.4985
 2333SOL    HW111361   1.739   7.892   8.081  0.2576 -0.4782  0.4967
 2333SOL    HW211362   1.716   7.749   8.036 -1.2502 -0.5137  1.3108
 2334SOL     OW11363   8.627   2.949   6.684 -0.4102 -0.1975  0.1061
 2334SOL    HW111364   8.544   2.937   6.639 -1.8658 -1.3394  2.8284
 2334SOL    HW211365   8.630   2.878   6.748  0.7973  2.0284  2.7268
 2335SOL     OW11366   2.974   0.733   0.197  0.0170  0.6341 -0.0742
 2335SOL    HW111367   3.012   0.745   0.284 -1.1308 -2.6033  1.0369
 2335SOL    HW211368   3.043   0.688   0.147 -0.0456  0.6407 -0.1661
 2336SOL     OW11369   7.548   9.879  10.038 -0.3091  0.7653 -0.1346
 2336SOL    HW111370   7.497   9.914   9.965  0.2343  2.2138  0.1494
 2336SOL    HW211371   7.608   9.950  10.062 -0.0806  0.1192  1.3355
 2337SOL     OW11372   3.744   1.695   0.182  0.2070  0.3894  0.0237
 2337SOL    HW111373   3.800   1.721   0.109  0.2487  0.0848 -0.0546
 2337SOL    HW211374   3.693   1.621   0.148 -0.4828  0.8682 -0.0146
 2338SOL     OW11375   2.885   9.212   3.403 -0.4315 -0.4105  0.6889
 2338SOL    HW111376   2.839   9.171   3.330 -0.2965  0.3349  0.1766
 2338SOL    HW211377   2.849   9.169   3.481  0.6855 -2.4953  0.1372
 2339SOL     OW11378   0.234   3.870   8.398 -0.3825 -0.1173  0.3439
 2339SOL    HW111379   0.269   3.904   8.316 -0.2730 -3.3465 -1.0938
 2339SOL    HW211380   0.170   3.935   8.427 -0.8865  0.8325 -2.6499
 2340SOL     OW11381   8.565   2.619   0.290  0.3212  0.0017 -0.1977
 2340SOL    HW111382   8.507   2.686   0.256  1.9538  0.5489 -2.0943
 2340SOL    HW211383   8.548   2.542   0.235 -1.3021 -1.1220  1.7451
 2341SOL     OW11384  10.490   8.385   4.709 -0.1141 -0.6856  0.0004
 2341SOL    HW111385  10.485   8.343   4.795 -1.0902 -0.6629 -0.0240
 2341SOL    HW211386  10.545   8.462   4.722  1.9614 -2.0867 -0.0202
 2342SOL     OW11387   5.340   1.213   4.861 -0.3294 -0.3577  0.0927
 2342SOL    HW111388   5.370   1.157   4.933  0.7744  0.3798  0.2421
 2342SOL    HW211389   5.347   1.302   4.896  0.3374  0.0169 -0.9475
 2343SOL     OW11390   0.659   5.178   3.815 -0.6284 -0.0697  0.5084
 2343SOL    HW111391   0.617   5.138   3.738 -1.3817  0.1480  0.7973
 2343SOL    HW211392   0.598   5.247   3.842  0.3523  0.8680  0.3926
 2344SOL     OW11393   3.720   6.039   0.004  0.3588 -0.0717 -0.1174
 2344SOL    HW111394   3.722   5.989  -0.078  2.3461 -0.0122 -0.1570
 2344SOL    HW211395   3.742   6.128  -0.021  1.7899 -0.2042  0.5199
 2345SOL     OW11396   0.172   9.790   8.005 -0.6293  0.1218  0.5920
 2345SOL    HW111397   0.255   9.768   7.964 -0.7979  0.4443  0.0661
 2345SOL    HW211398   0.105   9.758   7.945 -0.8785  0.5279  0.6425
 2346SOL     OW11399   8.941   6.920   3.284  0.1232  0.5158  0.1894
 2346SOL    HW111400   8.989   6.840   3.263  0.6885  0.3722  1.8977
 2346SOL    HW211401   8.865   6.919   3.226  0.2698 -1.1041 -0.0005
 2347SOL     OW11402   0.366   2.653   9.902 -0.2440  0.3156  0.0862
 2347SOL    HW111403   0.352   2.658   9.997 -1.2907 -0.4597 -0.0029
 2347SOL    HW211404   0.283   2.684   9.864  0.9788  2.9707 -0.6471
 2348SOL     OW11405   0.501   6.187   3.957  0.2020 -0.3829  0.0538
 2348SOL    HW111406   0.416   6.230   3.966  0.6831  0.6314 -0.0933
 2348SOL    HW211407   0.519   6.189   3.863 -0.2025 -1.8050 -0.0788
 2349SOL     OW11408   6.398   0.533   7.369 -0.1181 -0.5029 -0.3777
 2349SOL    HW111409   6.365   0.518   7.280  1.4114 -0.4745 -0.9825
 2349SOL    HW211410   6.413   0.628   7.372 -0.6532 -0.4305  0.0986
 2350SOL     OW11411   4.607   9.134   0.887 -0.1664 -0.6141 -0.0349
 2350SOL    HW111412   4.520   9.173   0.889  0.2525  0.4429 -1.1178
 2350SOL    HW211413   4.659   9.195   0.834  1.1226 -1.4379  0.2490
 2351SOL     OW11414   8.208   5.739  10.004  0.3322  0.2550  0.3663
 2351SOL    HW111415   8.222   5.801  10.075  1.6087 -0.3138  0.6394
 2351SOL    HW211416   8.113   5.730   9.998  0.1681 -0.8086  3.0155
 2352SOL     OW11417   5.019   5.406   0.485  0.1761 -0.3253  0.0507
 2352SOL    HW111418   5.003   5.313   0.502 -0.0542 -0.1353  0.8890
 2352SOL    HW211419   5.103   5.407   0.438 -0.3218 -1.0236 -0.8820
 2353SOL     OW11420   9.166   3.127  10.277 -0.3301 -0.1816  0.4053
 2353SOL    HW111421   9.190   3.150  10.188  1.9382 -0.4788  0.8838
 2353SOL    HW211422   9.189   3.204  10.330  4.4311 -2.0536  1.5587
 2354SOL     OW11423  10.628   6.193   0.536  0.1098  0.4833  0.6667
 2354SOL    HW111424  10.598   6.240   0.458  2.1591 -1.1561 -1.2555
 2354SOL    HW211425  10.701   6.245   0.569  0.7577 -0.0205  0.0489
 2355SOL     OW11426  10.093   0.752   9.704  0.2181  0.0594  0.1793
 2355SOL    HW111427  10.164   0.699   9.667 -0.1563 -1.3124  1.3091
 2355SOL    HW211428  10.022   0.690   9.718 -1.2441  1.4188 -0.9535
 2356SOL     OW11429   0.811   6.464   7.845  0.0447 -0.3598 -0.9427
 2356SOL    HW111430   0.741   6.518   7.807 -1.1611 -0.0585  1.5523
 2356SOL    HW211431   0.807   6.382   7.795 -1.6255 -0.0852 -1.3226
 2357SOL     OW11432   4.693   5.506  10.199 -0.5953 -0.5642  0.3186
 2357SOL    HW111433   4.601   5.497  10.226 -0.1739  1.0693  2.6724
 2357SOL    HW211434   4.715   5.596  10.222  0.9717 -0.1222 -2.4754
 2358SOL     OW11435  10.323   6.011   9.828 -0.9781  0.3025  0.0317
 2358SOL    HW111436  10.261   5.965   9.885  0.9178 -1.2068  0.9985
 2358SOL    HW211437  10.390   5.945   9.809  0.6997  2.0631 -0.3932
 2359SOL     OW11438   0.917   9.756   3.892 -0.2867 -0.3051  0.4142
 2359SOL    HW111439   0.882   9.790   3.810 -1.9013 -2.5570  0.0966
 2359SOL    HW211440   1.007   9.732   3.871 -0.3037  0.2429 -0.3471
 2360SOL     OW11441  10.068   7.954  10.146  0.1280 -0.5031  0.6534
 2360SOL    HW111442  10.096   7.864  10.166 -0.3285 -0.6992  0.4089
 2360SOL    HW211443   9.974   7.947  10.131  0.0462  0.0609  0.8910
 2361SOL     OW11444  10.580   4.746   6.479 -0.2605 -0.1114 -0.1343
 2361SOL    HW111445  10.493   4.721   6.511  0.3594 -1.7822  0.3804
 2361SOL    HW211446  10.567   4.760   6.385 -1.0006 -0.8477 -0.1614
 2362SOL     OW11447   2.402   0.181   5.019 -0.1002 -0.3192 -0.3503
 2362SOL    HW111448   2.353   0.159   4.941 -1.9692 -3.1993  1.4641
 2362SOL    HW211449   2.336   0.201   5.085  1.3110 -0.2761  1.1350
 2363SOL     OW11450   6.581   1.682   3.973  0.3013  0.3912  0.0913
 2363SOL    HW111451   6.616   1.601   4.010 -1.0525 -0.7202 -0.9280
 2363SOL    HW211452   6.655   1.720   3.924  0.9753 -0.1818  0.6512
 2364SOL     OW11453  10.634   7.981   2.257  0.3192  0.0069 -0.3866
 2364SOL    HW111454  10.607   7.923   2.186 -0.5589 -0.3280  0.1973
 2364SOL    HW211455  10.551   8.008   2.298  0.8295 -0.1496  0.7714
 2365SOL     OW11456   4.901  10.973   8.966  0.4869 -0.0067 -0.0183
 2365SOL    HW111457   4.808  10.968   8.987  0.4571  1.3003  0.2335
 2365SOL    HW211458   4.940  11.017   9.042  1.1747  0.2496 -0.5149
 2366SOL     OW11459   0.758   9.651   9.844 -0.1637 -0.0826 -0.1723
 2366SOL    HW111460   0.667   9.632   9.869 -0.9839  1.4740 -1.6592
 2366SOL    HW211461   0.750   9.723   9.781  2.0395 -0.7027 -1.2653
 2367SOL     OW11462   2.861   9.719   7.589 -0.3686  0.6427 -0.0669
 2367SOL    HW111463   2.895   9.664   7.519 -0.8406  1.4767 -0.9927
 2367SOL    HW211464   2.798   9.664   7.636  0.8549 -0.3080  0.4849
 2368SOL     OW11465   7.305   6.871   7.947 -0.3405 -0.2728  0.8381
 2368SOL    HW111466   7.343   6.953   7.917 -1.0861 -0.4424 -0.6587
 2368SOL    HW211467   7.330   6.865   8.039  1.1272  0.8130  0.5416
 2369SOL     OW11468   0.492  10.838   8.503 -0.2555  0.2241  0.6741
 2369SOL    HW111469   0.564  10.885   8.462  0.7054  0.4097  2.4502
 2369SOL    HW211470   0.519  10.829   8.595 -1.5565 -1.5472  0.9420
 2370SOL     OW11471   4.684  10.983  10.232  0.2158 -0.3823  0.0355
 2370SOL    HW111472   4.719  11.068  10.206  1.1843 -0.7248  0.1635
 2370SOL    HW211473   4.620  11.002  10.300  0.2669  0.2532 -0.0921
 2371SOL     OW11474   1.271   7.089   0.262 -0.1791  0.0667  0.4048
 2371SOL    HW111475   1.218   7.024   0.216  0.6812  0.5364 -1.3188
 2371SOL    HW211476   1.207   7.146   0.305 -1.2983  1.6194 -2.9382
 2372SOL     OW11477   6.576   7.602   4.748 -0.0016  0.6824 -0.6187
 2372SOL    HW111478   6.632   7.538   4.791  0.8215  1.1265 -1.0170
 2372SOL    HW211479   6.608   7.606   4.658 -2.4256 -1.0984 -1.6787
 2373SOL     OW11480   7.764   2.426   7.373  0.0383 -0.0067 -0.4433
 2373SOL    HW111481   7.709   2.484   7.320 -0.3830 -1.1483 -1.2823
 2373SOL    HW211482   7.712   2.347   7.384  0.8471 -0.4654  0.1746
 2374SOL     OW11483   8.299   6.820   1.635 -0.3419 -0.4114 -0.0535
 2374SOL    HW111484   8.267   6.767   1.562  1.1311  0.7779 -1.6469
 2374SOL    HW211485   8.390   6.838   1.613  0.0184  0.3741  1.8898
 2375SOL     OW11486  11.075   4.557   4.085  0.8467 -0.5819  0.1423
 2375SOL    HW111487  11.139   4.594   4.025  0.2482  0.8672  0.3475
 2375SOL    HW211488  11.052   4.630   4.143 -0.3907 -1.2751  0.5589
 2376SOL     OW11489   4.058   5.084   5.014  0.0559 -0.5961 -0.5403
 2376SOL    HW111490   4.108   5.003   5.003 -2.1126 -2.1188  0.1858
 2376SOL    HW211491   4.095   5.124   5.093 -0.8630 -2.5462  0.9661
 2377SOL     OW11492   8.942   2.770  10.351  0.5899 -0.2026  0.0938
 2377SOL    HW111493   8.947   2.844  10.290  1.9454 -0.6667 -0.3943
 2377SOL    HW211494   8.898   2.806  10.428  0.5033  0.8959 -0.4435
 2378SOL     OW11495   3.684   3.195   1.605 -0.7593  0.9905  0.6506
 2378SOL    HW111496   3.628   3.214   1.679 -2.6082  1.9743 -0.9111
 2378SOL    HW211497   3.759   3.254   1.615 -0.8300  0.8936  1.8508
 2379SOL     OW11498   1.114   0.243   8.384  0.6554 -0.2494 -0.3469
 2379SOL    HW111499   1.078   0.285   8.462 -0.0524 -0.3398 -0.6144
 2379SOL    HW211500   1.037   0.218   8.333  1.0224 -2.0836 -0.0888
 2380SOL     OW11501   7.027   8.894   9.405 -0.3147  0.0811 -0.5957
 2380SOL    HW111502   7.119   8.879   9.430 -0.3700  1.1922  0.3670
 2380SOL    HW211503   7.033   8.947   9.325 -0.1408 -2.3423 -2.2757
 2381SOL     OW11504   8.249   0.617   5.344 -0.1353  0.6647 -0.2192
 2381SOL    HW111505   8.338   0.584   5.332  0.5575  2.7151 -1.1808
 2381SOL    HW211506   8.248   0.651   5.433 -0.4019 -0.5258  0.2564
 2382SOL     OW11507   5.805   4.950   8.962 -0.1444  0.0549  0.8735
 2382SOL    HW111508   5.889   4.965   8.918 -1.0867 -1.4920 -1.6510
 2382SOL    HW211509   5.760   5.035   8.957  0.7006  0.5255  1.0148
 2383SOL     OW11510   3.895   6.057   2.752 -0.3725  0.0013  0.1485
 2383SOL    HW111511   3.838   6.132   2.769 -0.1925  0.2781 -0.4100
 2383SOL    HW211512   3.872   5.993   2.818  0.3616  1.0518  1.4723
 2384SOL     OW11513   6.452   8.098   3.772 -0.2407 -0.3066 -0.2921
 2384SOL    HW111514   6.509   8.071   3.843 -1.8198 -1.6769  0.5430
 2384SOL    HW211515   6.447   8.193   3.779 -0.0609 -0.3916  1.1858
 2385SOL     OW11516   9.913  11.039   1.061 -0.2294 -0.1629 -0.6767
 2385SOL    HW111517   9.908  11.134   1.069  0.0010 -0.0974 -1.2289
 2385SOL    HW211518   9.833  11.014   1.015 -2.1439 -0.6651  2.6446
 2386SOL     OW11519   5.012   5.720   4.056  0.3976 -0.1739 -0.3724
 2386SOL    HW111520   4.966   5.735   3.973 -0.1430 -0.5313 -0.1426
 2386SOL    HW211521   4.974   5.785   4.115  1.8313  1.0936 -0.7772
 2387SOL     OW11522  10.499   0.976   8.042 -0.1149  0.2581  0.0524
 2387SOL    HW111523  10.589   1.007   8.031  0.7390 -2.0092  0.1704
 2387SOL    HW211524  10.477   0.939   7.957 -1.2407  1.4576 -0.2005
 2388SOL     OW11525   1.309  10.011   0.528 -0.0117  0.2958  0.0644
 2388SOL    HW111526   1.336  10.013   0.619 -0.9202 -0.3971  0.3731
 2388SOL    HW211527   1.389   9.994   0.479  0.6647  1.7231  0.6303
 2389SOL     OW11528   1.791   0.012   4.714 -0.3427 -0.0570  0.0162
 2389SOL    HW111529   1.870   0.044   4.671 -0.3080  0.6329  0.5674
 2389SOL    HW211530   1.760   0.087   4.765 -1.3235 -0.3309 -0.1569
 2390SOL     OW11531   7.792  10.131   8.647 -0.2778  0.1945 -0.0744
 2390SOL    HW111532   7.792  10.043   8.683 -1.1090  1.4135  3.2316
 2390SOL    HW211533   7.867  10.174   8.688 -0.7502  1.4398 -0.4618
 2391SOL     OW11534   7.782   8.829   2.773  0.0714 -0.1664  0.0978
 2391SOL    HW111535   7.696   8.834   2.730  0.7457 -0.0475 -1.2795
 2391SOL    HW211536   7.786   8.739   2.805 -0.2255 -0.4483 -0.6101
 2392SOL     OW11537   8.305   6.373   4.146 -0.1119 -0.1491  0.0787
 2392SOL    HW111538   8.321   6.467   4.154  1.3933 -0.3345 -0.4886
 2392SOL    HW211539   8.384   6.338   4.104 -0.4709 -1.7325  0.6384
 2393SOL     OW11540  11.087   1.672   3.149  0.1031 -0.1387  0.2346
 2393SOL    HW111541  11.049   1.742   3.203 -0.9437 -0.1844 -0.4105
 2393SOL    HW211542  11.169   1.651   3.192 -0.0470  0.7902  1.0201
 2394SOL     OW11543   0.435   6.761   1.758  0.6528 -0.3196 -0.1069
 2394SOL    HW111544   0.409   6.816   1.684 -1.1393 -0.2607  0.4988
 2394SOL    HW211545   0.521   6.794   1.784  0.9740  0.1517 -1.6709
 2395SOL     OW11546   7.029   3.165   2.470 -0.0869  0.4584 -0.6974
 2395SOL    HW111547   6.945   3.132   2.501  1.1370 -1.4383  0.8318
 2395SOL    HW211548   7.049   3.238   2.528 -0.0575  0.0063 -0.1239
 2396SOL     OW11549   2.186   9.991   8.618 -0.7007 -0.1089 -0.7714
 2396SOL    HW111550   2.114   9.959   8.564 -1.5334 -0.7126  0.6458
 2396SOL    HW211551   2.189   9.931   8.693  1.3641 -0.1788 -0.8509
 2397SOL     OW11552   5.060   3.625   7.362 -0.1715  0.7030 -0.3210
 2397SOL    HW111553   5.099   3.645   7.277  0.1215  1.6019  0.0123
 2397SOL    HW211554   4.971   3.597   7.342  0.8835 -2.3853 -1.1886
 2398SOL     OW11555   6.543   3.896   1.903 -0.1079 -0.4707  0.1456
 2398SOL    HW111556   6.568   3.855   1.820  0.3412  1.7217 -0.8842
 2398SOL    HW211557   6.456   3.862   1.921 -0.0576 -1.2943 -1.0259
 2399SOL     OW11558   2.280   2.444   3.950 -0.4268 -0.1594  0.4219
 2399SOL    HW111559   2.229   2.525   3.953 -0.3095  0.2680 -3.9157
 2399SOL    HW211560   2.228   2.381   4.001 -2.3592  1.6917  0.8579
 2400SOL     OW11561   6.821   8.797   6.397  0.2991 -0.4434  0.2607
 2400SOL    HW111562   6.847   8.790   6.489 -0.2285  1.7407  0.6303
 2400SOL    HW211563   6.750   8.733   6.387 -1.0012  0.6413  1.9442
 2401SOL     OW11564   8.956   1.609   9.727  0.2717  0.1493 -0.2041
 2401SOL    HW111565   9.017   1.564   9.667  0.2378  1.5971 -1.3998
 2401SOL    HW211566   9.013   1.665   9.780  0.1862 -0.1964  0.2492
 2402SOL     OW11567   6.328   6.575   2.167  0.3921 -0.5314  0.0318
 2402SOL    HW111568   6.338   6.625   2.086 -0.9085 -0.0496  0.1450
 2402SOL    HW211569   6.416   6.544   2.187  1.1035  1.0504 -0.4707
 2403SOL     OW11570   1.593   9.219   9.466 -0.4181  0.1131 -0.8105
 2403SOL    HW111571   1.615   9.149   9.404  1.8288  0.2368 -0.2676
 2403SOL    HW211572   1.660   9.285   9.451 -1.3089  1.2488  0.0764
 2404SOL     OW11573   2.354   5.031   0.175 -0.1578 -0.0917  0.2436
 2404SOL    HW111574   2.387   5.006   0.261 -1.5086 -0.9174  0.5414
 2404SOL    HW211575   2.268   5.069   0.192 -0.4281 -0.2395 -0.7375
 2405SOL     OW11576   9.901   7.169  10.044  0.3988  0.3679 -0.3036
 2405SOL    HW111577   9.969   7.168   9.977 -1.0287 -0.6246 -1.8409
 2405SOL    HW211578   9.858   7.083  10.035 -0.8260  0.8335  0.8142
 2406SOL     OW11579   7.902   2.313   2.736  0.1485 -0.1013  0.1795
 2406SOL    HW111580   7.912   2.315   2.831  0.2736  0.8850  0.1615
 2406SOL    HW211581   7.818   2.270   2.721  0.1685 -0.3342  0.7347
 2407SOL     OW11582   2.687   3.904   4.693 -0.2926 -0.6192  0.3370
 2407SOL    HW111583   2.734   3.935   4.616  0.3154 -1.9422  0.1496
 2407SOL    HW211584   2.639   3.981   4.725  0.5041  0.2743 -0.5698
 2408SOL     OW11585   2.432   4.190   9.392 -0.9890 -0.0270  0.4427
 2408SOL    HW111586   2.473   4.114   9.433 -1.5549 -0.5362  0.0783
 2408SOL    HW211587   2.499   4.258   9.395  0.1821 -1.0728 -0.8901
 2409SOL     OW11588   4.484   8.410   7.984  0.0876  0.6174 -0.3213
 2409SOL    HW111589   4.492   8.382   7.893 -0.5875 -0.3798 -0.0888
 2409SOL    HW211590   4.393   8.393   8.007  0.7108 -1.0685  1.1447
 2410SOL     OW11591   7.898  10.915   4.369 -0.5995 -0.2332 -0.2777
 2410SOL    HW111592   7.948  10.992   4.343 -0.2041  0.0177  1.1476
 2410SOL    HW211593   7.907  10.855   4.295  0.4248  0.4560 -0.7358
 2411SOL     OW11594   1.269   1.143   8.439  0.1836  0.0993  0.3567
 2411SOL    HW111595   1.306   1.127   8.352  0.9392 -0.5298  0.7753
 2411SOL    HW211596   1.293   1.065   8.490  1.7270  1.4127  1.7559
 2412SOL     OW11597   9.014   3.764   5.453  0.3123  0.3071  0.1237
 2412SOL    HW111598   8.991   3.778   5.545  0.2373 -1.7508  0.4662
 2412SOL    HW211599   8.933   3.733   5.413  0.4051  0.9854 -0.6215
 2413SOL     OW11600   2.982   4.839   6.899  0.0651 -0.2730  0.7862
 2413SOL    HW111601   2.962   4.919   6.947 -0.6437 -0.6548  1.1356
 2413SOL    HW211602   2.969   4.769   6.962  0.4649 -0.6851  0.4214
 2414SOL     OW11603   6.647   2.388   3.774 -0.0781 -0.4239  0.0078
 2414SOL    HW111604   6.656   2.433   3.690  0.3896  2.1048  1.3325
 2414SOL    HW211605   6.736   2.358   3.795  0.1598  0.5178  0.3971
 2415SOL     OW11606   6.824   6.851   2.144  0.3238 -0.4694  0.1752
 2415SOL    HW111607   6.765   6.818   2.212 -0.4360 -0.6904 -0.5842
 2415SOL    HW211608   6.798   6.804   2.065  2.5284 -1.7547  0.1156
 2416SOL     OW11609   0.258   9.151   3.058  0.2224  0.1672 -0.2594
 2416SOL    HW111610   0.335   9.131   3.006 -0.0477 -1.7796  0.0264
 2416SOL    HW211611   0.286   9.220   3.118  0.8728  1.5970 -2.0985
 2417SOL     OW11612   9.126  10.823   8.728  0.3603 -0.1220 -0.0488
 2417SOL    HW111613   9.050  10.775   8.762  1.4077 -1.8095 -0.0109
 2417SOL    HW211614   9.201  10.771   8.754  1.5202  1.2125 -0.6089
 2418SOL     OW11615   8.914   9.643  10.730 -0.1860  0.4834  0.7215
 2418SOL    HW111616   8.973   9.583  10.684 -2.3847 -1.1110 -0.2046
 2418SOL    HW211617   8.901   9.604  10.816 -0.4974  0.3978  0.6380
 2419SOL     OW11618   4.939   0.665   5.449  0.5994 -0.1144 -0.1319
 2419SOL    HW111619   5.019   0.614   5.436  1.0426  0.5135  0.0433
 2419SOL    HW211620   4.882   0.609   5.501 -0.7455 -2.2504 -3.5644
 2420SOL     OW11621   9.639   8.448   4.121 -0.2202 -0.4992  0.3782
 2420SOL    HW111622   9.576   8.473   4.053 -0.5984  0.5486  1.1050
 2420SOL    HW211623   9.671   8.362   4.092 -0.5075 -0.1648 -1.0258
 2421SOL     OW11624  10.266   2.309   1.866  0.3493  0.0236  0.2932
 2421SOL    HW111625  10.341   2.345   1.913  1.2736 -1.6277  0.1502
 2421SOL    HW211626  10.287   2.322   1.774 -0.1356  0.6994  0.2764
 2422SOL     OW11627   6.475   8.074   9.809 -0.7576  0.1125  1.0092
 2422SOL    HW111628   6.462   8.168   9.799 -1.1740  0.0228  0.6554
 2422SOL    HW211629   6.570   8.063   9.820 -0.6292  0.5123  0.3241
 2423SOL     OW11630  10.489   7.162   3.784 -0.3618 -0.5678 -0.3959
 2423SOL    HW111631  10.473   7.072   3.756  2.8949 -1.3741 -0.0678
 2423SOL    HW211632  10.551   7.154   3.857 -0.6469  1.9162  0.2179
 2424SOL     OW11633   8.901  10.974   2.567 -0.1178 -0.2995  0.4445
 2424SOL    HW111634   8.930  10.986   2.477  0.1052  1.2016  0.6784
 2424SOL    HW211635   8.894  10.880   2.578 -1.1631 -0.5041 -1.4584
 2425SOL     OW11636   8.180   5.500   0.888  0.5259  0.0017  0.1795
 2425SOL    HW111637   8.133   5.578   0.858 -1.0148 -1.9510 -3.0318
 2425SOL    HW211638   8.267   5.507   0.849 -0.6428 -1.2599 -2.9677
 2426SOL     OW11639   0.780   9.720   3.595  0.0025  0.1305  0.1106
 2426SOL    HW111640   0.771   9.741   3.502 -0.0359 -0.5399 -0.0412
 2426SOL    HW211641   0.797   9.626   3.597  1.7829  0.4154  0.6802
 2427SOL     OW11642   9.499   9.295   3.535 -0.4759  0.3387  0.7087
 2427SOL    HW111643   9.580   9.265   3.576 -1.1514  0.4289  2.1668
 2427SOL    HW211644   9.458   9.351   3.600 -1.6448  0.4313 -0.0677
 2428SOL     OW11645  10.391   4.289   4.648 -0.0866  0.0836  0.0109
 2428SOL    HW111646  10.315   4.325   4.692  0.1646  1.2032 -0.4366
 2428SOL    HW211647  10.449   4.261   4.719 -0.2173  0.7227  0.3747
 2429SOL     OW11648   1.676  11.012   1.377  0.1540  0.2114 -0.1378
 2429SOL    HW111649   1.695  10.933   1.429  1.0616 -0.7288 -1.8184
 2429SOL    HW211650   1.704  11.084   1.434 -1.4357 -0.5747  1.7649
 2430SOL     OW11651   4.518   2.983   7.057 -0.3961  0.2331  0.3106
 2430SOL    HW111652   4.495   2.986   7.149  1.9574  0.2509  0.9740
 2430SOL    HW211653   4.613   2.969   7.056 -0.6606 -2.4972 -2.1039
 2431SOL     OW11654   0.739   3.221   1.570 -0.0282  0.5109 -0.1569
 2431SOL    HW111655   0.821   3.195   1.528  0.5536  0.1933  1.1246
 2431SOL    HW211656   0.700   3.284   1.509 -1.0304 -2.4996 -2.9247
 2432SOL     OW11657   4.690   2.129   2.098 -0.9070  0.3795 -0.1002
 2432SOL    HW111658   4.784   2.144   2.107 -0.8201  0.9343 -1.6874
 2432SOL    HW211659   4.659   2.119   2.188  0.6066  0.5046  0.4697
 2433SOL     OW11660  11.033   5.124   1.227 -0.2305  0.0471 -0.0888
 2433SOL    HW111661  11.040   5.219   1.234  0.7399  0.1280 -1.5427
 2433SOL    HW211662  11.043   5.092   1.316  0.9277  1.2526  0.2502
 2434SOL     OW11663   9.535   0.988   9.574 -0.3414 -0.4733 -0.3068
 2434SOL    HW111664   9.449   0.947   9.562 -0.4019 -1.1517  1.9240
 2434SOL    HW211665   9.518   1.082   9.565 -1.2288 -0.6302 -0.3692
 2435SOL     OW11666   8.552   2.637   5.540 -0.1663 -0.1823  0.2697
 2435SOL    HW111667   8.482   2.679   5.491  0.1610 -1.8979 -1.7873
 2435SOL    HW211668   8.507   2.589   5.610 -1.0675 -1.0464 -0.8675
 2436SOL     OW11669   4.588   4.240   8.339  0.2399 -0.0505  0.0219
 2436SOL    HW111670   4.537   4.291   8.276  2.7317  2.2700 -0.2886
 2436SOL    HW211671   4.660   4.203   8.288  0.7442 -0.4881  1.0260
 2437SOL     OW11672   1.696   0.564   7.671 -0.0436  0.3809  0.3656
 2437SOL    HW111673   1.724   0.552   7.580 -1.4449 -1.1279  0.0847
 2437SOL    HW211674   1.636   0.491   7.688  0.8202  0.1098  2.7781
 2438SOL     OW11675   8.888   3.234   5.853 -0.6168 -0.1054  0.2156
 2438SOL    HW111676   8.853   3.314   5.893  0.2553  0.1461  0.4833
 2438SOL    HW211677   8.835   3.164   5.890 -2.6604  0.4683 -1.4253
 2439SOL     OW11678   4.486   4.902   0.345 -0.6183  0.1952 -0.0117
 2439SOL    HW111679   4.551   4.839   0.376 -1.3941 -0.0801  1.1191
 2439SOL    HW211680   4.406   4.877   0.390 -1.3656  0.8979 -0.9335
 2440SOL     OW11681   0.527   9.562   7.371 -0.2021 -0.0292 -0.1110
 2440SOL    HW111682   0.499   9.632   7.312 -2.6618 -0.8322 -0.0099
 2440SOL    HW211683   0.503   9.482   7.326  2.3776 -0.8887 -0.1300
 2441SOL     OW11684   0.739   4.456   6.307 -0.4552  0.3630 -0.2488
 2441SOL    HW111685   0.721   4.499   6.223 -0.1459  0.9992  0.0010
 2441SOL    HW211686   0.793   4.519   6.355  0.8687 -0.7118 -0.2580
 2442SOL     OW11687   1.506   9.440   2.150 -0.2090 -0.2358  0.1207
 2442SOL    HW111688   1.588   9.429   2.197  0.0521  2.2240  0.3479
 2442SOL    HW211689   1.439   9.440   2.219 -0.3657 -1.4427  0.0009
 2443SOL     OW11690   0.718   7.446   7.620 -0.6219  0.3808  0.4280
 2443SOL    HW111691   0.799   7.469   7.575 -1.4022  2.1222 -0.1935
 2443SOL    HW211692   0.715   7.505   7.695 -1.4050  0.4689  0.3365
 2444SOL     OW11693   8.425  10.785   1.762 -0.4619 -0.6253 -0.0304
 2444SOL    HW111694   8.398  10.871   1.791 -0.9104 -0.3589 -1.1971
 2444SOL    HW211695   8.484  10.754   1.831 -0.6868  0.3962  0.6387
 2445SOL     OW11696   0.123   9.095   0.878  0.5994  0.4352 -0.2115
 2445SOL    HW111697   0.093   9.186   0.869  2.4480  1.3171  1.6283
 2445SOL    HW211698   0.061   9.055   0.939  1.0607  1.1573  0.7484
 2446SOL     OW11699  10.943   1.346   2.389  0.1625  0.0413  0.1556
 2446SOL    HW111700  11.034   1.337   2.417  0.6173  2.2777 -0.4463
 2446SOL    HW211701  10.915   1.430   2.425 -0.9701  0.4008 -1.4716
 2447SOL     OW11702   8.139   5.998   1.286 -0.3573 -0.7097 -0.2188
 2447SOL    HW111703   8.180   5.964   1.206 -0.4582 -1.5848  0.0893
 2447SOL    HW211704   8.207   6.052   1.326 -0.0701 -0.8187 -0.5514
 2448SOL     OW11705   6.824   1.195   6.730  0.5984  0.7106  0.4312
 2448SOL    HW111706   6.799   1.273   6.682 -1.6280  0.6822  1.4001
 2448SOL    HW211707   6.790   1.122   6.678 -1.2383  0.6507  1.6341
 2449SOL     OW11708   7.049   9.105   6.486 -0.0513 -0.2153 -0.0993
 2449SOL    HW111709   7.005   9.078   6.405 -3.2152  2.0894  0.6811
 2449SOL    HW211710   7.086   9.191   6.466  1.5324 -0.7750  0.2145
 2450SOL     OW11711   3.984   3.941  10.776  0.4095  0.4674  0.0109
 2450SOL    HW111712   3.989   3.989  10.859  1.2524  1.0868 -0.3876
 2450SOL    HW211713   3.913   3.878  10.790 -0.1249  1.2171  0.8569
 2451SOL     OW11714   6.193  11.106   8.456 -0.0179  0.7084 -0.0945
 2451SOL    HW111715   6.187  11.013   8.433 -0.2570  0.8076 -0.4441
 2451SOL    HW211716   6.161  11.151   8.378 -0.1225  1.0789  0.1649
 2452SOL     OW11717   6.714   2.029   8.151  0.4877 -0.2054 -0.0841
 2452SOL    HW111718   6.745   2.071   8.071  0.5047  1.5337  0.7996
 2452SOL    HW211719   6.681   2.100   8.205  0.7823 -1.2881  1.6046
 2453SOL     OW11720  10.628   7.758   9.504 -0.4331  0.4463 -0.8066
 2453SOL    HW111721  10.559   7.816   9.473 -0.5328  0.5234 -0.4514
 2453SOL    HW211722  10.690   7.816   9.547  0.4995  0.5399 -2.2127
 2454SOL     OW11723   0.208   9.037   3.470 -0.0284 -0.1506 -1.0799
 2454SOL    HW111724   0.158   8.974   3.521  2.5134 -1.2188  0.2803
 2454SOL    HW211725   0.241   8.988   3.395 -1.7999  0.8204 -2.5796
 2455SOL     OW11726   6.216   2.923   5.980  0.3328  0.0971  0.3596
 2455SOL    HW111727   6.131   2.968   5.986  0.8678  1.1225  0.4571
 2455SOL    HW211728   6.270   2.965   6.046  0.8673 -0.6849  0.4325
 2456SOL     OW11729   0.598   1.404   8.882  0.0501 -0.1270 -0.0971
 2456SOL    HW111730   0.661   1.432   8.815  0.6204  1.4818  1.0451
 2456SOL    HW211731   0.512   1.425   8.844  0.3918  1.3659 -0.0928
 2457SOL     OW11732   9.513   5.205  10.214 -0.3537  0.6232  0.1831
 2457SOL    HW111733   9.538   5.292  10.244 -0.3949  1.2683 -1.5696
 2457SOL    HW211734   9.464   5.168  10.287 -0.0765  1.9441  1.0727
 2458SOL     OW11735   0.956   1.512   4.984 -0.1916  0.4535  0.1235
 2458SOL    HW111736   0.941   1.438   4.924 -1.7011 -0.9001  2.0463
 2458SOL    HW211737   1.050   1.509   5.002 -0.1926 -0.9118  0.0192
 2459SOL     OW11738   5.561  11.030   7.818 -0.0523  0.1016 -0.2660
 2459SOL    HW111739   5.474  11.012   7.855  0.2817  0.0662  0.5276
 2459SOL    HW211740   5.543  11.061   7.729 -0.9090  0.6184  0.0669
 2460SOL     OW11741   2.915   6.918   1.969 -0.6068 -0.2035  0.1231
 2460SOL    HW111742   2.891   7.002   2.006  2.3935  0.2257  1.4571
 2460SOL    HW211743   2.973   6.939   1.895 -1.9846 -1.1259 -1.2829
 2461SOL     OW11744   5.776   5.172  10.720 -0.2985  0.9473  0.5010
 2461SOL    HW111745   5.847   5.109  10.734  0.4463  1.4626 -0.8124
 2461SOL    HW211746   5.703   5.119  10.688  1.0847  0.8995 -3.0895
 2462SOL     OW11747   0.449   2.889   4.493 -0.0165 -0.0207  0.1717
 2462SOL    HW111748   0.384   2.957   4.510 -2.0826 -2.1543  1.4421
 2462SOL    HW211749   0.398   2.816   4.458  2.0461 -1.0927 -0.7362
 2463SOL     OW11750   2.590  10.181   2.843 -0.0563 -0.0187  0.2242
 2463SOL    HW111751   2.601  10.144   2.755  0.8798 -0.8853  0.6730
 2463SOL    HW211752   2.520  10.245   2.834  1.2318  1.2316 -1.5522
 2464SOL     OW11753   2.465   5.409   2.603 -0.0888  0.1342  0.9700
 2464SOL    HW111754   2.512   5.452   2.531 -0.5653  1.4568  1.4226
 2464SOL    HW211755   2.453   5.319   2.573  0.3870  0.4619 -0.2790
 2465SOL     OW11756   0.412   2.896   3.069  0.7133  0.0491 -0.6205
 2465SOL    HW111757   0.397   2.844   2.990 -0.9057 -1.1469  0.4253
 2465SOL    HW211758   0.445   2.834   3.134  4.6059  1.4792 -0.9931
 2466SOL     OW11759   1.755   5.546   2.378  0.2346  0.1006  0.2097
 2466SOL    HW111760   1.817   5.504   2.437  0.7123 -0.8159 -0.9198
 2466SOL    HW211761   1.671   5.505   2.397  0.4514 -0.4335  0.0203
 2467SOL     OW11762   9.611   5.496   9.745  0.1771 -0.5715 -0.3989
 2467SOL    HW111763   9.624   5.410   9.705 -0.8487 -1.4011  0.9868
 2467SOL    HW211764   9.669   5.554   9.695  0.4755 -1.9378 -1.7209
 2468SOL     OW11765   9.736   9.842  10.395 -0.2755 -0.6772 -0.0670
 2468SOL    HW111766   9.671   9.827  10.463 -0.0188  0.2467  0.3851
 2468SOL    HW211767   9.684   9.852  10.314 -0.6403 -0.7687  0.1543
 2469SOL     OW11768   7.228   0.425   7.850  0.1863 -0.1478 -0.7229
 2469SOL    HW111769   7.255   0.348   7.801  0.4287  0.0101 -0.8369
 2469SOL    HW211770   7.275   0.419   7.933  1.1422  0.5006 -1.2010
 2470SOL     OW11771   9.507   2.273   3.092 -0.1491  0.1875 -0.7323
 2470SOL    HW111772   9.567   2.296   3.163 -0.7688  1.7294 -0.6858
 2470SOL    HW211773   9.535   2.185   3.065  0.0956 -0.4409  1.4079
 2471SOL     OW11774  10.720   7.215   1.422 -0.8775 -0.0938  0.3487
 2471SOL    HW111775  10.797   7.161   1.400  0.4611  1.9262 -0.2399
 2471SOL    HW211776  10.737   7.246   1.511 -0.4572  1.1766 -0.1460
 2472SOL     OW11777   4.813   0.902   1.397 -0.9881 -0.5008  0.5564
 2472SOL    HW111778   4.828   0.997   1.403 -0.4627 -0.6536  2.0964
 2472SOL    HW211779   4.791   0.876   1.486  3.6851 -2.5499  1.4473
 2473SOL     OW11780   5.416   4.614   7.223  0.2342 -0.1456  0.2267
 2473SOL    HW111781   5.457   4.534   7.189 -0.3942 -0.4343  0.1386
 2473SOL    HW211782   5.484   4.681   7.214 -0.1710  0.0043 -2.4780
 2474SOL     OW11783   8.232   5.559   8.777 -0.0705  0.2245  0.7600
 2474SOL    HW111784   8.308   5.553   8.834 -0.7659 -1.7146  1.5734
 2474SOL    HW211785   8.169   5.613   8.825  1.0696  2.6321 -0.3240
 2475SOL     OW11786  10.983   7.613   8.133 -0.2131  0.0883 -0.4478
 2475SOL    HW111787  11.042   7.552   8.177  1.8054  2.1560 -0.0606
 2475SOL    HW211788  10.898   7.598   8.174  0.2283 -2.2779 -0.2478
 2476SOL     OW11789  10.827   2.504   8.507 -0.1066 -0.4470  0.4521
 2476SOL    HW111790  10.822   2.592   8.545 -2.3426 -0.0789 -0.5315
 2476SOL    HW211791  10.836   2.518   8.413 -3.7979 -1.0888 -0.1453
 2477SOL     OW11792   7.142   5.016   1.704  0.1159  0.2226  0.0164
 2477SOL    HW111793   7.188   4.969   1.772  0.5846  0.0767 -0.3960
 2477SOL    HW211794   7.166   5.108   1.717 -1.3713  0.4796  1.2723
 2478SOL     OW11795   7.243   7.061   9.321 -0.3543  0.2856 -0.6882
 2478SOL    HW111796   7.156   7.021   9.311 -1.1073  1.8136 -0.4698
 2478SOL    HW211797   7.300   7.008   9.265 -1.3846 -0.8239 -0.7393
 2479SOL     OW11798   0.484   8.204   5.896 -0.2096 -0.5295 -0.2638
 2479SOL    HW111799   0.494   8.286   5.847  0.3291  0.3933  1.3288
 2479SOL    HW211800   0.417   8.156   5.847 -0.9321  1.0905 -0.9585
 2480SOL     OW11801   7.190   1.348   1.878 -0.3198 -0.3263  0.0065
 2480SOL    HW111802   7.166   1.440   1.889 -0.4087 -0.5099  1.4775
 2480SOL    HW211803   7.192   1.313   1.967 -0.2604 -1.7433 -0.5362
 2481SOL     OW11804  10.019  10.875   1.573 -0.1159 -0.1685  0.4291
 2481SOL    HW111805  10.033  10.814   1.646  0.5355 -0.7620 -0.1738
 2481SOL    HW211806   9.924  10.884   1.566 -0.2766 -1.8730 -0.0760
 2482SOL     OW11807   8.320   8.780   5.453  0.5555  0.4023  0.3181
 2482SOL    HW111808   8.374   8.848   5.493  0.3079  0.8532 -0.0999
 2482SOL    HW211809   8.370   8.700   5.465  0.4017  0.4826  1.6911
 2483SOL     OW11810   8.134   6.378  10.530 -0.5066  0.5950  0.1172
 2483SOL    HW111811   8.193   6.416  10.594 -0.4582 -1.1313  1.1455
 2483SOL    HW211812   8.049   6.375  10.574 -0.9835  1.3640 -0.6976
 2484SOL     OW11813   6.163   0.457   8.063 -0.1580 -0.1274 -0.0238
 2484SOL    HW111814   6.220   0.380   8.068  0.3736  0.2068 -0.8598
 2484SOL    HW211815   6.169   0.496   8.150  2.8524  1.2772 -0.7369
 2485SOL     OW11816   3.958   2.272   3.965  0.3953  0.4426 -0.4062
 2485SOL    HW111817   4.018   2.238   3.898  1.0397  0.8285 -0.0403
 2485SOL    HW211818   3.873   2.236   3.942  0.8315 -0.4043 -0.7376
 2486SOL     OW11819   4.156   4.052   7.099 -0.6942 -0.0074 -0.1092
 2486SOL    HW111820   4.181   4.003   7.021  0.0490  0.4590 -0.1754
 2486SOL    HW211821   4.127   3.985   7.161 -1.2306 -0.3850 -0.7617
 2487SOL     OW11822   4.102   9.943   9.372 -0.4933  0.2220 -0.0098
 2487SOL    HW111823   4.073   9.864   9.417 -2.4834  1.7018  1.5151
 2487SOL    HW211824   4.180   9.970   9.421 -0.2227 -0.4112 -0.0850
 2488SOL     OW11825   5.812   3.207   7.682 -0.5671 -0.7336 -0.3143
 2488SOL    HW111826   5.782   3.168   7.765 -2.4303  0.6441 -0.2878
 2488SOL    HW211827   5.805   3.135   7.619 -0.2862 -1.4743  0.4680
 2489SOL     OW11828   8.064   0.309   2.767 -0.1153 -0.2724 -0.0637
 2489SOL    HW111829   8.091   0.223   2.802 -0.3171  0.5946  2.4218
 2489SOL    HW211830   7.972   0.297   2.743 -0.0970 -0.8127  0.1180
 2490SOL     OW11831   5.599   5.368   5.350 -0.4538 -0.7895 -0.3232
 2490SOL    HW111832   5.687   5.407   5.347  0.7456 -3.3377 -0.7481
 2490SOL    HW211833   5.587   5.343   5.441  0.9525 -3.7902 -0.8307
 2491SOL     OW11834   7.992  11.028   5.893 -0.3888 -0.2148  0.5580
 2491SOL    HW111835   8.085  11.005   5.886 -0.9060 -1.8735 -2.7985
 2491SOL    HW211836   7.975  11.082   5.816 -2.3872 -0.7407  0.5804
 2492SOL     OW11837   1.446   0.583   0.818 -0.2244 -0.1974  0.1430
 2492SOL    HW111838   1.469   0.556   0.907 -1.1898  1.2526  0.8794
 2492SOL    HW211839   1.455   0.679   0.819 -0.2582 -0.1511 -1.3257
 2493SOL     OW11840   0.724  10.631   9.099 -0.5331  0.0620  0.3398
 2493SOL    HW111841   0.725  10.541   9.129 -0.4122  0.1195  0.5136
 2493SOL    HW211842   0.638  10.643   9.060 -0.0648 -0.5260 -0.9140
 2494SOL     OW11843   5.983  10.269   4.782  1.0232 -0.6171  0.3389
 2494SOL    HW111844   6.074  10.247   4.797  1.3961 -0.0134 -0.8875
 2494SOL    HW211845   5.978  10.288   4.688 -0.6784 -2.1536  0.0471
 2495SOL     OW11846   9.136   0.431  10.738  0.3199 -0.0257  0.0952
 2495SOL    HW111847   9.219   0.468  10.766  0.2542  0.4569 -0.3419
 2495SOL    HW211848   9.144   0.337  10.756  1.7535 -0.3240 -1.8814
 2496SOL     OW11849   4.541  10.328   6.107 -0.5870 -0.2649 -0.1495
 2496SOL    HW111850   4.547  10.262   6.177 -0.7904 -3.1973 -2.6837
 2496SOL    HW211851   4.623  10.318   6.058  0.7709  3.5511  0.9644
 2497SOL     OW11852   2.003   3.450   7.098 -0.2913  0.1246  0.5624
 2497SOL    HW111853   2.021   3.361   7.128 -1.2284 -0.4006 -0.3769
 2497SOL    HW211854   1.994   3.443   7.003 -0.3688  1.2294  0.4686
 2498SOL     OW11855  10.704   9.478   0.927  0.0842  0.0812 -1.0064
 2498SOL    HW111856  10.631   9.489   0.865  1.0037 -0.5721 -2.2538
 2498SOL    HW211857  10.720   9.384   0.929 -0.7826 -0.0794  1.3033
 2499SOL     OW11858  10.094   8.677   8.504 -0.1070 -0.0125  0.2480
 2499SOL    HW111859  10.159   8.737   8.542  0.2043 -0.3794  0.2953
 2499SOL    HW211860  10.138   8.642   8.427 -0.1143 -0.5349  0.4811
 2500SOL     OW11861   0.998   4.196   6.637 -0.0632 -0.6458  0.5833
 2500SOL    HW111862   1.093   4.199   6.625  0.2756  1.4891  2.9244
 2500SOL    HW211863   0.986   4.175   6.730 -1.9353 -1.6877  0.1529
 2501SOL     OW11864   7.002   5.734   6.148  0.2877 -0.0767 -0.1879
 2501SOL    HW111865   7.020   5.787   6.070  0.8669  2.5542  1.5873
 2501SOL    HW211866   6.923   5.774   6.185  0.1560 -1.1329  0.6953
 2502SOL     OW11867   1.648   5.348   7.432  0.3310 -0.0621  0.2520
 2502SOL    HW111868   1.722   5.319   7.378  0.5262  0.4651  0.2284
 2502SOL    HW211869   1.611   5.422   7.384  0.6910  0.6053  0.9745
 2503SOL     OW11870  10.862  11.022   4.079  0.3947  0.2195  0.9287
 2503SOL    HW111871  10.902  11.108   4.096  0.4058  0.0564  1.7918
 2503SOL    HW211872  10.837  10.990   4.166 -3.3015  1.0827  0.3401
 2504SOL     OW11873   4.093   9.200   0.165  0.2221  0.4957 -0.0444
 2504SOL    HW111874   3.999   9.210   0.152  0.5688  2.3488 -1.4852
 2504SOL    HW211875   4.105   9.208   0.260 -1.0350  0.2876  0.1539
 2505SOL     OW11876   9.132   8.290   8.075 -0.0043 -0.2903  0.1842
 2505SOL    HW111877   9.068   8.251   8.134 -1.4642 -0.3485 -1.3733
 2505SOL    HW211878   9.213   8.293   8.126 -1.2109 -0.2447  2.2126
 2506SOL     OW11879   8.686   4.915   9.592 -0.1928  0.0674  0.2470
 2506SOL    HW111880   8.653   4.860   9.522  2.1132 -0.2786 -0.6420
 2506SOL    HW211881   8.641   4.884   9.671 -2.8807  0.5093 -1.0127
 2507SOL     OW11882   8.363   3.586   8.866  0.3803  0.3146  0.1680
 2507SOL    HW111883   8.310   3.546   8.935  1.8722 -2.4245 -0.1377
 2507SOL    HW211884   8.450   3.594   8.905  1.1006 -0.7294 -1.1995
 2508SOL     OW11885   2.907   6.978  10.523  1.0521  0.2052 -0.1182
 2508SOL    HW111886   2.852   6.907  10.489  0.0542  0.5216  0.7937
 2508SOL    HW211887   2.989   6.935  10.546  1.0393 -0.3642 -1.0409
 2509SOL     OW11888   5.033   8.633   8.180 -0.0075  0.0500 -0.4215
 2509SOL    HW111889   5.024   8.727   8.190 -0.0466 -0.0195  0.2694
 2509SOL    HW211890   4.988   8.613   8.098 -0.4105  0.5705 -0.3303
 2510SOL     OW11891   9.867   7.189   5.718  0.1083  0.1300  0.1606
 2510SOL    HW111892   9.866   7.098   5.687  1.6009  0.4363 -0.8880
 2510SOL    HW211893   9.902   7.239   5.644 -0.8871  1.6100  0.6462
 2511SOL     OW11894   3.433   7.494   1.755  0.3570  0.2231 -0.0189
 2511SOL    HW111895   3.482   7.413   1.736  0.3229  0.1103  0.3593
 2511SOL    HW211896   3.500   7.561   1.764  0.4758  0.0028  0.8326
 2512SOL     OW11897   0.614   5.773   8.445  0.6153 -0.2090 -0.3275
 2512SOL    HW111898   0.674   5.749   8.516  1.0770  0.9071 -0.3272
 2512SOL    HW211899   0.636   5.863   8.425 -1.1736  0.2739 -0.2441
 2513SOL     OW11900   1.891   3.299   1.079  0.2160 -0.2112 -0.5125
 2513SOL    HW111901   1.844   3.382   1.088  0.3005 -0.3466  1.9697
 2513SOL    HW211902   1.822   3.233   1.075  0.1664 -0.2057  0.2087
 2514SOL     OW11903   7.146   7.925   6.200 -0.7206 -0.0175  0.0192
 2514SOL    HW111904   7.129   8.019   6.206 -1.0085 -0.0415 -0.4134
 2514SOL    HW211905   7.077   7.884   6.253 -2.2420 -0.1281 -1.9061
 2515SOL     OW11906   5.627   3.777   6.131  0.3884 -0.4532 -0.3024
 2515SOL    HW111907   5.547   3.734   6.101  0.3418 -0.6623  0.1136
 2515SOL    HW211908   5.687   3.771   6.057 -0.0207 -0.1931 -0.6559
 2516SOL     OW11909   1.525  10.846   7.734  0.8865 -0.1581 -0.0535
 2516SOL    HW111910   1.579  10.769   7.714  0.6696 -0.1884 -0.5340
 2516SOL    HW211911   1.575  10.919   7.698 -0.0613 -0.3293 -1.8404
 2517SOL     OW11912   8.672   1.078   6.852  0.0183 -0.3863 -0.5109
 2517SOL    HW111913   8.664   1.143   6.783  0.4855  0.1240 -0.0828
 2517SOL    HW211914   8.635   1.120   6.930  0.7576 -0.4563 -0.1177
 2518SOL     OW11915   9.274   3.361   4.712  0.5560 -0.9058  0.1242
 2518SOL    HW111916   9.279   3.409   4.794  2.2106 -0.5971 -0.1168
 2518SOL    HW211917   9.328   3.412   4.651 -0.5746 -1.1598 -1.1407
 2519SOL     OW11918   4.634   5.291   7.549 -0.2981  0.3137 -0.3857
 2519SOL    HW111919   4.548   5.251   7.560  0.5890 -1.4765  0.6173
 2519SOL    HW211920   4.672   5.244   7.474  0.3822 -0.0234  0.1659
 2520SOL     OW11921   1.462   9.451   6.095  0.0015  0.8060 -0.0008
 2520SOL    HW111922   1.513   9.452   6.014 -0.1233  1.2873 -0.0774
 2520SOL    HW211923   1.424   9.363   6.099  0.2651  0.6791 -0.3024
 2521SOL     OW11924   0.845   0.249   4.737  0.1399 -0.1310  0.1979
 2521SOL    HW111925   0.772   0.192   4.761 -1.2227  1.3666 -0.2254
 2521SOL    HW211926   0.881   0.279   4.820 -0.6998  0.3077  0.4100
 2522SOL     OW11927   6.517   0.363   3.623  0.3217 -0.4096 -0.0620
 2522SOL    HW111928   6.524   0.437   3.683  1.1003  0.0339 -0.6784
 2522SOL    HW211929   6.424   0.340   3.624  0.3034 -0.3206  1.1886
 2523SOL     OW11930   8.461   5.655   0.744  0.5694 -0.5689  0.1079
 2523SOL    HW111931   8.440   5.671   0.652 -0.0178 -0.2087  0.2984
 2523SOL    HW211932   8.520   5.580   0.743 -1.1301 -1.9532 -0.4056
 2524SOL     OW11933  10.535  10.378   6.198  0.2255 -0.1174  0.3603
 2524SOL    HW111934  10.531  10.284   6.177  0.8877  0.4176 -2.6294
 2524SOL    HW211935  10.457  10.394   6.250 -0.0478 -2.2699  0.7239
 2525SOL     OW11936   9.839   4.320   2.372  0.2757 -0.1608 -0.0087
 2525SOL    HW111937   9.812   4.411   2.365 -0.9020 -0.5753 -1.3713
 2525SOL    HW211938   9.851   4.305   2.465  0.0818  1.2612  0.2665
 2526SOL     OW11939   3.978  10.182   7.067 -0.2213 -0.2290  0.5415
 2526SOL    HW111940   3.930  10.265   7.059  0.8469  0.3238 -0.3801
 2526SOL    HW211941   3.948  10.145   7.150 -0.3187  1.3366  1.2381
 2527SOL     OW11942   3.705   4.736   4.355  0.1235  0.3141 -0.3502
 2527SOL    HW111943   3.767   4.775   4.417 -0.7282  1.4439 -0.1968
 2527SOL    HW211944   3.706   4.643   4.377  0.9585  0.4706  0.3574
 2528SOL     OW11945   1.575   2.022   6.454  0.0061 -0.1844 -0.0395
 2528SOL    HW111946   1.595   1.939   6.497  1.3118 -0.9165 -1.9513
 2528SOL    HW211947   1.646   2.080   6.481 -0.6730  0.2100  0.9510
 2529SOL     OW11948   8.515   9.451   8.521 -0.0287 -0.5507  0.1207
 2529SOL    HW111949   8.477   9.538   8.516  0.6202 -0.2907 -0.6185
 2529SOL    HW211950   8.445   9.392   8.492 -0.3973 -0.2556  0.4113
 2530SOL     OW11951   5.883  10.400   9.307 -0.1456  0.5364 -0.1227
 2530SOL    HW111952   5.886  10.404   9.211 -0.0577 -0.2399 -0.1630
 2530SOL    HW211953   5.801  10.443   9.330  0.0848  1.2035 -0.5083
 2531SOL     OW11954   8.238   3.913   2.558  0.4084  0.0618  0.3057
 2531SOL    HW111955   8.297   3.963   2.615 -0.9763  0.9894  0.9913
 2531SOL    HW211956   8.161   3.898   2.612 -0.4346 -0.1531 -0.9295
 2532SOL     OW11957   4.653  10.829   1.563  0.0887  0.1016  0.5320
 2532SOL    HW111958   4.596  10.863   1.494 -0.6592  0.8141  1.4701
 2532SOL    HW211959   4.598  10.768   1.612  0.6248 -0.4335  0.4817
 2533SOL     OW11960   0.994   9.148   7.962 -0.1053 -0.4812 -0.0760
 2533SOL    HW111961   1.068   9.088   7.965 -0.5391 -1.0344 -0.3081
 2533SOL    HW211962   0.959   9.148   8.051  0.1603 -0.2288  0.0311
 2534SOL     OW11963   0.608   6.546   2.445  0.3096 -0.0664  0.0160
 2534SOL    HW111964   0.569   6.597   2.517  1.6759 -0.6313  1.2169
 2534SOL    HW211965   0.541   6.545   2.377 -0.2958  2.1343  0.4996
 2535SOL     OW11966   6.364   8.690   7.408 -0.0847  0.1295  0.2598
 2535SOL    HW111967   6.402   8.688   7.496  1.8405  1.7727 -0.4770
 2535SOL    HW211968   6.328   8.778   7.400  2.1913  0.9954 -1.5034
 2536SOL     OW11969   9.691   7.300   6.400 -0.5103 -0.0277 -0.4662
 2536SOL    HW111970   9.631   7.371   6.427  0.7865  1.0040 -0.1969
 2536SOL    HW211971   9.774   7.344   6.383 -0.3515 -1.1296 -2.9339
 2537SOL     OW11972   2.910   0.669   5.408 -0.3801 -0.4304 -0.6268
 2537SOL    HW111973   2.967   0.593   5.416  1.0418  0.5980 -0.3521
 2537SOL    HW211974   2.961   0.741   5.447 -1.6182  0.6775 -0.9569
 2538SOL     OW11975   3.206   5.531   4.395 -0.1893  0.1106  0.3554
 2538SOL    HW111976   3.281   5.587   4.376 -0.8220  0.2910 -1.8829
 2538SOL    HW211977   3.175   5.560   4.481  0.6436  1.9031  0.0939
 2539SOL     OW11978   9.234   9.200   8.878  0.0736 -0.3610  0.2732
 2539SOL    HW111979   9.257   9.197   8.785 -0.1335 -1.5005  0.2380
 2539SOL    HW211980   9.238   9.109   8.906 -0.6565 -0.1263  1.1869
 2540SOL     OW11981   8.587   9.096   7.611  0.0370 -0.1051  0.4899
 2540SOL    HW111982   8.652   9.149   7.566  1.2726 -0.9129  1.2354
 2540SOL    HW211983   8.622   9.086   7.700 -1.1766 -0.4674  0.9492
 2541SOL     OW11984  10.170   3.780  10.303  0.5018 -0.1923  0.0693
 2541SOL    HW111985  10.242   3.796  10.364  0.4183 -0.5843  0.2764
 2541SOL    HW211986  10.151   3.866  10.265  0.5865  0.0498  0.5591
 2542SOL     OW11987   6.710   0.340   1.108  0.1144  0.7303  0.3438
 2542SOL    HW111988   6.666   0.260   1.080 -0.2317  1.2325 -0.5817
 2542SOL    HW211989   6.798   0.312   1.131  0.0075  0.0839 -0.0160
 2543SOL     OW11990  10.455   9.431   8.650  0.2178  0.0766 -0.0001
 2543SOL    HW111991  10.540   9.471   8.672 -0.1836 -0.4604  2.9262
 2543SOL    HW211992  10.393   9.503   8.656 -0.0512 -0.2594  2.0780
 2544SOL     OW11993   3.243   5.873   1.686 -0.3805  0.5564 -0.0122
 2544SOL    HW111994   3.227   5.819   1.764  3.1831  0.6494  0.9737
 2544SOL    HW211995   3.159   5.916   1.669 -1.8001 -0.8827  2.6424
 2545SOL     OW11996   1.335   4.352   2.619 -0.1677 -0.1589  0.4854
 2545SOL    HW111997   1.305   4.266   2.649 -0.2281 -0.0140  0.8397
 2545SOL    HW211998   1.260   4.409   2.631 -1.3116 -0.7345 -2.9244
 2546SOL     OW11999   2.748   6.718  10.463  0.0783 -0.2701  0.5465
 2546SOL    HW112000   2.689   6.665  10.410  0.2487 -2.5981  2.5327
 2546SOL    HW212001   2.755   6.671  10.546  2.5449  1.3938  1.3883
 2547SOL     OW12002  10.548   1.147   9.963 -0.2838  0.1446  0.0871
 2547SOL    HW112003  10.522   1.083  10.028  2.3374  0.7924  1.9285
 2547SOL    HW212004  10.519   1.110   9.879 -3.1641 -1.0275  1.4766
 2548SOL     OW12005   6.477   3.089   3.402 -0.5296  0.3467  0.1790
 2548SOL    HW112006   6.432   3.051   3.326 -1.1513 -0.7442  1.0647
 2548SOL    HW212007   6.490   3.181   3.378  1.6440 -0.4727 -2.3447
 2549SOL     OW12008   4.593   5.873   8.022 -0.4613 -0.4626 -0.0810
 2549SOL    HW112009   4.516   5.929   8.029  0.1004  0.4932 -1.1819
 2549SOL    HW212010   4.572   5.811   7.952  0.1244  0.4458 -1.0918
 2550SOL     OW12011   5.245  10.881  10.482 -0.2313 -0.3644 -0.6279
 2550SOL    HW112012   5.313  10.857  10.419 -2.1129 -1.8507 -2.2201
 2550SOL    HW212013   5.167  10.893  10.429 -1.7092 -0.8101  1.3476
 2551SOL     OW12014   7.261   1.564  10.116 -0.3361  0.2091  0.2227
 2551SOL    HW112015   7.307   1.645  10.136  0.4887  0.0019 -0.7798
 2551SOL    HW212016   7.216   1.581  10.034 -3.0787  0.7951  1.7103
 2552SOL     OW12017   9.676   7.582   0.006 -0.1271  0.0334 -0.3976
 2552SOL    HW112018   9.743   7.548  -0.053  0.2072  1.2904 -0.7876
 2552SOL    HW212019   9.719   7.584   0.092  0.6907  1.6977 -0.8112
 2553SOL     OW12020   6.987   2.482  10.287  0.0362 -0.5252  0.0065
 2553SOL    HW112021   6.933   2.462  10.363 -1.3960  1.7628 -0.2933
 2553SOL    HW212022   7.070   2.514  10.323 -1.0905  1.7787  0.7408
 2554SOL     OW12023   0.487   5.239   0.111  0.4053 -0.2734 -0.3093
 2554SOL    HW112024   0.532   5.171   0.161  1.5725  0.1008 -0.8057
 2554SOL    HW212025   0.557   5.286   0.067 -0.4690  0.5450 -0.8665
 2555SOL     OW12026   9.991   1.722   5.938  0.3811  0.0956  0.0471
 2555SOL    HW112027  10.073   1.718   5.890  1.4709  0.0668  1.8172
 2555SOL    HW212028   9.976   1.633   5.969 -0.1450  0.1695  0.0195
 2556SOL     OW12029  10.880   5.597   1.461 -0.0788  0.9777 -0.4566
 2556SOL    HW112030  10.909   5.668   1.518  0.8451  1.4640 -1.5102
 2556SOL    HW212031  10.802   5.562   1.506  1.4531  0.3163  1.8871
 2557SOL     OW12032   2.572   6.806   0.875  0.1560 -0.7760 -0.0508
 2557SOL    HW112033   2.493   6.765   0.910 -0.3993  0.1797 -0.1507
 2557SOL    HW212034   2.636   6.735   0.871 -1.6575 -2.4796 -3.1709
 2558SOL     OW12035   5.528   1.567   4.702  1.3677 -0.5227 -0.5454
 2558SOL    HW112036   5.571   1.499   4.754 -1.0346 -3.7988 -2.5435
 2558SOL    HW212037   5.437   1.565   4.730  1.1245  1.6559 -1.0026
 2559SOL     OW12038   7.044   6.761   0.986 -0.2712  0.0326 -0.1890
 2559SOL    HW112039   7.106   6.793   1.051  0.4559 -0.6921 -0.5118
 2559SOL    HW212040   7.064   6.812   0.907 -0.2449 -0.0321 -0.2244
 2560SOL     OW12041  11.081  10.590   8.525  0.6267  0.1141  0.1736
 2560SOL    HW112042  11.124  10.534   8.461 -1.3949 -0.4477 -0.7784
 2560SOL    HW212043  11.092  10.679   8.491 -1.5134 -0.2565 -1.7735
 2561SOL     OW12044   9.825   9.009   8.673  0.1413  0.9809  0.1314
 2561SOL    HW112045   9.856   9.036   8.586 -2.0459 -0.2294 -1.1228
 2561SOL    HW212046   9.884   8.938   8.698 -0.7398 -0.4745 -1.6419
 2562SOL     OW12047   1.686   8.279   9.333  0.7458  0.2664 -0.2538
 2562SOL    HW112048   1.692   8.258   9.239  2.1596  0.7898 -0.3109
 2562SOL    HW212049   1.647   8.201   9.373 -0.5667  0.3165 -1.3606
 2563SOL     OW12050   4.164   0.646   7.762 -0.5193  0.0071  0.8604
 2563SOL    HW112051   4.257   0.629   7.781 -0.4469  1.4117  1.9609
 2563SOL    HW212052   4.146   0.729   7.807 -1.7260  0.9356 -1.2023
 2564SOL     OW12053   5.808   0.315  10.188 -0.1391  0.1800  0.0524
 2564SOL    HW112054   5.760   0.351  10.114 -0.9706 -1.6107 -0.3177
 2564SOL    HW212055   5.776   0.225  10.197  0.8036 -0.0248  1.8424
 2565SOL     OW12056   4.704   2.296   9.315 -0.4586 -0.2218 -0.2090
 2565SOL    HW112057   4.633   2.325   9.372  0.6045 -0.9060  1.5227
 2565SOL    HW212058   4.758   2.375   9.302 -1.3271  0.2285 -1.2992
 2566SOL     OW12059   5.280   9.789   9.391 -0.0443 -0.2686  0.6731
 2566SOL    HW112060   5.292   9.808   9.484  0.4530  2.0920  0.1796
 2566SOL    HW212061   5.238   9.703   9.390 -1.8519  0.4822  3.1298
 2567SOL     OW12062   5.761   1.582   8.595  0.3818 -0.1302  0.2607
 2567SOL    HW112063   5.718   1.612   8.675  2.1333  0.0633  1.1923
 2567SOL    HW212064   5.691   1.543   8.543 -0.8441 -0.1364  1.8295
 2568SOL     OW12065   0.194   0.784   2.678  0.1889 -0.1452  0.0916
 2568SOL    HW112066   0.289   0.795   2.676  0.1174  0.7925  1.2418
 2568SOL    HW212067   0.171   0.760   2.588  1.1597  2.6906 -1.0191
 2569SOL     OW12068   3.769   0.390   3.296 -0.2487 -0.0488 -0.2037
 2569SOL    HW112069   3.835   0.451   3.264 -0.5065 -0.2395 -1.1194
 2569SOL    HW212070   3.782   0.389   3.391  0.0209  1.1117 -0.2150
 2570SOL     OW12071   9.566   0.712   0.797 -0.9962  0.0830 -0.5365
 2570SOL    HW112072   9.602   0.752   0.718  1.5642  0.8931  0.9580
 2570SOL    HW212073   9.626   0.641   0.818 -1.3622  0.1874  0.9599
 2571SOL     OW12074   6.045   3.976   4.714 -0.7712 -0.7646  0.1121
 2571SOL    HW112075   6.068   3.883   4.715  0.0187 -0.7674 -3.8205
 2571SOL    HW212076   6.113   4.017   4.768  0.2375 -2.2556  0.0448
 2572SOL     OW12077   4.252   1.255   5.687 -0.1851  0.0601 -0.2123
 2572SOL    HW112078   4.259   1.170   5.731  0.8670 -0.4570 -1.3287
 2572SOL    HW212079   4.212   1.313   5.752  0.3670 -0.9382  1.0494
 2573SOL     OW12080   1.133   8.229   0.395  0.4680 -0.3082 -0.1402
 2573SOL    HW112081   1.154   8.317   0.425 -0.0497 -1.1678  3.1727
 2573SOL    HW212082   1.041   8.217   0.418  0.3907 -1.5621 -1.0025
 2574SOL     OW12083   6.032   0.217   9.798 -0.2804 -0.6533  0.7058
 2574SOL    HW112084   6.073   0.236   9.882  0.2147 -1.1252  0.5707
 2574SOL    HW212085   6.017   0.123   9.799 -0.6406 -0.6021  0.4234
 2575SOL     OW12086   6.153   9.251   8.198  1.0292  0.2627  0.1952
 2575SOL    HW112087   6.170   9.224   8.288  1.4403 -1.1681 -0.2866
 2575SOL    HW212088   6.179   9.343   8.195 -1.3753  1.1310  2.1614
 2576SOL     OW12089   7.998   0.298   5.723 -0.1312 -0.4304  0.6217
 2576SOL    HW112090   7.978   0.211   5.690 -3.3346  0.9311 -1.5727
 2576SOL    HW212091   8.081   0.321   5.681  0.6432 -2.2404  1.0527
 2577SOL     OW12092   3.453   0.623   6.741 -0.2541 -0.0038 -0.2783
 2577SOL    HW112093   3.459   0.685   6.668  1.6271 -0.1822 -0.3407
 2577SOL    HW212094   3.361   0.600   6.746 -0.5406  0.5937 -2.1273
 2578SOL     OW12095   5.975   7.106   5.632 -0.2021  0.1292 -0.1147
 2578SOL    HW112096   5.975   7.089   5.538  0.3345 -1.0770  0.0853
 2578SOL    HW212097   5.924   7.035   5.669 -0.0337  0.3504  0.5464
 2579SOL     OW12098  10.483  11.014   7.778 -0.0731  0.4004  0.2851
 2579SOL    HW112099  10.450  11.089   7.729  0.0395  2.9812  3.7575
 2579SOL    HW212100  10.575  11.034   7.795 -0.4963  0.5269  2.8411
 2580SOL     OW12101   2.231   6.768   7.886  0.1781  0.0007 -0.3592
 2580SOL    HW112102   2.157   6.785   7.829  0.2633  1.2384 -0.1379
 2580SOL    HW212103   2.205   6.805   7.971  0.5196 -0.7540  0.0893
 2581SOL     OW12104  10.602   2.560   0.174  0.2153  0.8367  0.3942
 2581SOL    HW112105  10.587   2.622   0.102  1.6742  1.7776  0.8494
 2581SOL    HW212106  10.691   2.580   0.204  0.1059 -0.4046  1.6243
 2582SOL     OW12107   5.115   2.624   3.854  0.6077 -0.1087 -0.1529
 2582SOL    HW112108   5.195   2.669   3.827  1.2553 -1.1652 -0.0180
 2582SOL    HW212109   5.055   2.637   3.780  1.5923 -1.0345 -1.1570
 2583SOL     OW12110   2.141   7.397   6.009 -0.2025  0.0035  0.0751
 2583SOL    HW112111   2.102   7.478   6.042 -2.6751 -0.9564 -0.2236
 2583SOL    HW212112   2.088   7.375   5.932 -0.1433 -2.2718  0.6030
 2584SOL     OW12113   7.201   7.723   1.084 -0.0312 -0.3809 -0.7215
 2584SOL    HW112114   7.240   7.798   1.039 -1.1416  0.3115 -0.5615
 2584SOL    HW212115   7.107   7.739   1.080 -0.2124 -0.9911  0.6683
 2585SOL     OW12116   0.908   1.191   7.262  0.4411 -0.3902 -0.1651
 2585SOL    HW112117   0.969   1.166   7.330  2.7108 -1.1866 -2.3493
 2585SOL    HW212118   0.923   1.285   7.249 -0.7825  0.0117  1.1020
 2586SOL     OW12119  10.866   8.821   7.929 -0.2548  0.1310 -0.0348
 2586SOL    HW112120  10.779   8.844   7.896  0.3540  1.1787 -0.9886
 2586SOL    HW212121  10.887   8.739   7.885 -0.2606  0.5122 -0.7698
 2587SOL     OW12122   1.568   8.690   1.531 -0.2993  0.4821 -0.4063
 2587SOL    HW112123   1.491   8.719   1.581 -0.1428  0.2976 -0.0561
 2587SOL    HW212124   1.583   8.761   1.468 -0.7348  0.5376 -0.4539
 2588SOL     OW12125  10.866   4.428   3.934  0.4808 -1.0272 -0.0200
 2588SOL    HW112126  10.807   4.496   3.902 -2.0840 -1.5113  3.1686
 2588SOL    HW212127  10.935   4.476   3.979 -0.9587 -0.3933  1.6439
 2589SOL     OW12128   8.018   7.407   1.859  0.1065 -0.1786  0.4285
 2589SOL    HW112129   8.078   7.472   1.825  2.7335 -1.5779  2.0881
 2589SOL    HW212130   7.947   7.458   1.898  0.9888  1.5892 -0.1751
 2590SOL     OW12131   1.816  10.723   0.021 -0.0408 -0.1936 -0.2162
 2590SOL    HW112132   1.813  10.629   0.037 -0.0921 -0.1147  0.2539
 2590SOL    HW212133   1.740  10.741  -0.034 -0.9549 -0.1843  1.0250
 2591SOL     OW12134  11.042  10.133   4.149  0.2846  0.2072 -0.3112
 2591SOL    HW112135  11.025  10.056   4.203  1.4933  0.4341  0.4303
 2591SOL    HW212136  10.970  10.134   4.086 -0.2547 -1.0012  0.2451
 2592SOL     OW12137   3.156   6.414   8.554 -0.5477  0.6927  0.2970
 2592SOL    HW112138   3.080   6.457   8.515 -1.0335 -0.9808 -0.7151
 2592SOL    HW212139   3.222   6.483   8.559 -1.5227  1.7380 -0.5441
 2593SOL     OW12140   0.760   7.221   0.523  0.6549 -0.4507 -0.5920
 2593SOL    HW112141   0.705   7.276   0.466  0.3235  0.4734  0.5640
 2593SOL    HW212142   0.708   7.212   0.603  0.8900 -2.1462 -0.5975
 2594SOL     OW12143   7.359   0.760   6.605  0.2487  0.5585 -0.4314
 2594SOL    HW112144   7.367   0.818   6.529  0.4825 -0.3609 -1.1320
 2594SOL    HW212145   7.449   0.746   6.634  0.0960  1.7528  0.6978
 2595SOL     OW12146   8.522   3.365   2.095  0.7686 -0.2807  0.0964
 2595SOL    HW112147   8.488   3.307   2.027 -0.9756 -0.9921  1.4846
 2595SOL    HW212148   8.558   3.306   2.161  0.5028  0.2802  0.7550
 2596SOL     OW12149   2.876   2.040  10.885  0.1350  0.0851  0.4044
 2596SOL    HW112150   2.938   1.995  10.828  0.8867 -0.6566  1.7446
 2596SOL    HW212151   2.808   1.975  10.901 -0.3773  0.4908 -0.1007
 2597SOL     OW12152   9.320   0.675   6.868 -0.3274 -0.0622 -0.2350
 2597SOL    HW112153   9.363   0.646   6.788  1.3869  1.4588  0.0748
 2597SOL    HW212154   9.273   0.755   6.843 -2.2397 -1.1702 -0.3457
 2598SOL     OW12155   0.233   4.244   0.200  0.0259 -0.5179 -0.0422
 2598SOL    HW112156   0.216   4.293   0.280  0.7737 -0.6832  0.2284
 2598SOL    HW212157   0.218   4.308   0.130  0.0280 -0.1803  0.2614
 2599SOL     OW12158   4.039   7.179  10.758  0.3038 -0.2442 -0.4877
 2599SOL    HW112159   4.079   7.252  10.805  0.1067 -0.5884  0.2213
 2599SOL    HW212160   4.091   7.102  10.783 -0.6658 -0.6647  0.3016
 2600SOL     OW12161   0.858   7.151   5.028 -0.7400 -0.3456 -0.5570
 2600SOL    HW112162   0.810   7.151   5.111  0.7550 -0.9902  0.3394
 2600SOL    HW212163   0.858   7.060   5.000 -1.5217 -0.0868 -1.4769
 2601SOL     OW12164   8.902   3.425   1.145  0.4395  0.5446  0.1807
 2601SOL    HW112165   8.834   3.422   1.077 -0.2136  4.2518  0.4538
 2601SOL    HW212166   8.858   3.392   1.224 -0.1085  0.1362 -0.2870
 2602SOL     OW12167   0.973   2.425   4.183 -0.1709 -0.0580 -0.5298
 2602SOL    HW112168   0.961   2.476   4.103 -0.2139 -0.7510 -0.9812
 2602SOL    HW212169   0.887   2.384   4.198 -0.2912  0.4261  0.1317
 2603SOL     OW12170   6.546   7.274   2.105 -0.2067 -0.5547 -0.2732
 2603SOL    HW112171   6.513   7.186   2.084  1.1395 -0.7824 -1.5888
 2603SOL    HW212172   6.530   7.325   2.027  0.4905 -0.0656 -0.1060
 2604SOL     OW12173   6.529  10.336   6.092  0.4080 -0.2703  0.5800
 2604SOL    HW112174   6.580  10.317   6.013 -0.7565 -2.6643  0.3260
 2604SOL    HW212175   6.459  10.394   6.062  1.7083  1.3367  0.5227
 2605SOL     OW12176  10.412   7.524   8.979  0.7883 -0.3577  0.0870
 2605SOL    HW112177  10.389   7.431   8.973 -0.3643 -0.0355 -0.8426
 2605SOL    HW212178  10.328   7.570   8.975  1.4557  0.8200 -1.8293
 2606SOL     OW12179   4.107   9.240   6.637  0.0893 -0.4645 -0.1398
 2606SOL    HW112180   4.016   9.228   6.613 -0.8764  3.4178  0.9534
 2606SOL    HW212181   4.149   9.277   6.559  0.3356 -0.6329 -0.0914
 2607SOL     OW12182   9.944   6.610   2.810 -0.0727 -0.1317 -0.0277
 2607SOL    HW112183  10.005   6.620   2.883 -0.7947  2.3952  0.3315
 2607SOL    HW212184   9.995   6.633   2.732 -0.3070  1.2894  0.1989
 2608SOL     OW12185   2.546   8.832   4.047  0.2861  0.2032  0.3832
 2608SOL    HW112186   2.517   8.767   3.982 -0.2424  2.1073 -1.4048
 2608SOL    HW212187   2.638   8.848   4.025  0.6883 -0.5561  1.4169
 2609SOL     OW12188   3.484   8.063   7.491  0.2406 -0.1295  0.0705
 2609SOL    HW112189   3.514   8.047   7.581 -0.7662 -1.3676  0.2146
 2609SOL    HW212190   3.415   8.128   7.499 -1.0503 -1.4786  0.4462
 2610SOL     OW12191   5.736   8.962   5.756  0.2417 -0.2998 -0.1799
 2610SOL    HW112192   5.690   8.958   5.672 -0.9338  1.3633  0.3324
 2610SOL    HW212193   5.719   8.877   5.796 -1.5137 -0.1176 -0.4735
 2611SOL     OW12194   4.286   5.995   4.041 -0.2997 -0.5653 -0.0524
 2611SOL    HW112195   4.371   5.957   4.020 -0.3761 -0.2823 -0.9156
 2611SOL    HW212196   4.304   6.087   4.057 -0.0489 -1.0016  2.4723
 2612SOL     OW12197   1.719   4.182  11.015 -0.2532 -0.1538 -0.2625
 2612SOL    HW112198   1.668   4.102  11.032 -1.8618  0.8374 -0.1785
 2612SOL    HW212199   1.658   4.240  10.970  1.3276  0.5162 -1.6185
 2613SOL     OW12200   2.019  11.064   3.651 -0.1334 -0.4049  0.0853
 2613SOL    HW112201   2.106  11.062   3.691 -0.6148 -0.1999  1.1678
 2613SOL    HW212202   2.032  11.027   3.563  1.2245  0.5268 -0.1416
 2614SOL     OW12203   3.598   7.918  10.680  0.4491  0.3500  0.5225
 2614SOL    HW112204   3.505   7.941  10.683  0.6865  1.2615  2.6507
 2614SOL    HW212205   3.617   7.907  10.586 -1.9811 -0.7570  0.0790
 2615SOL     OW12206   9.634   6.142   9.952 -0.1097 -0.2654  0.2854
 2615SOL    HW112207   9.649   6.070   9.889 -1.9351 -2.4069  2.1346
 2615SOL    HW212208   9.560   6.190   9.916 -0.7236 -1.0824  0.4162
 2616SOL     OW12209   5.020   1.923   3.941  0.1915 -0.0653 -0.0255
 2616SOL    HW112210   4.996   1.920   3.849 -0.4890  0.1058  0.1402
 2616SOL    HW212211   5.116   1.922   3.941  0.2039  0.6557 -0.7538
 2617SOL     OW12212   4.607   8.709   0.175  0.0641  0.4582 -0.7114
 2617SOL    HW112213   4.612   8.644   0.105  0.1987  0.7150 -0.9418
 2617SOL    HW212214   4.698   8.724   0.200 -0.0618 -1.2566  1.0445
 2618SOL     OW12215   4.463   8.764   5.735 -0.0172 -0.1739  0.0430
 2618SOL    HW112216   4.482   8.857   5.749 -1.2884  0.0654  0.3819
 2618SOL    HW212217   4.543   8.728   5.697  0.9059  0.8117  0.9687
 2619SOL     OW12218   9.651   8.510   7.012 -0.4855  0.1513  0.3125
 2619SOL    HW112219   9.582   8.531   7.074 -1.4543 -0.6062 -0.4655
 2619SOL    HW212220   9.727   8.490   7.066 -0.7237  1.4572  1.1694
 2620SOL     OW12221   3.668  10.403   6.881  0.6223 -0.5082 -0.1612
 2620SOL    HW112222   3.706  10.489   6.861 -0.0912 -0.2412 -0.3929
 2620SOL    HW212223   3.576  10.411   6.857 -0.0249 -0.5355  2.1223
 2621SOL     OW12224   8.451   2.257   0.544  0.0329  0.0328 -0.4443
 2621SOL    HW112225   8.546   2.265   0.540  0.3399 -1.1743  2.1185
 2621SOL    HW212226   8.426   2.220   0.459  2.1804 -1.9227 -0.3308
 2622SOL     OW12227  10.032   4.610  10.213  0.0863 -0.5301  0.4629
 2622SOL    HW112228  10.011   4.691  10.260 -0.7164 -0.4955  0.0597
 2622SOL    HW212229  10.028   4.542  10.280 -0.0991 -0.3508  0.6369
 2623SOL     OW12230   4.745   9.626   5.317  0.7143 -0.2545  0.1834
 2623SOL    HW112231   4.761   9.575   5.397 -0.2145  0.8100  1.0905
 2623SOL    HW212232   4.720   9.561   5.252 -2.4100 -0.9167  1.8138
 2624SOL     OW12233   7.561   5.121   0.342 -0.0822 -0.3823  0.4161
 2624SOL    HW112234   7.587   5.034   0.311 -1.9272 -0.7026 -0.3648
 2624SOL    HW212235   7.496   5.104   0.411 -0.0555  0.3820  0.6447
 2625SOL     OW12236  10.997   8.407   5.101 -0.3763 -0.4893 -0.6755
 2625SOL    HW112237  10.944   8.329   5.117 -0.2398 -0.5920 -0.7246
 2625SOL    HW212238  10.945   8.479   5.136  0.2383 -0.7891  0.9667
 2626SOL     OW12239   9.763   8.542   1.139  0.2281  0.3231  0.1306
 2626SOL    HW112240   9.785   8.635   1.138  0.1458  0.3418  0.0021
 2626SOL    HW212241   9.667   8.540   1.142  0.2489  0.2419  0.8548
 2627SOL     OW12242   0.012   8.015  10.057  0.7188 -0.3807  0.1683
 2627SOL    HW112243   0.060   7.949  10.008 -0.5944 -3.1064  2.2850
 2627SOL    HW212244   0.067   8.034  10.133 -0.1536 -1.2799  1.0547
 2628SOL     OW12245   6.289   6.075   2.830 -0.4327 -0.4108 -0.1369
 2628SOL    HW112246   6.357   6.087   2.764 -0.1456 -0.1395  0.2051
 2628SOL    HW212247   6.212   6.049   2.780  0.3324 -2.3162 -0.3804
 2629SOL     OW12248  10.782  10.980   3.021  0.2294 -0.3713  0.1766
 2629SOL    HW112249  10.690  10.964   3.001  0.3835 -0.6492 -0.3428
 2629SOL    HW212250  10.783  11.067   3.061 -0.1653 -0.0120 -0.5711
 2630SOL     OW12251   8.615   9.501   4.748 -0.2474  0.5754 -0.3549
 2630SOL    HW112252   8.548   9.445   4.710 -0.9067  0.6442  0.6646
 2630SOL    HW212253   8.628   9.467   4.837  1.7525 -0.0141 -0.8321
 2631SOL     OW12254   0.105   3.129   8.325 -0.2184  0.0005  0.8302
 2631SOL    HW112255   0.134   3.191   8.258 -0.0169 -0.3322  0.6038
 2631SOL    HW212256   0.013   3.112   8.304 -0.3704  0.4897  1.1026
 2632SOL     OW12257   1.501   6.620   9.022 -0.1075 -0.7236  0.4113
 2632SOL    HW112258   1.452   6.692   9.059  0.6003 -0.0275  0.0266
 2632SOL    HW212259   1.435   6.565   8.980 -0.5826  0.0690  0.1054
 2633SOL     OW12260  10.042   2.682   1.741 -0.4535 -0.0752  0.1784
 2633SOL    HW112261  10.115   2.646   1.791 -1.3679 -0.0384  1.5892
 2633SOL    HW212262  10.068   2.771   1.720 -0.3084  0.1320  1.1831
 2634SOL     OW12263   7.916   7.018   2.730 -0.0449 -0.0037 -0.3796
 2634SOL    HW112264   7.835   7.067   2.745  0.4385  1.0974 -1.1741
 2634SOL    HW212265   7.977   7.053   2.795 -0.0698 -0.5203 -0.0704
 2635SOL     OW12266   7.825   7.055   3.905 -0.0313  0.3475 -0.2267
 2635SOL    HW112267   7.893   6.995   3.937 -1.1269 -0.1961  1.1792
 2635SOL    HW212268   7.800   7.107   3.982 -0.2162  1.5452 -1.0587
 2636SOL     OW12269   1.255   7.884   4.506 -0.4191 -0.3417  0.3672
 2636SOL    HW112270   1.177   7.896   4.452  0.0960 -0.8971 -0.5304
 2636SOL    HW212271   1.312   7.958   4.484 -0.9748  0.4530  1.5503
 2637SOL     OW12272   5.327   5.423   4.272  0.1239 -0.1831 -0.7052
 2637SOL    HW112273   5.291   5.511   4.262  0.2227 -0.1877 -1.1074
 2637SOL    HW212274   5.253   5.364   4.259  0.1539 -0.1734 -0.9219
 2638SOL     OW12275   2.650  10.086   2.602 -0.1021 -0.2427  0.1621
 2638SOL    HW112276   2.631  10.112   2.512  0.5349  0.5190  0.2436
 2638SOL    HW212277   2.745  10.086   2.608 -0.1250 -0.9294  0.6582
 2639SOL     OW12278   8.083   4.814   2.477  0.1607  0.2852  0.2232
 2639SOL    HW112279   8.156   4.874   2.487  2.0789 -1.5471 -1.7179
 2639SOL    HW212280   8.075   4.770   2.562  1.4567  0.3990  0.4161
 2640SOL     OW12281   0.182   3.630   8.707 -0.1746  0.0227  0.0283
 2640SOL    HW112282   0.113   3.579   8.664  0.4489 -1.1946  0.4107
 2640SOL    HW212283   0.254   3.567   8.718 -0.5862 -0.0114  3.5940
 2641SOL     OW12284   4.353   6.998   0.470  0.6878 -0.4835  0.3291
 2641SOL    HW112285   4.350   6.902   0.461 -0.4715 -0.5213  0.9301
 2641SOL    HW212286   4.306   7.016   0.552 -0.8393  0.7134 -0.7456
 2642SOL     OW12287   4.197   4.331   3.211  0.0306  0.3980 -0.2647
 2642SOL    HW112288   4.104   4.352   3.223  0.4925  2.1841  0.6204
 2642SOL    HW212289   4.237   4.413   3.182  1.1559 -0.6704 -1.9321
 2643SOL     OW12290   4.316   8.477  10.889  0.0087 -0.0718  0.4497
 2643SOL    HW112291   4.324   8.432  10.974 -0.0474  0.0137  0.5007
 2643SOL    HW212292   4.368   8.423  10.829 -0.0231 -0.1816  0.5203
 2644SOL     OW12293   8.888   8.592   5.022  0.6788  0.2418 -0.1426
 2644SOL    HW112294   8.852   8.649   4.954 -0.4136  1.1845  1.1704
 2644SOL    HW212295   8.962   8.640   5.058  0.4809  0.3113  0.1755
 2645SOL     OW12296   6.260   3.776   4.789 -0.0558  0.6589 -0.1154
 2645SOL    HW112297   6.347   3.809   4.812  0.5347 -1.1677  0.3930
 2645SOL    HW212298   6.271   3.742   4.700  0.7047 -2.5178  1.0542
 2646SOL     OW12299   7.983   7.191   7.873 -0.1714 -0.7638  0.1493
 2646SOL    HW112300   8.008   7.168   7.962 -0.3089 -0.3452  0.2987
 2646SOL    HW212301   7.973   7.286   7.875  1.1119 -0.5801 -0.6246
 2647SOL     OW12302  10.207   9.761   4.813 -0.4701  0.0532 -0.1490
 2647SOL    HW112303  10.150   9.725   4.880  0.2019 -1.9938 -0.6179
 2647SOL    HW212304  10.288   9.782   4.859  0.5336 -2.7182 -0.4595
 2648SOL     OW12305   9.670   9.840   1.574 -0.2318  0.1435  0.0800
 2648SOL    HW112306   9.592   9.895   1.562 -0.6781 -0.1687  1.3705
 2648SOL    HW212307   9.637   9.751   1.568 -0.3682 -0.0294  2.5155
 2649SOL     OW12308   5.558   8.093   8.294 -0.2599 -0.5628  0.0803
 2649SOL    HW112309   5.536   8.159   8.360  2.2414 -0.8463  1.3460
 2649SOL    HW212310   5.539   8.134   8.210  1.7086  2.0662  0.7846
 2650SOL     OW12311   3.241   9.094   4.944 -0.3871  0.1798 -0.5145
 2650SOL    HW112312   3.230   9.189   4.951 -2.3494  0.0821 -1.5023
 2650SOL    HW212313   3.238   9.077   4.850 -1.1440 -0.9431 -0.3087
 2651SOL     OW12314   4.588   3.810   2.900 -0.0561  0.1777 -0.1262
 2651SOL    HW112315   4.552   3.736   2.948  0.4597 -1.3118 -1.8941
 2651SOL    HW212316   4.673   3.827   2.940 -0.7722  0.7885  1.1962
 2652SOL     OW12317   9.470   9.446   2.526  0.2184 -0.1105 -0.4597
 2652SOL    HW112318   9.510   9.532   2.537 -2.6042  1.2792 -0.2170
 2652SOL    HW212319   9.460   9.436   2.431  0.8918 -0.3832 -0.5108
 2653SOL     OW12320   0.624   7.438   8.074  0.0795  0.0921  0.1347
 2653SOL    HW112321   0.553   7.467   8.016  0.9355 -0.2956 -1.1524
 2653SOL    HW212322   0.580   7.416   8.156 -1.0967  1.2307 -0.1477
 2654SOL     OW12323   9.574   7.096   5.678 -0.2698 -0.3272 -0.0428
 2654SOL    HW112324   9.615   7.140   5.753 -0.3623 -0.0398 -0.1626
 2654SOL    HW212325   9.558   7.166   5.614  0.4006 -0.6715 -0.5973
 2655SOL     OW12326   2.229   9.358   2.498 -0.3136 -0.3228 -0.3250
 2655SOL    HW112327   2.148   9.332   2.454 -0.0261 -1.1421 -0.3838
 2655SOL    HW212328   2.295   9.296   2.466 -0.0197 -0.7252  0.9901
 2656SOL     OW12329   5.321   6.548   8.944 -0.3922  0.0140 -0.5390
 2656SOL    HW112330   5.342   6.454   8.944 -3.8624 -0.9569  1.6121
 2656SOL    HW212331   5.268   6.561   8.866 -1.1477 -0.2091 -0.0759
 2657SOL     OW12332  10.712   9.813   4.909  0.2623 -0.4016  0.2125
 2657SOL    HW112333  10.704   9.744   4.843  0.6031  0.3779 -0.6661
 2657SOL    HW212334  10.761   9.771   4.981  1.2380 -0.8316 -0.6734
 2658SOL     OW12335   4.215   6.501   0.638 -0.0792 -0.0570  0.3501
 2658SOL    HW112336   4.296   6.459   0.609  0.5789 -0.3477  2.4589
 2658SOL    HW212337   4.160   6.429   0.667 -0.6693  0.2278 -0.0480
 2659SOL     OW12338   7.255   7.789  10.726 -0.2524  0.2085  0.4127
 2659SOL    HW112339   7.170   7.805  10.685  0.7048  1.2217 -1.2972
 2659SOL    HW212340   7.234   7.749  10.811 -2.3751 -0.4703 -0.3716
 2660SOL     OW12341  10.368   6.526   7.426  0.2344 -0.0313  0.3876
 2660SOL    HW112342  10.362   6.604   7.371  2.7229  0.0777  0.1485
 2660SOL    HW212343  10.397   6.560   7.511  0.8688 -0.6253  0.4167
 2661SOL     OW12344   7.053   0.315   2.352 -0.0793  0.1967  0.0567
 2661SOL    HW112345   7.115   0.264   2.405  0.3541  0.9521  0.2978
 2661SOL    HW212346   7.098   0.330   2.269 -0.3433 -0.0989 -0.1435
 2662SOL     OW12347   4.098  10.828   3.207  0.2621 -0.9987 -0.3739
 2662SOL    HW112348   4.093  10.809   3.301  1.5237  0.9914  0.1547
 2662SOL    HW212349   4.009  10.812   3.175  0.0881 -2.8767  0.8873
 2663SOL     OW12350   2.048   0.232   4.922  0.6689 -0.6511 -0.3326
 2663SOL    HW112351   2.002   0.201   5.000 -2.1367 -0.5829 -1.8352
 2663SOL    HW212352   2.096   0.155   4.890 -2.3934 -2.2987 -1.3740
 2664SOL     OW12353   3.955   6.045   0.339  0.5173 -0.1875  0.1414
 2664SOL    HW112354   4.012   5.974   0.310 -1.0469 -1.2180 -0.5713
 2664SOL    HW212355   3.982   6.121   0.288  1.7395 -0.4401  0.3883
 2665SOL     OW12356   0.318   6.834   8.350 -0.3115 -0.0919  0.2907
 2665SOL    HW112357   0.269   6.915   8.337  0.0409  0.1510  0.4496
 2665SOL    HW212358   0.290   6.777   8.279  0.6871  0.7845 -0.8501
 2666SOL     OW12359  10.895  11.005   8.787 -0.1565  0.3052  0.5598
 2666SOL    HW112360  10.958  10.933   8.787 -0.0203  0.4214  0.8982
 2666SOL    HW212361  10.810  10.963   8.805 -0.3531  0.0121 -0.8872
 2667SOL     OW12362   2.116   4.205   9.589  0.0695 -0.1455  0.1286
 2667SOL    HW112363   2.098   4.114   9.610 -0.8313  0.4657  2.3518
 2667SOL    HW212364   2.211   4.213   9.598  0.0513 -0.6694  0.9052
 2668SOL     OW12365  10.116   3.334   4.359  0.4878  0.2948  0.1572
 2668SOL    HW112366  10.025   3.310   4.343  0.7738 -1.5378  1.0448
 2668SOL    HW212367  10.118   3.428   4.346 -1.1604  0.1605 -1.5994
 2669SOL     OW12368   7.954   4.946   8.384  0.4366  0.3086 -0.2889
 2669SOL    HW112369   7.950   5.025   8.439  0.2243  0.1195 -0.0292
 2669SOL    HW212370   8.017   4.889   8.428 -0.6241 -0.3434  0.4347
 2670SOL     OW12371   2.904  10.990   3.039 -0.1790  0.3941 -0.0695
 2670SOL    HW112372   2.930  10.970   2.950 -1.8871 -1.0689 -0.3181
 2670SOL    HW212373   2.961  10.936   3.094  0.1713  0.4886 -0.3443
 2671SOL     OW12374   3.020   8.298  11.025 -0.3796  0.3913 -0.4290
 2671SOL    HW112375   3.026   8.228  11.089  0.1991 -0.7519 -1.6956
 2671SOL    HW212376   2.940   8.345  11.048 -2.4728 -2.4775 -1.2778
 2672SOL     OW12377   5.609   9.071   2.595 -0.3855 -0.1444  0.6179
 2672SOL    HW112378   5.573   9.003   2.538 -1.3338  1.1574 -0.3946
 2672SOL    HW212379   5.697   9.087   2.560 -0.4209 -0.3662  0.4239
 2673SOL     OW12380  11.057   4.270   0.275  0.3955 -0.5131  0.7325
 2673SOL    HW112381  11.096   4.280   0.188 -0.7042  2.3197  0.4469
 2673SOL    HW212382  11.095   4.341   0.327  1.4058 -2.4495  2.7905
 2674SOL     OW12383   8.586  10.150   3.702 -0.4967  0.3424  0.0299
 2674SOL    HW112384   8.517  10.213   3.723  0.7696  1.5509  0.7337
 2674SOL    HW212385   8.665  10.203   3.693 -0.0739 -0.6610 -3.4033
 2675SOL     OW12386   3.850   7.041   0.593 -0.3666 -0.6784  0.1278
 2675SOL    HW112387   3.918   7.078   0.650 -0.8620  0.1593  0.1858
 2675SOL    HW212388   3.791   7.114   0.575  0.6969 -0.4490 -2.8894
 2676SOL     OW12389   2.915  10.075   2.603  0.2576 -0.0162 -0.2939
 2676SOL    HW112390   2.960  10.159   2.599 -0.1925  0.2490  0.1644
 2676SOL    HW212391   2.986  10.010   2.606  0.6053  0.3902  0.3490
 2677SOL     OW12392   5.870   0.030   6.891 -0.4757 -0.2212 -0.1368
 2677SOL    HW112393   5.862   0.106   6.948 -0.6126  0.3232 -0.8669
 2677SOL    HW212394   5.798   0.040   6.828 -0.7196 -1.1479 -0.0182
 2678SOL     OW12395   0.836  10.334   3.386 -0.0430  0.3895  0.0165
 2678SOL    HW112396   0.834  10.408   3.447 -0.6228 -0.7266  1.4167
 2678SOL    HW212397   0.746  10.327   3.354 -0.0077  0.2461 -0.0533
 2679SOL     OW12398   6.296  10.406   8.970 -0.4296 -0.0246  0.5426
 2679SOL    HW112399   6.373  10.431   8.918 -0.0286 -1.0018  0.6460
 2679SOL    HW212400   6.329  10.339   9.030 -1.0792  0.4815  1.4817
 2680SOL     OW12401   9.753   8.599   5.296  0.4677 -0.0106  0.0321
 2680SOL    HW112402   9.658   8.590   5.307  0.3633  1.6548  0.6754
 2680SOL    HW212403   9.769   8.693   5.302  2.2305 -0.3194  0.4776
 2681SOL     OW12404   1.883  10.243   8.361  0.0941 -0.3355  0.5732
 2681SOL    HW112405   1.851  10.171   8.414  0.2947 -0.7665  0.1112
 2681SOL    HW212406   1.809  10.304   8.357  0.5143  0.3711  2.4814
 2682SOL     OW12407   7.539   5.343   6.192  0.0398 -0.1609 -0.4589
 2682SOL    HW112408   7.513   5.432   6.169  0.4516 -0.2065 -1.1345
 2682SOL    HW212409   7.470   5.288   6.157 -0.4171 -0.0891  0.3056
 2683SOL     OW12410   1.111   8.255   6.648  0.3388 -0.7981 -0.1769
 2683SOL    HW112411   1.172   8.309   6.699  0.7627 -0.9703 -0.4923
 2683SOL    HW212412   1.034   8.247   6.703  0.4123 -0.1688  0.0274
 2684SOL     OW12413   9.237   5.647  10.876  0.6483 -0.6953 -0.1249
 2684SOL    HW112414   9.173   5.598  10.927 -0.7191  0.4113 -0.7338
 2684SOL    HW212415   9.197   5.657  10.789  2.1348 -0.9528 -0.8760
 2685SOL     OW12416   5.068   5.066  11.111 -0.1642  0.0078 -0.3997
 2685SOL    HW112417   5.083   4.984  11.064  0.2408  0.2277 -0.6595
 2685SOL    HW212418   5.087   5.135  11.047  0.0336  0.3057 -0.0251
 2686SOL     OW12419   9.036   4.486   6.714 -0.2915  0.2319 -0.3017
 2686SOL    HW112420   9.006   4.460   6.801 -0.0309  0.4215 -0.1514
 2686SOL    HW212421   8.959   4.522   6.671 -0.4177  0.1522 -0.1438
 2687SOL     OW12422   0.224   1.434   8.881 -0.5532 -0.1729 -0.0470
 2687SOL    HW112423   0.250   1.475   8.798 -1.1000 -0.1843 -0.2316
 2687SOL    HW212424   0.128   1.440   8.881 -0.6580 -1.4578 -0.0901
 2688SOL     OW12425   4.467   4.901   4.063  0.1164 -0.3709  0.0274
 2688SOL    HW112426   4.472   4.882   3.970 -0.2564  1.4347 -0.3998
 2688SOL    HW212427   4.557   4.921   4.089  0.1799 -0.6142 -0.0070
 2689SOL     OW12428   8.868   1.051   4.937  0.1011  0.1288 -0.7371
 2689SOL    HW112429   8.857   0.973   4.991  1.6070 -0.2580 -0.9486
 2689SOL    HW212430   8.822   1.120   4.986  1.0483 -0.2957  0.8414
 2690SOL     OW12431   3.190   7.697   3.316  0.2330 -0.3626 -0.0874
 2690SOL    HW112432   3.226   7.763   3.376 -0.6530 -0.8720  1.0358
 2690SOL    HW212433   3.252   7.624   3.322  0.2669 -0.3254  0.0283
 2691SOL     OW12434  10.071   5.790   7.202 -0.7637 -0.0010 -0.4342
 2691SOL    HW112435  10.141   5.757   7.259 -1.2856  0.4050  0.4592
 2691SOL    HW212436  10.022   5.712   7.176 -0.7593 -0.1479 -0.0032
 2692SOL     OW12437   7.971   6.994   2.007 -0.6503 -0.1798 -0.2751
 2692SOL    HW112438   8.020   7.076   2.007 -2.0741  0.7057 -0.9258
 2692SOL    HW212439   7.990   6.954   1.923 -0.6012 -0.1132 -0.2955
 2693SOL     OW12440   2.331   7.718   6.452  0.3678 -0.4346  0.1688
 2693SOL    HW112441   2.248   7.683   6.418  1.0714 -1.8544 -0.1555
 2693SOL    HW212442   2.395   7.650   6.432  1.3987  0.1169  1.5165
 2694SOL     OW12443   4.152  10.992   9.770  0.0173 -0.0199 -0.2268
 2694SOL    HW112444   4.068  11.026   9.739 -0.0610 -0.0539 -0.0567
 2694SOL    HW212445   4.158  11.022   9.861 -0.9006 -1.9544  0.5272
 2695SOL     OW12446   9.315   9.975   2.094  0.2415  0.3769  0.3508
 2695SOL    HW112447   9.233   9.925   2.087  1.3742 -1.4242 -0.7232
 2695SOL    HW212448   9.291  10.064   2.067 -1.4956  0.0566  0.7149
 2696SOL     OW12449   0.930   2.488   3.458  0.0145 -0.0840 -0.3188
 2696SOL    HW112450   0.856   2.463   3.403  0.3011 -0.1552 -0.6812
 2696SOL    HW212451   0.912   2.578   3.484 -0.2336 -0.1263 -0.3439
 2697SOL     OW12452  11.070   0.933   5.208  0.0923 -0.5756  0.0694
 2697SOL    HW112453  11.026   0.852   5.183  0.8957 -1.2232  0.7219
 2697SOL    HW212454  11.105   0.917   5.295 -1.5359  1.2042  1.1346
 2698SOL     OW12455   5.838   6.098   0.591  0.0938  0.6935 -0.5135
 2698SOL    HW112456   5.751   6.109   0.552 -0.9364  1.5087  1.8284
 2698SOL    HW212457   5.844   6.167   0.657  0.8452 -1.7831  2.2182
 2699SOL     OW12458  10.843   3.450   5.499 -0.2925 -0.6109  0.5572
 2699SOL    HW112459  10.797   3.410   5.426  0.9358  0.6546 -0.9723
 2699SOL    HW212460  10.779   3.452   5.570 -2.1596 -0.1208 -1.0744
 2700SOL     OW12461   2.936   4.797   1.336  0.3693 -0.2505  0.0435
 2700SOL    HW112462   2.987   4.861   1.386  0.3411  0.1465 -0.4294
 2700SOL    HW212463   3.001   4.735   1.303  0.2616 -1.2399  1.5981
 2701SOL     OW12464   0.971   1.382  10.840 -0.0951 -0.2406 -0.3084
 2701SOL    HW112465   1.055   1.344  10.814 -0.4556 -0.1962 -1.6417
 2701SOL    HW212466   0.923   1.310  10.881 -0.1598 -0.8265 -1.3670
 2702SOL     OW12467   9.120   9.020   4.045 -0.2931 -0.6388  0.0375
 2702SOL    HW112468   9.040   9.025   3.993 -0.1797 -1.7975 -0.2818
 2702SOL    HW212469   9.095   9.053   4.131 -1.0264 -0.6533 -0.1647
 2703SOL     OW12470   4.684   5.439   0.945 -0.0063 -0.5385 -0.3126
 2703SOL    HW112471   4.625   5.368   0.918 -1.4145  0.4098  0.1171
 2703SOL    HW212472   4.697   5.491   0.866 -1.6872  0.5468  0.0654
 2704SOL     OW12473  10.578   5.167   8.377 -0.3594 -0.1106 -0.1511
 2704SOL    HW112474  10.615   5.243   8.332  1.0632 -0.0460  1.0346
 2704SOL    HW212475  10.484   5.185   8.381 -0.0353  1.7157  0.2920
 2705SOL     OW12476   6.225   3.683   0.640  0.3434  0.1571  0.1694
 2705SOL    HW112477   6.154   3.714   0.583  0.5650  1.1081  0.3950
 2705SOL    HW212478   6.303   3.726   0.606  0.2961  1.7647  1.9410
 2706SOL     OW12479   2.389   4.234   6.819  0.4206  0.2220  0.1350
 2706SOL    HW112480   2.462   4.242   6.881 -0.2050  0.9313  0.8011
 2706SOL    HW212481   2.410   4.295   6.749  0.2139  0.8268  0.5925
 2707SOL     OW12482   6.410   5.768   4.912 -0.5762 -0.7712  0.3772
 2707SOL    HW112483   6.329   5.718   4.914 -1.1406  0.1032  0.1809
 2707SOL    HW212484   6.381   5.859   4.908  0.4155 -0.4759 -0.3682
 2708SOL     OW12485   9.266   0.334   6.059 -0.1120 -0.0701 -0.1154
 2708SOL    HW112486   9.332   0.345   6.128 -2.5669  1.1937  2.1860
 2708SOL    HW212487   9.297   0.392   5.989  1.4513  0.1029  0.6579
 2709SOL     OW12488   4.768   5.550   4.155  0.4956 -0.0633  0.4597
 2709SOL    HW112489   4.719   5.552   4.073 -0.2922 -1.3476  0.8630
 2709SOL    HW212490   4.855   5.580   4.132  0.7780 -1.9443 -1.2388
 2710SOL     OW12491   2.087   3.315   5.074 -0.2533  0.3121  0.4834
 2710SOL    HW112492   2.132   3.254   5.015 -0.7245  0.1483  0.2954
 2710SOL    HW212493   2.158   3.357   5.123  0.0493 -1.1735  1.3816
 2711SOL     OW12494   4.458   1.459   6.810  0.0513  0.1514 -0.2957
 2711SOL    HW112495   4.414   1.375   6.824  0.1443  0.3312  1.2201
 2711SOL    HW212496   4.551   1.436   6.805  0.2931  0.3213  2.2128
 2712SOL     OW12497   3.119   7.443   7.171 -0.1434 -0.3697 -0.8627
 2712SOL    HW112498   3.189   7.400   7.221 -1.7246 -0.7705  1.1670
 2712SOL    HW212499   3.126   7.535   7.195 -1.0965 -0.6069  0.4464
 2713SOL     OW12500   3.914   9.784   0.991  0.1921  0.9168  0.6302
 2713SOL    HW112501   3.826   9.779   0.954  0.8687  1.1697 -1.1072
 2713SOL    HW212502   3.902   9.821   1.079 -1.2741  2.4840 -0.1917
 2714SOL     OW12503   3.657   7.659   8.316  0.2193 -0.0857 -0.0664
 2714SOL    HW112504   3.708   7.736   8.339 -1.4423  0.7865  0.9163
 2714SOL    HW212505   3.705   7.618   8.244  1.8887  1.0486  0.3544
 2715SOL     OW12506   3.363   6.643   0.122 -0.1827  0.0546  0.3310
 2715SOL    HW112507   3.358   6.550   0.098  1.4247 -0.1441  0.6758
 2715SOL    HW212508   3.358   6.643   0.218  0.8616  0.2272  0.3929
 2716SOL     OW12509   5.622   1.024   2.447 -0.3187  0.1905 -0.6612
 2716SOL    HW112510   5.537   1.061   2.424  0.0460  0.8852 -0.9361
 2716SOL    HW212511   5.628   1.034   2.542 -0.8159 -0.4629 -0.5590
 2717SOL     OW12512   1.361   9.587  10.336 -0.3182 -0.3530  0.3619
 2717SOL    HW112513   1.440   9.641  10.341 -0.5131 -0.1278  1.3989
 2717SOL    HW212514   1.294   9.638  10.382 -1.6440  0.3652 -2.1761
 2718SOL     OW12515   2.912   2.131   8.714  0.5373  0.3407 -0.2590
 2718SOL    HW112516   2.923   2.210   8.662  1.0752  1.1623  1.0458
 2718SOL    HW212517   2.968   2.066   8.671  0.8112  0.9327 -0.8154
 2719SOL     OW12518   9.168   2.169   4.739 -0.1399 -0.4608  0.0392
 2719SOL    HW112519   9.101   2.230   4.772  0.6866  1.2620 -1.3339
 2719SOL    HW212520   9.127   2.083   4.747 -1.1156  0.1290  2.6597
 2720SOL     OW12521   6.223   8.094   8.634  0.0274 -0.7285  0.7854
 2720SOL    HW112522   6.301   8.046   8.660  0.4644  0.0382  0.9348
 2720SOL    HW212523   6.251   8.186   8.632 -1.2400 -0.2703  2.3078
 2721SOL     OW12524   9.903   2.533   6.236  0.1908 -0.5335  0.3569
 2721SOL    HW112525   9.836   2.602   6.226  0.0395 -0.9931 -2.7924
 2721SOL    HW212526   9.986   2.580   6.234  0.0377 -0.2120  1.2205
 2722SOL     OW12527   0.287   0.091   3.714  0.9649  0.2323 -0.3829
 2722SOL    HW112528   0.251   0.160   3.657  2.2428 -0.1337 -1.7124
 2722SOL    HW212529   0.211   0.041   3.742  0.2716  0.3376 -1.9322
 2723SOL     OW12530   1.057   5.572   6.176 -0.6301  0.2708 -0.3023
 2723SOL    HW112531   1.144   5.604   6.151 -0.7976  0.5086 -0.5969
 2723SOL    HW212532   1.024   5.528   6.098 -0.7075  0.0343 -0.1376
 2724SOL     OW12533   9.732  10.913   0.855  0.2140  0.3191 -0.0018
 2724SOL    HW112534   9.738  10.882   0.765 -1.0226 -0.8749  0.3080
 2724SOL    HW212535   9.686  10.844   0.902  1.1523  0.7527  1.6455
 2725SOL     OW12536   3.745   1.433   4.934  0.1672 -0.0537 -0.3310
 2725SOL    HW112537   3.767   1.341   4.917 -2.4383 -0.6447 -0.8741
 2725SOL    HW212538   3.650   1.434   4.940  0.2529  2.1031  2.8964
 2726SOL     OW12539   7.745   5.431   5.453  0.2973 -0.2186 -0.2748
 2726SOL    HW112540   7.691   5.398   5.381 -0.2218  0.3136 -0.1330
 2726SOL    HW212541   7.783   5.352   5.492 -1.3705 -0.7292  0.4116
 2727SOL     OW12542   1.195   3.826   4.489  0.0809 -0.1595 -0.4591
 2727SOL    HW112543   1.207   3.887   4.416 -1.0162  0.5392 -0.0778
 2727SOL    HW212544   1.279   3.827   4.535  0.5340 -0.0268 -1.2648
 2728SOL     OW12545   4.947   4.986   4.797  0.2063 -0.1932 -0.0228
 2728SOL    HW112546   4.960   5.052   4.730  4.1753  1.0682  1.6590
 2728SOL    HW212547   4.973   4.904   4.755 -2.0248 -0.3197 -1.2985
 2729SOL     OW12548   0.278   2.795   9.264  0.9635  0.6334 -0.7247
 2729SOL    HW112549   0.361   2.758   9.294  0.4222  0.1958  0.2910
 2729SOL    HW212550   0.302   2.878   9.223  2.0500 -0.2068 -1.8229
 2730SOL     OW12551   8.622   1.391   4.030  0.1876 -0.3732 -0.5159
 2730SOL    HW112552   8.543   1.440   4.050  1.5338  0.9531  2.0964
 2730SOL    HW212553   8.683   1.456   3.996  0.6258 -1.0859 -1.1377
 2731SOL     OW12554   9.410   7.733   9.635 -0.3185 -0.0257 -0.1773
 2731SOL    HW112555   9.415   7.801   9.702  2.5936  1.3425 -1.5689
 2731SOL    HW212556   9.446   7.655   9.677  0.6665  0.5823  0.1436
 2732SOL     OW12557   0.722   4.841   5.545 -0.4071 -0.3839  0.3906
 2732SOL    HW112558   0.657   4.883   5.489  0.7181  0.1834 -0.5369
 2732SOL    HW212559   0.747   4.762   5.497  1.9381  1.0454 -0.9232
 2733SOL     OW12560   1.967  10.805   4.723  0.1758  0.2629  0.2795
 2733SOL    HW112561   1.913  10.835   4.795 -1.9390  0.3125 -1.2312
 2733SOL    HW212562   1.911  10.745   4.674  2.1056 -1.0939 -0.4184
 2734SOL     OW12563   6.056   4.011   2.886  0.0566 -0.3575 -0.1973
 2734SOL    HW112564   5.997   3.935   2.882 -0.6078  0.1137  0.5029
 2734SOL    HW212565   5.998   4.087   2.890  0.7164  0.1511 -0.0663
 2735SOL     OW12566   6.786  11.053   6.806  0.0367 -0.2272 -0.3219
 2735SOL    HW112567   6.840  10.989   6.760 -0.4569 -0.8529 -0.0448
 2735SOL    HW212568   6.827  11.138   6.786  1.5438 -0.7308  0.4297
 2736SOL     OW12569   8.432  11.097   3.765  0.1397 -0.6283 -0.2594
 2736SOL    HW112570   8.369  11.119   3.697 -2.1645 -0.4948  1.7888
 2736SOL    HW212571   8.455  11.005   3.748  1.2760 -0.0302 -2.3581
 2737SOL     OW12572   0.449   3.829   5.650  0.0216  0.6192  0.1742
 2737SOL    HW112573   0.396   3.897   5.608  1.5009  1.7189 -0.0197
 2737SOL    HW212574   0.451   3.757   5.586 -1.3458  0.4786  0.2700
 2738SOL     OW12575   8.613   7.456   7.755 -0.5299  0.6305  0.9388
 2738SOL    HW112576   8.704   7.481   7.770  0.1305  0.0851 -1.6286
 2738SOL    HW212577   8.608   7.364   7.782  0.6539 -0.3763 -1.8884
 2739SOL     OW12578   2.600   9.526   6.876  0.2946  0.2984 -0.5910
 2739SOL    HW112579   2.548   9.477   6.940 -0.6018  1.9854  0.0170
 2739SOL    HW212580   2.537   9.584   6.833  1.3271  0.9164 -1.3019
 2740SOL     OW12581  10.912   1.636   8.204 -0.3709 -0.2237  0.2466
 2740SOL    HW112582  10.842   1.571   8.215 -0.6106 -0.0475 -0.1897
 2740SOL    HW212583  10.870   1.708   8.156  0.1034 -0.1016  0.0079
 2741SOL     OW12584   3.034   4.818   2.440  0.2411  0.2515 -0.1239
 2741SOL    HW112585   3.035   4.785   2.530  1.6564 -0.3269 -0.3340
 2741SOL    HW212586   3.107   4.773   2.397  1.3816  2.6143 -0.7984
 2742SOL     OW12587   0.110  10.420   1.862  0.3962 -0.0126  0.3182
 2742SOL    HW112588   0.161  10.406   1.942 -1.3770 -1.5742  1.2595
 2742SOL    HW212589   0.038  10.356   1.868 -1.2349  1.5644 -1.2987
 2743SOL     OW12590   5.391   7.789   5.798  0.0857  0.0325 -0.3807
 2743SOL    HW112591   5.370   7.706   5.756  1.8063 -0.1038 -1.0538
 2743SOL    HW212592   5.486   7.787   5.809 -0.1275  0.5719  2.4894
 2744SOL     OW12593   2.088   3.268   7.754  0.1960 -0.0888 -0.4143
 2744SOL    HW112594   2.042   3.282   7.671  0.6648 -2.1027 -1.0778
 2744SOL    HW212595   2.138   3.348   7.768  3.7239 -1.2105 -4.5227
 2745SOL     OW12596   0.640   8.739   6.572  0.1747 -0.0821  0.4547
 2745SOL    HW112597   0.623   8.667   6.511 -0.6410 -1.7763  2.5497
 2745SOL    HW212598   0.729   8.768   6.550 -0.1011 -0.5592 -1.5211
 2746SOL     OW12599   4.069   6.098   9.583  0.3717 -0.0683 -1.0209
 2746SOL    HW112600   4.074   6.004   9.566 -1.0892 -0.7276  1.6164
 2746SOL    HW212601   4.008   6.132   9.517 -0.8428 -1.4194 -0.6388
 2747SOL     OW12602   4.694   0.236   7.961  0.1359 -0.1737  0.3010
 2747SOL    HW112603   4.692   0.332   7.967 -1.1706 -0.1564 -0.0614
 2747SOL    HW212604   4.698   0.207   8.052  0.1006  0.2316  0.4357
 2748SOL     OW12605   8.740   3.218   1.005 -0.1057 -0.7630  0.3561
 2748SOL    HW112606   8.658   3.249   0.968  0.7867  0.9786 -0.2764
 2748SOL    HW212607   8.792   3.191   0.929  0.4510 -0.4436  0.6144
 2749SOL     OW12608   9.059   0.642  10.578 -0.4404  0.2026  0.3106
 2749SOL    HW112609   9.059   0.713  10.642 -3.9102 -0.6022  1.4188
 2749SOL    HW212610   9.111   0.573  10.618  0.8149  1.1505  0.3681
 2750SOL     OW12611  10.500   8.810   5.096  0.0588 -0.0568  0.5411
 2750SOL    HW112612  10.438   8.874   5.132  0.5664 -0.1789  1.6904
 2750SOL    HW212613  10.580   8.859   5.083 -0.2226  0.0763 -0.8454
 2751SOL     OW12614   7.775   5.515   6.852 -0.2651 -0.0831  0.7599
 2751SOL    HW112615   7.680   5.521   6.864  0.0041  0.7534  2.6512
 2751SOL    HW212616   7.796   5.585   6.790 -0.8079  0.1132  0.7941
 2752SOL     OW12617   2.215   8.808   4.046 -0.0631 -0.0707  0.0705
 2752SOL    HW112618   2.176   8.852   4.121 -1.4734  1.5527 -1.5182
 2752SOL    HW212619   2.307   8.795   4.070 -0.1942  1.5073  1.5921
 2753SOL     OW12620   8.063   1.327   5.419 -0.1971 -0.6084 -0.0963
 2753SOL    HW112621   8.050   1.421   5.405 -0.5037 -0.4321  1.2389
 2753SOL    HW212622   8.072   1.291   5.331  1.3805  0.8692 -0.5987
 2754SOL     OW12623   4.822   7.886   5.591  0.4060  0.0094 -0.3020
 2754SOL    HW112624   4.829   7.815   5.527  0.2323  1.7688 -2.3756
 2754SOL    HW212625   4.792   7.961   5.540  2.2928  2.0635  1.4460
 2755SOL     OW12626   5.813   6.105   3.379 -0.0634 -0.2830  0.7060
 2755SOL    HW112627   5.857   6.162   3.316  0.6956 -1.7764 -0.1657
 2755SOL    HW212628   5.825   6.149   3.463  1.9055  0.0560  0.2922
 2756SOL     OW12629   2.131   5.679   8.710 -0.1736  0.1221  0.0381
 2756SOL    HW112630   2.173   5.635   8.636 -1.9414 -1.5138 -0.0511
 2756SOL    HW212631   2.062   5.732   8.671  0.0713  0.7168  0.3946
 2757SOL     OW12632   8.412   1.561   2.312  0.3956 -0.2004  0.0729
 2757SOL    HW112633   8.341   1.531   2.255  1.7309 -0.8713 -1.3344
 2757SOL    HW212634   8.405   1.656   2.312 -1.0397 -0.2803  0.7232
 2758SOL     OW12635  10.090   0.617   7.969  0.2995  0.3769 -0.3162
 2758SOL    HW112636  10.040   0.699   7.973 -0.0876  0.1980 -1.1121
 2758SOL    HW212637  10.024   0.551   7.948  0.7269 -0.0159 -0.4320
 2759SOL     OW12638   5.551   2.326   6.502  0.1638  0.0501  0.4986
 2759SOL    HW112639   5.500   2.333   6.421  0.1703  1.3800  0.5801
 2759SOL    HW212640   5.508   2.257   6.552 -0.6456  0.1258 -0.0684
 2760SOL     OW12641   0.610  10.858   3.399 -0.2435  0.4780 -0.2290
 2760SOL    HW112642   0.659  10.781   3.372 -1.5387 -0.5590  0.2691
 2760SOL    HW212643   0.627  10.865   3.493  0.1213  1.0069 -0.3277
 2761SOL     OW12644   2.805  10.123   3.278 -0.9180 -0.4197 -0.4074
 2761SOL    HW112645   2.715  10.151   3.298 -0.7043  1.0243 -1.2851
 2761SOL    HW212646   2.848  10.203   3.247  0.7196 -1.0622  0.1129
 2762SOL     OW12647   3.522   2.567   5.268 -0.0139 -0.2692  0.0114
 2762SOL    HW112648   3.576   2.637   5.302  0.7095 -1.1172  0.6573
 2762SOL    HW212649   3.583   2.508   5.223 -0.6693 -0.2603 -0.9225
 2763SOL     OW12650   5.765  10.717   0.074  0.3129  0.2883  0.0595
 2763SOL    HW112651   5.858  10.738   0.067  0.3467  0.2913  0.4579
 2763SOL    HW212652   5.761  10.651   0.144 -0.2943  2.4883  2.2143
 2764SOL     OW12653   7.206   4.086  11.059  0.1490  0.1869 -0.2339
 2764SOL    HW112654   7.186   4.092  10.965 -0.0080  2.0005 -0.1169
 2764SOL    HW212655   7.282   4.143  11.071 -1.1042  1.6786  1.0633
 2765SOL     OW12656   5.734   3.728  10.702 -0.4570  0.4344  0.4298
 2765SOL    HW112657   5.809   3.783  10.680 -0.8799  0.6039 -0.6124
 2765SOL    HW212658   5.727   3.667  10.629  0.0401 -1.0764  1.5962
 2766SOL     OW12659   7.687   0.793   8.912 -0.1904 -0.1329 -0.3235
 2766SOL    HW112660   7.708   0.814   9.003  0.0309 -0.0971 -0.3828
 2766SOL    HW212661   7.720   0.703   8.900 -2.2858 -1.0370  0.3057
 2767SOL     OW12662   5.073   3.754   1.172  0.2389  0.2766  0.1886
 2767SOL    HW112663   5.162   3.783   1.152  0.8431 -0.1998  2.0509
 2767SOL    HW212664   5.084   3.680   1.231 -1.3765 -1.1221 -1.1506
 2768SOL     OW12665   0.236   7.540   4.593 -0.7314  0.0933  0.2111
 2768SOL    HW112666   0.219   7.482   4.667 -0.4442 -1.5881 -0.9709
 2768SOL    HW212667   0.327   7.566   4.603 -1.2384  1.5213  1.4962
 2769SOL     OW12668   7.163   2.099   1.897  1.0002  0.6203 -0.0405
 2769SOL    HW112669   7.236   2.149   1.860 -0.2409  2.7536  0.1931
 2769SOL    HW212670   7.102   2.088   1.824 -1.8566  5.5918  1.1321
 2770SOL     OW12671  10.044   8.117   7.585  0.4916 -0.5560 -0.0606
 2770SOL    HW112672   9.964   8.111   7.533 -0.2892 -1.9153  1.2524
 2770SOL    HW212673  10.054   8.211   7.602 -0.2014 -0.2638 -1.1449
 2771SOL     OW12674   4.048   7.992   6.261 -0.5654  0.0225  0.0982
 2771SOL    HW112675   4.063   7.899   6.272 -0.4779  0.1851  1.5265
 2771SOL    HW212676   3.953   8.002   6.269 -0.3937  0.3194  2.5907
 2772SOL     OW12677   0.280   2.960   6.783 -0.2807  0.1616 -0.0917
 2772SOL    HW112678   0.262   2.868   6.764 -1.3257  0.2132  0.5894
 2772SOL    HW212679   0.369   2.960   6.820  0.3075 -0.3751 -1.4257
 2773SOL     OW12680   2.637  10.308   9.897 -0.2223  0.7665  0.2305
 2773SOL    HW112681   2.551  10.267   9.888  0.5004 -0.7563 -0.2149
 2773SOL    HW212682   2.698  10.234   9.894  1.2409  1.9587 -1.5948
 2774SOL     OW12683   6.298   6.028  10.336 -0.1582  0.1666  0.3952
 2774SOL    HW112684   6.316   6.021  10.430  2.1195 -0.1107 -0.0221
 2774SOL    HW212685   6.334   6.113  10.311 -0.0345 -0.1058 -0.3663
 2775SOL     OW12686   0.802   5.740  10.789  0.1228  0.6442 -0.1434
 2775SOL    HW112687   0.758   5.655  10.780 -0.4994  1.0228 -0.7855
 2775SOL    HW212688   0.895   5.720  10.776 -0.0163  0.0542 -0.2832
 2776SOL     OW12689   4.804   4.733   1.177  0.0076  0.1734 -0.1247
 2776SOL    HW112690   4.719   4.727   1.220  0.8886  0.9762  1.8017
 2776SOL    HW212691   4.786   4.779   1.095 -1.8836 -2.3010 -1.2380
 2777SOL     OW12692   8.854   4.861   1.134 -0.0793  0.1586 -0.6199
 2777SOL    HW112693   8.845   4.780   1.084  0.3067 -0.8496  0.8782
 2777SOL    HW212694   8.945   4.862   1.163 -0.1056  1.0997 -0.5292
 2778SOL     OW12695   4.375   2.644   3.236  0.0284 -0.6947  0.4430
 2778SOL    HW112696   4.456   2.658   3.284 -0.0887 -0.7578  0.6625
 2778SOL    HW212697   4.368   2.719   3.177 -0.0826 -0.3467  0.8886
 2779SOL     OW12698   1.395   6.696   5.321  0.4374 -0.3900  0.5117
 2779SOL    HW112699   1.335   6.726   5.253  0.5835  0.7594  0.8758
 2779SOL    HW212700   1.407   6.603   5.303 -1.0990 -0.5424  0.1643
 2780SOL     OW12701   8.597   7.835   1.655  0.1677 -0.2828  0.3432
 2780SOL    HW112702   8.640   7.821   1.740  0.2331  0.1945  0.3887
 2780SOL    HW212703   8.588   7.746   1.619  0.3079 -0.4740  0.7643
 2781SOL     OW12704   6.410   7.458   1.531  0.6796 -0.3837  0.2117
 2781SOL    HW112705   6.447   7.459   1.620  1.7279  1.2287 -0.1921
 2781SOL    HW212706   6.487   7.449   1.474 -0.0209 -1.8525 -0.5445
 2782SOL     OW12707   1.364   9.223   8.190  0.4969  0.0672 -0.1155
 2782SOL    HW112708   1.346   9.129   8.197  3.1761 -0.5249  0.1369
 2782SOL    HW212709   1.363   9.241   8.096  1.5814 -0.6333 -0.2831
 2783SOL     OW12710  10.078   6.971   4.399  0.6055 -0.4019 -0.2421
 2783SOL    HW112711  10.069   7.061   4.366 -1.9468 -0.5784 -0.2241
 2783SOL    HW212712  10.124   6.981   4.482 -0.5528  1.0550  0.2764
 2784SOL     OW12713   7.069   4.890   0.945 -0.0564  0.5415 -0.2000
 2784SOL    HW112714   6.976   4.875   0.930 -0.2570  0.2637  1.1381
 2784SOL    HW212715   7.079   4.985   0.941 -0.4604  0.5915 -0.0737
 2785SOL     OW12716   8.190   7.411   6.779 -0.7645 -0.1493  0.2141
 2785SOL    HW112717   8.265   7.456   6.739 -1.3806  0.1297 -0.6677
 2785SOL    HW212718   8.182   7.329   6.729  0.4328 -1.3492  1.8940
 2786SOL     OW12719   5.494  10.697   7.501 -0.2693 -0.1522 -0.0501
 2786SOL    HW112720   5.545  10.625   7.462  0.0605 -0.3653  0.7629
 2786SOL    HW212721   5.407  10.660   7.513  0.5906 -1.4431  3.0575
 2787SOL     OW12722   5.941   9.042   4.534 -0.5531  0.7192  0.1705
 2787SOL    HW112723   6.003   9.065   4.465  0.3024 -1.8383 -0.0318
 2787SOL    HW212724   5.972   9.090   4.611  1.6690 -0.3654  0.0391
 2788SOL     OW12725  10.867   2.892   5.671  0.5622 -0.2050 -0.0012
 2788SOL    HW112726  10.825   2.978   5.664  1.1978  0.0734 -0.4735
 2788SOL    HW212727  10.829   2.854   5.751  0.3336  0.5447  0.2609
 2789SOL     OW12728   6.889   5.140  10.514  0.2715 -0.2408  0.4552
 2789SOL    HW112729   6.814   5.189  10.479 -1.0064 -1.2475  1.6908
 2789SOL    HW212730   6.935   5.108  10.437 -0.6537  0.2672 -0.3266
 2790SOL     OW12731   8.474   7.975   2.203  0.7552  0.0096  0.0018
 2790SOL    HW112732   8.448   8.009   2.118  1.5792 -0.8094 -0.5927
 2790SOL    HW212733   8.414   7.902   2.220  1.0586 -0.2913 -0.2157
 2791SOL     OW12734   4.671   6.235   7.742 -0.3627  0.3617 -0.0232
 2791SOL    HW112735   4.664   6.278   7.827  0.1886  0.7187 -0.1519
 2791SOL    HW212736   4.753   6.185   7.747 -0.4322  0.2183 -0.2721
 2792SOL     OW12737   5.331  10.672   7.203  0.6688 -0.2551 -0.3730
 2792SOL    HW112738   5.254  10.727   7.188  0.4606 -0.0450  1.2413
 2792SOL    HW212739   5.296  10.583   7.203  0.7767 -0.3047 -1.6473
 2793SOL     OW12740   6.777   8.497   7.488  0.6094  0.8009  0.5465
 2793SOL    HW112741   6.698   8.516   7.438  1.1987  0.9488 -0.3404
 2793SOL    HW212742   6.744   8.469   7.574 -0.4213  0.0425 -0.0747
 2794SOL     OW12743   8.720   4.095   0.264  0.1708 -0.2937  0.1850
 2794SOL    HW112744   8.631   4.092   0.300 -0.6082 -1.8242 -1.7142
 2794SOL    HW212745   8.768   4.028   0.313 -0.6836 -1.8492 -1.0120
 2795SOL     OW12746   5.579   9.505   3.250 -0.3563  0.3744 -0.2092
 2795SOL    HW112747   5.606   9.586   3.294 -0.7582  1.2444 -1.5215
 2795SOL    HW212748   5.657   9.450   3.251 -0.5542  0.0117  2.2911
 2796SOL     OW12749   6.314  10.364  10.152  0.2150  0.3776  0.1278
 2796SOL    HW112750   6.298  10.450  10.113 -0.0158  0.0275 -0.5713
 2796SOL    HW212751   6.262  10.363  10.232  0.3353  0.9439  0.2152
 2797SOL     OW12752   1.992   2.201   4.128  0.1558  0.2642  0.0254
 2797SOL    HW112753   2.065   2.244   4.171 -0.3596  2.2473 -0.9653
 2797SOL    HW212754   1.919   2.210   4.189 -0.1264  1.4971 -0.4596
 2798SOL     OW12755   0.726   0.338  10.671 -0.2931 -0.4883 -0.1499
 2798SOL    HW112756   0.632   0.318  10.678 -0.1183 -1.1120  0.5442
 2798SOL    HW212757   0.749   0.316  10.581 -0.7853 -0.4574 -0.2867
 2799SOL     OW12758   9.835   9.905   4.552 -0.7454  0.0737  0.9846
 2799SOL    HW112759   9.922   9.928   4.584  0.2856  1.3902 -2.3545
 2799SOL    HW212760   9.804   9.985   4.510 -2.0836 -1.3597 -0.9086
 2800SOL     OW12761   4.143   4.103   6.460  0.2284  0.1371  0.8247
 2800SOL    HW112762   4.190   4.186   6.468  0.2436  0.2045  0.0835
 2800SOL    HW212763   4.086   4.100   6.537 -0.0509  1.0111  0.6605
 2801SOL     OW12764  10.228   5.125   5.167  0.3092  0.0102 -0.4840
 2801SOL    HW112765  10.264   5.066   5.101 -1.6123  2.3049 -3.8802
 2801SOL    HW212766  10.285   5.202   5.166  0.2895  0.0685  0.6630
 2802SOL     OW12767   9.629   3.533   7.376  0.0450 -0.0725  0.3178
 2802SOL    HW112768   9.711   3.491   7.402 -0.3830  0.3730  2.6159
 2802SOL    HW212769   9.654   3.622   7.352  0.5177 -0.6382 -1.4430
 2803SOL     OW12770   7.996   4.964   4.296 -0.4040 -0.2917 -0.1847
 2803SOL    HW112771   7.946   4.951   4.377 -1.5327 -1.3535 -1.0151
 2803SOL    HW212772   8.087   4.951   4.322 -0.6777  0.1192  1.0528
 2804SOL     OW12773   2.029   7.628   0.001 -0.0826 -0.0062 -0.1831
 2804SOL    HW112774   2.101   7.568  -0.018 -2.1514 -1.9418 -2.7107
 2804SOL    HW212775   2.030   7.690  -0.072 -1.2260 -0.3717 -0.5259
 2805SOL     OW12776   0.496   5.523   0.608  0.5784  0.5780 -0.4948
 2805SOL    HW112777   0.528   5.473   0.534  0.4676 -0.7112  0.2991
 2805SOL    HW212778   0.540   5.484   0.684 -2.2910 -0.8271  0.5878
 2806SOL     OW12779   1.985   9.830   2.449  0.1173 -0.1811  0.0063
 2806SOL    HW112780   2.042   9.906   2.438  0.4898 -0.2350  1.3375
 2806SOL    HW212781   1.897   9.863   2.432  0.4212  0.1833 -0.9131
 2807SOL     OW12782   5.088  10.308   1.522  0.2424 -0.5949 -0.4415
 2807SOL    HW112783   5.170  10.261   1.506  0.6731 -0.3571  0.9274
 2807SOL    HW212784   5.020  10.248   1.492  0.8524 -1.5031 -0.0600
 2808SOL     OW12785   6.276  10.975   2.346  0.1690  0.4144  0.3899
 2808SOL    HW112786   6.221  10.898   2.331 -0.3456  0.8325  0.1188
 2808SOL    HW212787   6.365  10.941   2.339 -0.0218 -0.4560  1.7406
 2809SOL     OW12788   9.644   7.103   5.213  0.1739 -0.5911 -0.0676
 2809SOL    HW112789   9.569   7.055   5.179 -1.9234  2.5477 -0.3459
 2809SOL    HW212790   9.687   7.138   5.135  0.3285 -0.1947  0.1929
 2810SOL     OW12791   8.367   1.833   3.046  0.2442  0.3980 -0.4166
 2810SOL    HW112792   8.422   1.758   3.071 -1.0108 -0.4759 -0.1774
 2810SOL    HW212793   8.373   1.837   2.951 -0.5976 -0.7611 -0.5374
 2811SOL     OW12794   0.581   5.891  10.738  0.4570 -0.1963 -0.3308
 2811SOL    HW112795   0.549   5.835  10.668 -0.0529 -1.9170  1.2049
 2811SOL    HW212796   0.647   5.839  10.783 -0.1705  0.3211  1.2701
 2812SOL     OW12797   6.381   8.459   0.163 -0.2191  0.7569  0.3209
 2812SOL    HW112798   6.366   8.448   0.070 -0.2492  2.5167  0.0782
 2812SOL    HW212799   6.343   8.381   0.203  2.5764 -1.6410 -1.3030
 2813SOL     OW12800   0.563   2.878   6.026 -0.3038  0.5863 -0.2612
 2813SOL    HW112801   0.537   2.803   6.079  1.2941 -0.1385 -0.4517
 2813SOL    HW212802   0.558   2.846   5.936 -1.5578  1.3569 -0.4970
 2814SOL     OW12803   9.655   2.834   1.169  0.3035  0.4536 -0.4880
 2814SOL    HW112804   9.565   2.847   1.199 -0.1419 -0.2748 -1.4721
 2814SOL    HW212805   9.700   2.914   1.195 -0.4136  0.4784  0.7738
 2815SOL     OW12806   3.567   4.805   7.679 -0.0603  0.0461 -0.7286
 2815SOL    HW112807   3.488   4.764   7.645 -0.0048 -0.5286 -0.2022
 2815SOL    HW212808   3.553   4.808   7.774  1.1406 -1.4216 -0.4588
 2816SOL     OW12809   0.348   6.211   6.403 -0.2802  0.2107  0.0953
 2816SOL    HW112810   0.267   6.170   6.434  0.1743 -0.1424  0.8240
 2816SOL    HW212811   0.384   6.148   6.340  0.2438 -0.3677  0.9633
 2817SOL     OW12812   0.206   9.159   1.574  0.6934 -0.2284 -0.2888
 2817SOL    HW112813   0.282   9.176   1.518  1.1478  0.8567  0.6156
 2817SOL    HW212814   0.234   9.187   1.661 -0.7153  0.0830  0.0810
 2818SOL     OW12815   0.708   1.352  10.098 -0.4712 -0.3108  0.3205
 2818SOL    HW112816   0.727   1.435  10.055 -0.7363 -0.9414 -1.0735
 2818SOL    HW212817   0.776   1.342  10.164  0.4161  0.3344 -0.4809
 2819SOL     OW12818   6.463   0.857   2.015  0.2393 -0.1896 -0.1068
 2819SOL    HW112819   6.392   0.920   1.999  0.0777 -0.9305 -2.8098
 2819SOL    HW212820   6.446   0.824   2.103 -3.2193 -0.8104 -0.8546
 2820SOL     OW12821   6.962   2.142  10.496  0.4394  0.5294 -0.2750
 2820SOL    HW112822   6.910   2.071  10.459 -1.8398  2.4818 -1.0993
 2820SOL    HW212823   6.913   2.172  10.572  0.4062  2.2457 -0.9038
 2821SOL     OW12824   3.637   7.526   7.235  0.3326  0.0966 -0.3731
 2821SOL    HW112825   3.697   7.485   7.297  0.3407 -0.5073 -0.7732
 2821SOL    HW212826   3.613   7.456   7.175  1.2117  0.9143 -1.7382
 2822SOL     OW12827   8.093   9.206   1.716  0.1525  0.0324  0.0016
 2822SOL    HW112828   8.170   9.259   1.737  0.3828 -0.2298 -0.1686
 2822SOL    HW212829   8.091   9.138   1.784  0.2263 -0.1215 -0.1494
 2823SOL     OW12830   0.359  10.882   3.887  0.0571 -0.0839 -0.5737
 2823SOL    HW112831   0.418  10.879   3.962  1.8826 -0.1890 -1.9338
 2823SOL    HW212832   0.365  10.972   3.855 -0.8725  0.0183 -0.4568
 2824SOL     OW12833   1.998   1.465   2.782 -0.2900 -0.4432  0.4741
 2824SOL    HW112834   1.998   1.392   2.719  0.9132 -2.0107  2.1818
 2824SOL    HW212835   1.988   1.423   2.867  0.4311  1.4107  1.5273
 2825SOL     OW12836  11.089   8.356   4.845  0.3798 -0.2285  0.4214
 2825SOL    HW112837  11.069   8.339   4.937 -1.2412 -2.1683 -0.2103
 2825SOL    HW212838  11.127   8.274   4.813  0.4735  0.2444 -0.7418
 2826SOL     OW12839   2.286   4.129   1.808  0.4734 -0.3710 -0.8278
 2826SOL    HW112840   2.241   4.119   1.892  1.2884 -4.0411 -0.6889
 2826SOL    HW212841   2.215   4.132   1.743 -0.0941  0.3128 -0.1931
 2827SOL     OW12842   8.304   7.053   5.647  0.4114 -0.0494  0.2782
 2827SOL    HW112843   8.345   6.978   5.688  1.1355  0.0138 -0.2999
 2827SOL    HW212844   8.299   7.030   5.554 -1.8754 -0.5040  0.4399
 2828SOL     OW12845  10.953   4.529  10.771 -0.0415 -0.0280  0.3449
 2828SOL    HW112846  10.977   4.596  10.708 -1.0311  1.3547  1.3851
 2828SOL    HW212847  10.877   4.486  10.732  1.0852 -1.1599 -0.7068
 2829SOL     OW12848   9.326   0.739   8.401  0.4072  0.5993 -0.9281
 2829SOL    HW112849   9.252   0.692   8.363 -0.7742  2.2241 -0.7522
 2829SOL    HW212850   9.316   0.727   8.496  0.6405  0.4273 -0.9246
 2830SOL     OW12851   9.343   7.205   7.677 -0.3570 -0.4549 -0.0884
 2830SOL    HW112852   9.335   7.179   7.585 -1.6145 -0.4049 -0.0043
 2830SOL    HW212853   9.364   7.124   7.724  1.7109 -0.2586 -0.5627
 2831SOL     OW12854   5.715   0.364   2.904 -0.3880 -0.1002  0.3941
 2831SOL    HW112855   5.747   0.277   2.928 -0.3268 -0.0246  0.5882
 2831SOL    HW212856   5.659   0.348   2.827 -0.5048 -0.3314  0.5246
 2832SOL     OW12857   0.259   2.538   4.440 -0.1316  0.1610  0.2860
 2832SOL    HW112858   0.299   2.542   4.527 -0.1797  0.2738  0.3030
 2832SOL    HW212859   0.206   2.617   4.434  0.8077  0.7671 -0.2961
 2833SOL     OW12860   6.016   1.810  10.391  0.1994  0.2213  0.1044
 2833SOL    HW112861   5.988   1.755  10.318  1.6786 -2.0633  1.1514
 2833SOL    HW212862   5.938   1.818  10.446 -0.2158 -0.2744 -0.3951
 2834SOL     OW12863   5.336   7.609   8.683 -0.0619  1.1816  0.2171
 2834SOL    HW112864   5.362   7.692   8.645  1.7867 -0.0805 -1.4660
 2834SOL    HW212865   5.320   7.629   8.776  1.2363  3.2187  0.0605
 2835SOL     OW12866   5.557  10.863   9.608 -0.4316 -0.0114 -0.1624
 2835SOL    HW112867   5.536  10.954   9.627  0.7212 -0.0527  1.5815
 2835SOL    HW212868   5.500  10.813   9.667 -0.0137 -0.3613 -0.0503
 2836SOL     OW12869   6.780   2.844   7.764 -0.0138 -0.1167  0.8173
 2836SOL    HW112870   6.837   2.777   7.800  0.2089 -0.0371  0.6119
 2836SOL    HW212871   6.797   2.842   7.670  1.6777  1.7741  1.0220
 2837SOL     OW12872   8.029   9.052   4.345 -0.0573  0.6843 -0.1746
 2837SOL    HW112873   8.066   9.097   4.269 -0.3008 -0.1830 -0.8178
 2837SOL    HW212874   7.967   8.989   4.308  0.7977 -0.6944  0.6224
 2838SOL     OW12875   3.314   5.081   3.768 -0.2897  0.0274 -0.3179
 2838SOL    HW112876   3.405   5.111   3.766 -0.0564 -0.6798 -1.5177
 2838SOL    HW212877   3.310   5.014   3.700 -1.7579  0.1613 -0.3892
 2839SOL     OW12878   6.154   0.473   5.073 -0.1245  0.3163 -0.0641
 2839SOL    HW112879   6.129   0.498   5.162  0.1733 -0.6062  0.2893
 2839SOL    HW212880   6.206   0.547   5.041 -1.1951  1.1623  0.0912
 2840SOL     OW12881   3.343   9.119   1.454 -0.3812  0.1944 -0.3685
 2840SOL    HW112882   3.289   9.069   1.514 -1.3882 -0.2878 -1.6383
 2840SOL    HW212883   3.281   9.172   1.404  0.5132  1.3419 -0.3327
 2841SOL     OW12884   1.907   0.671   0.956 -0.4134  0.0518  0.6452
 2841SOL    HW112885   1.860   0.629   0.884 -1.0961  1.5903  0.1624
 2841SOL    HW212886   1.907   0.605   1.025  0.9032 -1.7548 -0.9656
 2842SOL     OW12887   7.388  10.201   9.655 -0.4471 -0.0187 -0.6503
 2842SOL    HW112888   7.412  10.293   9.668  0.2469  0.1472 -2.7429
 2842SOL    HW212889   7.322  10.204   9.587 -1.2479 -1.0260  0.0624
 2843SOL     OW12890   0.895   4.026   7.517 -0.4028  0.1663  0.2293
 2843SOL    HW112891   0.932   4.071   7.440  1.6571 -1.3869  0.2402
 2843SOL    HW212892   0.966   3.972   7.550 -1.9734 -1.0225  1.8567
 2844SOL     OW12893  10.946   3.905   6.573 -0.3240  0.3852 -0.4294
 2844SOL    HW112894  11.030   3.858   6.566 -0.2304  0.1000  1.8790
 2844SOL    HW212895  10.910   3.877   6.657 -1.4321  2.6024 -0.0922
 2845SOL     OW12896   7.962   1.177   8.619  0.1780 -0.0960  0.1875
 2845SOL    HW112897   7.893   1.114   8.598  1.1073 -0.2599 -2.8454
 2845SOL    HW212898   8.007   1.140   8.695 -0.1885 -2.4037 -0.6528
 2846SOL     OW12899   6.085   8.924   8.554 -0.4546  0.3798  0.3143
 2846SOL    HW112900   6.147   8.873   8.606 -0.9097 -0.0540  0.4467
 2846SOL    HW212901   6.014   8.862   8.534  0.7378 -0.1733 -2.7730
 2847SOL     OW12902   1.380   5.766   5.071 -0.1864  0.5743 -0.6612
 2847SOL    HW112903   1.394   5.857   5.099 -1.1887  0.5421 -0.0025
 2847SOL    HW212904   1.402   5.714   5.148 -0.9601  0.3502 -0.5867
 2848SOL     OW12905   1.250   3.659   9.399  0.2760 -0.0147 -0.1509
 2848SOL    HW112906   1.158   3.646   9.378  1.1295 -1.3967 -3.8271
 2848SOL    HW212907   1.273   3.584   9.453 -0.4831 -0.3609 -0.2957
 2849SOL     OW12908  10.331   5.935  10.163  0.1898  0.4462  1.3020
 2849SOL    HW112909  10.390   5.921  10.237 -0.4637  0.5364  1.8559
 2849SOL    HW212910  10.309   5.847  10.133  1.5092  0.4239  0.3413
 2850SOL     OW12911   8.064   5.006   4.746 -0.1060  0.1266  0.1307
 2850SOL    HW112912   8.157   4.986   4.734  0.1605  0.5509  1.3856
 2850SOL    HW212913   8.056   5.029   4.839 -1.4945 -0.0565  0.0757
 2851SOL     OW12914   0.982   5.323   4.796 -0.5577 -0.6928  0.4191
 2851SOL    HW112915   0.969   5.409   4.755 -2.0449  0.2177  2.5980
 2851SOL    HW212916   1.075   5.320   4.818 -0.7277  1.0122  1.5422
 2852SOL     OW12917   5.727  10.651   3.849 -0.6081 -0.2148  0.0160
 2852SOL    HW112918   5.795  10.628   3.786 -1.4053 -1.9800 -0.2674
 2852SOL    HW212919   5.761  10.620   3.933  0.1690  1.5437  0.3846
 2853SOL     OW12920   5.152   9.039   0.874 -0.3686  0.8046 -0.1549
 2853SOL    HW112921   5.075   9.034   0.931 -1.2322  2.8736 -1.0346
 2853SOL    HW212922   5.225   9.016   0.930 -1.5692 -0.9352  0.7876
 2854SOL     OW12923   0.896   3.826  10.021 -0.9371 -0.1644 -0.1015
 2854SOL    HW112924   0.801   3.831  10.009 -1.0119 -2.4685 -1.0320
 2854SOL    HW212925   0.908   3.811  10.115 -1.7416 -2.6033 -0.3052
 2855SOL     OW12926   2.657  10.481   7.849  0.3208 -0.1871  0.2597
 2855SOL    HW112927   2.706  10.418   7.794 -0.3550 -1.0611  0.6369
 2855SOL    HW212928   2.580  10.432   7.877 -1.0076  1.3018 -0.6545
 2856SOL     OW12929   1.999   7.728   7.005 -0.1648  0.0880  0.0930
 2856SOL    HW112930   1.979   7.639   7.034 -0.3065  0.0084 -0.2399
 2856SOL    HW212931   2.012   7.720   6.910  2.3616 -0.0306  0.3683
 2857SOL     OW12932   4.903  10.195   1.994 -0.0551  0.2725  0.1691
 2857SOL    HW112933   4.884  10.288   1.984 -0.9673  0.1416  0.6375
 2857SOL    HW212934   4.987  10.193   2.040  0.9963  0.8547 -1.6096
 2858SOL     OW12935   5.944   4.006   0.626 -0.0106  0.8768  0.5371
 2858SOL    HW112936   5.951   4.045   0.713 -0.8422  1.9568  0.1334
 2858SOL    HW212937   6.021   4.040   0.579  0.4611  0.2611  0.8489
 2859SOL     OW12938   2.477   6.306   3.120  0.0065  0.0454  0.5782
 2859SOL    HW112939   2.478   6.357   3.039 -2.1299  0.3110  0.6416
 2859SOL    HW212940   2.523   6.225   3.099 -1.1413 -0.2059 -1.1678
 2860SOL     OW12941   7.551  10.033   3.465  0.0368  0.0786 -0.1777
 2860SOL    HW112942   7.459  10.026   3.492  0.1409 -0.5025  0.0293
 2860SOL    HW212943   7.576   9.944   3.442  0.4016  0.3244 -0.7341
 2861SOL     OW12944   1.132   6.258   0.076 -1.1905 -0.4093 -0.7740
 2861SOL    HW112945   1.058   6.200   0.089 -2.8839  1.8080  0.2020
 2861SOL    HW212946   1.183   6.252   0.157 -0.3323 -1.7981 -1.3765
 2862SOL     OW12947   2.435  10.351   7.939  0.1627 -0.5058 -0.1520
 2862SOL    HW112948   2.349  10.315   7.920 -0.5218  0.7048  0.4742
 2862SOL    HW212949   2.416  10.436   7.980  1.6372 -0.5708  0.7216
 2863SOL     OW12950   5.605   4.873   1.370 -0.0955  0.4569  0.0056
 2863SOL    HW112951   5.583   4.863   1.277 -0.7406  2.1593 -0.0528
 2863SOL    HW212952   5.528   4.916   1.408 -0.3912 -1.3452  1.6280
 2864SOL     OW12953   4.479   8.991   1.387  0.0598  0.7331  0.6597
 2864SOL    HW112954   4.533   8.912   1.384 -0.3538  0.4374  0.8816
 2864SOL    HW212955   4.404   8.966   1.441 -0.1756  1.2145  0.5556
 2865SOL     OW12956   2.171   4.544  10.291  0.7163 -0.1704 -0.0185
 2865SOL    HW112957   2.212   4.570  10.209 -0.6814 -1.5056 -1.2207
 2865SOL    HW212958   2.079   4.530  10.268 -0.0882  1.0621  2.1723
 2866SOL     OW12959   2.783   2.395   9.977 -0.2751  0.4745 -0.1093
 2866SOL    HW112960   2.728   2.318   9.961  2.2951 -1.9243  1.5117
 2866SOL    HW212961   2.733   2.449  10.037 -1.2754 -1.1297  0.5648
 2867SOL     OW12962   8.236   3.718  10.276 -0.4874 -0.1021  0.4038
 2867SOL    HW112963   8.213   3.640  10.326 -1.9604  0.3484  0.4880
 2867SOL    HW212964   8.222   3.790  10.338  1.2498  0.2358  0.4594
 2868SOL     OW12965   3.108   4.957   7.328 -0.9639 -0.0382 -0.1313
 2868SOL    HW112966   3.147   4.994   7.249 -2.7006 -0.4518 -1.2324
 2868SOL    HW212967   3.179   4.907   7.369 -0.0629  0.1119 -1.4723
 2869SOL     OW12968   5.945   3.108   6.068 -0.1969 -0.6872 -0.2546
 2869SOL    HW112969   5.954   3.053   6.146 -0.7469 -0.5893 -0.1198
 2869SOL    HW212970   6.006   3.180   6.082 -0.5660 -0.4740  0.2519
 2870SOL     OW12971  10.286   0.403   0.645 -1.0681 -0.2388  0.7188
 2870SOL    HW112972  10.266   0.383   0.553  0.8158  0.0519  0.2170
 2870SOL    HW212973  10.227   0.475   0.667 -1.5864 -0.3477 -0.2434
 2871SOL     OW12974   8.348   4.632  11.045 -0.4856 -0.3268 -0.3030
 2871SOL    HW112975   8.255   4.644  11.030 -0.0904  1.5862 -1.5978
 2871SOL    HW212976   8.379   4.586  10.966 -0.3007 -0.8368  0.0619
 2872SOL     OW12977   4.268   3.987   6.847 -0.4057 -0.5222  0.1981
 2872SOL    HW112978   4.245   4.080   6.840 -0.5758 -0.6514 -1.1209
 2872SOL    HW212979   4.313   3.967   6.766 -0.2145 -1.5650  0.5455
 2873SOL     OW12980   2.560   0.306   2.636 -0.0052  0.0256  0.3026
 2873SOL    HW112981   2.485   0.364   2.618 -1.0827 -0.4321  2.8252
 2873SOL    HW212982   2.523   0.218   2.633  0.6733 -0.2737  0.6058
 2874SOL     OW12983   4.319  10.430   3.793  0.3084 -0.3361 -0.4356
 2874SOL    HW112984   4.310  10.386   3.709  0.0877  1.8360 -1.6306
 2874SOL    HW212985   4.408  10.464   3.793 -0.4047  1.7290 -0.9510
 2875SOL     OW12986   2.047   7.953   8.172 -0.1497  0.4308  0.1891
 2875SOL    HW112987   1.995   7.883   8.212 -1.4446  1.6858  0.8158
 2875SOL    HW212988   2.097   7.910   8.103 -0.4967 -1.1934  0.9077
 2876SOL     OW12989   1.026   8.315   4.600 -0.2973 -0.0589 -0.2478
 2876SOL    HW112990   1.037   8.241   4.659 -1.3278  0.3869  0.5334
 2876SOL    HW212991   1.113   8.331   4.564  0.6596  0.4632  2.1341
 2877SOL     OW12992  10.676   3.589   1.208  0.7345 -0.2520  0.1532
 2877SOL    HW112993  10.729   3.669   1.212 -0.4925  0.6212 -0.5541
 2877SOL    HW212994  10.667   3.562   1.299  1.7758 -0.0067  0.3453
 2878SOL     OW12995   6.849   1.624   8.791 -0.4184  0.3764  0.5191
 2878SOL    HW112996   6.803   1.708   8.799 -1.2005  0.0570 -0.4347
 2878SOL    HW212997   6.801   1.577   8.724  0.3884 -0.6035  0.6083
 2879SOL     OW12998   4.956   7.426  10.325  0.1181  0.1127  0.4134
 2879SOL    HW112999   4.877   7.381  10.356  1.0768 -0.5958  1.9055
 2879SOL    HW213000   5.028   7.380  10.367  1.5162 -0.5992 -2.5482
 2880SOL     OW13001   8.330   5.181   0.148 -0.3688  0.5794  0.2542
 2880SOL    HW113002   8.321   5.153   0.239 -2.6820 -0.5105 -0.2434
 2880SOL    HW213003   8.309   5.275   0.149  1.1791  0.9556  1.0149
 2881SOL     OW13004   2.206   6.589   2.025 -0.8464  0.2363  0.2196
 2881SOL    HW113005   2.146   6.625   2.091 -2.6607  0.0765 -1.2768
 2881SOL    HW213006   2.244   6.665   1.983  0.4439  0.3432  1.4947
 2882SOL     OW13007   9.255   6.428  10.378 -0.5439  0.7777 -0.3070
 2882SOL    HW113008   9.262   6.334  10.364 -4.5302  0.2414  0.1522
 2882SOL    HW213009   9.313   6.445  10.452  1.1527 -1.0423 -1.1348
 2883SOL     OW13010   4.255   9.325   7.976  0.4268  0.5157  0.4866
 2883SOL    HW113011   4.225   9.389   8.040 -1.4214  1.1294 -0.9063
 2883SOL    HW213012   4.286   9.377   7.902  0.3376 -0.1726 -0.0498
 2884SOL     OW13013   5.084  10.955   3.802 -0.2302  0.2612 -0.7299
 2884SOL    HW113014   5.024  10.898   3.753 -0.0423  0.2191 -0.9123
 2884SOL    HW213015   5.165  10.953   3.752  0.0255  0.0690 -0.3114
 2885SOL     OW13016   5.873   7.754  10.569  0.2420  0.5862  0.5822
 2885SOL    HW113017   5.793   7.702  10.580 -0.2799  1.4545  1.0211
 2885SOL    HW213018   5.844   7.844  10.582  1.2127  0.9523  0.2536
 2886SOL     OW13019   4.573   9.481  10.103 -0.8770  0.2097  0.2454
 2886SOL    HW113020   4.535   9.551  10.156 -0.1181  1.1368 -0.3985
 2886SOL    HW213021   4.613   9.422  10.167  0.5756  1.6285  0.7280
 2887SOL     OW13022   6.348   9.083  11.095 -0.4445  0.4494  0.3082
 2887SOL    HW113023   6.327   9.008  11.039 -1.2370  1.0326 -0.2018
 2887SOL    HW213024   6.287   9.076  11.169 -0.3428  0.4505  0.3930
 2888SOL     OW13025   4.193   5.426   3.341  0.2648  0.9087  0.1874
 2888SOL    HW113026   4.159   5.413   3.252 -0.3239 -1.5645  0.6987
 2888SOL    HW213027   4.142   5.499   3.376 -0.3681  1.0958 -1.0867
 2889SOL     OW13028   9.470   5.043   6.089 -0.6047 -0.0113  0.7099
 2889SOL    HW113029   9.552   5.081   6.121 -0.0050 -1.6022  1.1387
 2889SOL    HW213030   9.454   4.968   6.146 -2.1438  0.0167  0.3523
 2890SOL     OW13031   7.105   4.197   3.173 -0.0653  0.0821  0.1073
 2890SOL    HW113032   7.136   4.285   3.193  0.6422  0.0584 -0.8389
 2890SOL    HW213033   7.180   4.152   3.135 -0.7803 -0.5055 -0.6638
 2891SOL     OW13034   1.508   0.192   0.811  0.7309 -0.0267  0.1488
 2891SOL    HW113035   1.414   0.199   0.793  0.4904 -1.5178  0.6218
 2891SOL    HW213036   1.547   0.264   0.764 -0.7339  1.0848  0.5528
 2892SOL     OW13037  10.260   2.233   7.778  0.1374 -0.5120 -0.0141
 2892SOL    HW113038  10.324   2.302   7.789  0.3656 -0.9808  2.0140
 2892SOL    HW213039  10.176   2.274   7.801  0.2343 -0.7901  0.8988
 2893SOL     OW13040   9.402   8.321   0.892 -0.1050 -0.0728  0.0107
 2893SOL    HW113041   9.444   8.370   0.962 -0.0216 -1.6241  1.1017
 2893SOL    HW213042   9.474   8.274   0.850 -0.3518 -0.3667 -0.0870
 2894SOL     OW13043   4.217   2.758   8.590 -0.1120  0.0424 -0.0379
 2894SOL    HW113044   4.124   2.738   8.601 -0.3216 -0.0407 -1.7567
 2894SOL    HW213045   4.221   2.853   8.584 -0.4297 -0.0279 -2.3259
 2895SOL     OW13046   4.038   8.275   1.944  0.3062 -0.1524  0.7294
 2895SOL    HW113047   4.022   8.292   1.851 -1.5324  0.9879  1.2020
 2895SOL    HW213048   4.061   8.361   1.980 -0.0469 -0.3844  1.5249
 2896SOL     OW13049   5.771   6.028   7.637 -0.6084 -0.1514  0.3848
 2896SOL    HW113050   5.831   6.008   7.708  0.1846 -0.1472 -0.2591
 2896SOL    HW213051   5.828   6.054   7.564 -1.4263  0.6076 -0.0143
 2897SOL     OW13052   8.120  10.875   8.498 -0.1368 -0.2930 -0.2373
 2897SOL    HW113053   8.152  10.900   8.411  1.4209 -0.5267  0.2348
 2897SOL    HW213054   8.092  10.957   8.538 -1.9371 -0.3182 -1.3352
 2898SOL     OW13055   8.941   8.808  10.073  1.0379  0.3822  0.3883
 2898SOL    HW113056   8.907   8.785  10.160  1.2817  0.4727  0.5089
 2898SOL    HW213057   9.003   8.738  10.052  0.0308 -0.3438 -0.2816
 2899SOL     OW13058   9.999   9.317   5.239 -0.4090 -0.6207  0.0801
 2899SOL    HW113059   9.928   9.380   5.251 -0.5112 -0.4031 -1.4717
 2899SOL    HW213060   9.958   9.242   5.197  0.4941  0.1231 -2.3003
 2900SOL     OW13061   7.860   1.147   1.472 -0.0611  0.5427  0.2524
 2900SOL    HW113062   7.846   1.089   1.547  1.5927  0.5880  0.6233
 2900SOL    HW213063   7.927   1.209   1.501  0.3577  0.7796 -1.1334
 2901SOL     OW13064   9.381   3.187   9.463 -0.1087 -0.0414 -0.0059
 2901SOL    HW113065   9.362   3.132   9.539 -0.2504 -0.6581 -0.4792
 2901SOL    HW213066   9.359   3.276   9.492  0.8782 -0.1142  1.0203
 2902SOL     OW13067   3.729   6.998   7.849  0.6935  0.5984  0.4158
 2902SOL    HW113068   3.665   6.951   7.794  0.0138  0.3431  1.3864
 2902SOL    HW213069   3.808   6.945   7.843  0.2908 -0.0427  0.5402
 2903SOL     OW13070   7.843  10.209   0.808 -0.5342  0.3217  0.6021
 2903SOL    HW113071   7.777  10.271   0.837  0.6681  1.7242  0.4566
 2903SOL    HW213072   7.828  10.199   0.714  0.7755  2.4066  0.0918
 2904SOL     OW13073   9.353   6.184   3.951 -0.5556 -0.1704 -0.1064
 2904SOL    HW113074   9.445   6.164   3.933 -1.0039 -2.4937 -0.1095
 2904SOL    HW213075   9.345   6.278   3.935  2.3395  0.6106  2.2109
 2905SOL     OW13076  10.951   9.928   8.365  0.2094  0.1053  0.1436
 2905SOL    HW113077  10.943   9.870   8.290 -0.4688 -2.1283  1.8170
 2905SOL    HW213078  10.873   9.984   8.361 -1.2411 -1.7792  0.5448
 2906SOL     OW13079   8.251   5.885   6.553  0.1544  0.0305  0.2491
 2906SOL    HW113080   8.210   5.961   6.595  2.1722  2.3263 -1.6545
 2906SOL    HW213081   8.344   5.905   6.553  0.8569 -2.8631  0.3011
 2907SOL     OW13082   4.047   1.587   7.737  0.0037  0.3952  0.3433
 2907SOL    HW113083   4.041   1.589   7.642 -1.3180 -1.0326  0.3678
 2907SOL    HW213084   3.964   1.625   7.767  0.1997  0.3709  0.9274
 2908SOL     OW13085   6.534   5.161   0.892  0.2384 -0.7368  0.0006
 2908SOL    HW113086   6.455   5.188   0.938  0.7591 -1.0064  1.1086
 2908SOL    HW213087   6.508   5.151   0.801 -0.6620  0.5535  0.0923
 2909SOL     OW13088   0.983   8.312   1.554  0.0346 -0.4871  0.5856
 2909SOL    HW113089   0.904   8.363   1.571  0.9698  0.3739  2.6698
 2909SOL    HW213090   1.051   8.377   1.536  0.4221 -1.1862 -0.5571
 2910SOL     OW13091   8.936   7.818   6.701  1.1244  0.6292 -0.3086
 2910SOL    HW113092   8.935   7.909   6.673 -0.7064  1.3474  1.7465
 2910SOL    HW213093   8.990   7.818   6.781 -1.3295  0.6381  1.4687
 2911SOL     OW13094  10.108   7.987   0.769 -0.0629  0.1263  0.3058
 2911SOL    HW113095  10.086   8.076   0.796 -2.0710 -0.0399 -0.5895
 2911SOL    HW213096  10.162   7.953   0.840 -0.7318  1.4699  1.5049
 2912SOL     OW13097   2.368   0.146  10.199 -0.7199 -0.1852 -0.6408
 2912SOL    HW113098   2.419   0.189  10.268 -1.7887 -0.1318  0.1316
 2912SOL    HW213099   2.315   0.081  10.245 -2.7282  1.0192 -1.1501
 2913SOL     OW13100   3.867  10.644   1.286 -0.3215  0.2212 -0.5302
 2913SOL    HW113101   3.798  10.704   1.316  0.1899  1.1664 -1.1719
 2913SOL    HW213102   3.862  10.569   1.346 -0.4979  1.2398  0.7838
 2914SOL     OW13103   3.099  10.593   1.950 -0.2468  0.1072  0.2870
 2914SOL    HW113104   3.173  10.553   1.905 -0.1709  0.2666  0.2711
 2914SOL    HW213105   3.039  10.520   1.966 -0.1405 -0.0008  0.1949
 2915SOL     OW13106   3.036   1.251   9.516  0.2013  0.3722  0.6286
 2915SOL    HW113107   2.968   1.235   9.451 -1.7729  1.7510  2.2323
 2915SOL    HW213108   3.103   1.301   9.469 -1.0150  1.0467 -0.4399
 2916SOL     OW13109   5.734   3.263  10.247  0.4735 -0.2832  0.0534
 2916SOL    HW113110   5.699   3.326  10.184  3.5885 -0.6890 -2.3401
 2916SOL    HW213111   5.689   3.283  10.329  0.8454  4.7040 -0.6753
 2917SOL     OW13112   7.499   3.551   1.768  0.3219 -0.1038  0.3594
 2917SOL    HW113113   7.413   3.593   1.758 -0.0295 -0.4364  1.7812
 2917SOL    HW213114   7.519   3.559   1.861  1.5687 -0.5686  0.1476
 2918SOL     OW13115   5.792  10.651   7.887  0.2439 -0.2093 -0.1050
 2918SOL    HW113116   5.868  10.624   7.939 -0.3383 -0.2608  0.7415
 2918SOL    HW213117   5.799  10.600   7.806 -0.3746 -2.3383  1.1069
 2919SOL     OW13118   8.485   4.280   8.150  0.1416  0.1519  0.0225
 2919SOL    HW113119   8.489   4.257   8.058  0.3146  1.0280 -0.2030
 2919SOL    HW213120   8.554   4.229   8.191 -0.4473 -0.8315 -0.1896
 2920SOL     OW13121   0.151   7.404   8.058 -0.1781 -0.4877  0.3682
 2920SOL    HW113122   0.144   7.376   8.149  0.0598 -1.7420  0.0119
 2920SOL    HW213123   0.171   7.498   8.064  1.0592 -0.7878  1.6315
 2921SOL     OW13124   0.274   6.822   6.452  0.8717 -0.8838 -0.0316
 2921SOL    HW113125   0.366   6.803   6.468  0.7565  0.0798  1.9984
 2921SOL    HW213126   0.256   6.902   6.501 -0.5285  0.2389 -2.2019
 2922SOL     OW13127   3.906   3.985   4.472  0.2024 -0.0039 -0.1725
 2922SOL    HW113128   3.969   4.002   4.542  1.1778  0.7399 -1.1945
 2922SOL    HW213129   3.827   3.955   4.517  0.2697  1.9530  1.3534
 2923SOL     OW13130   3.711   8.004   6.550  0.0756  0.2259  0.0117
 2923SOL    HW113131   3.784   8.036   6.604 -0.9570  1.0396  0.9632
 2923SOL    HW213132   3.743   8.013   6.460  0.9530  1.0663  0.3875
 2924SOL     OW13133   4.210   7.590   9.905  0.6561 -0.3474  0.2899
 2924SOL    HW113134   4.115   7.580   9.894  0.4725  0.2768  1.2287
 2924SOL    HW213135   4.238   7.638   9.828  0.0553  0.3243  0.4831
 2925SOL     OW13136   1.523   1.458   4.042 -0.1615 -0.0887  0.6589
 2925SOL    HW113137   1.598   1.517   4.034 -0.3237 -0.1092 -1.4765
 2925SOL    HW213138   1.464   1.485   3.973 -1.6499 -0.8008  1.6025
 2926SOL     OW13139   5.455   1.551   2.945 -0.4932 -0.5830 -0.6366
 2926SOL    HW113140   5.359   1.555   2.938 -0.5654 -3.3412 -2.8987
 2926SOL    HW213141   5.482   1.501   2.868  2.7629 -0.2448  0.1782
 2927SOL     OW13142   5.100   7.731   2.357 -0.3688  0.5147  0.6007
 2927SOL    HW113143   5.163   7.762   2.422 -0.9539  2.8885  0.1408
 2927SOL    HW213144   5.154   7.705   2.282  0.1520  1.5437  0.5957
 2928SOL     OW13145   1.606   7.542   1.211  0.6421 -0.1954 -0.6952
 2928SOL    HW113146   1.660   7.584   1.278  1.1914  0.2513 -1.3975
 2928SOL    HW213147   1.662   7.541   1.133 -0.0095 -0.6360 -1.1656
 2929SOL     OW13148   0.221   5.571   7.697  0.1104 -0.4741 -0.5103
 2929SOL    HW113149   0.219   5.542   7.605  0.4282 -0.1814 -0.6149
 2929SOL    HW213150   0.205   5.665   7.692  0.1041 -0.4631 -0.2621
 2930SOL     OW13151   5.362  11.096   2.691  0.1893 -0.1062 -0.1088
 2930SOL    HW113152   5.352  11.012   2.645  0.2932 -0.8197  1.1298
 2930SOL    HW213153   5.449  11.127   2.664 -0.0986 -0.0937 -1.0466
 2931SOL     OW13154   8.659  10.240   4.818  0.2538 -0.1137 -0.0321
 2931SOL    HW113155   8.748  10.205   4.817  0.3797 -0.1141  2.7722
 2931SOL    HW213156   8.636  10.242   4.911 -2.7700 -0.3092 -0.6912
 2932SOL     OW13157   3.430   0.889   5.815  0.5495 -0.0686  0.0816
 2932SOL    HW113158   3.441   0.952   5.743 -2.1186 -0.5551 -0.8397
 2932SOL    HW213159   3.355   0.837   5.790 -0.2197 -0.5464  3.0569
 2933SOL     OW13160  11.001   2.422   9.060 -0.1192  0.0728 -0.3670
 2933SOL    HW113161  11.082   2.372   9.067  1.2866  2.0684 -1.2896
 2933SOL    HW213162  10.945   2.386   9.128  1.5010 -1.4262  0.2703
 2934SOL     OW13163   8.840   1.348   7.720  1.1556  0.1134  0.3020
 2934SOL    HW113164   8.897   1.302   7.782  0.9134 -1.0409 -0.3134
 2934SOL    HW213165   8.768   1.286   7.704  1.0656  0.5217 -0.9057
 2935SOL     OW13166   3.844   7.361   8.318 -0.2081  0.0207  0.1187
 2935SOL    HW113167   3.886   7.373   8.403  1.1632 -2.1830 -0.1694
 2935SOL    HW213168   3.871   7.274   8.290 -2.4947 -0.2471 -1.5530
 2936SOL     OW13169   9.642   6.324   1.211 -0.0821 -0.4173 -0.4317
 2936SOL    HW113170   9.601   6.328   1.125  0.2326 -2.1608 -0.7003
 2936SOL    HW213171   9.732   6.352   1.196  0.0950 -1.1375 -0.7818
 2937SOL     OW13172  11.030   2.117   5.435  0.2130  0.1342  0.0037
 2937SOL    HW113173  10.957   2.145   5.490  1.0984  1.5328  0.5321
 2937SOL    HW213174  11.051   2.029   5.466 -1.8470 -0.6860 -0.8269
 2938SOL     OW13175   2.436   2.427   8.976  0.2234  0.4191 -0.5047
 2938SOL    HW113176   2.397   2.507   8.942  3.6078  2.3491 -0.3404
 2938SOL    HW213177   2.448   2.444   9.070 -2.1217 -1.7818  0.3041
 2939SOL     OW13178   8.714   2.962   4.237 -0.2089  0.1200  0.5827
 2939SOL    HW113179   8.799   2.968   4.281  0.7382 -1.4142 -0.9216
 2939SOL    HW213180   8.680   2.876   4.263 -0.4524 -0.0468 -0.2528
 2940SOL     OW13181  10.082   0.543   7.280 -0.4153 -0.6188  0.0688
 2940SOL    HW113182   9.987   0.554   7.284 -0.5627 -1.8589  0.2873
 2940SOL    HW213183  10.106   0.514   7.368 -0.0117 -1.5904 -0.3523
 2941SOL     OW13184   7.487   1.571   8.413 -0.3401  0.3784  0.3445
 2941SOL    HW113185   7.437   1.634   8.362 -1.1578  0.3235  1.0554
 2941SOL    HW213186   7.565   1.620   8.441 -0.3690  0.6968 -0.1153
 2942SOL     OW13187   7.737   3.650  10.971  0.0640  0.3671  0.0769
 2942SOL    HW113188   7.649   3.623  10.947 -0.4393 -2.0175  3.8138
 2942SOL    HW213189   7.791   3.627  10.895 -2.1361 -0.4020 -1.3375
 2943SOL     OW13190   6.783   4.098   5.690  0.1754  0.0309 -0.3372
 2943SOL    HW113191   6.718   4.028   5.693  0.8324 -0.5569  0.9717
 2943SOL    HW213192   6.866   4.053   5.670  0.2086  0.7797 -2.1045
 2944SOL     OW13193   8.459   3.523   2.520 -0.9918  0.3728  0.0096
 2944SOL    HW113194   8.392   3.492   2.581 -0.4724  0.7300  0.7600
 2944SOL    HW213195   8.489   3.606   2.557 -0.5898  0.5340 -0.6701
 2945SOL     OW13196   5.883   1.297   6.941  0.6510  0.0044 -0.3876
 2945SOL    HW113197   5.917   1.219   6.985 -0.8971 -0.7447 -0.4304
 2945SOL    HW213198   5.948   1.318   6.874  0.7944 -1.6372 -0.7981
 2946SOL     OW13199   3.048   2.872   0.526  0.0016 -0.2087  0.5008
 2946SOL    HW113200   3.061   2.963   0.500  2.6730 -0.3042  1.2199
 2946SOL    HW213201   3.088   2.866   0.612 -1.2615 -1.8074  1.0206
 2947SOL     OW13202  10.104   9.816   3.288 -0.6457 -0.1738 -0.5868
 2947SOL    HW113203  10.068   9.864   3.214 -0.6934 -0.0415 -0.4805
 2947SOL    HW213204  10.166   9.877   3.328 -1.9880  0.4878  0.5942
 2948SOL     OW13205   9.505   3.326   5.014 -0.6379 -0.5224  0.1233
 2948SOL    HW113206   9.534   3.347   4.925 -1.1974 -1.1637 -0.2126
 2948SOL    HW213207   9.564   3.378   5.070 -0.5486  0.2096 -0.6191
 2949SOL     OW13208   3.632   3.054   3.983  0.1176  0.2627  0.2573
 2949SOL    HW113209   3.553   3.109   3.976  1.0823  1.6275 -0.2993
 2949SOL    HW213210   3.704   3.112   3.959  1.3707 -0.7961  1.2907
 2950SOL     OW13211   0.821   6.753   6.665 -0.0730  0.6425  0.0879
 2950SOL    HW113212   0.728   6.742   6.643 -0.3934  2.0662  0.5728
 2950SOL    HW213213   0.820   6.779   6.757  0.8819 -0.2131  0.3445
 2951SOL     OW13214  10.472   3.488   5.626  0.4961  0.2074 -0.1123
 2951SOL    HW113215  10.479   3.560   5.564 -0.0552  0.0090 -0.4116
 2951SOL    HW213216  10.558   3.483   5.668  0.3689  1.4153  0.3349
 2952SOL     OW13217   8.856   8.013   0.237 -0.0865  0.8193 -0.2225
 2952SOL    HW113218   8.907   7.939   0.272  0.3763  0.9315 -0.6311
 2952SOL    HW213219   8.780   7.972   0.196 -1.6169  0.8123  2.4710
 2953SOL     OW13220   7.296   0.901   4.095  0.6656 -0.1022 -0.1117
 2953SOL    HW113221   7.204   0.897   4.119  0.3947  0.2095 -1.0498
 2953SOL    HW213222   7.302   0.977   4.037  1.3051 -0.7456 -0.9061
 2954SOL     OW13223  10.342   5.156   7.346  0.1698 -0.0346 -0.2642
 2954SOL    HW113224  10.251   5.141   7.318  0.5938 -1.2692 -1.0879
 2954SOL    HW213225  10.367   5.075   7.390  1.0341  0.0992 -0.4965
 2955SOL     OW13226   1.108   5.796   8.267 -0.3326  0.4490 -0.5342
 2955SOL    HW113227   1.129   5.716   8.219  1.3314  0.9007 -0.6393
 2955SOL    HW213228   1.039   5.837   8.216  0.3255  0.1421 -1.7174
 2956SOL     OW13229   5.657   3.688   9.152 -0.1091  0.0830  0.0840
 2956SOL    HW113230   5.623   3.741   9.224  2.7390  1.7573  0.3437
 2956SOL    HW213231   5.736   3.734   9.123 -0.0346 -1.6218 -2.8043
 2957SOL     OW13232   6.273   7.518  10.970 -0.4771  0.1576 -0.9271
 2957SOL    HW113233   6.240   7.596  11.015  0.3177  0.0459 -0.1269
 2957SOL    HW213234   6.204   7.453  10.982 -1.5425  0.9513 -2.3352
 2958SOL     OW13235   7.025   6.491   9.966 -0.3535 -0.1312  0.2099
 2958SOL    HW113236   7.099   6.449  10.010 -1.7299 -3.1955 -0.1279
 2958SOL    HW213237   7.035   6.467   9.874 -1.2689  0.2149  0.0044
 2959SOL     OW13238   4.518   5.899   3.407 -0.3211 -0.0296 -0.0157
 2959SOL    HW113239   4.465   5.978   3.391  0.7920  0.3393 -2.3648
 2959SOL    HW213240   4.453   5.828   3.413 -1.2334  0.8027  0.2971
 2960SOL     OW13241   3.830   3.302   5.744 -0.1118 -0.3042 -0.5752
 2960SOL    HW113242   3.752   3.248   5.732  0.0737 -0.7400  0.0750
 2960SOL    HW213243   3.860   3.320   5.655 -0.8398 -0.2934 -0.8277
 2961SOL     OW13244   1.620   5.483  10.768 -0.0810 -0.5145 -0.5434
 2961SOL    HW113245   1.601   5.526  10.684  0.7696 -1.9660 -1.5473
 2961SOL    HW213246   1.577   5.397  10.760 -2.0314  0.1769  1.5282
 2962SOL     OW13247   9.485   6.518   9.268  1.1705 -0.3822 -0.5748
 2962SOL    HW113248   9.417   6.530   9.334  0.9928  1.9319 -1.0845
 2962SOL    HW213249   9.548   6.458   9.308 -0.3821 -1.3441  0.5082
 2963SOL     OW13250   8.859   9.566   1.582  0.1431  0.0167 -0.5279
 2963SOL    HW113251   8.945   9.598   1.609 -0.4967  1.3208  0.0549
 2963SOL    HW213252   8.877   9.483   1.539  1.5173 -0.7411  1.3513
 2964SOL     OW13253   1.007   3.166   0.560  0.3321 -0.2406  0.4858
 2964SOL    HW113254   0.952   3.233   0.520 -1.5523 -1.9860  0.0154
 2964SOL    HW213255   1.087   3.213   0.584  0.2830  1.5691 -2.3919
 2965SOL     OW13256   0.653   7.517   1.507  0.3989 -0.1678  0.3662
 2965SOL    HW113257   0.622   7.542   1.594  0.9535  1.2761  0.1729
 2965SOL    HW213258   0.588   7.554   1.447  0.1309 -0.9748  0.1551
 2966SOL     OW13259   9.989   5.624   8.125 -0.0465  0.7364  0.8220
 2966SOL    HW113260   9.961   5.609   8.035 -0.7554  3.4612  0.5022
 2966SOL    HW213261   9.946   5.555   8.175  0.6683 -1.0764 -0.9054
 2967SOL     OW13262   1.212   3.325   1.361 -0.0186 -0.3033 -0.1840
 2967SOL    HW113263   1.203   3.313   1.455 -2.0694  1.5567 -0.0603
 2967SOL    HW213264   1.131   3.290   1.324  0.4550 -0.3859 -1.1920
 2968SOL     OW13265   1.815   6.337   1.460  0.0541  0.6481 -0.4388
 2968SOL    HW113266   1.762   6.398   1.409  0.1629 -0.3893 -1.8727
 2968SOL    HW213267   1.804   6.365   1.551 -2.0677  1.1524 -0.7817
 2969SOL     OW13268   7.979   6.616   9.279 -0.0581  0.3480 -0.0798
 2969SOL    HW113269   7.914   6.612   9.349  0.2325  0.5288  0.2059
 2969SOL    HW213270   8.063   6.603   9.324  0.0504 -0.6403 -0.5400
 2970SOL     OW13271  10.350   4.674   1.135 -0.3701  0.4185  0.1245
 2970SOL    HW113272  10.375   4.766   1.131 -0.6082  0.4273 -1.8227
 2970SOL    HW213273  10.390   4.634   1.058 -0.6642 -1.0243  0.6757
 2971SOL     OW13274  10.812   5.728   4.484  0.8304  0.0043  0.0654
 2971SOL    HW113275  10.718   5.746   4.473  0.9082  1.5077  1.3587
 2971SOL    HW213276  10.841   5.699   4.398 -1.1460 -2.2226  0.0545
 2972SOL     OW13277   4.264   7.947  10.569  0.5806 -0.2119  0.5436
 2972SOL    HW113278   4.310   7.982  10.494  0.0986 -0.0177  0.3340
 2972SOL    HW213279   4.181   7.915  10.534 -0.2668  1.1677  1.2000
 2973SOL     OW13280   3.940   4.404   2.486 -0.3954 -0.1728  0.1721
 2973SOL    HW113281   3.854   4.365   2.467 -0.5028 -0.4463  1.1847
 2973SOL    HW213282   3.965   4.446   2.403 -0.7758 -1.4303 -0.6150
 2974SOL     OW13283   3.302   3.906   5.861 -0.2274 -0.0781  0.2077
 2974SOL    HW113284   3.210   3.902   5.888 -0.0111 -0.0461  0.9485
 2974SOL    HW213285   3.322   3.999   5.857 -0.6320 -0.0312 -1.3727
 2975SOL     OW13286   3.259   8.476   5.567 -0.1354  0.4622  1.0840
 2975SOL    HW113287   3.336   8.528   5.541  0.4614 -1.6451 -1.9281
 2975SOL    HW213288   3.279   8.446   5.655  1.8936  1.0931  0.9009
 2976SOL     OW13289   0.836   9.045   2.347  0.4031 -0.0518  0.2400
 2976SOL    HW113290   0.780   8.971   2.372  1.5858 -0.1828  2.8549
 2976SOL    HW213291   0.780   9.122   2.358  0.3909 -0.2583  1.7582
 2977SOL     OW13292   3.964   6.125   5.218  0.0797  0.3070  0.1539
 2977SOL    HW113293   3.919   6.140   5.135 -1.8398 -1.1063  0.8603
 2977SOL    HW213294   3.965   6.210   5.261 -0.7650  0.6294 -0.4471
 2978SOL     OW13295   0.977   3.059   0.970 -0.3336 -1.1214  0.1981
 2978SOL    HW113296   0.889   3.095   0.984  0.6050  1.5423 -0.2376
 2978SOL    HW213297   0.999   3.016   1.053 -0.8103  1.0303  1.5015
 2979SOL     OW13298   4.237   7.579   4.296 -0.1206 -0.3875  0.4788
 2979SOL    HW113299   4.229   7.506   4.234 -0.2104 -0.9644  1.1629
 2979SOL    HW213300   4.319   7.622   4.273 -0.5789 -0.0499 -0.6146
 2980SOL     OW13301   3.663   9.382   4.115 -0.7446  0.3282 -0.1743
 2980SOL    HW113302   3.630   9.293   4.131 -0.5661  0.0578 -1.2954
 2980SOL    HW213303   3.714   9.402   4.194 -0.4137 -0.7325 -0.0958
 2981SOL     OW13304   6.193   7.072  10.538 -0.3934  0.0617  0.0790
 2981SOL    HW113305   6.259   7.088  10.606  2.9090  1.9007 -3.1645
 2981SOL    HW213306   6.157   7.159  10.519  0.6878  0.0988 -2.1433
 2982SOL     OW13307   9.359   6.331   4.212  0.1679  0.2711  0.1164
 2982SOL    HW113308   9.401   6.267   4.154  1.3505  0.4950  0.6782
 2982SOL    HW213309   9.286   6.284   4.251 -0.1469 -0.1292 -0.9192
 2983SOL     OW13310  10.701   6.680  10.395 -0.3302  0.0636 -0.5186
 2983SOL    HW113311  10.702   6.616  10.324 -0.1746  2.3179 -2.6991
 2983SOL    HW213312  10.792   6.707  10.404 -0.2779 -0.4860  0.8984
 2984SOL     OW13313   8.350   1.978   6.328 -0.4397 -0.3684 -0.0737
 2984SOL    HW113314   8.343   2.042   6.398  1.0192 -1.3305  1.0186
 2984SOL    HW213315   8.300   2.016   6.255 -0.2450  1.6200  0.7703
 2985SOL     OW13316   3.352  10.445   0.729 -0.1923  0.0404  0.6113
 2985SOL    HW113317   3.291  10.379   0.695  1.1946 -0.4185 -1.1245
 2985SOL    HW213318   3.377  10.497   0.653  2.3616 -0.4572  1.0201
 2986SOL     OW13319  10.760   7.625   1.703  0.4036 -0.2655  0.4590
 2986SOL    HW113320  10.713   7.705   1.680  0.3438 -0.4995 -0.2737
 2986SOL    HW213321  10.842   7.631   1.654  0.4597 -0.5842  0.5110
 2987SOL     OW13322  10.542   8.477   7.730 -0.3332  0.1330 -0.1134
 2987SOL    HW113323  10.567   8.441   7.645  0.5201 -1.0262  0.6065
 2987SOL    HW213324  10.458   8.436   7.749 -0.3332  0.0868 -0.2094
 2988SOL     OW13325   5.945   7.469   9.158 -0.0591 -0.0525 -0.5750
 2988SOL    HW113326   5.853   7.490   9.148  0.2078  1.8555  0.5797
 2988SOL    HW213327   5.991   7.539   9.111  0.8420  1.3009  2.1577
 2989SOL     OW13328   3.676   9.178   9.170 -0.1913 -0.2419  0.2515
 2989SOL    HW113329   3.695   9.084   9.173  1.2459  0.0415  1.7175
 2989SOL    HW213330   3.757   9.218   9.141 -0.3923  0.6272  0.8370
 2990SOL     OW13331   1.767   6.730   3.855 -0.3745  0.0161  0.3005
 2990SOL    HW113332   1.780   6.721   3.950 -1.8739  2.1460  0.7848
 2990SOL    HW213333   1.685   6.683   3.838 -1.0142  1.0552  0.4094
 2991SOL     OW13334   3.445   2.720   8.329  0.0801  0.2401 -0.7660
 2991SOL    HW113335   3.514   2.665   8.365  0.0529  1.0071  0.5259
 2991SOL    HW213336   3.387   2.738   8.404 -1.5184 -0.3713 -1.8082
 2992SOL     OW13337   3.378   4.141   2.227  0.1933 -0.1561 -0.7810
 2992SOL    HW113338   3.293   4.164   2.265  0.5206 -1.2463  0.6762
 2992SOL    HW213339   3.360   4.132   2.133 -1.2466 -0.1349 -0.5288
 2993SOL     OW13340   3.367   4.232   9.113 -0.1330  0.2211 -0.0359
 2993SOL    HW113341   3.455   4.270   9.110  1.7874 -3.4173  2.1797
 2993SOL    HW213342   3.344   4.229   9.206 -1.5741 -0.9135 -0.3810
 2994SOL     OW13343   2.961  10.764   7.662 -0.9486  0.5547 -0.2889
 2994SOL    HW113344   2.991  10.824   7.729 -1.6152 -0.0813  0.6097
 2994SOL    HW213345   3.032  10.760   7.599 -0.3689  1.2718  0.3046
 2995SOL     OW13346   6.414  10.869   1.228 -0.2412  0.1833  0.5621
 2995SOL    HW113347   6.480  10.814   1.188 -0.0082  0.1144  1.0303
 2995SOL    HW213348   6.453  10.897   1.311 -0.7736  0.1887  0.8173
 2996SOL     OW13349   1.211   4.070   8.856  0.2658  0.1556  0.4754
 2996SOL    HW113350   1.240   4.161   8.861  0.7469 -0.0121  0.7225
 2996SOL    HW213351   1.284   4.019   8.889  0.3946 -0.3952 -0.6083
 2997SOL     OW13352   1.804   6.413   0.106 -0.0351 -0.4102  0.3026
 2997SOL    HW113353   1.729   6.358   0.125 -1.2729  1.0025 -0.3084
 2997SOL    HW213354   1.770   6.482   0.049  1.6213  0.5304  0.3793
 2998SOL     OW13355   8.331   4.122   0.736  0.1756  0.1837  0.3476
 2998SOL    HW113356   8.367   4.211   0.734 -0.7492  0.6629  2.0758
 2998SOL    HW213357   8.405   4.067   0.761  0.5640  0.5850  0.1083
 2999SOL     OW13358   0.585   6.514  10.724 -0.1751 -0.0734 -0.6305
 2999SOL    HW113359   0.613   6.582  10.786 -1.3193 -0.9284  0.9002
 2999SOL    HW213360   0.491   6.506  10.739 -0.5020 -0.2864 -2.5627
 3000SOL     OW13361  10.888   0.253   4.526  0.4074 -0.4843 -0.1728
 3000SOL    HW113362  10.969   0.218   4.562 -1.4110 -2.8131  2.0745
 3000SOL    HW213363  10.833   0.271   4.602 -1.7187 -0.4090 -1.6210
 3001SOL     OW13364   3.259   4.621   6.035 -0.0688  0.2273 -0.2600
 3001SOL    HW113365   3.223   4.690   5.978  1.3629  1.3785  0.1852
 3001SOL    HW213366   3.341   4.596   5.994  0.7398  0.7155  1.0154
 3002SOL     OW13367   9.997   2.815   0.752 -0.4471  0.0904 -0.0327
 3002SOL    HW113368   9.948   2.749   0.801 -1.6083  2.9367  3.0468
 3002SOL    HW213369  10.056   2.855   0.817 -0.5719  2.7286 -1.3818
 3003SOL     OW13370   2.506   3.040   4.224 -0.9206 -0.0388 -0.1606
 3003SOL    HW113371   2.569   3.014   4.292  0.3297  1.1350 -0.8167
 3003SOL    HW213372   2.444   2.967   4.220  1.8851 -2.5804 -1.3317
 3004SOL     OW13373   1.363   9.293   5.851  0.7706 -0.4377 -0.2118
 3004SOL    HW113374   1.321   9.245   5.780  2.4724  0.5568 -2.0080
 3004SOL    HW213375   1.390   9.226   5.914  1.5541 -1.6779 -1.7965
 3005SOL     OW13376   5.157   2.978   0.844 -0.5267 -0.3268  0.7631
 3005SOL    HW113377   5.196   2.899   0.807 -0.0053  0.0120  0.5873
 3005SOL    HW213378   5.071   2.949   0.876 -0.7202 -0.7624 -0.1145
 3006SOL     OW13379   9.317  11.079   4.415 -0.9199  0.4991 -0.0199
 3006SOL    HW113380   9.322  10.989   4.447  3.2381  1.2026  1.8355
 3006SOL    HW213381   9.234  11.113   4.451 -2.0769 -2.1825  0.0843
 3007SOL     OW13382   4.743   0.190   9.376 -0.2176 -0.5019 -0.3166
 3007SOL    HW113383   4.759   0.250   9.304 -1.0865  0.9879  0.6563
 3007SOL    HW213384   4.650   0.202   9.396 -1.3374 -4.5470 -2.0986
 3008SOL     OW13385   0.288   8.368   3.968  0.3609  0.5299  0.3460
 3008SOL    HW113386   0.296   8.384   4.062  1.3659  0.6421  0.2544
 3008SOL    HW213387   0.223   8.298   3.960  0.4080  0.3920  1.1344
 3009SOL     OW13388   0.283   0.120   7.536  0.6657  0.6302  0.5110
 3009SOL    HW113389   0.362   0.160   7.573  1.8137 -0.4503 -0.6701
 3009SOL    HW213390   0.278   0.034   7.578 -0.7067  1.2173  1.6208
 3010SOL     OW13391   4.557   9.352   2.654 -0.1634  0.1044  0.2338
 3010SOL    HW113392   4.507   9.410   2.711  0.0336  0.1517  0.3581
 3010SOL    HW213393   4.514   9.266   2.665 -1.2654  0.4723 -0.9232
 3011SOL     OW13394   4.743   1.539   4.320 -0.5948 -0.0205 -0.2281
 3011SOL    HW113395   4.798   1.536   4.242 -0.2942 -0.7786 -0.0029
 3011SOL    HW213396   4.666   1.590   4.294 -0.9803 -1.0969 -1.3429
 3012SOL     OW13397  10.153   9.471   7.643  0.1301  0.1663  0.2863
 3012SOL    HW113398  10.200   9.408   7.587 -1.2920 -1.4997  0.8873
 3012SOL    HW213399  10.144   9.549   7.589  0.6114 -0.6750 -1.0576
 3013SOL     OW13400  10.631   2.910   1.129 -0.0992 -0.2306  0.2773
 3013SOL    HW113401  10.558   2.887   1.186  2.0024 -0.7630  2.9767
 3013SOL    HW213402  10.677   2.827   1.115 -0.1650  0.0215 -1.7144
 3014SOL     OW13403   7.415  10.230   2.160 -0.2834 -0.7255  0.0378
 3014SOL    HW113404   7.417  10.324   2.141  0.6856 -0.8301 -0.4600
 3014SOL    HW213405   7.480  10.218   2.229 -0.0513 -1.0955 -0.2386
 3015SOL     OW13406  10.335   7.916   3.674 -0.3130 -0.3253 -0.4593
 3015SOL    HW113407  10.389   7.940   3.598  0.3820  0.6859  0.3275
 3015SOL    HW213408  10.396   7.871   3.733 -0.1939  1.1751  0.6149
 3016SOL     OW13409   1.430   2.641   3.173 -0.2032 -0.4947  0.2262
 3016SOL    HW113410   1.386   2.577   3.229 -0.2732 -1.8488 -1.2985
 3016SOL    HW213411   1.522   2.636   3.199 -0.3884 -0.3074  0.9464
 3017SOL     OW13412   1.748   3.604   7.161 -0.2351 -0.4077 -0.1973
 3017SOL    HW113413   1.778   3.695   7.162  0.4446 -0.5472 -2.1850
 3017SOL    HW213414   1.829   3.553   7.153 -0.5429 -1.2686  1.8113
 3018SOL     OW13415   9.010   6.099   0.412  0.2362  0.1396  0.8661
 3018SOL    HW113416   9.051   6.047   0.482 -0.7934  0.0713  1.4358
 3018SOL    HW213417   8.926   6.055   0.396 -0.1170  0.9274  0.5111
 3019SOL     OW13418   5.405   2.862   4.584  0.0292  0.3036 -0.2598
 3019SOL    HW113419   5.440   2.946   4.552  0.2793  0.2872 -0.0319
 3019SOL    HW213420   5.478   2.801   4.576  0.1136  0.3132  0.4003
 3020SOL     OW13421   5.237   1.824   5.002 -0.1027 -0.2723 -0.0393
 3020SOL    HW113422   5.221   1.840   5.095 -0.4273 -2.4215  0.3229
 3020SOL    HW213423   5.333   1.816   4.996 -0.1003 -0.4535  0.1875
 3021SOL     OW13424   0.828   7.877   2.474 -0.4793  0.3750 -0.4421
 3021SOL    HW113425   0.746   7.917   2.504 -1.6806  0.3086 -3.3289
 3021SOL    HW213426   0.834   7.795   2.522 -3.6447 -0.9823 -2.0589
 3022SOL     OW13427   5.164   5.517   2.632  0.1649 -0.2662 -0.4049
 3022SOL    HW113428   5.251   5.511   2.671  0.4846 -0.0022 -1.0734
 3022SOL    HW213429   5.107   5.540   2.706  0.8175  0.5669 -0.1451
 3023SOL     OW13430   6.276   4.549   6.295  0.1232 -0.1470 -0.0518
 3023SOL    HW113431   6.368   4.573   6.288  0.1989 -0.5183 -0.3732
 3023SOL    HW213432   6.276   4.454   6.302 -0.2598 -0.2024 -0.6713
 3024SOL     OW13433   6.048   3.443   7.346  0.5173 -0.0597 -0.2241
 3024SOL    HW113434   6.000   3.524   7.331  0.0969  0.6559  3.7660
 3024SOL    HW213435   6.139   3.464   7.324 -0.1152  0.0905 -3.1160
 3025SOL     OW13436   5.208   2.670   6.686  0.1391  0.8056 -0.4784
 3025SOL    HW113437   5.140   2.618   6.643  0.6755 -0.2253 -0.1180
 3025SOL    HW213438   5.286   2.654   6.634  0.3255  1.2103 -0.3245
 3026SOL     OW13439   0.297   6.104  10.135 -0.2919  0.0521 -0.9857
 3026SOL    HW113440   0.250   6.048  10.073 -0.0566  0.1182 -1.2272
 3026SOL    HW213441   0.311   6.048  10.212 -3.5616  0.9560  0.4353
 3027SOL     OW13442   0.060   0.123   7.958  0.2655 -0.0076  0.0167
 3027SOL    HW113443   0.095   0.059   7.896  1.5938  1.0047 -0.3475
 3027SOL    HW213444   0.138   0.169   7.991 -0.6651  2.0174 -0.4340
 3028SOL     OW13445   7.481   0.034   4.760 -0.2159 -0.0790  0.4794
 3028SOL    HW113446   7.541   0.072   4.824 -0.2816 -0.2873  0.6645
 3028SOL    HW213447   7.531  -0.036   4.718 -0.2774 -0.1513  0.5256
 3029SOL     OW13448   0.173   0.313   8.394  0.1298 -0.2979 -0.4245
 3029SOL    HW113449   0.101   0.375   8.390  1.5118  1.3705 -0.8659
 3029SOL    HW213450   0.149   0.252   8.464 -0.9839  1.1332  0.4878
 3030SOL     OW13451   1.415   6.662   6.814  0.1329  0.4563  0.1580
 3030SOL    HW113452   1.429   6.688   6.723  0.0787 -1.0441 -0.3031
 3030SOL    HW213453   1.328   6.623   6.815  1.3084 -2.4495  0.0950
 3031SOL     OW13454   6.518   0.379   1.951  0.0056 -0.4800 -0.1538
 3031SOL    HW113455   6.469   0.444   1.901 -1.2911 -1.6846 -0.5050
 3031SOL    HW213456   6.581   0.431   2.002 -0.3424  0.9595 -1.1229
 3032SOL     OW13457  10.766  10.407   4.295 -0.2572  0.2848 -0.0442
 3032SOL    HW113458  10.853  10.442   4.278  0.8161 -1.6129  1.2216
 3032SOL    HW213459  10.751  10.344   4.224 -0.9718  1.1888 -0.7161
 3033SOL     OW13460   3.914   1.243   1.860  0.1163  0.5734  0.0069
 3033SOL    HW113461   3.830   1.287   1.847  0.8126  2.1594  0.5610
 3033SOL    HW213462   3.900   1.187   1.937 -0.6216  0.3094 -0.3201
 3034SOL     OW13463   9.599  10.162   5.512  0.1628 -0.1776 -0.4127
 3034SOL    HW113464   9.514  10.196   5.483  0.0021 -0.9470 -0.8798
 3034SOL    HW213465   9.659  10.236   5.502 -0.4807  0.4218  0.0868
 3035SOL     OW13466  10.003   8.752   1.950 -0.0361  0.0736  0.3598
 3035SOL    HW113467  10.035   8.811   2.019  0.0914  0.2747  0.1293
 3035SOL    HW213468  10.008   8.804   1.870  3.0734 -1.1820 -0.4336
 3036SOL     OW13469   4.337  11.054   8.176 -0.0225 -0.2322  0.6113
 3036SOL    HW113470   4.311  11.031   8.265 -0.7592 -0.0579  0.4427
 3036SOL    HW213471   4.268  11.112   8.145  0.2685 -0.2334 -0.0511
 3037SOL     OW13472   9.541   6.316   5.859 -0.1353 -0.3360  0.4649
 3037SOL    HW113473   9.548   6.224   5.833  1.2440  0.1817 -1.2324
 3037SOL    HW213474   9.632   6.345   5.867 -0.5425  1.0044  0.4843
 3038SOL     OW13475   6.795   2.957   2.129 -0.1464 -0.5018  0.1907
 3038SOL    HW113476   6.788   2.894   2.057 -0.4753  0.5633 -0.7365
 3038SOL    HW213477   6.864   3.016   2.102  1.4786 -1.4999  1.9131
 3039SOL     OW13478   1.777  10.676   7.306  0.0929  0.7760 -0.1486
 3039SOL    HW113479   1.729  10.751   7.341  0.8998  1.3255 -0.2049
 3039SOL    HW213480   1.784  10.693   7.212  0.5995  0.8255 -0.1067
 3040SOL     OW13481   3.561   5.218   2.290 -0.0813 -0.0856  0.2926
 3040SOL    HW113482   3.592   5.141   2.243  1.6017  0.6330  0.1689
 3040SOL    HW213483   3.471   5.196   2.315  0.7330 -2.5925  1.3509
 3041SOL     OW13484   0.979  10.620   9.355  0.0662  0.4958 -0.2599
 3041SOL    HW113485   0.960  10.602   9.263 -0.2977 -0.9413  0.0602
 3041SOL    HW213486   0.942  10.706   9.372  0.4628  0.9451 -1.5394
 3042SOL     OW13487   9.360   9.323   1.524  0.0597 -0.0781  0.1400
 3042SOL    HW113488   9.408   9.255   1.573  0.8594 -0.0340 -0.5578
 3042SOL    HW213489   9.360   9.399   1.582  0.0828 -0.3475  0.4979
 3043SOL     OW13490   5.488   3.498   0.651 -0.0450 -0.2193  0.4222
 3043SOL    HW113491   5.394   3.486   0.662 -0.1481 -0.1487 -0.3652
 3043SOL    HW213492   5.502   3.496   0.557  0.5412  1.3075  0.4452
 3044SOL     OW13493   9.886   3.419   7.208 -0.0470 -0.0494  0.2765
 3044SOL    HW113494   9.895   3.433   7.302 -0.5890 -0.5573  0.4110
 3044SOL    HW213495   9.945   3.483   7.168  0.1103  0.2364  0.9575
 3045SOL     OW13496   2.179   4.565   6.674 -0.3073 -0.0142  0.1044
 3045SOL    HW113497   2.115   4.634   6.656 -1.4945 -1.4548 -1.4833
 3045SOL    HW213498   2.128   4.497   6.718  0.1437 -1.1216 -1.0445
 3046SOL     OW13499   9.048   5.575  11.080 -0.1640 -0.1211  0.0461
 3046SOL    HW113500   8.959   5.542  11.073 -0.0512 -0.3542 -0.3104
 3046SOL    HW213501   9.095   5.506  11.128  0.2675 -0.8833 -1.4196
 3047SOL     OW13502   8.912   1.897   8.032  0.0013  0.1209  0.0649
 3047SOL    HW113503   8.959   1.830   7.981 -0.1500 -1.0402  1.3867
 3047SOL    HW213504   8.859   1.943   7.967 -0.1100 -1.2433 -0.8580
 3048SOL     OW13505  10.375   5.379   8.998  0.0485  0.3037 -0.3385
 3048SOL    HW113506  10.340   5.324   8.927  0.9210  1.0435 -1.3761
 3048SOL    HW213507  10.462   5.404   8.968 -0.2419  2.0821  0.1869
 3049SOL     OW13508   2.879   6.430   4.439 -0.1979 -0.3838 -0.2903
 3049SOL    HW113509   2.822   6.501   4.468  1.5095  2.0091 -2.2494
 3049SOL    HW213510   2.933   6.470   4.371  4.5039 -2.0428  1.9993
 3050SOL     OW13511   1.026   2.879  10.086 -0.2554 -0.5044  0.0871
 3050SOL    HW113512   0.980   2.795  10.094 -2.2286  0.6672  2.2883
 3050SOL    HW213513   0.997   2.915  10.002 -0.8652 -1.1927 -0.0030
 3051SOL     OW13514   8.750  10.831   5.093 -0.2170 -0.4251  0.1160
 3051SOL    HW113515   8.845  10.843   5.102 -0.4002  0.2160  1.3996
 3051SOL    HW213516   8.713  10.915   5.121 -1.2747 -1.5678  2.3919
 3052SOL     OW13517   2.614  10.220  10.329  0.1388  0.5069  0.0713
 3052SOL    HW113518   2.571  10.267  10.258 -0.1735 -0.3602 -0.3219
 3052SOL    HW213519   2.672  10.286  10.369  0.3305  1.0025 -0.9772
 3053SOL     OW13520   0.305   7.782   2.769 -1.5078  0.0998  0.7879
 3053SOL    HW113521   0.310   7.689   2.749 -3.2203  0.3233 -1.0290
 3053SOL    HW213522   0.221   7.793   2.814 -0.9442  0.6693  1.7457
 3054SOL     OW13523  10.254   2.599   1.865 -0.6688  0.1328 -0.3145
 3054SOL    HW113524  10.247   2.504   1.856 -0.5807  0.2753 -2.5089
 3054SOL    HW213525  10.310   2.613   1.941 -1.4220 -1.5290  0.6001
 3055SOL     OW13526  10.751   5.853   5.788  0.7779 -0.3561  0.5746
 3055SOL    HW113527  10.770   5.923   5.726 -1.0124 -0.9567 -0.7333
 3055SOL    HW213528  10.658   5.834   5.776  0.7923 -1.7129  2.1972
 3056SOL     OW13529   9.250  11.050   3.975  0.2036 -0.2199 -0.3036
 3056SOL    HW113530   9.240  11.135   4.017  2.5373 -0.3022  0.5921
 3056SOL    HW213531   9.239  10.986   4.046 -0.1411 -0.6059 -0.6937
 3057SOL     OW13532   4.306   1.459   3.283  0.2774  0.1851  0.1858
 3057SOL    HW113533   4.332   1.541   3.326 -1.2823  1.9716 -2.0122
 3057SOL    HW213534   4.354   1.460   3.200 -0.9545 -0.2856 -0.5587
 3058SOL     OW13535   3.947   3.258   7.403 -0.3651  0.1210 -0.0435
 3058SOL    HW113536   3.953   3.353   7.393 -1.4881  0.1478 -0.5371
 3058SOL    HW213537   3.983   3.242   7.490 -0.4799  1.0323  0.1865
 3059SOL     OW13538   1.205   9.498   5.518  0.2069  0.4124  0.0728
 3059SOL    HW113539   1.282   9.464   5.473  0.7235 -1.0969  1.9535
 3059SOL    HW213540   1.131   9.455   5.474  0.5858  0.1513 -0.3145
 3060SOL     OW13541   7.981   3.425   4.869 -0.0169  0.0685  0.2273
 3060SOL    HW113542   8.000   3.448   4.778  1.4486  0.2066  0.5365
 3060SOL    HW213543   8.035   3.346   4.885 -1.4762 -0.9045  0.5154
 3061SOL     OW13544   1.844   4.906  10.341  0.2250  0.2568 -0.2844
 3061SOL    HW113545   1.821   4.950  10.259  1.7091 -0.8729 -1.3744
 3061SOL    HW213546   1.937   4.886  10.332  0.8061  1.3871  2.3348
 3062SOL     OW13547   0.848   3.536  10.735 -0.3909  0.2584 -0.0586
 3062SOL    HW113548   0.836   3.584  10.817 -2.3157  2.3588 -1.4495
 3062SOL    HW213549   0.898   3.596  10.679  0.2722 -0.8408 -0.6826
 3063SOL     OW13550   1.624   0.758   8.447 -0.3135  0.3726  0.1279
 3063SOL    HW113551   1.536   0.744   8.480  0.2109  1.0477  1.9508
 3063SOL    HW213552   1.619   0.839   8.397 -0.9756 -0.3040 -0.9618
 3064SOL     OW13553   6.593   7.486   1.765 -0.4073  0.8533  0.8603
 3064SOL    HW113554   6.603   7.411   1.707 -1.3702  1.7576 -0.5745
 3064SOL    HW213555   6.676   7.493   1.812  0.0586 -0.4836  0.2662
 3065SOL     OW13556   1.943   2.392   3.890  0.3464  0.1765 -0.2225
 3065SOL    HW113557   1.973   2.412   3.979 -0.0993  1.1337 -0.2862
 3065SOL    HW213558   1.882   2.319   3.902 -1.1477  1.5003  0.4877
 3066SOL     OW13559   6.584   3.602   7.709 -0.0399  0.5267 -0.3149
 3066SOL    HW113560   6.634   3.612   7.628 -0.5884  0.0276 -0.7163
 3066SOL    HW213561   6.496   3.634   7.688  0.0001  1.0665  0.2917
 3067SOL     OW13562   4.009  10.368   9.924  0.3172 -0.0192 -0.3757
 3067SOL    HW113563   4.044  10.362  10.013  2.6663 -1.1645 -1.2866
 3067SOL    HW213564   4.085  10.350   9.868 -1.5920 -1.9602 -2.5514
 3068SOL     OW13565   2.284   7.294   1.916  0.3501 -0.2730 -0.5664
 3068SOL    HW113566   2.210   7.275   1.859  0.6340 -1.3611 -0.6107
 3068SOL    HW213567   2.353   7.322   1.856  0.6125 -1.3072 -0.7813
 3069SOL     OW13568   3.568   6.409   3.559 -0.0593  0.3780 -0.0010
 3069SOL    HW113569   3.495   6.420   3.619  1.0543  1.4395  1.2188
 3069SOL    HW213570   3.624   6.485   3.574  2.1749 -1.2062  0.3712
 3070SOL     OW13571   0.641   0.157   2.420 -0.0108  0.2508 -0.2932
 3070SOL    HW113572   0.579   0.176   2.491  0.0232  0.2948 -0.2750
 3070SOL    HW213573   0.725   0.190   2.453  0.3623 -1.2858  0.3806
 3071SOL     OW13574   9.583   8.014   9.533 -0.5156 -0.1429  1.3403
 3071SOL    HW113575   9.642   7.938   9.531  0.5503  0.6306  2.0041
 3071SOL    HW213576   9.502   7.980   9.570  0.0609 -0.9055  1.9491
 3072SOL     OW13577   4.317   7.492   7.235  0.1859  0.2924  0.0731
 3072SOL    HW113578   4.257   7.511   7.163 -0.3828  1.3694  0.8076
 3072SOL    HW213579   4.279   7.537   7.311  1.7416  0.7453  0.6254
 3073SOL     OW13580   8.401   2.415   6.374 -0.8600  0.0949 -0.4574
 3073SOL    HW113581   8.481   2.466   6.363 -0.9390  0.8463  1.9228
 3073SOL    HW213582   8.359   2.418   6.288  1.2762  0.3233 -1.5469
 3074SOL     OW13583   0.652   5.055   0.195 -1.0858 -0.2451 -0.6169
 3074SOL    HW113584   0.724   5.100   0.240 -0.9619 -0.0234 -1.0258
 3074SOL    HW213585   0.690   4.972   0.167 -2.1752 -2.1451  2.9388
 3075SOL     OW13586   0.463   9.667   0.820 -0.2658  0.1042 -0.2536
 3075SOL    HW113587   0.464   9.759   0.795 -1.0390  0.1460 -0.1518
 3075SOL    HW213588   0.538   9.629   0.775  3.7200  1.8634  3.9823
 3076SOL     OW13589   2.842   4.554   1.803  0.0078 -0.4651  0.5861
 3076SOL    HW113590   2.801   4.620   1.747  0.3839 -0.2631  0.5479
 3076SOL    HW213591   2.768   4.508   1.844 -0.2585 -0.2164  0.3874
 3077SOL     OW13592   8.308   5.416   2.502  0.0857  0.4608  0.2567
 3077SOL    HW113593   8.313   5.361   2.424  0.5439 -2.4044  2.1437
 3077SOL    HW213594   8.399   5.426   2.531  0.0605  2.6125 -0.1976
 3078SOL     OW13595   7.174   4.108   2.758 -0.2515  0.5971 -0.3524
 3078SOL    HW113596   7.191   4.127   2.850 -0.1736 -0.5372 -0.1133
 3078SOL    HW213597   7.248   4.146   2.712  1.3783 -1.4653  0.3786
 3079SOL     OW13598   4.832   4.087   8.608 -0.3715  0.1679 -0.6547
 3079SOL    HW113599   4.920   4.058   8.584  0.0166  1.4035 -0.7820
 3079SOL    HW213600   4.844   4.137   8.688 -0.6454  1.9461 -1.6597
 3080SOL     OW13601   9.438   6.080   1.001  0.4681  0.2619  0.3892
 3080SOL    HW113602   9.478   6.034   0.927  2.2700  1.8058  0.3481
 3080SOL    HW213603   9.495   6.059   1.075 -0.7863 -0.4947  1.1781
 3081SOL     OW13604   5.227   5.545   9.665 -0.1988  0.2966 -0.3379
 3081SOL    HW113605   5.155   5.523   9.606 -0.2830  1.9704 -0.9185
 3081SOL    HW213606   5.275   5.463   9.675 -2.8549 -1.2197  1.0830
 3082SOL     OW13607   4.741   3.429   4.497 -0.7165  0.5017 -0.3696
 3082SOL    HW113608   4.734   3.523   4.518  0.1863  0.6389 -0.6585
 3082SOL    HW213609   4.786   3.391   4.572 -2.6666 -0.0421  0.5888
 3083SOL     OW13610   5.052   5.838   5.370  0.2249 -0.3401  1.0477
 3083SOL    HW113611   5.087   5.774   5.432  1.7775  0.0915  0.6413
 3083SOL    HW213612   5.076   5.923   5.406  0.9032 -0.0752  0.0271
 3084SOL     OW13613   5.567  10.681   8.601  0.4151  0.1869 -0.5173
 3084SOL    HW113614   5.636  10.616   8.612  0.5445  0.2949 -0.6943
 3084SOL    HW213615   5.577  10.741   8.675 -1.2392 -1.3746  1.0861
 3085SOL     OW13616  10.074  10.371   5.453 -0.0632  0.1664  0.1821
 3085SOL    HW113617   9.980  10.374   5.465  0.0945  0.6493  1.4704
 3085SOL    HW213618  10.100  10.283   5.481 -0.0623  0.2553  0.4661
 3086SOL     OW13619   7.611   8.563   5.572  0.1006  0.6596 -0.1635
 3086SOL    HW113620   7.686   8.515   5.606 -0.4126  0.2342  0.3891
 3086SOL    HW213621   7.598   8.528   5.484  0.0035  0.0920  0.0715
 3087SOL     OW13622   9.926  10.684   8.462 -0.5404 -0.2412 -0.2547
 3087SOL    HW113623   9.833  10.684   8.439 -0.5889  0.2027 -0.0685
 3087SOL    HW213624   9.936  10.759   8.521  0.0764  0.1771 -0.8684
 3088SOL     OW13625   3.553   6.522   3.315 -0.1132 -0.1809  0.1733
 3088SOL    HW113626   3.519   6.598   3.363 -2.9144 -0.9488 -0.3739
 3088SOL    HW213627   3.558   6.453   3.381  0.0881 -0.1403  0.1993
 3089SOL     OW13628   9.463   1.255   7.958 -0.3554  0.5342 -0.1031
 3089SOL    HW113629   9.464   1.349   7.975  3.1049  0.4266  0.9838
 3089SOL    HW213630   9.520   1.244   7.882  0.9690 -0.7963  1.0285
 3090SOL     OW13631   1.402   9.461   1.463  0.1559  0.2466 -0.2286
 3090SOL    HW113632   1.307   9.472   1.462  0.2553  1.3250 -1.4576
 3090SOL    HW213633   1.423   9.436   1.553 -1.0682  2.1170  0.6276
 3091SOL     OW13634   7.819   3.396   9.089 -0.0235 -0.6709 -0.5428
 3091SOL    HW113635   7.843   3.485   9.117 -2.4559 -0.7725  2.2299
 3091SOL    HW213636   7.903   3.350   9.083  1.0136  0.4499  3.0759
 3092SOL     OW13637   6.082   6.336   7.330  0.3391 -0.1299  0.4644
 3092SOL    HW113638   6.089   6.247   7.365  1.4023  0.0941  0.8658
 3092SOL    HW213639   6.147   6.386   7.380  0.7026  0.5766 -0.6783
 3093SOL     OW13640   3.937   3.030   8.857  0.4090 -0.3443 -0.0773
 3093SOL    HW113641   3.917   3.024   8.950 -0.4308  1.0577 -0.1259
 3093SOL    HW213642   3.990   3.109   8.849 -2.7211  1.8684 -1.1622
 3094SOL     OW13643   6.997   4.143   0.935  0.3383  0.1465  0.1528
 3094SOL    HW113644   7.090   4.167   0.934  1.1395 -2.6201 -1.3037
 3094SOL    HW213645   6.964   4.176   0.851  0.4877 -0.3987 -0.1291
 3095SOL     OW13646   0.564   9.049   9.873  0.4264 -0.2404  0.3344
 3095SOL    HW113647   0.530   9.056   9.784  0.7563  0.0950  0.2326
 3095SOL    HW213648   0.576   9.140   9.901  2.8018 -0.3110 -0.2514
 3096SOL     OW13649   8.291   4.045   3.973 -0.0171  0.4456 -0.1129
 3096SOL    HW113650   8.270   4.006   4.058  1.9192  1.0986  0.7224
 3096SOL    HW213651   8.365   3.993   3.941  0.9477  1.8171 -0.1620
 3097SOL     OW13652   5.531  10.494   7.761  0.1842 -0.2421  0.6441
 3097SOL    HW113653   5.462  10.458   7.706  1.7855  0.9179 -2.3878
 3097SOL    HW213654   5.492  10.570   7.804 -1.2086 -1.3872  1.4988
 3098SOL     OW13655   9.919   7.795   0.475  0.0745 -0.2857 -0.4024
 3098SOL    HW113656   9.855   7.825   0.409 -0.3310 -1.4936 -0.5804
 3098SOL    HW213657   9.891   7.839   0.555 -0.5344 -0.2242 -0.6370
 3099SOL     OW13658   8.515   5.929   6.230 -0.5222  0.4978 -0.2579
 3099SOL    HW113659   8.538   5.874   6.304 -0.1588 -0.2118 -0.8858
 3099SOL    HW213660   8.545   6.017   6.254  1.5014 -0.1000 -0.4207
 3100SOL     OW13661   1.161   9.617   8.572  0.5317 -0.3353 -0.1731
 3100SOL    HW113662   1.065   9.619   8.575  0.5244  1.4643 -0.2832
 3100SOL    HW213663   1.185   9.702   8.535  2.1707 -0.9193 -0.5193
 3101SOL     OW13664   1.025   3.784   0.288  0.1007 -0.3277 -0.5416
 3101SOL    HW113665   1.046   3.822   0.373  1.2820  2.2359 -1.8788
 3101SOL    HW213666   1.006   3.692   0.307  1.4876 -0.1226  2.3273
 3102SOL     OW13667  10.467   5.211   7.631 -0.4559  0.0204 -0.5888
 3102SOL    HW113668  10.374   5.232   7.635 -0.1698  1.2590 -0.0055
 3102SOL    HW213669  10.498   5.252   7.550 -0.5819 -1.1094 -1.2165
 3103SOL     OW13670   2.628   3.944   3.938  0.0161 -0.0140 -0.5975
 3103SOL    HW113671   2.619   4.024   3.886 -1.4864  0.1684 -0.1031
 3103SOL    HW213672   2.652   3.974   4.025 -1.2345 -0.0219 -0.2302
 3104SOL     OW13673   8.827   8.284  10.260  0.0590 -0.3095  0.1067
 3104SOL    HW113674   8.803   8.364  10.213  2.7123 -0.3307 -1.4561
 3104SOL    HW213675   8.857   8.314  10.345 -1.7642  0.0200  0.6829
 3105SOL     OW13676   1.931   8.096   8.441 -0.0524 -0.1117 -0.4236
 3105SOL    HW113677   1.966   8.183   8.424 -0.9714  0.3059 -0.1992
 3105SOL    HW213678   2.008   8.045   8.468 -0.0140  1.5269  3.0088
 3106SOL     OW13679   8.039  11.087  10.139  0.1856 -0.6226  0.8327
 3106SOL    HW113680   8.071  11.173  10.165 -1.1081 -0.0972  0.7857
 3106SOL    HW213681   7.969  11.105  10.077  1.3384 -1.7868 -0.8957
 3107SOL     OW13682   5.752   3.610   7.330  0.6486  0.6709 -0.2415
 3107SOL    HW113683   5.718   3.547   7.394  1.3583  1.1231  0.5969
 3107SOL    HW213684   5.751   3.694   7.377  2.8125  0.7283 -0.2078
 3108SOL     OW13685   3.864   3.751  10.979  0.0182  0.3370  0.1089
 3108SOL    HW113686   3.772   3.772  10.965  0.5939  3.3780  0.1549
 3108SOL    HW213687   3.867   3.656  10.988 -2.8934  0.0195 -1.3885
 3109SOL     OW13688  11.052   4.666   2.365  0.0700 -0.2354 -0.0785
 3109SOL    HW113689  10.981   4.603   2.351 -0.9718  1.0088 -0.5886
 3109SOL    HW213690  11.026   4.715   2.443  0.3483  0.2440 -0.2812
 3110SOL     OW13691   9.328   0.594   3.072  0.3476  0.5835 -0.2182
 3110SOL    HW113692   9.331   0.498   3.064  1.2120  0.5699  0.1522
 3110SOL    HW213693   9.235   0.615   3.072  0.0828 -0.4226  1.4869
 3111SOL     OW13694   5.220  11.106  10.700  0.3566 -0.0967  0.3884
 3111SOL    HW113695   5.188  11.070  10.617  2.5577 -2.6146  0.4784
 3111SOL    HW213696   5.297  11.157  10.675 -0.9942  2.1495  0.6006
 3112SOL     OW13697   1.623   8.690   3.045  0.7867 -0.3572 -0.3269
 3112SOL    HW113698   1.665   8.642   3.116 -0.9087  0.7499  1.5630
 3112SOL    HW213699   1.529   8.677   3.060  0.3760 -0.1972 -2.4833
 3113SOL     OW13700   1.362   1.200   1.280 -0.0776  0.2476 -0.2779
 3113SOL    HW113701   1.390   1.170   1.193 -0.9004  0.6000 -0.6698
 3113SOL    HW213702   1.304   1.274   1.262  1.6710  1.9541  0.6427
 3114SOL     OW13703   5.308   9.325   0.717  0.2822  0.1485  0.3834
 3114SOL    HW113704   5.327   9.307   0.810 -0.5904 -0.7651  0.4080
 3114SOL    HW213705   5.358   9.258   0.670  0.5201  0.4539  0.1995
 3115SOL     OW13706   0.202  10.428   0.659  0.2240  0.5617  0.4112
 3115SOL    HW113707   0.114  10.394   0.674  0.4786  0.0743  0.8316
 3115SOL    HW213708   0.194  10.481   0.580  0.2170 -2.0959 -1.5183
 3116SOL     OW13709   8.143   4.605   4.222  0.2951  0.0372 -0.1534
 3116SOL    HW113710   8.132   4.606   4.126  0.7196  0.0016 -0.2007
 3116SOL    HW213711   8.133   4.513   4.246 -0.1394  0.0893 -0.1244
 3117SOL     OW13712   6.154   5.858   8.932 -0.2722 -0.6026  0.6650
 3117SOL    HW113713   6.074   5.882   8.885  0.8596  1.1679 -0.5205
 3117SOL    HW213714   6.221   5.856   8.864  0.7799 -1.6386  1.6960
 3118SOL     OW13715   6.294  10.635   9.134 -0.0032  0.0877  0.4494
 3118SOL    HW113716   6.226  10.601   9.191 -1.4962  0.6305 -0.9083
 3118SOL    HW213717   6.327  10.558   9.087 -1.5294  0.1169 -0.7371
 3119SOL     OW13718   2.088   4.915  10.883  0.0498 -0.0127 -0.2447
 3119SOL    HW113719   2.168   4.963  10.861 -1.2386  1.5826 -1.8290
 3119SOL    HW213720   2.087   4.841  10.822  0.9401 -0.7852  0.6666
 3120SOL     OW13721   3.359   9.590   0.018  0.2523 -0.1393 -0.4966
 3120SOL    HW113722   3.443   9.632   0.001  1.3578 -0.7167  2.9432
 3120SOL    HW213723   3.301   9.662   0.042  0.9523 -0.0941  1.1610
 3121SOL     OW13724   3.770   2.141   6.356  0.2063  0.3131 -0.0699
 3121SOL    HW113725   3.701   2.080   6.330 -0.3021  1.9494 -2.9476
 3121SOL    HW213726   3.851   2.100   6.326  0.0119  0.3923 -0.7096
 3122SOL     OW13727   7.776   8.330  10.650 -0.1636  0.1987  0.2982
 3122SOL    HW113728   7.853   8.308  10.702  0.5870 -0.8044 -1.1539
 3122SOL    HW213729   7.761   8.252  10.596 -1.7059  0.6954 -0.0398
 3123SOL     OW13730   9.667  10.800   6.882  0.1912 -0.1904  0.5274
 3123SOL    HW113731   9.735  10.803   6.950 -0.0485 -0.4708  0.7892
 3123SOL    HW213732   9.660  10.889   6.850 -0.6862  0.2663  1.8823
 3124SOL     OW13733   4.679   5.973   2.338  0.0346 -0.6451  0.6672
 3124SOL    HW113734   4.608   5.929   2.290  1.3232 -0.3713 -1.6231
 3124SOL    HW213735   4.757   5.923   2.315  0.9856  0.6911  0.9311
 3125SOL     OW13736   3.536   5.371   1.446 -0.2362 -0.4293 -0.7273
 3125SOL    HW113737   3.611   5.341   1.498 -0.7568 -0.0676  0.2439
 3125SOL    HW213738   3.566   5.364   1.355  1.8138  1.7798 -0.3356
 3126SOL     OW13739   5.705   7.000   8.078 -0.6112 -0.1315 -0.7435
 3126SOL    HW113740   5.783   6.995   8.024 -1.0345  2.0897 -1.7044
 3126SOL    HW213741   5.737   7.027   8.164 -0.2623  0.2650 -0.9927
 3127SOL     OW13742   1.030   9.584   1.023 -0.0341 -0.1832 -0.2852
 3127SOL    HW113743   1.058   9.515   1.083 -0.2525 -1.2550 -1.3695
 3127SOL    HW213744   1.021   9.662   1.078 -0.2244 -1.1246  1.0645
 3128SOL     OW13745   1.189   5.477   5.112 -0.5637  0.1495 -0.1931
 3128SOL    HW113746   1.234   5.454   5.030  0.6961  0.3806  0.4150
 3128SOL    HW213747   1.257   5.514   5.167 -1.6493  1.1166  0.5347
 3129SOL     OW13748   2.691   8.926   1.695  0.1335 -0.2096 -0.0421
 3129SOL    HW113749   2.727   8.852   1.645 -1.4248 -0.0380 -1.5370
 3129SOL    HW213750   2.636   8.972   1.632 -1.1183  0.6434  1.6074
 3130SOL     OW13751   0.307   9.548   1.525 -0.0528 -0.0389  0.1147
 3130SOL    HW113752   0.390   9.543   1.571  1.2798  0.6731 -2.0685
 3130SOL    HW213753   0.321   9.502   1.442 -1.7947  0.1749 -0.3596
 3131SOL     OW13754  10.353   9.057   5.432 -0.8739 -0.1013 -0.2388
 3131SOL    HW113755  10.405   9.137   5.432 -0.1339 -0.5746  0.6112
 3131SOL    HW213756  10.275   9.080   5.483 -1.2265  0.4114 -0.9755
 3132SOL     OW13757   0.325   1.299   9.420  0.2989  1.1142  0.1091
 3132SOL    HW113758   0.295   1.208   9.417 -0.0220  1.1967  0.6670
 3132SOL    HW213759   0.250   1.347   9.454  0.4528  1.5960 -0.2313
 3133SOL     OW13760   6.475   8.404   1.440  0.0383 -0.0871  0.0952
 3133SOL    HW113761   6.413   8.396   1.368 -0.2261  1.3488  0.1218
 3133SOL    HW213762   6.483   8.499   1.454  1.1281 -0.2955  1.0486
 3134SOL     OW13763   2.631   8.011   6.623  0.4828 -0.0413  0.3966
 3134SOL    HW113764   2.588   7.928   6.643  3.0977 -1.6561 -0.2272
 3134SOL    HW213765   2.633   8.015   6.528  2.1222 -0.2781  0.4039
 3135SOL     OW13766   3.106   3.064   5.805 -0.0438 -0.1627  0.4790
 3135SOL    HW113767   3.125   3.026   5.719  0.5208  0.6343  0.2379
 3135SOL    HW213768   3.135   2.998   5.868  0.9089 -0.1531  0.0678
 3136SOL     OW13769  10.370  11.026   9.729 -0.2915 -0.4756 -0.1216
 3136SOL    HW113770  10.462  10.997   9.732 -0.1802 -0.0908  0.2578
 3136SOL    HW213771  10.370  11.111   9.773 -0.7618 -0.2812 -0.4895
 3137SOL     OW13772   4.058   2.075   3.390  0.6692  0.3004  0.6643
 3137SOL    HW113773   4.108   2.029   3.457  1.0205  0.5941  0.6049
 3137SOL    HW213774   4.093   2.164   3.391  0.1165  0.5224  0.6580
 3138SOL     OW13775  10.836   8.197   2.274 -0.0013 -0.0121  0.0221
 3138SOL    HW113776  10.832   8.199   2.369  1.3806  0.1431  0.1062
 3138SOL    HW213777  10.783   8.121   2.249  0.1235 -0.4202  0.9558
 3139SOL     OW13778   1.027   6.348   3.045  0.3851  0.2532 -0.3350
 3139SOL    HW113779   0.951   6.402   3.067  0.4683 -0.2641  1.4263
 3139SOL    HW213780   0.992   6.278   2.990 -0.8292 -0.9068  1.7504
 3140SOL     OW13781   2.443   4.518   5.784  0.2771  0.8515  0.6486
 3140SOL    HW113782   2.364   4.523   5.838 -0.3380  0.9369 -0.2263
 3140SOL    HW213783   2.451   4.426   5.762  1.1063  0.6586  1.6985
 3141SOL     OW13784   7.254   2.066   9.146  0.3873  0.4419 -0.1405
 3141SOL    HW113785   7.333   2.092   9.099  0.9036  1.1352  1.0496
 3141SOL    HW213786   7.219   1.992   9.097  2.2097 -0.3835 -0.2433
 3142SOL     OW13787   0.745   1.599   7.969  0.5946  0.3521 -0.2905
 3142SOL    HW113788   0.783   1.686   7.971 -3.6221  2.4576 -0.6839
 3142SOL    HW213789   0.672   1.603   8.032  0.9108 -3.3079  0.5255
 3143SOL     OW13790   4.370   9.039   8.824 -0.4658  0.5331  0.6873
 3143SOL    HW113791   4.396   9.113   8.879  0.5283 -0.0608  1.0412
 3143SOL    HW213792   4.322   8.981   8.883  0.6280 -0.1187  0.9579
 3144SOL     OW13793   8.473   6.521   8.298  0.3745  0.2771 -0.1637
 3144SOL    HW113794   8.492   6.463   8.372 -1.8899  0.0321  0.3129
 3144SOL    HW213795   8.452   6.462   8.226 -0.4154  0.4842 -0.1141
 3145SOL     OW13796   5.804  11.073   8.651  0.4028 -0.3648  0.0467
 3145SOL    HW113797   5.873  11.011   8.627 -0.8379 -1.1977 -1.5749
 3145SOL    HW213798   5.742  11.021   8.701 -0.6401 -0.4969 -1.3132
 3146SOL     OW13799   2.423   8.614   6.134  0.0184 -0.2632 -0.2813
 3146SOL    HW113800   2.453   8.551   6.199 -1.2348  0.2973  0.8969
 3146SOL    HW213801   2.344   8.574   6.096 -0.7210  0.5039  0.3956
 3147SOL     OW13802   8.275   5.709   0.163  0.7003 -0.2504  0.2286
 3147SOL    HW113803   8.354   5.755   0.192 -0.4568  0.5506  2.3191
 3147SOL    HW213804   8.211   5.778   0.149  0.5690 -0.8228 -2.3417
 3148SOL     OW13805   7.791   8.778   4.884  0.6480  0.4882 -0.1765
 3148SOL    HW113806   7.769   8.685   4.879  0.0492  0.6826 -1.4191
 3148SOL    HW213807   7.734   8.813   4.953 -0.5333  0.3100 -1.0381
 3149SOL     OW13808   2.738   3.836  10.823 -0.4400 -0.1210 -0.6840
 3149SOL    HW113809   2.793   3.873  10.753  0.3345 -2.7943 -1.6166
 3149SOL    HW213810   2.779   3.866  10.904  0.6886  0.2748 -1.3774
 3150SOL     OW13811   1.056   2.532   5.473  0.0629  0.0879  0.0853
 3150SOL    HW113812   1.024   2.448   5.506 -1.2518  0.6002  0.1743
 3150SOL    HW213813   1.113   2.565   5.542 -1.8171  0.6482  1.4587
 3151SOL     OW13814  10.735   6.898   9.054  0.0187 -0.2427  0.1760
 3151SOL    HW113815  10.647   6.871   9.079  0.0611 -0.4386  0.1161
 3151SOL    HW213816  10.765   6.831   8.994  0.1812 -0.1375  0.1376
 3152SOL     OW13817   7.676   0.962  10.144  0.1235 -0.3461 -0.0078
 3152SOL    HW113818   7.672   0.881  10.196  0.7665 -1.7346 -2.0141
 3152SOL    HW213819   7.726   1.023  10.199 -0.4346 -1.2471  1.5812
 3153SOL     OW13820   5.132   7.911   8.274 -0.1067 -0.0930 -0.0875
 3153SOL    HW113821   5.192   7.981   8.300  0.0755 -0.2772 -0.0090
 3153SOL    HW213822   5.124   7.856   8.352  0.8675 -0.9466 -0.5648
 3154SOL     OW13823   3.721   5.645   4.343  0.0818  0.3068 -0.2536
 3154SOL    HW113824   3.781   5.571   4.332  2.9170  2.1463  1.2424
 3154SOL    HW213825   3.754   5.711   4.281 -1.4081  0.8703 -0.4735
 3155SOL     OW13826  10.247   7.865   4.354  0.3017  0.4648  0.0674
 3155SOL    HW113827  10.171   7.908   4.395  1.5463  3.2915 -0.3470
 3155SOL    HW213828  10.209   7.797   4.300 -2.1316  2.5678 -1.0872
 3156SOL     OW13829   6.968   1.453   0.648  0.4605 -0.0819  0.1680
 3156SOL    HW113830   6.877   1.441   0.674  0.3879  1.5441  0.8090
 3156SOL    HW213831   7.018   1.431   0.726  0.4625  1.0259  0.5085
 3157SOL     OW13832   8.724   4.736   9.088 -0.1900 -0.0064  0.0247
 3157SOL    HW113833   8.655   4.797   9.115  0.2682  0.9486 -0.8729
 3157SOL    HW213834   8.764   4.778   9.012  2.2188  0.1009  1.2687
 3158SOL     OW13835   3.858   9.904   0.069  0.1092  0.0968  0.1043
 3158SOL    HW113836   3.873   9.827   0.014  0.1707  0.5599 -0.5431
 3158SOL    HW213837   3.939   9.955   0.061  0.0504  0.2538  0.4897
 3159SOL     OW13838   5.693   5.001   7.952 -0.0535 -0.4671 -0.3987
 3159SOL    HW113839   5.729   4.913   7.941 -2.0626 -1.3196 -0.5675
 3159SOL    HW213840   5.764   5.059   7.927  0.8268 -2.0748 -1.8527
 3160SOL     OW13841  10.149   5.214   9.764 -0.1212  0.3768 -0.3580
 3160SOL    HW113842  10.180   5.197   9.675 -0.9306 -0.8211 -0.4383
 3160SOL    HW213843  10.197   5.152   9.819 -1.3547 -0.5703 -0.3096
 3161SOL     OW13844   1.090   4.563   3.397 -0.1639 -0.4651  0.2675
 3161SOL    HW113845   1.143   4.502   3.346  0.9419 -1.9198  2.9454
 3161SOL    HW213846   1.079   4.519   3.481 -1.4041  2.0345  1.4922
 3162SOL     OW13847   1.401   2.771   8.905  0.3959 -0.0948  0.9303
 3162SOL    HW113848   1.410   2.860   8.872  0.3250 -0.2694  0.4332
 3162SOL    HW213849   1.491   2.742   8.920  0.4675 -0.2404  0.2699
 3163SOL     OW13850  10.398   9.252   5.043 -0.0988  0.5509  0.6138
 3163SOL    HW113851  10.369   9.324   4.987 -1.2479  0.9862  1.7229
 3163SOL    HW213852  10.493   9.257   5.041 -0.0869  0.4157 -1.4464
 3164SOL     OW13853   9.263   2.321   0.120 -0.0940 -0.2883 -0.1994
 3164SOL    HW113854   9.223   2.235   0.132  0.1128 -0.3627 -0.0279
 3164SOL    HW213855   9.193   2.376   0.084 -0.1090 -0.6387 -0.7140
 3165SOL     OW13856   4.628  10.936   6.688 -0.2353 -0.1055  0.1548
 3165SOL    HW113857   4.717  10.926   6.654 -0.1233  0.7047  0.1973
 3165SOL    HW213858   4.607  10.850   6.725 -0.0623 -0.7862 -1.2227
 3166SOL     OW13859   4.260   4.145   8.500  0.6158 -0.2296  0.2774
 3166SOL    HW113860   4.239   4.207   8.430 -2.3020 -0.2077  1.0186
 3166SOL    HW213861   4.329   4.090   8.464  0.0619  0.5514 -2.1629
 3167SOL     OW13862   2.134   4.266   5.618 -0.3313 -0.1354 -0.1886
 3167SOL    HW113863   2.130   4.354   5.655  1.3579 -0.0673 -0.0680
 3167SOL    HW213864   2.144   4.209   5.695 -1.0169 -0.4031 -0.2918
 3168SOL     OW13865   5.260  10.964  10.003 -0.7302 -0.0937 -0.8362
 3168SOL    HW113866   5.172  10.974   9.966 -1.2410  3.4129  0.8887
 3168SOL    HW213867   5.318  11.009   9.941 -0.6418  0.2595 -0.5030
 3169SOL     OW13868   3.334   6.117   9.000  0.1684  0.5526 -0.1279
 3169SOL    HW113869   3.358   6.025   9.003  1.1429  0.8291  2.2792
 3169SOL    HW213870   3.241   6.117   8.975  0.5283 -0.9529 -1.6204
 3170SOL     OW13871   1.491   4.583   5.945 -0.0753 -0.3344  0.7435
 3170SOL    HW113872   1.463   4.655   6.002  0.4640 -0.3355  1.0171
 3170SOL    HW213873   1.517   4.513   6.005  0.0683 -0.5012  0.4902
 3171SOL     OW13874   4.841   9.175   6.836 -0.3819  0.5695  0.5923
 3171SOL    HW113875   4.926   9.197   6.798  0.0542  0.4047  1.4284
 3171SOL    HW213876   4.805   9.108   6.778  0.8419 -0.6224  1.1507
 3172SOL     OW13877   6.474   3.475   5.454 -0.2241 -0.8189 -0.2081
 3172SOL    HW113878   6.391   3.473   5.406 -0.2220 -1.7325 -0.1781
 3172SOL    HW213879   6.495   3.569   5.461 -1.9348 -0.4889  0.9794
 3173SOL     OW13880   1.622   9.743   7.480  0.2778  0.2880 -0.4046
 3173SOL    HW113881   1.709   9.773   7.452 -0.2138  1.4637 -0.7169
 3173SOL    HW213882   1.640   9.685   7.555  1.2752  1.2120  0.0977
 3174SOL     OW13883   6.970   5.895   7.847  0.4123  0.7661  0.3465
 3174SOL    HW113884   6.936   5.806   7.833 -1.1268  1.3438  0.1980
 3174SOL    HW213885   6.902   5.938   7.899 -0.0254  2.5796 -1.6094
 3175SOL     OW13886   7.743   4.364   7.296  0.3952 -0.0396 -0.1828
 3175SOL    HW113887   7.713   4.281   7.259 -0.1632  0.2402 -0.3692
 3175SOL    HW213888   7.838   4.355   7.301  0.2413 -1.1922  1.0247
 3176SOL     OW13889   5.526   2.884  10.515  0.6869 -0.3850 -0.3098
 3176SOL    HW113890   5.456   2.832  10.553  0.8154 -1.5830 -1.5886
 3176SOL    HW213891   5.599   2.822  10.506  1.6522  0.6333  0.2818
 3177SOL     OW13892   3.510   3.210   7.375  0.6492 -0.0277  0.1633
 3177SOL    HW113893   3.452   3.174   7.308  1.5968  0.7728 -1.1410
 3177SOL    HW213894   3.488   3.303   7.378  1.4836  0.1858  0.0265
 3178SOL     OW13895   6.649   9.057  10.219 -0.1661  0.2733  0.5390
 3178SOL    HW113896   6.653   8.979  10.275 -2.8505 -0.4672 -0.1737
 3178SOL    HW213897   6.614   9.126  10.275 -0.4006  0.2268  0.4506
 3179SOL     OW13898   3.273   1.352  10.249 -0.2502  0.0703 -0.1631
 3179SOL    HW113899   3.233   1.430  10.211 -1.5136 -0.5192 -0.0924
 3179SOL    HW213900   3.288   1.294  10.173  0.0683  0.1186 -0.1369
 3180SOL     OW13901   0.905   3.629   6.234 -0.1551 -0.1303 -0.2283
 3180SOL    HW113902   0.916   3.691   6.306  0.0589  1.4000 -1.5216
 3180SOL    HW213903   0.940   3.675   6.158 -1.4277 -1.2490 -1.5342
 3181SOL     OW13904   3.367   9.963   3.921  0.1094 -0.4240 -0.0266
 3181SOL    HW113905   3.354  10.058   3.928  0.0623 -0.3322 -1.0777
 3181SOL    HW213906   3.341   9.929   4.006 -0.1296  0.4836  0.2830
 3182SOL     OW13907   2.643   0.009   1.822 -0.2710 -0.1951 -0.0473
 3182SOL    HW113908   2.596  -0.071   1.848  0.3815 -0.4015  0.5351
 3182SOL    HW213909   2.734  -0.019   1.811 -0.1312  0.3638 -0.3599
 3183SOL     OW13910   1.402   4.157   2.089 -0.1397 -0.3086 -0.1527
 3183SOL    HW113911   1.365   4.082   2.136  2.5335 -1.0321  0.9874
 3183SOL    HW213912   1.366   4.233   2.135 -1.0129 -0.9161  0.2045
 3184SOL     OW13913   2.236  10.370  10.647  0.4126  0.4341  0.1430
 3184SOL    HW113914   2.319  10.332  10.675  0.3315  0.1237 -0.0387
 3184SOL    HW213915   2.255  10.408  10.561  0.2813  0.0617 -0.0524
 3185SOL     OW13916   1.173   2.325   4.780 -0.2705 -0.0845  0.0361
 3185SOL    HW113917   1.140   2.283   4.701 -0.2764 -0.7290  0.3697
 3185SOL    HW213918   1.167   2.419   4.763  0.4966 -0.2199 -1.0366
 3186SOL     OW13919   8.771   7.246   0.611 -0.3045  0.0265 -0.1587
 3186SOL    HW113920   8.796   7.334   0.640 -0.6731 -0.2381  0.9864
 3186SOL    HW213921   8.825   7.187   0.662 -1.9124 -0.4923  1.0300
 3187SOL     OW13922   1.828   2.506   2.277 -0.5164  0.1944  0.4789
 3187SOL    HW113923   1.850   2.422   2.239  0.7429  0.0305  1.4943
 3187SOL    HW213924   1.742   2.528   2.241  0.2967 -0.2532 -1.8509
 3188SOL     OW13925   3.286   1.836   3.617 -0.0426 -0.7353  0.4752
 3188SOL    HW113926   3.230   1.913   3.606  1.7878  0.5288 -0.5925
 3188SOL    HW213927   3.258   1.776   3.547  0.6308  0.3656 -0.7934
 3189SOL     OW13928   7.970   5.768   1.049  0.1218  0.3802  0.2043
 3189SOL    HW113929   7.886   5.735   1.018 -0.2853  1.7839 -0.2218
 3189SOL    HW213930   7.953   5.859   1.074  1.5263  0.7138  0.0310
 3190SOL     OW13931   0.174   8.671   1.733  0.3915 -0.0646  0.1084
 3190SOL    HW113932   0.109   8.609   1.701  0.3460 -0.3757  0.7825
 3190SOL    HW213933   0.152   8.754   1.690  0.2122 -0.4214 -0.4935
 3191SOL     OW13934   4.362   3.845   9.743  0.3283  0.3329 -0.6669
 3191SOL    HW113935   4.443   3.890   9.769  0.3334  2.4759 -3.8405
 3191SOL    HW213936   4.294   3.887   9.795  1.0258 -0.6643  1.1598
 3192SOL     OW13937  10.095  10.909   0.285  0.1095  0.0787  0.3150
 3192SOL    HW113938  10.035  10.836   0.272 -0.8109  0.6582  1.2069
 3192SOL    HW213939  10.175  10.868   0.320 -0.2110 -0.5597  0.3100
 3193SOL     OW13940   8.973   5.707   8.432  0.1968 -0.0549  0.5060
 3193SOL    HW113941   8.994   5.784   8.380  0.4153  1.2789  2.4852
 3193SOL    HW213942   8.933   5.741   8.512 -0.1581 -2.0229  1.2385
 3194SOL     OW13943  10.473   4.868   6.210 -0.6886  0.6044 -0.1168
 3194SOL    HW113944  10.488   4.963   6.209 -3.4349  1.1290 -0.7825
 3194SOL    HW213945  10.412   4.853   6.138  2.1874 -2.2397 -2.2744
 3195SOL     OW13946   9.084   4.692   4.894 -0.0913  0.3163  0.4652
 3195SOL    HW113947   9.012   4.675   4.954  0.1388 -1.2993  0.3468
 3195SOL    HW213948   9.132   4.609   4.891 -0.3368  0.1876 -2.2781
 3196SOL     OW13949   8.772   4.593  11.050  0.1265 -0.0810  0.4782
 3196SOL    HW113950   8.723   4.512  11.032  0.7881 -0.1063 -1.4752
 3196SOL    HW213951   8.751   4.614  11.141  1.0736 -3.2247  1.5428
 3197SOL     OW13952   9.653   8.179   9.887  0.1454 -0.5218 -0.7063
 3197SOL    HW113953   9.611   8.121   9.952 -1.5855  1.2937 -0.0807
 3197SOL    HW213954   9.725   8.219   9.935  1.0799 -1.7566 -1.0132
 3198SOL     OW13955   9.451   3.062   2.875 -0.4981 -0.1037  0.2654
 3198SOL    HW113956   9.439   3.155   2.892  1.7575  0.3031 -0.0302
 3198SOL    HW213957   9.427   3.051   2.783  0.8536  0.5701 -0.1954
 3199SOL     OW13958   6.103   9.691   3.070 -0.0013  0.4743 -0.1708
 3199SOL    HW113959   6.146   9.606   3.081 -0.4308  0.3733  0.9553
 3199SOL    HW213960   6.149   9.748   3.132  0.2785  1.0666 -0.9177
 3200SOL     OW13961   2.820   4.236   4.708 -0.1358  0.2458 -0.1125
 3200SOL    HW113962   2.886   4.294   4.671  0.3746 -0.7578 -0.8180
 3200SOL    HW213963   2.860   4.201   4.787  0.4758 -0.9012 -0.9105
 3201SOL     OW13964   5.072   6.784   8.840  0.4506 -0.1397 -0.9197
 3201SOL    HW113965   5.066   6.848   8.769  2.6494  0.9915 -0.1966
 3201SOL    HW213966   5.134   6.719   8.808  1.8873  0.6714  0.0926
 3202SOL     OW13967   0.148   3.433   1.231  0.3615 -0.0938  0.4809
 3202SOL    HW113968   0.129   3.397   1.144  1.0323 -0.1395  0.3514
 3202SOL    HW213969   0.068   3.416   1.281 -0.3564  0.6932 -0.3625
 3203SOL     OW13970   8.951   3.222   4.946 -0.0417  0.5505  0.2493
 3203SOL    HW113971   8.880   3.161   4.967 -0.2585  1.0434  0.9472
 3203SOL    HW213972   9.024   3.194   5.001  0.2701  0.1372 -0.3596
 3204SOL     OW13973   7.085   7.688   2.952  0.2053  0.0607  0.3591
 3204SOL    HW113974   6.990   7.673   2.955  0.3544 -0.8967  0.9281
 3204SOL    HW213975   7.114   7.640   2.874  0.4192 -1.0507  1.0897
 3205SOL     OW13976   3.331   5.971   2.052  0.1311 -0.7383 -0.4109
 3205SOL    HW113977   3.302   5.999   1.965 -2.1688 -0.9306  0.2334
 3205SOL    HW213978   3.296   5.882   2.061 -1.2385 -0.0741  1.3551
 3206SOL     OW13979  10.293   8.041   7.568 -0.4430 -0.6894 -0.1296
 3206SOL    HW113980  10.207   8.075   7.589 -0.6442 -0.7640 -0.8213
 3206SOL    HW213981  10.282   7.995   7.485 -0.2331 -2.6190  0.8503
 3207SOL     OW13982   7.709   9.274  10.122  0.3148 -0.0004 -0.3875
 3207SOL    HW113983   7.654   9.352  10.132  1.0238  0.5717 -0.9209
 3207SOL    HW213984   7.772   9.280  10.193 -0.7468 -1.0504  0.6906
 3208SOL     OW13985   3.538   8.321   2.006 -0.0840 -0.2000 -0.1147
 3208SOL    HW113986   3.585   8.269   1.939  0.4578 -1.0289  0.8801
 3208SOL    HW213987   3.447   8.291   2.000 -0.3833  0.8728 -1.5391
 3209SOL     OW13988   3.391   3.148   5.117 -0.0763  0.2117  0.0747
 3209SOL    HW113989   3.336   3.163   5.194  2.0643 -0.0514  1.7726
 3209SOL    HW213990   3.440   3.069   5.138  2.5498  1.6335 -0.2938
 3210SOL     OW13991   0.731  10.383   3.910  0.3265  0.5552  0.0187
 3210SOL    HW113992   0.651  10.430   3.886  0.4019  0.4527 -0.4425
 3210SOL    HW213993   0.700  10.306   3.958  0.2773  2.1429  2.7070
 3211SOL     OW13994   6.199   8.737   8.727 -0.0187  0.4533  0.3794
 3211SOL    HW113995   6.165   8.735   8.816  1.6157  1.1944  1.0501
 3211SOL    HW213996   6.244   8.653   8.717 -2.3792 -0.8109 -0.7259
 3212SOL     OW13997   6.019   2.506   8.436  0.5399  0.2567  0.0539
 3212SOL    HW113998   6.086   2.560   8.395  0.4309 -0.4767 -1.1388
 3212SOL    HW213999   5.962   2.569   8.481  0.6256  1.1211 -0.9963
 3213SOL     OW14000   8.142   8.961   8.953  0.2150 -0.5164  1.3665
 3213SOL    HW114001   8.120   8.899   8.883  1.4872 -0.2918  0.7261
 3213SOL    HW214002   8.168   8.906   9.027 -1.3392 -0.7611  1.7498
 3214SOL     OW14003   3.518   8.555   4.465 -0.1412 -0.0509 -0.2175
 3214SOL    HW114004   3.472   8.479   4.502  0.8785 -0.2771  0.6286
 3214SOL    HW214005   3.593   8.568   4.523  1.4280 -0.2808 -2.0899
 3215SOL     OW14006   3.117   5.197   2.020 -0.5311  0.1858  0.0859
 3215SOL    HW114007   3.169   5.273   2.046  1.7588 -1.5343  0.7713
 3215SOL    HW214008   3.093   5.155   2.103  1.0696 -1.6235 -0.3085
 3216SOL     OW14009   0.180   8.887  10.822  0.4559 -0.1263  0.7777
 3216SOL    HW114010   0.225   8.919  10.900 -1.5734  1.4711  1.4041
 3216SOL    HW214011   0.104   8.840  10.856  0.1081 -0.3060 -0.2244
 3217SOL     OW14012   0.627   5.487  10.851 -0.5264  0.6657  0.4352
 3217SOL    HW114013   0.661   5.454  10.934  1.3079 -1.7061 -1.1128
 3217SOL    HW214014   0.572   5.416  10.818  1.5136  0.0384 -1.8795
 3218SOL     OW14015   0.294   6.211   7.910 -0.1169 -0.1943  0.1948
 3218SOL    HW114016   0.278   6.305   7.920 -0.4801 -0.1894 -0.3860
 3218SOL    HW214017   0.311   6.199   7.817  0.0808 -0.6850  0.2891
 3219SOL     OW14018   2.175   6.133   2.076 -0.2064 -0.3652  0.3574
 3219SOL    HW114019   2.257   6.085   2.079  0.0859  0.1011  0.1030
 3219SOL    HW214020   2.143   6.120   1.986 -1.1581 -1.7458  0.8719
 3220SOL     OW14021   7.066   9.209   4.181 -0.1743 -0.5423 -0.2185
 3220SOL    HW114022   7.051   9.261   4.260 -1.0556  0.6081 -1.0926
 3220SOL    HW214023   7.085   9.274   4.113  1.2329 -1.5430 -0.8324
 3221SOL     OW14024  11.014   5.577   7.278 -0.1279  0.3588 -0.3668
 3221SOL    HW114025  10.968   5.575   7.362 -1.3443  0.7759 -0.9933
 3221SOL    HW214026  11.040   5.668   7.267 -0.2284  0.3618 -0.5793
 3222SOL     OW14027   4.479   7.730   3.931  0.0291  0.7811  0.7490
 3222SOL    HW114028   4.421   7.728   4.007 -1.3616 -0.6426 -0.2919
 3222SOL    HW214029   4.451   7.806   3.881 -1.1897 -0.0667  0.1011
 3223SOL     OW14030   2.728   4.105  10.639 -0.3395  0.2041  0.1742
 3223SOL    HW114031   2.764   4.087  10.551  1.4946 -0.4228  0.9933
 3223SOL    HW214032   2.635   4.084  10.632  0.5814 -4.9167 -0.3850
 3224SOL     OW14033   2.292   5.212   0.637  0.0751  0.2472  0.5158
 3224SOL    HW114034   2.299   5.188   0.730  1.0537 -0.3812  0.2925
 3224SOL    HW214035   2.345   5.146   0.591  0.3172  1.0595 -0.4072
 3225SOL     OW14036   7.025   9.110   0.983  0.4268  0.0898  0.4624
 3225SOL    HW114037   7.058   9.104   0.894 -0.3061  0.1892  0.1777
 3225SOL    HW214038   6.983   9.197   0.988  0.2824  0.0029  0.8369
 3226SOL     OW14039   9.518   2.233   4.514 -0.3794 -0.4501 -0.6462
 3226SOL    HW114040   9.556   2.165   4.459  1.6327 -1.0189  1.2992
 3226SOL    HW214041   9.591   2.293   4.531 -0.5962 -0.8209  2.0952
 3227SOL     OW14042   9.894   3.245   3.491  0.5932 -0.3254 -0.4424
 3227SOL    HW114043   9.966   3.216   3.434 -0.2023 -0.6050 -1.3308
 3227SOL    HW214044   9.876   3.335   3.463  0.3444 -0.3852 -0.4729
 3228SOL     OW14045   8.281   1.771   6.514  0.1644  0.0644  0.2861
 3228SOL    HW114046   8.243   1.836   6.572 -2.7610  0.7600 -2.1453
 3228SOL    HW214047   8.332   1.823   6.451 -1.2715 -0.0126 -0.9978
 3229SOL     OW14048   7.208   0.843   9.956 -0.2516  0.3112 -0.0013
 3229SOL    HW114049   7.153   0.916   9.928  1.7923  2.4793  1.3601
 3229SOL    HW214050   7.175   0.821  10.043 -0.1025  0.3948  0.0752
 3230SOL     OW14051   7.029   6.656   7.806 -0.2170  0.0994  0.6230
 3230SOL    HW114052   7.085   6.709   7.749 -2.1596  1.4706 -0.1022
 3230SOL    HW214053   7.009   6.713   7.880 -0.5775 -0.4102  0.9254
 3231SOL     OW14054   1.713   7.217   1.860 -0.0649 -0.1013  0.4275
 3231SOL    HW114055   1.664   7.150   1.907 -0.8836  0.0739 -0.1452
 3231SOL    HW214056   1.704   7.192   1.768  0.8034  0.0263  0.2938
 3232SOL     OW14057   9.790   0.114   6.662  0.0562  0.2174  0.3385
 3232SOL    HW114058   9.739   0.034   6.647 -0.2277  0.5763 -0.6464
 3232SOL    HW214059   9.872   0.099   6.616 -0.3805  0.8757 -0.6723
 3233SOL     OW14060   9.592   9.748  10.889 -0.3829  0.1338 -0.4513
 3233SOL    HW114061   9.545   9.731  10.808  1.8544  0.8887 -2.0273
 3233SOL    HW214062   9.625   9.662  10.917 -1.1829 -0.1316 -0.3154
 3234SOL     OW14063  10.250   5.778  10.838 -0.2294  0.2470 -0.6415
 3234SOL    HW114064  10.202   5.695  10.836  0.6832 -0.3236 -3.1164
 3234SOL    HW214065  10.292   5.780  10.924 -1.9969 -0.7859  0.3012
 3235SOL     OW14066   7.845   4.376   1.596  0.2328 -0.3166  0.5144
 3235SOL    HW114067   7.858   4.350   1.687 -0.5921 -0.5443  0.5775
 3235SOL    HW214068   7.790   4.454   1.600  1.3884  0.5302  0.2559
 3236SOL     OW14069   8.994   5.262   5.748  0.1280  0.3110  0.0672
 3236SOL    HW114070   8.937   5.234   5.819  0.0794 -2.9370 -1.0954
 3236SOL    HW214071   8.956   5.223   5.670  1.5411  1.7335 -1.4232
 3237SOL     OW14072  10.401   3.419   1.732 -0.2099 -0.1027  0.2743
 3237SOL    HW114073  10.480   3.394   1.780  0.5407 -1.3645 -1.4841
 3237SOL    HW214074  10.332   3.420   1.798  0.9525 -0.7618  1.5486
 3238SOL     OW14075   6.584   0.878   4.105  0.4819 -0.5900 -0.0628
 3238SOL    HW114076   6.667   0.864   4.060  1.8000  1.7645  1.4699
 3238SOL    HW214077   6.608   0.890   4.197 -1.4998  0.6116  0.3555
 3239SOL     OW14078   1.421   6.425   3.215  0.2051  0.7890  0.2219
 3239SOL    HW114079   1.495   6.423   3.275  0.9700 -1.6806 -0.6790
 3239SOL    HW214080   1.448   6.485   3.145 -0.8581  4.0200  2.3400
 3240SOL     OW14081   3.458   8.686   5.847  0.0150 -0.4115  0.0468
 3240SOL    HW114082   3.478   8.711   5.937 -0.8574  2.1624 -0.3747
 3240SOL    HW214083   3.512   8.746   5.794 -2.0346  0.5305 -1.0863
 3241SOL     OW14084   2.587   8.576   1.046  0.3003 -0.6632  0.2024
 3241SOL    HW114085   2.611   8.599   0.956 -1.8316 -2.0881 -0.8097
 3241SOL    HW214086   2.602   8.482   1.052 -0.8094 -0.8203  0.8852
 3242SOL     OW14087   0.817   7.300   0.935  0.2596  0.7183 -0.5429
 3242SOL    HW114088   0.845   7.390   0.923  0.7042  0.7497  0.6287
 3242SOL    HW214089   0.766   7.301   1.016 -0.4453  0.0631 -0.9609
 3243SOL     OW14090   3.920   7.404   4.289 -0.2062  0.0126 -0.6023
 3243SOL    HW114091   3.855   7.342   4.324  1.5656 -0.0152  3.1175
 3243SOL    HW214092   3.971   7.430   4.365  3.7771  0.5450 -3.1664
 3244SOL     OW14093   7.346   9.195   8.278 -0.3479 -0.0503 -0.4075
 3244SOL    HW114094   7.423   9.153   8.240 -1.3004 -2.3676  0.0653
 3244SOL    HW214095   7.272   9.142   8.248 -1.6519  1.3608  0.1873
 3245SOL     OW14096   2.638  11.078   8.116  0.2814  0.3172 -0.1719
 3245SOL    HW114097   2.705  11.134   8.076  1.0276  1.3662  2.3670
 3245SOL    HW214098   2.685  10.998   8.141  0.3590  0.6377  0.7096
 3246SOL     OW14099   1.223   6.084   4.503 -0.0784 -0.2989  0.0379
 3246SOL    HW114100   1.249   6.006   4.454 -0.5515 -0.6417  0.3302
 3246SOL    HW214101   1.135   6.064   4.536  0.7469 -0.6333  2.1923
 3247SOL     OW14102   1.623  10.223   3.531  0.8399  0.1752 -0.2013
 3247SOL    HW114103   1.528  10.217   3.524  0.8247 -0.5761  0.5265
 3247SOL    HW214104   1.648  10.154   3.593  1.6661  1.5507  1.0952
 3248SOL     OW14105   6.185   9.752   4.756 -0.0172 -0.2867  0.3383
 3248SOL    HW114106   6.220   9.672   4.716  1.7770  0.5835  0.0511
 3248SOL    HW214107   6.109   9.774   4.704  0.9477 -0.4376 -1.1872
 3249SOL     OW14108  11.045   3.528   4.048 -0.4515 -0.0398  0.4736
 3249SOL    HW114109  10.962   3.490   4.022  0.0389 -0.0221 -1.3106
 3249SOL    HW214110  11.029   3.623   4.048 -0.6630 -0.0731  1.0501
 3250SOL     OW14111   5.009   6.455   0.323  0.4519  0.0596 -0.5585
 3250SOL    HW114112   4.930   6.446   0.270 -0.4419  0.2350  0.6991
 3250SOL    HW214113   5.064   6.515   0.274 -0.2613  0.0540 -1.3898
 3251SOL     OW14114   8.226   2.570   0.072 -0.2808  0.2453  0.2804
 3251SOL    HW114115   8.163   2.639   0.050 -2.0203 -1.3527 -0.0212
 3251SOL    HW214116   8.236   2.521  -0.010 -0.0901 -0.6246  0.8215
 3252SOL     OW14117   4.110   4.931   4.035  0.4543 -0.7719 -0.0977
 3252SOL    HW114118   4.152   4.995   3.977  0.1287  0.2521  0.7658
 3252SOL    HW214119   4.083   4.860   3.977  0.0715  0.2647 -1.2150
 3253SOL     OW14120   4.538   1.785   9.170 -0.7773  0.3579 -0.4088
 3253SOL    HW114121   4.554   1.862   9.115 -0.2090  1.5017  1.2799
 3253SOL    HW214122   4.452   1.799   9.208 -0.8909 -0.1041 -0.4849
 3254SOL     OW14123   4.353  10.635   2.536 -0.5263  0.3395  0.8861
 3254SOL    HW114124   4.273  10.681   2.511  0.8221  1.5235 -1.6506
 3254SOL    HW214125   4.420  10.703   2.537  0.7476 -0.8850  1.4371
 3255SOL     OW14126   8.972   7.416   4.573  0.2356  0.1717 -0.4190
 3255SOL    HW114127   8.891   7.415   4.625  1.8185 -0.3292  2.2134
 3255SOL    HW214128   8.992   7.509   4.562  0.8245  0.3154  1.5502
 3256SOL     OW14129   0.006   1.678   8.047  0.2513  0.5475 -0.0036
 3256SOL    HW114130   0.009   1.603   7.987  0.5952  0.0110  0.6782
 3256SOL    HW214131  -0.074   1.666   8.097  1.6889 -0.9375  2.0844
 3257SOL     OW14132   0.273   6.420   8.887  0.2112 -0.5692  0.1494
 3257SOL    HW114133   0.355   6.372   8.893 -0.3775 -1.5777  0.3872
 3257SOL    HW214134   0.221   6.372   8.822 -0.6465 -0.6793  0.8864
 3258SOL     OW14135   7.171   5.883   4.215  0.0944 -0.1550  0.0663
 3258SOL    HW114136   7.264   5.900   4.199  0.0885  1.0654  1.1972
 3258SOL    HW214137   7.136   5.859   4.129  1.5037 -0.9417 -0.3148
 3259SOL     OW14138   2.976   2.922   4.307  0.3066  0.7332  0.7232
 3259SOL    HW114139   3.025   2.848   4.343 -0.8619  0.7479  2.4735
 3259SOL    HW214140   3.013   2.936   4.220 -0.0711 -2.5344 -0.0813
 3260SOL     OW14141   0.420   6.781   5.341  0.1973  0.1108 -0.5957
 3260SOL    HW114142   0.366   6.765   5.264  0.5146  0.5750 -0.9239
 3260SOL    HW214143   0.358   6.788   5.414 -0.1318  0.0047 -0.8676
 3261SOL     OW14144   0.839   6.601   8.556  0.3990  0.1126 -0.1384
 3261SOL    HW114145   0.840   6.696   8.547  0.4499  0.3979  2.2213
 3261SOL    HW214146   0.920   6.580   8.602 -0.4304 -0.8436  0.9719
 3262SOL     OW14147   7.304   0.583   4.045 -0.4437 -0.6516 -0.0443
 3262SOL    HW114148   7.334   0.671   4.066 -1.4564 -0.6783  1.6954
 3262SOL    HW214149   7.209   0.586   4.059 -0.1773 -2.7382  3.0349
 3263SOL     OW14150   7.876   8.190   2.181  0.2234  0.0728  0.2185
 3263SOL    HW114151   7.785   8.181   2.210  0.2016 -0.3851  0.0189
 3263SOL    HW214152   7.892   8.284   2.184  1.1256 -0.0323  4.3970
 3264SOL     OW14153   6.310   8.398   7.890 -0.1474  0.6756  0.2438
 3264SOL    HW114154   6.385   8.420   7.834 -0.3125 -2.2518 -1.3619
 3264SOL    HW214155   6.235   8.399   7.830 -1.1960  2.0578  1.5054
 3265SOL     OW14156   3.590   5.476   0.843 -0.2588 -0.1154 -0.2970
 3265SOL    HW114157   3.654   5.529   0.890 -0.9985 -1.1299  1.9805
 3265SOL    HW214158   3.515   5.535   0.831 -0.4463 -0.1395  0.7157
 3266SOL     OW14159   3.248   2.511   9.112 -0.2279  0.1782  0.8419
 3266SOL    HW114160   3.319   2.574   9.116 -0.1705  0.1307  0.5964
 3266SOL    HW214161   3.266   2.449   9.183  1.1739 -1.0936 -0.5495
 3267SOL     OW14162   6.652   6.498   5.232  0.3823  0.1412 -0.6696
 3267SOL    HW114163   6.573   6.444   5.240 -0.0428  0.7412 -0.7180
 3267SOL    HW214164   6.723   6.435   5.218 -0.3783 -0.3298 -2.8670
 3268SOL     OW14165   5.958   7.979   7.030 -0.0199 -0.4376 -0.1201
 3268SOL    HW114166   5.965   7.940   6.943  0.5009 -0.8791  0.1132
 3268SOL    HW214167   6.035   7.947   7.077 -0.0157  0.2200  0.3394
 3269SOL     OW14168   9.251   1.628   5.281  0.1272 -0.1144 -0.2146
 3269SOL    HW114169   9.238   1.709   5.232  0.4217 -0.7479 -1.3705
 3269SOL    HW214170   9.194   1.636   5.357  0.0816  1.1340 -0.3625
 3270SOL     OW14171   2.701   9.073   6.863 -0.2604 -0.2047 -0.2301
 3270SOL    HW114172   2.697   9.168   6.849 -1.5234 -0.2682 -0.3917
 3270SOL    HW214173   2.633   9.038   6.806 -0.8088 -1.0711  0.9260
 3271SOL     OW14174   7.456   1.873   6.768 -0.8855 -0.2248 -0.4866
 3271SOL    HW114175   7.430   1.890   6.678 -1.1738 -0.2281 -0.4030
 3271SOL    HW214176   7.391   1.812   6.802  1.1063 -3.0692 -1.3548
 3272SOL     OW14177  11.115   6.190   6.836  0.2752 -0.2778  0.5908
 3272SOL    HW114178  11.041   6.207   6.895  0.7196 -0.1883  1.1371
 3272SOL    HW214179  11.148   6.277   6.814 -2.1850 -0.0513 -2.8666
 3273SOL     OW14180   6.750   3.363   4.837  0.0778 -0.1568  0.0099
 3273SOL    HW114181   6.658   3.382   4.854  0.0806 -0.3794  0.2786
 3273SOL    HW214182   6.772   3.294   4.899  0.1025 -0.9862 -0.9026
 3274SOL     OW14183   7.462   6.543   1.124  0.4882 -0.1671 -0.0633
 3274SOL    HW114184   7.386   6.543   1.066  0.5473  0.8135 -0.1626
 3274SOL    HW214185   7.488   6.451   1.130 -1.9486 -0.8506  1.6219
 3275SOL     OW14186   2.691   8.696   7.767 -0.3340 -0.0935  0.2952
 3275SOL    HW114187   2.691   8.727   7.676 -0.7640  0.3189  0.4358
 3275SOL    HW214188   2.782   8.709   7.796 -0.3702  0.4717  0.1607
 3276SOL     OW14189   9.496   4.047   1.306 -0.7515  1.1355 -0.5314
 3276SOL    HW114190   9.580   4.087   1.282  0.2303 -0.8557 -0.6457
 3276SOL    HW214191   9.488   3.971   1.248 -2.2788  0.8466  0.0102
 3277SOL     OW14192  10.445  10.020   2.321  0.6000 -0.4102 -0.0430
 3277SOL    HW114193  10.359  10.005   2.360 -0.1237 -0.0243 -1.4185
 3277SOL    HW214194  10.504  10.028   2.396 -0.5090 -0.9342  0.9257
 3278SOL     OW14195   8.603   0.374   8.794 -0.0400  0.4093 -0.3609
 3278SOL    HW114196   8.667   0.435   8.757  2.6315 -1.1266  1.3531
 3278SOL    HW214197   8.629   0.288   8.760 -0.5327 -0.3878  1.1560
 3279SOL     OW14198   6.736   8.716   3.433 -0.5856  0.7292 -0.2638
 3279SOL    HW114199   6.752   8.639   3.378  0.0034  0.7442 -0.1258
 3279SOL    HW214200   6.764   8.689   3.520 -1.1765  0.8225 -0.0460
 3280SOL     OW14201   6.692   4.932  10.313  0.5116 -0.7204  0.5535
 3280SOL    HW114202   6.786   4.917  10.302  0.7118  1.2769 -1.1752
 3280SOL    HW214203   6.684   5.026  10.322 -1.3707 -0.8119  0.1825
 3281SOL     OW14204   3.125   8.562   3.899  0.4261 -0.0201  0.0906
 3281SOL    HW114205   3.208   8.527   3.867  0.7417 -0.8134  1.6629
 3281SOL    HW214206   3.143   8.653   3.922  0.7451 -0.0631  0.0068
 3282SOL     OW14207   6.931   6.734   0.167 -0.0763  0.5823  0.3996
 3282SOL    HW114208   6.879   6.668   0.213 -0.1273 -0.1509 -0.6647
 3282SOL    HW214209   6.963   6.792   0.236  0.8284 -1.1513  1.5150
 3283SOL     OW14210   8.937  10.418   2.147 -0.2655 -0.2347 -0.5915
 3283SOL    HW114211   8.850  10.408   2.184 -0.1485  0.8346  0.0443
 3283SOL    HW214212   8.984  10.339   2.174 -0.2203  0.4393  1.5633
 3284SOL     OW14213   8.993   2.262   2.891 -0.2292 -0.3020  0.0630
 3284SOL    HW114214   9.056   2.306   2.833 -0.2109 -0.4938 -0.0658
 3284SOL    HW214215   8.908   2.283   2.853 -0.2934  0.5270  0.6281
 3285SOL     OW14216   0.263   5.437   6.822 -0.2647  0.1177 -0.4086
 3285SOL    HW114217   0.244   5.359   6.770 -0.5855  0.0643 -0.2180
 3285SOL    HW214218   0.190   5.496   6.802 -0.3275  0.1403 -0.1115
 3286SOL     OW14219   7.654   5.249   7.098  0.6371 -0.0350 -0.0921
 3286SOL    HW114220   7.636   5.337   7.132 -1.3333 -1.2787  2.4212
 3286SOL    HW214221   7.674   5.197   7.176  3.0945 -1.6042 -1.6380
 3287SOL     OW14222   8.361   8.291   5.778  1.2921  0.9788 -0.9467
 3287SOL    HW114223   8.321   8.301   5.864  1.2178  1.3144 -1.0185
 3287SOL    HW214224   8.334   8.204   5.749 -0.4397  1.6629 -1.5253
 3288SOL     OW14225   7.293   1.691   6.888 -0.1562  0.4309  0.0430
 3288SOL    HW114226   7.356   1.644   6.944  0.1574  1.0827  0.2500
 3288SOL    HW214227   7.218   1.633   6.883 -0.0493  0.2008  0.8622
 3289SOL     OW14228   4.240   4.453   1.145  0.2571  0.4982  0.0784
 3289SOL    HW114229   4.309   4.483   1.205  0.9348 -0.7124 -0.0590
 3289SOL    HW214230   4.173   4.417   1.203 -0.3415  1.7741  0.2183
 3290SOL     OW14231   0.872   8.155   8.626  1.0694 -0.1418 -0.2113
 3290SOL    HW114232   0.905   8.069   8.599 -0.2763 -1.3436  1.6526
 3290SOL    HW214233   0.872   8.151   8.722 -1.3402  0.9614 -0.0862
 3291SOL     OW14234   2.274   0.741   6.211  0.4101  0.3054 -0.2303
 3291SOL    HW114235   2.261   0.751   6.305  0.8409 -1.3986  0.0444
 3291SOL    HW214236   2.219   0.808   6.171 -1.2213 -0.1361  1.1850
 3292SOL     OW14237   9.774  10.895   5.919 -0.2168  0.0346 -0.0500
 3292SOL    HW114238   9.803  10.812   5.881 -0.6150  0.2872 -0.9303
 3292SOL    HW214239   9.853  10.950   5.919 -0.2875  0.1533 -0.8699
 3293SOL     OW14240   1.418   6.217   9.510 -0.2572  0.1154 -0.5891
 3293SOL    HW114241   1.360   6.143   9.526  1.3325 -1.2425 -0.8784
 3293SOL    HW214242   1.465   6.230   9.592 -0.7336  1.0134 -0.4453
 3294SOL     OW14243   0.353   0.818   6.748  0.0133  0.6472 -0.2554
 3294SOL    HW114244   0.348   0.809   6.843 -0.3072 -0.6200 -0.3743
 3294SOL    HW214245   0.359   0.912   6.733 -0.8655  0.9165  0.9687
 3295SOL     OW14246   9.681   7.291  10.187 -0.2380  0.4590 -0.6964
 3295SOL    HW114247   9.657   7.210  10.231  0.5468  0.5389 -0.1025
 3295SOL    HW214248   9.767   7.274  10.150 -0.5311  0.6712 -1.5054
 3296SOL     OW14249  10.170   6.620   2.966  0.3155  0.1367  0.0150
 3296SOL    HW114250  10.134   6.577   3.044  0.6629 -0.9982 -0.4365
 3296SOL    HW214251  10.257   6.649   2.993  1.0165 -1.5138 -0.3268
 3297SOL     OW14252   6.899   1.696   6.116 -0.1515  0.3557 -0.2458
 3297SOL    HW114253   6.972   1.655   6.069  0.8836  0.9681  0.7943
 3297SOL    HW214254   6.830   1.705   6.049  0.7457 -0.1462 -1.2684
 3298SOL     OW14255   6.289   2.832   0.924  0.4776 -0.4147 -0.0119
 3298SOL    HW114256   6.311   2.892   0.853  1.2691 -1.1670 -0.4232
 3298SOL    HW214257   6.316   2.878   1.004  1.0121 -0.1877 -0.3177
 3299SOL     OW14258   8.628   1.512   4.976  0.7597  0.6588  0.1535
 3299SOL    HW114259   8.644   1.500   5.070 -0.4850  1.2693  0.4612
 3299SOL    HW214260   8.600   1.603   4.968  0.3530  0.4609 -0.7414
 3300SOL     OW14261   6.193   2.320   8.071  0.0615  0.2227 -0.2042
 3300SOL    HW114262   6.164   2.241   8.025  0.0659  1.1692 -1.9233
 3300SOL    HW214263   6.123   2.384   8.055  0.3031  0.7278  0.7127
 3301SOL     OW14264   3.377   8.715   2.579 -0.0716  0.0652 -0.4095
 3301SOL    HW114265   3.352   8.686   2.492  0.8650 -0.7131 -0.4295
 3301SOL    HW214266   3.459   8.762   2.566  0.1968 -0.2657  0.0881
 3302SOL     OW14267   9.439   1.750   6.985 -0.1556  0.0181  0.1745
 3302SOL    HW114268   9.534   1.755   6.983 -0.0560 -1.5392 -0.4966
 3302SOL    HW214269   9.414   1.719   6.898 -1.4299  2.0238 -0.2474
 3303SOL     OW14270   3.519   9.764   6.334  0.2384 -0.1417 -0.3627
 3303SOL    HW114271   3.498   9.671   6.337 -0.1530 -0.1175 -1.6774
 3303SOL    HW214272   3.609   9.770   6.365  0.0699 -0.8894  0.2852
 3304SOL     OW14273   1.477   2.684   8.623 -0.6577 -0.1424  0.2461
 3304SOL    HW114274   1.519   2.637   8.695 -1.4772 -1.6607 -0.2156
 3304SOL    HW214275   1.526   2.656   8.545 -1.5122 -0.7058 -0.1024
 3305SOL     OW14276   6.706   1.844  10.089 -0.4400  0.1434  0.0458
 3305SOL    HW114277   6.748   1.913  10.140 -1.7580  0.7511  0.3636
 3305SOL    HW214278   6.620   1.881  10.066 -0.9309 -1.1653 -0.2920
 3306SOL     OW14279   7.880   3.647   5.582 -0.1662  0.3049 -0.0837
 3306SOL    HW114280   7.825   3.723   5.602 -0.1652  0.0444  0.9367
 3306SOL    HW214281   7.964   3.685   5.556 -0.0821  0.6566  0.6670
 3307SOL     OW14282  10.312   2.744   7.587  0.2017 -0.1116 -0.2234
 3307SOL    HW114283  10.383   2.680   7.580  0.2245 -0.0043 -1.1027
 3307SOL    HW214284  10.232   2.692   7.579  0.2217 -0.0327 -1.0294
 3308SOL     OW14285  10.582   0.510   5.001 -0.2406  0.2615 -0.0156
 3308SOL    HW114286  10.537   0.449   4.942  0.7404 -1.5241  0.9987
 3308SOL    HW214287  10.570   0.473   5.088  0.1433  1.7045  0.6788
 3309SOL     OW14288   1.709  10.886   3.170  0.1540  0.2343 -0.0763
 3309SOL    HW114289   1.647  10.923   3.108 -0.0549  1.7668  1.0074
 3309SOL    HW214290   1.691  10.930   3.253  0.1444 -2.0365  1.2281
 3310SOL     OW14291   7.764   2.492   0.494  0.6900 -0.2194  0.1543
 3310SOL    HW114292   7.776   2.432   0.420  0.4957  1.6739 -1.4848
 3310SOL    HW214293   7.683   2.463   0.536  0.4244 -0.9013 -0.7957
 3311SOL     OW14294   0.887   5.855  10.348 -0.3464  0.0283  0.1345
 3311SOL    HW114295   0.830   5.900  10.285 -1.4192 -0.8401  0.4513
 3311SOL    HW214296   0.862   5.889  10.433  0.0229  0.0664  0.2304
 3312SOL     OW14297   8.828   5.647   6.782  0.1343 -0.2745 -0.0209
 3312SOL    HW114298   8.868   5.693   6.856  1.4230 -0.6452 -0.4651
 3312SOL    HW214299   8.875   5.564   6.777 -2.9196 -2.3097  1.5319
 3313SOL     OW14300   2.119   5.588   7.701  0.0075  0.4452  0.2217
 3313SOL    HW114301   2.057   5.515   7.709  1.8872 -1.1251  1.2520
 3313SOL    HW214302   2.124   5.605   7.607  0.2620 -1.4405 -0.1353
 3314SOL     OW14303   0.499   1.879   6.088 -0.4173  0.0855  0.3484
 3314SOL    HW114304   0.456   1.851   6.169 -2.4135  1.9510  0.0432
 3314SOL    HW214305   0.578   1.925   6.118 -0.8224  0.2466  1.2032
 3315SOL     OW14306   2.790   4.827   6.214 -0.4722  0.2154  0.1614
 3315SOL    HW114307   2.715   4.823   6.154 -0.2553  1.0458 -0.1881
 3315SOL    HW214308   2.771   4.903   6.269 -0.9989 -0.9256  1.6205
 3316SOL     OW14309   5.325   5.922   5.691  0.1718 -0.0174  0.5491
 3316SOL    HW114310   5.323   5.928   5.595 -1.0115  2.4390  0.6499
 3316SOL    HW214311   5.260   5.854   5.712 -0.6588  0.4668 -0.3722
 3317SOL     OW14312   1.808   4.596   8.855 -0.5211 -0.3799  0.0541
 3317SOL    HW114313   1.812   4.554   8.768  0.4000  0.8755 -0.5414
 3317SOL    HW214314   1.884   4.655   8.856 -0.7511 -0.0865  1.5758
 3318SOL     OW14315   4.353   9.786   5.935 -0.2795 -0.7292  0.0945
 3318SOL    HW114316   4.415   9.832   5.991 -1.2183 -0.4270  0.8985
 3318SOL    HW214317   4.397   9.703   5.915  2.1104  0.9967 -2.6411
 3319SOL     OW14318   1.491   5.346   5.402 -0.1059 -0.3305  0.4444
 3319SOL    HW114319   1.578   5.326   5.368  0.6486 -1.1322  2.6761
 3319SOL    HW214320   1.456   5.261   5.430 -0.6392  0.2562  1.6494
 3320SOL     OW14321   4.511   3.658   4.400 -0.2196 -0.0752 -0.1846
 3320SOL    HW114322   4.599   3.694   4.402 -0.2990  0.1985 -1.2234
 3320SOL    HW214323   4.469   3.700   4.325 -1.0391 -0.6470 -0.0617
 3321SOL     OW14324   5.692   3.056   2.548 -0.0274 -0.3857 -0.0509
 3321SOL    HW114325   5.675   3.149   2.535  0.3447 -0.3865 -0.5880
 3321SOL    HW214326   5.682   3.042   2.642 -1.5179 -0.0924 -0.1282
 3322SOL     OW14327   3.119  10.726   2.772 -0.4182 -0.1345 -0.6819
 3322SOL    HW114328   3.043  10.773   2.737  0.0218  0.0717 -1.3780
 3322SOL    HW214329   3.088  10.688   2.855 -0.8021  1.3497 -0.1091
 3323SOL     OW14330   6.532   2.026   7.854  0.0009 -0.1919  0.3427
 3323SOL    HW114331   6.544   2.115   7.887  2.1550 -0.3602  0.1876
 3323SOL    HW214332   6.521   1.972   7.932 -0.7141  0.1251  0.4649
 3324SOL     OW14333   1.719   8.024   8.258  0.3908  0.0528 -0.7433
 3324SOL    HW114334   1.755   7.949   8.305  1.5556 -0.8547 -2.9397
 3324SOL    HW214335   1.771   8.098   8.290 -2.1277  0.5215  3.0199
 3325SOL     OW14336   1.091   6.999   4.169  0.2138  0.3925 -0.2144
 3325SOL    HW114337   1.004   7.031   4.194  0.4723  1.5590 -0.7309
 3325SOL    HW214338   1.147   7.021   4.244 -0.5652 -3.8349  1.9055
 3326SOL     OW14339   5.803  10.994   3.659  0.0702 -0.7327 -0.6936
 3326SOL    HW114340   5.840  11.073   3.699  1.4517 -0.9815 -1.4161
 3326SOL    HW214341   5.780  10.937   3.733 -1.6389  0.5936 -0.1226
 3327SOL     OW14342   8.730   3.854   1.049  0.1274  0.3916 -0.3881
 3327SOL    HW114343   8.654   3.809   1.086  0.3117  1.0777  0.8938
 3327SOL    HW214344   8.804   3.824   1.102  0.5216  0.8630 -0.6642
 3328SOL     OW14345   6.941   3.439   3.730 -0.4838  0.3154 -0.0719
 3328SOL    HW114346   6.913   3.524   3.697 -1.4677  0.3392  0.7711
 3328SOL    HW214347   6.868   3.381   3.710 -0.2449 -0.1040  0.2696
 3329SOL     OW14348   2.898   1.562   0.284 -0.2160 -0.0427 -0.1597
 3329SOL    HW114349   2.807   1.567   0.255  0.2044 -0.7832 -1.7415
 3329SOL    HW214350   2.943   1.514   0.213  1.4117  0.3852  0.5404
 3330SOL     OW14351   0.757   9.005   6.390 -0.5340  0.4724  0.7494
 3330SOL    HW114352   0.847   9.038   6.385 -0.3315 -0.2400 -0.9771
 3330SOL    HW214353   0.745   8.956   6.309 -1.7999 -1.2070  1.8804
 3331SOL     OW14354   5.476   6.557   4.262 -0.8733 -0.0641 -0.2797
 3331SOL    HW114355   5.448   6.645   4.238 -0.2018 -0.5252 -3.1221
 3331SOL    HW214356   5.571   6.562   4.263 -0.7490 -1.1393 -2.4110
 3332SOL     OW14357   7.485   6.971   1.169 -0.0954  0.0425 -0.0281
 3332SOL    HW114358   7.557   6.909   1.153 -1.1214 -1.6038  1.3131
 3332SOL    HW214359   7.498   6.999   1.259 -1.0876 -0.2380  0.2084
 3333SOL     OW14360   0.368   7.571   9.543 -0.5468  0.7234 -0.0014
 3333SOL    HW114361   0.336   7.514   9.473 -0.5033  0.7332 -0.0285
 3333SOL    HW214362   0.310   7.647   9.541 -0.3715  0.8518 -0.2089
 3334SOL     OW14363   1.834   7.972   6.989 -0.2460  0.1043 -0.4550
 3334SOL    HW114364   1.881   7.895   7.022 -0.3203 -0.0704 -0.7519
 3334SOL    HW214365   1.746   7.964   7.026 -0.4558 -0.3185 -1.0352
 3335SOL     OW14366   8.315   2.351   3.670  0.7369 -0.1651  0.8337
 3335SOL    HW114367   8.351   2.400   3.596  1.9625  0.3247  1.7297
 3335SOL    HW214368   8.369   2.272   3.674  0.3424 -0.4353  0.9002
 3336SOL     OW14369   6.913   1.452   3.694  0.1410 -0.2978  0.2697
 3336SOL    HW114370   6.895   1.528   3.638 -1.1524 -0.7160  0.1021
 3336SOL    HW214371   6.892   1.482   3.783 -1.5596 -0.8013  0.0694
 3337SOL     OW14372   1.111   0.557   1.972 -0.0833 -0.2041  0.2949
 3337SOL    HW114373   1.189   0.563   1.917 -1.3587 -0.8207 -1.7105
 3337SOL    HW214374   1.144   0.540   2.060  2.0687  0.8126 -0.2584
 3338SOL     OW14375   8.554  10.715  11.013  0.2857 -0.6225  0.0819
 3338SOL    HW114376   8.579  10.671  10.932  0.7117 -0.3893  0.0903
 3338SOL    HW214377   8.544  10.807  10.990 -2.3665 -0.9211 -0.3550
 3339SOL     OW14378   6.196   5.381  10.385 -0.5466  0.1445  0.4888
 3339SOL    HW114379   6.206   5.471  10.354 -1.6815  0.3388  0.6370
 3339SOL    HW214380   6.259   5.373  10.456  0.9145  0.2121 -0.7667
 3340SOL     OW14381  10.224   2.246   0.643  0.3867 -0.3243  0.0557
 3340SOL    HW114382  10.131   2.267   0.659  0.6364  0.5940  0.3903
 3340SOL    HW214383  10.225   2.210   0.555 -0.0307  1.6965 -0.8479
 3341SOL     OW14384   7.225   4.871   1.932  0.1554  0.2165 -0.3141
 3341SOL    HW114385   7.222   4.931   2.007  2.1450  0.0696 -0.0589
 3341SOL    HW214386   7.180   4.793   1.962 -0.1648  0.6193  0.2832
 3342SOL     OW14387   0.644   9.774   7.897 -0.2308  0.1466  0.1025
 3342SOL    HW114388   0.725   9.736   7.929  0.4567  1.5938  0.1239
 3342SOL    HW214389   0.640   9.861   7.935 -1.1949  0.5535 -0.8543
 3343SOL     OW14390   0.570   5.944   6.424  0.1585 -0.0462 -0.3144
 3343SOL    HW114391   0.502   5.900   6.475  1.0550 -1.0032  0.0870
 3343SOL    HW214392   0.570   5.898   6.340  1.1662 -0.9113  0.1410
 3344SOL     OW14393   1.440   1.352   5.080 -1.2638 -0.2645  0.7821
 3344SOL    HW114394   1.438   1.333   5.174  1.2856 -1.3011  0.7179
 3344SOL    HW214395   1.429   1.266   5.038  3.2810 -0.8898  0.3513
 3345SOL     OW14396   3.314   5.908   7.853 -0.3477 -0.1971 -0.4308
 3345SOL    HW114397   3.402   5.944   7.863 -1.2368  1.9434  0.5075
 3345SOL    HW214398   3.267   5.975   7.802 -1.7353 -0.6908  0.1562
 3346SOL     OW14399   8.855   2.422   6.825  0.6606  0.0979 -0.2007
 3346SOL    HW114400   8.907   2.350   6.789  0.4055 -0.0211 -0.3281
 3346SOL    HW214401   8.877   2.422   6.919 -0.6186 -1.2388  0.1379
 3347SOL     OW14402   3.109   9.934   7.856 -0.1723  0.0241  1.4047
 3347SOL    HW114403   3.081   9.852   7.897 -1.3712 -0.9255 -1.1190
 3347SOL    HW214404   3.028   9.976   7.828  0.5129  1.5008  1.5494
 3348SOL     OW14405   7.301   3.633   7.701 -0.1620 -0.4134  0.2007
 3348SOL    HW114406   7.212   3.641   7.667 -0.2422 -0.6507  0.3483
 3348SOL    HW214407   7.292   3.577   7.779  0.2744 -1.4646 -0.4794
 3349SOL     OW14408   2.706   4.639   2.907  0.0546  0.1968 -0.4890
 3349SOL    HW114409   2.672   4.703   2.969 -1.1609 -2.1966  1.5077
 3349SOL    HW214410   2.631   4.585   2.883  0.6331  0.5825 -3.6347
 3350SOL     OW14411   7.060   6.972   8.429  0.1369  0.0749  0.3598
 3350SOL    HW114412   6.992   6.910   8.403  0.8339 -1.4359  1.9288
 3350SOL    HW214413   7.015   7.036   8.483 -0.5462  0.8424 -1.0578
 3351SOL     OW14414   7.053   8.306  10.008 -0.1789 -0.1370  0.4438
 3351SOL    HW114415   7.053   8.211   9.999 -0.0772 -0.1907  1.0173
 3351SOL    HW214416   7.066   8.338   9.918 -1.2784 -0.6367  0.0965
 3352SOL     OW14417  10.404   6.776   7.327 -0.4212  0.4631 -0.1692
 3352SOL    HW114418  10.356   6.848   7.369 -0.1842 -0.3425  1.5670
 3352SOL    HW214419  10.495   6.806   7.324  0.2037 -0.7455  3.0954
 3353SOL     OW14420   6.693   2.495   9.662  0.1786 -0.1318  0.0270
 3353SOL    HW114421   6.636   2.432   9.705  0.2502 -0.4766 -0.3729
 3353SOL    HW214422   6.780   2.476   9.696  0.0853  0.2696  0.4953
 3354SOL     OW14423   1.120   4.175   3.398  0.0982 -0.0746  0.1055
 3354SOL    HW114424   1.141   4.183   3.305  0.1599 -0.2279  0.1055
 3354SOL    HW214425   1.028   4.149   3.400  0.5299 -1.6882  0.0369
 3355SOL     OW14426   9.584   3.666   8.265 -0.2290  0.5265  0.4488
 3355SOL    HW114427   9.575   3.640   8.357 -1.9358 -0.1936  0.1209
 3355SOL    HW214428   9.503   3.713   8.245 -1.3346 -1.9023 -1.4394
 3356SOL     OW14429  10.782   7.656   3.853 -0.4014 -0.5240 -0.0385
 3356SOL    HW114430  10.831   7.716   3.796  2.2697 -1.7885  0.7594
 3356SOL    HW214431  10.831   7.656   3.935 -1.4185 -2.3587  0.6163
 3357SOL     OW14432   3.667   4.851   8.258 -0.1904  0.8825 -0.3994
 3357SOL    HW114433   3.610   4.774   8.263  0.2294  0.6042  0.0955
 3357SOL    HW214434   3.666   4.888   8.346  0.3483  0.9117 -0.4038
 3358SOL     OW14435   5.189  10.560   3.047  0.0761  0.3270 -0.2162
 3358SOL    HW114436   5.212  10.467   3.049 -0.2035  0.2239 -1.2614
 3358SOL    HW214437   5.266  10.603   3.010  0.4027  0.5937  0.7276
 3359SOL     OW14438   8.007   8.671  10.511  0.6083  0.3594  0.4499
 3359SOL    HW114439   7.982   8.691  10.422 -0.6539 -0.0298  0.7005
 3359SOL    HW214440   7.925   8.652  10.556  1.2604  0.0919  1.5761
 3360SOL     OW14441   7.771   7.801   6.144 -0.0893 -0.4161  0.6425
 3360SOL    HW114442   7.733   7.818   6.230 -2.2386 -0.7815 -0.1680
 3360SOL    HW214443   7.715   7.851   6.084  1.2658 -0.3042 -0.5701
 3361SOL     OW14444   6.763   0.455   8.094 -0.4717 -0.1624 -0.0881
 3361SOL    HW114445   6.835   0.514   8.071 -1.2275  0.2531 -1.4782
 3361SOL    HW214446   6.799   0.367   8.082 -0.4135  0.0407 -1.6083
 3362SOL     OW14447   7.423   5.921   8.641 -0.2692 -0.7364  0.2801
 3362SOL    HW114448   7.455   6.007   8.666 -1.5128 -0.1503 -0.0727
 3362SOL    HW214449   7.386   5.885   8.722 -0.8918 -0.4027  0.1505
 3363SOL     OW14450  10.589   5.250   2.619 -0.0515  0.0591 -0.3345
 3363SOL    HW114451  10.577   5.320   2.683 -0.6525 -1.1645  0.9427
 3363SOL    HW214452  10.680   5.259   2.591  0.6557 -0.1996  1.7283
 3364SOL     OW14453   1.284  10.969   8.599  0.1958 -0.6190  0.3026
 3364SOL    HW114454   1.258  10.911   8.670 -1.0009 -1.3364 -0.6839
 3364SOL    HW214455   1.233  11.049   8.615  2.3743  0.5518  2.0738
 3365SOL     OW14456   4.311   4.977   9.836  0.4092  0.1875 -0.2449
 3365SOL    HW114457   4.337   4.996   9.746  0.0795  1.1868 -0.1465
 3365SOL    HW214458   4.227   5.021   9.846 -1.0016 -2.2744 -0.3141
 3366SOL     OW14459   8.690   0.551   7.922  0.1496  0.1332  0.2732
 3366SOL    HW114460   8.626   0.616   7.951 -0.6338 -0.1670 -0.7373
 3366SOL    HW214461   8.771   0.601   7.911 -0.0872  0.6563  0.8768
 3367SOL     OW14462   1.191   6.507   5.038 -0.6053 -0.1730 -0.6014
 3367SOL    HW114463   1.178   6.511   4.944  0.0202  1.7069 -0.6443
 3367SOL    HW214464   1.138   6.578   5.073  0.1332 -0.0600  0.3293
 3368SOL     OW14465   2.555   5.838  10.636 -0.0512 -0.1889  0.3078
 3368SOL    HW114466   2.468   5.874  10.617  0.9547  2.0068 -0.5754
 3368SOL    HW214467   2.555   5.824  10.731 -1.4381 -0.4995  0.2841
 3369SOL     OW14468   6.396   1.911  10.063  0.5621  0.0276 -0.0106
 3369SOL    HW114469   6.367   1.996  10.096  1.5017  0.1428  0.5407
 3369SOL    HW214470   6.331   1.888   9.997 -1.7387 -0.4437  2.2243
 3370SOL     OW14471   2.121   9.154  10.123 -0.4440 -0.2332 -0.3775
 3370SOL    HW114472   2.198   9.102  10.101 -0.6592 -1.0520  0.7033
 3370SOL    HW214473   2.153   9.221  10.183 -0.3874  0.0905 -0.7699
 3371SOL     OW14474   4.876   8.783   2.986  0.4089  0.2291  0.3574
 3371SOL    HW114475   4.952   8.813   2.936 -0.0717  3.0823  1.1116
 3371SOL    HW214476   4.889   8.821   3.073 -2.5357  2.1409  0.0844
 3372SOL     OW14477   8.128   6.797   7.526 -0.2795  0.3583  0.4059
 3372SOL    HW114478   8.034   6.782   7.522  0.2198 -3.4916 -1.4278
 3372SOL    HW214479   8.144   6.863   7.459 -1.7672  2.6997  2.1934
 3373SOL     OW14480   4.180   5.016   0.899 -1.0678 -0.4256  0.3877
 3373SOL    HW114481   4.165   5.010   0.805 -1.0209  0.0413  0.3456
 3373SOL    HW214482   4.238   4.943   0.919 -0.3185  0.0255 -0.1114
 3374SOL     OW14483   5.167   7.292  10.137 -0.3689  0.6480 -0.1074
 3374SOL    HW114484   5.161   7.380  10.099 -0.4019  0.1190 -1.3766
 3374SOL    HW214485   5.076   7.265  10.148 -0.3922  1.1928  1.3932
 3375SOL     OW14486   7.950   0.567   3.780 -0.0891  0.2378 -0.0457
 3375SOL    HW114487   8.020   0.509   3.750 -0.9539 -0.6441 -0.4299
 3375SOL    HW214488   7.956   0.643   3.722 -0.2491 -0.4125 -0.9492
 3376SOL     OW14489   4.496  10.766   5.686  0.3300 -0.4336 -0.5503
 3376SOL    HW114490   4.523  10.837   5.744 -1.5921  0.1274 -0.2762
 3376SOL    HW214491   4.481  10.691   5.744  0.8178 -0.6065 -0.6440
 3377SOL     OW14492   9.512   7.358   8.739 -0.4797 -0.3743 -0.2902
 3377SOL    HW114493   9.468   7.314   8.812  0.0643  0.1013  0.3394
 3377SOL    HW214494   9.466   7.441   8.730  0.3314  0.1742  0.4447
 3378SOL     OW14495   8.448   5.556   6.882 -0.0869  0.4187 -0.3471
 3378SOL    HW114496   8.401   5.587   6.805 -3.3903  1.1690  1.7280
 3378SOL    HW214497   8.480   5.635   6.925  0.8093  0.0979 -0.4070
 3379SOL     OW14498   9.671   7.322   8.451 -0.0890  0.0110  0.0963
 3379SOL    HW114499   9.576   7.327   8.461 -0.2069  0.5987 -1.1503
 3379SOL    HW214500   9.687   7.230   8.429 -0.4509  0.0493 -0.3610
 3380SOL     OW14501   6.719   6.002   5.060  0.0319  0.5826  0.5191
 3380SOL    HW114502   6.807   5.992   5.023 -0.5010 -1.2456 -0.3571
 3380SOL    HW214503   6.691   5.913   5.079 -2.8963  0.7685 -2.2549
 3381SOL     OW14504   6.769   6.169   9.339  0.5904 -0.0649  0.3789
 3381SOL    HW114505   6.714   6.090   9.331  2.5504 -1.3417 -1.8605
 3381SOL    HW214506   6.858   6.135   9.349  1.5425  1.8317 -1.1685
 3382SOL     OW14507   0.190   3.042   2.993 -0.4420 -0.9043  0.3161
 3382SOL    HW114508   0.258   3.016   3.056  0.1250 -0.6677 -0.1845
 3382SOL    HW214509   0.109   3.007   3.029  0.0324 -1.7043  0.6289
 3383SOL     OW14510   3.801   0.769   7.821  0.3578  0.1606  0.3808
 3383SOL    HW114511   3.832   0.825   7.892  1.6111 -1.6189  1.3170
 3383SOL    HW214512   3.874   0.767   7.758  1.5966 -2.6195  1.7383
 3384SOL     OW14513   3.406   6.260   4.980  0.0053  0.6584  0.1205
 3384SOL    HW114514   3.314   6.231   4.986  0.4135 -0.6139  0.6694
 3384SOL    HW214515   3.403   6.354   4.998 -1.0380  0.3700  1.6585
 3385SOL     OW14516   1.666   0.574   8.213 -0.0336  0.6774  0.2652
 3385SOL    HW114517   1.660   0.634   8.288  0.6837  0.0816  0.8117
 3385SOL    HW214518   1.579   0.579   8.172 -0.9558 -0.1005  2.0092
 3386SOL     OW14519   7.293   8.887   0.129  0.2177  0.3999  0.1385
 3386SOL    HW114520   7.277   8.811   0.074 -1.4619  0.4588  0.5006
 3386SOL    HW214521   7.278   8.963   0.072  1.9561  0.4981 -0.2418
 3387SOL     OW14522  10.096   4.482   4.432  0.0724 -0.3224  0.3011
 3387SOL    HW114523  10.166   4.512   4.489  1.4633 -0.0093 -1.4801
 3387SOL    HW214524  10.020   4.472   4.489  1.2564  0.4627  2.0704
 3388SOL     OW14525   8.994   6.630   6.291 -0.1827 -0.4267 -0.5752
 3388SOL    HW114526   9.079   6.605   6.326 -0.4582 -2.0950 -1.0286
 3388SOL    HW214527   9.004   6.624   6.196 -0.9778 -1.3107 -0.6190
 3389SOL     OW14528   3.407   7.226   4.674  0.2564 -0.8659  0.7800
 3389SOL    HW114529   3.374   7.206   4.587 -2.5458 -0.4791  1.6448
 3389SOL    HW214530   3.331   7.261   4.721  2.7133  3.7192  1.9496
 3390SOL     OW14531  10.271   7.087   2.682  0.0056 -0.2239  0.0713
 3390SOL    HW114532  10.203   7.112   2.744 -0.5998 -0.3877 -0.5140
 3390SOL    HW214533  10.224   7.047   2.609  0.7816 -0.9895 -0.0316
 3391SOL     OW14534   4.889   2.116   6.020  0.1101  0.2248  0.2862
 3391SOL    HW114535   4.962   2.156   6.068 -0.3935  1.1877  0.2645
 3391SOL    HW214536   4.826   2.187   6.008 -0.4262 -0.3696 -0.5088
 3392SOL     OW14537   6.588   5.446   9.976 -0.0729  0.6208 -0.1643
 3392SOL    HW114538   6.657   5.380   9.980 -0.3019  0.0895 -2.7396
 3392SOL    HW214539   6.507   5.396   9.975 -0.6588  1.2582  3.2772
 3393SOL     OW14540  10.660   2.905   2.755  0.2034 -0.1405  0.2906
 3393SOL    HW114541  10.635   2.890   2.846  0.6423 -0.5098  0.3527
 3393SOL    HW214542  10.751   2.936   2.759 -0.1381  0.9448  0.0514
 3394SOL     OW14543   7.230   1.333   0.488 -0.0665 -0.1652  0.5195
 3394SOL    HW114544   7.298   1.270   0.460 -0.1109  0.0226 -0.0370
 3394SOL    HW214545   7.163   1.279   0.529  0.5099 -0.3341  1.2615
 3395SOL     OW14546   5.718   5.361   6.624 -0.2896  0.2658 -0.0848
 3395SOL    HW114547   5.647   5.421   6.598 -0.7155  0.9151  2.2990
 3395SOL    HW214548   5.796   5.399   6.585 -0.9651  0.7304 -1.0387
 3396SOL     OW14549   4.368   3.913   1.076 -0.2787  0.1421  0.0071
 3396SOL    HW114550   4.342   3.884   1.164 -0.7349  1.9922  0.5311
 3396SOL    HW214551   4.369   4.009   1.082  1.3933  0.2736 -1.5384
 3397SOL     OW14552   3.090  10.455   0.025 -0.0543  0.2861 -0.1801
 3397SOL    HW114553   3.169  10.465  -0.028 -0.3014 -0.2495 -0.6674
 3397SOL    HW214554   3.021  10.497  -0.027 -0.1243  0.5860  0.1535
 3398SOL     OW14555   2.227   3.798   1.564 -0.2176 -0.6815 -0.1077
 3398SOL    HW114556   2.134   3.777   1.568 -0.0176 -1.5031  0.5429
 3398SOL    HW214557   2.230   3.893   1.573 -0.9684 -0.6920  0.3913
 3399SOL     OW14558   5.690   2.903   6.252 -0.2282 -0.0790  0.2654
 3399SOL    HW114559   5.783   2.901   6.271 -0.0390 -1.2679 -0.6832
 3399SOL    HW214560   5.684   2.948   6.167 -0.4258 -0.7838 -0.0991
 3400SOL     OW14561   4.752   7.021   8.337  0.0138  0.0144 -0.9110
 3400SOL    HW114562   4.794   6.977   8.411 -2.0018 -1.0304 -0.3148
 3400SOL    HW214563   4.675   7.063   8.376  0.0603  1.2343 -2.0817
 3401SOL     OW14564  10.018   8.829   3.886  0.4887  0.0980  0.0498
 3401SOL    HW114565  10.027   8.739   3.855 -0.9948  0.5466 -1.9172
 3401SOL    HW214566   9.928   8.853   3.862 -0.3598  1.0194  3.6124
 3402SOL     OW14567  10.993   8.633   2.059 -0.8123 -0.2529  0.0208
 3402SOL    HW114568  11.000   8.728   2.052  0.7548 -0.3632 -0.2754
 3402SOL    HW214569  10.901   8.614   2.043 -0.7580  1.0387 -2.1317
 3403SOL     OW14570   5.317   3.374  10.068 -0.0726 -0.2134  0.2781
 3403SOL    HW114571   5.308   3.291  10.115 -0.9980 -0.3260 -0.0860
 3403SOL    HW214572   5.411   3.394  10.073  0.3917 -1.9246 -0.6852
 3404SOL     OW14573   8.835   6.508   2.334 -0.3119  0.1918 -0.0105
 3404SOL    HW114574   8.802   6.596   2.352  0.1536  0.2552  0.5445
 3404SOL    HW214575   8.808   6.456   2.410  0.8106  0.2332  0.4317
 3405SOL     OW14576   8.629   1.370  10.156 -0.0892 -0.2599  0.2975
 3405SOL    HW114577   8.722   1.347  10.151 -0.0767 -0.0296 -0.8133
 3405SOL    HW214578   8.606   1.395  10.067 -0.0648  4.2177  1.3181
 3406SOL     OW14579   8.339   9.861   1.336  0.1940 -0.0212 -0.0172
 3406SOL    HW114580   8.365   9.942   1.291  1.7080 -0.3046  0.2817
 3406SOL    HW214581   8.244   9.856   1.324  0.0837  1.7356 -0.1479
 3407SOL     OW14582  10.452   4.605   6.703  0.1555  0.2778 -0.3586
 3407SOL    HW114583  10.448   4.529   6.645  0.6996 -0.3018  0.3462
 3407SOL    HW214584  10.457   4.567   6.791  0.9911  1.1216 -0.0353
 3408SOL     OW14585   8.429   9.048   3.401  0.1481  0.0317  0.2541
 3408SOL    HW114586   8.371   9.029   3.327 -1.0216 -0.7269  1.3432
 3408SOL    HW214587   8.402   8.988   3.470  2.7729 -0.9211  0.5643
 3409SOL     OW14588   9.015   0.504   5.619 -0.1841  0.2623 -0.2291
 3409SOL    HW114589   8.962   0.484   5.696  0.5790 -0.5605  0.0938
 3409SOL    HW214590   9.056   0.421   5.596  0.8186  0.8463 -0.5792
 3410SOL     OW14591   6.805   0.722   1.485  0.0342 -0.6738  0.1593
 3410SOL    HW114592   6.738   0.770   1.437  0.3811 -0.7896 -0.4535
 3410SOL    HW214593   6.797   0.632   1.454  0.8491 -0.5781 -0.3537
 3411SOL     OW14594   4.099   6.600   8.330  0.0689  0.0300 -0.3150
 3411SOL    HW114595   4.135   6.684   8.356 -0.8646  0.3795 -0.1508
 3411SOL    HW214596   4.163   6.536   8.362  0.6200  0.6451 -0.1667
 3412SOL     OW14597   8.217  10.113   8.149 -0.3497 -0.9327  0.2962
 3412SOL    HW114598   8.252  10.049   8.088  0.5331 -0.7945  0.6528
 3412SOL    HW214599   8.288  10.131   8.210 -0.2919  0.9968 -0.2778
 3413SOL     OW14600   1.676   0.236   0.458  0.3588  0.2532 -0.2180
 3413SOL    HW114601   1.597   0.183   0.447  0.1208  0.1391  1.7253
 3413SOL    HW214602   1.658   0.291   0.534  1.2771  1.9304 -1.1476
 3414SOL     OW14603   1.783   3.428   1.486  0.0275  0.4008  0.2183
 3414SOL    HW114604   1.721   3.478   1.537 -1.5930 -0.0003 -1.2535
 3414SOL    HW214605   1.863   3.425   1.539 -1.1930  0.9567  2.1390
 3415SOL     OW14606   7.268   5.698  10.571  0.1988  0.1283  0.6067
 3415SOL    HW114607   7.339   5.679  10.510 -1.8972  1.3327 -2.4606
 3415SOL    HW214608   7.261   5.793  10.571  0.3043  0.1952  3.0759
 3416SOL     OW14609   2.742   8.008  10.398 -0.1209 -0.1200  0.2513
 3416SOL    HW114610   2.681   7.960  10.341 -0.5773 -0.2263  0.8191
 3416SOL    HW214611   2.769   7.943  10.463  1.1349 -0.2586 -0.3866
 3417SOL     OW14612   3.821   4.938  10.107  0.3944  0.2032  0.2555
 3417SOL    HW114613   3.803   5.029  10.082  0.6502 -0.0654 -1.0000
 3417SOL    HW214614   3.736   4.894  10.098  1.0633 -0.6867 -3.9670
 3418SOL     OW14615   2.194   6.785   3.192 -0.0595  0.0699 -0.3588
 3418SOL    HW114616   2.173   6.734   3.114  2.4223 -0.0251 -1.0605
 3418SOL    HW214617   2.288   6.804   3.184 -0.1725  1.8601  1.5748
 3419SOL     OW14618   8.020   4.315   7.296 -0.2975 -0.1497 -0.5188
 3419SOL    HW114619   8.048   4.230   7.331 -2.2279 -1.9480 -2.9503
 3419SOL    HW214620   8.065   4.322   7.212  0.4389  1.6824 -0.0160
 3420SOL     OW14621   2.432   4.626   7.830 -0.2276  0.1239  0.0441
 3420SOL    HW114622   2.483   4.588   7.758  1.6987  0.2302  1.2701
 3420SOL    HW214623   2.483   4.606   7.909 -1.6352  1.0806  1.2543
 3421SOL     OW14624   9.484   0.795   3.759  0.6770 -0.8675  0.3773
 3421SOL    HW114625   9.401   0.764   3.794 -1.0008  2.1072 -0.6067
 3421SOL    HW214626   9.539   0.810   3.836 -0.2793 -1.3439  1.1595
 3422SOL     OW14627   5.784   6.088  10.614 -0.4442  0.0950 -0.3957
 3422SOL    HW114628   5.737   6.147  10.672  0.9108 -1.3834  2.3913
 3422SOL    HW214629   5.863   6.136  10.590 -1.3004  0.9508 -1.6221
 3423SOL     OW14630   6.525   2.400   3.244  0.1696 -0.2273 -0.1555
 3423SOL    HW114631   6.456   2.340   3.215 -0.5926  0.8502 -0.6435
 3423SOL    HW214632   6.551   2.367   3.330 -1.9225  0.1132  0.6602
 3424SOL     OW14633   6.697   2.190   4.953  0.1181 -0.6651  0.4313
 3424SOL    HW114634   6.776   2.207   5.003  0.6162 -1.4000 -0.0877
 3424SOL    HW214635   6.697   2.095   4.939 -0.1069 -0.5077 -0.7730
 3425SOL     OW14636   7.348   4.645   9.696  0.4865 -0.1089  0.0499
 3425SOL    HW114637   7.290   4.705   9.649  0.6005  0.7077  0.9278
 3425SOL    HW214638   7.436   4.679   9.678  0.5758 -0.2627  0.1976
 3426SOL     OW14639   4.808   7.312   1.718 -0.7811 -0.0422 -0.0720
 3426SOL    HW114640   4.760   7.394   1.707 -1.1306 -0.3213 -0.6713
 3426SOL    HW214641   4.798   7.291   1.811 -0.4794  0.7212  0.1351
 3427SOL     OW14642   7.375  10.070   2.554  0.3198  0.7901  0.0579
 3427SOL    HW114643   7.429  10.025   2.619  1.8018  1.6538 -0.5198
 3427SOL    HW214644   7.364  10.005   2.484  1.1111  0.7651 -0.0630
 3428SOL     OW14645   8.685   1.488   5.243  0.1074  0.1247  0.1218
 3428SOL    HW114646   8.656   1.562   5.296 -0.8762  0.7617 -1.2439
 3428SOL    HW214647   8.731   1.431   5.304 -1.3699  0.5956  1.7492
 3429SOL     OW14648   8.994   9.142   6.008  0.5172 -0.0415  1.0022
 3429SOL    HW114649   8.952   9.216   5.964  1.4483  0.3596  0.7498
 3429SOL    HW214650   9.053   9.182   6.072 -0.1884 -0.6099  2.0257
 3430SOL     OW14651   0.177   2.015   6.831  0.2917  0.0481  0.5765
 3430SOL    HW114652   0.152   1.923   6.841 -0.1954  0.0418 -0.6121
 3430SOL    HW214653   0.189   2.046   6.921  0.8217 -1.2625  0.9821
 3431SOL     OW14654   3.675   9.711   4.360 -0.0664  0.1253 -0.0085
 3431SOL    HW114655   3.582   9.691   4.373  0.2253 -1.7005 -0.4695
 3431SOL    HW214656   3.717   9.626   4.349  1.4873  0.9603 -1.0134
 3432SOL     OW14657   2.340   9.297   5.492  0.1534 -0.2284  0.0626
 3432SOL    HW114658   2.300   9.384   5.497 -2.5748 -1.4081  0.7875
 3432SOL    HW214659   2.304   9.259   5.412  0.2183 -1.1626  0.4664
 3433SOL     OW14660   1.639   2.139   2.623 -0.1536  0.2437  0.1966
 3433SOL    HW114661   1.599   2.156   2.537 -0.2643 -0.6046  0.0709
 3433SOL    HW214662   1.624   2.046   2.638  2.3584 -0.2826 -0.1520
 3434SOL     OW14663  10.394   7.362   7.885  0.3559 -0.1541  0.5665
 3434SOL    HW114664  10.446   7.383   7.807  0.3440 -0.0061  0.5987
 3434SOL    HW214665  10.455   7.375   7.958  0.5917 -1.0128  0.5348
 3435SOL     OW14666   9.249   3.884  10.670  0.7374 -0.2670  0.0266
 3435SOL    HW114667   9.328   3.884  10.723 -0.7254 -2.2553  2.4733
 3435SOL    HW214668   9.188   3.940  10.717  0.0353 -0.3780 -0.7141
 3436SOL     OW14669   1.964   4.966   3.304  0.4658  0.2606 -0.2901
 3436SOL    HW114670   1.887   5.018   3.281  0.6051  0.4262 -0.3841
 3436SOL    HW214671   1.983   4.990   3.395 -1.7274 -2.4081  0.9980
 3437SOL     OW14672   7.096   5.777   2.866 -0.1969  0.0819  0.1889
 3437SOL    HW114673   7.124   5.761   2.776  1.3273  2.3158  0.1834
 3437SOL    HW214674   7.016   5.829   2.856 -0.1301  0.1731  0.1171
 3438SOL     OW14675   7.865   3.752   2.774 -0.3882 -1.2075 -0.1254
 3438SOL    HW114676   7.837   3.661   2.780 -2.1435 -0.6437  0.9803
 3438SOL    HW214677   7.821   3.785   2.696  0.2687 -1.2864 -0.5409
 3439SOL     OW14678   0.868   2.543   7.008 -0.1182  0.0525 -0.0732
 3439SOL    HW114679   0.818   2.584   7.079 -0.9616  1.7669 -1.6002
 3439SOL    HW214680   0.815   2.556   6.930  1.5161 -0.3736 -1.3072
 3440SOL     OW14681   0.440   1.285   6.474  0.3621  0.8524 -0.0061
 3440SOL    HW114682   0.409   1.309   6.387 -1.9713 -1.6712 -0.0112
 3440SOL    HW214683   0.528   1.251   6.460 -0.1475  0.0609 -1.4689
 3441SOL     OW14684   0.216   2.561   5.498 -0.1646 -0.3083  0.5040
 3441SOL    HW114685   0.122   2.544   5.485 -0.5635  0.1053  2.4479
 3441SOL    HW214686   0.257   2.475   5.488 -0.5247 -0.2811 -1.7377
 3442SOL     OW14687   7.093   9.486   5.219 -0.0428  0.2291  0.2970
 3442SOL    HW114688   7.181   9.521   5.236  0.0467  1.9872 -2.9016
 3442SOL    HW214689   7.036   9.563   5.221 -0.5993  0.0112 -2.5400
 3443SOL     OW14690   0.563   4.856   1.362 -0.4827 -0.2285  0.0853
 3443SOL    HW114691   0.594   4.877   1.449 -0.1593  0.4547 -0.1893
 3443SOL    HW214692   0.642   4.844   1.310 -0.6341  1.4082 -0.5919
 3444SOL     OW14693   5.846   0.297   6.098  0.6097 -0.5785  0.0329
 3444SOL    HW114694   5.770   0.315   6.042  1.5409  0.6753 -0.9014
 3444SOL    HW214695   5.875   0.384   6.127  1.2583 -1.0864  0.9543
 3445SOL     OW14696   4.228   8.353   5.710 -0.1478 -0.2480 -0.6054
 3445SOL    HW114697   4.312   8.316   5.739 -1.0665 -0.2766  2.3697
 3445SOL    HW214698   4.170   8.342   5.785 -2.8827 -0.2798 -2.5778
 3446SOL     OW14699   0.313   8.910   0.746 -0.2634 -0.3861  0.1897
 3446SOL    HW114700   0.259   8.850   0.695 -0.1441 -0.4243  0.1070
 3446SOL    HW214701   0.251   8.971   0.785 -0.3617 -0.3980  0.0525
 3447SOL     OW14702   0.544   2.837   7.023  0.1204  0.1704  0.0877
 3447SOL    HW114703   0.562   2.909   6.962  0.4531 -1.2873 -1.5999
 3447SOL    HW214704   0.478   2.873   7.083  0.6480  2.0365 -0.3717
 3448SOL     OW14705   7.033   6.640   9.042 -0.3821 -0.2553  0.3238
 3448SOL    HW114706   7.076   6.706   8.987 -1.0355  0.2226  0.3779
 3448SOL    HW214707   7.073   6.651   9.128 -1.9430  1.5093  0.8758
 3449SOL     OW14708   1.296   0.249   6.070 -0.0341 -0.2072  0.5539
 3449SOL    HW114709   1.290   0.154   6.079 -0.7268  0.0469  4.0142
 3449SOL    HW214710   1.338   0.279   6.150 -0.0212  2.4458 -0.3410
 3450SOL     OW14711   0.984   7.043  10.246 -0.1488 -0.1267  0.3699
 3450SOL    HW114712   1.061   6.991  10.269 -0.1950 -0.6294 -0.5698
 3450SOL    HW214713   1.021   7.126  10.215  0.0972 -0.6889 -0.9426
 3451SOL     OW14714   4.636   8.237   3.173 -0.2853 -0.2173 -0.3807
 3451SOL    HW114715   4.563   8.263   3.229  0.8212  1.5960  0.3200
 3451SOL    HW214716   4.602   8.245   3.084 -1.0733  0.1852 -0.0565
 3452SOL     OW14717   0.616   9.525   6.386  1.0194  0.3748 -0.2679
 3452SOL    HW114718   0.682   9.456   6.376  1.8300  1.0715  0.1382
 3452SOL    HW214719   0.549   9.486   6.441  1.3569 -0.1685 -0.2283
 3453SOL     OW14720  10.648   5.180   0.703 -0.2407 -0.3156  0.4167
 3453SOL    HW114721  10.680   5.225   0.781 -0.4625  1.9698 -0.7557
 3453SOL    HW214722  10.589   5.242   0.660 -0.4948 -1.6731 -1.3490
 3454SOL     OW14723   2.950   0.669   6.640  0.2325  0.5456  0.3026
 3454SOL    HW114724   2.932   0.628   6.724 -0.4202 -0.2364 -0.2010
 3454SOL    HW214725   2.920   0.759   6.650  0.2467  0.4833  0.9330
 3455SOL     OW14726   7.602   0.883   0.419 -0.2854 -0.5726 -0.7140
 3455SOL    HW114727   7.640   0.970   0.410  1.1622 -1.1325 -0.2829
 3455SOL    HW214728   7.631   0.836   0.341  0.2266 -1.1098 -0.2131
 3456SOL     OW14729   5.438   6.874   4.160 -0.8824 -0.2854  0.0057
 3456SOL    HW114730   5.527   6.895   4.191 -0.0036 -1.9659 -1.2058
 3456SOL    HW214731   5.394   6.959   4.155  0.6405  0.5974  0.6741
 3457SOL     OW14732   3.871   9.154   8.978 -0.2473  0.1596  0.4113
 3457SOL    HW114733   3.962   9.154   9.010 -0.0819 -0.8698 -0.0233
 3457SOL    HW214734   3.864   9.235   8.927 -0.1925  1.2961  2.1035
 3458SOL     OW14735   9.411   1.013   6.759 -0.1105  0.2062  0.0823
 3458SOL    HW114736   9.496   0.999   6.716 -0.5483  1.0493 -1.1310
 3458SOL    HW214737   9.357   1.054   6.691 -1.5618 -0.5097  0.7707
 3459SOL     OW14738   7.286   8.637  11.080  0.1030 -0.0515  0.3343
 3459SOL    HW114739   7.356   8.575  11.102 -0.2296 -0.1192  1.2379
 3459SOL    HW214740   7.205   8.590  11.100 -0.1889  0.1811 -0.2979
 3460SOL     OW14741   5.843   8.212   8.666 -0.2987  0.0583 -0.3434
 3460SOL    HW114742   5.780   8.211   8.739  1.1246  0.7674  0.9560
 3460SOL    HW214743   5.866   8.120   8.654 -0.6660 -0.0853 -0.0036
 3461SOL     OW14744   8.723   8.784   0.494 -0.2622  0.1179  0.3261
 3461SOL    HW114745   8.751   8.872   0.469  2.6402 -1.3891 -2.4592
 3461SOL    HW214746   8.651   8.764   0.435 -0.3758  0.3451  0.3888
 3462SOL     OW14747   0.884   2.547   5.894  0.1138  0.2922  0.0104
 3462SOL    HW114748   0.824   2.557   5.968 -1.0485  1.7279 -1.0533
 3462SOL    HW214749   0.901   2.453   5.889  0.8882  0.2288  2.5743
 3463SOL     OW14750   3.573   7.380   2.983 -0.0092  0.7601  0.2637
 3463SOL    HW114751   3.478   7.375   2.982  0.0041  0.4750 -0.6625
 3463SOL    HW214752   3.601   7.294   3.015 -0.0518  0.1955 -1.1259
 3464SOL     OW14753   2.343   5.199   5.492 -0.1731  0.5572 -0.1186
 3464SOL    HW114754   2.414   5.148   5.453 -2.2187 -1.7821 -1.0038
 3464SOL    HW214755   2.343   5.281   5.443  1.2571  0.2097 -0.7556
 3465SOL     OW14756  10.498   7.616   5.800 -0.6243 -0.2224  0.1320
 3465SOL    HW114757  10.521   7.552   5.867 -1.1953 -2.1995 -1.4667
 3465SOL    HW214758  10.424   7.664   5.838  1.7014  1.7289  2.6123
 3466SOL     OW14759   5.310   7.031   3.429 -0.0190  0.0294  0.1357
 3466SOL    HW114760   5.301   6.987   3.344 -1.6908 -0.1941  0.3973
 3466SOL    HW214761   5.275   6.968   3.492 -0.2580  0.8265  0.8084
 3467SOL     OW14762   2.686  10.391   8.891 -0.3245  0.0443 -0.0961
 3467SOL    HW114763   2.760  10.425   8.840 -1.0419  1.4340 -0.2461
 3467SOL    HW214764   2.665  10.460   8.953 -0.7794 -0.8065  0.7332
 3468SOL     OW14765   6.532   6.858   3.964 -0.2780 -0.2197 -0.0510
 3468SOL    HW114766   6.455   6.853   4.021 -0.2125  1.6278  0.2735
 3468SOL    HW214767   6.499   6.894   3.882  0.1356  0.0726 -0.0931
 3469SOL     OW14768   7.083   4.773   7.524 -0.2196  0.3133  0.1511
 3469SOL    HW114769   7.081   4.733   7.437  1.9886 -0.6230  0.4656
 3469SOL    HW214770   6.994   4.761   7.558 -1.1023  0.6101 -1.8957
 3470SOL     OW14771   8.084   2.902   3.155 -0.2721 -0.1304 -0.2012
 3470SOL    HW114772   8.098   2.963   3.227  0.5909 -0.6947  0.1324
 3470SOL    HW214773   8.149   2.833   3.169  1.4367  0.8435 -2.7552
 3471SOL     OW14774   3.235   8.257   6.457  0.1268  0.3409  0.2466
 3471SOL    HW114775   3.187   8.328   6.500 -0.4619  0.2318 -0.2132
 3471SOL    HW214776   3.194   8.177   6.489  1.4746  0.1353  1.5851
 3472SOL     OW14777   0.262   9.647   6.575  0.2242  0.0714  0.0632
 3472SOL    HW114778   0.166   9.653   6.573  0.2597  0.5478 -1.0108
 3472SOL    HW214779   0.290   9.679   6.489  1.3164 -0.8020  0.0648
 3473SOL     OW14780  10.694   4.522   7.109  0.1625 -0.2882 -0.1111
 3473SOL    HW114781  10.700   4.502   7.203 -0.6947 -0.7192 -0.1409
 3473SOL    HW214782  10.785   4.525   7.080  0.4623  0.4391  0.8492
 3474SOL     OW14783   1.944   3.985   0.522 -0.2652 -0.1335 -0.0996
 3474SOL    HW114784   1.874   4.023   0.574  0.1517 -0.6238  0.8519
 3474SOL    HW214785   1.950   4.041   0.445 -0.7650  0.7382  0.4762
 3475SOL     OW14786   3.984   8.695   9.485 -0.6400 -0.3282 -0.3090
 3475SOL    HW114787   3.914   8.760   9.486  1.2325  1.8205  0.1274
 3475SOL    HW214788   3.979   8.653   9.571  1.1386  2.8780  1.5492
 3476SOL     OW14789  10.974   0.145  11.008  0.3095  0.3750  0.3919
 3476SOL    HW114790  11.038   0.211  10.985  0.9749  0.3431  2.0022
 3476SOL    HW214791  10.993   0.124  11.100 -2.1281  0.5277  1.0047
 3477SOL     OW14792  10.447   6.554   3.282 -0.0656  0.1032  0.4923
 3477SOL    HW114793  10.411   6.500   3.212 -2.4849  1.9582  0.1620
 3477SOL    HW214794  10.433   6.503   3.362 -1.1680 -0.3067  0.0610
 3478SOL     OW14795   0.511   8.243   4.740  0.4778  0.6254  0.1794
 3478SOL    HW114796   0.473   8.331   4.740 -1.0237  0.0001  0.6098
 3478SOL    HW214797   0.465   8.196   4.671  0.3703 -0.1858  0.7763
 3479SOL     OW14798   2.205   3.735   3.096  0.1406  0.3343 -0.5182
 3479SOL    HW114799   2.247   3.696   3.020  0.8944  1.7732 -0.8748
 3479SOL    HW214800   2.111   3.727   3.078  0.2112 -2.1429 -0.1044
 3480SOL     OW14801   8.848   5.879   1.879  0.3655  0.9732 -0.2043
 3480SOL    HW114802   8.856   5.908   1.970  0.0449 -0.9874  0.4791
 3480SOL    HW214803   8.933   5.840   1.859  0.1663  0.6776 -0.4797
 3481SOL     OW14804   0.820   9.327   5.835 -0.1189 -0.0879  0.1971
 3481SOL    HW114805   0.915   9.340   5.836 -0.0538 -0.1111 -1.4976
 3481SOL    HW214806   0.809   9.232   5.826 -0.3563 -0.2385  1.8403
 3482SOL     OW14807   8.065   3.087   7.565 -0.2694 -0.2098  0.0897
 3482SOL    HW114808   8.150   3.079   7.521 -0.2628  0.6787 -0.0820
 3482SOL    HW214809   8.054   3.181   7.579  1.0511 -0.4791  4.6017
 3483SOL     OW14810   6.510   7.362   8.400  0.6657 -0.2719 -0.3276
 3483SOL    HW114811   6.485   7.438   8.347 -0.3549 -1.3276 -1.4165
 3483SOL    HW214812   6.441   7.298   8.384  0.9975 -1.0989  1.3181
 3484SOL     OW14813   0.167   0.453   0.681  0.2246 -0.2407 -0.0981
 3484SOL    HW114814   0.236   0.394   0.650  0.8768  0.5918 -0.2416
 3484SOL    HW214815   0.143   0.504   0.604  0.0611  0.0738  0.1614
 3485SOL     OW14816   3.904   5.771  11.107 -0.0895  0.4541 -0.1002
 3485SOL    HW114817   3.877   5.776  11.015  0.2147  0.5262 -0.1878
 3485SOL    HW214818   3.980   5.829  11.113  2.5690 -2.6601 -0.7589
 3486SOL     OW14819   5.912   6.984   5.406  0.0156 -0.3644 -0.1035
 3486SOL    HW114820   5.826   6.945   5.423 -0.2183 -0.2211 -0.9425
 3486SOL    HW214821   5.926   6.971   5.313 -0.5482  2.4967 -0.6711
 3487SOL     OW14822   9.046   7.266   8.040  0.1813  0.4319  0.4995
 3487SOL    HW114823   9.057   7.316   7.959 -2.9492  0.8974  0.2381
 3487SOL    HW214824   9.086   7.322   8.107 -0.6368  1.9398 -0.2009
 3488SOL     OW14825   7.367   8.459  10.170 -0.1689  0.0836  0.6954
 3488SOL    HW114826   7.379   8.445  10.076  0.6765 -1.0310  0.9523
 3488SOL    HW214827   7.287   8.512  10.176 -1.2486 -1.3011 -0.5675
 3489SOL     OW14828   5.032   1.401   6.983  0.2284  0.3310 -0.0462
 3489SOL    HW114829   5.045   1.339   7.055  0.4473 -2.2121 -2.1389
 3489SOL    HW214830   5.076   1.361   6.908 -0.2483  2.7073 -1.7183
 3490SOL     OW14831   0.097   6.282  10.407 -0.0072 -0.5514  0.2060
 3490SOL    HW114832   0.032   6.306  10.473 -0.1895 -1.2638  0.2987
 3490SOL    HW214833   0.046   6.270  10.327  0.2533  0.6223 -0.1585
 3491SOL     OW14834   2.698   0.868   8.182 -0.1380 -0.3313 -0.7829
 3491SOL    HW114835   2.631   0.903   8.123 -1.9761  1.9227  2.2871
 3491SOL    HW214836   2.653   0.801   8.233  1.4197 -2.2750 -1.8133
 3492SOL     OW14837   1.899   4.199   4.981  0.3598 -0.3741  0.0961
 3492SOL    HW114838   1.887   4.294   4.982 -1.1910 -0.5476  0.8555
 3492SOL    HW214839   1.952   4.181   5.059  1.4336 -0.0777 -0.5360
 3493SOL     OW14840   7.012   7.719  10.053  0.4880 -0.3584  0.4117
 3493SOL    HW114841   7.046   7.782  10.117  0.7301  0.8689 -0.8645
 3493SOL    HW214842   7.081   7.713   9.987 -0.7150  0.2773 -0.9484
 3494SOL     OW14843  10.894   7.530   0.926  0.4741 -0.2966  0.1314
 3494SOL    HW114844  10.835   7.456   0.934  0.7942 -0.5615  0.0732
 3494SOL    HW214845  10.982   7.491   0.923  0.6916  0.1161  0.7824
 3495SOL     OW14846   8.333   7.302   7.009  0.0246 -0.5382 -0.3628
 3495SOL    HW114847   8.304   7.354   6.933  1.3596  1.1152  0.1855
 3495SOL    HW214848   8.302   7.352   7.085 -0.9760 -1.9862  0.2264
 3496SOL     OW14849   7.873   7.607   4.684 -0.6128 -0.3841  0.2703
 3496SOL    HW114850   7.878   7.522   4.727  1.6985 -1.0568 -1.1507
 3496SOL    HW214851   7.868   7.587   4.591 -1.4229  1.0565 -0.0363
 3497SOL     OW14852   3.307   3.263   5.910 -0.2186 -0.3115 -0.0644
 3497SOL    HW114853   3.223   3.226   5.881 -1.0642  2.1689 -1.0765
 3497SOL    HW214854   3.292   3.285   6.002 -1.7993  2.7141 -0.9179
 3498SOL     OW14855   9.472   4.509   0.807 -0.0385 -0.1399  0.4160
 3498SOL    HW114856   9.389   4.462   0.801 -0.6632  0.9409  0.4855
 3498SOL    HW214857   9.526   4.469   0.739 -0.4509 -1.1537  0.6630
 3499SOL     OW14858   8.961  10.003   3.087 -0.1518  0.1919 -0.5679
 3499SOL    HW114859   8.988   9.971   3.172  1.6365  1.7831 -0.4675
 3499SOL    HW214860   8.885  10.058   3.105 -0.5770 -0.5193 -0.1794
 3500SOL     OW14861   3.675   7.281   3.624  0.2150 -0.3169  0.6303
 3500SOL    HW114862   3.648   7.255   3.712 -0.4814  2.4840  1.3476
 3500SOL    HW214863   3.758   7.327   3.636 -1.3697  2.9020  0.4290
 3501SOL     OW14864   8.342   0.351   8.677  0.4586 -0.2842 -0.2512
 3501SOL    HW114865   8.301   0.437   8.671 -0.2763 -0.5013  1.3363
 3501SOL    HW214866   8.420   0.366   8.730  0.8402 -0.4421 -0.7562
 3502SOL     OW14867   2.866   3.195   5.868 -0.0056  0.0429  0.4548
 3502SOL    HW114868   2.944   3.145   5.846 -0.5961 -0.8489  0.3264
 3502SOL    HW214869   2.887   3.285   5.844  1.2403 -0.0578  1.1058
 3503SOL     OW14870   1.070   4.795   9.457 -0.0878 -0.1167 -0.2531
 3503SOL    HW114871   1.085   4.810   9.550 -1.5618  0.8714 -0.1470
 3503SOL    HW214872   1.014   4.718   9.454  0.1913 -0.3149 -0.3312
 3504SOL     OW14873   8.860  11.089   4.740  0.4826 -0.1637  0.2324
 3504SOL    HW114874   8.945  11.114   4.705  1.3878 -0.2222  2.2807
 3504SOL    HW214875   8.852  10.996   4.719  0.5799  0.0010 -0.5840
 3505SOL     OW14876   0.038   5.168  10.906 -0.1091  0.3849  0.3855
 3505SOL    HW114877   0.062   5.076  10.905  0.1071  0.3874  2.0927
 3505SOL    HW214878   0.019   5.189  10.815 -0.4529 -1.4147  0.0058
 3506SOL     OW14879   7.829   1.264   9.599 -0.2282  0.4518 -0.0080
 3506SOL    HW114880   7.796   1.255   9.509 -0.1544  0.0690  0.0008
 3506SOL    HW214881   7.909   1.316   9.590 -0.2750  0.4984 -0.1529
 3507SOL     OW14882   4.953   3.188  10.657 -0.0391  0.1823  0.2390
 3507SOL    HW114883   4.884   3.182  10.724 -0.9973  0.0735 -0.7404
 3507SOL    HW214884   5.014   3.117  10.679  0.0222  0.5557  1.3776
 3508SOL     OW14885   3.711  10.599   4.734  0.1514 -0.4098  0.2728
 3508SOL    HW114886   3.673  10.519   4.772 -0.1981 -0.2328  0.3025
 3508SOL    HW214887   3.762  10.568   4.659  1.3875 -0.8306  1.2540
 3509SOL     OW14888   6.123   5.149   2.832  0.0028  0.2602 -0.2178
 3509SOL    HW114889   6.124   5.053   2.828  0.5529  0.2109  0.6850
 3509SOL    HW214890   6.162   5.169   2.917  3.4209  1.3632 -1.8671
 3510SOL     OW14891   8.611   1.810   5.030 -0.2122  0.2478  0.8168
 3510SOL    HW114892   8.632   1.826   5.122  0.8791 -2.3411  1.1104
 3510SOL    HW214893   8.517   1.788   5.031  0.1072 -1.2621  1.6165
 3511SOL     OW14894   0.160   0.956   2.055 -0.0358  0.0137 -0.5427
 3511SOL    HW114895   0.218   0.884   2.078  0.2377  0.3522 -0.1363
 3511SOL    HW214896   0.087   0.915   2.009  0.5204 -0.4200 -1.0567
 3512SOL     OW14897   0.902   8.883   8.650 -0.5263  0.1070  0.6478
 3512SOL    HW114898   0.882   8.973   8.624 -0.6573 -0.0379  0.2343
 3512SOL    HW214899   0.848   8.829   8.592 -0.1145 -0.2517  0.5948
 3513SOL     OW14900  10.108  10.482   7.590  0.4686  0.1160 -0.7880
 3513SOL    HW114901  10.049  10.408   7.579 -0.8534  1.0927 -0.5288
 3513SOL    HW214902  10.191  10.453   7.552 -0.0856 -1.3927 -0.9036
 3514SOL     OW14903   8.029   7.662  10.629 -0.6421  0.6985 -0.3360
 3514SOL    HW114904   8.016   7.667  10.534 -3.2503  2.5164 -0.0057
 3514SOL    HW214905   7.955   7.610  10.660  1.8196 -2.5764  0.5690
 3515SOL     OW14906  10.064   6.735   8.659 -0.1527  0.1251 -0.1893
 3515SOL    HW114907  10.070   6.823   8.622  0.7160  0.2910  0.2976
 3515SOL    HW214908  10.028   6.749   8.747  1.5990  0.2210  0.5555
 3516SOL     OW14909   4.526   8.520   3.172 -0.3254  0.4045  0.6147
 3516SOL    HW114910   4.502   8.462   3.244 -1.7398 -1.3333 -1.1354
 3516SOL    HW214911   4.478   8.486   3.097  1.7480  1.5860 -1.3727
 3517SOL     OW14912   4.427   6.529   7.749 -0.2014 -0.2135 -0.5226
 3517SOL    HW114913   4.440   6.613   7.792  0.2837 -0.1329 -0.8136
 3517SOL    HW214914   4.498   6.474   7.783 -0.3746 -0.4326 -0.5134
 3518SOL     OW14915  10.390   9.151   2.650 -0.1232  0.7277 -0.6798
 3518SOL    HW114916  10.376   9.239   2.687 -2.2180  1.0330 -2.0628
 3518SOL    HW214917  10.303   9.118   2.631  0.6853 -1.2029 -1.2794
 3519SOL     OW14918   4.694   2.277   1.877  0.7789 -0.1485  0.0703
 3519SOL    HW114919   4.719   2.232   1.958 -0.0100 -0.6441  0.0475
 3519SOL    HW214920   4.669   2.207   1.818 -1.0607  0.3203  0.2346
 3520SOL     OW14921   5.672   2.276  10.919 -0.0764  0.1633  0.4670
 3520SOL    HW114922   5.660   2.225  10.839  0.8653  0.9236 -0.1832
 3520SOL    HW214923   5.709   2.214  10.982 -0.4950 -0.3577  0.2033
 3521SOL     OW14924   4.879   5.006   3.143  0.1825  0.7439 -0.2734
 3521SOL    HW114925   4.869   5.083   3.086 -0.3467  0.6850 -0.2675
 3521SOL    HW214926   4.973   4.999   3.158  0.2134  1.5724 -0.0357
 3522SOL     OW14927   9.037   4.984   9.762 -0.1875 -0.2619  0.7119
 3522SOL    HW114928   9.031   4.909   9.703 -0.6454  0.4927 -0.2453
 3522SOL    HW214929   9.129   4.990   9.786 -0.1113 -0.9740  0.5939
 3523SOL     OW14930   3.006   1.964   4.961 -0.6033  0.0697 -0.2024
 3523SOL    HW114931   2.936   1.942   5.022  0.3132  0.2599  0.9544
 3523SOL    HW214932   2.968   2.029   4.903 -2.0179 -1.3498 -0.9285
 3524SOL     OW14933   8.278   6.505   1.104 -0.0012 -0.2507 -0.1176
 3524SOL    HW114934   8.251   6.526   1.193 -0.0030 -0.4838 -0.0635
 3524SOL    HW214935   8.350   6.566   1.086  1.9432 -2.0927  1.0758
 3525SOL     OW14936   0.882   5.665   3.910 -0.4447  0.0488  0.6912
 3525SOL    HW114937   0.895   5.595   3.975 -2.2910 -0.1185  0.9490
 3525SOL    HW214938   0.873   5.618   3.827 -1.9060 -0.0756  0.8958
 3526SOL     OW14939   3.834   1.249   7.114 -0.1513 -0.1810  0.3197
 3526SOL    HW114940   3.765   1.313   7.133  1.2101  1.0018  1.5442
 3526SOL    HW214941   3.804   1.168   7.155 -1.1498  0.1092  0.1793
 3527SOL     OW14942   5.508   8.695   4.455  0.4485 -0.1585  0.3609
 3527SOL    HW114943   5.600   8.723   4.452  0.1031  0.9457 -0.4225
 3527SOL    HW214944   5.465   8.749   4.389 -1.1476  0.7253  2.0377
 3528SOL     OW14945   8.058   1.357   0.289 -0.7071 -0.1641  0.0708
 3528SOL    HW114946   8.014   1.339   0.372  0.2724 -0.1672  0.6065
 3528SOL    HW214947   8.031   1.446   0.267 -1.8000 -0.5341 -0.1579
 3529SOL     OW14948   0.454   6.385   1.533 -0.4686  0.8472  0.1661
 3529SOL    HW114949   0.385   6.319   1.543 -1.5529  1.9119 -0.0655
 3529SOL    HW214950   0.409   6.462   1.499  0.9300  1.4319 -0.4457
 3530SOL     OW14951   0.031   2.772   7.670 -0.0400 -0.5088 -0.2153
 3530SOL    HW114952  -0.017   2.818   7.601  0.5960 -1.5526 -1.3895
 3530SOL    HW214953  -0.003   2.809   7.752 -1.8455 -0.2580 -1.0388
 3531SOL     OW14954  10.527   8.054  11.056 -0.3262  0.4172 -0.4778
 3531SOL    HW114955  10.601   8.028  11.110  1.6277 -1.7842 -3.8736
 3531SOL    HW214956  10.458   7.992  11.079  0.5676 -0.6670 -0.6477
 3532SOL     OW14957   6.114   9.437   4.752 -0.4070  0.3588  0.1087
 3532SOL    HW114958   6.069   9.483   4.823  0.3363  0.3979  0.5606
 3532SOL    HW214959   6.206   9.463   4.760 -0.3847  0.7526 -1.1744
 3533SOL     OW14960   9.310   4.998  10.843  0.1742  0.2516 -0.1903
 3533SOL    HW114961   9.314   4.916  10.893  0.6467 -0.6853 -1.6883
 3533SOL    HW214962   9.219   5.002  10.812  0.7433 -1.0860 -2.2299
 3534SOL     OW14963  11.001   4.012   0.331  0.1563 -1.0559  0.0770
 3534SOL    HW114964  10.935   4.014   0.400  2.3942 -2.8545  2.4645
 3534SOL    HW214965  11.027   4.104   0.321 -0.2260 -0.7337  1.6900
 3535SOL     OW14966   9.680   9.680   5.744 -0.6870 -0.5062  0.6471
 3535SOL    HW114967   9.626   9.625   5.800 -0.3140 -1.0796  0.4595
 3535SOL    HW214968   9.676   9.638   5.658 -0.2018 -0.3856  0.5606
 3536SOL     OW14969   9.579  10.347   6.419  0.1151  0.2449  0.0165
 3536SOL    HW114970   9.579  10.265   6.369  0.6168  0.0126  0.3875
 3536SOL    HW214971   9.665  10.350   6.459 -0.4464  0.1720  1.2756
 3537SOL     OW14972   3.609   6.534   9.472 -0.3655 -0.1577 -0.4762
 3537SOL    HW114973   3.559   6.580   9.540  0.7201  1.1290 -0.5035
 3537SOL    HW214974   3.604   6.442   9.497 -0.5433  0.2239  0.9909
 3538SOL     OW14975   5.352   9.392   9.652 -0.0918 -0.3936 -0.0401
 3538SOL    HW114976   5.431   9.341   9.636 -0.6544 -1.2458 -0.1137
 3538SOL    HW214977   5.362   9.423   9.742  2.1589  2.7980 -1.1970
 3539SOL     OW14978   2.526   8.651   3.817 -0.2424  0.3704  0.3675
 3539SOL    HW114979   2.567   8.568   3.792  1.1330  1.1275  0.0379
 3539SOL    HW214980   2.487   8.684   3.737  0.7255  0.8738  0.0926
 3540SOL     OW14981   7.221   8.104  10.422  0.3636  0.1844  0.3391
 3540SOL    HW114982   7.136   8.096  10.378  1.0725 -0.0003 -1.0309
 3540SOL    HW214983   7.218   8.190  10.464 -0.6125  0.0517  0.5602
 3541SOL     OW14984   7.282   6.370   6.103 -0.4968  0.5413  0.4763
 3541SOL    HW114985   7.377   6.361   6.103 -0.4785  0.3730  2.2486
 3541SOL    HW214986   7.261   6.411   6.019  0.9351 -1.2905 -0.8466
 3542SOL     OW14987   0.838   5.042   6.475  0.0142  0.1754 -0.4976
 3542SOL    HW114988   0.793   5.004   6.400  0.6937  0.1474 -0.8963
 3542SOL    HW214989   0.794   5.003   6.551 -0.2956 -0.2408 -0.8831
 3543SOL     OW14990   2.281   9.671   4.650 -0.2515 -0.2923 -0.0681
 3543SOL    HW114991   2.195   9.637   4.625 -0.7484  0.7519  0.1551
 3543SOL    HW214992   2.287   9.654   4.744 -0.5294  0.2804  0.0570
 3544SOL     OW14993   7.708   8.520   6.755 -0.3991  0.2669 -0.2237
 3544SOL    HW114994   7.794   8.552   6.726 -0.5964  1.5603  0.5400
 3544SOL    HW214995   7.648   8.592   6.736 -1.4505 -0.8555 -1.3059
 3545SOL     OW14996   8.213  10.936   1.964 -0.6201 -0.2785 -0.7156
 3545SOL    HW114997   8.271  11.011   1.974 -1.6850  0.4053  0.7964
 3545SOL    HW214998   8.135  10.972   1.921 -1.5583 -0.2396  0.9420
 3546SOL     OW14999   2.625   4.521   8.401  0.0276  0.8411  0.1605
 3546SOL    HW115000   2.561   4.507   8.471 -0.6040  0.5024 -0.4665
 3546SOL    HW215001   2.673   4.438   8.396 -0.6744  0.4652 -0.5365
 3547SOL     OW15002   3.806  10.634   8.978  0.0437  0.2672  0.5249
 3547SOL    HW115003   3.779  10.542   8.984 -0.1893  0.2901 -0.1129
 3547SOL    HW215004   3.746  10.680   9.037  1.4882 -0.2375  2.4918
 3548SOL     OW15005   0.511   0.735   1.099  0.4448  0.3316 -0.2718
 3548SOL    HW115006   0.549   0.658   1.058  1.6064  0.6281  0.2113
 3548SOL    HW215007   0.422   0.740   1.064  0.3195 -1.2773 -0.2283
 3549SOL     OW15008   7.242   1.015   9.552 -0.0815  0.5308  0.5425
 3549SOL    HW115009   7.164   0.963   9.572 -0.5094  0.1430 -1.8766
 3549SOL    HW215010   7.254   1.005   9.458  1.8191  2.1109  0.5637
 3550SOL     OW15011   4.294   7.821   3.066 -0.2216  0.4573  0.6871
 3550SOL    HW115012   4.306   7.912   3.094  1.1494 -0.3007  2.7585
 3550SOL    HW215013   4.203   7.818   3.037 -0.4777  2.3527  1.1130
 3551SOL     OW15014   9.921  10.818   5.519 -0.3494 -0.4308  0.0998
 3551SOL    HW115015  10.005  10.821   5.565 -0.0056  0.0238 -0.5474
 3551SOL    HW215016   9.944  10.818   5.427 -1.0532 -0.9122 -0.0861
 3552SOL     OW15017  10.487   6.604   5.906  0.0917 -0.2307  0.1254
 3552SOL    HW115018  10.582   6.598   5.893  0.0638  0.1103 -0.2926
 3552SOL    HW215019  10.454   6.640   5.823 -0.4316 -0.5764  0.1799
 3553SOL     OW15020   1.877   2.023   2.906  0.2695 -0.2809 -0.2247
 3553SOL    HW115021   1.908   2.110   2.933  0.7032 -1.0162  1.8098
 3553SOL    HW215022   1.789   2.038   2.873 -0.0747  0.8140  1.1110
 3554SOL     OW15023   3.117   9.122   2.295 -0.2942 -0.0698  0.1468
 3554SOL    HW115024   3.060   9.046   2.285 -1.9024  1.2248 -1.1527
 3554SOL    HW215025   3.198   9.087   2.332 -0.7268 -2.5013 -1.0176
 3555SOL     OW15026   6.928   4.744   2.543 -0.2365  0.3411 -0.2383
 3555SOL    HW115027   6.911   4.675   2.479  2.1818 -0.1469 -0.4499
 3555SOL    HW215028   6.941   4.698   2.626  0.3497  0.6316 -0.1654
 3556SOL     OW15029   0.714   6.171   6.452  0.9228 -0.1672  0.0910
 3556SOL    HW115030   0.660   6.244   6.421  1.0558 -1.6702 -4.4221
 3556SOL    HW215031   0.651   6.103   6.474  0.8972  0.0389  0.6808
 3557SOL     OW15032   5.887   3.631   6.648  0.1161 -0.0383  0.6652
 3557SOL    HW115033   5.935   3.549   6.637  1.1336  0.7277 -1.1126
 3557SOL    HW215034   5.795   3.606   6.643  0.3896 -1.1516  0.8742
 3558SOL     OW15035  10.317   5.169   4.537  0.3516  0.1851  0.5595
 3558SOL    HW115036  10.357   5.180   4.451  0.7832  0.9453  0.8454
 3558SOL    HW215037  10.223   5.181   4.522  0.1485 -1.7992 -0.1513
 3559SOL     OW15038   7.426   3.084   3.378  0.0910  0.2172 -0.4397
 3559SOL    HW115039   7.400   3.073   3.287  0.5063  1.3666 -0.7211
 3559SOL    HW215040   7.345   3.106   3.424 -0.1561 -0.5894 -0.4853
 3560SOL     OW15041   7.097   7.415   5.495  0.1630  0.2227  0.6721
 3560SOL    HW115042   7.045   7.417   5.575  1.2007 -0.9074  1.4084
 3560SOL    HW215043   7.169   7.476   5.512  0.5788 -0.2827  0.7597
 3561SOL     OW15044   5.506   6.525   5.348 -0.2805  0.2762 -0.1860
 3561SOL    HW115045   5.547   6.503   5.431  1.0971 -1.9548 -1.3564
 3561SOL    HW215046   5.415   6.495   5.358 -0.1377  0.0715  0.5482
 3562SOL     OW15047   4.543   6.612   3.442  0.4644 -0.0953  0.4122
 3562SOL    HW115048   4.497   6.566   3.373  1.5986 -0.2229 -0.2782
 3562SOL    HW215049   4.605   6.669   3.397 -0.4191  1.6114  1.2645
 3563SOL     OW15050   9.914  11.099   7.175  0.0160  0.1743 -0.0846
 3563SOL    HW115051   9.848  11.167   7.188 -1.1861 -0.4609 -2.3829
 3563SOL    HW215052   9.955  11.121   7.091  1.5015 -0.4446  0.4440
 3564SOL     OW15053   6.801   3.978   3.904  0.9419  0.1817 -0.1052
 3564SOL    HW115054   6.888   3.937   3.897  0.6688 -0.5477  0.6310
 3564SOL    HW215055   6.771   3.984   3.813  0.6099 -2.1186 -0.2059
 3565SOL     OW15056   8.540   8.487   0.547  0.3146  0.0587  0.3942
 3565SOL    HW115057   8.482   8.561   0.529 -0.5476 -0.7425 -0.1725
 3565SOL    HW215058   8.486   8.425   0.596  1.5799  0.6096  2.6014
 3566SOL     OW15059   0.870   0.163   8.841  0.0997 -0.6575  0.0309
 3566SOL    HW115060   0.933   0.112   8.892  0.3645 -0.1036  0.2580
 3566SOL    HW215061   0.868   0.248   8.883  1.2705  0.2497 -1.6393
 3567SOL     OW15062   5.371   6.424  11.071 -0.2374 -0.4340  0.4737
 3567SOL    HW115063   5.442   6.414  11.134  2.4677  0.2453 -2.2446
 3567SOL    HW215064   5.399   6.496  11.015 -2.2296 -1.3208 -1.8066
 3568SOL     OW15065   0.972   1.826  10.024 -0.4881 -0.2207 -0.5075
 3568SOL    HW115066   0.926   1.910  10.029 -1.2121 -0.6566  1.1289
 3568SOL    HW215067   0.963   1.798   9.933  0.6661  1.9311 -1.3299
 3569SOL     OW15068  10.416   9.800   5.011  0.1454  0.1471 -0.1059
 3569SOL    HW115069  10.503   9.831   4.985  0.6362  0.0173  1.2950
 3569SOL    HW215070  10.431   9.710   5.041 -0.5103  0.0516 -0.0453
 3570SOL     OW15071   7.079   9.649   9.589 -0.4951  0.4516  0.5303
 3570SOL    HW115072   7.059   9.676   9.499 -2.6306 -0.9993  0.5027
 3570SOL    HW215073   7.162   9.601   9.582 -0.8900 -0.0890 -0.7614
 3571SOL     OW15074   6.530   7.404   8.105 -0.1816  0.2835 -0.2432
 3571SOL    HW115075   6.550   7.315   8.134 -0.1034  0.5200  0.4455
 3571SOL    HW215076   6.595   7.459   8.149 -1.2910  0.8820  0.7066
 3572SOL     OW15077   8.393   4.282   6.788  0.1290  0.2087  0.0538
 3572SOL    HW115078   8.420   4.329   6.867  0.0759  0.7425 -0.2410
 3572SOL    HW215079   8.463   4.299   6.725  0.2994 -0.4310  0.0645
 3573SOL     OW15080   5.046   5.806   1.749  0.1590 -0.2787  0.4790
 3573SOL    HW115081   5.012   5.726   1.710  0.1821 -0.2434  0.3871
 3573SOL    HW215082   5.114   5.776   1.810  0.7044 -0.2815 -0.1200
 3574SOL     OW15083  10.507   4.944  10.382 -0.1559  0.2346  0.0079
 3574SOL    HW115084  10.486   4.936  10.475 -2.3242  0.3028 -0.4206
 3574SOL    HW215085  10.599   4.971  10.381  0.6873 -2.1462  2.0328
 3575SOL     OW15086   9.148   0.925   9.974 -1.0182 -0.3634  0.0601
 3575SOL    HW115087   9.059   0.894   9.991 -1.3852 -0.1856 -1.3973
 3575SOL    HW215088   9.203   0.849   9.993 -1.6755 -1.1147 -0.8948
 3576SOL     OW15089   9.571   3.790   4.523  0.0544  0.3266 -0.1194
 3576SOL    HW115090   9.528   3.875   4.528  1.8878  1.2637  0.6377
 3576SOL    HW215091   9.554   3.759   4.434 -1.5015  0.9957 -0.0736
 3577SOL     OW15092   5.481   6.150   4.943 -0.0270 -0.0619  0.1602
 3577SOL    HW115093   5.509   6.177   5.030  0.4512 -2.3425  0.7744
 3577SOL    HW215094   5.477   6.055   4.947  1.5366 -0.3773 -2.7385
 3578SOL     OW15095   6.473   6.010   4.114 -0.2499  0.5633  0.3377
 3578SOL    HW115096   6.381   6.002   4.086 -0.3317  0.7432  0.5553
 3578SOL    HW215097   6.474   6.087   4.171 -0.2002 -0.1276  1.2967
 3579SOL     OW15098   4.765   9.306   6.143  0.5963  0.3828  0.5741
 3579SOL    HW115099   4.826   9.236   6.164 -0.8838 -1.0184  0.4395
 3579SOL    HW215100   4.785   9.375   6.205  0.0667 -1.3988  2.8405
 3580SOL     OW15101   6.761  10.911  10.400  0.0752  0.0356  0.1349
 3580SOL    HW115102   6.672  10.900  10.366 -0.0703 -0.6719  0.7276
 3580SOL    HW215103   6.802  10.974  10.340 -0.4521 -0.5243 -0.8386
 3581SOL     OW15104  10.272   3.137   3.122 -0.1205 -0.2861 -0.0099
 3581SOL    HW115105  10.189   3.117   3.076 -1.4446  3.9929  0.1130
 3581SOL    HW215106  10.338   3.131   3.053 -1.3055  0.8964 -1.3354
 3582SOL     OW15107   2.783   4.330   6.070  0.2182  0.0254  0.4427
 3582SOL    HW115108   2.692   4.354   6.088 -0.0779 -0.3189 -0.5665
 3582SOL    HW215109   2.792   4.336   5.975  0.8124 -1.4257  0.3706
 3583SOL     OW15110   4.757   2.395   4.545 -0.0841  0.2261  0.0919
 3583SOL    HW115111   4.784   2.321   4.491  2.3976  0.0964  1.4082
 3583SOL    HW215112   4.808   2.469   4.512 -1.0843  0.9330  0.0806
 3584SOL     OW15113   3.089   5.632   9.337 -0.4511  0.2954  1.0241
 3584SOL    HW115114   3.083   5.583   9.419  1.2912 -0.9490  0.4539
 3584SOL    HW215115   3.172   5.606   9.298 -1.0111  1.1970 -0.9432
 3585SOL     OW15116   8.276   2.200   0.313  0.0389 -0.1750 -0.3479
 3585SOL    HW115117   8.229   2.282   0.296  2.0152  0.8158 -1.3104
 3585SOL    HW215118   8.213   2.146   0.360 -1.2153  2.0068  0.6162
 3586SOL     OW15119   1.416   3.243   0.440 -0.0710  0.3813  0.7215
 3586SOL    HW115120   1.437   3.317   0.383  2.6371 -0.6035  0.2958
 3586SOL    HW215121   1.483   3.246   0.509 -1.2889 -0.3857  1.9946
 3587SOL     OW15122   0.680   2.229   9.577  0.0973  0.0134 -0.1644
 3587SOL    HW115123   0.772   2.256   9.568  0.3637 -1.2793 -1.8911
 3587SOL    HW215124   0.683   2.153   9.635  0.1400 -0.1518 -0.3838
 3588SOL     OW15125   6.807   3.877   0.501  0.0462 -0.4195 -0.5292
 3588SOL    HW115126   6.737   3.919   0.452  0.4713 -0.3905 -1.1244
 3588SOL    HW215127   6.794   3.906   0.591 -0.5820 -0.2558 -0.6708
 3589SOL     OW15128   2.746   4.284   8.269 -0.1052  0.0585 -0.0161
 3589SOL    HW115129   2.764   4.194   8.295 -0.6032  0.1102  0.5334
 3589SOL    HW215130   2.680   4.276   8.200 -1.9240  0.0681  1.6410
 3590SOL     OW15131  10.922   0.617   1.340  0.1159  0.1264  0.6757
 3590SOL    HW115132  10.969   0.613   1.424  0.9380 -1.2409  0.1881
 3590SOL    HW215133  10.884   0.529   1.331 -0.0557  0.3011 -0.3332
 3591SOL     OW15134   9.984   7.912   8.631  0.2934 -0.4641  0.2847
 3591SOL    HW115135   9.898   7.949   8.612  0.1138 -0.2961  1.3562
 3591SOL    HW215136   9.967   7.818   8.642  0.0613 -0.2899  1.5012
 3592SOL     OW15137   8.949   1.319   7.339  0.2610  0.1625  0.5292
 3592SOL    HW115138   8.903   1.389   7.386 -0.5685 -0.7214  1.0892
 3592SOL    HW215139   8.978   1.359   7.257 -2.4040  0.5568 -0.3178
 3593SOL     OW15140   5.809   9.411   7.326 -0.3297 -0.2484 -0.1081
 3593SOL    HW115141   5.871   9.477   7.358  1.3927 -0.6035 -2.4087
 3593SOL    HW215142   5.741   9.462   7.281 -0.5102  0.0547  0.4990
 3594SOL     OW15143   3.588   5.943   6.096 -0.8159  0.0525 -0.2691
 3594SOL    HW115144   3.669   5.892   6.103 -0.6579  0.4784  1.6008
 3594SOL    HW215145   3.602   6.000   6.020  0.6479  0.1207  0.0153
 3595SOL     OW15146   2.246   4.016   6.249 -0.7964  0.3264 -0.2756
 3595SOL    HW115147   2.303   3.966   6.190 -2.7552  0.0994 -2.0845
 3595SOL    HW215148   2.305   4.079   6.292  0.9975 -0.7128 -1.1027
 3596SOL     OW15149   4.314   2.303   1.498 -0.2207 -0.2991 -0.6921
 3596SOL    HW115150   4.240   2.247   1.473  0.8171 -1.1566 -2.0292
 3596SOL    HW215151   4.274   2.384   1.528 -1.6940 -0.5476 -1.8701
 3597SOL     OW15152   9.044   8.380   1.389  0.0528  0.2495  0.2552
 3597SOL    HW115153   9.100   8.329   1.447  0.7850  0.9363  0.1672
 3597SOL    HW215154   8.956   8.346   1.404  0.2164  0.4786  1.8201
 3598SOL     OW15155   4.452   5.933   4.577  0.3754  0.3914 -0.0695
 3598SOL    HW115156   4.387   5.896   4.637 -0.1636  0.7028 -0.4482
 3598SOL    HW215157   4.416   5.915   4.490 -0.5177  2.8225 -0.2769
 3599SOL     OW15158   4.465   3.831   7.781 -0.3053 -0.5105 -0.1768
 3599SOL    HW115159   4.393   3.805   7.838  0.1560  0.4131  0.8827
 3599SOL    HW215160   4.472   3.761   7.716 -0.5145 -1.8943  1.2256
 3600SOL     OW15161   4.588   7.738   7.932 -0.4974  0.3576  0.3823
 3600SOL    HW115162   4.576   7.769   7.842 -1.8490  2.2085  1.1475
 3600SOL    HW215163   4.567   7.644   7.927 -0.6085  0.4290 -1.2130
 3601SOL     OW15164   4.542   9.731   2.748 -0.1533 -0.7481  0.4019
 3601SOL    HW115165   4.455   9.733   2.788 -0.8853 -0.2972 -1.1352
 3601SOL    HW215166   4.538   9.795   2.677  1.0203 -1.6137 -0.5075
 3602SOL     OW15167   7.121   5.033   3.489  0.4875  0.3490 -0.4672
 3602SOL    HW115168   7.041   5.085   3.497  1.3289  1.7874 -1.0891
 3602SOL    HW215169   7.164   5.042   3.573  0.6818  0.7616 -0.6078
 3603SOL     OW15170   3.939   1.223   7.664  0.4773 -0.5516  0.2331
 3603SOL    HW115171   3.889   1.269   7.731 -0.5561 -0.4219 -0.5973
 3603SOL    HW215172   4.031   1.235   7.689  0.2440  1.8775  0.0930
 3604SOL     OW15173   5.344   9.882   1.649 -0.3552 -0.3963  0.0589
 3604SOL    HW115174   5.368   9.862   1.559 -1.5296 -0.8729 -0.1551
 3604SOL    HW215175   5.285   9.812   1.675 -0.2905 -0.0890  1.0987
 3605SOL     OW15176   1.081   0.761   7.390  0.6322 -0.0882  0.6416
 3605SOL    HW115177   1.007   0.701   7.396  1.8993 -1.8471 -0.3267
 3605SOL    HW215178   1.121   0.759   7.476  0.9286 -1.0101  0.4878
 3606SOL     OW15179   3.131   6.893   4.939  0.1107 -0.4708 -0.0376
 3606SOL    HW115180   3.226   6.903   4.930 -0.2389  1.6139 -2.4870
 3606SOL    HW215181   3.111   6.814   4.889  0.4376 -0.0479 -0.8716
 3607SOL     OW15182  10.035   5.646   6.149 -1.0563  0.2972 -0.2526
 3607SOL    HW115183  10.099   5.599   6.096  0.0935  1.5453 -0.0216
 3607SOL    HW215184  10.082   5.670   6.229 -2.0205  0.6377  0.2368
 3608SOL     OW15185   0.027  10.590  11.065 -0.2370  0.3565 -0.4312
 3608SOL    HW115186   0.046  10.647  11.140 -0.2007 -0.5831  0.2943
 3608SOL    HW215187   0.070  10.507  11.087 -3.2518 -1.1634  0.2396
 3609SOL     OW15188  10.506   0.185   7.035  0.1032  0.0743 -0.4839
 3609SOL    HW115189  10.550   0.258   7.079 -1.3059  0.3849  0.4699
 3609SOL    HW215190  10.448   0.226   6.972 -2.6369  0.0137  1.8235
 3610SOL     OW15191   3.584   5.251   9.147  0.1481 -0.2743  0.3219
 3610SOL    HW115192   3.595   5.324   9.086 -2.3317 -0.4641 -0.4610
 3610SOL    HW215193   3.586   5.173   9.091  0.5464 -0.6511  0.8572
 3611SOL     OW15194   9.050   8.178   3.629  0.4321  0.1589 -0.2342
 3611SOL    HW115195   8.994   8.221   3.564 -0.1297  0.6934  0.5868
 3611SOL    HW215196   9.139   8.202   3.602  0.2792 -0.5681 -1.4560
 3612SOL     OW15197   5.360   8.468   2.060 -0.2696  0.4517 -0.3017
 3612SOL    HW115198   5.385   8.500   2.146 -0.2093 -1.7816  0.5818
 3612SOL    HW215199   5.443   8.438   2.020 -0.5320 -0.2681 -0.3310
 3613SOL     OW15200   5.380   3.424   6.134  0.0314 -0.1268  0.6587
 3613SOL    HW115201   5.306   3.398   6.188 -1.8560 -0.2149 -1.7599
 3613SOL    HW215202   5.353   3.507   6.094  0.8088 -0.5949 -0.9419
 3614SOL     OW15203   9.873   0.699   4.846  0.7739 -0.6025 -0.5226
 3614SOL    HW115204   9.854   0.612   4.881 -0.2504 -0.6789 -1.2164
 3614SOL    HW215205   9.964   0.715   4.870  0.4972 -1.1694  1.0389
 3615SOL     OW15206  10.362   5.246   8.676  0.5009  0.2095  0.5108
 3615SOL    HW115207  10.377   5.261   8.583 -1.3158 -1.6997 -0.1609
 3615SOL    HW215208  10.448   5.223   8.711  1.1189  0.5057 -0.7793
 3616SOL     OW15209   0.106  10.635   2.452 -0.6311  0.1335 -0.3351
 3616SOL    HW115210   0.190  10.674   2.430  0.7677 -2.2788  0.3632
 3616SOL    HW215211   0.047  10.709   2.463  1.4951  1.9309 -0.4537
 3617SOL     OW15212   8.171   0.014   7.519 -0.1618  0.0026 -0.3371
 3617SOL    HW115213   8.160  -0.024   7.432  1.0855 -2.2499  0.3904
 3617SOL    HW215214   8.253  -0.024   7.551 -1.2082 -0.2273  2.2796
 3618SOL     OW15215   7.740   7.577   1.124 -0.1371  0.1532 -0.5013
 3618SOL    HW115216   7.755   7.484   1.143  1.5497  0.6776  0.9051
 3618SOL    HW215217   7.763   7.586   1.031  0.5508 -0.6552 -0.4211
 3619SOL     OW15218   5.142   9.614   8.462  0.1308 -0.7569 -0.1836
 3619SOL    HW115219   5.124   9.674   8.389  1.2872 -1.9556 -1.5293
 3619SOL    HW215220   5.221   9.567   8.435  0.6864 -1.1408  1.9408
 3620SOL     OW15221   4.144   6.458  10.960  0.2359 -0.6914  0.5021
 3620SOL    HW115222   4.144   6.533  10.901  0.5941 -0.2711  1.0331
 3620SOL    HW215223   4.134   6.382  10.902 -0.2502 -0.2333 -0.0268
 3621SOL     OW15224   6.822   3.189   3.013 -0.4667  0.4501  0.3155
 3621SOL    HW115225   6.791   3.142   2.935 -1.4673  1.0279  0.3569
 3621SOL    HW215226   6.899   3.140   3.041 -0.3567 -0.0291 -0.7769
 3622SOL     OW15227   1.954   4.272   7.581  0.3183 -0.6251  0.2506
 3622SOL    HW115228   1.982   4.227   7.661  0.6792 -1.2806 -0.2299
 3622SOL    HW215229   2.018   4.342   7.568 -0.5880  0.4409  1.3317
 3623SOL     OW15230  11.051   3.967   5.364  0.2603 -0.2442  0.1293
 3623SOL    HW115231  11.045   4.004   5.452 -0.3362 -0.3039  0.1151
 3623SOL    HW215232  11.090   3.880   5.377 -1.6700 -1.1051  0.5870
 3624SOL     OW15233  10.383   8.658   3.793  0.2931  0.1975  0.1360
 3624SOL    HW115234  10.401   8.603   3.717 -0.7107  0.6870 -0.4641
 3624SOL    HW215235  10.289   8.647   3.809  0.4660  0.1978  1.2338
 3625SOL     OW15236   2.700   9.349  10.242  0.5086 -0.3634 -0.2126
 3625SOL    HW115237   2.738   9.289  10.177 -0.4932  0.2138 -1.3660
 3625SOL    HW215238   2.607   9.329  10.241  0.7173 -2.2710  3.1154
 3626SOL     OW15239  10.311   5.118   0.851 -0.1166  0.3786  0.5329
 3626SOL    HW115240  10.249   5.120   0.924  2.1378 -0.0901  2.5580
 3626SOL    HW215241  10.322   5.024   0.832 -0.5931  0.4920 -0.3952
 3627SOL     OW15242   2.229   9.158   0.849 -0.1369  0.3094  0.2425
 3627SOL    HW115243   2.277   9.237   0.873 -1.9397  1.5500 -0.1120
 3627SOL    HW215244   2.161   9.150   0.916 -0.4665 -0.4977 -0.1759
 3628SOL     OW15245   4.098   9.753  10.548  0.0949 -0.4077  0.0049
 3628SOL    HW115246   4.126   9.678  10.496 -1.3208 -0.4094 -0.7917
 3628SOL    HW215247   4.029   9.794  10.496 -0.8249  0.0521  1.5253
 3629SOL     OW15248   1.068  10.313   9.710  0.5937  0.4188 -0.3667
 3629SOL    HW115249   1.115  10.231   9.725  2.0942  1.3974  0.5394
 3629SOL    HW215250   1.073  10.360   9.794 -3.0754  0.1248  0.1924
 3630SOL     OW15251   0.583   4.845   4.625 -0.0974 -0.4311  0.2035
 3630SOL    HW115252   0.493   4.874   4.634  0.3403  0.3786  2.8722
 3630SOL    HW215253   0.593   4.777   4.693  1.8509  1.1258  1.5934
 3631SOL     OW15254   5.051   5.900   7.967 -0.0229 -0.1861  0.0337
 3631SOL    HW115255   5.112   5.955   8.016 -0.5633  0.7453 -0.3000
 3631SOL    HW215256   5.106   5.838   7.920  0.5841 -0.1155  0.6451
 3632SOL     OW15257   6.025   6.423   1.221 -0.6992  0.6024 -0.2635
 3632SOL    HW115258   5.968   6.480   1.273  0.8616  1.1529  0.9324
 3632SOL    HW215259   6.114   6.455   1.239 -0.0112  0.1239 -2.4686
 3633SOL     OW15260   8.373   7.856   5.660  0.1361  0.1333 -0.5103
 3633SOL    HW115261   8.468   7.866   5.647  0.3932  0.7988  1.5759
 3633SOL    HW215262   8.335   7.881   5.576  1.6883  2.5274 -0.5953
 3634SOL     OW15263   5.427   6.881   7.848  0.5598  0.0364 -0.9016
 3634SOL    HW115264   5.474   6.930   7.781  0.7671 -0.0326 -0.8074
 3634SOL    HW215265   5.438   6.933   7.928 -1.4928  1.2736 -1.3319
 3635SOL     OW15266   0.360   2.266   8.237  0.5608 -0.3167 -0.0029
 3635SOL    HW115267   0.389   2.317   8.163 -1.5796 -0.2582 -0.8817
 3635SOL    HW215268   0.321   2.329   8.297  1.8808 -0.4164  0.9989
 3636SOL     OW15269   9.379   7.958   9.791 -0.5436  0.0300 -0.1975
 3636SOL    HW115270   9.402   8.003   9.872  2.4524 -1.0859 -0.2578
 3636SOL    HW215271   9.295   7.995   9.765 -0.4912  2.0943  2.1716
 3637SOL     OW15272   8.073   5.282   5.229  0.5882  0.4836  0.6020
 3637SOL    HW115273   8.021   5.362   5.229  0.4447  0.4519 -1.3913
 3637SOL    HW215274   8.163   5.311   5.247  0.3010  0.8598  1.4907
 3638SOL     OW15275  11.023   1.815   5.298  0.6140 -0.1709  0.5689
 3638SOL    HW115276  10.954   1.838   5.360  1.6332  2.9370  0.7090
 3638SOL    HW215277  10.976   1.797   5.216 -0.5188 -1.1462  1.3941
 3639SOL     OW15278   6.640   6.206   3.558 -0.0040  0.5142  0.3312
 3639SOL    HW115279   6.579   6.279   3.551  0.3719  0.7353 -0.6724
 3639SOL    HW215280   6.679   6.198   3.471  0.3792 -0.5139  0.5828
 3640SOL     OW15281   7.675  10.198   0.273 -0.5160 -0.2486  0.0759
 3640SOL    HW115282   7.658  10.241   0.189 -2.2226 -0.3867  0.3275
 3640SOL    HW215283   7.680  10.270   0.336  0.9906 -0.1260 -0.1391
 3641SOL     OW15284   1.902   9.306   2.996 -0.4940  0.7091  0.3292
 3641SOL    HW115285   1.920   9.213   2.981 -1.4258  0.5480  0.1936
 3641SOL    HW215286   1.988   9.344   3.013 -0.2623 -0.4500  1.9214
 3642SOL     OW15287   8.964   7.147   8.437 -0.7605 -0.4548  0.5656
 3642SOL    HW115288   8.935   7.059   8.415 -1.0932 -0.6637  1.7421
 3642SOL    HW215289   8.898   7.205   8.400 -0.3194 -0.6683 -0.5767
 3643SOL     OW15290   8.857   9.621   4.676  0.1823  0.8314  0.2401
 3643SOL    HW115291   8.780   9.567   4.695 -1.8534  3.6258  0.5983
 3643SOL    HW215292   8.913   9.610   4.753 -0.7178  0.0981  0.8198
 3644SOL     OW15293   7.380   0.230   1.331 -0.0727 -0.1851  0.2584
 3644SOL    HW115294   7.310   0.277   1.376 -0.5347 -0.0759 -0.5539
 3644SOL    HW215295   7.338   0.153   1.294 -0.3256  1.0566 -2.2442
 3645SOL     OW15296  10.129   9.911   4.600 -0.0558 -0.0614 -0.1207
 3645SOL    HW115297  10.163   9.833   4.556  0.2576  0.1122 -0.1907
 3645SOL    HW215298  10.140   9.893   4.693  0.3388  0.0393 -0.1449
 3646SOL     OW15299   5.729   9.770   0.800 -0.1315  0.2447  0.8037
 3646SOL    HW115300   5.822   9.790   0.802 -0.5082  2.4517 -0.5930
 3646SOL    HW215301   5.721   9.699   0.737  0.4993  0.8904 -0.0228
 3647SOL     OW15302  10.363   7.544  10.309 -0.7458  0.4064 -0.3774
 3647SOL    HW115303  10.389   7.479  10.243 -1.7721 -0.7735  0.3582
 3647SOL    HW215304  10.446   7.572  10.347 -0.2975 -0.8076 -0.4025
 3648SOL     OW15305   5.872   7.187  10.985 -0.0052  0.5057  0.2967
 3648SOL    HW115306   5.835   7.167  11.071 -1.0622 -1.8634 -0.6187
 3648SOL    HW215307   5.949   7.241  11.003  1.0812 -1.7113  2.8987
 3649SOL     OW15308   9.976   4.171   9.956 -0.1763 -0.0171 -0.1865
 3649SOL    HW115309   9.926   4.253   9.957 -0.7569 -0.3526 -0.6888
 3649SOL    HW215310   9.920   4.110   9.907 -0.1670 -0.9805  0.9442
 3650SOL     OW15311   0.716   0.464   6.565  0.0035 -0.2177 -0.4040
 3650SOL    HW115312   0.788   0.416   6.606 -0.6754 -0.8833  0.0252
 3650SOL    HW215313   0.682   0.521   6.634 -0.0706 -0.1114 -0.5267
 3651SOL     OW15314   5.827   8.226   7.026 -0.3656  0.1403 -0.4242
 3651SOL    HW115315   5.891   8.155   7.030  0.1992  0.2487 -4.0440
 3651SOL    HW215316   5.745   8.184   7.054  0.5173 -1.0512  0.5247
 3652SOL     OW15317   1.402  10.503   2.185  0.0494 -0.3171  0.1577
 3652SOL    HW115318   1.349  10.505   2.105 -0.7045 -1.6695  0.5840
 3652SOL    HW215319   1.472  10.441   2.165 -1.1539 -2.0469  1.1011
 3653SOL     OW15320   7.916   6.228   9.409  0.3105  0.0552  0.3755
 3653SOL    HW115321   7.965   6.157   9.449 -0.0364 -0.0634  0.5899
 3653SOL    HW215322   7.930   6.303   9.467  1.1352  0.3178 -0.1471
 3654SOL     OW15323   3.572   7.398   9.614  0.4017 -0.4021  0.1045
 3654SOL    HW115324   3.624   7.479   9.620  0.4706 -0.4334 -0.0614
 3654SOL    HW215325   3.542   7.396   9.523  0.0170 -0.3267  0.2315
 3655SOL     OW15326   5.558   6.765   4.551  0.9012 -0.2271  0.2413
 3655SOL    HW115327   5.623   6.755   4.481  0.2324 -3.2745 -0.0921
 3655SOL    HW215328   5.577   6.851   4.589  2.1594  0.9967 -2.7790
 3656SOL     OW15329   4.224   9.835   0.710  0.8243 -0.3707  0.6226
 3656SOL    HW115330   4.268   9.765   0.660  3.0296  1.9616 -0.9806
 3656SOL    HW215331   4.158   9.869   0.650  0.9535  0.0212  0.6990
 3657SOL     OW15332   3.207   9.891   2.322  0.0029 -0.4478 -0.5099
 3657SOL    HW115333   3.206   9.887   2.418  2.3278 -1.3032 -0.4652
 3657SOL    HW215334   3.120   9.925   2.299 -0.5140  0.0639  1.8907
 3658SOL     OW15335   6.458   1.105   5.028 -0.3507 -0.1315 -0.3240
 3658SOL    HW115336   6.526   1.099   5.096 -0.9266 -0.1123  0.2665
 3658SOL    HW215337   6.463   1.196   4.999 -0.9714  0.2285  0.6351
 3659SOL     OW15338   7.213   5.665   5.867 -0.0153 -0.7078  0.0192
 3659SOL    HW115339   7.242   5.621   5.946 -1.3770 -1.0036  0.3816
 3659SOL    HW215340   7.273   5.740   5.858  0.3534 -0.8469  1.1451
 3660SOL     OW15341   8.412   3.699   0.286 -0.9303  0.5835 -0.0690
 3660SOL    HW115342   8.416   3.755   0.364 -2.5012 -0.3332  0.7072
 3660SOL    HW215343   8.340   3.736   0.235 -0.0977  0.9970 -0.9675
 3661SOL     OW15344   1.384   0.580   6.485  0.2099 -0.3871  0.2069
 3661SOL    HW115345   1.416   0.531   6.410 -1.5573  1.2805 -1.7397
 3661SOL    HW215346   1.431   0.663   6.482  0.8856 -0.6721  1.6312
 3662SOL     OW15347   2.791   3.678   6.648 -0.4565  0.0629 -0.2227
 3662SOL    HW115348   2.855   3.705   6.714  0.5538  1.3361 -1.6544
 3662SOL    HW215349   2.753   3.761   6.617 -0.7867 -0.4903 -1.3451
 3663SOL     OW15350   2.527   7.361   2.517  0.5204  0.9012 -0.1243
 3663SOL    HW115351   2.509   7.454   2.508 -2.2797  0.8105  2.6047
 3663SOL    HW215352   2.443   7.323   2.544  1.0386 -2.7771 -2.8667
 3664SOL     OW15353  10.640   7.026  10.087 -0.0134 -0.0809  0.2177
 3664SOL    HW115354  10.693   7.065  10.017 -0.5496  0.5137  0.1378
 3664SOL    HW215355  10.684   7.053  10.167  0.9059 -1.1992  0.1211
 3665SOL     OW15356   0.979   4.232   9.811 -0.4142  0.4375  0.6484
 3665SOL    HW115357   0.966   4.322   9.841 -0.9370  0.2860  0.8837
 3665SOL    HW215358   0.907   4.183   9.850 -1.2817  0.2749 -1.0508
 3666SOL     OW15359   9.442   9.238   2.109  0.7049 -0.1982  0.3628
 3666SOL    HW115360   9.400   9.312   2.065  1.0351  0.5719  1.2899
 3666SOL    HW215361   9.369   9.184   2.140  0.4729 -0.5781 -0.8275
 3667SOL     OW15362   0.535   0.320   8.058 -0.0680 -0.5024 -0.0390
 3667SOL    HW115363   0.508   0.377   7.986  0.3977 -1.0991 -0.7038
 3667SOL    HW215364   0.453   0.289   8.096 -0.3223 -0.7323 -0.7625
 3668SOL     OW15365   9.327   9.311   1.265  0.1798 -0.3653 -0.0138
 3668SOL    HW115366   9.408   9.295   1.217  0.6313 -0.5751  0.7951
 3668SOL    HW215367   9.356   9.331   1.354 -0.6055  0.6872  0.0206
 3669SOL     OW15368   4.538  10.566   7.511  0.2641  0.5097  0.0415
 3669SOL    HW115369   4.520  10.568   7.605  1.0066  0.8580  0.1844
 3669SOL    HW215370   4.520  10.476   7.485 -1.9562  0.8864  0.1001
 3670SOL     OW15371   5.787   7.879   6.094  0.4578  0.1487  0.2893
 3670SOL    HW115372   5.734   7.900   6.171  0.2159 -0.1281  0.2000
 3670SOL    HW215373   5.750   7.797   6.061  0.3094  0.4733 -0.3540
 3671SOL     OW15374   8.799   7.027   9.251 -0.1730  0.0548  0.5562
 3671SOL    HW115375   8.796   7.055   9.343  0.6429  0.3928  0.4862
 3671SOL    HW215376   8.892   7.011   9.234 -0.4899 -1.7555  0.3008
 3672SOL     OW15377   0.006   3.718   4.785 -0.5011  0.3985  0.1753
 3672SOL    HW115378   0.004   3.795   4.728 -0.3419  0.0781 -0.2565
 3672SOL    HW215379   0.052   3.748   4.864  0.3482  0.4989 -0.3502
 3673SOL     OW15380   6.336   9.652   6.411  0.1026  0.4080 -0.1282
 3673SOL    HW115381   6.244   9.672   6.430 -0.0651 -0.1933 -0.3044
 3673SOL    HW215382   6.340   9.557   6.404  0.3530  0.5203 -2.0860
 3674SOL     OW15383   4.705   5.571   9.579 -0.1288  0.3718  0.0001
 3674SOL    HW115384   4.767   5.596   9.511 -0.3526  0.9643  0.0099
 3674SOL    HW215385   4.683   5.653   9.623 -0.2608  0.0444  0.5509
 3675SOL     OW15386   8.819   0.807   0.238  0.2492 -0.1709  0.1046
 3675SOL    HW115387   8.884   0.856   0.188  0.8286  0.8563  1.7725
 3675SOL    HW215388   8.738   0.857   0.227  0.9658  1.6840  2.2930
 3676SOL     OW15389   1.516   2.943   4.689  0.0474  0.1259  0.4526
 3676SOL    HW115390   1.502   2.956   4.783 -0.1985 -0.7128  0.5451
 3676SOL    HW215391   1.577   3.012   4.663  0.6659 -0.0682  1.3737
 3677SOL     OW15392   6.468   0.642   1.798 -0.3896 -0.2447 -0.6109
 3677SOL    HW115393   6.467   0.722   1.745  1.6375  1.0956  1.2009
 3677SOL    HW215394   6.464   0.673   1.889  0.3828 -2.1779  0.1440
 3678SOL     OW15395   2.396   4.628   0.445  0.1151  0.3671  0.2230
 3678SOL    HW115396   2.346   4.699   0.484  0.2726  0.3137  0.5298
 3678SOL    HW215397   2.465   4.671   0.395 -0.5695  0.4483 -0.6545
 3679SOL     OW15398   0.201   4.675   1.451 -0.8344 -0.0841 -0.0658
 3679SOL    HW115399   0.205   4.757   1.401  0.9935  1.3445  2.1778
 3679SOL    HW215400   0.289   4.638   1.442 -1.1984 -1.0301  0.1727
 3680SOL     OW15401   6.805   9.102   6.932  0.1996 -0.2764 -0.0270
 3680SOL    HW115402   6.721   9.070   6.899  0.8772 -0.1227 -2.0552
 3680SOL    HW215403   6.856   9.022   6.949 -0.6980 -0.4282  2.4200
 3681SOL     OW15404   8.863   1.246   6.126 -0.1658  0.5962  0.2500
 3681SOL    HW115405   8.884   1.288   6.042  1.4254 -1.3299 -0.4010
 3681SOL    HW215406   8.910   1.299   6.191  2.4929 -0.4716 -0.6339
 3682SOL     OW15407   1.473   1.867   7.765 -0.2484 -0.2400 -0.8720
 3682SOL    HW115408   1.508   1.949   7.800  1.7928 -1.0363 -0.8636
 3682SOL    HW215409   1.391   1.853   7.812  0.7698  0.3984  1.2014
 3683SOL     OW15410   9.637   4.211   1.879  0.3195 -0.3135  0.1456
 3683SOL    HW115411   9.727   4.209   1.910  0.1792 -1.4765  0.5172
 3683SOL    HW215412   9.639   4.165   1.795  0.0915 -0.2825  0.1211
 3684SOL     OW15413   4.413   6.835   2.712 -0.4640  0.7846  0.1220
 3684SOL    HW115414   4.399   6.853   2.619 -0.0953 -0.6213 -0.2203
 3684SOL    HW215415   4.330   6.796   2.741  0.1057 -0.6933 -0.1399
 3685SOL     OW15416   9.910   6.369   9.483  0.5500  0.0614 -0.1432
 3685SOL    HW115417   9.951   6.298   9.434  0.1724  0.7238 -1.4851
 3685SOL    HW215418   9.863   6.325   9.554 -1.8436 -1.3755 -2.4256
 3686SOL     OW15419   0.015   1.865   6.566 -0.0852 -0.1316 -0.1644
 3686SOL    HW115420   0.059   1.780   6.562 -1.2664 -0.7743 -0.0131
 3686SOL    HW215421   0.075   1.925   6.523  0.5208 -1.1555 -0.7918
 3687SOL     OW15422   3.859   6.274   6.821  0.1158 -0.0694 -0.8051
 3687SOL    HW115423   3.882   6.312   6.736  0.3795  1.1933 -0.2029
 3687SOL    HW215424   3.897   6.335   6.885 -0.4841 -0.7428  0.2210
 3688SOL     OW15425  10.707   3.637   4.215 -0.1083 -0.0986  0.3230
 3688SOL    HW115426  10.631   3.646   4.272 -0.5907 -1.3499 -0.0942
 3688SOL    HW215427  10.761   3.570   4.256  0.4505  0.3011  0.2593
 3689SOL     OW15428   1.414   0.703   6.116 -0.2784  0.0657  0.0938
 3689SOL    HW115429   1.463   0.679   6.037  1.2165  0.7383  0.7766
 3689SOL    HW215430   1.422   0.628   6.174  0.0522  0.2187  0.2489
 3690SOL     OW15431   8.720   5.941   1.158 -0.2598 -0.0976  0.4960
 3690SOL    HW115432   8.674   5.902   1.083 -0.1033 -0.1912  0.4480
 3690SOL    HW215433   8.676   5.903   1.234 -0.7225  0.3497  0.4563
 3691SOL     OW15434   4.763   3.405   8.897 -0.6029  0.0757 -1.0037
 3691SOL    HW115435   4.780   3.430   8.806 -0.7787  0.4562 -0.9327
 3691SOL    HW215436   4.794   3.479   8.949  2.8137 -1.5043 -0.4916
 3692SOL     OW15437   0.361   4.737   8.718  0.0581 -0.1294 -0.2358
 3692SOL    HW115438   0.420   4.695   8.780  0.4158  1.5589  0.6171
 3692SOL    HW215439   0.418   4.786   8.659 -0.4272  1.5877  0.6463
 3693SOL     OW15440   3.188   0.565   6.741 -0.1301 -0.0370 -0.8409
 3693SOL    HW115441   3.152   0.481   6.711  1.6049 -0.5378 -1.6408
 3693SOL    HW215442   3.135   0.631   6.696 -0.0857 -0.7465 -1.9588
 3694SOL     OW15443   9.421   5.501   5.773 -0.2328 -0.2061 -0.4476
 3694SOL    HW115444   9.498   5.546   5.809 -1.1993  0.0618  1.4005
 3694SOL    HW215445   9.357   5.571   5.758 -1.3176 -0.7630  1.3005
 3695SOL     OW15446   4.011   5.016   6.556 -0.2595  0.2427 -0.7066
 3695SOL    HW115447   4.099   5.001   6.591 -0.0787 -0.2666 -1.3544
 3695SOL    HW215448   4.006   5.111   6.544  0.7608  0.1668 -2.0350
 3696SOL     OW15449   2.387   4.611   4.883 -0.0083 -0.3087  0.1549
 3696SOL    HW115450   2.325   4.683   4.874  0.6890  0.1166 -1.7177
 3696SOL    HW215451   2.435   4.631   4.964 -0.3071  0.9353  0.0386
 3697SOL     OW15452   7.194  10.092   4.390 -0.2266 -0.4098 -0.3240
 3697SOL    HW115453   7.224  10.065   4.303  0.0594 -0.6979 -0.1368
 3697SOL    HW215454   7.260  10.155   4.420  0.9518 -2.0330  0.6460
 3698SOL     OW15455   4.642   6.469   3.902 -0.5059 -0.4972 -0.2519
 3698SOL    HW115456   4.660   6.411   3.976 -0.3875 -0.8814 -0.5833
 3698SOL    HW215457   4.653   6.557   3.938  1.8513 -0.6977 -0.3797
 3699SOL     OW15458  10.039   1.438   0.074 -0.4275  0.0316  0.3315
 3699SOL    HW115459  10.037   1.434   0.170  0.6254  1.1105  0.4269
 3699SOL    HW215460  10.089   1.517   0.055  0.9987 -1.1552 -1.1002
 3700SOL     OW15461   1.827   9.957   1.644  0.0021 -0.0616 -0.4291
 3700SOL    HW115462   1.829  10.052   1.632 -1.8546  0.1302  0.4018
 3700SOL    HW215463   1.859   9.921   1.562 -0.2670  1.2757 -1.1384
 3701SOL     OW15464   4.703   1.212   8.511 -0.4825 -0.0524 -0.2980
 3701SOL    HW115465   4.735   1.261   8.587  0.4521 -0.3524 -0.4793
 3701SOL    HW215466   4.719   1.271   8.437 -1.6725  0.3645 -0.2496
 3702SOL     OW15467   4.100   8.128   9.146  0.4816  0.4004  0.3946
 3702SOL    HW115468   4.134   8.214   9.170  0.2164  0.9659 -1.1306
 3702SOL    HW215469   4.010   8.144   9.119 -0.1456 -0.6554  1.7665
 3703SOL     OW15470   4.523   5.413   2.019 -0.2584  0.2856 -0.1965
 3703SOL    HW115471   4.432   5.414   1.989 -0.1566  2.9966 -0.5906
 3703SOL    HW215472   4.558   5.498   1.994  2.3444 -0.5915  0.1673
 3704SOL     OW15473   1.346   6.914   3.614  0.0077  0.2296  0.5134
 3704SOL    HW115474   1.298   6.944   3.692 -0.7860  1.1821 -0.3117
 3704SOL    HW215475   1.302   6.834   3.588 -0.4158  0.4949  0.4128
 3705SOL     OW15476  10.882   2.770   4.231  0.6994 -0.2157  0.2528
 3705SOL    HW115477  10.927   2.689   4.257  0.4028 -1.3265 -2.3875
 3705SOL    HW215478  10.947   2.839   4.247  1.9701 -1.3129  0.0656
 3706SOL     OW15479   2.718   1.057   6.338  0.3242 -0.1591 -0.8026
 3706SOL    HW115480   2.755   0.972   6.313 -2.1874 -1.5303 -0.1587
 3706SOL    HW215481   2.737   1.065   6.431 -0.2802 -0.4575 -0.6565
 3707SOL     OW15482   8.814   8.529   1.153 -0.2964 -0.4686  0.1257
 3707SOL    HW115483   8.769   8.598   1.201  1.1992  0.9176 -0.3478
 3707SOL    HW215484   8.875   8.577   1.096  0.0081 -2.1582 -1.0245
 3708SOL     OW15485   3.896  11.056   1.830 -0.0571 -0.2931  0.1068
 3708SOL    HW115486   3.808  11.019   1.822 -0.1718 -0.9718  3.1908
 3708SOL    HW215487   3.889  11.119   1.902  1.7622  0.4380 -0.2884
 3709SOL     OW15488   9.531   0.769   3.086 -0.1951  0.0610 -0.0418
 3709SOL    HW115489   9.443   0.733   3.088 -0.8654  1.6468  0.4678
 3709SOL    HW215490   9.584   0.700   3.045 -1.1877 -1.9251  1.7599
 3710SOL     OW15491   3.118   9.375   3.790  0.2686  0.0385 -0.4341
 3710SOL    HW115492   3.058   9.360   3.863  0.3697 -1.1595 -0.5813
 3710SOL    HW215493   3.065   9.421   3.725  0.2305  1.3033  0.4487
 3711SOL     OW15494   3.406   7.217   2.311 -0.2009 -0.1938 -0.3363
 3711SOL    HW115495   3.469   7.288   2.296  0.5528 -0.5000  1.2612
 3711SOL    HW215496   3.324   7.262   2.329  0.0807  0.2627 -0.1777
 3712SOL     OW15497   3.329   7.832   8.084 -0.0099 -0.3439  0.0320
 3712SOL    HW115498   3.242   7.871   8.094  0.0135  0.3359 -1.9668
 3712SOL    HW215499   3.346   7.789   8.168 -1.2912  1.4630  1.3034
 3713SOL     OW15500   0.989   5.156   8.226  0.8112  0.2848 -0.6129
 3713SOL    HW115501   0.894   5.153   8.241  0.8244  0.4549 -0.4963
 3713SOL    HW215502   0.998   5.200   8.141  0.6873 -1.5759 -1.6385
 3714SOL     OW15503   3.599   2.213   5.452  0.1077  0.1942  0.1173
 3714SOL    HW115504   3.619   2.176   5.366 -2.3673  1.6391 -1.1886
 3714SOL    HW215505   3.657   2.288   5.460  1.0949 -0.5571  0.2390
 3715SOL     OW15506   6.579   8.914  10.700  0.1269  0.3541  0.4013
 3715SOL    HW115507   6.581   8.994  10.752  2.7511  0.0535  0.9120
 3715SOL    HW215508   6.492   8.877  10.715 -1.1450  3.0553  0.1615
 3716SOL     OW15509   7.286   2.735   1.665 -0.3067  0.2996 -0.0012
 3716SOL    HW115510   7.331   2.651   1.667  0.8891  0.9187 -0.0402
 3716SOL    HW215511   7.312   2.774   1.582  0.8579  1.5782  0.9022
 3717SOL     OW15512   0.160   5.828   2.896  0.7788  0.3641 -0.5417
 3717SOL    HW115513   0.202   5.830   2.810  0.9962 -0.5919 -0.4687
 3717SOL    HW215514   0.233   5.836   2.958  0.6142  1.1426 -0.4381
 3718SOL     OW15515   2.110   7.892   4.623  1.0726 -0.0104 -0.0240
 3718SOL    HW115516   2.186   7.900   4.565  1.6363  0.2305  0.7295
 3718SOL    HW215517   2.075   7.805   4.603  0.8972  0.2966 -1.1367
 3719SOL     OW15518   6.702   3.110   9.869  0.1773 -0.0171 -0.8418
 3719SOL    HW115519   6.783   3.077   9.829 -1.1759 -2.8308 -1.5567
 3719SOL    HW215520   6.712   3.091   9.962  0.0722 -1.1346 -1.0369
 3720SOL     OW15521   1.245   8.033   2.419  0.5645  0.4136 -0.4272
 3720SOL    HW115522   1.314   8.046   2.354  0.2677  0.3080 -0.7704
 3720SOL    HW215523   1.164   8.046   2.370  0.3290 -0.0816 -0.1716
 3721SOL     OW15524   1.298   9.823   9.730  0.1021  0.3210  0.0085
 3721SOL    HW115525   1.334   9.849   9.815  0.0097  1.4833 -0.2860
 3721SOL    HW215526   1.308   9.728   9.727  1.2384  0.3984  0.8005
 3722SOL     OW15527   9.183   9.119   5.271  0.1119  0.1527  0.8579
 3722SOL    HW115528   9.166   9.187   5.206 -1.7381  0.7353  1.8817
 3722SOL    HW215529   9.268   9.083   5.246 -0.6684  0.0378 -2.1340
 3723SOL     OW15530  10.388   1.152   7.133  1.0769 -0.2680  0.0004
 3723SOL    HW115531  10.363   1.076   7.186 -0.5237  0.7042  0.7122
 3723SOL    HW215532  10.322   1.155   7.063  2.5537 -0.9195 -1.4933
 3724SOL     OW15533   9.815  10.749   6.265 -0.1836 -0.4087 -0.2230
 3724SOL    HW115534   9.856  10.813   6.207  0.1192 -0.2785  0.1255
 3724SOL    HW215535   9.833  10.781   6.353 -0.8940 -0.4461 -0.0579
 3725SOL     OW15536   1.949   7.955   5.403  0.4705 -0.0600 -0.2738
 3725SOL    HW115537   1.993   7.871   5.417 -0.7424 -0.6246  0.3009
 3725SOL    HW215538   1.857   7.937   5.423  0.3927  1.7472  1.1764
 3726SOL     OW15539   2.444   4.887   5.742  0.5771 -0.4184 -0.1127
 3726SOL    HW115540   2.364   4.869   5.792  0.4618  0.6903  0.1053
 3726SOL    HW215541   2.511   4.834   5.785 -0.2295 -2.2211 -0.9503
 3727SOL     OW15542   3.038  10.647   2.463 -0.0487  0.1333  0.0678
 3727SOL    HW115543   3.088  10.573   2.429  1.2017  0.4812  1.0878
 3727SOL    HW215544   2.993  10.682   2.386 -0.0748 -1.2149 -0.5660
 3728SOL     OW15545   7.762   4.805   7.338 -0.4750 -0.5972  0.1451
 3728SOL    HW115546   7.671   4.778   7.349 -0.2775 -1.3660 -0.0346
 3728SOL    HW215547   7.804   4.731   7.295  0.5766 -0.8642  1.5504
 3729SOL     OW15548   7.354   2.661   7.659 -0.1339  0.3600 -0.1529
 3729SOL    HW115549   7.439   2.705   7.652 -0.6722  1.4566 -0.0939
 3729SOL    HW215550   7.343   2.642   7.752 -0.4186  1.2247  0.0039
 3730SOL     OW15551   2.891   4.664   5.861  0.0187  0.0210  0.0457
 3730SOL    HW115552   2.978   4.703   5.852  0.0249  0.8441  2.9160
 3730SOL    HW215553   2.886   4.635   5.952 -2.6337 -0.2511 -0.1087
 3731SOL     OW15554   8.029   2.033   8.225 -0.3340  0.4086  0.2499
 3731SOL    HW115555   7.987   2.110   8.187  0.8474  0.6704 -0.5743
 3731SOL    HW215556   7.964   1.964   8.218 -1.5700  1.3978  1.3787
 3732SOL     OW15557   2.331   5.364   9.254 -0.7787 -0.1663  0.4683
 3732SOL    HW115558   2.299   5.284   9.212 -0.8671 -0.1250  0.4550
 3732SOL    HW215559   2.262   5.387   9.316 -2.5048  1.8260 -1.9588
 3733SOL     OW15560   7.556   7.860   4.511  0.3091 -0.7530  0.0850
 3733SOL    HW115561   7.502   7.786   4.536 -0.6808  0.2753  1.1261
 3733SOL    HW215562   7.567   7.852   4.417 -0.6464 -1.6437  0.0435
 3734SOL     OW15563   6.670   2.011   3.796 -0.3396  0.2780 -0.0455
 3734SOL    HW115564   6.733   2.082   3.792 -0.4352  0.3706  0.0847
 3734SOL    HW215565   6.718   1.939   3.839 -0.1162  0.1259 -0.5428
 3735SOL     OW15566   2.864   1.805   7.356 -0.1724 -0.1765  0.0004
 3735SOL    HW115567   2.951   1.826   7.389  0.5517 -1.2339 -1.1647
 3735SOL    HW215568   2.879   1.742   7.286 -1.8815 -0.4078 -0.2058
 3736SOL     OW15569   7.390   2.421   8.735  0.2504  1.1367 -0.0032
 3736SOL    HW115570   7.375   2.346   8.793  0.2504  1.7331  0.7851
 3736SOL    HW215571   7.485   2.425   8.726  0.1789 -0.4203 -2.0324
 3737SOL     OW15572   5.614   7.545   6.332  0.1064  0.2917 -0.0064
 3737SOL    HW115573   5.620   7.504   6.418 -1.3004  0.4633  0.1848
 3737SOL    HW215574   5.578   7.477   6.275  3.0006 -0.5724 -1.0356
 3738SOL     OW15575   4.505   6.041   6.913  0.6454  0.6845  0.5698
 3738SOL    HW115576   4.528   5.975   6.978 -1.2738  1.1082  1.7412
 3738SOL    HW215577   4.555   6.016   6.835  0.7173 -1.5929  1.2769
 3739SOL     OW15578   5.749   5.401   5.960 -0.2911  0.7852 -0.0031
 3739SOL    HW115579   5.691   5.324   5.963  0.2732  0.3510 -0.0710
 3739SOL    HW215580   5.700   5.470   6.005 -0.1279 -0.0628  1.5029
 3740SOL     OW15581   6.219   3.007   4.852 -0.1265  0.1090  0.6449
 3740SOL    HW115582   6.221   2.912   4.857 -2.2872  0.0553  2.3920
 3740SOL    HW215583   6.171   3.025   4.771  0.8534 -0.2476 -0.0286
 3741SOL     OW15584   1.722   9.472   7.367 -0.5054 -0.3183 -0.2907
 3741SOL    HW115585   1.783   9.520   7.423 -0.0393  0.9524 -1.8051
 3741SOL    HW215586   1.775   9.447   7.291 -2.0144  1.5250 -2.0232
 3742SOL     OW15587   7.733   1.115   3.682 -0.1877  0.5084 -0.4089
 3742SOL    HW115588   7.708   1.195   3.727 -0.1472  0.0419  0.4632
 3742SOL    HW215589   7.650   1.076   3.654 -0.3969 -0.3828  1.3454
 3743SOL     OW15590   7.593   8.653   8.349  0.7562 -0.4960 -0.0043
 3743SOL    HW115591   7.587   8.704   8.430  1.4755 -1.8545  0.9370
 3743SOL    HW215592   7.682   8.669   8.317  0.1710  0.8057 -1.0910
 3744SOL     OW15593   1.769   4.236   0.570 -0.4119  0.2429  0.1870
 3744SOL    HW115594   1.832   4.287   0.519 -2.0219  0.6530 -1.5275
 3744SOL    HW215595   1.760   4.284   0.652 -1.8100  2.8249 -1.3225
 3745SOL     OW15596   5.374   7.852   8.534 -0.2479  0.2528 -0.4612
 3745SOL    HW115597   5.435   7.871   8.605 -0.0561  1.4842 -0.9323
 3745SOL    HW215598   5.429   7.845   8.456 -0.4955 -0.7226 -0.5566
 3746SOL     OW15599   3.882   3.255   2.140 -1.0163  0.3524 -0.5282
 3746SOL    HW115600   3.938   3.225   2.213 -0.6559  1.3200 -0.3913
 3746SOL    HW215601   3.800   3.207   2.152 -0.8014  0.1619  0.2502
 3747SOL     OW15602   1.637  10.679   9.177  0.1891  0.1159 -0.4402
 3747SOL    HW115603   1.573  10.649   9.241  0.0748  1.3910  0.0797
 3747SOL    HW215604   1.721  10.676   9.223  0.4904 -1.3010 -1.0367
 3748SOL     OW15605   5.092   1.779   9.770  0.4046 -0.3317 -0.0158
 3748SOL    HW115606   5.089   1.830   9.852 -0.0162  0.9201 -0.7821
 3748SOL    HW215607   5.010   1.801   9.725  1.3761  0.3345 -1.5355
 3749SOL     OW15608   8.372  10.524   6.073  0.1360  0.4377 -0.3590
 3749SOL    HW115609   8.347  10.607   6.034 -0.3038 -0.1288 -1.3008
 3749SOL    HW215610   8.317  10.516   6.150 -2.2074 -0.4847 -2.0313
 3750SOL     OW15611   0.261   6.384   4.452 -0.8049 -0.5293  0.8806
 3750SOL    HW115612   0.202   6.355   4.383 -0.1140 -2.0907  0.9075
 3750SOL    HW215613   0.215   6.457   4.494 -1.6531 -0.1749 -0.5925
 3751SOL     OW15614   4.149   2.901   3.115  0.1613  0.1565  0.0991
 3751SOL    HW115615   4.133   2.900   3.209  2.3925 -1.0158  0.5535
 3751SOL    HW215616   4.063   2.913   3.075 -0.9606 -0.3193  2.2573
 3752SOL     OW15617  10.334   3.654   9.983  0.6194 -0.1454 -0.2788
 3752SOL    HW115618  10.382   3.716  10.038  0.2048  0.9554 -1.1274
 3752SOL    HW215619  10.300   3.707   9.911 -1.5069 -0.9853  0.0560
 3753SOL     OW15620   8.914   9.100   3.199 -1.1314  0.0552  0.0142
 3753SOL    HW115621   8.882   9.156   3.129  2.3674  3.0240  0.4179
 3753SOL    HW215622   8.968   9.034   3.155 -0.5649  0.6794 -0.2548
 3754SOL     OW15623   1.191   6.469   9.599  0.5125  0.2668 -0.5565
 3754SOL    HW115624   1.142   6.436   9.524  1.2295 -0.1388 -0.8577
 3754SOL    HW215625   1.126   6.517   9.651  0.4557  2.5631 -2.5831
 3755SOL     OW15626  10.155   4.924   0.708  0.2650 -0.0866 -1.0688
 3755SOL    HW115627  10.105   4.949   0.630 -0.1912 -0.6570 -0.9705
 3755SOL    HW215628  10.208   4.850   0.679 -0.0793 -0.4500 -0.7806
 3756SOL     OW15629   7.863   1.594   8.894 -0.0346  0.2331 -0.4109
 3756SOL    HW115630   7.834   1.535   8.825  1.8345 -1.1110 -0.1375
 3756SOL    HW215631   7.814   1.567   8.972 -3.1372  2.5990 -1.3343
 3757SOL     OW15632   2.071   5.854   0.404  0.5540  0.1418  0.7317
 3757SOL    HW115633   2.033   5.936   0.434  0.3129 -0.5418  2.4393
 3757SOL    HW215634   2.002   5.814   0.350  0.9295  1.3223 -0.7006
 3758SOL     OW15635   4.713   0.948   2.779 -0.0534  0.1475  0.4180
 3758SOL    HW115636   4.808   0.951   2.769  0.2053 -0.7414  2.2676
 3758SOL    HW215637   4.689   0.858   2.758 -0.6681  0.6446 -1.1569
 3759SOL     OW15638   8.018   7.378   1.468 -0.4694  0.3092 -0.4820
 3759SOL    HW115639   8.106   7.362   1.502 -0.6089  1.5805  0.5579
 3759SOL    HW215640   7.961   7.369   1.545 -1.3521 -1.1788 -1.2716
 3760SOL     OW15641   3.720   3.896   4.647  0.0052 -0.3556  0.5195
 3760SOL    HW115642   3.627   3.902   4.671 -0.1150  1.1385 -0.2263
 3760SOL    HW215643   3.732   3.804   4.622 -1.5932 -0.2961 -0.6229
 3761SOL     OW15644   3.669   8.846   3.216  0.1940  0.3222 -0.1574
 3761SOL    HW115645   3.726   8.798   3.156  1.5769 -0.2045  1.4912
 3761SOL    HW215646   3.711   8.931   3.225  0.9621 -0.1804  1.3164
 3762SOL     OW15647   1.839   6.726   8.222 -0.0433  0.2265 -0.1320
 3762SOL    HW115648   1.801   6.804   8.263  0.4293  0.4622 -0.1292
 3762SOL    HW215649   1.864   6.754   8.134 -0.1097  0.0064 -0.2225
 3763SOL     OW15650   7.069   5.459   2.510  0.2413  0.4735 -0.1322
 3763SOL    HW115651   7.034   5.429   2.594  2.2864  0.4891  0.7890
 3763SOL    HW215652   6.994   5.500   2.466 -0.2913  3.2870  2.9943
 3764SOL     OW15653   9.806   0.244   5.797 -0.4376  0.2073  0.2092
 3764SOL    HW115654   9.767   0.170   5.843  1.1424 -0.7416  0.0947
 3764SOL    HW215655   9.744   0.265   5.728 -1.3829 -0.3385  0.8653
 3765SOL     OW15656  10.843   8.642   9.475 -0.1971  0.7606 -0.6023
 3765SOL    HW115657  10.832   8.662   9.382  0.8512  1.0294 -0.6876
 3765SOL    HW215658  10.901   8.566   9.476 -2.9414 -1.5070 -0.2332
 3766SOL     OW15659   7.485   9.461   8.776 -0.7774 -0.1830  0.1873
 3766SOL    HW115660   7.445   9.547   8.781 -0.3813  0.0607 -0.6031
 3766SOL    HW215661   7.414   9.400   8.795 -0.7710  0.3350  2.1453
 3767SOL     OW15662   7.488  10.650   0.441 -0.8640  0.0814 -0.0655
 3767SOL    HW115663   7.568  10.698   0.464 -0.7278 -0.3968  0.4751
 3767SOL    HW215664   7.517  10.559   0.430 -0.9152  0.2577 -2.1159
 3768SOL     OW15665   5.491   6.314   2.694 -0.1065 -0.1379 -0.5012
 3768SOL    HW115666   5.424   6.339   2.758 -0.2407  0.4385 -0.8546
 3768SOL    HW215667   5.452   6.334   2.609  0.7614  0.8662 -0.6861
 3769SOL     OW15668   8.980   1.081  10.932  0.7334  0.4071 -0.3089
 3769SOL    HW115669   8.895   1.037  10.933  0.9233 -0.0626  1.8491
 3769SOL    HW215670   8.962   1.166  10.973  1.4896 -0.1990  1.3589
 3770SOL     OW15671  10.940   9.454  10.528 -0.2252 -0.5798  0.0423
 3770SOL    HW115672  11.005   9.384  10.518  1.1012  0.6955 -0.6506
 3770SOL    HW215673  10.958   9.491  10.614 -1.2805 -1.4016  0.6387
 3771SOL     OW15674   8.256   2.859   9.496  0.1345 -0.4108 -0.3667
 3771SOL    HW115675   8.163   2.838   9.498 -0.5976  2.3164 -1.2904
 3771SOL    HW215676   8.260   2.954   9.509  2.8625 -0.5486  0.5760
 3772SOL     OW15677   5.416  10.949  10.939  0.2579 -0.5116 -0.2705
 3772SOL    HW115678   5.483  10.909  10.995  0.0039 -0.5704 -0.0094
 3772SOL    HW215679   5.434  10.913  10.852 -0.0755 -1.3411 -0.0120
 3773SOL     OW15680   7.282   7.003   6.408  0.5481 -0.1123 -0.7733
 3773SOL    HW115681   7.211   7.045   6.457 -0.6674 -2.1827 -0.6342
 3773SOL    HW215682   7.261   7.021   6.316  0.7476  0.6164 -0.6828
 3774SOL     OW15683   1.536   4.542   7.676 -0.4652  0.4446 -0.2126
 3774SOL    HW115684   1.472   4.498   7.620 -1.1826  0.9581  0.1965
 3774SOL    HW215685   1.530   4.634   7.653 -0.3137  0.5789  0.2722
 3775SOL     OW15686   7.372   6.100   2.519  0.2674 -0.3921 -0.1071
 3775SOL    HW115687   7.356   6.149   2.599  1.8216 -0.5531  0.3354
 3775SOL    HW215688   7.462   6.121   2.495  0.3052 -1.4637 -1.0123
 3776SOL     OW15689   7.782   6.684   5.306  0.1224 -0.0190  0.1990
 3776SOL    HW115690   7.850   6.619   5.326 -1.0156 -1.1252  0.6216
 3776SOL    HW215691   7.736   6.648   5.231 -1.5213 -0.5222  1.3989
 3777SOL     OW15692   1.347   4.206   1.526 -0.0589  0.3078 -0.0397
 3777SOL    HW115693   1.335   4.192   1.432 -1.5558  0.2799  0.1332
 3777SOL    HW215694   1.296   4.136   1.568  1.6702 -0.5129  0.8179
 3778SOL     OW15695   6.031  10.312   8.650 -0.0907 -0.1234 -0.2861
 3778SOL    HW115696   6.095  10.285   8.584 -2.3239 -0.9945 -2.2232
 3778SOL    HW215697   6.017  10.234   8.703 -0.6324 -0.3799 -0.8029
 3779SOL     OW15698   9.807   5.445   7.511 -0.0046  0.4809 -0.7521
 3779SOL    HW115699   9.882   5.405   7.467 -0.1956 -0.2552 -0.4218
 3779SOL    HW215700   9.757   5.485   7.440  0.0584 -0.0934 -1.1321
 3780SOL     OW15701   9.245   2.114   6.385  0.0552 -0.1770  0.1210
 3780SOL    HW115702   9.325   2.063   6.371  0.5916  0.9390 -1.1537
 3780SOL    HW215703   9.206   2.076   6.464  0.5759 -2.3312 -0.5718
 3781SOL     OW15704   0.057   2.246   3.157 -0.1802 -0.4335  0.3721
 3781SOL    HW115705   0.069   2.158   3.121 -1.1637 -0.2393 -0.4792
 3781SOL    HW215706  -0.034   2.247   3.188 -0.0565  0.1676  0.7322
 3782SOL     OW15707   8.895   8.690   7.388  0.4662  0.0820 -0.4025
 3782SOL    HW115708   8.871   8.687   7.481  2.4131  3.1902  0.3581
 3782SOL    HW215709   8.845   8.619   7.348 -1.0953 -0.8536  2.8531
 3783SOL     OW15710   0.639   4.264   8.385 -0.0784 -0.8060 -0.4991
 3783SOL    HW115711   0.641   4.351   8.426 -1.4840 -1.5776  1.3632
 3783SOL    HW215712   0.560   4.264   8.332 -0.2525 -1.0360 -0.2450
 3784SOL     OW15713   4.271   7.369  10.870 -0.1167  0.1388  0.0868
 3784SOL    HW115714   4.329   7.430  10.824 -1.3141  1.4914  0.3038
 3784SOL    HW215715   4.326   7.293  10.889  0.9411  0.3729 -1.7951
 3785SOL     OW15716   9.441   1.873   8.731 -0.5565 -0.8086  0.0784
 3785SOL    HW115717   9.451   1.927   8.810  0.2299 -1.0455  0.1515
 3785SOL    HW215718   9.412   1.934   8.664  1.6574  0.0347 -0.2082
 3786SOL     OW15719   2.750   7.718   2.463 -0.2350 -0.2469 -0.6808
 3786SOL    HW115720   2.824   7.657   2.470  0.6299  0.7748 -0.5410
 3786SOL    HW215721   2.747   7.761   2.548  0.4906  1.3328 -1.3978
 3787SOL     OW15722   3.851  10.280   6.704  0.3449  0.8364 -0.1130
 3787SOL    HW115723   3.779  10.332   6.740 -1.3755 -1.2886 -0.3361
 3787SOL    HW215724   3.911  10.346   6.668 -1.7010  2.6906 -0.3757
 3788SOL     OW15725  10.507   0.465   7.978 -0.4789 -0.2084 -0.2107
 3788SOL    HW115726  10.450   0.486   8.052 -0.8299 -3.8655  0.7183
 3788SOL    HW215727  10.470   0.386   7.940  0.1098  1.1290 -3.9716
 3789SOL     OW15728   6.742   8.531   2.847  0.2506 -0.1596 -0.0616
 3789SOL    HW115729   6.801   8.458   2.829 -2.1197 -1.5790 -3.1268
 3789SOL    HW215730   6.751   8.589   2.771  0.2552  1.4676  1.1303
 3790SOL     OW15731   8.746   0.407   9.223 -0.0752  0.0841  0.3765
 3790SOL    HW115732   8.669   0.367   9.183  1.2423 -1.9604 -0.2860
 3790SOL    HW215733   8.775   0.342   9.287  1.7188  0.3142 -0.1703
 3791SOL     OW15734   5.946   6.530   8.614  0.9790 -0.1866 -0.2268
 3791SOL    HW115735   5.952   6.584   8.535  0.2451 -1.3313 -1.1053
 3791SOL    HW215736   5.886   6.578   8.671  0.4450 -0.0066 -0.9278
 3792SOL     OW15737   7.457   1.254   4.969 -0.2023 -0.2027 -0.0514
 3792SOL    HW115738   7.430   1.323   5.030 -0.3818 -0.1546 -0.1826
 3792SOL    HW215739   7.540   1.222   5.004 -1.1871 -1.4533  1.2463
 3793SOL     OW15740   4.836   7.990  10.305  0.4251 -0.1522 -0.4511
 3793SOL    HW115741   4.758   8.006  10.358  1.3704 -0.6986  1.1527
 3793SOL    HW215742   4.893   7.936  10.360  1.7227 -0.2203 -1.7857
 3794SOL     OW15743   2.462   4.834   1.655  0.0590  0.2720 -0.0690
 3794SOL    HW115744   2.384   4.881   1.626 -1.2522 -0.1855  2.3988
 3794SOL    HW215745   2.430   4.776   1.725  2.2406 -1.5812 -0.5008
 3795SOL     OW15746   5.530   3.101   4.989  0.1908  0.4392 -0.8625
 3795SOL    HW115747   5.531   3.176   5.048  0.1721 -0.3542  0.1745
 3795SOL    HW215748   5.621   3.072   4.986  0.0207 -0.1553 -0.3871
 3796SOL     OW15749   0.381   3.630   8.503 -0.1646  0.1688  0.0946
 3796SOL    HW115750   0.292   3.658   8.522 -0.0159  0.5354  0.2619
 3796SOL    HW215751   0.384   3.620   8.408 -0.8203 -1.3532  0.2091
 3797SOL     OW15752   0.486   6.090   9.212 -0.0510  0.4820  0.4364
 3797SOL    HW115753   0.446   6.154   9.271 -0.5175  0.3857  0.2241
 3797SOL    HW215754   0.563   6.058   9.260  0.7737  1.9363  0.1404
 3798SOL     OW15755   7.281   7.876   7.634 -0.3372  0.1538 -0.6667
 3798SOL    HW115756   7.296   7.783   7.619 -0.3374  0.3844 -2.2599
 3798SOL    HW215757   7.308   7.919   7.553  0.5976  1.6592  0.3769
 3799SOL     OW15758   8.179   6.070   7.886 -0.1022  0.0026 -0.3577
 3799SOL    HW115759   8.260   6.021   7.876 -0.4140 -0.3177 -1.4367
 3799SOL    HW215760   8.134   6.061   7.802 -1.7560 -0.7388  0.5381
 3800SOL     OW15761   0.596   2.047   1.082  0.3997 -0.1403 -0.0016
 3800SOL    HW115762   0.650   2.015   1.153 -0.5618 -0.4102  0.6250
 3800SOL    HW215763   0.573   1.968   1.032  0.6194 -0.0201 -0.2962
 3801SOL     OW15764   7.030   7.575   0.709 -0.1991 -0.1368  0.5486
 3801SOL    HW115765   6.950   7.620   0.734 -0.1851  1.4163 -1.8905
 3801SOL    HW215766   7.100   7.625   0.751 -0.3590  0.4008  0.1922
 3802SOL     OW15767   7.599   6.395   9.579  0.6603  0.1915  0.6897
 3802SOL    HW115768   7.596   6.476   9.630 -0.4053  0.7240 -0.1686
 3802SOL    HW215769   7.615   6.424   9.489 -2.6654 -0.2431 -0.1519
 3803SOL     OW15770   1.259   3.181   6.750  0.8317 -0.0557 -0.6310
 3803SOL    HW115771   1.354   3.173   6.755  0.8160  0.5104  2.0280
 3803SOL    HW215772   1.244   3.272   6.725  1.0116  0.2199  0.2346
 3804SOL     OW15773   8.505  10.067   7.500  0.7563 -0.0815  0.5360
 3804SOL    HW115774   8.461   9.982   7.493  2.5899 -1.0705  0.3646
 3804SOL    HW215775   8.440  10.125   7.540 -2.2458 -0.2704 -3.4121
 3805SOL     OW15776   1.598   2.953   5.908 -0.3173  0.2644  0.2522
 3805SOL    HW115777   1.601   2.901   5.828 -4.0183  0.5998 -0.3037
 3805SOL    HW215778   1.646   2.902   5.973  2.1008 -0.3967 -1.9149
 3806SOL     OW15779   7.265   0.138   5.141 -0.4391 -0.5596 -0.0208
 3806SOL    HW115780   7.265   0.132   5.046  2.2377 -0.4306 -0.1042
 3806SOL    HW215781   7.247   0.230   5.159  0.3401 -0.3007 -0.4928
 3807SOL     OW15782   0.433   0.590   5.219  0.0198  0.0410  0.1112
 3807SOL    HW115783   0.430   0.572   5.313  0.0991 -0.0803  0.0910
 3807SOL    HW215784   0.492   0.523   5.184  0.3118  0.3404  0.0313
 3808SOL     OW15785   7.737   1.676   3.672 -0.5120 -0.5603  0.1411
 3808SOL    HW115786   7.821   1.632   3.679 -0.8110 -1.2584 -0.5263
 3808SOL    HW215787   7.681   1.615   3.624 -0.5989  0.9866 -1.9086
 3809SOL     OW15788   2.359   9.214   1.807 -0.4027 -0.5539 -0.1574
 3809SOL    HW115789   2.374   9.124   1.778  0.8717 -0.4109  0.0103
 3809SOL    HW215790   2.309   9.253   1.736 -0.6336 -1.2867 -0.4115
 3810SOL     OW15791   4.711   7.130   9.872 -0.2264  0.0887 -0.4498
 3810SOL    HW115792   4.624   7.164   9.891  0.4490  0.9943  1.1898
 3810SOL    HW215793   4.771   7.184   9.923  1.3801 -0.1303 -1.9662
 3811SOL     OW15794   2.617   2.432   4.741 -0.8616 -0.3676 -0.1343
 3811SOL    HW115795   2.667   2.463   4.816  0.0317 -2.6157  0.2972
 3811SOL    HW215796   2.624   2.336   4.746 -0.6368 -0.5954 -3.1732
 3812SOL     OW15797   9.060   9.175   3.459 -0.1183 -0.2464 -0.5135
 3812SOL    HW115798   9.054   9.177   3.364 -0.7642 -0.4326 -0.4841
 3812SOL    HW215799   8.984   9.224   3.490 -0.2860 -0.7512 -0.0941
 3813SOL     OW15800   3.625  11.113   8.301 -0.3136  0.2042 -0.3387
 3813SOL    HW115801   3.695  11.100   8.365  1.1947 -0.1451 -2.0168
 3813SOL    HW215802   3.549  11.071   8.341  0.4315  0.4761  1.4657
 3814SOL     OW15803   0.594   5.593   1.355 -0.1431  0.2013  1.2910
 3814SOL    HW115804   0.504   5.589   1.386 -0.1730  0.0091  1.1801
 3814SOL    HW215805   0.586   5.614   1.262 -0.0163  2.2962  1.7140
 3815SOL     OW15806   0.919   3.691   2.780  0.2883  0.5694 -0.5365
 3815SOL    HW115807   0.885   3.667   2.694  0.7206  1.3326 -0.9262
 3815SOL    HW215808   0.840   3.708   2.833  0.0368  1.4306 -1.1723
 3816SOL     OW15809   0.011   7.247   4.952 -0.4606  0.4923  0.0020
 3816SOL    HW115810  -0.066   7.190   4.964 -0.8155  0.4852 -2.0576
 3816SOL    HW215811  -0.025   7.332   4.928  0.1378  0.0269 -2.8374
 3817SOL     OW15812   9.642   5.784   6.647  0.2688 -0.0359 -0.5306
 3817SOL    HW115813   9.625   5.870   6.686  0.1899  0.1793 -1.0259
 3817SOL    HW215814   9.736   5.770   6.659  0.4938  0.6220 -1.4268
 3818SOL     OW15815   8.531   8.599   5.434  0.1063 -0.7302 -0.2597
 3818SOL    HW115816   8.615   8.639   5.409 -0.0510 -1.2254 -1.6965
 3818SOL    HW215817   8.555   8.529   5.494  0.9275 -1.9508 -1.9237
 3819SOL     OW15818   2.459  10.325   5.276 -0.3825 -0.4167  0.0322
 3819SOL    HW115819   2.515  10.385   5.326 -1.1201  0.0593  0.3030
 3819SOL    HW215820   2.521  10.270   5.227  0.4107 -1.4747  2.0958
 3820SOL     OW15821   8.405   7.996   8.066 -0.0426 -0.0025 -0.1299
 3820SOL    HW115822   8.470   7.982   7.996 -0.5100 -3.2931 -0.0600
 3820SOL    HW215823   8.450   7.970   8.146 -0.5864  0.4654  0.3396
 3821SOL     OW15824   5.266   3.664   4.357 -0.0838  0.1218  0.1300
 3821SOL    HW115825   5.270   3.667   4.452 -0.6564 -0.2833  0.1725
 3821SOL    HW215826   5.334   3.602   4.332  1.0329  1.2785  0.1770
 3822SOL     OW15827   4.857   8.724   0.281 -0.0354 -0.3241  0.2009
 3822SOL    HW115828   4.918   8.798   0.281  0.1512 -0.3858  2.4896
 3822SOL    HW215829   4.913   8.647   0.288 -0.2864 -0.3954  2.0644
 3823SOL     OW15830   0.189   0.068  10.743  0.2792  0.2653  0.2223
 3823SOL    HW115831   0.251   0.006  10.703 -0.8941 -0.7113 -0.1373
 3823SOL    HW215832   0.150   0.021  10.816 -2.4081 -0.3795 -1.5035
 3824SOL     OW15833   7.143   6.140   7.675 -0.3128 -0.2759 -0.2333
 3824SOL    HW115834   7.160   6.115   7.584 -1.0119 -0.1223 -0.4181
 3824SOL    HW215835   7.107   6.229   7.668  0.8165  0.2323  0.2983
 3825SOL     OW15836  10.576  10.223   0.368  0.3473  0.6015 -0.6317
 3825SOL    HW115837  10.578  10.129   0.388  0.3184  0.0495 -2.9766
 3825SOL    HW215838  10.665  10.253   0.385  0.6167 -0.0710 -0.8324
 3826SOL     OW15839   1.985   9.962   9.498 -0.1454  0.1286 -1.1265
 3826SOL    HW115840   1.976   9.868   9.514  0.9355  0.3885  1.5387
 3826SOL    HW215841   2.055   9.968   9.432  1.8506 -0.9504  0.7373
 3827SOL     OW15842   6.506   9.443   0.113 -0.0281  0.1530 -0.1196
 3827SOL    HW115843   6.518   9.514   0.049 -2.3034 -0.6110 -1.5284
 3827SOL    HW215844   6.567   9.375   0.085  1.3983  1.0859  0.5983
 3828SOL     OW15845   8.088   4.204   5.975  0.7126 -0.5539 -1.0617
 3828SOL    HW115846   8.123   4.131   6.027  1.5175  0.0712 -0.7127
 3828SOL    HW215847   8.112   4.282   6.024 -0.5861 -0.0600 -1.1784
 3829SOL     OW15848   1.098   2.365   3.253  0.2606 -0.3202 -0.7611
 3829SOL    HW115849   1.059   2.414   3.325  1.3806 -1.6310  0.8189
 3829SOL    HW215850   1.040   2.291   3.240  1.0960 -1.1854  0.2304
 3830SOL     OW15851   9.188   1.178  10.100 -0.7600  0.1117 -0.5017
 3830SOL    HW115852   9.165   1.103  10.045  1.7548  0.2045 -1.7795
 3830SOL    HW215853   9.157   1.254  10.051 -0.6852  0.0727 -0.6077
 3831SOL     OW15854   8.631   1.671   4.257  0.2935 -0.0767  0.3850
 3831SOL    HW115855   8.688   1.603   4.220  1.3061  0.1100  1.5406
 3831SOL    HW215856   8.685   1.715   4.323 -0.8787  0.7603  0.8272
 3832SOL     OW15857   2.262   7.455  11.038  0.6457 -0.2703  0.1541
 3832SOL    HW115858   2.318   7.501  11.101  0.0746  0.8518 -0.1352
 3832SOL    HW215859   2.323   7.401  10.988  1.4323  0.5852  0.1465
 3833SOL     OW15860   9.232   9.038   8.352 -0.1490 -0.4745 -0.1359
 3833SOL    HW115861   9.203   9.129   8.341  0.2970 -0.2019  0.7848
 3833SOL    HW215862   9.281   9.018   8.273  2.6061  1.2154  0.9933
 3834SOL     OW15863   7.603   6.356   7.286  0.4915 -0.6818 -0.1257
 3834SOL    HW115864   7.680   6.411   7.303  1.3127 -1.1662 -2.0445
 3834SOL    HW215865   7.637   6.267   7.288 -0.3643 -1.0032  0.5575
 3835SOL     OW15866   5.223   8.454   4.582  0.1937 -0.0846  0.0982
 3835SOL    HW115867   5.308   8.478   4.617  0.7163  0.6689 -1.5790
 3835SOL    HW215868   5.240   8.376   4.529 -0.4521 -0.7856  0.8758
 3836SOL     OW15869   6.013   5.464   2.541  0.3530 -0.1630 -0.0779
 3836SOL    HW115870   5.936   5.408   2.527  0.6942 -0.6492 -0.0226
 3836SOL    HW215871   6.060   5.422   2.613  0.3105  0.5239  0.3626
 3837SOL     OW15872   5.050   7.530  10.065 -0.0511 -0.6501 -0.0913
 3837SOL    HW115873   5.061   7.492  10.153 -0.7050 -1.0414 -0.1703
 3837SOL    HW215874   5.011   7.616  10.080  0.8236 -0.2697  0.0539
 3838SOL     OW15875   1.890  10.295   3.761  0.0810 -1.0036  0.5789
 3838SOL    HW115876   1.849  10.220   3.719 -1.4375 -0.4088  0.9314
 3838SOL    HW215877   1.887  10.364   3.694 -0.6519 -0.5951  1.0242
 3839SOL     OW15878   0.676  11.030   1.980  0.4708 -0.0637 -0.1083
 3839SOL    HW115879   0.671  10.976   2.059  3.7121  1.8731  1.6472
 3839SOL    HW215880   0.728  10.978   1.918  1.2767 -0.0683  0.5583
 3840SOL     OW15881   4.503   8.117   6.709 -0.2746 -0.3055  0.0371
 3840SOL    HW115882   4.494   8.209   6.735 -0.2188 -0.2207 -0.2427
 3840SOL    HW215883   4.596   8.098   6.720 -0.1562 -0.1075 -0.6463
 3841SOL     OW15884   3.191   7.278   7.753 -0.5007  0.3493 -0.0879
 3841SOL    HW115885   3.199   7.373   7.746 -1.2143  0.4522  0.3453
 3841SOL    HW215886   3.105   7.259   7.715  0.0151 -0.2294 -0.9863
 3842SOL     OW15887  10.864   8.224   7.395  0.4982  0.0244 -0.3533
 3842SOL    HW115888  10.827   8.153   7.342 -0.4941  0.2297  0.0450
 3842SOL    HW215889  10.863   8.300   7.336 -0.0781  0.1198 -0.2261
 3843SOL     OW15890   8.687   7.781   8.920 -0.0954 -0.4533  0.3703
 3843SOL    HW115891   8.779   7.779   8.896 -0.4856 -2.4412 -1.1891
 3843SOL    HW215892   8.685   7.749   9.011  0.8423  1.0726  0.9574
 3844SOL     OW15893   4.775   0.657   0.752  1.2913 -0.4485  0.3410
 3844SOL    HW115894   4.778   0.742   0.796  2.5083  0.5956 -1.5741
 3844SOL    HW215895   4.801   0.594   0.818 -0.7845  0.4527  2.1614
 3845SOL     OW15896  10.586   3.601   9.763  0.1918  0.2112  0.8082
 3845SOL    HW115897  10.508   3.624   9.815 -0.0641 -0.4191  0.7128
 3845SOL    HW215898  10.610   3.514   9.794  0.7945  0.3498  0.7481
 3846SOL     OW15899   4.764   5.911   0.621 -0.4619  0.2903  0.0102
 3846SOL    HW115900   4.700   5.900   0.691 -0.7938 -0.8238 -0.4506
 3846SOL    HW215901   4.824   5.837   0.631  0.5262  1.0877  0.1738
 3847SOL     OW15902   6.313   4.129   8.103 -0.4739 -0.0019 -0.2632
 3847SOL    HW115903   6.321   4.215   8.145 -0.1570  0.8493 -1.9614
 3847SOL    HW215904   6.306   4.149   8.010 -1.3778 -1.7977 -0.6136
 3848SOL     OW15905   3.824   4.044   2.534 -0.1950 -0.1964  0.1443
 3848SOL    HW115906   3.914   4.013   2.525 -0.1082  0.4533 -1.4447
 3848SOL    HW215907   3.776   3.999   2.464 -0.7948  0.6006  0.0353
 3849SOL     OW15908   8.504   6.168   9.367 -0.2995  0.3153  0.1436
 3849SOL    HW115909   8.439   6.185   9.298  0.4075  1.3015 -0.3015
 3849SOL    HW215910   8.453   6.171   9.448 -0.7343  1.6344 -0.1559
 3850SOL     OW15911   6.964   3.436   9.525 -0.0254 -0.6097 -0.5165
 3850SOL    HW115912   6.908   3.456   9.450 -2.4577 -1.6122  0.9124
 3850SOL    HW215913   6.941   3.503   9.590  1.0678 -0.5517 -0.1772
 3851SOL     OW15914   1.322  10.678   6.298 -0.3239 -0.0762  0.0747
 3851SOL    HW115915   1.354  10.671   6.388  0.6271  1.9843 -0.0383
 3851SOL    HW215916   1.231  10.704   6.307 -0.7183 -1.4773  0.4028
 3852SOL     OW15917   8.586   1.938   5.309  0.1540  0.2192  0.1691
 3852SOL    HW115918   8.655   1.991   5.350  0.0815 -0.2008  0.8621
 3852SOL    HW215919   8.506   1.989   5.323  0.1265  0.0710  0.5847
 3853SOL     OW15920   6.569   2.020   9.214 -0.4274  0.0538 -0.7013
 3853SOL    HW115921   6.647   2.061   9.177 -0.8398  0.8659 -0.6844
 3853SOL    HW215922   6.567   1.932   9.176  2.4176 -1.3292  1.9088
 3854SOL     OW15923   2.256   5.020   1.112  0.6457  0.1011 -0.3646
 3854SOL    HW115924   2.176   4.975   1.085  0.6700  0.2564 -0.7112
 3854SOL    HW215925   2.297   4.961   1.175  0.8468 -0.5303 -1.0612
 3855SOL     OW15926   2.696   0.091   7.068 -0.0962 -0.1520  0.3979
 3855SOL    HW115927   2.739   0.061   7.148  0.7073 -1.9340 -0.6274
 3855SOL    HW215928   2.725   0.181   7.056  1.8139 -0.6714  0.7896
 3856SOL     OW15929   1.355   7.650   3.331  0.0091  0.5424 -0.6318
 3856SOL    HW115930   1.351   7.718   3.398  2.0707  0.6779 -0.5911
 3856SOL    HW215931   1.346   7.568   3.379 -0.8847  0.6950 -0.5051
 3857SOL     OW15932  10.915   8.573   7.823  0.0981  0.2286  0.2964
 3857SOL    HW115933  10.880   8.485   7.808  0.9032 -0.1783  0.7609
 3857SOL    HW215934  11.006   8.559   7.849 -0.3958  1.0464  2.6830
 3858SOL     OW15935   2.345   0.346   1.739 -0.7428 -0.0206  0.6047
 3858SOL    HW115936   2.410   0.301   1.685 -0.3614  0.9528  0.2298
 3858SOL    HW215937   2.364   0.439   1.726 -2.5109  0.3016  0.1146
 3859SOL     OW15938   4.326   1.539   2.008  0.5777 -0.1394 -0.1907
 3859SOL    HW115939   4.292   1.543   2.098 -0.8357  0.3345 -0.7199
 3859SOL    HW215940   4.411   1.582   2.013  0.8264 -0.7211  1.0534
 3860SOL     OW15941   9.174   3.488   4.411  0.5505 -0.6872  0.1156
 3860SOL    HW115942   9.168   3.546   4.335  0.1713 -2.4267 -1.2378
 3860SOL    HW215943   9.085   3.485   4.446  0.1198 -1.9593 -1.0167
 3861SOL     OW15944   0.860  10.079   9.683  0.0085  0.0011 -0.2364
 3861SOL    HW115945   0.953  10.098   9.668 -0.0299 -0.4884 -1.1073
 3861SOL    HW215946   0.815  10.161   9.661  0.2080  0.1873  0.0308
 3862SOL     OW15947   8.434   5.118   4.198  0.1026 -0.3266  0.0097
 3862SOL    HW115948   8.456   5.085   4.111 -0.3874 -0.5644 -0.0308
 3862SOL    HW215949   8.344   5.150   4.188 -0.1033 -0.7387  0.5396
 3863SOL     OW15950   2.721   3.710   8.420  0.2064  0.1371 -0.2135
 3863SOL    HW115951   2.743   3.791   8.373  0.8626  0.4298  0.5651
 3863SOL    HW215952   2.733   3.640   8.355 -0.0586  0.6314 -0.8039
 3864SOL     OW15953   0.644   8.149   1.440  0.2053  0.0085 -0.3459
 3864SOL    HW115954   0.648   8.237   1.403  0.9783 -0.0251 -0.3654
 3864SOL    HW215955   0.725   8.107   1.410  0.8799 -0.0188  1.3628
 3865SOL     OW15956   7.458   5.274   4.409  0.4239 -0.0334 -0.2405
 3865SOL    HW115957   7.469   5.363   4.374  0.2062  0.4162  0.7911
 3865SOL    HW215958   7.547   5.244   4.425  0.4688  0.5466  0.6905
 3866SOL     OW15959   1.063   9.038   5.978  0.2700  0.2403  0.1687
 3866SOL    HW115960   1.037   8.985   6.053  1.3746  0.1870  0.5284
 3866SOL    HW215961   1.057   9.129   6.010 -0.1696  0.2654  0.0208
 3867SOL     OW15962   4.958   7.510   6.233  0.6825  0.7121 -0.5408
 3867SOL    HW115963   4.981   7.560   6.311 -0.6518  0.7076 -0.1175
 3867SOL    HW215964   4.868   7.481   6.248  1.6043 -2.4549 -0.4512
 3868SOL     OW15965   4.256   4.583   3.133 -0.6155 -0.0715 -0.2582
 3868SOL    HW115966   4.209   4.661   3.101 -0.3173  0.4406  0.5220
 3868SOL    HW215967   4.346   4.613   3.143 -0.5057 -0.5127  0.0798
 3869SOL     OW15968   3.517   8.182   6.667  0.1616 -0.5178  0.3478
 3869SOL    HW115969   3.571   8.113   6.628 -2.2319 -2.1149 -0.3788
 3869SOL    HW215970   3.480   8.141   6.746 -1.5365 -0.2179 -0.2584
 3870SOL     OW15971   0.572   8.182   9.041  0.5158 -0.1450  0.2138
 3870SOL    HW115972   0.630   8.239   8.990 -0.5329  0.6073 -0.1731
 3870SOL    HW215973   0.551   8.110   8.981  1.9900 -1.0737  0.7647
 3871SOL     OW15974   1.678   0.429   4.529  0.3587 -0.1193  0.3728
 3871SOL    HW115975   1.647   0.377   4.455 -1.8530  0.1716  1.0262
 3871SOL    HW215976   1.665   0.373   4.605 -2.4602  1.4097  1.1430
 3872SOL     OW15977   2.550   5.514   8.795 -0.1105 -0.7665  0.5772
 3872SOL    HW115978   2.512   5.602   8.802 -0.3930 -0.9384  1.2924
 3872SOL    HW215979   2.587   5.497   8.882 -2.2778 -2.3669  1.2558
 3873SOL     OW15980   2.390   2.038   4.250 -0.3149  0.0608  0.0172
 3873SOL    HW115981   2.311   2.077   4.289  0.5536  0.7734  1.1363
 3873SOL    HW215982   2.447   2.021   4.325  0.4644 -0.7795 -0.7465
 3874SOL     OW15983  10.465   8.530   4.041  0.4490 -0.0520  0.1008
 3874SOL    HW115984  10.476   8.589   4.115 -0.4026 -0.5419  0.6372
 3874SOL    HW215985  10.417   8.582   3.976 -0.9919 -0.3580  0.8764
 3875SOL     OW15986   8.839   4.103   8.347 -0.1583 -0.2511 -0.1467
 3875SOL    HW115987   8.837   4.109   8.252  1.0680  1.6978 -0.1136
 3875SOL    HW215988   8.748   4.109   8.374 -0.4313  0.3127 -1.1569
 3876SOL     OW15989   1.911   3.474   6.446  0.2374  0.5639  0.1690
 3876SOL    HW115990   1.863   3.450   6.367 -1.6926 -1.7244  1.8741
 3876SOL    HW215991   1.931   3.567   6.436 -0.2883  0.4371 -2.7649
 3877SOL     OW15992   6.280   2.645   4.376  0.0134 -0.3944  0.0654
 3877SOL    HW115993   6.214   2.712   4.393 -0.3339 -0.7420  0.1072
 3877SOL    HW215994   6.261   2.576   4.441  0.7366 -0.2686  0.4144
 3878SOL     OW15995   2.130   2.935   3.326 -0.6055 -0.1289  0.2547
 3878SOL    HW115996   2.178   3.002   3.375 -0.0493  1.7105 -2.5923
 3878SOL    HW215997   2.042   2.970   3.317 -0.8806 -0.7524  0.4398
 3879SOL     OW15998  10.561   1.650   9.725 -0.0073  0.0830 -0.1381
 3879SOL    HW115999  10.652   1.675   9.740  0.2886  1.2753 -3.1406
 3879SOL    HW216000  10.566   1.559   9.694  0.1281  0.0153  0.0870
 3880SOL     OW16001   0.763   4.402   5.112 -0.1999 -0.0682  0.1594
 3880SOL    HW116002   0.835   4.340   5.104  1.1253  1.4374 -0.0851
 3880SOL    HW216003   0.751   4.414   5.206 -0.9329 -1.1853  0.2246
 3881SOL     OW16004   2.181   2.865   4.784  0.3125 -0.1022 -0.2680
 3881SOL    HW116005   2.176   2.831   4.695  0.6499 -3.7307  0.9251
 3881SOL    HW216006   2.275   2.873   4.802  0.2604 -0.0727  0.0027
 3882SOL     OW16007   9.677   4.973   5.355 -0.5608 -0.1809 -0.4555
 3882SOL    HW116008   9.621   5.014   5.420 -0.0768 -1.2743  0.6898
 3882SOL    HW216009   9.712   5.046   5.304  0.2821  0.8720  1.5154
 3883SOL     OW16010   4.088   2.051   4.188  0.4980  0.4059 -0.2330
 3883SOL    HW116011   4.076   1.957   4.173 -0.3201  0.3379  0.7019
 3883SOL    HW216012   4.073   2.091   4.102  0.0010 -0.2555 -0.4625
 3884SOL     OW16013   4.700   4.773   8.753 -0.0455 -0.0720 -0.0291
 3884SOL    HW116014   4.634   4.839   8.774  0.3377  0.5437 -0.7092
 3884SOL    HW216015   4.650   4.692   8.739 -0.9729  0.8358 -2.7522
 3885SOL     OW16016   7.602   9.041   6.236  0.1137  0.5256 -0.0961
 3885SOL    HW116017   7.599   9.045   6.141  0.4944 -0.2999 -0.1524
 3885SOL    HW216018   7.511   9.024   6.262  0.4848 -3.1884 -0.5727
 3886SOL     OW16019   1.156   5.684   4.714 -0.2532  0.1081 -0.1638
 3886SOL    HW116020   1.191   5.660   4.629 -0.0737 -0.2589  0.0126
 3886SOL    HW216021   1.074   5.634   4.721 -1.6400  2.1149 -1.2285
 3887SOL     OW16022   5.891   1.267   0.757 -0.3578 -0.4782 -0.1681
 3887SOL    HW116023   5.801   1.287   0.731  0.4618  0.1588 -2.7781
 3887SOL    HW216024   5.928   1.220   0.682  1.9592  0.6684  0.1645
 3888SOL     OW16025   6.822   2.346   4.267  0.1650 -0.6183  0.6119
 3888SOL    HW116026   6.880   2.371   4.340  0.7351 -2.2332  0.7557
 3888SOL    HW216027   6.832   2.251   4.261 -0.0089 -0.5447 -1.4635
 3889SOL     OW16028   2.287   4.920   1.388  0.1868  0.0603  0.3861
 3889SOL    HW116029   2.286   5.008   1.426 -0.3609 -0.0134  0.5544
 3889SOL    HW216030   2.221   4.872   1.437 -0.1700 -0.1850 -0.3184
 3890SOL     OW16031   4.407   0.190   6.740  0.2838  0.1477 -0.0939
 3890SOL    HW116032   4.361   0.206   6.822 -1.1062  0.8393 -0.9713
 3890SOL    HW216033   4.492   0.232   6.751 -0.9112  2.7278  0.0273
 3891SOL     OW16034   8.437   4.548   1.177 -0.3639 -0.0412 -0.2490
 3891SOL    HW116035   8.355   4.562   1.224 -1.3104  0.7459 -2.0743
 3891SOL    HW216036   8.415   4.488   1.106  1.3832 -2.4799  1.1212
 3892SOL     OW16037  10.588   4.904   0.773  0.1886 -0.2508 -0.1787
 3892SOL    HW116038  10.594   4.994   0.741 -2.1486 -0.6891 -2.1487
 3892SOL    HW216039  10.556   4.913   0.863  2.5488  0.8966  0.6217
 3893SOL     OW16040   0.929   4.860   1.991 -0.1410 -0.0197  0.0724
 3893SOL    HW116041   0.987   4.785   1.979 -0.2658  0.1110 -1.6605
 3893SOL    HW216042   0.843   4.828   1.965 -0.0717  0.8848 -1.3699
 3894SOL     OW16043   3.346   0.884   7.463 -0.3976 -0.1323 -0.2003
 3894SOL    HW116044   3.270   0.895   7.405 -0.9748 -0.9428  0.3795
 3894SOL    HW216045   3.316   0.916   7.548  0.0417 -0.0966 -0.0572
 3895SOL     OW16046   1.954   0.792   3.685  0.0644  0.5456 -0.1666
 3895SOL    HW116047   2.040   0.805   3.644  1.0391  0.6387  1.7628
 3895SOL    HW216048   1.945   0.697   3.691  1.3702  0.4838  2.0792
 3896SOL     OW16049   3.574   5.483   8.965 -0.1338  0.3562 -0.5019
 3896SOL    HW116050   3.657   5.499   8.921  0.2118 -0.5449 -0.1925
 3896SOL    HW216051   3.512   5.543   8.921  0.8158  1.5768 -0.2301
 3897SOL     OW16052   2.473   8.429   5.258  0.0383 -0.5633  0.2671
 3897SOL    HW116053   2.412   8.468   5.321 -0.8649 -3.0334  1.0309
 3897SOL    HW216054   2.426   8.432   5.175 -0.5970 -1.2192  0.5893
 3898SOL     OW16055   1.901   5.245   4.500 -0.5047  0.0253  0.2950
 3898SOL    HW116056   1.995   5.228   4.504 -0.3933  0.6634  0.7063
 3898SOL    HW216057   1.871   5.203   4.420  0.4630  1.3284 -0.7875
 3899SOL     OW16058   9.901   4.844   5.600  0.2212  0.2907  0.1228
 3899SOL    HW116059   9.959   4.910   5.640 -0.7857  0.8165  0.7668
 3899SOL    HW216060   9.942   4.760   5.621  1.5830  0.6974 -0.7962
 3900SOL     OW16061   4.699   3.864   6.022  0.4218  0.1752  0.3336
 3900SOL    HW116062   4.711   3.907   6.106  1.8476  0.1381  0.1678
 3900SOL    HW216063   4.620   3.905   5.985  0.8969  1.5874  0.8358
 3901SOL     OW16064   7.724  11.014   5.091 -0.4011  0.0421 -0.8249
 3901SOL    HW116065   7.690  10.991   5.005 -0.8384 -0.1797 -0.5973
 3901SOL    HW216066   7.656  11.070   5.129 -0.1445  0.2583 -0.6829
 3902SOL     OW16067   3.471   6.636   2.077  0.5571 -0.4105  0.5905
 3902SOL    HW116068   3.447   6.551   2.041  2.1096  0.1227 -1.9975
 3902SOL    HW216069   3.402   6.695   2.047  1.1128 -0.2211 -0.3427
 3903SOL     OW16070   9.088   2.673   6.261  0.0724 -0.3254 -0.3002
 3903SOL    HW116071   9.153   2.682   6.191  2.0515  0.7767  1.5241
 3903SOL    HW216072   9.111   2.591   6.305  0.1394 -0.0155  0.2530
 3904SOL     OW16073   0.991   8.066   2.348  0.3069  0.2498 -1.0390
 3904SOL    HW116074   0.939   8.001   2.395 -0.0374 -0.0423 -1.8084
 3904SOL    HW216075   0.997   8.140   2.408 -2.0235  0.7722 -1.3842
 3905SOL     OW16076   7.142   7.973   2.900 -0.1034  0.0018  0.6654
 3905SOL    HW116077   7.128   7.879   2.915 -0.0218 -0.0111  0.6607
 3905SOL    HW216078   7.226   7.991   2.941  1.2465 -0.5061 -1.6806
 3906SOL     OW16079   4.717   3.005   7.382  0.0277  0.7916  0.0663
 3906SOL    HW116080   4.787   3.009   7.447  0.4169  1.6797 -0.3870
 3906SOL    HW216081   4.651   3.065   7.414  0.0969  1.0189 -0.2101
 3907SOL     OW16082   7.537   0.410   2.393 -0.0653  0.1099  0.0227
 3907SOL    HW116083   7.475   0.383   2.462 -1.0718 -0.0549 -0.9146
 3907SOL    HW216084   7.540   0.506   2.401  2.2264 -0.0413  2.2667
 3908SOL     OW16085   3.838   3.595  10.207 -0.6909  0.0496 -0.7754
 3908SOL    HW116086   3.892   3.522  10.174  0.3159  0.2242  0.4074
 3908SOL    HW216087   3.845   3.662  10.139  2.4251  0.9231  0.2076
 3909SOL     OW16088   2.490   5.275  11.033  0.3865  0.1242 -0.1676
 3909SOL    HW116089   2.441   5.202  11.070  1.5774 -0.7930 -0.3617
 3909SOL    HW216090   2.546   5.236  10.966  1.3122  1.1510 -0.0278
 3910SOL     OW16091   7.911   1.151   3.913  0.2126 -0.0940 -0.3636
 3910SOL    HW116092   7.906   1.060   3.942  1.6241 -0.3981 -0.9657
 3910SOL    HW216093   7.870   1.151   3.827  1.3071 -0.4509 -0.9093
 3911SOL     OW16094   2.342   2.162   4.902 -0.2927 -0.3003 -0.1268
 3911SOL    HW116095   2.277   2.148   4.833 -0.5537  0.3827 -0.0262
 3911SOL    HW216096   2.293   2.159   4.984 -0.3107  0.7755 -0.0802
 3912SOL     OW16097   4.055   6.991   8.020 -0.0882 -0.2377 -0.8085
 3912SOL    HW116098   3.986   7.028   8.076 -0.4624  1.8144 -2.4973
 3912SOL    HW216099   4.027   6.901   8.004 -1.3498 -0.0439  0.1492
 3913SOL     OW16100   5.822   0.795   4.011 -0.5682  0.7890  0.8724
 3913SOL    HW116101   5.733   0.770   4.035 -0.7410  0.3245 -0.1911
 3913SOL    HW216102   5.866   0.713   3.990 -0.7170  1.2044 -1.2775
 3914SOL     OW16103   3.696   0.368   8.776 -0.4334 -0.2229 -0.2186
 3914SOL    HW116104   3.604   0.391   8.766 -1.3219 -2.6018  1.4005
 3914SOL    HW216105   3.727   0.422   8.848 -1.0890 -0.6017  0.3604
 3915SOL     OW16106   1.948   4.351   8.322 -0.1487 -0.3210 -0.2283
 3915SOL    HW116107   1.905   4.431   8.294 -1.5895 -0.4588  1.4266
 3915SOL    HW216108   2.040   4.363   8.297 -0.0702  2.3701  0.9816
 3916SOL     OW16109   0.823   7.978   1.294 -0.0958  0.5455 -0.0889
 3916SOL    HW116110   0.887   7.927   1.245 -0.7253  0.1337 -0.4910
 3916SOL    HW216111   0.751   7.918   1.309 -0.8948  1.3356 -0.6595
 3917SOL     OW16112   5.007   5.868   6.677 -0.5436  0.1003 -0.8605
 3917SOL    HW116113   4.954   5.803   6.724  0.3551  0.0519  0.1484
 3917SOL    HW216114   4.980   5.952   6.714 -0.0912  0.0940 -0.5048
 3918SOL     OW16115   2.843   3.542   8.844  0.3402  0.0778  0.1491
 3918SOL    HW116116   2.775   3.540   8.777  0.2499 -2.0865  0.2597
 3918SOL    HW216117   2.911   3.599   8.806  0.2098 -0.9180 -1.7202
 3919SOL     OW16118   0.350   6.817   7.072 -0.4799  0.4102  0.2115
 3919SOL    HW116119   0.256   6.810   7.087 -0.4556  0.7190  0.5298
 3919SOL    HW216120   0.358   6.870   6.993 -0.6094 -1.2146 -0.9333
 3920SOL     OW16121   2.078   4.800   1.788 -0.1446  0.8306  0.1710
 3920SOL    HW116122   2.087   4.763   1.876  1.2393  0.9630  0.1032
 3920SOL    HW216123   1.983   4.810   1.776 -0.5498 -1.7968  0.5390
 3921SOL     OW16124   7.035   1.365   2.506 -0.2038  0.0965 -0.5497
 3921SOL    HW116125   7.129   1.369   2.526 -0.2512  0.0057 -0.2981
 3921SOL    HW216126   7.009   1.456   2.496 -0.5457  0.2933  1.6209
 3922SOL     OW16127   5.753   2.323   9.863 -0.0221  0.2104  0.4921
 3922SOL    HW116128   5.748   2.233   9.894 -0.3177  0.1343  0.2391
 3922SOL    HW216129   5.761   2.376   9.942 -1.0424  0.0399  0.7335
 3923SOL     OW16130   1.093   9.970   6.939  0.2455  0.0367  0.3319
 3923SOL    HW116131   1.184   9.952   6.961  0.2842 -2.0536 -1.2332
 3923SOL    HW216132   1.044   9.897   6.978 -0.8807  1.4827  1.7248
 3924SOL     OW16133   8.660  10.480   1.274  0.4364 -0.3632 -0.0197
 3924SOL    HW116134   8.721  10.408   1.293  2.2180  0.2082 -2.8781
 3924SOL    HW216135   8.671  10.496   1.180 -4.4905 -0.4280 -0.8380
 3925SOL     OW16136   2.821   5.166   4.685  0.5755 -0.0807  0.0138
 3925SOL    HW116137   2.915   5.178   4.691  0.6535 -0.6320 -0.0955
 3925SOL    HW216138   2.806   5.125   4.600  0.4568 -2.0166  0.9130
 3926SOL     OW16139   5.377   9.162   7.332  0.3072  0.0666  0.5258
 3926SOL    HW116140   5.353   9.255   7.339 -1.0712 -0.2940  0.8657
 3926SOL    HW216141   5.381   9.146   7.238  0.8556  0.5393  0.4619
 3927SOL     OW16142  10.482   8.940   0.469  0.1027 -0.0490  0.1676
 3927SOL    HW116143  10.395   8.940   0.429 -0.5439  1.1467  1.4746
 3927SOL    HW216144  10.501   9.033   0.485  1.9726 -0.2141 -0.7814
 3928SOL     OW16145   0.288  10.253   5.972  0.8208  0.1381 -0.1475
 3928SOL    HW116146   0.293  10.326   5.911 -1.5599  0.5760  0.0663
 3928SOL    HW216147   0.318  10.177   5.922 -0.6213  0.5674 -1.7335
 3929SOL     OW16148   4.863   9.533   1.485  0.1302  0.2651 -0.3919
 3929SOL    HW116149   4.899   9.464   1.430  3.1950 -0.2650  2.0310
 3929SOL    HW216150   4.864   9.611   1.429  4.3003  0.0388 -0.9394
 3930SOL     OW16151   5.396   9.884  10.343  0.1187  0.2794  0.4781
 3930SOL    HW116152   5.324   9.932  10.384  0.4836 -0.6173  2.2955
 3930SOL    HW216153   5.376   9.792  10.360  0.3451 -0.1476 -1.3676
 3931SOL     OW16154   6.776   6.555   6.696 -0.1264 -0.2785  0.0609
 3931SOL    HW116155   6.732   6.631   6.659  1.4312  1.7141  2.0264
 3931SOL    HW216156   6.844   6.533   6.632  1.3830  1.9933  0.7805
 3932SOL     OW16157   7.694   4.326   5.010  0.0191 -0.5760 -0.2465
 3932SOL    HW116158   7.687   4.279   5.093 -0.3024  0.1013  0.1086
 3932SOL    HW216159   7.743   4.405   5.030  0.7380 -0.8359 -0.8910
 3933SOL     OW16160   5.967   9.994   2.029  0.4313  0.2761 -0.2222
 3933SOL    HW116161   5.933   9.980   2.117 -0.3813  0.4131 -0.5003
 3933SOL    HW216162   6.007  10.081   2.032 -0.3470  0.6398 -0.2031
 3934SOL     OW16163   7.512   3.033   9.688  0.1075 -0.1646  0.6660
 3934SOL    HW116164   7.451   3.102   9.714 -0.0803  0.6595 -1.7884
 3934SOL    HW216165   7.591   3.051   9.739 -1.5510 -1.2908  3.9489
 3935SOL     OW16166   4.653   7.869   1.519  0.4115  0.1307  0.2369
 3935SOL    HW116167   4.602   7.811   1.575  0.0501  1.0672  0.9080
 3935SOL    HW216168   4.646   7.832   1.432 -0.7244 -0.2146  0.4672
 3936SOL     OW16169   1.067  10.122   0.432  0.6499  0.2668  0.0813
 3936SOL    HW116170   1.020  10.143   0.513  0.4040 -1.1222  0.3147
 3936SOL    HW216171   1.145  10.074   0.461 -0.0337 -1.2676 -0.5505
 3937SOL     OW16172   1.862  10.843   6.742  0.0664 -0.0212 -0.2510
 3937SOL    HW116173   1.845  10.759   6.700 -0.5704 -0.1883  0.3286
 3937SOL    HW216174   1.921  10.823   6.814 -0.6598 -0.0940  0.3359
 3938SOL     OW16175   5.520   4.823   7.585  0.3108  0.1649 -0.3637
 3938SOL    HW116176   5.548   4.915   7.586 -1.3102  0.6959 -0.8400
 3938SOL    HW216177   5.537   4.795   7.495 -0.0086  0.2686 -0.4569
 3939SOL     OW16178   5.237   0.435   5.097  0.0771  0.0173  0.3035
 3939SOL    HW116179   5.213   0.517   5.054 -0.4983 -0.2633  0.0807
 3939SOL    HW216180   5.217   0.367   5.032  0.9220 -0.2700  0.3394
 3940SOL     OW16181   8.970   1.283  11.110 -0.0909  0.1379 -0.0927
 3940SOL    HW116182   8.893   1.338  11.125 -0.0082  0.6658 -1.4899
 3940SOL    HW216183   9.041   1.330  11.153 -0.3563  0.1550  0.3362
 3941SOL     OW16184   1.273   3.163   7.166  0.2784 -0.7023  0.1609
 3941SOL    HW116185   1.270   3.096   7.098  0.9194  0.0137 -0.5935
 3941SOL    HW216186   1.221   3.236   7.131  4.1435  1.4994 -1.6666
 3942SOL     OW16187   0.588   4.625   3.764 -0.0828  0.5645  0.6081
 3942SOL    HW116188   0.496   4.645   3.778 -0.4481  1.1603 -2.0996
 3942SOL    HW216189   0.588   4.551   3.704  1.1499  1.5649 -0.7037
 3943SOL     OW16190   4.107   8.448   1.158  0.1175  0.1820  0.2101
 3943SOL    HW116191   4.033   8.388   1.166 -0.3979  0.9034  1.0766
 3943SOL    HW216192   4.182   8.392   1.143 -0.4627 -0.6325  0.2801
 3944SOL     OW16193   6.572   6.922   9.031  0.3144  0.2420  0.2947
 3944SOL    HW116194   6.501   6.961   9.082  0.6168 -1.0192  1.7377
 3944SOL    HW216195   6.549   6.829   9.025  2.4810 -0.4800  2.0006
 3945SOL     OW16196  10.016   7.151   2.779  0.0735  0.6939 -0.3314
 3945SOL    HW116197   9.966   7.095   2.720 -1.8046  1.5060  0.4367
 3945SOL    HW216198   9.970   7.146   2.862  0.4143  2.6052  0.0199
 3946SOL     OW16199   5.747   4.426   5.905 -0.1400 -0.0005  0.7601
 3946SOL    HW116200   5.687   4.473   5.847  0.0234 -1.0201 -0.2743
 3946SOL    HW216201   5.691   4.382   5.968 -0.6197 -1.8729 -0.8853
 3947SOL     OW16202   5.390   3.955   1.896 -0.0883  0.0996 -0.4322
 3947SOL    HW116203   5.329   3.902   1.949 -0.5625 -0.2440 -1.2902
 3947SOL    HW216204   5.428   3.892   1.835 -0.4919  0.7017 -1.3210
 3948SOL     OW16205  10.594   4.962   9.381  0.4622  0.2376  0.0247
 3948SOL    HW116206  10.596   4.962   9.477 -1.2791  1.5481  0.0922
 3948SOL    HW216207  10.522   4.903   9.358 -1.3017  2.3842 -0.3244
 3949SOL     OW16208  10.401   7.829   8.572  0.2586 -0.1088  0.1486
 3949SOL    HW116209  10.340   7.766   8.535  1.7538 -1.1634 -0.6278
 3949SOL    HW216210  10.349   7.909   8.584 -1.1700 -0.8615 -0.7559
 3950SOL     OW16211   8.374   2.960   5.462  0.3076 -0.2926  0.3814
 3950SOL    HW116212   8.388   3.017   5.387 -1.3055 -0.5391 -0.1410
 3950SOL    HW216213   8.362   2.873   5.425 -0.6073 -0.4031  0.9095
 3951SOL     OW16214   2.081   3.464   3.175  0.3731  0.4476  0.2924
 3951SOL    HW116215   2.021   3.447   3.103  0.9657  0.6248 -0.2538
 3951SOL    HW216216   2.112   3.553   3.161  0.1338  0.6598  1.0396
 3952SOL     OW16217   6.549   2.599   4.316  0.1037 -0.2847 -0.1663
 3952SOL    HW116218   6.458   2.606   4.342  0.0251 -0.0858 -0.4897
 3952SOL    HW216219   6.596   2.583   4.398 -0.2909 -1.0830 -0.0843
 3953SOL     OW16220   3.976   7.301  10.220  0.8092 -0.6648  0.3447
 3953SOL    HW116221   3.902   7.253  10.258 -0.6972  0.8281 -0.6074
 3953SOL    HW216222   3.951   7.318  10.130  3.0038 -1.4329 -0.4818
 3954SOL     OW16223   8.340   5.120   6.959 -0.3467  0.7819 -0.1962
 3954SOL    HW116224   8.396   5.048   6.988 -0.7942  0.9722  1.2120
 3954SOL    HW216225   8.265   5.077   6.919 -0.0519  0.4903 -0.4454
 3955SOL     OW16226   3.623   5.215  11.081  0.3528  0.4627 -0.7877
 3955SOL    HW116227   3.570   5.160  11.023 -0.0671 -1.5200  1.3545
 3955SOL    HW216228   3.578   5.299  11.083 -1.6347 -0.5529 -0.5693
 3956SOL     OW16229   1.771   7.941   4.012  0.0945  0.3641  0.1295
 3956SOL    HW116230   1.735   7.889   4.084 -0.9028 -0.4037 -0.8909
 3956SOL    HW216231   1.844   7.888   3.979 -0.8867 -0.3927 -0.8745
 3957SOL     OW16232   6.029   8.472   5.452  0.3239 -0.8520  0.0037
 3957SOL    HW116233   6.117   8.472   5.490  0.3305  0.0600 -0.0092
 3957SOL    HW216234   6.035   8.530   5.376 -0.0181 -1.6383 -0.6456
 3958SOL     OW16235   4.300   0.725   8.440  0.3336  0.1344 -0.5636
 3958SOL    HW116236   4.253   0.690   8.515  2.4315 -0.5216  0.5191
 3958SOL    HW216237   4.279   0.819   8.439 -1.0804 -0.1678 -0.2372
 3959SOL     OW16238   3.034   0.383   2.505 -0.1035  0.2649 -0.0871
 3959SOL    HW116239   2.998   0.436   2.576 -1.5223 -1.2923  0.3851
 3959SOL    HW216240   3.117   0.350   2.540 -0.0041  0.8301  0.2237
 3960SOL     OW16241   5.776   2.153   8.848 -0.0675  0.4617  0.2512
 3960SOL    HW116242   5.780   2.198   8.932  0.1945  0.7038  0.1089
 3960SOL    HW216243   5.688   2.170   8.815 -1.0921 -1.7200  1.6312
 3961SOL     OW16244  11.060  10.121   1.551 -0.3344 -0.4751 -0.0584
 3961SOL    HW116245  11.002  10.175   1.605 -0.6879 -0.2456 -0.6471
 3961SOL    HW216246  11.076  10.043   1.604 -1.2959 -0.6020  0.0739
 3962SOL     OW16247   7.148   8.253  11.061 -0.3051 -0.3997  0.5096
 3962SOL    HW116248   7.129   8.309  10.986  0.2257  0.9816  1.3821
 3962SOL    HW216249   7.187   8.174  11.022  0.3499  0.4656 -0.6520
 3963SOL     OW16250   6.894   2.424   2.507  0.3736  0.1822 -0.5491
 3963SOL    HW116251   6.801   2.413   2.527  0.3588 -0.6659 -1.0375
 3963SOL    HW216252   6.907   2.376   2.425  1.6767 -1.6135  0.6322
 3964SOL     OW16253   5.177  10.121   9.071 -0.2887  0.0625 -0.3598
 3964SOL    HW116254   5.114  10.178   9.026  1.3525  1.8341 -0.5118
 3964SOL    HW216255   5.124  10.075   9.136 -1.6554  2.0648  0.0417
 3965SOL     OW16256   8.152   6.754  10.116 -0.5597 -0.2987 -0.2368
 3965SOL    HW116257   8.083   6.809  10.079  1.3108  2.8516  0.6017
 3965SOL    HW216258   8.139   6.760  10.210  0.2188 -0.5372 -0.1102
 3966SOL     OW16259   6.443   6.659   6.748 -0.1974  0.0244  0.3815
 3966SOL    HW116260   6.504   6.728   6.776  0.4113 -0.6611  0.7654
 3966SOL    HW216261   6.359   6.704   6.740  0.1278  0.7526  0.9304
 3967SOL     OW16262   1.617   8.851  10.632 -0.3041  0.0240 -0.0945
 3967SOL    HW116263   1.648   8.929  10.678 -0.4320  0.7152 -1.1519
 3967SOL    HW216264   1.681   8.783  10.654  0.3584  0.6813  0.0444
 3968SOL     OW16265   6.347   6.941   5.785 -0.5484  0.9391 -0.1900
 3968SOL    HW116266   6.283   6.926   5.716 -1.1492  0.7915  0.3848
 3968SOL    HW216267   6.430   6.953   5.739 -0.3242 -2.2344 -0.8117
 3969SOL     OW16268  10.749  11.071   6.426 -0.1593  0.1364 -0.1054
 3969SOL    HW116269  10.657  11.097   6.420  0.4368  2.3337 -0.6153
 3969SOL    HW216270  10.779  11.066   6.336  0.0655 -1.3035  0.0289
 3970SOL     OW16271   3.294   6.853   6.026  0.1465 -0.0922  0.1190
 3970SOL    HW116272   3.258   6.941   6.018 -3.0681 -1.2963 -0.3267
 3970SOL    HW216273   3.315   6.827   5.937  0.4314 -0.0379  0.1690
 3971SOL     OW16274   2.940   7.548   4.859 -0.6079 -0.1676 -0.4889
 3971SOL    HW116275   3.006   7.494   4.904  0.6141  2.1436  0.6292
 3971SOL    HW216276   2.886   7.484   4.811  1.0962 -2.3199  0.2907
 3972SOL     OW16277   4.083   6.441   5.936 -0.2474 -0.3226  0.1630
 3972SOL    HW116278   4.038   6.523   5.956 -2.5945 -1.6244  0.4990
 3972SOL    HW216279   4.128   6.457   5.853 -0.1649  1.4517  0.5180
 3973SOL     OW16280   4.906   0.765   4.307 -1.6402  0.1227  0.4555
 3973SOL    HW116281   4.974   0.762   4.374  1.3164 -0.7210 -2.3483
 3973SOL    HW216282   4.837   0.819   4.346  0.2279  0.4074  3.7873
 3974SOL     OW16283   3.107   3.669   4.764  0.6031  0.0111  0.5244
 3974SOL    HW116284   3.110   3.738   4.830 -0.3819 -0.0168  0.6203
 3974SOL    HW216285   3.015   3.666   4.737  0.5609 -1.4478  0.7311
 3975SOL     OW16286   2.761   6.619   0.819 -0.2595 -0.1783  0.5613
 3975SOL    HW116287   2.808   6.656   0.744 -1.5644  0.0626 -0.1660
 3975SOL    HW216288   2.825   6.564   0.863  0.0823 -1.7548 -1.7407
 3976SOL     OW16289   8.753   0.766   8.904 -0.1399 -0.2260  0.1664
 3976SOL    HW116290   8.759   0.837   8.967 -0.5992 -0.6356  0.6751
 3976SOL    HW216291   8.748   0.810   8.819  2.8107  0.3326  0.1679
 3977SOL     OW16292   7.023   0.312   3.159 -0.1388  0.0399  0.1969
 3977SOL    HW116293   7.116   0.324   3.140 -0.1172  0.1936  0.4034
 3977SOL    HW216294   7.000   0.230   3.114  0.3144 -0.4862  0.9096
 3978SOL     OW16295   9.293   8.538   7.310 -0.3301 -0.3787 -0.1596
 3978SOL    HW116296   9.338   8.517   7.391 -0.3274 -0.5045 -0.1930
 3978SOL    HW216297   9.260   8.627   7.323  1.0383  0.2190 -0.6344
 3979SOL     OW16298   8.638   2.329   2.440 -0.1972  0.6740 -0.3887
 3979SOL    HW116299   8.562   2.299   2.390 -0.7688 -0.2479  0.9498
 3979SOL    HW216300   8.624   2.423   2.451 -1.8292  0.3279  0.8797
 3980SOL     OW16301   3.613   9.083   6.485 -0.5328 -0.2576 -0.3554
 3980SOL    HW116302   3.556   9.008   6.500 -0.6477 -0.7425 -2.9168
 3980SOL    HW216303   3.553   9.154   6.461 -0.2807  0.1792  0.2638
 3981SOL     OW16304   7.388   6.200   4.036 -0.3542  0.2702  0.3451
 3981SOL    HW116305   7.298   6.234   4.037 -0.5642  0.0640 -2.5719
 3981SOL    HW216306   7.414   6.204   3.944  3.0160  1.2166  1.1827
 3982SOL     OW16307   7.037   9.789   6.501 -0.1282 -0.4136 -0.3048
 3982SOL    HW116308   7.074   9.712   6.545  0.1681 -1.5010 -2.3273
 3982SOL    HW216309   7.070   9.863   6.551  1.8825 -1.4906  0.0705
 3983SOL     OW16310  10.001   8.324   2.768  0.3080  0.3221 -0.0994
 3983SOL    HW116311  10.048   8.407   2.763 -0.5563  0.7859 -0.6347
 3983SOL    HW216312  10.060   8.266   2.817  1.4326  0.8803 -0.7729
 3984SOL     OW16313   1.922   2.926   5.588  0.2146  0.6232  0.0042
 3984SOL    HW116314   1.949   2.933   5.680 -0.1600  2.2176  0.0234
 3984SOL    HW216315   1.834   2.887   5.592 -0.5335  2.2400  0.4917
 3985SOL     OW16316   5.187   4.832   5.885  1.2324  0.0076 -0.0518
 3985SOL    HW116317   5.132   4.909   5.872  1.7385  0.5296  0.7719
 3985SOL    HW216318   5.212   4.805   5.797  0.8739  0.6541 -0.3589
 3986SOL     OW16319   5.359   7.131   9.119  0.1777  0.5194  0.1183
 3986SOL    HW116320   5.337   7.038   9.127  0.5389  0.3567 -0.6913
 3986SOL    HW216321   5.283   7.177   9.153  0.1940 -0.0753  1.0008
 3987SOL     OW16322   1.340   3.489   4.136 -0.0622 -0.0031 -0.6049
 3987SOL    HW116323   1.429   3.461   4.117 -0.2358 -0.4482 -0.7830
 3987SOL    HW216324   1.336   3.494   4.231  0.3804  0.7964 -0.6204
 3988SOL     OW16325   1.682   8.926  11.026 -0.0546 -0.0500  0.3415
 3988SOL    HW116326   1.748   8.875  10.978 -0.7774  0.0463 -0.7808
 3988SOL    HW216327   1.674   8.881  11.110 -0.3848 -1.5628 -0.4738
 3989SOL     OW16328   8.547   5.804   6.961 -0.3088  0.3389  0.0149
 3989SOL    HW116329   8.619   5.783   6.901 -1.4778 -0.5456 -1.1219
 3989SOL    HW216330   8.588   5.857   7.029  1.3406  0.2011 -0.8179
 3990SOL     OW16331   6.010   8.406   4.833  0.2843 -0.2733 -0.2637
 3990SOL    HW116332   6.053   8.388   4.916  0.0614 -0.9695 -0.2925
 3990SOL    HW216333   5.973   8.494   4.843 -0.8440 -0.8313  0.8528
 3991SOL     OW16334   9.797   2.656   8.742 -0.1032  0.1924 -0.5542
 3991SOL    HW116335   9.795   2.560   8.743 -2.1892  0.1849 -0.6834
 3991SOL    HW216336   9.873   2.678   8.689  0.8580 -1.3619  0.0994
 3992SOL     OW16337   9.182   4.708   6.840  0.4033  0.1587 -0.5959
 3992SOL    HW116338   9.131   4.631   6.815  0.7341 -0.1588 -0.2966
 3992SOL    HW216339   9.270   4.691   6.808  0.1781  1.0432 -1.7875
 3993SOL     OW16340   3.443  10.430   7.223  0.7817  0.3208 -0.2597
 3993SOL    HW116341   3.479  10.344   7.245  0.3372 -0.2161 -1.5566
 3993SOL    HW216342   3.481  10.489   7.288 -0.3868 -1.1475  1.8853
 3994SOL     OW16343   4.772   1.834   5.980  0.0289  0.2979  0.6760
 3994SOL    HW116344   4.810   1.922   5.983  1.1903 -0.2084  1.1668
 3994SOL    HW216345   4.825   1.787   5.917 -0.4830 -0.1107  0.5462
 3995SOL     OW16346   7.992   8.598   6.738  0.4501 -0.3269 -0.3518
 3995SOL    HW116347   8.023   8.526   6.793  0.5738  0.1305  0.1794
 3995SOL    HW216348   8.044   8.673   6.765 -1.2326  0.5193  0.6984
 3996SOL     OW16349   2.070   5.181   8.186 -0.5207 -0.1692  0.3735
 3996SOL    HW116350   2.162   5.167   8.209 -0.5292 -0.2989  0.3325
 3996SOL    HW216351   2.067   5.269   8.150  0.1998 -1.2937 -2.7209
 3997SOL     OW16352  10.614   4.952   5.761  0.1059  0.5456 -0.3878
 3997SOL    HW116353  10.585   5.015   5.695  0.8989 -0.4628 -1.7529
 3997SOL    HW216354  10.536   4.902   5.783 -0.5161  1.9109  0.6518
 3998SOL     OW16355   1.706  10.981   8.491 -0.1641 -0.4119 -0.2037
 3998SOL    HW116356   1.755  11.034   8.428 -0.4016  0.5651  0.4139
 3998SOL    HW216357   1.760  10.902   8.502  0.9128  0.3075 -0.1042
 3999SOL     OW16358   6.337   5.830   3.534  0.3799 -0.1868 -0.0126
 3999SOL    HW116359   6.375   5.889   3.600 -0.0886 -0.1806  0.2533
 3999SOL    HW216360   6.252   5.868   3.514  1.0417  0.5519 -1.6040
 4000SOL     OW16361   8.298   2.221   4.234  0.0927 -0.1710  0.1062
 4000SOL    HW116362   8.260   2.137   4.259 -1.5088  1.0597  2.1892
 4000SOL    HW216363   8.335   2.255   4.316  1.5361  0.7828 -0.8928
 4001SOL     OW16364   2.779   9.359   2.657 -0.4927 -0.2694 -0.0917
 4001SOL    HW116365   2.793   9.434   2.715 -2.0089  1.4976 -1.8887
 4001SOL    HW216366   2.692   9.327   2.680 -1.6562  1.2259 -2.0761
 4002SOL     OW16367   7.017   9.413   0.257 -0.1263  0.1254 -0.3851
 4002SOL    HW116368   7.092   9.434   0.201 -0.0429 -0.8672 -0.6606
 4002SOL    HW216369   7.020   9.318   0.266 -0.8421  0.1635  0.3306
 4003SOL     OW16370   3.308   8.969   7.698 -0.6474 -0.4081  0.6728
 4003SOL    HW116371   3.243   8.943   7.633 -1.0768  1.8463  0.1279
 4003SOL    HW216372   3.385   8.992   7.647  0.2602 -1.9991  1.2450
 4004SOL     OW16373   4.064   5.273   4.522  0.2136  0.1395 -0.1289
 4004SOL    HW116374   4.028   5.354   4.487  0.5300  0.3135 -0.0501
 4004SOL    HW216375   3.988   5.228   4.561  0.6243  2.4528  3.9278
 4005SOL     OW16376   4.393   6.819   0.140  0.0960  0.4419 -0.0928
 4005SOL    HW116377   4.405   6.868   0.222 -1.7265 -2.7855  2.3448
 4005SOL    HW216378   4.300   6.829   0.121 -0.1476 -1.3268  0.0386
 4006SOL     OW16379   0.680   3.962   0.544 -0.4969  0.3745  0.2439
 4006SOL    HW116380   0.773   3.959   0.522 -0.7569  0.4557 -0.9211
 4006SOL    HW216381   0.678   3.962   0.640  0.6110 -2.0570  0.3365
 4007SOL     OW16382   2.243   3.827   4.680  0.1802 -0.5183 -0.0890
 4007SOL    HW116383   2.236   3.909   4.729 -0.2504 -0.2242 -0.6342
 4007SOL    HW216384   2.156   3.812   4.644  1.1474  1.0119 -3.5077
 4008SOL     OW16385   6.652   7.252   1.633  0.2976 -0.2005 -0.2213
 4008SOL    HW116386   6.685   7.171   1.672 -0.2869  0.4885  1.7799
 4008SOL    HW216387   6.671   7.242   1.539  1.4412 -2.0580  0.1523
 4009SOL     OW16388   8.245   1.162   6.240  0.2127  0.0620 -0.0023
 4009SOL    HW116389   8.164   1.116   6.216 -0.8170  0.8041  1.7998
 4009SOL    HW216390   8.245   1.241   6.187 -1.4731  1.1679  1.5174
 4010SOL     OW16391   0.876   1.239   9.624  0.4616  0.1008 -0.3478
 4010SOL    HW116392   0.894   1.236   9.530  3.7262  1.4067  0.0996
 4010SOL    HW216393   0.837   1.325   9.638  2.9668  1.3300 -0.2345
 4011SOL     OW16394   6.917   2.801   5.914  0.1235 -0.1461  0.2965
 4011SOL    HW116395   6.859   2.774   5.843 -0.1698 -0.1734  0.5447
 4011SOL    HW216396   6.989   2.738   5.912  0.6256  0.4493 -0.6154
 4012SOL     OW16397   0.079   0.571   2.845 -0.1942 -0.0391  0.6891
 4012SOL    HW116398   0.020   0.501   2.817  1.7850 -1.5172  0.0198
 4012SOL    HW216399   0.118   0.603   2.763 -1.7628  2.5953  0.8585
 4013SOL     OW16400  10.674   5.921   1.713  0.0511  0.4663 -0.1341
 4013SOL    HW116401  10.620   5.978   1.658 -0.1886  1.5366  1.1325
 4013SOL    HW216402  10.657   5.952   1.802 -3.0942 -3.9818  1.1857
 4014SOL     OW16403   2.327   8.776   2.098  0.0153 -0.2042 -0.6917
 4014SOL    HW116404   2.273   8.770   2.019 -0.9633 -1.7856  0.0615
 4014SOL    HW216405   2.287   8.846   2.149 -0.7220 -0.6892 -0.5940
 4015SOL     OW16406   5.664   1.868   1.637  0.5415 -0.4637  0.1697
 4015SOL    HW116407   5.642   1.918   1.558  1.7072  0.3834  0.3463
 4015SOL    HW216408   5.588   1.813   1.653 -0.5899  0.8741 -0.3629
 4016SOL     OW16409   5.362   7.694   0.268 -0.4243 -0.0033  0.0112
 4016SOL    HW116410   5.416   7.752   0.321  0.3053  1.0972 -1.8452
 4016SOL    HW216411   5.341   7.745   0.190 -2.5923 -1.0893 -0.1751
 4017SOL     OW16412   7.961   0.023   2.560  0.2717 -0.4186 -0.1831
 4017SOL    HW116413   8.034  -0.033   2.586 -0.6065 -2.6773 -2.2145
 4017SOL    HW216414   8.002   0.095   2.512  1.3525  0.3935  1.8033
 4018SOL     OW16415   9.250   1.249   8.781 -0.0508 -0.2268 -0.0873
 4018SOL    HW116416   9.338   1.216   8.765  0.3990  1.1669 -0.6974
 4018SOL    HW216417   9.244   1.259   8.876  0.4597 -0.3158 -0.0426
 4019SOL     OW16418   3.469   5.811   7.201  0.0769 -0.2945  0.0310
 4019SOL    HW116419   3.536   5.873   7.170  0.7355  0.0480  1.9879
 4019SOL    HW216420   3.516   5.754   7.262 -0.8507 -1.8457 -0.6569
 4020SOL     OW16421   7.625   7.557   1.727  0.0460  0.1027 -0.2516
 4020SOL    HW116422   7.677   7.564   1.647  0.3733  0.2899 -0.0240
 4020SOL    HW216423   7.586   7.470   1.722 -0.6941  0.4656 -1.0700
 4021SOL     OW16424   4.407   1.950   8.738 -0.3614  0.1043 -0.0572
 4021SOL    HW116425   4.479   2.012   8.747  0.4194 -0.6274 -1.0586
 4021SOL    HW216426   4.342   1.980   8.802  0.7525  0.8703  0.7598
 4022SOL     OW16427   9.851  10.992   0.589 -0.0068 -0.2970  0.6866
 4022SOL    HW116428   9.895  11.067   0.628  2.8989 -1.3997 -0.2095
 4022SOL    HW216429   9.859  11.004   0.495 -0.2487 -1.3211  0.5162
 4023SOL     OW16430   4.906  10.431   5.563 -0.0763 -0.6563 -1.0512
 4023SOL    HW116431   4.838  10.403   5.502 -0.8203  0.0318 -0.5443
 4023SOL    HW216432   4.865  10.425   5.649  0.1598  0.7759 -0.8243
 4024SOL     OW16433  10.350   8.153   2.070  0.2295 -0.2706  0.1044
 4024SOL    HW116434  10.347   8.228   2.130 -0.0487  0.3894 -0.7133
 4024SOL    HW216435  10.259   8.123   2.064 -0.7450  2.6622 -3.6036
 4025SOL     OW16436   1.540   3.077   3.106  0.6725 -0.1183  0.5573
 4025SOL    HW116437   1.547   3.046   3.016 -1.2178  0.7688  0.0698
 4025SOL    HW216438   1.606   3.026   3.154  1.1670 -1.1614 -1.1536
 4026SOL     OW16439   3.154   6.056   6.186  0.4230  0.0505 -0.0791
 4026SOL    HW116440   3.213   5.998   6.138 -0.4529 -0.0108 -1.0980
 4026SOL    HW216441   3.090   5.998   6.226 -0.2968  0.2809 -0.8780
 4027SOL     OW16442   2.923   4.101   2.119 -0.2002  0.3557  0.3407
 4027SOL    HW116443   2.866   4.024   2.119  1.9273 -1.3284  1.2678
 4027SOL    HW216444   2.955   4.108   2.030 -0.0768 -0.0833  0.3525
 4028SOL     OW16445   3.784   3.967   1.604  0.4519  0.1365 -0.2852
 4028SOL    HW116446   3.797   4.008   1.690  1.6849  0.6433 -0.6873
 4028SOL    HW216447   3.694   3.987   1.581  0.5147  1.1683  0.3052
 4029SOL     OW16448   9.170   4.297   8.883  0.3637 -0.8569 -0.1631
 4029SOL    HW116449   9.226   4.353   8.937 -1.2895  0.4434  0.2831
 4029SOL    HW216450   9.231   4.236   8.841  1.9607 -0.3427  1.2809
 4030SOL     OW16451   2.666   7.230   9.904  0.0632 -0.0899 -0.0135
 4030SOL    HW116452   2.628   7.318   9.906  1.3033  0.4545  0.7811
 4030SOL    HW216453   2.759   7.244   9.919  0.3991 -1.4929 -0.6849
 4031SOL     OW16454   3.366   1.015   3.948 -0.4962  0.2719  0.4667
 4031SOL    HW116455   3.397   1.098   3.985  0.3543  0.2659 -0.2147
 4031SOL    HW216456   3.357   0.957   4.023 -1.8180  1.1762  1.0612
 4032SOL     OW16457   3.941   7.335   1.615 -0.8097  0.1604 -0.2244
 4032SOL    HW116458   3.940   7.293   1.701  1.5721 -4.2699 -1.9848
 4032SOL    HW216459   4.031   7.363   1.603 -1.2801  1.4092 -1.0339
 4033SOL     OW16460   7.701   9.989   2.390  0.2826 -0.2745 -0.0555
 4033SOL    HW116461   7.686   9.930   2.316 -2.1335  0.1175  0.0454
 4033SOL    HW216462   7.761  10.055   2.355  0.5671 -1.0556 -1.1222
 4034SOL     OW16463   1.445   7.406   1.747  0.2792  0.2278  0.2002
 4034SOL    HW116464   1.403   7.491   1.732 -1.4617 -0.0468  2.8925
 4034SOL    HW216465   1.515   7.424   1.809  0.1277 -0.2399  0.5159
 4035SOL     OW16466   8.328   9.032   7.650  0.1627  0.3246 -0.1480
 4035SOL    HW116467   8.415   9.068   7.630  0.0798  1.5133  1.4703
 4035SOL    HW216468   8.269   9.078   7.589  0.5455  0.1227 -0.6832
 4036SOL     OW16469   5.908   8.307   3.820  0.4471  0.0194 -0.1687
 4036SOL    HW116470   5.940   8.310   3.729  0.5711 -0.9802 -0.1760
 4036SOL    HW216471   5.987   8.316   3.873  0.2806  1.5018 -0.1312
 4037SOL     OW16472   2.050   0.258   3.608 -0.1481  0.8825 -0.2848
 4037SOL    HW116473   2.050   0.268   3.513 -2.6303  0.6018 -0.3627
 4037SOL    HW216474   2.001   0.177   3.624  1.5748  0.0523  1.2040
 4038SOL     OW16475   5.477   0.997   4.387 -0.6935  0.5474  0.0995
 4038SOL    HW116476   5.511   1.087   4.387 -1.6721  0.9358  0.7680
 4038SOL    HW216477   5.442   0.985   4.476 -1.2023 -0.2582 -0.1980
 4039SOL     OW16478   6.782   3.417   4.566  0.0096  0.1810  0.7237
 4039SOL    HW116479   6.777   3.338   4.513  1.7108  0.2643  0.3919
 4039SOL    HW216480   6.771   3.386   4.656 -1.1916 -0.1645  0.4887
 4040SOL     OW16481   4.055   9.395   0.785  0.1466  1.2813  0.6146
 4040SOL    HW116482   4.006   9.393   0.867  0.3656 -1.6667  0.7754
 4040SOL    HW216483   4.007   9.457   0.729 -1.6440  1.2008  1.9826
 4041SOL     OW16484   1.402   6.479  11.069 -0.4320  0.4784 -0.1705
 4041SOL    HW116485   1.348   6.556  11.088 -0.8528  0.8818 -2.6579
 4041SOL    HW216486   1.484   6.514  11.036  0.0977 -0.1528  0.4489
 4042SOL     OW16487   7.346  10.686   0.924  0.1663  0.0174 -0.0502
 4042SOL    HW116488   7.402  10.637   0.984 -0.7625 -2.0532 -0.7702
 4042SOL    HW216489   7.398  10.762   0.900  1.8534 -0.7810  0.8400
 4043SOL     OW16490   7.009   3.168   9.929  0.0610  0.2847 -0.3360
 4043SOL    HW116491   6.945   3.171  10.000 -0.6378 -1.7509 -0.8102
 4043SOL    HW216492   7.063   3.092   9.949 -0.2052 -0.3807 -2.0163
 4044SOL     OW16493   6.230   3.343   8.281 -0.1345 -0.5182  0.3294
 4044SOL    HW116494   6.184   3.407   8.335  1.1230  0.2735  0.4914
 4044SOL    HW216495   6.289   3.298   8.342  0.5524 -0.3217 -0.1810
 4045SOL     OW16496   7.531   4.986   6.208 -0.3899  0.0907 -0.7296
 4045SOL    HW116497   7.547   5.010   6.299  0.8218 -1.4393 -0.5057
 4045SOL    HW216498   7.493   5.065   6.169 -0.1897  1.0318  0.8839
 4046SOL     OW16499   5.320   6.359   0.577  0.3810  0.1457  0.2083
 4046SOL    HW116500   5.229   6.375   0.602  0.7426  1.2934  0.8364
 4046SOL    HW216501   5.367   6.350   0.660  0.7789 -0.9558 -0.1045
 4047SOL     OW16502   0.026   7.241   1.816 -0.6407  0.3263 -0.4057
 4047SOL    HW116503   0.117   7.263   1.835 -1.3081  1.9906  1.1754
 4047SOL    HW216504   0.010   7.275   1.728  0.0072  0.8205 -0.3354
 4048SOL     OW16505   3.574   3.920   6.733  0.0228 -0.0566 -0.9484
 4048SOL    HW116506   3.592   3.935   6.825  1.2530 -0.8070 -1.0442
 4048SOL    HW216507   3.482   3.892   6.730 -0.1715  0.4617 -0.0266
 4049SOL     OW16508   7.827   9.132   2.448  0.6051  0.1996  0.6087
 4049SOL    HW116509   7.836   9.177   2.532 -0.1622 -1.1024  1.4294
 4049SOL    HW216510   7.743   9.087   2.454  1.2797 -1.2432 -0.1854
 4050SOL     OW16511   1.673  10.118   0.349  0.5639 -0.1755 -0.1768
 4050SOL    HW116512   1.630  10.034   0.363 -0.4645  0.3292 -0.1923
 4050SOL    HW216513   1.605  10.174   0.311  1.1346  0.7531  0.1310
 4051SOL     OW16514  10.135   0.933   9.119  0.1807  0.0271  0.1261
 4051SOL    HW116515  10.196   0.868   9.154 -0.2734  0.1155  1.1328
 4051SOL    HW216516  10.055   0.883   9.098  0.6750 -0.1415 -1.4791
 4052SOL     OW16517   3.664   0.966   4.333  0.3026 -0.5591 -0.1185
 4052SOL    HW116518   3.647   1.057   4.359 -0.1089 -0.7447  0.2900
 4052SOL    HW216519   3.673   0.919   4.416  1.3004 -0.7576 -0.3301
 4053SOL     OW16520   4.335   0.272   4.330  0.0544  0.1310 -0.1738
 4053SOL    HW116521   4.403   0.291   4.394 -0.8921  0.4631  0.7653
 4053SOL    HW216522   4.351   0.335   4.259  0.8595  0.0300 -0.0935
 4054SOL     OW16523  10.529   3.798  10.458 -0.1516  0.4727 -0.6029
 4054SOL    HW116524  10.520   3.727  10.396 -0.5950 -0.7575  0.8150
 4054SOL    HW216525  10.454   3.856  10.439 -0.0371  0.3507 -1.4684
 4055SOL     OW16526   8.164   7.503   0.019 -0.1274 -0.5456 -0.2059
 4055SOL    HW116527   8.143   7.585   0.065 -1.0392 -1.9805  2.1079
 4055SOL    HW216528   8.222   7.530  -0.052  1.6613  1.8487  1.9564
 4056SOL     OW16529   7.558   6.566  10.733 -0.0274 -0.8696  0.1819
 4056SOL    HW116530   7.536   6.558  10.826 -2.0722  0.3914 -0.1371
 4056SOL    HW216531   7.520   6.489  10.692  1.7882 -1.9878  0.4670
 4057SOL     OW16532   2.778   3.291   9.375 -0.1053 -0.1615 -0.1082
 4057SOL    HW116533   2.832   3.217   9.347  0.4711 -0.0060  0.5502
 4057SOL    HW216534   2.697   3.252   9.406 -0.0434 -0.4658 -0.3207
 4058SOL     OW16535  10.891   6.012   4.137  0.2273 -0.5104  0.1185
 4058SOL    HW116536  10.831   6.026   4.064  0.6318  0.3385 -0.0590
 4058SOL    HW216537  10.843   6.042   4.214  0.5825  0.6430 -0.0851
 4059SOL     OW16538   3.179  10.708  11.026  0.3231  0.0142 -0.7194
 4059SOL    HW116539   3.248  10.711  11.092  0.2582  1.1559 -0.6863
 4059SOL    HW216540   3.192  10.624  10.982  0.5645 -0.6142  0.5148
 4060SOL     OW16541   3.442   5.020   5.813 -0.3901 -0.1345 -0.7149
 4060SOL    HW116542   3.451   4.999   5.720 -0.0773  0.3699 -0.8025
 4060SOL    HW216543   3.532   5.026   5.845 -0.4920  0.1147 -0.4754
 4061SOL     OW16544   0.602  10.093   2.025 -0.1165 -0.3512  0.1206
 4061SOL    HW116545   0.601  10.183   1.992 -0.5225  0.6302  2.5570
 4061SOL    HW216546   0.690  10.061   2.004  1.1192  1.7048  1.6786
 4062SOL     OW16547   7.717   7.909   0.919  0.0555 -0.3978 -0.2893
 4062SOL    HW116548   7.716   7.825   0.966  0.1674  0.1848  0.8020
 4062SOL    HW216549   7.649   7.961   0.963 -1.2617 -0.5085 -2.1112
 4063SOL     OW16550   6.178  10.031   8.585 -0.0371  0.5830 -0.4512
 4063SOL    HW116551   6.177  10.011   8.679  0.4333 -0.1966 -0.6010
 4063SOL    HW216552   6.254   9.984   8.552 -0.5385  0.3788 -1.3324
 4064SOL     OW16553   4.763  10.358   4.252 -0.2936 -0.1670 -0.2124
 4064SOL    HW116554   4.744  10.269   4.223  1.0575 -0.4621 -0.2961
 4064SOL    HW216555   4.855  10.371   4.229 -0.3994  1.1607  0.0356
 4065SOL     OW16556   6.050   1.078   1.260 -0.9532  0.1445  0.4456
 4065SOL    HW116557   6.030   0.984   1.267 -1.3306  0.1791 -0.1860
 4065SOL    HW216558   6.027   1.102   1.171 -0.3117  0.7178  0.4250
 4066SOL     OW16559  10.405   7.403   0.367 -0.3195 -0.0554  0.7339
 4066SOL    HW116560  10.472   7.355   0.414  0.0840  0.3766  0.6064
 4066SOL    HW216561  10.340   7.424   0.435  0.6228  1.2247  1.2908
 4067SOL     OW16562   8.627   5.410   1.166  0.6066  0.3867 -0.2693
 4067SOL    HW116563   8.661   5.368   1.245  0.0027 -1.5194 -0.9719
 4067SOL    HW216564   8.705   5.436   1.117  0.9825  1.3122  0.7988
 4068SOL     OW16565   5.738   1.910   9.480  0.6690  0.7342 -0.2820
 4068SOL    HW116566   5.655   1.897   9.525  0.0900  0.1387 -1.4859
 4068SOL    HW216567   5.804   1.902   9.549 -0.2701  1.7644  0.8011
 4069SOL     OW16568   2.716   4.318   8.722 -0.2612 -0.2103 -0.3198
 4069SOL    HW116569   2.757   4.370   8.791 -0.5231 -0.1491 -0.2081
 4069SOL    HW216570   2.763   4.235   8.723  2.2848  1.0691 -2.5896
 4070SOL     OW16571   2.146  10.169   1.050  0.1998  0.6014 -0.0214
 4070SOL    HW116572   2.222  10.212   1.011  0.6420  0.1809  0.3798
 4070SOL    HW216573   2.140  10.206   1.138 -0.0079  0.5586 -0.0163
 4071SOL     OW16574   3.951   9.711  11.006  0.0905 -0.0927 -0.3001
 4071SOL    HW116575   3.977   9.622  11.029 -1.0614 -0.0377  1.3970
 4071SOL    HW216576   3.867   9.701  10.962 -0.9336  0.1991  1.4618
 4072SOL     OW16577   6.007   6.442   9.774 -0.5843 -0.2640  0.4129
 4072SOL    HW116578   6.058   6.466   9.852 -0.8955  1.5755  0.1047
 4072SOL    HW216579   5.950   6.517   9.760 -1.9371 -1.4107 -0.4571
 4073SOL     OW16580   2.600  11.086   3.138 -0.0772  0.2920  0.7250
 4073SOL    HW116581   2.641  11.163   3.178  1.0474  0.3875 -0.5656
 4073SOL    HW216582   2.583  11.112   3.048  1.7676 -1.4441 -0.1967
 4074SOL     OW16583   1.413   5.240   1.974 -0.5360  0.0148 -0.7708
 4074SOL    HW116584   1.370   5.323   1.950  0.9966  1.0626 -0.0252
 4074SOL    HW216585   1.463   5.216   1.896  0.0104  0.4677 -0.5663
 4075SOL     OW16586  10.428   9.383   3.705 -0.7662  0.0869  0.4310
 4075SOL    HW116587  10.505   9.435   3.682 -0.5375 -0.1122  0.7404
 4075SOL    HW216588  10.366   9.446   3.741 -1.1514  0.4136 -0.7711
 4076SOL     OW16589   4.045   3.953   9.207  0.6488  0.1673  0.2980
 4076SOL    HW116590   4.053   3.952   9.112  0.4560  2.5543  0.1953
 4076SOL    HW216591   4.121   3.903   9.238  0.6192 -0.8005 -1.0794
 4077SOL     OW16592   7.254  10.682   4.754 -0.6044  0.2822  0.5578
 4077SOL    HW116593   7.258  10.596   4.712  0.5837  0.4361  0.3020
 4077SOL    HW216594   7.275  10.665   4.846 -3.3800 -0.0787  1.2046
 4078SOL     OW16595   6.039   0.216   1.574  0.1217  0.3821  0.0903
 4078SOL    HW116596   6.107   0.208   1.640 -0.2743 -0.4546  0.4163
 4078SOL    HW216597   6.079   0.183   1.493  0.1360 -0.0489  0.2684
 4079SOL     OW16598   4.451   3.809   6.977  0.0789  0.5701 -0.3522
 4079SOL    HW116599   4.418   3.891   6.940 -0.8234 -0.2780 -1.4981
 4079SOL    HW216600   4.399   3.740   6.935  1.6610 -0.6835 -0.3707
 4080SOL     OW16601   0.117   6.322   0.089 -0.4444 -0.4595  0.0963
 4080SOL    HW116602   0.107   6.378   0.012 -1.1802 -1.3836 -0.4878
 4080SOL    HW216603   0.164   6.377   0.152  1.4581 -0.1713 -1.5002
 4081SOL     OW16604   5.867   6.473   3.184  0.3038 -0.2816  0.2630
 4081SOL    HW116605   5.880   6.425   3.103  0.6932 -2.5620  1.5947
 4081SOL    HW216606   5.804   6.541   3.162  0.7996 -0.5007 -2.0454
 4082SOL     OW16607   5.295   1.694   8.614 -0.7999 -0.7483  0.0650
 4082SOL    HW116608   5.225   1.759   8.619 -1.2282 -1.2793  2.5177
 4082SOL    HW216609   5.350   1.712   8.690  0.6077 -1.6041 -0.7044
 4083SOL     OW16610   0.506   7.170   1.588 -0.0550  0.2217  0.4514
 4083SOL    HW116611   0.480   7.202   1.501 -1.3682 -0.8162  0.4132
 4083SOL    HW216612   0.538   7.081   1.571 -0.6150 -0.1008  1.0624
 4084SOL     OW16613   0.052   1.516   7.225  0.2485  0.6056 -0.2932
 4084SOL    HW116614   0.020   1.449   7.165 -0.7652  1.5905 -0.9013
 4084SOL    HW216615  -0.025   1.570   7.243  1.0080  1.5185  0.3038
 4085SOL     OW16616   7.187   9.524   0.699 -0.6453  0.1050 -0.3343
 4085SOL    HW116617   7.197   9.619   0.696 -2.1843  0.4319  2.1212
 4085SOL    HW216618   7.226   9.498   0.782  2.5770 -1.9459 -2.2751
 4086SOL     OW16619   0.396   2.411   9.290  0.3735 -0.2428 -0.2920
 4086SOL    HW116620   0.427   2.339   9.236 -2.3469 -1.1804 -0.7779
 4086SOL    HW216621   0.400   2.377   9.380  2.0296  0.2107 -0.1590
 4087SOL     OW16622   2.011   1.751   6.192  0.1362 -0.0885  0.6294
 4087SOL    HW116623   2.105   1.740   6.201  0.0599 -0.5216  0.9149
 4087SOL    HW216624   1.994   1.736   6.098  0.1469 -1.6781  0.8434
 4088SOL     OW16625   0.895   7.647   6.259 -0.5186 -0.6095 -0.4181
 4088SOL    HW116626   0.959   7.704   6.303 -0.6821  0.2224 -1.2362
 4088SOL    HW216627   0.938   7.561   6.256 -0.0169 -0.3936  0.2879
 4089SOL     OW16628   3.569   6.360   1.034  0.1709  0.0476  0.1857
 4089SOL    HW116629   3.545   6.278   0.990 -4.4493  0.4063  1.5322
 4089SOL    HW216630   3.640   6.336   1.093  0.1819 -2.5308 -0.7634
 4090SOL     OW16631   5.756   8.635   1.747 -0.4992  0.2209  0.2720
 4090SOL    HW116632   5.784   8.553   1.789 -0.4543  0.2742  0.3465
 4090SOL    HW216633   5.836   8.683   1.731 -0.2916 -0.7793 -1.9682
 4091SOL     OW16634   1.458   7.310   3.338 -0.0606  0.3321  0.1891
 4091SOL    HW116635   1.490   7.225   3.366 -0.9029 -0.8044 -2.0997
 4091SOL    HW216636   1.366   7.311   3.365 -0.4070 -0.0572 -0.9296
 4092SOL     OW16637  10.344   9.760   7.462  0.4072 -0.5790  0.0052
 4092SOL    HW116638  10.378   9.677   7.494  1.5342 -0.2800 -0.3842
 4092SOL    HW216639  10.249   9.749   7.463  0.4001 -0.8994  2.5939
 4093SOL     OW16640   1.633   4.287   8.639 -0.1643 -0.6892 -0.0691
 4093SOL    HW116641   1.544   4.263   8.613  0.3065  0.2291 -2.9194
 4093SOL    HW216642   1.688   4.224   8.593  0.7170 -0.3573  0.5151
 4094SOL     OW16643   4.444   5.572   2.990 -0.7948  0.5013  0.1249
 4094SOL    HW116644   4.460   5.640   2.924 -2.8535  1.3827  0.4644
 4094SOL    HW216645   4.492   5.602   3.067  1.7257 -0.5898 -0.9198
 4095SOL     OW16646   4.030   5.106   8.767  0.1902  0.6268 -0.2726
 4095SOL    HW116647   4.008   5.082   8.677  0.3310 -1.1710  0.1373
 4095SOL    HW216648   3.946   5.105   8.814  0.3103  0.0385 -0.0636
 4096SOL     OW16649   9.948   3.194   4.143  0.2023 -0.7927 -0.7808
 4096SOL    HW116650   9.968   3.136   4.069 -0.0862  0.9768 -2.3189
 4096SOL    HW216651   9.853   3.205   4.141  0.3642  0.6696 -1.2742
 4097SOL     OW16652   9.148   8.199   5.956  0.3862  0.0778 -0.0365
 4097SOL    HW116653   9.219   8.193   5.892 -1.4056 -1.6785 -2.0388
 4097SOL    HW216654   9.132   8.108   5.983 -2.4397  0.0452 -1.3794
 4098SOL     OW16655  10.660   1.994   0.165  0.4745 -0.4054 -0.0736
 4098SOL    HW116656  10.579   1.974   0.118 -1.1112  1.2257  1.7946
 4098SOL    HW216657  10.660   1.933   0.239  1.1907 -0.6813 -0.2949
 4099SOL     OW16658   5.740   0.742   2.792 -0.4222 -0.6125 -0.0269
 4099SOL    HW116659   5.829   0.708   2.784 -0.0417  0.5972 -1.4453
 4099SOL    HW216660   5.714   0.761   2.702 -0.4391  3.0789  0.5896
 4100SOL     OW16661   7.805   2.145   6.592 -0.0944 -0.0828  0.1189
 4100SOL    HW116662   7.839   2.137   6.681  0.2522 -0.5914 -0.0537
 4100SOL    HW216663   7.852   2.220   6.555  0.4569 -0.4546  0.0552
 4101SOL     OW16664   2.725   7.657   1.241  0.0782 -0.0623  0.5659
 4101SOL    HW116665   2.686   7.643   1.155  1.2390  1.8844 -0.3370
 4101SOL    HW216666   2.760   7.571   1.266 -0.2206 -0.6365 -0.9388
 4102SOL     OW16667   9.913   9.502  10.135  0.3577 -0.0087  0.6609
 4102SOL    HW116668   9.862   9.580  10.114 -2.6074 -2.0017 -0.2657
 4102SOL    HW216669   9.860   9.454  10.199  2.2505 -1.1400  1.4968
 4103SOL     OW16670   7.588  10.714   1.497  0.3273  0.1001  0.3296
 4103SOL    HW116671   7.617  10.726   1.587 -1.2779  1.5535  0.7165
 4103SOL    HW216672   7.609  10.797   1.453  1.5629 -0.7694 -0.8192
 4104SOL     OW16673   4.357   8.017  10.332 -0.0623  0.0111  0.1504
 4104SOL    HW116674   4.383   7.992  10.243 -0.6311 -0.8209  0.2120
 4104SOL    HW216675   4.366   8.112  10.333  2.6192 -0.1629  0.0527
 4105SOL     OW16676   4.146   7.706   5.052 -0.1546 -0.5775  0.1939
 4105SOL    HW116677   4.210   7.653   5.100  0.4828 -0.2954 -0.3281
 4105SOL    HW216678   4.104   7.760   5.120  0.7234 -0.1974  0.4533
 4106SOL     OW16679   1.255   9.327   3.990  0.5330 -0.6656 -0.0680
 4106SOL    HW116680   1.310   9.263   4.034  0.6569  1.2934  2.9094
 4106SOL    HW216681   1.179   9.338   4.048  0.0134  1.1120 -1.0138
 4107SOL     OW16682  10.039   1.433   1.317  0.0437 -0.2117 -0.0654
 4107SOL    HW116683   9.953   1.453   1.279  0.9821  0.8712 -1.7170
 4107SOL    HW216684  10.081   1.375   1.254  0.5040 -0.8593  0.8029
 4108SOL     OW16685   4.440   8.434  10.492 -0.3137 -0.3140 -0.0648
 4108SOL    HW116686   4.470   8.523  10.476 -0.0273 -0.7459 -2.2886
 4108SOL    HW216687   4.406   8.405  10.408  2.2481 -3.2747 -0.2601
 4109SOL     OW16688   1.692   9.618   7.726  0.0801 -0.2255  0.0706
 4109SOL    HW116689   1.759   9.668   7.773  0.6139  0.0687 -0.9894
 4109SOL    HW216690   1.728   9.529   7.720 -1.2581 -1.0809  2.7685
 4110SOL     OW16691   8.124   8.852   2.428  0.0827 -0.5180  0.6147
 4110SOL    HW116692   8.214   8.877   2.447  0.6457 -2.1658  0.2982
 4110SOL    HW216693   8.072   8.896   2.495  1.1693  0.0402  1.1196
 4111SOL     OW16694   8.886   9.452   3.896  0.6891 -0.4703  0.3546
 4111SOL    HW116695   8.854   9.532   3.936 -1.1455  0.4941 -2.7194
 4111SOL    HW216696   8.840   9.382   3.942  0.0950  0.4133  1.1439
 4112SOL     OW16697   4.343   5.524   6.486 -0.5822 -0.1891 -0.1973
 4112SOL    HW116698   4.300   5.587   6.544 -0.8651  0.3109 -0.9444
 4112SOL    HW216699   4.283   5.514   6.412 -0.0541 -0.5506 -0.5850
 4113SOL     OW16700   5.279   4.415   8.153 -0.2265  0.3621 -0.3419
 4113SOL    HW116701   5.364   4.436   8.115 -0.5042  0.1622 -1.0811
 4113SOL    HW216702   5.280   4.457   8.239  0.9365 -0.3261 -0.0054
 4114SOL     OW16703   5.306   4.885   6.868  0.3008  0.4509 -0.1671
 4114SOL    HW116704   5.262   4.812   6.825  2.4322 -0.3375 -1.1489
 4114SOL    HW216705   5.288   4.873   6.961  0.5943 -1.3435 -0.3101
 4115SOL     OW16706  11.010   6.622  10.370  0.3017  0.1955 -0.3035
 4115SOL    HW116707  11.039   6.680  10.300 -1.1894  1.0715 -0.2227
 4115SOL    HW216708  10.966   6.550  10.324 -1.0026  0.9563 -0.2732
 4116SOL     OW16709   9.556   9.492   5.913  0.3611  0.4546 -0.0225
 4116SOL    HW116710   9.526   9.409   5.875  1.3147 -0.2263  0.6463
 4116SOL    HW216711   9.539   9.483   6.007 -1.8748  2.0805 -0.2008
 4117SOL     OW16712   8.806   3.674   3.296 -0.1131 -0.2222 -0.1117
 4117SOL    HW116713   8.756   3.614   3.242 -0.4797  0.7933 -0.9328
 4117SOL    HW216714   8.887   3.689   3.247 -0.1405  0.1643 -0.0409
 4118SOL     OW16715   8.520   5.002   5.144 -0.4305  0.3788 -0.1729
 4118SOL    HW116716   8.477   5.086   5.125  0.5133  0.6143 -1.3504
 4118SOL    HW216717   8.608   5.026   5.174 -0.2925 -0.1828 -0.1186
 4119SOL     OW16718   8.782   3.879   7.950 -0.0532 -0.2234  0.0179
 4119SOL    HW116719   8.751   3.796   7.914 -1.1090 -0.1791  0.7717
 4119SOL    HW216720   8.847   3.854   8.015  1.1750 -0.3445 -1.2194
 4120SOL     OW16721   4.689   7.547   6.294  0.1427 -0.1164  0.4547
 4120SOL    HW116722   4.628   7.594   6.350  0.3198  0.7400 -0.0553
 4120SOL    HW216723   4.637   7.522   6.218  0.3063  0.2049  0.2342
 4121SOL     OW16724   9.516   6.590   4.298  0.6529  0.1622  0.2795
 4121SOL    HW116725   9.437   6.577   4.350  1.5275 -2.4267  1.1130
 4121SOL    HW216726   9.588   6.574   4.358  1.8066  0.9773 -0.8227
 4122SOL     OW16727   3.542   9.955   4.694  0.1802  0.2759 -0.0409
 4122SOL    HW116728   3.480   9.918   4.757 -0.1834  0.8114 -0.0782
 4122SOL    HW216729   3.616   9.984   4.747 -0.4375  1.3884  0.2357
 4123SOL     OW16730   6.262  10.391   8.415  0.3060  0.0268  0.7405
 4123SOL    HW116731   6.285  10.475   8.376 -0.4896  0.2937  0.8406
 4123SOL    HW216732   6.230  10.339   8.341  1.9920 -0.6601  0.4276
 4124SOL     OW16733   7.553   6.190   5.108 -0.1928 -0.2362  0.6496
 4124SOL    HW116734   7.571   6.097   5.096 -3.7180 -1.0932  0.7014
 4124SOL    HW216735   7.550   6.226   5.020  0.2649 -0.3756  0.5750
 4125SOL     OW16736   2.247   2.435  10.105  0.4415 -0.1610 -0.1962
 4125SOL    HW116737   2.235   2.461  10.196 -1.7444 -1.1064 -0.1664
 4125SOL    HW216738   2.167   2.462  10.061  1.1843 -0.3187 -1.7164
 4126SOL     OW16739   2.452   6.428  10.981 -0.0023 -0.0334 -0.4564
 4126SOL    HW116740   2.537   6.390  10.957  0.4183  1.3077 -1.1708
 4126SOL    HW216741   2.410   6.360  11.033  1.7890 -0.4679  0.4985
 4127SOL     OW16742   8.064   9.577   5.004  0.4107  0.0954  0.2009
 4127SOL    HW116743   7.995   9.580   4.937  1.7793 -0.6782 -1.3072
 4127SOL    HW216744   8.059   9.488   5.039  1.0687 -0.1846 -0.4008
 4128SOL     OW16745  10.948   5.083   5.847  0.5376 -0.1350  0.1164
 4128SOL    HW116746  10.957   5.059   5.755  0.1384 -2.6243  0.6608
 4128SOL    HW216747  10.969   5.003   5.895  0.4919  1.0292  2.2088
 4129SOL     OW16748  10.015   3.087   1.882 -0.7441 -0.6426 -0.3238
 4129SOL    HW116749   9.990   3.155   1.944 -2.0442 -0.9091 -0.5236
 4129SOL    HW216750  10.054   3.018   1.936  2.4222  0.9925 -0.3021
 4130SOL     OW16751   0.341   5.412   6.431  0.3043 -0.8329  0.1826
 4130SOL    HW116752   0.307   5.363   6.507 -1.7951 -1.9132 -1.3631
 4130SOL    HW216753   0.428   5.375   6.417 -0.4297 -2.7324  0.3079
 4131SOL     OW16754   6.904   6.598   3.035  0.2111 -0.6552  0.0807
 4131SOL    HW116755   6.969   6.530   3.051  2.0482  1.1036  0.5629
 4131SOL    HW216756   6.884   6.632   3.122 -0.8857 -0.7346 -0.1313
 4132SOL     OW16757   2.064   3.085   5.264  0.2539  0.6890  0.0270
 4132SOL    HW116758   2.039   3.004   5.220 -1.9821  0.5206  1.4629
 4132SOL    HW216759   2.123   3.129   5.203  0.2682 -1.2729 -1.4440
 4133SOL     OW16760   2.147   7.738   9.599  0.2386  0.2309 -0.0544
 4133SOL    HW116761   2.234   7.699   9.596 -0.2455 -0.9907  0.8077
 4133SOL    HW216762   2.162   7.832   9.603  1.4730  0.1356 -1.5707
 4134SOL     OW16763   9.464   8.273   7.794 -0.3955 -0.2478 -0.9567
 4134SOL    HW116764   9.382   8.276   7.744 -0.9144  0.8578 -0.0737
 4134SOL    HW216765   9.532   8.291   7.729 -0.8953 -0.5494 -1.5823
 4135SOL     OW16766   5.946   7.873   2.457  0.0245 -0.0274  0.6631
 4135SOL    HW116767   5.947   7.778   2.463  0.1660  0.0138  1.3379
 4135SOL    HW216768   6.012   7.893   2.391 -0.2224 -0.4091  0.2950
 4136SOL     OW16769   9.767   3.247   4.495  0.4841  0.1649 -0.1935
 4136SOL    HW116770   9.752   3.312   4.426 -1.8439 -1.3874 -1.2918
 4136SOL    HW216771   9.816   3.294   4.563 -0.1568  2.7367 -1.4035
 4137SOL     OW16772   7.299   5.853   7.117  0.3240 -0.5685  0.7544
 4137SOL    HW116773   7.378   5.837   7.065  0.3597 -0.0548  0.6464
 4137SOL    HW216774   7.229   5.810   7.067  0.3549 -0.0644  0.2721
 4138SOL     OW16775   5.340   6.559   0.966 -0.4525  0.1634  0.1644
 4138SOL    HW116776   5.434   6.542   0.973 -0.4760 -0.7053 -1.3410
 4138SOL    HW216777   5.324   6.631   1.028  0.9060 -0.7115  1.6211
 4139SOL     OW16778  10.661   6.418  11.104 -0.7269 -0.3332  0.0461
 4139SOL    HW116779  10.724   6.430  11.034 -0.4237  0.2300  0.4034
 4139SOL    HW216780  10.641   6.324  11.104 -1.7417 -0.1452 -1.6423
 4140SOL     OW16781   5.430   9.646   2.254 -0.1632  0.0579  0.4283
 4140SOL    HW116782   5.500   9.648   2.189  0.0746 -0.9243  0.6285
 4140SOL    HW216783   5.373   9.719   2.230  0.4913  0.3692 -0.2326
 4141SOL     OW16784   7.292  10.857   3.391 -0.3632  0.0925 -0.3571
 4141SOL    HW116785   7.283  10.778   3.337  0.2732 -0.3831  0.2192
 4141SOL    HW216786   7.239  10.923   3.346 -1.2227 -0.7683 -0.6443
 4142SOL     OW16787   2.464   8.966   6.762 -0.1097  0.4330 -0.4714
 4142SOL    HW116788   2.406   8.926   6.828  0.7401  0.8893  0.5928
 4142SOL    HW216789   2.510   8.891   6.724 -0.8850  0.1281 -0.8445
 4143SOL     OW16790   7.981   0.828   6.923 -0.0008  0.5586 -0.3500
 4143SOL    HW116791   8.011   0.777   6.847 -1.2209 -0.3807 -0.2426
 4143SOL    HW216792   7.886   0.833   6.912 -0.1209  1.0054  0.7641
 4144SOL     OW16793   2.324  11.083   5.451 -0.9341 -0.1652 -0.3679
 4144SOL    HW116794   2.368  11.160   5.488  0.5246 -0.4499 -1.4081
 4144SOL    HW216795   2.238  11.083   5.492 -0.8379  1.8062 -0.0431
 4145SOL     OW16796   2.524   3.279   7.639  0.7978 -0.4803  0.0211
 4145SOL    HW116797   2.465   3.281   7.564  0.8395  0.8000  0.0016
 4145SOL    HW216798   2.528   3.370   7.669 -1.1008 -1.2716  3.0699
 4146SOL     OW16799   5.573   1.456   0.789  0.4846  0.2338 -0.2369
 4146SOL    HW116800   5.612   1.506   0.861 -1.4863 -1.0089  1.8020
 4146SOL    HW216801   5.498   1.508   0.762 -0.5516 -0.7190  0.7177
 4147SOL     OW16802   1.642  10.119   9.681 -0.2160  0.3466 -0.0284
 4147SOL    HW116803   1.711  10.150   9.622 -0.5089 -1.0192 -1.1524
 4147SOL    HW216804   1.560  10.138   9.635 -0.6157  1.6981  1.1724
 4148SOL     OW16805   5.397   6.571   9.638  0.2557 -0.0778 -0.3824
 4148SOL    HW116806   5.342   6.627   9.692  0.1897 -0.6358  0.1392
 4148SOL    HW216807   5.486   6.598   9.659  0.3172 -1.4650  1.3615
 4149SOL     OW16808   1.929   5.394   7.652 -0.6710 -0.1299 -0.2805
 4149SOL    HW116809   1.888   5.319   7.609  0.4701  0.2428 -2.1060
 4149SOL    HW216810   1.857   5.436   7.700 -1.7495 -1.2174 -0.8833
 4150SOL     OW16811   8.576   8.709   9.280  0.3140  0.2966  0.3171
 4150SOL    HW116812   8.641   8.749   9.338 -1.3132  1.4402  1.4406
 4150SOL    HW216813   8.495   8.708   9.331 -0.6798 -0.6424 -1.1998
 4151SOL     OW16814   0.922   5.905   8.074  0.0654 -0.1954 -0.5886
 4151SOL    HW116815   0.848   5.952   8.036 -0.6122  0.4787  1.4116
 4151SOL    HW216816   0.984   5.895   8.002 -1.5224  0.1306 -2.0725
 4152SOL     OW16817   1.088   8.474   8.177  0.0468 -0.5036 -0.0203
 4152SOL    HW116818   1.105   8.499   8.268  0.4870 -0.6149 -0.0719
 4152SOL    HW216819   1.167   8.428   8.149 -1.2787 -3.4050  0.5640
 4153SOL     OW16820   5.457   2.147   9.411  0.7090 -0.5526  0.2504
 4153SOL    HW116821   5.458   2.169   9.505 -0.6574  0.9470 -0.0452
 4153SOL    HW216822   5.480   2.229   9.367  0.9923 -1.1534 -0.7516
 4154SOL     OW16823   5.560   2.225   4.468  0.0784  0.3270  0.3631
 4154SOL    HW116824   5.567   2.303   4.522  1.4561  0.2339  0.3713
 4154SOL    HW216825   5.641   2.225   4.416  0.1073 -1.0739  0.3599
 4155SOL     OW16826   0.701   6.453   1.294  0.1308 -0.4272 -0.2188
 4155SOL    HW116827   0.675   6.428   1.383  3.2967 -1.7719  0.4586
 4155SOL    HW216828   0.632   6.513   1.265 -2.4688 -2.0427  2.0494
 4156SOL     OW16829   5.017   7.797   2.898 -0.1475  0.3962 -0.5523
 4156SOL    HW116830   5.087   7.746   2.858  0.7651  0.8205  0.4763
 4156SOL    HW216831   5.061   7.858   2.957 -1.4073  0.1460  0.7250
 4157SOL     OW16832   0.241   1.129   8.708  0.6671 -0.2694  0.3889
 4157SOL    HW116833   0.246   1.105   8.801  0.3044 -0.0162  0.4759
 4157SOL    HW216834   0.150   1.155   8.695  0.5083 -1.0779 -0.2334
 4158SOL     OW16835   1.692   3.813   7.817 -0.5359 -0.0602  0.0804
 4158SOL    HW116836   1.780   3.791   7.789 -0.9159 -1.0421 -0.4021
 4158SOL    HW216837   1.673   3.897   7.776  0.5766  0.7083  1.1016
 4159SOL     OW16838   4.541   4.325   6.180 -0.1286 -0.1259 -0.1358
 4159SOL    HW116839   4.560   4.400   6.235 -0.1295  0.4853 -0.9516
 4159SOL    HW216840   4.534   4.251   6.241  3.8802 -0.2983  0.3859
 4160SOL     OW16841   2.053   9.401   4.283 -0.0816  0.2124 -0.3451
 4160SOL    HW116842   2.062   9.317   4.237 -2.0095 -1.4555  2.0348
 4160SOL    HW216843   2.137   9.413   4.327 -0.1235 -1.0791  0.1383
 4161SOL     OW16844   7.233   1.406   6.280  0.7298  0.5347  0.7108
 4161SOL    HW116845   7.302   1.386   6.217 -0.7353  0.9345 -1.1122
 4161SOL    HW216846   7.248   1.344   6.352  1.0282 -1.6567 -1.1188
 4162SOL     OW16847   3.507   2.899   5.111 -0.2475  1.1472  0.0279
 4162SOL    HW116848   3.516   2.842   5.034 -1.8840 -0.3939  0.8870
 4162SOL    HW216849   3.596   2.910   5.144  0.2128 -0.2902 -0.6429
 4163SOL     OW16850   7.612   8.386   7.694  0.2593 -0.7265 -0.3240
 4163SOL    HW116851   7.688   8.439   7.669  0.1050  0.1406  0.9543
 4163SOL    HW216852   7.625   8.303   7.648  1.3250 -0.1463 -1.1226
 4164SOL     OW16853   2.678   9.513   7.293 -0.3317 -0.1772  0.1757
 4164SOL    HW116854   2.678   9.608   7.283 -1.3084 -0.3259 -1.8099
 4164SOL    HW216855   2.610   9.496   7.358 -1.6311  0.4239 -0.9598
 4165SOL     OW16856   3.226   6.055   5.312 -0.3065 -0.1234 -0.3206
 4165SOL    HW116857   3.320   6.069   5.307 -0.1165 -0.8391  0.9064
 4165SOL    HW216858   3.191   6.137   5.346  0.0336 -0.2897  0.4533
 4166SOL     OW16859   2.354   0.695   7.316 -0.2683 -0.0047  0.5185
 4166SOL    HW116860   2.419   0.664   7.253 -0.9853  1.3599 -0.9720
 4166SOL    HW216861   2.395   0.771   7.357  0.0285 -0.6392  1.4402
 4167SOL     OW16862   0.671   3.439   1.397  0.0280 -0.3326 -0.2394
 4167SOL    HW116863   0.686   3.509   1.334 -1.7532  2.2756  1.9776
 4167SOL    HW216864   0.576   3.426   1.397  0.2005 -1.8781  0.3248
 4168SOL     OW16865   7.105   9.619  10.926 -0.1676 -0.5683  0.2300
 4168SOL    HW116866   7.140   9.530  10.929  0.5871 -0.2954 -0.2386
 4168SOL    HW216867   7.173   9.670  10.883 -0.4219  0.3244  0.8681
 4169SOL     OW16868   7.937  10.059   6.087  0.1705  0.3499 -0.2681
 4169SOL    HW116869   7.877  10.054   6.013  2.2391 -0.1727 -2.0052
 4169SOL    HW216870   8.019  10.092   6.050  2.3973 -3.1475  0.9943
 4170SOL     OW16871  10.479   6.423  10.789 -0.1167  0.0918 -0.5884
 4170SOL    HW116872  10.391   6.422  10.828 -0.2284 -0.9902 -0.8359
 4170SOL    HW216873  10.480   6.347  10.731  1.8082 -1.4144  1.2738
 4171SOL     OW16874  10.861   3.283   1.982 -0.0219  0.2161 -0.0737
 4171SOL    HW116875  10.868   3.241   2.068 -0.3159 -2.7462 -1.3789
 4171SOL    HW216876  10.951   3.301   1.956  0.0334  2.8004  1.4734
 4172SOL     OW16877   4.284   7.392  10.077 -0.1742 -0.0447 -0.3498
 4172SOL    HW116878   4.267   7.462  10.014  1.3392 -1.5746 -2.5830
 4172SOL    HW216879   4.197   7.362  10.103 -0.9119 -0.1700 -2.6943
 4173SOL     OW16880   3.838   4.818   9.034  0.0893 -0.2612 -0.1434
 4173SOL    HW116881   3.914   4.796   9.087  0.2321  1.1546  0.2883
 4173SOL    HW216882   3.866   4.804   8.944 -0.0477 -2.3676  0.0845
 4174SOL     OW16883   7.811   6.504   1.032 -0.6151  0.2231  0.3085
 4174SOL    HW116884   7.842   6.590   1.001 -0.7547  0.5544  1.0574
 4174SOL    HW216885   7.888   6.447   1.025 -0.0868  0.7896  1.2079
 4175SOL     OW16886   6.172   7.536   3.269  0.5154 -0.4317  0.0464
 4175SOL    HW116887   6.146   7.457   3.316  0.8987 -0.0696  0.8868
 4175SOL    HW216888   6.267   7.542   3.282  0.4907  0.1631 -0.0115
 4176SOL     OW16889   5.156   3.467   9.409 -0.2942 -0.5394 -0.5199
 4176SOL    HW116890   5.217   3.410   9.361 -0.1066  0.2192 -1.2114
 4176SOL    HW216891   5.149   3.427   9.495  0.2883 -1.2845 -0.8006
 4177SOL     OW16892   1.388   5.579   5.285  0.2042  0.3921 -0.1633
 4177SOL    HW116893   1.430   5.640   5.344 -0.0825 -0.0452  0.5017
 4177SOL    HW216894   1.412   5.493   5.317 -1.7439  0.1044  0.6924
 4178SOL     OW16895   1.967   3.723   1.492  0.5552  0.1343  0.2110
 4178SOL    HW116896   1.878   3.737   1.460  0.1792 -0.9921  0.7246
 4178SOL    HW216897   2.020   3.719   1.413 -0.0304 -0.3722 -0.1648
 4179SOL     OW16898   7.396   9.404   0.869  0.3200  0.2468  0.3157
 4179SOL    HW116899   7.439   9.419   0.785 -2.0982  0.7286 -0.9311
 4179SOL    HW216900   7.440   9.462   0.930 -0.4981  3.0587 -1.5857
 4180SOL     OW16901   4.679   4.356   9.631  0.4579 -0.5683 -0.2778
 4180SOL    HW116902   4.626   4.429   9.599 -1.0519 -1.2960  0.4410
 4180SOL    HW216903   4.641   4.279   9.588  0.2524 -1.2189  1.0297
 4181SOL     OW16904   8.538   8.751   0.300  0.0249 -0.1190 -0.2519
 4181SOL    HW116905   8.542   8.665   0.258 -1.2798 -0.1118 -0.4286
 4181SOL    HW216906   8.456   8.750   0.349  0.7466  0.4746  0.9995
 4182SOL     OW16907   4.555  10.397   4.046  0.3834 -0.4752 -0.2605
 4182SOL    HW116908   4.638  10.397   4.094  0.6408 -1.8525 -0.6329
 4182SOL    HW216909   4.519  10.484   4.059  1.2722 -0.2643  0.9893
 4183SOL     OW16910   0.510   2.785  10.248  0.1429  0.0549 -0.4254
 4183SOL    HW116911   0.427   2.828  10.228  0.3746  0.1980 -1.0989
 4183SOL    HW216912   0.574   2.856  10.249  0.1225  0.0978  1.0824
 4184SOL     OW16913   4.107  10.262  11.023 -0.2666 -0.1012  0.5253
 4184SOL    HW116914   4.129  10.347  11.060 -0.6532 -0.0685  0.6805
 4184SOL    HW216915   4.171  10.249  10.952 -0.8708  0.7920 -0.2072
 4185SOL     OW16916   3.016   2.876   6.441 -0.9459 -0.6956  0.2177
 4185SOL    HW116917   2.992   2.882   6.534  0.8210 -1.4374  0.7649
 4185SOL    HW216918   3.103   2.915   6.436 -0.8736 -0.9718 -1.0749
 4186SOL     OW16919  10.602   9.417   4.576 -0.0786  0.2106 -0.1040
 4186SOL    HW116920  10.654   9.392   4.500 -0.4887  0.9727 -0.6457
 4186SOL    HW216921  10.632   9.505   4.598 -0.5955  0.3489  0.0596
 4187SOL     OW16922   2.541   6.246  10.052 -0.2203  0.6831 -0.3009
 4187SOL    HW116923   2.470   6.290  10.099  0.4162  0.4721  0.8894
 4187SOL    HW216924   2.519   6.153  10.054 -0.4314  0.7177 -0.8488
 4188SOL     OW16925  10.757   9.953   1.218 -0.0078 -0.0137  0.2302
 4188SOL    HW116926  10.729   9.902   1.142  1.3935  0.0079 -0.3459
 4188SOL    HW216927  10.850   9.972   1.201  0.1792  0.5101  1.6659
 4189SOL     OW16928   4.587   5.356   6.291  0.0397  0.3752 -0.5720
 4189SOL    HW116929   4.666   5.308   6.315 -0.0711  0.9518  1.1352
 4189SOL    HW216930   4.615   5.448   6.290 -1.0949  0.9313  2.9302
 4190SOL     OW16931   9.234   1.080   0.761  0.5596 -0.2234  0.1732
 4190SOL    HW116932   9.256   1.077   0.668  1.3646  2.0637  0.2180
 4190SOL    HW216933   9.318   1.073   0.805  0.5618  1.7579  0.5785
 4191SOL     OW16934   8.961   5.782   6.987 -0.7815 -0.2045 -0.3481
 4191SOL    HW116935   9.004   5.754   7.068 -0.6670 -2.3456 -1.0868
 4191SOL    HW216936   8.915   5.862   7.011  0.8934  0.3438  1.3105
 4192SOL     OW16937   6.757   4.145   9.384 -0.3786 -0.2020 -0.8603
 4192SOL    HW116938   6.803   4.172   9.304 -0.2974  5.2590  0.6503
 4192SOL    HW216939   6.827   4.132   9.449 -0.5834  2.3422 -0.0422
 4193SOL     OW16940   5.671   1.507   8.884 -0.1329 -0.0575  0.4095
 4193SOL    HW116941   5.712   1.429   8.849 -0.3411  0.2916 -0.6456
 4193SOL    HW216942   5.648   1.484   8.974  0.2279 -1.0402  0.2612
 4194SOL     OW16943   1.266   3.073   2.503 -0.0866 -0.5195 -0.9184
 4194SOL    HW116944   1.222   3.027   2.432 -0.0995 -1.6837 -0.1989
 4194SOL    HW216945   1.209   3.060   2.579  0.0884  0.4067 -0.6183
 4195SOL     OW16946   4.404   4.693   4.252 -0.0199 -0.5081 -0.0900
 4195SOL    HW116947   4.418   4.776   4.206  0.5058  0.0708  1.0622
 4195SOL    HW216948   4.459   4.700   4.330  0.9728 -2.4314 -0.5420
 4196SOL     OW16949   5.136   3.488   5.942  0.0444 -0.2710  0.2711
 4196SOL    HW116950   5.122   3.550   5.870 -0.2912 -0.2993  0.3101
 4196SOL    HW216951   5.208   3.432   5.912 -1.2756 -1.4522 -0.8421
 4197SOL     OW16952  10.587   8.507  10.744  0.7075  0.0525 -1.1017
 4197SOL    HW116953  10.652   8.575  10.762  0.6123 -0.1417  0.0417
 4197SOL    HW216954  10.512   8.530  10.798  0.2460 -0.3546 -1.5521
 4198SOL     OW16955   5.260   7.995   9.631  0.9202 -0.4958 -0.1257
 4198SOL    HW116956   5.219   7.948   9.558  0.3586 -0.2235  0.0095
 4198SOL    HW216957   5.338   8.036   9.593 -0.6190  1.6246 -1.1613
 4199SOL     OW16958   6.351   8.902   4.351 -0.4997 -0.2518 -0.1512
 4199SOL    HW116959   6.372   8.834   4.416  1.9961 -0.1869 -0.7892
 4199SOL    HW216960   6.397   8.874   4.272 -0.6876  1.4165 -0.8777
 4200SOL     OW16961   1.108   9.249   6.763 -0.2075 -0.1617  0.2006
 4200SOL    HW116962   1.024   9.292   6.781 -0.2317  0.6117 -1.5397
 4200SOL    HW216963   1.091   9.156   6.779 -1.5572 -0.0834 -0.5856
 4201SOL     OW16964   0.203   8.733   9.890  0.1789 -0.2935 -0.0085
 4201SOL    HW116965   0.218   8.640   9.909  0.0563 -0.3923 -0.3937
 4201SOL    HW216966   0.125   8.755   9.940 -0.0318 -0.5026 -0.2461
 4202SOL     OW16967  10.855   6.497   8.863 -0.7958  0.1953 -0.3656
 4202SOL    HW116968  10.824   6.466   8.948  1.6292 -0.2286  0.4472
 4202SOL    HW216969  10.853   6.592   8.870 -1.1496  0.1679 -0.0590
 4203SOL     OW16970   8.312   7.960   5.899 -0.2193 -0.0391 -0.0976
 4203SOL    HW116971   8.241   7.901   5.926  3.2845 -3.2480  3.5047
 4203SOL    HW216972   8.341   7.925   5.815 -0.5729 -1.1786  0.2226
 4204SOL     OW16973   7.140   3.341   0.055 -0.3439  0.3721  0.3571
 4204SOL    HW116974   7.194   3.325  -0.023 -0.6650  0.7683  0.0490
 4204SOL    HW216975   7.183   3.292   0.124 -0.1943 -0.1996 -0.1302
 4205SOL     OW16976   1.413   5.839   3.713  0.0833 -0.1724  0.6352
 4205SOL    HW116977   1.359   5.762   3.730 -1.0458  0.1762 -1.1611
 4205SOL    HW216978   1.351   5.911   3.706  1.0531  0.7789  1.4368
 4206SOL     OW16979   2.202   0.796   5.143 -0.2905 -0.5217 -0.3809
 4206SOL    HW116980   2.199   0.819   5.050  3.1794 -0.6759 -0.6806
 4206SOL    HW216981   2.219   0.879   5.188  0.8870 -0.8289 -0.2293
 4207SOL     OW16982   7.893   3.598  10.768 -0.1709  0.4031 -0.0726
 4207SOL    HW116983   7.965   3.633  10.715  0.0228 -0.2961 -0.2844
 4207SOL    HW216984   7.868   3.517  10.723  0.0793 -0.2751  0.9673
 4208SOL     OW16985  10.941   4.559   7.708  0.1051 -1.1815  0.2830
 4208SOL    HW116986  10.868   4.542   7.766 -0.7235 -0.5769 -0.5510
 4208SOL    HW216987  10.973   4.646   7.734  0.4257 -1.3736  0.5369
 4209SOL     OW16988   7.777   7.537   1.471  0.0363 -0.1151  0.6177
 4209SOL    HW116989   7.737   7.487   1.399  0.5723  0.5139 -0.1373
 4209SOL    HW216990   7.865   7.501   1.479  1.1861  1.9997 -1.3352
 4210SOL     OW16991   2.658   8.897   8.832  0.3630  0.6161  0.0004
 4210SOL    HW116992   2.754   8.905   8.824  0.4723  0.1186  0.7261
 4210SOL    HW216993   2.643   8.805   8.852 -0.4366  0.2273 -2.1012
 4211SOL     OW16994   0.831   3.175   5.010  0.0352  0.0962 -0.2448
 4211SOL    HW116995   0.816   3.163   5.103 -2.4062  0.2391 -0.5630
 4211SOL    HW216996   0.925   3.157   4.998  0.5606  0.8242  2.3082
 4212SOL     OW16997   2.646   8.986   0.995 -0.1489 -0.0473  0.8308
 4212SOL    HW116998   2.558   8.982   0.958 -0.4152 -2.3180  1.5355
 4212SOL    HW216999   2.701   8.942   0.930 -0.0391 -1.0323  1.5618
 4213SOL     OW17000   6.803   0.632   2.890 -0.4954 -0.1312  0.8014
 4213SOL    HW117001   6.842   0.698   2.833  0.0657 -0.8828  0.2975
 4213SOL    HW217002   6.818   0.549   2.845 -0.6386 -0.6713  1.7252
 4214SOL     OW17003   9.758   4.406   3.562  0.6973  0.1880  0.2237
 4214SOL    HW117004   9.758   4.364   3.648  2.5428 -0.6135 -0.1317
 4214SOL    HW217005   9.746   4.335   3.500  3.0172  0.2174 -0.3423
 4215SOL     OW17006   4.303  10.986  10.293  0.2350  0.4790 -0.5263
 4215SOL    HW117007   4.249  11.000  10.371  0.3105  0.5979 -0.4967
 4215SOL    HW217008   4.392  11.005  10.321  0.2838  0.3603 -0.5984
 4216SOL     OW17009   3.845   0.322   2.140  0.2683 -0.2516 -0.0557
 4216SOL    HW117010   3.776   0.368   2.189  0.7228  1.7909 -1.2313
 4216SOL    HW217011   3.895   0.391   2.098  1.1764 -1.8321 -1.7240
 4217SOL     OW17012   3.248   6.773   6.437  0.1675 -1.2670 -0.0474
 4217SOL    HW117013   3.214   6.846   6.385 -1.4058 -1.5089  0.6111
 4217SOL    HW217014   3.171   6.734   6.479  1.1330 -2.4844  0.6753
 4218SOL     OW17015   8.469   6.971   5.124 -0.2468  0.6433 -0.6494
 4218SOL    HW117016   8.448   6.887   5.082  0.6559  0.3144 -0.4745
 4218SOL    HW217017   8.560   6.987   5.100 -0.4658  1.6737 -0.8275
 4219SOL     OW17018  11.057   3.020   0.615 -0.2174 -0.2214  0.2029
 4219SOL    HW117019  11.046   3.114   0.628 -0.3184 -0.3729  1.2907
 4219SOL    HW217020  10.980   2.993   0.565 -0.9840  0.0233  1.2266
 4220SOL     OW17021   1.078   8.302   3.947 -0.2725  0.4449  0.3148
 4220SOL    HW117022   0.985   8.286   3.931 -0.4651  1.2210  0.6131
 4220SOL    HW217023   1.094   8.267   4.034 -0.3626  0.5887  0.3901
 4221SOL     OW17024   5.630   5.339   7.925  0.0540  0.0884 -0.5606
 4221SOL    HW117025   5.725   5.335   7.930  0.0684 -0.3880 -1.1085
 4221SOL    HW217026   5.611   5.347   7.831 -0.4078  1.4646 -0.3745
 4222SOL     OW17027   6.792   7.676  10.557  0.0861  0.0025 -0.5133
 4222SOL    HW117028   6.723   7.704  10.496  0.5700  2.0911 -0.1706
 4222SOL    HW217029   6.760   7.704  10.643  1.6626  1.7048 -0.4368
 4223SOL     OW17030   0.552   6.981   0.176 -0.0433 -0.1390  0.5174
 4223SOL    HW117031   0.577   6.990   0.268 -0.0867  0.7648  0.4458
 4223SOL    HW217032   0.471   7.031   0.168 -0.3560 -0.6988  0.1097
 4224SOL     OW17033   9.179   3.070   7.591  0.1008  0.3668 -0.1416
 4224SOL    HW117034   9.096   3.104   7.558  0.4473  1.2250 -0.1745
 4224SOL    HW217035   9.224   3.037   7.513 -0.5727 -0.9254  0.0031
 4225SOL     OW17036   2.459  10.813   1.299  0.3096 -0.2391 -0.3884
 4225SOL    HW117037   2.426  10.740   1.246  0.6628 -0.1061 -0.7913
 4225SOL    HW217038   2.492  10.876   1.236  0.6343 -0.0284 -0.0116
 4226SOL     OW17039   5.389   7.719  10.770  0.1855  0.3895 -0.2100
 4226SOL    HW117040   5.423   7.651  10.828 -0.5943 -1.0091 -1.3045
 4226SOL    HW217041   5.335   7.671  10.707  0.6284  1.8984 -1.8032
 4227SOL     OW17042   9.834   4.002   8.664 -0.3538  0.4245  0.2734
 4227SOL    HW117043   9.910   4.040   8.620 -0.3170 -0.2650 -0.2666
 4227SOL    HW217044   9.809   3.927   8.610 -1.0652  0.2971  0.7591
 4228SOL     OW17045   9.325   4.067   7.145 -0.8236  0.8091  0.3024
 4228SOL    HW117046   9.406   4.108   7.175 -0.4956  0.6029 -0.2852
 4228SOL    HW217047   9.317   3.988   7.198  0.0666  0.1357 -0.5375
 4229SOL     OW17048   6.871   3.232   5.449  0.1381 -0.4051  0.0528
 4229SOL    HW117049   6.780   3.212   5.426 -0.7034  0.1492  2.6416
 4229SOL    HW217050   6.875   3.327   5.450  0.9093 -0.4230 -0.5332
 4230SOL     OW17051   5.216   1.270   7.916  0.5429  0.1340  0.2369
 4230SOL    HW117052   5.172   1.304   7.838  1.7895 -0.4664 -0.7566
 4230SOL    HW217053   5.306   1.300   7.908  0.6724  0.1393  1.5118
 4231SOL     OW17054  11.008   5.378   8.292  0.1887 -0.8309  0.7626
 4231SOL    HW117055  10.999   5.295   8.245  0.4911 -2.3957  3.2743
 4231SOL    HW217056  11.019   5.353   8.384  1.4408  1.9551  1.4994
 4232SOL     OW17057   2.273   1.395   9.647  0.3519 -0.1843 -0.2007
 4232SOL    HW117058   2.315   1.310   9.665  0.5094  0.0857  0.7825
 4232SOL    HW217059   2.326   1.434   9.578  0.8740 -0.4701  0.0313
 4233SOL     OW17060   7.333   6.486   7.389 -0.0786 -0.2916  0.4141
 4233SOL    HW117061   7.344   6.487   7.484 -0.0669 -0.7821  0.4209
 4233SOL    HW217062   7.398   6.422   7.359 -0.4432 -0.5246  0.1259
 4234SOL     OW17063   4.632   8.952  10.786  0.2267 -0.0034 -0.4414
 4234SOL    HW117064   4.572   8.878  10.792 -1.0425  1.0435  0.4698
 4234SOL    HW217065   4.660   8.966  10.877  0.3850  0.6813 -0.5961
 4235SOL     OW17066   5.743   0.118   9.928  0.3407 -0.0556 -0.0679
 4235SOL    HW117067   5.696   0.198   9.950 -0.7086 -0.4328 -0.8507
 4235SOL    HW217068   5.733   0.109   9.834 -1.2891 -2.1179  0.2042
 4236SOL     OW17069   3.214   5.735   1.938  0.5850  0.1721  0.3984
 4236SOL    HW117070   3.299   5.690   1.942  0.6013 -0.2291 -2.3490
 4236SOL    HW217071   3.149   5.665   1.936  0.0794  0.4812  2.8793
 4237SOL     OW17072   7.403   8.609  10.485  0.6943 -0.4424  0.2261
 4237SOL    HW117073   7.410   8.650  10.572 -3.3307 -0.8253  0.9609
 4237SOL    HW217074   7.441   8.522  10.497  1.0267 -0.1713  1.3334
 4238SOL     OW17075   1.383   1.951   6.307  0.0694  0.0529 -0.1749
 4238SOL    HW117076   1.366   2.025   6.248 -0.8877 -0.1504 -0.1802
 4238SOL    HW217077   1.462   1.975   6.354 -0.1738  1.0465 -0.2424
 4239SOL     OW17078   7.694   1.665   1.871  0.3078 -0.2280  0.2156
 4239SOL    HW117079   7.751   1.625   1.805  0.2702 -0.2233  0.1800
 4239SOL    HW217080   7.609   1.623   1.857 -0.2381  1.2100 -1.0745
 4240SOL     OW17081   8.378   3.537   4.103  0.9134  0.1588 -0.2324
 4240SOL    HW117082   8.370   3.473   4.174 -0.0412 -1.7084 -1.9225
 4240SOL    HW217083   8.472   3.540   4.084  0.8717 -2.0195 -1.1416
 4241SOL     OW17084   6.322   8.813   8.245 -0.6203 -0.5108  0.4816
 4241SOL    HW117085   6.248   8.846   8.296 -0.9992 -1.5810  0.6412
 4241SOL    HW217086   6.281   8.771   8.169 -0.0467  1.9990 -1.3628
 4242SOL     OW17087   6.247   9.562   5.139  0.4472 -0.3259 -0.1335
 4242SOL    HW117088   6.282   9.537   5.053  0.9468 -1.2243  0.3229
 4242SOL    HW217089   6.164   9.515   5.145 -0.5156  1.1852 -0.8796
 4243SOL     OW17090   0.937   4.848   5.247  0.5994  0.4417  0.6775
 4243SOL    HW117091   0.868   4.910   5.269 -0.7005 -0.0740 -1.6200
 4243SOL    HW217092   0.914   4.768   5.294  1.4771  1.1877  2.4764
 4244SOL     OW17093   4.540   1.427   4.842  0.3593 -0.9253  0.1165
 4244SOL    HW117094   4.570   1.501   4.896 -1.0946 -0.3809  0.2311
 4244SOL    HW217095   4.560   1.454   4.752  0.4615 -0.6827  0.2098
 4245SOL     OW17096   2.516  10.370   7.174  0.4324  0.4946 -0.4277
 4245SOL    HW117097   2.532  10.459   7.206 -1.0962  0.4890  0.4674
 4245SOL    HW217098   2.455  10.381   7.102 -1.0532  0.1214  0.7070
 4246SOL     OW17099   2.528   9.911   2.933 -0.7867 -0.0377  0.0770
 4246SOL    HW117100   2.523   9.857   3.012 -3.0724  0.6660  0.4987
 4246SOL    HW217101   2.555   9.997   2.965  1.3069 -0.4741 -0.3815
 4247SOL     OW17102   6.373   5.522   8.225 -0.5492 -0.3582 -0.7817
 4247SOL    HW117103   6.290   5.476   8.215 -0.3246 -0.9090 -0.1654
 4247SOL    HW217104   6.352   5.597   8.280 -0.7508 -0.1791 -1.1010
 4248SOL     OW17105   4.993   1.036   2.770  0.0713 -0.1443  0.0751
 4248SOL    HW117106   5.021   1.123   2.742 -1.2864  0.6003  0.8973
 4248SOL    HW217107   5.063   1.005   2.827 -0.2756  1.2800  1.3609
 4249SOL     OW17108   0.220   8.778   0.288  0.0498 -0.7393  0.2315
 4249SOL    HW117109   0.157   8.733   0.343 -0.0219 -1.3190 -0.3104
 4249SOL    HW217110   0.178   8.861   0.266 -1.6891 -2.1499 -2.2269
 4250SOL     OW17111   4.594   8.372   9.288 -0.2449  0.2045  0.3306
 4250SOL    HW117112   4.585   8.377   9.193 -0.9132 -1.5453  0.2731
 4250SOL    HW217113   4.551   8.451   9.321  1.3774  1.6511 -0.8543
 4251SOL     OW17114   0.609   5.838   5.140  0.0344 -0.0067  0.0659
 4251SOL    HW117115   0.699   5.809   5.134  0.2218  0.3616  0.9552
 4251SOL    HW217116   0.559   5.759   5.159  0.3579  0.0161  1.0402
 4252SOL     OW17117   5.806   8.407   5.191  1.2071  0.3348 -0.5399
 4252SOL    HW117118   5.881   8.452   5.228  1.4377 -0.6543  0.2459
 4252SOL    HW217119   5.806   8.321   5.234 -0.5270  0.4149 -0.3097
 4253SOL     OW17120   9.268   3.596   0.096  0.2720 -0.5390 -0.1514
 4253SOL    HW117121   9.297   3.601   0.004  0.5087  1.9971 -0.0252
 4253SOL    HW217122   9.226   3.681   0.111  0.3399 -0.8709  2.1247
 4254SOL     OW17123  10.618   3.975   0.612 -0.4821  0.2649 -0.5041
 4254SOL    HW117124  10.648   4.026   0.537 -0.9043 -1.0000 -1.5732
 4254SOL    HW217125  10.556   3.911   0.575  0.4052 -1.3612  0.6645
 4255SOL     OW17126   5.362   4.157   2.664 -0.1672 -0.3269  0.2629
 4255SOL    HW117127   5.426   4.086   2.653 -0.0403 -0.3224  0.9085
 4255SOL    HW217128   5.295   4.119   2.721 -0.2795 -0.0451  0.3197
 4256SOL     OW17129   8.452   0.795   6.439  0.0051 -0.4922  0.1035
 4256SOL    HW117130   8.470   0.889   6.429  0.2910 -0.6133 -0.5789
 4256SOL    HW217131   8.402   0.772   6.361  2.0659 -1.4297 -1.0142
 4257SOL     OW17132   5.329   9.090   7.079 -0.5627 -0.4098 -0.1865
 4257SOL    HW117133   5.333   9.105   6.985 -1.0262  1.7506  0.0870
 4257SOL    HW217134   5.238   9.068   7.096 -0.1546 -2.4803 -0.4059
 4258SOL     OW17135   6.602   3.148   6.087 -0.2760 -0.0995  0.4218
 4258SOL    HW117136   6.628   3.059   6.108  0.5923 -0.0004 -0.1723
 4258SOL    HW217137   6.678   3.185   6.043 -1.2081  0.4101 -0.8141
 4259SOL     OW17138   7.906   9.208   7.415 -0.2685  0.8532  0.2305
 4259SOL    HW117139   7.865   9.249   7.491 -0.1385  0.4848  0.5075
 4259SOL    HW217140   7.837   9.155   7.377  0.1824 -0.5765  1.2907
 4260SOL     OW17141   1.086   9.954   3.629  1.0535 -0.1857  0.3184
 4260SOL    HW117142   1.014  10.012   3.653  2.4221  1.4091  0.7809
 4260SOL    HW217143   1.111   9.981   3.541 -0.7735 -2.7566 -1.1399
 4261SOL     OW17144  11.108   3.983  11.010 -0.4058  0.8082  0.3207
 4261SOL    HW117145  11.139   4.047  11.074  1.2330  0.8776 -0.4975
 4261SOL    HW217146  11.075   4.035  10.937  0.5464  0.7480 -0.1691
 4262SOL     OW17147  10.140   8.241   5.407  0.3937 -0.3601 -0.1638
 4262SOL    HW117148  10.096   8.257   5.490 -0.5296 -1.6371 -0.3704
 4262SOL    HW217149  10.082   8.279   5.341  1.8339  1.9818 -0.1870
 4263SOL     OW17150   1.629   0.217   5.803  0.4327  0.1453  0.2828
 4263SOL    HW117151   1.698   0.152   5.817  0.0250 -0.1403  1.0261
 4263SOL    HW217152   1.553   0.166   5.774 -0.0302  0.2085  1.3174
 4264SOL     OW17153   7.150   1.427   0.897 -0.0775  0.4132 -0.4367
 4264SOL    HW117154   7.162   1.396   0.986 -0.3440  1.4522 -0.0180
 4264SOL    HW217155   7.228   1.399   0.850  0.0961 -0.0748  0.1353
 4265SOL     OW17156   3.671   9.594   6.876  0.1884 -0.5604 -1.1193
 4265SOL    HW117157   3.591   9.564   6.920 -0.5825 -0.9154 -2.6834
 4265SOL    HW217158   3.717   9.513   6.852  0.3217 -0.3891 -1.4431
 4266SOL     OW17159   0.765   3.329   0.450  0.6590 -0.2296  0.1086
 4266SOL    HW117160   0.705   3.357   0.381 -1.1973 -0.2667  1.6473
 4266SOL    HW217161   0.732   3.243   0.477 -1.3906  1.4869  3.8976
 4267SOL     OW17162   4.302   6.013   8.301  0.1246  0.2626 -0.1623
 4267SOL    HW117163   4.330   6.097   8.338 -1.0417 -0.3689  2.3672
 4267SOL    HW217164   4.376   5.954   8.316  0.4345  0.5049 -0.7234
 4268SOL     OW17165   6.524   7.659   0.575 -0.4249 -0.0733 -0.1471
 4268SOL    HW117166   6.596   7.596   0.566 -0.1678  0.4478 -2.3942
 4268SOL    HW217167   6.566   7.744   0.562 -1.0654  0.4381  1.0293
 4269SOL     OW17168   4.965   8.312   2.954  0.7706 -0.0957 -0.4023
 4269SOL    HW117169   4.906   8.257   2.903 -0.9302 -0.7513  2.1108
 4269SOL    HW217170   4.928   8.400   2.946  1.0067 -0.0401 -0.9446
 4270SOL     OW17171   9.827   2.259   9.693  0.4298  0.1299  0.2561
 4270SOL    HW117172   9.883   2.313   9.637  1.4675  0.1055  1.2243
 4270SOL    HW217173   9.752   2.315   9.714  0.9487  0.8103  0.3428
 4271SOL     OW17174   6.150   8.320   5.112 -0.1010  0.3451  0.5991
 4271SOL    HW117175   6.149   8.258   5.186  1.2896  0.0479  0.3875
 4271SOL    HW217176   6.160   8.265   5.035  0.0071  0.7578  0.3174
 4272SOL     OW17177   4.313   3.472   4.791  0.1384 -0.3563 -0.0761
 4272SOL    HW117178   4.275   3.385   4.796  2.5916 -1.6091 -1.1458
 4272SOL    HW217179   4.301   3.499   4.700 -0.2921  0.2912  0.1622
 4273SOL     OW17180   2.686   5.994   7.732 -0.1552 -0.1330  0.2883
 4273SOL    HW117181   2.768   6.008   7.780 -0.3557  0.6155  0.4205
 4273SOL    HW217182   2.629   6.066   7.759 -1.0532 -0.9316  0.5974
 4274SOL     OW17183   9.413   3.587   5.806 -0.3342  0.1470 -0.0313
 4274SOL    HW117184   9.317   3.590   5.801 -0.3133 -0.9470 -3.3663
 4274SOL    HW217185   9.432   3.520   5.872 -1.8731 -0.5263 -0.2371
 4275SOL     OW17186   2.432   7.716  10.239  0.3991  0.1262 -0.2826
 4275SOL    HW117187   2.420   7.750  10.150  0.0746 -1.7121 -0.9778
 4275SOL    HW217188   2.453   7.794  10.291  0.5273  1.2583 -1.9350
 4276SOL     OW17189  10.339   7.330   5.351  0.3405  0.0885  0.6967
 4276SOL    HW117190  10.340   7.367   5.439 -2.3568 -0.9711  1.2855
 4276SOL    HW217191  10.318   7.404   5.294  1.6182  0.6885  0.9818
 4277SOL     OW17192   8.732   3.238   1.653  0.0414 -0.4750  0.4305
 4277SOL    HW117193   8.733   3.142   1.646 -0.8901 -0.4808  0.3538
 4277SOL    HW217194   8.790   3.257   1.727  1.0535 -1.0302 -0.1863
 4278SOL     OW17195   2.903   2.939   3.970 -0.4868  0.2075  0.3955
 4278SOL    HW117196   2.828   2.998   3.964 -1.5349 -1.1922 -3.1602
 4278SOL    HW217197   2.874   2.869   4.028 -1.1169  0.7061  0.6991
 4279SOL     OW17198   3.043   5.720   6.070 -0.2373 -0.2213 -0.1149
 4279SOL    HW117199   3.134   5.750   6.062 -0.5085  0.7047  0.1417
 4279SOL    HW217200   3.008   5.725   5.981 -0.2086 -0.0049 -0.1143
 4280SOL     OW17201   1.132   1.688   5.205 -0.3612  0.6664 -0.5677
 4280SOL    HW117202   1.095   1.761   5.255 -0.6333  0.7283 -0.8570
 4280SOL    HW217203   1.157   1.624   5.271 -1.1350  0.5583 -0.3736
 4281SOL     OW17204   2.288   6.875   1.232 -0.4494  0.0329  0.5685
 4281SOL    HW117205   2.226   6.879   1.159 -0.5843  0.6316  0.7145
 4281SOL    HW217206   2.236   6.843   1.306 -0.0796 -1.5936  0.1660
 4282SOL     OW17207   2.139   8.040   1.441  0.2971 -0.2495  0.0451
 4282SOL    HW117208   2.218   8.078   1.402  0.7103 -1.4702 -0.3230
 4282SOL    HW217209   2.082   8.116   1.456  0.4932  0.3662 -2.0695
 4283SOL     OW17210   9.892   8.233   6.940 -0.4836  0.0654  0.0815
 4283SOL    HW117211   9.908   8.288   7.017 -0.6066  0.5357 -0.2261
 4283SOL    HW217212   9.955   8.162   6.948  0.5465  0.9237 -0.1778
 4284SOL     OW17213   9.800   4.770   7.568 -0.0526  0.4123 -0.1851
 4284SOL    HW117214   9.890   4.755   7.598  0.2746  0.2772 -1.1838
 4284SOL    HW217215   9.746   4.713   7.622  0.6268 -0.5772 -0.5210
 4285SOL     OW17216   4.296   2.701   4.971  0.3797 -0.1131 -0.0026
 4285SOL    HW117217   4.217   2.746   4.942  0.2729 -0.8727 -0.9273
 4285SOL    HW217218   4.352   2.700   4.894  2.0485  1.9440  1.0701
 4286SOL     OW17219   1.763   3.809   3.894  0.1474 -0.2886 -0.4404
 4286SOL    HW117220   1.746   3.720   3.925 -1.7165 -0.3636 -1.5225
 4286SOL    HW217221   1.702   3.864   3.942 -1.1531 -0.1115 -2.1741
 4287SOL     OW17222   8.751   7.897   9.831 -0.1381  0.5826  0.4825
 4287SOL    HW117223   8.731   7.805   9.849  0.3400  0.5618  0.9372
 4287SOL    HW217224   8.753   7.938   9.918  0.8969  0.7569  0.3914
 4288SOL     OW17225   8.478   0.081   5.023 -0.3245 -0.3001  0.3693
 4288SOL    HW117226   8.521   0.144   4.964 -0.8674  0.0522  0.3390
 4288SOL    HW217227   8.421   0.030   4.966  1.9717 -2.5851 -0.0557
 4289SOL     OW17228   9.384   7.272   2.402  0.3718 -0.6446  0.0503
 4289SOL    HW117229   9.404   7.203   2.466 -1.5955 -1.8769 -0.5934
 4289SOL    HW217230   9.383   7.353   2.454  1.1719 -1.2968  1.1191
 4290SOL     OW17231   4.205   7.104   5.136  0.4374 -0.0245  0.4510
 4290SOL    HW117232   4.180   7.196   5.127  1.6762  0.4280  1.3238
 4290SOL    HW217233   4.282   7.094   5.080  0.2454 -0.5653  0.2724
 4291SOL     OW17234   2.913   2.108   4.729  0.4084 -0.3137  0.3906
 4291SOL    HW117235   2.824   2.095   4.695  0.3606 -1.5326  0.9118
 4291SOL    HW217236   2.923   2.203   4.736 -0.2788 -0.1055 -1.1512
 4292SOL     OW17237   2.427   7.441   1.755  0.5170 -0.0932 -0.2941
 4292SOL    HW117238   2.370   7.508   1.719 -0.2956  0.0356  1.1445
 4292SOL    HW217239   2.447   7.384   1.681 -1.9038 -0.4350 -0.7694
 4293SOL     OW17240   1.379   2.854   0.903  0.0539 -0.0965  0.1352
 4293SOL    HW117241   1.453   2.802   0.872 -0.0488  0.2167 -0.6713
 4293SOL    HW217242   1.343   2.893   0.823 -1.7300 -1.2193  0.3250
 4294SOL     OW17243   5.129   5.828   9.471 -0.2791 -0.1084  0.2511
 4294SOL    HW117244   5.113   5.806   9.562  1.7133  2.3497  1.3536
 4294SOL    HW217245   5.210   5.782   9.448 -0.8348 -0.8124 -0.3314
 4295SOL     OW17246  10.606   2.998   2.146  0.3267 -0.2613  0.5679
 4295SOL    HW117247  10.643   2.929   2.092  0.5683  0.6297 -0.4449
 4295SOL    HW217248  10.681   3.046   2.181  0.1834  1.0665 -0.8514
 4296SOL     OW17249   0.134   9.740   1.566 -0.3334 -0.8226 -0.0820
 4296SOL    HW117250   0.209   9.684   1.544  0.5150  1.0441 -2.3286
 4296SOL    HW217251   0.058   9.689   1.537  0.2162 -1.8769  0.2860
 4297SOL     OW17252   3.240   7.413   9.409 -0.3181  0.1409 -0.0979
 4297SOL    HW117253   3.310   7.432   9.346 -0.8446 -0.6894 -0.9562
 4297SOL    HW217254   3.172   7.370   9.357 -0.9910 -0.0771  0.9412
 4298SOL     OW17255   1.103   4.397   8.568  0.4010  0.0838 -0.5765
 4298SOL    HW117256   1.112   4.317   8.516 -0.4415  0.0729 -0.7186
 4298SOL    HW217257   1.035   4.377   8.632  1.6626 -0.0166  0.7708
 4299SOL     OW17258   7.383   0.199   8.131  0.6332  0.3050 -0.2290
 4299SOL    HW117259   7.305   0.170   8.178  1.7015 -2.1790  0.1790
 4299SOL    HW217260   7.380   0.151   8.048  0.5094  2.0704 -1.2849
 4300SOL     OW17261   4.455   8.201   8.288 -0.1496  0.2204 -0.2559
 4300SOL    HW117262   4.450   8.287   8.329  0.3665  0.1253  0.0055
 4300SOL    HW217263   4.544   8.171   8.304 -1.1397 -1.6871  2.3227
 4301SOL     OW17264  11.059   2.535   1.860 -0.4968 -0.3933 -0.1812
 4301SOL    HW117265  11.120   2.607   1.846 -0.2549 -0.9062 -2.0203
 4301SOL    HW217266  11.105   2.457   1.828 -1.6830 -0.9660 -0.5809
 4302SOL     OW17267   7.295   3.551   7.987 -0.2975 -0.2820  0.1431
 4302SOL    HW117268   7.352   3.549   8.064 -0.4105  1.6701  0.3320
 4302SOL    HW217269   7.206   3.551   8.022 -0.3493  0.5937  0.0310
 4303SOL     OW17270   8.388   3.546   4.492  0.3260 -0.3395  0.1167
 4303SOL    HW117271   8.478   3.564   4.468  0.0054  0.5877 -0.4382
 4303SOL    HW217272   8.361   3.475   4.433  0.6293 -0.4801  0.1477
 4304SOL     OW17273   0.099   4.916   8.112  0.4896  0.3583  1.0424
 4304SOL    HW117274   0.083   4.844   8.173  0.8924 -0.6687 -0.0240
 4304SOL    HW217275   0.030   4.979   8.130 -0.7583 -0.9593  1.0383
 4305SOL     OW17276   0.318   6.556   6.696 -0.3192 -0.2851  0.3904
 4305SOL    HW117277   0.404   6.513   6.693  0.5004  1.2673 -2.8679
 4305SOL    HW217278   0.338   6.649   6.689 -2.1991  0.5675  4.1006
 4306SOL     OW17279   9.417   6.496   1.496  0.0706  0.1698 -0.1420
 4306SOL    HW117280   9.501   6.536   1.473  0.3616  0.9644  2.0355
 4306SOL    HW217281   9.398   6.530   1.584 -0.4746 -3.2576  1.2067
 4307SOL     OW17282   6.997   4.514   0.069  0.1342 -0.5830  0.0900
 4307SOL    HW117283   7.070   4.556   0.113 -1.4268 -0.0474  2.3608
 4307SOL    HW217284   7.005   4.421   0.091  0.9158 -0.7705 -0.9164
 4308SOL     OW17285  10.809   0.804   9.623 -0.2125  0.3844  0.2853
 4308SOL    HW117286  10.889   0.805   9.571  0.1521  2.3234  0.7860
 4308SOL    HW217287  10.738   0.816   9.559 -0.2719 -2.3332 -0.2807
 4309SOL     OW17288   7.577   3.364   8.753  0.0417 -0.0363  0.0655
 4309SOL    HW117289   7.596   3.321   8.836 -0.3233  0.6467  0.5116
 4309SOL    HW217290   7.500   3.417   8.771  0.8564  1.3187 -0.2795
 4310SOL     OW17291   4.153  10.500   1.550  0.4039  0.1119 -0.6763
 4310SOL    HW117292   4.210  10.427   1.524  0.0824 -0.5949  0.5392
 4310SOL    HW217293   4.200  10.542   1.622 -1.9307 -2.4796  2.6894
 4311SOL     OW17294   2.792   3.572   3.395 -0.2799  0.1578  0.0960
 4311SOL    HW117295   2.759   3.662   3.395  0.8762  0.5961 -0.7336
 4311SOL    HW217296   2.761   3.536   3.478 -0.4856  1.4188  0.5935
 4312SOL     OW17297   8.279   9.347   6.388 -0.1434  0.1580 -0.5804
 4312SOL    HW117298   8.231   9.429   6.384 -0.8570 -0.2302 -0.2876
 4312SOL    HW217299   8.240   9.293   6.318  0.1679 -0.0070 -0.6293
 4313SOL     OW17300   4.273   5.931  10.851  0.0865  0.3750 -0.5787
 4313SOL    HW117301   4.214   5.955  10.780 -0.8214 -0.3134 -0.0767
 4313SOL    HW217302   4.309   5.846  10.825  0.7590  0.7325 -0.8222
 4314SOL     OW17303   2.941   4.818   4.656  0.8431  0.0922 -0.1309
 4314SOL    HW117304   2.947   4.764   4.735 -1.5240  0.9395  0.6974
 4314SOL    HW217305   3.022   4.799   4.608  0.5296 -3.5299  0.5103
 4315SOL     OW17306  10.368   5.916   2.531 -0.0702 -0.2791 -0.3470
 4315SOL    HW117307  10.421   5.840   2.509  0.2863  0.3636 -1.8417
 4315SOL    HW217308  10.414   5.957   2.604 -1.2151 -2.4149  1.6954
 4316SOL     OW17309   4.532   3.702   6.436  0.0911 -0.3883 -0.4876
 4316SOL    HW117310   4.482   3.778   6.409 -1.6987 -1.2753  0.1682
 4316SOL    HW217311   4.544   3.713   6.531 -0.8663 -1.2693 -0.2448
 4317SOL     OW17312   9.551   7.271   1.658 -0.6840 -0.5233 -0.1085
 4317SOL    HW117313   9.514   7.187   1.631  1.3158 -1.8064  0.8705
 4317SOL    HW217314   9.568   7.317   1.575 -2.9382 -0.5013 -0.6172
 4318SOL     OW17315   5.077   3.994   0.311  0.3062  0.5259  0.4992
 4318SOL    HW117316   5.149   4.055   0.324  0.8163  0.1704 -0.5416
 4318SOL    HW217317   5.120   3.910   0.294 -0.3537  0.3077 -0.1221
 4319SOL     OW17318   5.584   9.161   6.712 -0.4894 -0.3386 -0.1044
 4319SOL    HW117319   5.560   9.234   6.656  2.9480 -0.6310 -2.2232
 4319SOL    HW217320   5.655   9.195   6.767 -0.7028 -1.3603  0.8471
 4320SOL     OW17321   1.488   7.952   2.308  0.0998  0.1300 -0.4576
 4320SOL    HW117322   1.547   7.884   2.277 -2.2134 -1.3097 -1.9604
 4320SOL    HW217323   1.535   7.992   2.382  2.7255 -1.1674 -1.2952
 4321SOL     OW17324   6.046   6.844   7.714  0.0047  0.8954 -0.2392
 4321SOL    HW117325   6.095   6.785   7.772 -1.9748  0.5023  1.1357
 4321SOL    HW217326   5.955   6.816   7.722 -0.5916  2.1402 -2.0301
 4322SOL     OW17327   6.993   1.759  10.630  0.0410  0.2774  0.0521
 4322SOL    HW117328   7.085   1.758  10.601 -0.0497 -0.3292 -0.2362
 4322SOL    HW217329   6.942   1.760  10.549 -0.2100 -0.7987  0.1756
 4323SOL     OW17330   5.258   0.247   5.674  0.1814 -0.0721  0.4443
 4323SOL    HW117331   5.343   0.253   5.632  0.1345 -2.2295 -0.0436
 4323SOL    HW217332   5.249   0.330   5.721  2.3799  0.3441  0.2315
 4324SOL     OW17333   5.296   3.651   9.698  0.0884 -0.1331  0.5180
 4324SOL    HW117334   5.312   3.693   9.613 -1.6613 -1.1758 -0.3777
 4324SOL    HW217335   5.221   3.699   9.734 -0.1474 -0.6886  0.7653
 4325SOL     OW17336   4.669   6.099   1.661  0.0955  0.0130  0.1829
 4325SOL    HW117337   4.765   6.106   1.659  0.0257  0.9497 -0.5601
 4325SOL    HW217338   4.642   6.115   1.571 -0.7516 -0.6188  0.3098
 4326SOL     OW17339   4.144   1.623   8.175  0.2493  0.4679 -0.3287
 4326SOL    HW117340   4.199   1.563   8.125 -2.0985 -1.3889 -0.8592
 4326SOL    HW217341   4.151   1.706   8.128  3.4183  0.6807  0.3092
 4327SOL     OW17342   8.238   2.163   0.666 -0.2809  0.2000  0.0288
 4327SOL    HW117343   8.317   2.211   0.643 -0.5013  0.0779 -1.0185
 4327SOL    HW217344   8.166   2.223   0.649 -0.5578 -0.4535 -1.2819
 4328SOL     OW17345   9.957   7.588   5.390 -0.2482 -0.1533 -0.0018
 4328SOL    HW117346   9.940   7.631   5.306  0.5882 -0.6658 -0.4473
 4328SOL    HW217347  10.052   7.584   5.397 -0.2856  0.5450  1.3321
 4329SOL     OW17348   0.992   4.901   8.311  0.0460 -0.2121  0.9151
 4329SOL    HW117349   1.069   4.852   8.341  0.7520  0.0716 -0.3513
 4329SOL    HW217350   1.022   4.992   8.305 -1.0561  0.3033  2.5741
 4330SOL     OW17351   7.710   1.658   0.108  0.6184  0.2569  0.3697
 4330SOL    HW117352   7.734   1.713   0.034  0.2162  0.8152  0.6490
 4330SOL    HW217353   7.639   1.603   0.074  0.1625  0.7885  0.4523
 4331SOL     OW17354  11.064   2.515   7.987  0.7450 -0.2283 -0.3421
 4331SOL    HW117355  11.148   2.547   7.955  0.0559 -0.4934 -2.6732
 4331SOL    HW217356  11.069   2.420   7.975  1.1113 -0.5930  2.2137
 4332SOL     OW17357   8.484   9.861   1.073  0.6213  0.1468  0.6417
 4332SOL    HW117358   8.553   9.799   1.097  0.6926 -0.0238  0.0003
 4332SOL    HW217359   8.404   9.809   1.073  0.3927  0.4545  1.9069
 4333SOL     OW17360   6.333   0.024   9.730  0.1571 -0.0183 -0.0731
 4333SOL    HW117361   6.335   0.012   9.635 -0.2526  0.5838 -0.1546
 4333SOL    HW217362   6.261  -0.032   9.759 -0.7361  0.9995 -0.2884
 4334SOL     OW17363  10.568   0.082   8.072  0.2665 -0.0763  0.0480
 4334SOL    HW117364  10.488   0.123   8.037 -0.6939 -0.9514  1.1109
 4334SOL    HW217365  10.597   0.023   8.001 -1.6336 -1.8054  0.6012
 4335SOL     OW17366   2.729   4.459  10.582 -0.0238  0.6234 -0.0607
 4335SOL    HW117367   2.706   4.393  10.516 -3.2848  0.4537  1.0349
 4335SOL    HW217368   2.716   4.413  10.665 -1.3111  2.2909  0.7086
 4336SOL     OW17369   0.955   3.900   0.038  0.3998 -0.2335  0.0672
 4336SOL    HW117370   0.895   3.972   0.051  1.9974  0.9617  1.3262
 4336SOL    HW217371   0.978   3.872   0.127  3.0623  0.6022 -0.2613
 4337SOL     OW17372   7.226   0.556   0.671  0.2937  0.1786  0.1375
 4337SOL    HW117373   7.206   0.601   0.590  1.7555  0.8604  0.1323
 4337SOL    HW217374   7.229   0.463   0.647 -0.8760  0.2287 -0.2345
 4338SOL     OW17375   8.469  10.194   8.590  0.4939 -0.2613  0.2268
 4338SOL    HW117376   8.456  10.279   8.633  2.2824 -0.0993  0.5199
 4338SOL    HW217377   8.417  10.133   8.641 -0.2008  0.5300  0.4803
 4339SOL     OW17378   7.430   4.283   8.943  0.2789 -0.3373  0.5325
 4339SOL    HW117379   7.399   4.196   8.917 -1.0635  0.3713 -0.3268
 4339SOL    HW217380   7.488   4.309   8.871  0.4410 -0.3965  0.6418
 4340SOL     OW17381  10.885   2.139   0.132 -0.5997  0.3829 -0.1824
 4340SOL    HW117382  10.949   2.094   0.187 -1.5686  0.3624  0.9738
 4340SOL    HW217383  10.807   2.082   0.135 -0.6252  0.2960 -1.7344
 4341SOL     OW17384   4.572   7.691  11.057 -0.0306 -0.3795  0.4568
 4341SOL    HW117385   4.484   7.653  11.059  0.8081 -2.3709  1.3429
 4341SOL    HW217386   4.631   7.618  11.072  1.6872  1.2568  2.3057
 4342SOL     OW17387   2.505   3.683   8.844 -0.3125 -0.1368  0.6363
 4342SOL    HW117388   2.546   3.661   8.927  0.2038  0.7996  0.6519
 4342SOL    HW217389   2.576   3.677   8.780 -0.0307  1.7772  0.7056
 4343SOL     OW17390   0.021  10.149   7.826 -0.0305  0.3537 -0.3837
 4343SOL    HW117391  -0.042  10.211   7.790  0.4149  0.5186 -0.8881
 4343SOL    HW217392   0.036  10.086   7.756 -0.1865 -0.1077 -0.0100
 4344SOL     OW17393   2.827   4.047   8.686 -0.5435 -0.3881  0.0973
 4344SOL    HW117394   2.758   3.995   8.726 -1.0212  0.2662  0.1366
 4344SOL    HW217395   2.820   4.029   8.592 -0.8878 -0.1905  0.0823
 4345SOL     OW17396   9.127   0.667   6.355 -0.0669  0.0701  0.4610
 4345SOL    HW117397   9.098   0.700   6.271  0.2508  1.8580  1.0106
 4345SOL    HW217398   9.048   0.668   6.410  0.1431  0.9971  0.7753
 4346SOL     OW17399   1.753   9.486   4.808  0.0337 -0.3262  0.0468
 4346SOL    HW117400   1.831   9.525   4.848 -0.4328  0.5820  0.0951
 4346SOL    HW217401   1.731   9.413   4.866  0.8254 -0.5685  0.0514
 4347SOL     OW17402   6.685   0.565   2.088  0.4965 -0.1286  0.0949
 4347SOL    HW117403   6.747   0.635   2.066 -0.7306  0.1898 -2.9513
 4347SOL    HW217404   6.622   0.606   2.146 -0.1684  1.3756 -1.5994
 4348SOL     OW17405   5.779   3.500   3.240  0.1046  0.3317  0.2022
 4348SOL    HW117406   5.770   3.586   3.280  0.4264 -0.3860  1.8878
 4348SOL    HW217407   5.691   3.477   3.211 -0.2114  0.6832  0.8829
 4349SOL     OW17408   7.178   8.551   0.417 -0.2452 -0.1700 -0.0534
 4349SOL    HW117409   7.141   8.474   0.373 -0.8765 -1.4269  2.4376
 4349SOL    HW217410   7.208   8.517   0.502 -0.2701  2.2754  1.0097
 4350SOL     OW17411   7.687   5.309   7.599  0.5134  0.1346  0.9588
 4350SOL    HW117412   7.710   5.401   7.610 -1.1196  0.3783  2.7895
 4350SOL    HW217413   7.591   5.307   7.599  0.4806 -1.4081 -0.8359
 4351SOL     OW17414   4.940   2.696   6.793 -0.4619  0.0896 -0.2409
 4351SOL    HW117415   4.870   2.681   6.856 -0.4861  0.7646 -0.1044
 4351SOL    HW217416   4.908   2.654   6.712 -0.0090 -1.6205  0.4359
 4352SOL     OW17417   2.254   1.467   6.891  0.4524  0.1736  0.4113
 4352SOL    HW117418   2.271   1.457   6.797  1.1144 -2.2226  0.7097
 4352SOL    HW217419   2.172   1.516   6.895  0.6558  0.7644 -1.3952
 4353SOL     OW17420   5.541   2.226  10.266  0.2014 -0.2946  0.2229
 4353SOL    HW117421   5.597   2.303  10.261  0.6932 -0.6552  0.1042
 4353SOL    HW217422   5.527   2.212  10.359  0.0614 -0.0294  0.2433
 4354SOL     OW17423   4.789  10.423   9.383 -0.0511  0.5030  0.3525
 4354SOL    HW117424   4.783  10.507   9.429 -1.9538  0.2379  0.6829
 4354SOL    HW217425   4.755  10.440   9.296  1.9926  0.6167 -0.4790
 4355SOL     OW17426   8.219   2.783   2.193 -0.0335  0.0888  0.5971
 4355SOL    HW117427   8.231   2.707   2.136 -0.7898  0.2095  0.2745
 4355SOL    HW217428   8.134   2.819   2.168  0.2056  0.8954  0.9211
 4356SOL     OW17429   3.933  10.301   9.089  0.7147 -0.4426  0.0101
 4356SOL    HW117430   3.869  10.298   9.018  0.3276  0.6001  0.2937
 4356SOL    HW217431   3.958  10.209   9.103  1.3346 -0.6099 -1.9224
 4357SOL     OW17432  10.405   1.087   9.188 -0.5130 -0.1414 -0.0246
 4357SOL    HW117433  10.500   1.085   9.185 -0.3435 -4.1317  1.4030
 4357SOL    HW217434  10.377   1.049   9.105 -0.5409 -3.1752  1.2573
 4358SOL     OW17435   5.863   4.673   7.924 -0.3772  0.3745 -0.0409
 4358SOL    HW117436   5.780   4.631   7.901 -0.6581 -0.3328  2.0661
 4358SOL    HW217437   5.911   4.678   7.842 -1.9426 -0.4719 -1.0523
 4359SOL     OW17438  11.053   0.843   1.900 -0.0619 -0.2980  0.6337
 4359SOL    HW117439  11.021   0.906   1.964 -2.3784 -0.5969 -0.1461
 4359SOL    HW217440  11.040   0.758   1.942  1.9350 -0.3718  1.2032
 4360SOL     OW17441  11.081   8.428   2.545 -0.1761  0.5710 -0.1602
 4360SOL    HW117442  11.108   8.423   2.454 -1.5684  0.6114 -0.5926
 4360SOL    HW217443  11.136   8.497   2.583  0.8018  0.1668 -0.8027
 4361SOL     OW17444   5.476   7.322   9.799  0.1179  0.0965 -0.1718
 4361SOL    HW117445   5.534   7.351   9.869 -0.1784  0.6332 -0.1448
 4361SOL    HW217446   5.500   7.230   9.784 -0.1307 -0.1667  0.9496
 4362SOL     OW17447  10.995   0.456  10.896  0.3414  0.0863  0.1120
 4362SOL    HW117448  11.075   0.406  10.880 -0.1427 -1.0008  0.9320
 4362SOL    HW217449  11.020   0.547  10.881  1.7445 -0.2293  0.3669
 4363SOL     OW17450   3.450   8.898   4.976  0.1355 -0.2294  0.1464
 4363SOL    HW117451   3.407   8.840   4.913  0.0074  0.5827 -0.5230
 4363SOL    HW217452   3.389   8.970   4.988  0.6880  0.2233  0.2766
 4364SOL     OW17453   5.179   9.932  10.683  0.0971  0.3962  0.3062
 4364SOL    HW117454   5.259   9.882  10.693 -0.5365 -0.5266  0.9484
 4364SOL    HW217455   5.155   9.922  10.591  0.4446  0.2561  0.2300
 4365SOL     OW17456   5.300   6.088   3.757 -0.3050  0.1557  0.1857
 4365SOL    HW117457   5.283   5.997   3.731  0.5758 -0.3077  1.1413
 4365SOL    HW217458   5.292   6.087   3.853  2.4196  0.4283  0.5019
 4366SOL     OW17459   4.816   8.011   3.228 -0.6621  0.3977  0.0042
 4366SOL    HW117460   4.781   8.093   3.192 -0.1685  0.7435  0.2990
 4366SOL    HW217461   4.759   7.943   3.192 -0.0572  0.7040 -1.6106
 4367SOL     OW17462   0.037   2.727   6.111 -0.3101  0.6964 -0.6918
 4367SOL    HW117463   0.005   2.663   6.174 -0.3209  0.7378 -0.6553
 4367SOL    HW217464   0.094   2.677   6.052  0.3059  0.8034 -0.1956
 4368SOL     OW17465   4.110   2.136   1.492 -0.0095 -0.0472  0.1748
 4368SOL    HW117466   4.122   2.141   1.587  0.9765 -1.5173  0.1541
 4368SOL    HW217467   4.021   2.170   1.478  0.0246  0.6977  1.5470
 4369SOL     OW17468   3.548   9.017   5.784  0.7448 -0.4162 -0.2978
 4369SOL    HW117469   3.619   8.964   5.747  2.6557  1.8808 -0.1325
 4369SOL    HW217470   3.539   8.986   5.874  0.8072 -1.3988 -0.6156
 4370SOL     OW17471  10.182   5.175   1.854  0.2291  0.4192 -0.0640
 4370SOL    HW117472  10.089   5.195   1.843 -0.0691  0.1160  1.6554
 4370SOL    HW217473  10.186   5.124   1.934  2.0587  1.7156  0.7289
 4371SOL     OW17474   9.906   9.119   1.037  0.0164 -0.0970 -0.0538
 4371SOL    HW117475   9.972   9.180   1.070 -0.5667 -0.5276  2.0320
 4371SOL    HW217476   9.925   9.037   1.082 -2.6370  0.0792  1.5828
 4372SOL     OW17477   5.336   4.290   2.415  0.0972 -0.0317  0.1454
 4372SOL    HW117478   5.425   4.305   2.385  0.5518 -1.3424  0.7966
 4372SOL    HW217479   5.346   4.239   2.496 -1.2645 -1.1483 -0.3556
 4373SOL     OW17480   0.847   7.812   0.633 -0.0410 -0.2940  0.5779
 4373SOL    HW117481   0.895   7.732   0.611  0.5884  0.5865 -1.5280
 4373SOL    HW217482   0.772   7.813   0.573  0.9723  1.5284 -0.8072
 4374SOL     OW17483  10.631  10.738   0.921  0.0620 -0.1147 -0.4523
 4374SOL    HW117484  10.657  10.675   0.989  3.9201 -0.4064 -1.9503
 4374SOL    HW217485  10.639  10.823   0.963  2.5840 -0.2771 -0.4585
 4375SOL     OW17486  10.506  10.286   4.649 -0.1050  0.1770  0.0677
 4375SOL    HW117487  10.522  10.233   4.571  0.0836 -1.0591  0.9108
 4375SOL    HW217488  10.569  10.358   4.643  1.9593 -1.4891  0.4937
 4376SOL     OW17489   6.370   2.418   6.748 -0.2133 -0.3505  0.3677
 4376SOL    HW117490   6.280   2.402   6.776  0.1052  0.4846  1.9728
 4376SOL    HW217491   6.413   2.456   6.825  1.1620  0.5151 -0.7788
 4377SOL     OW17492   7.412   4.636   3.704 -0.2853  0.7863 -0.2686
 4377SOL    HW117493   7.372   4.606   3.786  0.1133 -0.0278 -0.3541
 4377SOL    HW217494   7.393   4.565   3.642  0.3591  0.8919 -0.5885
 4378SOL     OW17495   7.572   5.027   6.761  0.5367 -0.1320  0.3987
 4378SOL    HW117496   7.495   5.070   6.798  0.5860  0.4249 -0.1467
 4378SOL    HW217497   7.597   4.962   6.828  0.0854  0.2413  0.9393
 4379SOL     OW17498  10.930   4.270   8.039 -0.1861  0.1491  0.1902
 4379SOL    HW117499  10.923   4.251   8.133 -1.4694  0.7486  0.2321
 4379SOL    HW217500  10.938   4.183   7.998 -0.4573 -0.1644  0.7893
 4380SOL     OW17501   3.395   2.763   5.821  0.3196 -0.0377  0.0541
 4380SOL    HW117502   3.479   2.722   5.844  0.3215 -0.6508 -0.9695
 4380SOL    HW217503   3.418   2.831   5.758  0.1254  0.3014  0.3518
 4381SOL     OW17504   5.758   1.211   8.229 -0.1923 -0.2123 -0.1977
 4381SOL    HW117505   5.676   1.164   8.238 -0.2183  0.0264  0.9653
 4381SOL    HW217506   5.788   1.192   8.140 -0.6091 -1.7398 -0.0262
 4382SOL     OW17507   4.762   4.982   4.990 -0.3521 -0.3599  0.1352
 4382SOL    HW117508   4.832   4.998   4.927  0.5987 -0.6978  1.0600
 4382SOL    HW217509   4.733   4.893   4.972  0.6410 -0.8460  0.8099
 4383SOL     OW17510   4.411  10.375   6.425  0.0781  0.2797 -0.1097
 4383SOL    HW117511   4.462  10.296   6.405  1.6553  0.9796  0.9261
 4383SOL    HW217512   4.359  10.351   6.501 -1.5071 -0.5556 -1.3881
 4384SOL     OW17513   1.780   6.518   4.867 -0.3158  0.2958 -0.0504
 4384SOL    HW117514   1.754   6.427   4.851 -0.5901  0.4269 -0.3570
 4384SOL    HW217515   1.757   6.534   4.958 -0.6965  0.2037 -0.1294
 4385SOL     OW17516   0.145   0.696   9.008  0.1249  0.0451  0.6159
 4385SOL    HW117517   0.138   0.601   9.020  1.6013 -0.4992 -1.9846
 4385SOL    HW217518   0.056   0.726   8.994 -0.5119 -0.7014  2.7288
 4386SOL     OW17519   8.091   3.208   5.331  0.0685  0.3091 -0.1922
 4386SOL    HW117520   8.104   3.274   5.399 -1.9686 -0.2586  0.8225
 4386SOL    HW217521   8.136   3.130   5.363  3.1784  1.2790 -1.7591
 4387SOL     OW17522   6.520   1.779   7.225 -0.0540  0.2754  0.3789
 4387SOL    HW117523   6.553   1.689   7.220 -1.1637 -0.1086 -0.2670
 4387SOL    HW217524   6.432   1.771   7.261 -0.8309  0.9133 -1.2803
 4388SOL     OW17525   1.145   9.732   9.467 -0.5515  0.0198 -0.5398
 4388SOL    HW117526   1.093   9.714   9.545  0.8844  0.8214  0.6401
 4388SOL    HW217527   1.116   9.817   9.436 -2.1957 -0.9464 -1.8379
 4389SOL     OW17528   1.354   8.353   5.119  0.0538 -0.6140 -0.5141
 4389SOL    HW117529   1.367   8.275   5.173  1.5943 -0.9309 -1.2867
 4389SOL    HW217530   1.270   8.389   5.148  0.2041 -1.5159  1.1391
 4390SOL     OW17531   5.541   6.348   8.338 -0.4848 -0.0098 -0.1663
 4390SOL    HW117532   5.524   6.334   8.245  1.3955  0.2382 -0.5911
 4390SOL    HW217533   5.565   6.440   8.345  3.4201 -0.8624 -0.2153
 4391SOL     OW17534   8.652   5.364   9.317  0.3621 -0.1775  0.2591
 4391SOL    HW117535   8.601   5.293   9.279 -0.1807  0.2211  0.2185
 4391SOL    HW217536   8.718   5.321   9.371  0.3864 -0.7161 -0.1977
 4392SOL     OW17537   8.327   0.945   2.867  0.2495  1.0903 -0.0178
 4392SOL    HW117538   8.303   1.010   2.934 -2.0111 -0.7389  1.1008
 4392SOL    HW217539   8.252   0.942   2.809  0.2075 -0.6496  0.0909
 4393SOL     OW17540   6.834   5.263   8.734 -0.5066  0.0939  0.3839
 4393SOL    HW117541   6.857   5.196   8.670 -0.7238  0.7671 -0.4192
 4393SOL    HW217542   6.769   5.222   8.791 -0.3806 -0.4824  0.1148
 4394SOL     OW17543   8.413   5.179   0.789  0.5164  0.2385 -0.2961
 4394SOL    HW117544   8.387   5.246   0.852 -0.6883  1.1813 -1.7065
 4394SOL    HW217545   8.351   5.107   0.804  1.1959 -0.1799  0.5760
 4395SOL     OW17546   6.544   1.383   4.593  0.0075  0.2753  0.6873
 4395SOL    HW117547   6.580   1.351   4.510  1.2562  2.9523  0.0909
 4395SOL    HW217548   6.561   1.312   4.655 -0.2415 -1.4754 -1.1212
 4396SOL     OW17549   4.085  11.016   6.247  0.7077  0.1700 -0.2420
 4396SOL    HW117550   4.144  10.968   6.305  0.2747  0.9237  0.8548
 4396SOL    HW217551   4.036  10.948   6.200  2.4841 -0.4686 -1.2504
 4397SOL     OW17552  10.551   2.565   5.717  0.1148  0.7072 -0.1557
 4397SOL    HW117553  10.551   2.572   5.622 -1.5142  1.4692 -0.1265
 4397SOL    HW217554  10.463   2.534   5.739  0.7469 -0.3194  1.0660
 4398SOL     OW17555   3.789  10.415   1.428  0.8470 -0.0063 -0.0059
 4398SOL    HW117556   3.845  10.340   1.451 -0.5591 -1.8518 -2.1456
 4398SOL    HW217557   3.736  10.383   1.355 -2.5278  1.8550  1.4165
 4399SOL     OW17558   6.859   1.889   3.127  0.1796  0.0607 -0.5727
 4399SOL    HW117559   6.787   1.851   3.077  1.4198  0.5620 -2.8525
 4399SOL    HW217560   6.872   1.976   3.088  1.8967  0.0545 -0.0967
 4400SOL     OW17561   9.044   2.951  10.972 -0.6049  0.3381 -0.5930
 4400SOL    HW117562   8.971   3.013  10.968  0.2732  1.8306  2.8410
 4400SOL    HW217563   9.009   2.874  11.017 -0.0181  1.3320  1.6931
 4401SOL     OW17564   3.079   5.999   6.830  0.2883 -0.2710  0.0819
 4401SOL    HW117565   3.078   5.988   6.925 -1.1004 -0.3842  0.0725
 4401SOL    HW217566   3.046   6.088   6.816  1.2333  0.0373 -0.2752
 4402SOL     OW17567  10.787   4.721  10.926  0.1467 -0.5643 -0.3713
 4402SOL    HW117568  10.812   4.641  10.880  0.1836 -0.2590 -0.8823
 4402SOL    HW217569  10.697   4.705  10.954  0.4838 -1.1823  0.4123
 4403SOL     OW17570   5.665   8.617   7.107  0.3514  0.2191 -0.4751
 4403SOL    HW117571   5.588   8.631   7.163 -0.0243  0.7793 -1.1243
 4403SOL    HW217572   5.672   8.696   7.055  1.3673  0.1609 -0.4444
 4404SOL     OW17573   7.739   1.302  10.935  0.4806 -0.1395 -0.4220
 4404SOL    HW117574   7.731   1.208  10.953 -1.3260  0.1530  0.3965
 4404SOL    HW217575   7.820   1.328  10.980  0.2704 -1.0255  0.4923
 4405SOL     OW17576   2.168  10.541   2.431  0.1221 -0.3727  0.3207
 4405SOL    HW117577   2.218  10.461   2.417  1.4062  0.3988  0.3383
 4405SOL    HW217578   2.140  10.537   2.522  1.3590 -0.1914  0.7334
 4406SOL     OW17579   3.298   0.650   5.479  0.4332  0.0518  0.2422
 4406SOL    HW117580   3.257   0.666   5.565  0.4622 -0.3103  0.3231
 4406SOL    HW217581   3.253   0.711   5.420 -0.2241 -0.3399  0.3321
 4407SOL     OW17582   9.854   3.380   0.038 -0.5008  0.0026  0.2809
 4407SOL    HW117583   9.842   3.473   0.018  0.1134  0.0819  0.2634
 4407SOL    HW217584   9.942   3.374   0.073  0.2115 -0.8600 -1.5289
 4408SOL     OW17585   7.314   8.914   8.081 -0.1188 -0.4253  0.2565
 4408SOL    HW117586   7.254   8.890   8.152  1.0521 -0.6623  1.2128
 4408SOL    HW217587   7.387   8.957   8.126  0.2852  0.1261 -0.9027
 4409SOL     OW17588   6.844   1.570   3.182 -0.2680  0.0056  0.1000
 4409SOL    HW117589   6.874   1.515   3.255  0.9438 -0.3562 -0.6464
 4409SOL    HW217590   6.876   1.657   3.203  0.0810 -0.0986  0.0059
 4410SOL     OW17591   6.098   7.072   2.737  0.5619  0.7605  0.0051
 4410SOL    HW117592   6.179   7.021   2.730  1.9545  2.8001  0.5023
 4410SOL    HW217593   6.048   7.027   2.805  2.7508  1.2493  2.0645
 4411SOL     OW17594   3.481   8.017   3.503 -0.2703 -0.0355 -0.4995
 4411SOL    HW117595   3.476   7.983   3.413  1.1939 -1.1062 -0.2236
 4411SOL    HW217596   3.435   7.953   3.556  0.4689 -0.3948 -0.2730
 4412SOL     OW17597   8.800   8.668   2.289  0.9690 -0.4482  0.0277
 4412SOL    HW117598   8.839   8.660   2.202 -0.1386  0.9089 -0.6489
 4412SOL    HW217599   8.800   8.762   2.306 -0.1640 -0.5784  0.8502
 4413SOL     OW17600   1.286   4.846   8.293 -0.1828 -0.4024  0.1229
 4413SOL    HW117601   1.360   4.789   8.271  0.0037 -0.3267  0.5518
 4413SOL    HW217602   1.270   4.895   8.213  0.5089 -0.1121  0.1557
 4414SOL     OW17603   1.492   0.950   4.026  0.1763 -0.4864 -0.3812
 4414SOL    HW117604   1.569   1.000   4.053  0.8601 -1.3426 -0.7097
 4414SOL    HW217605   1.458   0.911   4.107  0.3506 -0.4708 -0.3023
 4415SOL     OW17606   9.398   9.583   9.134 -0.1833 -0.0812  0.0533
 4415SOL    HW117607   9.398   9.488   9.123  3.3297 -0.1923 -0.1033
 4415SOL    HW217608   9.397   9.597   9.228  2.0858 -0.4700  0.1860
 4416SOL     OW17609   9.681   8.588   6.735  0.2262  0.5769 -0.1315
 4416SOL    HW117610   9.632   8.597   6.816 -0.7256  2.2434 -0.8392
 4416SOL    HW217611   9.723   8.503   6.741 -1.9811 -0.5095  0.9496
 4417SOL     OW17612   5.391   9.350   5.748  0.1343  0.4858 -0.0185
 4417SOL    HW117613   5.382   9.309   5.662  1.5656  1.0178 -0.4611
 4417SOL    HW217614   5.448   9.290   5.796 -1.8788 -0.6078  1.1524
 4418SOL     OW17615   5.131   9.440   8.991  0.6950 -0.2671  0.1833
 4418SOL    HW117616   5.196   9.385   9.035  0.8078 -0.0433  0.3047
 4418SOL    HW217617   5.145   9.426   8.898  0.4848 -0.7137  0.2185
 4419SOL     OW17618   0.620   4.459   3.552 -0.5587 -0.0434  0.1614
 4419SOL    HW117619   0.544   4.466   3.494 -1.1040 -3.4736  0.2747
 4419SOL    HW217620   0.696   4.458   3.493 -0.7866  0.7192 -0.1485
 4420SOL     OW17621   2.322   0.475   6.123  0.2163 -0.1719 -0.4944
 4420SOL    HW117622   2.292   0.555   6.166  0.8409 -0.7331  1.0463
 4420SOL    HW217623   2.414   0.493   6.101  0.4486 -0.5740  0.1391
 4421SOL     OW17624   4.964   3.143   6.535  0.4009  0.6230  0.2566
 4421SOL    HW117625   5.025   3.151   6.462  0.1330 -0.5677 -0.1110
 4421SOL    HW217626   5.009   3.183   6.609  0.7340  1.7121 -0.5127
 4422SOL     OW17627   5.980  10.982   5.029 -0.0982 -0.8919  0.3995
 4422SOL    HW117628   6.003  10.951   4.942 -2.7933  0.0813 -0.7912
 4422SOL    HW217629   6.048  11.045   5.052 -0.1410 -0.0148 -1.7041
 4423SOL     OW17630   5.407   4.030   1.062  0.6723  0.4296 -0.3447
 4423SOL    HW117631   5.482   4.079   1.096  0.1030  1.9196 -1.1316
 4423SOL    HW217632   5.393   4.065   0.974 -2.4158  2.0412  0.6062
 4424SOL     OW17633   5.358   9.874   4.916  0.2903 -0.5193  0.5227
 4424SOL    HW117634   5.381   9.782   4.927 -0.2085 -0.7024  0.0752
 4424SOL    HW217635   5.262   9.874   4.913  0.2456  0.1241  1.4422
 4425SOL     OW17636   8.651   2.194   7.638 -0.3803 -0.0726 -0.0566
 4425SOL    HW117637   8.593   2.119   7.625  0.8705 -1.1861  0.5117
 4425SOL    HW217638   8.684   2.215   7.550 -2.9466  1.7494 -0.6913
 4426SOL     OW17639   7.400   5.640   1.123  0.0130  0.5143 -0.5853
 4426SOL    HW117640   7.424   5.718   1.072  0.1506 -0.1435 -1.5383
 4426SOL    HW217641   7.465   5.574   1.098 -0.2159  0.0323  0.0745
 4427SOL     OW17642   9.471  10.784   0.563  0.1250  0.0271 -0.7194
 4427SOL    HW117643   9.552  10.817   0.524  0.9838 -1.1207  0.0086
 4427SOL    HW217644   9.453  10.845   0.635  0.3802  0.2397 -0.8341
 4428SOL     OW17645  10.442   5.844   9.486  0.0455 -0.3911 -0.2276
 4428SOL    HW117646  10.440   5.749   9.484 -2.5192 -0.4242 -3.4605
 4428SOL    HW217647  10.353   5.869   9.514  0.4470  1.0597 -0.1701
 4429SOL     OW17648   3.331   4.386   1.339  0.6497 -0.2913 -0.1071
 4429SOL    HW117649   3.310   4.335   1.260  0.0387  0.4894 -0.4613
 4429SOL    HW217650   3.366   4.321   1.400 -1.1567 -1.3841 -0.1360
 4430SOL     OW17651   4.451   9.893   0.420  0.6120  0.4566 -0.4719
 4430SOL    HW117652   4.509   9.921   0.349  0.4732 -0.1151 -0.8226
 4430SOL    HW217653   4.499   9.914   0.500  1.8545 -1.1029 -0.7528
 4431SOL     OW17654   9.562   0.508   2.369 -0.6088  0.1348 -0.3089
 4431SOL    HW117655   9.643   0.484   2.324 -0.5031  0.4024 -0.2611
 4431SOL    HW217656   9.570   0.466   2.455 -0.1086  0.9100  0.0339
 4432SOL     OW17657   5.243   7.711   2.099 -0.0611  0.8930  0.5399
 4432SOL    HW117658   5.171   7.737   2.041 -0.5848  0.6601  1.0775
 4432SOL    HW217659   5.253   7.617   2.084 -1.1917  0.5200  1.8779
 4433SOL     OW17660   2.148   5.324   2.634  0.9655  0.0843  0.2782
 4433SOL    HW117661   2.151   5.356   2.544  0.9286 -1.3091 -0.2355
 4433SOL    HW217662   2.164   5.230   2.627  0.3539 -0.1479  1.6738
 4434SOL     OW17663   7.969   2.367   8.172 -0.3826 -0.4127 -0.1507
 4434SOL    HW117664   7.887   2.340   8.213 -0.7462 -0.0900 -0.6519
 4434SOL    HW217665   7.947   2.382   8.080 -0.5648  2.8622  0.2905
 4435SOL     OW17666  10.028   5.065   4.977  0.2861  0.1512 -0.1400
 4435SOL    HW117667  10.078   5.055   5.058 -1.3658  0.6621  0.9942
 4435SOL    HW217668  10.086   5.031   4.909  1.8351 -0.0362  1.2013
 4436SOL     OW17669   3.284   7.095   1.878  0.1847 -0.3175  0.3134
 4436SOL    HW117670   3.266   7.176   1.925 -1.2896 -0.9345  0.8782
 4436SOL    HW217671   3.367   7.064   1.915 -0.3308 -0.1628  1.6561
 4437SOL     OW17672   6.735   9.666   0.821 -0.2088 -0.6729  0.2278
 4437SOL    HW117673   6.766   9.736   0.879 -0.6255  0.3548 -0.7693
 4437SOL    HW217674   6.645   9.691   0.799 -0.2143 -1.2979 -0.4903
 4438SOL     OW17675   4.655   6.678   2.294 -0.2927 -0.2588  0.1050
 4438SOL    HW117676   4.696   6.599   2.258 -0.5186  0.0194 -0.7894
 4438SOL    HW217677   4.658   6.741   2.222 -0.6340  0.3642  0.6282
 4439SOL     OW17678   0.165   5.222   5.160 -0.3462  0.9830 -0.0961
 4439SOL    HW117679   0.080   5.262   5.142 -1.0402 -0.6365 -0.5595
 4439SOL    HW217680   0.209   5.285   5.217 -1.7432  1.9764 -0.0636
 4440SOL     OW17681   6.926   2.912   7.522 -0.1804 -0.0198  0.1270
 4440SOL    HW117682   6.877   2.835   7.494  0.4564 -0.4023  0.0717
 4440SOL    HW217683   7.013   2.900   7.485  0.1618  0.3217  0.8207
 4441SOL     OW17684   2.733   3.147   7.539  0.0822 -0.0916 -0.9666
 4441SOL    HW117685   2.675   3.213   7.577 -0.1342 -0.1336 -1.2211
 4441SOL    HW217686   2.724   3.071   7.597  0.8920  0.3429 -0.2508
 4442SOL     OW17687   9.491   5.758   4.032  0.3932  0.4792  0.1769
 4442SOL    HW117688   9.431   5.742   3.959  1.1849 -1.4524 -0.1329
 4442SOL    HW217689   9.456   5.707   4.104  0.3260  1.3345  0.7598
 4443SOL     OW17690   5.522   7.738   9.931  0.1038  0.8733 -0.4006
 4443SOL    HW117691   5.436   7.777   9.917 -0.0289  0.3473 -1.0537
 4443SOL    HW217692   5.581   7.788   9.875  0.2739  1.3869  0.2226
 4444SOL     OW17693   9.231   6.319   3.388 -0.0338  0.1077 -0.0226
 4444SOL    HW117694   9.162   6.274   3.340 -0.9433  2.5496 -1.1924
 4444SOL    HW217695   9.190   6.350   3.468  0.0077  0.5120 -0.1503
 4445SOL     OW17696   2.272   6.175   7.370  0.8155  0.0666 -0.2404
 4445SOL    HW117697   2.339   6.109   7.356 -0.0875 -0.9844  0.1834
 4445SOL    HW217698   2.265   6.182   7.466 -1.8067 -2.1913 -0.1426
 4446SOL     OW17699   6.122   4.924  10.942 -0.4907 -0.1344  0.3941
 4446SOL    HW117700   6.172   4.843  10.932 -1.4156 -0.6413 -0.3879
 4446SOL    HW217701   6.151   4.961  11.025  1.3098 -0.2862 -0.1421
 4447SOL     OW17702   5.816   9.714   6.515  0.2002 -0.3026  0.2360
 4447SOL    HW117703   5.778   9.747   6.596  1.4270  0.4037  0.5469
 4447SOL    HW217704   5.760   9.751   6.446 -1.3142 -1.5368  0.7484
 4448SOL     OW17705   7.967  10.299   1.656  0.1371 -0.1260  0.4050
 4448SOL    HW117706   7.959  10.332   1.567 -0.3778 -1.1139  0.0742
 4448SOL    HW217707   7.960  10.204   1.647  0.2926 -0.2499  1.4769
 4449SOL     OW17708   4.909   9.235   4.481 -0.0134 -0.0628  0.2060
 4449SOL    HW117709   4.875   9.253   4.569  0.6651  0.4362  0.3753
 4449SOL    HW217710   4.835   9.197   4.434 -0.9752  1.4570  0.4126
 4450SOL     OW17711   3.525   7.135   6.170  0.0236  0.0652  0.9571
 4450SOL    HW117712   3.489   7.068   6.228  1.0390  1.7148  3.6662
 4450SOL    HW217713   3.470   7.211   6.184  0.3375  0.5446 -0.2508
 4451SOL     OW17714   7.782   9.954   1.188  0.5058 -0.0522  0.0881
 4451SOL    HW117715   7.778  10.029   1.247  1.4245 -0.4567  0.6943
 4451SOL    HW217716   7.783   9.878   1.247  0.9993 -0.4786 -0.4648
 4452SOL     OW17717  10.648  11.037  10.293 -0.2859 -0.1842 -0.1990
 4452SOL    HW117718  10.597  11.118  10.288 -1.3543 -0.8370 -0.2469
 4452SOL    HW217719  10.638  10.998  10.206 -0.8951 -1.0022  0.2234
 4453SOL     OW17720   9.983   9.184   6.179  0.4560  0.2791  0.2518
 4453SOL    HW117721   9.906   9.218   6.133  0.4455 -2.9323 -2.4656
 4453SOL    HW217722   9.961   9.194   6.271 -2.3478  1.2984 -0.4018
 4454SOL     OW17723   0.366   9.904   9.984  0.1511 -0.3871 -0.0410
 4454SOL    HW117724   0.415   9.871   9.909  1.9868  1.2267  0.3732
 4454SOL    HW217725   0.327   9.985   9.954  1.0804  0.3834  0.7655
 4455SOL     OW17726   9.178   6.820   7.614 -0.4724  0.5882  0.3260
 4455SOL    HW117727   9.170   6.736   7.659  0.5129  0.1742 -0.2624
 4455SOL    HW217728   9.176   6.799   7.521 -0.3130  1.2185  0.1719
 4456SOL     OW17729   6.253   8.433   5.597  0.1067  0.8300 -0.0078
 4456SOL    HW117730   6.329   8.461   5.546  0.0789  1.3833  0.2495
 4456SOL    HW217731   6.282   8.353   5.641  0.8725  1.5672  0.8577
 4457SOL     OW17732   5.667   1.804   4.453  0.4020 -0.3309  0.4665
 4457SOL    HW117733   5.694   1.716   4.480  1.2432 -0.2181  0.0023
 4457SOL    HW217734   5.749   1.851   4.439 -0.0137 -0.0733 -1.2843
 4458SOL     OW17735   6.403   7.408   0.226  0.0597 -0.3663  0.3492
 4458SOL    HW117736   6.347   7.460   0.285  0.6132  0.9617 -0.2532
 4458SOL    HW217737   6.469   7.470   0.196 -0.0006 -1.1127 -1.3994
 4459SOL     OW17738  10.859   6.036   9.454  0.0173  0.2257  0.3488
 4459SOL    HW117739  10.771   6.008   9.427  0.0306 -0.1589  0.6976
 4459SOL    HW217740  10.917   6.000   9.387 -0.0283 -0.0581  0.4609
 4460SOL     OW17741   4.920   5.125   0.485 -0.7750 -0.1671 -0.2953
 4460SOL    HW117742   4.864   5.163   0.418 -0.6907 -0.7093 -0.6724
 4460SOL    HW217743   4.988   5.078   0.437 -0.8565 -0.7718  0.1641
 4461SOL     OW17744   6.869   0.523  10.473 -0.6847 -0.3828 -0.7970
 4461SOL    HW117745   6.903   0.455  10.415 -1.0678  0.6607 -2.2948
 4461SOL    HW217746   6.776   0.503  10.482 -0.6919 -0.3532 -0.8061
 4462SOL     OW17747   3.811   3.796   9.257 -0.1292 -0.0705 -0.3973
 4462SOL    HW117748   3.744   3.862   9.237  1.3710  1.8025  0.3624
 4462SOL    HW217749   3.893   3.844   9.248  1.2353 -2.5362 -2.3210
 4463SOL     OW17750  10.516   6.239   0.990  0.0479 -0.1588 -0.2232
 4463SOL    HW117751  10.584   6.231   0.923  0.2597 -0.8186  0.0639
 4463SOL    HW217752  10.498   6.149   1.018 -0.2161  0.0859  0.4252
 4464SOL     OW17753   2.149   0.560   7.406 -0.5057  0.6660  0.0988
 4464SOL    HW117754   2.217   0.624   7.386 -0.0060  0.5282  1.2872
 4464SOL    HW217755   2.196   0.483   7.438 -1.2141  0.5778  0.9534
 4465SOL     OW17756   9.624   5.956   0.520 -0.2931 -0.7120 -0.4671
 4465SOL    HW117757   9.636   5.875   0.469 -1.9597 -2.1277  1.2375
 4465SOL    HW217758   9.547   5.998   0.480 -0.5144 -0.9071 -0.2529
 4466SOL     OW17759   1.279   1.474   5.406 -0.0910  0.7374  0.1788
 4466SOL    HW117760   1.246   1.464   5.495 -1.3593  2.4008 -0.0541
 4466SOL    HW217761   1.358   1.528   5.415  0.0627  0.4911  0.3268
 4467SOL     OW17762   7.752  10.009   5.895 -0.2681  0.2784 -0.0803
 4467SOL    HW117763   7.730   9.922   5.929 -0.6495 -0.2317 -1.5535
 4467SOL    HW217764   7.700  10.017   5.815  0.1749  1.6523 -0.2498
 4468SOL     OW17765   5.830   2.268   9.102  0.2357 -0.2994  0.2821
 4468SOL    HW117766   5.877   2.352   9.106  1.1494 -0.7500 -0.4747
 4468SOL    HW217767   5.747   2.285   9.146  0.7586  0.7694  0.9023
 4469SOL     OW17768   3.569  10.969   6.627 -0.4120 -0.3410 -0.7068
 4469SOL    HW117769   3.557  10.939   6.537  1.3816 -0.5950 -0.8860
 4469SOL    HW217770   3.641  10.915   6.661  0.1164  0.9557  0.2964
 4470SOL     OW17771   6.087   5.731   3.727 -0.0682 -0.8062 -0.3121
 4470SOL    HW117772   6.142   5.652   3.724 -1.0641 -1.6752  1.7813
 4470SOL    HW217773   6.129   5.787   3.792  0.4690  0.3196 -1.5781
 4471SOL     OW17774   8.395   8.934   9.284  0.5476 -0.9311  0.0700
 4471SOL    HW117775   8.377   8.910   9.375 -0.1251  0.9507  0.4895
 4471SOL    HW217776   8.323   8.895   9.234 -0.2577 -0.2506  0.6573
 4472SOL     OW17777   6.209   5.148   0.267  0.0324  0.4902 -0.5007
 4472SOL    HW117778   6.230   5.144   0.173  0.3361  0.1903 -0.4203
 4472SOL    HW217779   6.267   5.084   0.307  0.8136  1.5093  0.0520
 4473SOL     OW17780   4.491  10.618   8.643  0.1277 -1.4763 -0.3940
 4473SOL    HW117781   4.547  10.642   8.716 -1.6194  1.8607  0.0242
 4473SOL    HW217782   4.544  10.634   8.565  0.1572  0.6342  0.0185
 4474SOL     OW17783   5.391   5.075   0.926  0.4203 -0.1243 -0.5536
 4474SOL    HW117784   5.302   5.107   0.906  0.3012 -0.6006 -0.8026
 4474SOL    HW217785   5.421   5.037   0.844  0.6748 -0.3876 -0.3394
 4475SOL     OW17786   2.645   0.148   0.493  0.4402 -0.3938  0.4768
 4475SOL    HW117787   2.670   0.240   0.484 -1.4801  0.2756  1.4160
 4475SOL    HW217788   2.601   0.126   0.411  2.9572 -1.2736 -0.7568
 4476SOL     OW17789   5.447   9.367  10.448 -0.2191 -0.2579  0.0909
 4476SOL    HW117790   5.529   9.320  10.464  0.4198  0.2561 -1.5329
 4476SOL    HW217791   5.394   9.305  10.398 -0.3509 -0.1449  0.0910
 4477SOL     OW17792   4.356   3.599   8.122 -0.1407  0.4594  0.2897
 4477SOL    HW117793   4.305   3.647   8.056 -0.5899 -0.6421 -0.1979
 4477SOL    HW217794   4.407   3.666   8.167 -0.8356  1.3979 -0.2889
 4478SOL     OW17795   8.940   9.662   5.447 -0.0162 -0.4984  0.1034
 4478SOL    HW117796   8.860   9.677   5.397 -0.9365 -0.2735  1.5977
 4478SOL    HW217797   8.964   9.749   5.481 -0.9280 -1.0613  2.2622
 4479SOL     OW17798   2.542   6.992   1.943 -0.4590  0.1505  0.7241
 4479SOL    HW117799   2.553   7.066   1.883  0.4312  0.5442  1.3540
 4479SOL    HW217800   2.573   7.025   2.027 -1.9750 -0.3031  1.4903
 4480SOL     OW17801   1.316   7.913   3.458 -0.7376 -0.4413  0.0355
 4480SOL    HW117802   1.340   7.915   3.550 -0.0053  0.5937 -0.1535
 4480SOL    HW217803   1.225   7.885   3.456 -1.4432  1.6139  1.2278
 4481SOL     OW17804   9.742   9.543   7.143  0.2494 -0.0916  0.2343
 4481SOL    HW117805   9.773   9.590   7.220 -0.0524 -3.1954  2.4465
 4481SOL    HW217806   9.654   9.576   7.127 -0.5648 -0.8542  2.6915
 4482SOL     OW17807   9.688   9.641   1.270 -0.3192 -0.2874 -0.3173
 4482SOL    HW117808   9.700   9.590   1.190 -3.0917 -0.3507 -0.7724
 4482SOL    HW217809   9.720   9.582   1.339  0.2902 -1.0022 -1.1702
 4483SOL     OW17810   3.523   6.040   9.236  0.5736  0.4797 -0.3579
 4483SOL    HW117811   3.519   6.004   9.147  0.3719  1.1681 -0.6317
 4483SOL    HW217812   3.525   6.135   9.224 -1.3155  0.6600  0.4169
 4484SOL     OW17813   8.199   9.125   7.402  0.3688  0.1031 -0.2078
 4484SOL    HW117814   8.191   9.206   7.453 -0.3706  1.7844 -2.7922
 4484SOL    HW217815   8.127   9.130   7.339 -0.2569 -3.0821  0.1216
 4485SOL     OW17816   2.917   2.238   8.286  0.3962  0.4455  0.9318
 4485SOL    HW117817   2.878   2.152   8.272 -0.5996  0.2333  4.2079
 4485SOL    HW217818   2.879   2.293   8.218 -0.1828 -1.3173 -0.2351
 4486SOL     OW17819  10.750   2.080   9.062  0.2507  0.1356  0.8432
 4486SOL    HW117820  10.660   2.080   9.028  0.2451 -1.5956  0.8117
 4486SOL    HW217821  10.749   2.016   9.133  1.9241 -1.4113 -0.4609
 4487SOL     OW17822   7.253   3.056   8.916 -0.1438 -0.2407 -0.3973
 4487SOL    HW117823   7.216   2.970   8.895  2.1276 -1.5770  0.6903
 4487SOL    HW217824   7.312   3.075   8.843  1.0107 -0.6926  0.3827
 4488SOL     OW17825   9.199   0.651   4.401  0.6512 -0.1715  0.7565
 4488SOL    HW117826   9.248   0.591   4.456  0.9414  0.4000  1.1221
 4488SOL    HW217827   9.260   0.676   4.332  0.6086 -0.1055  0.7423
 4489SOL     OW17828   1.975   8.556   7.527 -0.0095 -0.1494  0.2540
 4489SOL    HW117829   1.948   8.559   7.619 -0.1774  0.1953  0.1955
 4489SOL    HW217830   1.912   8.612   7.482 -0.0274 -0.4516 -0.0977
 4490SOL     OW17831  10.894   3.824   6.840 -0.1481  0.5875  0.4612
 4490SOL    HW117832  10.983   3.812   6.874  0.1793 -0.5686 -0.7120
 4490SOL    HW217833  10.851   3.881   6.904  1.2936  0.7959  1.2835
 4491SOL     OW17834   2.544   4.109   1.924 -0.2722  0.2211  0.1170
 4491SOL    HW117835   2.464   4.133   1.877 -0.7242 -0.3002  0.5872
 4491SOL    HW217836   2.571   4.026   1.884  0.4669  0.7826 -0.5490
 4492SOL     OW17837   3.034   4.051   5.783  0.3554 -0.0090  0.0847
 4492SOL    HW117838   2.945   4.020   5.797 -0.2929  1.9131  0.4291
 4492SOL    HW217839   3.060   4.012   5.700 -1.1960  0.2269 -0.5444
 4493SOL     OW17840   3.328   5.228   2.464 -0.4060  0.3774 -0.0404
 4493SOL    HW117841   3.268   5.301   2.447 -0.7587  0.8565  2.8703
 4493SOL    HW217842   3.277   5.166   2.515  0.5872 -0.8679 -0.5098
 4494SOL     OW17843   9.271   8.826   9.870  0.2658 -0.7580 -0.5262
 4494SOL    HW117844   9.326   8.902   9.890 -0.7686  0.0639 -0.7370
 4494SOL    HW217845   9.281   8.813   9.776 -1.2514  0.5085 -0.8965
 4495SOL     OW17846   1.674   9.101  10.756  0.0559 -0.2820  0.0869
 4495SOL    HW117847   1.752   9.155  10.752  0.1654 -0.4862 -0.9601
 4495SOL    HW217848   1.645   9.105  10.847  1.8844 -1.0693  0.7389
 4496SOL     OW17849   7.585  10.245   1.755  0.5262  0.1548  0.3822
 4496SOL    HW117850   7.625  10.306   1.692  2.0266  0.1593  1.2882
 4496SOL    HW217851   7.603  10.158   1.719  1.0031  0.1677  0.5902
 4497SOL     OW17852   6.666   0.590   4.256  0.1085 -0.4296  0.5381
 4497SOL    HW117853   6.707   0.638   4.327  1.0778 -0.3697 -0.0502
 4497SOL    HW217854   6.610   0.655   4.212  0.8237 -0.0179  0.2134
 4498SOL     OW17855   2.964   8.034   1.827 -0.0895 -0.1579 -0.5615
 4498SOL    HW117856   2.965   7.992   1.914  0.7261  1.0213  0.0192
 4498SOL    HW217857   3.011   7.972   1.771 -0.2399 -0.7341 -0.0690
 4499SOL     OW17858   2.511   6.878   0.615  0.0892  0.0119  0.1743
 4499SOL    HW117859   2.478   6.793   0.585  0.1146 -1.0941  2.9413
 4499SOL    HW217860   2.497   6.876   0.710  0.8289  2.8094  0.4122
 4500SOL     OW17861   5.847   2.006   9.987 -0.8298  0.0784 -0.0817
 4500SOL    HW117862   5.830   1.931   9.931 -0.2118 -0.9012  1.0017
 4500SOL    HW217863   5.941   2.022   9.977 -1.0131  0.9345 -0.5531
 4501SOL     OW17864   9.850  10.860   8.155 -0.6042 -0.3884 -0.1463
 4501SOL    HW117865   9.759  10.881   8.180 -0.3720 -0.2588  0.6295
 4501SOL    HW217866   9.841  10.801   8.080 -1.3623 -1.5242  0.8019
 4502SOL     OW17867   5.144   3.151   1.112  0.5771 -0.1515 -0.5703
 4502SOL    HW117868   5.203   3.076   1.103  0.4950 -0.1685 -0.9867
 4502SOL    HW217869   5.086   3.145   1.036  0.6516  0.4058 -0.6715
 4503SOL     OW17870   0.333   9.318   7.802  0.2292 -0.0165  0.0261
 4503SOL    HW117871   0.313   9.347   7.891 -2.6302  0.0758 -0.5663
 4503SOL    HW217872   0.283   9.376   7.745  2.9767  0.7747 -1.8173
 4504SOL     OW17873   5.922   0.711   7.780  0.3738  0.3116  0.0581
 4504SOL    HW117874   5.845   0.743   7.734  0.3201 -0.0141 -0.0810
 4504SOL    HW217875   5.891   0.637   7.832  0.1888  1.3947  1.5496
 4505SOL     OW17876  10.951   0.768   9.059 -0.4830  0.3009 -0.2745
 4505SOL    HW117877  10.940   0.691   9.004  0.5080  0.0523 -0.1405
 4505SOL    HW217878  10.862   0.795   9.080 -1.0156 -3.0703  2.8153
 4506SOL     OW17879   1.362   4.418   3.637 -0.2937 -0.7700 -0.1890
 4506SOL    HW117880   1.409   4.337   3.660  0.8893  0.0423  0.4059
 4506SOL    HW217881   1.397   4.443   3.551  1.0413  0.2507  0.5902
 4507SOL     OW17882  10.150   4.179   4.516 -0.2731  0.3721  0.3444
 4507SOL    HW117883  10.126   4.216   4.431  1.3106 -1.2859 -0.9077
 4507SOL    HW217884  10.201   4.248   4.558  0.3909  0.6103 -0.8103
 4508SOL     OW17885   6.240  10.445   1.290  0.5944 -0.5600 -0.2002
 4508SOL    HW117886   6.193  10.525   1.267  0.6462 -0.8815 -1.4765
 4508SOL    HW217887   6.305  10.434   1.221  1.7771 -0.7568  0.9172
 4509SOL     OW17888   4.868   1.285   3.271  0.1793 -0.4536 -0.0073
 4509SOL    HW117889   4.847   1.265   3.180  0.7284  0.2119 -0.2851
 4509SOL    HW217890   4.852   1.203   3.318  0.9965 -1.1369 -0.8845
 4510SOL     OW17891   1.171   8.264   4.214  0.2391  0.3602  1.0149
 4510SOL    HW117892   1.135   8.351   4.232  0.2145  0.1524  1.9750
 4510SOL    HW217893   1.222   8.242   4.292 -0.1537 -0.6954  0.9848
 4511SOL     OW17894   4.945  10.606   5.984 -0.3251  0.6664 -0.0986
 4511SOL    HW117895   4.874  10.560   5.939 -0.0505  0.7341 -0.6143
 4511SOL    HW217896   4.929  10.590   6.077  0.3245 -1.3292 -0.2743
 4512SOL     OW17897   0.330   2.963  10.480  0.4522 -0.2629 -0.1350
 4512SOL    HW117898   0.336   3.001  10.568  3.2169 -1.3899  0.2772
 4512SOL    HW217899   0.350   3.035  10.421  0.1166  0.1664  0.2731
 4513SOL     OW17900   8.834   6.501   0.208 -0.0204  0.0637 -0.3793
 4513SOL    HW117901   8.805   6.410   0.217  0.7197 -0.0708  1.0126
 4513SOL    HW217902   8.914   6.506   0.261 -0.6746  1.8134  0.5294
 4514SOL     OW17903   2.156  10.696   3.141  0.0563 -0.5684  0.3429
 4514SOL    HW117904   2.204  10.779   3.142 -1.5951  0.4402  1.2002
 4514SOL    HW217905   2.072  10.717   3.183 -1.8129 -1.7805 -2.4447
 4515SOL     OW17906   7.638   6.575   8.193 -0.3661  0.0915  0.2776
 4515SOL    HW117907   7.615   6.487   8.222  0.9507  0.4069  2.5999
 4515SOL    HW217908   7.709   6.562   8.131 -0.9323 -0.5130 -0.2553
 4516SOL     OW17909   9.889   4.935   9.968 -0.3121 -0.6212 -0.0037
 4516SOL    HW117910   9.951   5.003   9.941 -0.0957 -1.7621 -2.7936
 4516SOL    HW217911   9.808   4.982   9.986  0.4679  0.5837  0.4966
 4517SOL     OW17912   9.462   5.100   2.133  0.1061  0.1357  0.4350
 4517SOL    HW117913   9.539   5.064   2.089  0.3661  0.4615  0.6159
 4517SOL    HW217914   9.497   5.170   2.189 -0.2534 -0.0829  0.9407
 4518SOL     OW17915   5.972   9.810  10.185  0.0751 -0.4626 -0.1415
 4518SOL    HW117916   6.021   9.878  10.140 -1.1941 -0.1888 -1.1817
 4518SOL    HW217917   5.886   9.810  10.142 -1.1426 -0.3508  2.1268
 4519SOL     OW17918   7.426   6.974   9.012 -0.6365  0.0865  0.2888
 4519SOL    HW117919   7.369   6.898   9.005  1.2668 -1.2774 -1.4219
 4519SOL    HW217920   7.379   7.044   8.967 -1.4298 -0.6796 -0.0932
 4520SOL     OW17921   5.999   5.520   6.266  0.6220 -0.7738 -0.7618
 4520SOL    HW117922   5.930   5.556   6.210  0.7562  0.4587 -0.1574
 4520SOL    HW217923   6.076   5.519   6.209  0.3393 -1.2468 -1.1473
 4521SOL     OW17924  10.885   0.220   2.858  0.1369 -0.2461  0.2684
 4521SOL    HW117925  10.885   0.170   2.940  1.9008  0.6748  0.8842
 4521SOL    HW217926  10.839   0.301   2.880 -0.5869 -0.5664 -0.0461
 4522SOL     OW17927   8.126   8.909  10.415  0.3578  0.0296 -0.3534
 4522SOL    HW117928   8.097   8.929  10.504  0.5938 -0.5490 -0.1405
 4522SOL    HW217929   8.115   8.814  10.407  1.8666 -0.1652 -0.3753
 4523SOL     OW17930   4.411   7.111   8.232  0.4289  0.2006  0.1995
 4523SOL    HW117931   4.433   7.104   8.324 -1.4828  1.9399  0.8605
 4523SOL    HW217932   4.357   7.190   8.225  0.3006 -0.0042 -2.3660
 4524SOL     OW17933   4.038   2.399   1.755  0.4496  0.9701 -0.0976
 4524SOL    HW117934   4.077   2.314   1.773  0.5576  0.7459 -1.3307
 4524SOL    HW217935   4.109   2.451   1.718  0.2375  1.4044  0.1045
 4525SOL     OW17936   1.703   3.155   4.607 -0.0904  0.1799 -0.4234
 4525SOL    HW117937   1.734   3.193   4.689  0.6504 -0.7899 -0.2202
 4525SOL    HW217938   1.779   3.161   4.549  0.6687 -2.4233  0.1423
 4526SOL     OW17939   2.406  11.080   3.966 -0.1260  0.2478  0.1649
 4526SOL    HW117940   2.367  11.121   3.888  0.4595  0.1867 -0.1665
 4526SOL    HW217941   2.491  11.123   3.975  0.1810 -0.3711  0.2449
 4527SOL     OW17942   9.244   7.355   3.471  0.1470  0.4179 -0.5677
 4527SOL    HW117943   9.184   7.285   3.446 -0.4922  0.8236 -0.2108
 4527SOL    HW217944   9.331   7.323   3.446  0.0907 -1.2374  1.1095
 4528SOL     OW17945   2.911   8.266   7.342 -0.7982 -0.1642  0.2443
 4528SOL    HW117946   2.899   8.338   7.280  0.9437  0.6260  0.7602
 4528SOL    HW217947   2.850   8.286   7.413 -0.4598  0.7369  0.2989
 4529SOL     OW17948  10.203   7.688   3.836 -0.1078  0.1423  0.0806
 4529SOL    HW117949  10.209   7.624   3.907  0.9662  0.3544  0.2083
 4529SOL    HW217950  10.164   7.766   3.876 -0.0404  0.0648  0.2965
 4530SOL     OW17951   6.504   4.781   6.486 -0.3667  0.0670 -0.5024
 4530SOL    HW117952   6.509   4.727   6.408 -0.7221  0.9391 -1.1456
 4530SOL    HW217953   6.560   4.736   6.550  0.1962 -0.4818 -1.3607
 4531SOL     OW17954   4.684   3.693   8.003  0.1377  0.7304 -0.0798
 4531SOL    HW117955   4.630   3.769   8.025  0.2026  1.0355 -0.9497
 4531SOL    HW217956   4.697   3.649   8.087 -1.5990  0.5521  0.1463
 4532SOL     OW17957   1.739   8.651   5.285  0.2474 -0.5068 -0.0588
 4532SOL    HW117958   1.677   8.650   5.357  1.4411 -1.6565  1.0040
 4532SOL    HW217959   1.714   8.576   5.231  0.0262 -0.2935 -0.2556
 4533SOL     OW17960   6.140   7.239   1.652 -0.5941  0.0714  0.5304
 4533SOL    HW117961   6.136   7.320   1.601 -3.2263 -1.2911 -1.7434
 4533SOL    HW217962   6.228   7.204   1.635 -0.6191  0.7907 -1.3118
 4534SOL     OW17963   4.197   7.913   9.024 -0.0997  0.3576 -0.0891
 4534SOL    HW117964   4.194   7.994   9.076 -0.4478  0.6724 -0.5930
 4534SOL    HW217965   4.122   7.919   8.966 -0.5144 -0.6490  0.3215
 4535SOL     OW17966   8.457   1.110   2.165 -0.4969 -0.6638 -0.0173
 4535SOL    HW117967   8.509   1.142   2.239 -1.0460 -1.6332  0.8148
 4535SOL    HW217968   8.369   1.144   2.182 -0.3545  0.2352 -0.9596
 4536SOL     OW17969   9.776   8.217   7.941 -0.4210 -0.1035  0.5609
 4536SOL    HW117970   9.854   8.173   7.907 -1.2357 -2.5114  1.6503
 4536SOL    HW217971   9.713   8.213   7.869  0.6199  2.6593 -0.6631
 4537SOL     OW17972   0.534   8.607   6.991 -0.2204  0.4366  0.6486
 4537SOL    HW117973   0.448   8.563   6.995 -0.1992  0.3726  0.4111
 4537SOL    HW217974   0.514   8.696   6.963 -0.1663  0.2828  0.0962
 4538SOL     OW17975   7.913   8.140   8.375  0.1241  0.1351 -0.7661
 4538SOL    HW117976   7.959   8.202   8.431  0.8018 -0.1284 -1.0262
 4538SOL    HW217977   7.830   8.125   8.419  0.1652  0.8326 -0.4370
 4539SOL     OW17978   0.711  10.058   5.002 -0.1494  0.3883  0.6778
 4539SOL    HW117979   0.644   9.991   4.985 -0.5065  0.6943  0.8610
 4539SOL    HW217980   0.689  10.092   5.089 -0.2517  1.0604  0.4008
 4540SOL     OW17981   3.788   2.970   7.692 -0.1571  0.4996  0.1449
 4540SOL    HW117982   3.724   3.030   7.654 -1.4319 -0.8111  0.1370
 4540SOL    HW217983   3.854   2.959   7.624  0.1248  1.9037  0.1669
 4541SOL     OW17984   8.767  10.759   7.485 -0.1627 -0.3684 -0.2475
 4541SOL    HW117985   8.811  10.831   7.440 -2.1603  0.6424 -0.6741
 4541SOL    HW217986   8.718  10.714   7.416 -1.3602 -0.2501  0.4961
 4542SOL     OW17987   5.281   9.039   8.200 -0.2793  0.0158 -0.6511
 4542SOL    HW117988   5.318   9.094   8.269  0.3542  2.4052 -2.7671
 4542SOL    HW217989   5.193   9.074   8.187  0.1607  0.6423 -2.0877
 4543SOL     OW17990   0.463   4.733   0.745 -0.2131 -0.1441  0.1930
 4543SOL    HW117991   0.538   4.692   0.787  0.7650  1.5369  0.1887
 4543SOL    HW217992   0.409   4.765   0.817 -1.1420 -1.6752  0.2017
 4544SOL     OW17993   7.141   4.239   1.583 -0.2405  0.1098  0.3332
 4544SOL    HW117994   7.111   4.307   1.643  1.4726 -0.1090  1.4929
 4544SOL    HW217995   7.224   4.209   1.619 -1.1477 -2.9861  0.1513
 4545SOL     OW17996   8.291   7.084   1.390 -0.3959 -0.4583 -0.7057
 4545SOL    HW117997   8.210   7.037   1.369 -0.4956 -0.2163 -0.8704
 4545SOL    HW217998   8.345   7.019   1.436 -1.7641  0.1047  1.9473
 4546SOL     OW17999   9.635   4.482   5.509  0.3001 -0.2230 -0.1443
 4546SOL    HW118000   9.568   4.441   5.455 -1.7244 -0.0392  2.0416
 4546SOL    HW218001   9.604   4.571   5.522  1.6113  0.2411 -0.0398
 4547SOL     OW18002   6.737   9.824   6.482  0.2118  0.3513 -0.0197
 4547SOL    HW118003   6.729   9.768   6.405  0.1679  0.5121 -0.1312
 4547SOL    HW218004   6.826   9.807   6.514 -0.6253 -1.6709  1.4083
 4548SOL     OW18005   9.396   8.453   9.426  0.6012  0.7442 -0.2217
 4548SOL    HW118006   9.414   8.445   9.333  0.3136 -0.2397 -0.1983
 4548SOL    HW218007   9.411   8.365   9.461 -0.4476  0.8281  0.4569
 4549SOL     OW18008  10.900   4.398   7.501 -0.4651 -0.0069  0.9084
 4549SOL    HW118009  10.968   4.340   7.537 -0.3539 -0.1843  0.4161
 4549SOL    HW218010  10.895   4.470   7.564  0.6384  0.3374  0.6356
 4550SOL     OW18011   4.443   1.915   7.535 -0.2012 -0.3040  0.2243
 4550SOL    HW118012   4.391   1.885   7.460 -0.1924 -0.0620  0.1215
 4550SOL    HW218013   4.398   1.879   7.611  0.1819 -1.1454  0.0661
 4551SOL     OW18014   0.834   4.766  10.340  0.1676  0.5055  0.4178
 4551SOL    HW118015   0.885   4.840  10.307  0.3422  1.3492  2.4500
 4551SOL    HW218016   0.782   4.803  10.412  1.5219 -1.6179  2.6334
 4552SOL     OW18017   3.664   0.845   2.620  0.2151 -0.0151 -0.4572
 4552SOL    HW118018   3.594   0.898   2.583  0.5067  1.2799  0.7346
 4552SOL    HW218019   3.627   0.757   2.626 -0.3697  0.0800 -2.2587
 4553SOL     OW18020   7.083   3.338   8.570  0.0320 -0.6709  0.4621
 4553SOL    HW118021   7.100   3.300   8.656  0.4409  0.4486  0.8909
 4553SOL    HW218022   7.041   3.422   8.588  1.6394  0.3600 -0.3514
 4554SOL     OW18023   0.113   7.877  10.927  0.0242 -0.1170 -0.3863
 4554SOL    HW118024   0.037   7.933  10.911  0.8255  0.7525 -1.1491
 4554SOL    HW218025   0.152   7.912  11.007  1.7019  1.7648 -1.9385
 4555SOL     OW18026   7.271   9.573  10.252  0.4084  0.4050  0.2200
 4555SOL    HW118027   7.270   9.483  10.219 -0.1525  0.4685  0.0505
 4555SOL    HW218028   7.237   9.625  10.179 -0.3448  0.6115  0.7043
 4556SOL     OW18029   6.677   3.289   7.544  0.1414 -0.6551 -0.0757
 4556SOL    HW118030   6.584   3.312   7.552 -0.2059 -2.5150  2.2751
 4556SOL    HW218031   6.712   3.295   7.633  1.9156 -1.3706 -0.6732
 4557SOL     OW18032   4.944   9.068   0.685  0.0357  0.0643  0.1228
 4557SOL    HW118033   4.899   9.140   0.729  0.1857 -0.0701  0.4953
 4557SOL    HW218034   5.027   9.059   0.732  0.4050  0.2328 -0.4829
 4558SOL     OW18035  10.245   7.999   5.377  0.2518  0.1774  0.0480
 4558SOL    HW118036  10.203   7.988   5.291 -1.7731 -1.1837  1.1232
 4558SOL    HW218037  10.235   8.091   5.397  1.6427  0.7378 -1.5595
 4559SOL     OW18038   1.879   0.495   4.244 -0.5597  0.3045  0.2905
 4559SOL    HW118039   1.827   0.526   4.170  1.1463 -0.5455 -1.3255
 4559SOL    HW218040   1.820   0.436   4.291 -0.6710 -1.9493 -2.4142
 4560SOL     OW18041   8.823  10.567   5.317  0.0635 -0.2977 -0.2233
 4560SOL    HW118042   8.861  10.652   5.339  0.0788 -0.5838  0.9570
 4560SOL    HW218043   8.819  10.566   5.221  0.1013  1.0041 -0.2591
 4561SOL     OW18044  10.873  10.775   4.490  0.1439 -0.3386 -0.1697
 4561SOL    HW118045  10.797  10.784   4.433 -0.3746 -1.2527  0.3529
 4561SOL    HW218046  10.865  10.687   4.527  2.6047 -1.3464 -1.7435
 4562SOL     OW18047   8.464   9.321   3.418  0.3816 -0.4922 -0.2520
 4562SOL    HW118048   8.459   9.226   3.425  0.7509 -0.5384 -0.5800
 4562SOL    HW218049   8.554   9.339   3.390  0.7636  0.0395  1.2302
 4563SOL     OW18050   6.628   1.086   8.354 -0.2093 -0.4711  0.1645
 4563SOL    HW118051   6.566   1.062   8.286 -0.9088  1.0229  0.2402
 4563SOL    HW218052   6.638   1.181   8.345  0.7561 -0.4488  1.2489
 4564SOL     OW18053   3.259   2.963   7.468 -0.7671 -0.9933  0.7256
 4564SOL    HW118054   3.316   2.966   7.545 -0.4404 -1.0219  0.4867
 4564SOL    HW218055   3.300   2.897   7.411  0.0769  0.3744 -0.3272
 4565SOL     OW18056   8.419   0.863   3.289  0.3420 -0.0571 -0.6972
 4565SOL    HW118057   8.433   0.952   3.256  3.3989 -0.0615  0.2635
 4565SOL    HW218058   8.454   0.806   3.221  2.1446 -0.2681  0.3339
 4566SOL     OW18059   9.245   6.731   2.044  0.3326  0.3711 -0.0236
 4566SOL    HW118060   9.171   6.671   2.045  0.7036 -0.1470 -1.6139
 4566SOL    HW218061   9.297   6.707   2.121  0.3905 -1.2381 -0.5467
 4567SOL     OW18062   9.975  10.914   6.817 -0.2807  0.0324 -0.1665
 4567SOL    HW118063   9.949  10.869   6.897  0.2966  0.9057  0.5425
 4567SOL    HW218064  10.033  10.984   6.847  0.7520 -0.2294 -1.4351
 4568SOL     OW18065   9.928   4.449   2.678 -0.4382  0.0235 -0.4412
 4568SOL    HW118066   9.961   4.480   2.762 -1.1708 -1.2005  0.3386
 4568SOL    HW218067   9.997   4.471   2.615  0.6315 -0.0690  0.6626
 4569SOL     OW18068   3.091   3.599   9.299  0.1373  0.3944  0.4565
 4569SOL    HW118069   3.167   3.597   9.357  0.1275  0.1778  0.4604
 4569SOL    HW218070   3.126   3.634   9.216  0.0238  1.2972  0.7771
 4570SOL     OW18071   3.313  10.607   4.162 -0.1646 -0.1561 -0.1648
 4570SOL    HW118072   3.312  10.562   4.078  1.6202 -0.6029  0.0202
 4570SOL    HW218073   3.301  10.700   4.140 -3.4164 -0.5793 -0.5726
 4571SOL     OW18074  10.561   6.219   3.590 -0.3213 -0.8256 -0.1838
 4571SOL    HW118075  10.648   6.248   3.620 -0.5563  1.4268 -1.4412
 4571SOL    HW218076  10.520   6.184   3.669  0.5097  1.2510  1.2709
 4572SOL     OW18077   3.982   7.187   9.344  0.2962  0.2417 -0.1950
 4572SOL    HW118078   3.955   7.160   9.256 -0.4314  1.0535 -0.2283
 4572SOL    HW218079   4.076   7.203   9.336  0.2849  0.0682 -0.7609
 4573SOL     OW18080   3.634   6.670  10.325  0.0877 -0.6076  0.0374
 4573SOL    HW118081   3.581   6.710  10.394  1.0221  0.2089  0.2921
 4573SOL    HW218082   3.724   6.677  10.356  0.8487  2.2190 -2.4061
 4574SOL     OW18083   0.699   4.505   0.068  0.1512 -0.3360  0.2886
 4574SOL    HW118084   0.697   4.435   0.133 -0.9926 -0.8197 -0.2392
 4574SOL    HW218085   0.620   4.557   0.086  1.0058  0.8596  0.7021
 4575SOL     OW18086   1.296   5.793   9.234 -0.2363 -0.4287  0.0363
 4575SOL    HW118087   1.277   5.840   9.315 -0.6897 -0.4946 -0.0331
 4575SOL    HW218088   1.223   5.815   9.176 -0.5741 -1.4043  0.0789
 4576SOL     OW18089   2.686   6.576   9.748  0.5836  0.2112 -0.5059
 4576SOL    HW118090   2.633   6.621   9.683  2.2342 -0.3055 -2.2911
 4576SOL    HW218091   2.626   6.513   9.788 -0.5575  0.7818 -1.2536
 4577SOL     OW18092   7.096   4.139   0.463  0.3619  0.2918  0.5990
 4577SOL    HW118093   7.033   4.067   0.471  0.4236  0.3455  1.7995
 4577SOL    HW218094   7.057   4.210   0.514  0.6804  0.8514  0.0766
 4578SOL     OW18095   8.271   6.920   9.890  0.4841  0.4847  0.1990
 4578SOL    HW118096   8.265   6.857   9.961  0.2108 -1.6826 -1.6320
 4578SOL    HW218097   8.181   6.929   9.858  1.0137 -1.4434 -2.1185
 4579SOL     OW18098   1.174   8.026  10.353 -0.4045  0.1544 -0.5188
 4579SOL    HW118099   1.093   7.977  10.368 -0.2878  0.1565  0.1387
 4579SOL    HW218100   1.178   8.087  10.427  0.5127 -0.2574 -0.2238
 4580SOL     OW18101   0.450   6.141   8.499 -0.3514  0.1383 -0.1301
 4580SOL    HW118102   0.434   6.236   8.503  0.1334  0.2169 -0.0045
 4580SOL    HW218103   0.542   6.131   8.522 -0.0842 -0.2697 -1.2967
 4581SOL     OW18104   2.002   2.513   4.162 -0.1929 -0.1305  0.5654
 4581SOL    HW118105   2.057   2.505   4.240  0.5724  1.1883  0.1840
 4581SOL    HW218106   1.959   2.598   4.171 -0.5812 -0.2401 -0.1559
 4582SOL     OW18107   3.667   3.119   4.627  0.1158  0.2048 -0.2478
 4582SOL    HW118108   3.674   3.122   4.722 -0.5559 -1.1845 -0.1254
 4582SOL    HW218109   3.576   3.143   4.609  0.2701  0.5741 -0.5529
 4583SOL     OW18110   9.331   1.079   7.278 -0.0721 -0.2463  0.3731
 4583SOL    HW118111   9.394   1.023   7.324 -0.9802 -1.4881  0.1660
 4583SOL    HW218112   9.278   1.118   7.347 -0.6298 -1.1317  0.4667
 4584SOL     OW18113   3.081   3.802   2.237  0.3298  0.2900  0.0446
 4584SOL    HW118114   3.113   3.856   2.310  0.5944 -0.8365  0.7888
 4584SOL    HW218115   3.128   3.834   2.161  2.2265 -0.3765  0.8612
 4585SOL     OW18116   0.116   3.694   6.316  0.3507  0.1149  0.5499
 4585SOL    HW118117   0.044   3.677   6.256  0.4359  0.4903  0.3388
 4585SOL    HW218118   0.183   3.630   6.291  0.8531  1.0393 -0.5448
 4586SOL     OW18119   9.371   5.842  10.064 -0.2322 -0.9934  0.1639
 4586SOL    HW118120   9.428   5.775  10.101  0.6616 -0.1053  0.4188
 4586SOL    HW218121   9.351   5.811   9.976  2.8093 -0.0905 -0.9457
 4587SOL     OW18122  10.107   1.786   5.459 -0.2074  0.0699 -0.0955
 4587SOL    HW118123  10.141   1.697   5.459  0.1312  0.1854  0.7803
 4587SOL    HW218124  10.186   1.841   5.452 -0.3010  0.3199  0.7754
 4588SOL     OW18125   0.737   4.663   5.125 -0.0108 -0.4329  0.5666
 4588SOL    HW118126   0.748   4.570   5.105  0.8853 -0.2454  0.1607
 4588SOL    HW218127   0.818   4.704   5.097 -1.0996  0.7796 -0.9925
 4589SOL     OW18128   9.922   8.970   9.049 -0.2935 -0.1959  0.1144
 4589SOL    HW118129   9.853   9.036   9.036  1.3302  1.2815 -1.7005
 4589SOL    HW218130   9.894   8.920   9.126 -3.6269 -0.0358 -0.8501
 4590SOL     OW18131   1.382   6.084  10.268 -0.0112 -0.4135  0.1078
 4590SOL    HW118132   1.442   6.106  10.339  2.4181 -2.1029 -1.2409
 4590SOL    HW218133   1.296   6.109  10.300  1.3483  2.0141  2.2596
 4591SOL     OW18134   5.738   5.991   2.794  0.2519 -0.0858  0.3517
 4591SOL    HW118135   5.823   6.018   2.827 -0.2648  0.4775  1.2517
 4591SOL    HW218136   5.693   5.952   2.869 -0.2423 -0.5055 -0.1397
 4592SOL     OW18137   8.146   5.227   5.853  0.4406  0.3335 -0.7080
 4592SOL    HW118138   8.066   5.181   5.828 -0.2698  0.2564  1.4592
 4592SOL    HW218139   8.135   5.246   5.946  2.6395  0.9889 -0.5071
 4593SOL     OW18140   7.364   5.889   9.086  0.0865 -0.1101  0.1214
 4593SOL    HW118141   7.297   5.821   9.085 -0.0046 -0.2318  3.3279
 4593SOL    HW218142   7.324   5.963   9.041 -0.7318 -1.3510 -1.2767
 4594SOL     OW18143   4.970   0.332   6.040  0.4757  0.3398  0.2315
 4594SOL    HW118144   5.027   0.266   6.081 -0.1374 -0.4505 -0.1566
 4594SOL    HW218145   5.012   0.350   5.956  0.5220  0.2797  0.2416
 4595SOL     OW18146   2.680   9.868   8.744 -0.7295  0.4828  0.2763
 4595SOL    HW118147   2.628   9.830   8.673 -0.2897  1.0579 -0.3619
 4595SOL    HW218148   2.750   9.916   8.699  0.2845 -0.1765  1.1124
 4596SOL     OW18149   1.111   6.389   2.460  0.1947 -0.6338 -0.5607
 4596SOL    HW118150   1.175   6.450   2.496  1.5404 -0.8024 -2.4984
 4596SOL    HW218151   1.089   6.330   2.532  1.3623  0.1319  0.4485
 4597SOL     OW18152   9.078   6.566   7.701  0.3740 -0.0792 -0.3745
 4597SOL    HW118153   9.002   6.551   7.644  0.6893 -0.0061 -0.8224
 4597SOL    HW218154   9.083   6.489   7.757 -0.0349 -0.0794 -0.3384
 4598SOL     OW18155   8.801  10.937   1.906 -0.5764  0.1029  0.0919
 4598SOL    HW118156   8.816  10.983   1.823 -0.7823  0.9630  0.5140
 4598SOL    HW218157   8.889  10.922   1.941 -0.4772 -0.4792 -0.3869
 4599SOL     OW18158  10.290   6.790  10.711  0.1873  0.0208  0.0081
 4599SOL    HW118159  10.280   6.872  10.663  1.2894  0.3442  0.2891
 4599SOL    HW218160  10.381   6.765  10.696  0.3713 -0.2031  1.3855
 4600SOL     OW18161   6.347   0.264   5.001  0.0243 -0.3225  0.0720
 4600SOL    HW118162   6.351   0.258   4.906  0.1601 -0.7812  0.1075
 4600SOL    HW218163   6.301   0.347   5.018  1.0125  0.3447 -0.3890
 4601SOL     OW18164   6.379   5.284   6.407 -0.1313  0.5135  0.1410
 4601SOL    HW118165   6.462   5.278   6.453  0.1082  1.2993 -0.1667
 4601SOL    HW218166   6.365   5.197   6.369 -0.7608 -0.4372  2.3795
 4602SOL     OW18167   6.718   2.611   4.077  0.1930 -0.0682 -0.1278
 4602SOL    HW118168   6.776   2.676   4.116 -0.6413 -0.3540  1.6825
 4602SOL    HW218169   6.670   2.659   4.010  2.1740  0.2722 -1.4069
 4603SOL     OW18170   6.225   5.731   6.877 -0.0786  0.1426  0.2503
 4603SOL    HW118171   6.261   5.669   6.813  1.5528  0.6533  0.6476
 4603SOL    HW218172   6.210   5.811   6.826 -0.2430  0.0795  0.1952
 4604SOL     OW18173   3.157  10.280   6.397 -0.7834 -0.3663  0.1117
 4604SOL    HW118174   3.235  10.249   6.443 -0.5610 -1.8053 -1.1420
 4604SOL    HW218175   3.084  10.235   6.440 -0.8896  0.4944  0.8716
 4605SOL     OW18176   5.723   5.657   8.221  0.3445  0.3137 -0.2075
 4605SOL    HW118177   5.721   5.597   8.296  0.8033 -1.0952 -1.2778
 4605SOL    HW218178   5.645   5.634   8.171 -1.7881  3.4352  1.3803
 4606SOL     OW18179   9.798   9.950   2.584  0.7328 -0.8089  0.4408
 4606SOL    HW118180   9.847  10.032   2.593  1.4100 -1.2500  0.8667
 4606SOL    HW218181   9.786   9.919   2.673 -3.0005  0.7800  0.6713
 4607SOL     OW18182   5.676   9.009   7.288 -0.8569  0.6218 -0.3358
 4607SOL    HW118183   5.704   9.008   7.379  0.1596 -0.3301 -0.6362
 4607SOL    HW218184   5.722   9.084   7.249 -0.9432  0.7602 -0.1699
 4608SOL     OW18185   3.148   7.037   5.196  0.1269  0.6763  0.2660
 4608SOL    HW118186   3.099   7.118   5.211  0.1676  0.6000  0.8104
 4608SOL    HW218187   3.131   7.016   5.104 -2.8407 -0.6157  0.9882
 4609SOL     OW18188   5.332   7.608   1.260 -0.6407  0.4044 -0.0597
 4609SOL    HW118189   5.241   7.580   1.250 -0.3450 -0.9365  0.7587
 4609SOL    HW218190   5.344   7.616   1.355 -0.3345  2.1682 -0.2056
 4610SOL     OW18191   8.981   2.407   0.259  0.0033 -0.4637  0.3191
 4610SOL    HW118192   9.025   2.395   0.343 -0.4354  1.0160  0.8036
 4610SOL    HW218193   8.935   2.491   0.268 -1.7761 -1.2750 -0.6420
 4611SOL     OW18194   5.338   8.769   3.748  0.1673  0.0551 -0.1775
 4611SOL    HW118195   5.410   8.826   3.774  0.3390 -0.2569  0.0264
 4611SOL    HW218196   5.311   8.726   3.829  0.7615 -0.9877 -0.5166
 4612SOL     OW18197  10.713   4.716   3.208 -0.3650 -0.5543  0.0375
 4612SOL    HW118198  10.768   4.773   3.154 -0.8606  0.5084  0.6113
 4612SOL    HW218199  10.628   4.759   3.209 -0.5288 -0.8539  1.1694
 4613SOL     OW18200  10.574   1.969   7.368 -0.8105 -0.4609 -0.3492
 4613SOL    HW118201  10.532   1.890   7.402 -2.5156  0.0880 -1.0701
 4613SOL    HW218202  10.624   2.003   7.442 -0.8304 -1.6930  0.2568
 4614SOL     OW18203   7.389   2.583   7.944 -0.0785  0.6788  0.1960
 4614SOL    HW118204   7.390   2.526   8.022  0.6888  1.3188  0.6741
 4614SOL    HW218205   7.384   2.672   7.980  1.2847  1.0343 -0.4462
 4615SOL     OW18206   9.249   5.625   2.218 -0.0446  0.2970 -0.5071
 4615SOL    HW118207   9.304   5.619   2.296 -0.4795 -1.9916 -0.3065
 4615SOL    HW218208   9.311   5.639   2.146  0.9195 -2.4464 -0.3174
 4616SOL     OW18209   3.823   4.902   4.537 -0.4534  0.3347  0.3737
 4616SOL    HW118210   3.840   4.900   4.631  0.0914  0.1082  0.2804
 4616SOL    HW218211   3.835   4.993   4.512  0.9181  0.1653  0.2836
 4617SOL     OW18212   3.651   4.560   2.647  0.4269  0.5691 -0.3927
 4617SOL    HW118213   3.679   4.468   2.637  1.8824  0.9950 -0.4933
 4617SOL    HW218214   3.637   4.590   2.557 -1.5391  0.0448 -0.3031
 4618SOL     OW18215   0.528   1.483   6.658  0.0935  0.0313  0.6361
 4618SOL    HW118216   0.517   1.425   6.583  1.7180  0.7609 -0.2206
 4618SOL    HW218217   0.579   1.432   6.721  0.4032  0.0632  0.4176
 4619SOL     OW18218   0.100   8.861   6.597 -0.3655  0.8376 -0.6513
 4619SOL    HW118219   0.187   8.874   6.633 -0.2026 -0.2322 -0.6390
 4619SOL    HW218220   0.104   8.778   6.551 -1.9871 -0.4866  1.3664
 4620SOL     OW18221   2.422   0.002   6.346 -0.0133 -0.3144  0.9199
 4620SOL    HW118222   2.449  -0.078   6.391  2.5052 -0.6124 -0.8837
 4620SOL    HW218223   2.475   0.071   6.386 -0.8162  0.1419  1.2131
 4621SOL     OW18224   1.535   4.646   9.458 -0.1728 -0.0493 -0.3170
 4621SOL    HW118225   1.498   4.605   9.380 -2.2076  0.4481  0.2974
 4621SOL    HW218226   1.610   4.593   9.481 -0.7525 -1.4135 -1.4580
 4622SOL     OW18227   7.075   2.159   1.210  0.3890  0.7271  0.2345
 4622SOL    HW118228   7.043   2.085   1.261 -0.0882  0.6833 -0.1223
 4622SOL    HW218229   7.070   2.130   1.119  0.7807  0.9778  0.1298
 4623SOL     OW18230   9.540   6.735   4.606  0.4861  0.3729  0.2257
 4623SOL    HW118231   9.476   6.772   4.545  2.4587 -0.2411 -2.4107
 4623SOL    HW218232   9.579   6.811   4.649 -0.7446  0.8421  0.5336
 4624SOL     OW18233   2.799   7.196   5.041 -0.2944  0.0291 -0.1315
 4624SOL    HW118234   2.888   7.169   5.064 -0.2586  0.3932  0.1539
 4624SOL    HW218235   2.743   7.140   5.096 -0.2907 -1.2232 -1.3510
 4625SOL     OW18236   3.529   4.224  10.453  0.2819  0.3334 -0.3711
 4625SOL    HW118237   3.499   4.303  10.408  0.4374  0.7166  0.1835
 4625SOL    HW218238   3.623   4.222  10.437  0.6661  1.4967  1.4495
 4626SOL     OW18239   0.204   4.785   4.354 -0.1739 -0.0400  0.3744
 4626SOL    HW118240   0.188   4.760   4.445  0.6124 -0.1519  0.4921
 4626SOL    HW218241   0.214   4.703   4.307 -1.2464  0.0058  0.0500
 4627SOL     OW18242   6.911   7.185   8.548 -0.1060  0.4005 -0.7058
 4627SOL    HW118243   6.874   7.261   8.504  0.9673  0.5895 -1.3117
 4627SOL    HW218244   6.895   7.201   8.641 -0.2541  1.1691 -0.8550
 4628SOL     OW18245   2.368   6.283   1.883  0.7777  0.0675  0.1570
 4628SOL    HW118246   2.275   6.263   1.873  0.0687  2.4337  1.2108
 4628SOL    HW218247   2.401   6.289   1.794  0.1584 -1.6895 -0.2227
 4629SOL     OW18248   2.876   7.645   9.374 -0.2291 -0.6574  0.2725
 4629SOL    HW118249   2.888   7.639   9.469 -2.3432 -0.5724  0.5984
 4629SOL    HW218250   2.896   7.557   9.342 -0.3364 -0.9152  0.9006
 4630SOL     OW18251   4.126   2.565   2.489 -0.1379 -0.8638  0.0274
 4630SOL    HW118252   4.148   2.489   2.543 -1.5561 -0.6861  0.8811
 4630SOL    HW218253   4.099   2.527   2.405  0.9837 -1.1874 -0.2159
 4631SOL     OW18254   8.312   9.151   4.824 -0.4169 -0.1007  0.1189
 4631SOL    HW118255   8.308   9.151   4.920 -1.0108 -0.6560  0.0979
 4631SOL    HW218256   8.227   9.118   4.796 -0.2405  0.0405 -0.6040
 4632SOL     OW18257   1.288   8.754   0.591  0.1348  0.3329  0.0592
 4632SOL    HW118258   1.250   8.711   0.514 -0.1920  0.7188  0.0011
 4632SOL    HW218259   1.257   8.845   0.585 -1.5758 -0.0705  1.7082
 4633SOL     OW18260   3.525  10.251   8.457 -1.2596  0.7179 -0.1712
 4633SOL    HW118261   3.611  10.288   8.473 -1.0868  0.8928 -1.3950
 4633SOL    HW218262   3.496  10.219   8.542  0.7414 -0.8985 -0.0221
 4634SOL     OW18263   2.931   4.391   2.739  0.0524 -0.0002  1.0169
 4634SOL    HW118264   2.908   4.427   2.653 -2.9427  0.4292  1.8711
 4634SOL    HW218265   3.003   4.330   2.721  1.1731  1.8716 -1.3847
 4635SOL     OW18266   7.496   9.665   2.793  0.0951 -0.7769 -0.0115
 4635SOL    HW118267   7.437   9.590   2.784  1.6989 -1.9493 -1.6413
 4635SOL    HW218268   7.584   9.627   2.791  0.9654  0.9916  1.2678
 4636SOL     OW18269  10.644   1.758   6.924 -0.1264 -0.7576 -0.1177
 4636SOL    HW118270  10.729   1.797   6.941  0.4074 -1.0520 -1.8656
 4636SOL    HW218271  10.581   1.823   6.955  0.7261 -0.3346  0.7742
 4637SOL     OW18272   6.298   3.268   1.905  0.8191 -0.0476  0.1788
 4637SOL    HW118273   6.367   3.318   1.861  1.0267 -1.3833 -1.0926
 4637SOL    HW218274   6.339   3.184   1.926  0.1936 -0.0767  1.3810
 4638SOL     OW18275   2.423  11.079   3.341 -0.5996 -0.4824 -0.2517
 4638SOL    HW118276   2.482  11.066   3.266 -0.4636  1.6752 -0.5964
 4638SOL    HW218277   2.456  11.158   3.384 -3.1867  0.8321 -0.4657
 4639SOL     OW18278   2.179   4.400   2.320  0.5926 -0.5779  0.2134
 4639SOL    HW118279   2.222   4.485   2.326  1.0636 -0.5047 -2.9502
 4639SOL    HW218280   2.226   4.345   2.383  0.8778  1.1877  1.6492
 4640SOL     OW18281   6.447   4.658   3.338  0.4193  0.6074  0.3256
 4640SOL    HW118282   6.435   4.622   3.250  1.8556 -1.4845  0.8917
 4640SOL    HW218283   6.507   4.731   3.326  0.2869  0.5905 -0.4830
 4641SOL     OW18284   5.711   5.522   2.235 -0.0609  0.3793 -0.2809
 4641SOL    HW118285   5.637   5.550   2.181 -0.3146  0.1967 -0.0324
 4641SOL    HW218286   5.671   5.492   2.317 -0.0539 -2.8621 -1.3345
 4642SOL     OW18287   6.561   2.749  10.348 -0.1307 -0.0538  0.2412
 4642SOL    HW118288   6.611   2.675  10.315 -0.7079 -1.3016  1.9752
 4642SOL    HW218289   6.606   2.826  10.315  2.2414 -1.1271  0.7712
 4643SOL     OW18290  10.296   1.699   6.254  0.7017  0.0043 -0.7882
 4643SOL    HW118291  10.341   1.674   6.173  1.6520 -2.3024  0.3351
 4643SOL    HW218292  10.366   1.710   6.318 -0.1457 -0.8886  0.3460
 4644SOL     OW18293  10.579   9.243   4.782 -0.0835  0.1892 -0.2962
 4644SOL    HW118294  10.540   9.322   4.744 -2.4127 -0.8592 -0.2235
 4644SOL    HW218295  10.654   9.223   4.725  1.2937  3.0254  0.3440
 4645SOL     OW18296  11.081   6.852   9.373 -0.3713  0.1468  0.0804
 4645SOL    HW118297  11.112   6.839   9.284  1.0014 -2.5789  0.8086
 4645SOL    HW218298  11.147   6.908   9.414  0.9602 -1.4560  0.2429
 4646SOL     OW18299   4.964   6.656   6.513  0.2198 -0.1515  0.0639
 4646SOL    HW118300   5.057   6.661   6.494  0.8878 -0.4214  2.8583
 4646SOL    HW218301   4.921   6.685   6.432  2.7014  0.3553 -1.1545
 4647SOL     OW18302   8.622   1.137   0.921  0.4007  0.3765  0.1561
 4647SOL    HW118303   8.700   1.181   0.955  0.5511 -0.0412  0.3618
 4647SOL    HW218304   8.655   1.078   0.854  0.1812  0.6952 -0.2354
 4648SOL     OW18305   8.958   3.394   6.597 -0.5614 -0.0324  0.0611
 4648SOL    HW118306   9.046   3.397   6.558 -0.5091 -0.2314  0.1623
 4648SOL    HW218307   8.974   3.380   6.690 -0.6913  0.2593  0.1268
 4649SOL     OW18308  10.599   7.453   5.982  0.3430  0.1848  0.0360
 4649SOL    HW118309  10.616   7.362   5.956  1.4097  0.3980 -0.0573
 4649SOL    HW218310  10.526   7.447   6.044  0.5446 -0.7574  0.1981
 4650SOL     OW18311  10.938  10.998   0.805  0.7460  0.4264 -0.1290
 4650SOL    HW118312  10.865  11.052   0.834  0.0396 -0.1049 -0.8509
 4650SOL    HW218313  10.981  11.050   0.737  0.6423  0.4801 -0.1539
 4651SOL     OW18314   6.048   6.345   6.276  0.0356  0.2490 -0.3548
 4651SOL    HW118315   6.131   6.356   6.323 -0.3828 -0.1891  0.5150
 4651SOL    HW218316   6.073   6.304   6.193  0.6841  0.0490 -0.0699
 4652SOL     OW18317   2.223   4.545   8.559 -0.1140  0.3112  0.2406
 4652SOL    HW118318   2.222   4.595   8.641  0.4162 -0.3277  0.6405
 4652SOL    HW218319   2.312   4.511   8.553  0.7204  2.5381 -1.9609
 4653SOL     OW18320   8.907   1.038   7.777 -0.3954  0.0935 -0.3017
 4653SOL    HW118321   8.860   0.960   7.747 -1.0020  0.5520 -0.5480
 4653SOL    HW218322   8.944   1.076   7.698  1.4463 -0.9173  0.0061
 4654SOL     OW18323   4.887   7.483   9.297  0.2613 -0.1373  0.3461
 4654SOL    HW118324   4.876   7.472   9.391  0.7453  2.5943  0.8105
 4654SOL    HW218325   4.982   7.477   9.284  0.2471  0.1125  0.1279
 4655SOL     OW18326   5.537  10.164   7.186 -0.5110 -0.2092 -0.2282
 4655SOL    HW118327   5.505  10.227   7.121 -0.6550  0.9133  0.8927
 4655SOL    HW218328   5.458  10.134   7.231 -0.2174  1.3118  1.4281
 4656SOL     OW18329   5.269   1.618   7.692 -0.1081  0.0111 -0.2785
 4656SOL    HW118330   5.241   1.701   7.653  1.4283  0.2153 -1.0217
 4656SOL    HW218331   5.362   1.631   7.712 -0.7295 -0.1845  3.2903
 4657SOL     OW18332   3.178   1.450   7.899 -0.0859 -0.2228 -0.1738
 4657SOL    HW118333   3.246   1.423   7.959  0.2557 -0.0114 -0.4604
 4657SOL    HW218334   3.116   1.500   7.953  0.2988  0.0981 -0.0257
 4658SOL     OW18335   8.366   3.590   1.760  0.1208  0.4423 -0.0702
 4658SOL    HW118336   8.446   3.575   1.710  0.3255 -2.0206  0.8642
 4658SOL    HW218337   8.395   3.623   1.844 -0.1931  3.9560 -1.1888
 4659SOL     OW18338   3.265   4.829   9.185  0.5465  0.3326  0.1935
 4659SOL    HW118339   3.242   4.737   9.200  0.3204 -0.1329 -2.5777
 4659SOL    HW218340   3.182   4.876   9.190  0.3322  0.0429 -0.6172
 4660SOL     OW18341   4.544   5.124   4.433 -0.0291  0.1220  0.1897
 4660SOL    HW118342   4.585   5.199   4.391 -0.9317  1.3051  1.3460
 4660SOL    HW218343   4.470   5.102   4.375  1.5062 -1.3551 -1.3368
 4661SOL     OW18344   9.638   6.955   5.443  0.4758 -0.4790 -0.4850
 4661SOL    HW118345   9.610   7.009   5.517  2.7054  0.6732 -0.4024
 4661SOL    HW218346   9.626   7.012   5.367 -2.2623 -1.8142 -1.1916
 4662SOL     OW18347   9.631   5.345   1.899  0.1460  0.0888  0.5491
 4662SOL    HW118348   9.655   5.330   1.990 -0.2461 -0.2620  0.6002
 4662SOL    HW218349   9.578   5.268   1.876  0.7759 -0.1420 -0.1684
 4663SOL     OW18350   6.901   8.766  10.492 -0.1414 -0.0009  0.0379
 4663SOL    HW118351   6.898   8.671  10.490  0.4678 -0.1083  1.9096
 4663SOL    HW218352   6.819   8.794  10.451 -0.6460 -1.3388  0.0837
 4664SOL     OW18353   0.834   5.597   7.553  0.1864 -0.2398 -0.4340
 4664SOL    HW118354   0.919   5.575   7.512  0.6553  2.6507 -1.1978
 4664SOL    HW218355   0.857   5.625   7.641 -0.1962 -0.9520 -0.0979
 4665SOL     OW18356   0.921  10.358   2.502  0.2468  0.3439 -0.2924
 4665SOL    HW118357   0.901  10.451   2.499  0.2189  0.3727  0.5359
 4665SOL    HW218358   0.901  10.326   2.414  0.3307  1.1298 -0.6059
 4666SOL     OW18359   1.676   3.664   6.316  0.2550 -0.1233  0.3257
 4666SOL    HW118360   1.654   3.668   6.409 -0.5444  0.1278  0.1413
 4666SOL    HW218361   1.676   3.571   6.294  1.7009 -0.2646  0.8468
 4667SOL     OW18362   3.473   6.658   1.710 -0.0139  0.2936  1.0080
 4667SOL    HW118363   3.480   6.754   1.708  0.0344  0.3668 -2.4669
 4667SOL    HW218364   3.563   6.627   1.698 -0.3649 -0.0025 -1.3231
 4668SOL     OW18365   2.952   7.435  11.020 -0.0030 -0.2081  0.6946
 4668SOL    HW118366   2.971   7.529  11.019  1.2559 -0.4504  0.5733
 4668SOL    HW218367   2.983   7.403  10.936  1.4668 -1.0684  1.5244
 4669SOL     OW18368   4.628   1.232   3.830  0.3556  0.2192  0.4348
 4669SOL    HW118369   4.613   1.241   3.924  0.7571 -1.0532  0.6378
 4669SOL    HW218370   4.681   1.308   3.807  2.1508 -0.5758  1.6998
 4670SOL     OW18371   0.887   5.184   7.412  0.0941 -0.0249 -0.2387
 4670SOL    HW118372   0.934   5.233   7.345 -1.5136  0.0847 -1.3290
 4670SOL    HW218373   0.799   5.173   7.377 -0.2640 -1.6112  1.0484
 4671SOL     OW18374   8.472   6.335  10.507 -0.2791 -0.1354  0.1941
 4671SOL    HW118375   8.497   6.255  10.553  1.4003 -0.1079 -0.6021
 4671SOL    HW218376   8.386   6.358  10.544  0.4640 -0.7268  2.4757
 4672SOL     OW18377   5.085   8.226   6.869 -0.8596 -0.1905  0.5092
 4672SOL    HW118378   5.100   8.268   6.784  1.5971 -2.0399 -0.1162
 4672SOL    HW218379   5.112   8.292   6.933  0.1398  0.2289 -0.3017
 4673SOL     OW18380   2.393   4.096   1.207 -0.0813  0.2789  0.3312
 4673SOL    HW118381   2.382   4.189   1.184 -0.1201  0.0751 -0.4925
 4673SOL    HW218382   2.473   4.094   1.259 -0.1816  0.8003  0.5163
 4674SOL     OW18383   0.592  10.549   2.081  0.7127  0.1580  0.1742
 4674SOL    HW118384   0.656  10.563   2.011  3.1177  1.3998  2.4132
 4674SOL    HW218385   0.516  10.601   2.056  2.1040  1.8130 -0.8160
 4675SOL     OW18386   9.210  10.015   9.511  0.2761 -0.2243 -0.2358
 4675SOL    HW118387   9.240   9.980   9.595 -1.4985 -0.9609  0.1240
 4675SOL    HW218388   9.191   9.938   9.457 -1.3633  0.1675 -0.2740
 4676SOL     OW18389   2.588   0.270   0.769 -0.1750 -0.0671  0.1544
 4676SOL    HW118390   2.653   0.340   0.766 -0.9668  0.7020  0.3783
 4676SOL    HW218391   2.543   0.277   0.684 -1.7385  1.1820  1.0381
 4677SOL     OW18392   7.355   7.313   4.596  0.3282 -0.2720  0.1596
 4677SOL    HW118393   7.336   7.285   4.686  1.3174  0.8070  0.7284
 4677SOL    HW218394   7.269   7.337   4.560 -0.0073 -0.1331  1.0195
 4678SOL     OW18395   4.960   9.242   9.872  0.1759  0.1434  0.2272
 4678SOL    HW118396   4.935   9.150   9.870  1.0457 -0.1037 -0.0168
 4678SOL    HW218397   4.880   9.289   9.894  0.0662 -0.8100  2.0776
 4679SOL     OW18398   0.288   8.481   9.809 -0.0402  0.4576 -0.2200
 4679SOL    HW118399   0.215   8.489   9.748  0.3782 -0.3733 -0.8448
 4679SOL    HW218400   0.258   8.416   9.873 -0.5708  1.4977  0.6214
 4680SOL     OW18401   7.348   0.252   9.629  0.4668  0.0634 -0.2019
 4680SOL    HW118402   7.421   0.244   9.567  0.8429  0.5423  0.1710
 4680SOL    HW218403   7.270   0.261   9.573  0.4798 -1.9770 -0.6312
 4681SOL     OW18404   9.670   0.020   2.708  0.1931  0.0919  0.6439
 4681SOL    HW118405   9.756   0.053   2.681 -0.4471  0.7148 -0.7129
 4681SOL    HW218406   9.643   0.079   2.778  0.5093  0.4110  0.4995
 4682SOL     OW18407   0.098   8.303   2.112 -0.3292 -0.5848 -0.0190
 4682SOL    HW118408   0.038   8.347   2.172  0.8341  1.2639 -0.1217
 4682SOL    HW218409   0.132   8.373   2.056 -0.7547 -2.1332 -2.3249
 4683SOL     OW18410   7.176   5.432   2.923 -0.1931  0.6757 -0.0863
 4683SOL    HW118411   7.239   5.498   2.898  1.5245 -0.8291  0.0498
 4683SOL    HW218412   7.227   5.366   2.970 -1.4869 -1.5804 -1.6506
 4684SOL     OW18413   3.206  10.874   9.262 -0.0941  0.5149 -0.5778
 4684SOL    HW118414   3.173  10.795   9.303 -0.1444  0.2864 -1.0603
 4684SOL    HW218415   3.142  10.896   9.194 -0.3188  1.2241 -0.1552
 4685SOL     OW18416   5.552   0.141   8.249  0.0566 -0.0191  0.0146
 4685SOL    HW118417   5.484   0.114   8.186  1.0271 -1.2559 -0.5510
 4685SOL    HW218418   5.634   0.132   8.200  0.9850 -2.4446  1.8186
 4686SOL     OW18419   2.274   7.776   7.360 -0.2927 -0.8196  0.5993
 4686SOL    HW118420   2.296   7.815   7.445 -0.5468 -0.4476  0.4947
 4686SOL    HW218421   2.263   7.851   7.301 -0.9524 -1.0381  0.4367
 4687SOL     OW18422   1.379   9.170   1.678  0.6721 -0.3694  0.4943
 4687SOL    HW118423   1.325   9.229   1.626  0.8274 -1.5492 -1.0880
 4687SOL    HW218424   1.464   9.213   1.684  1.2080 -1.0051 -1.8456
 4688SOL     OW18425   4.055   8.115   0.058 -0.1688  0.8172 -0.1455
 4688SOL    HW118426   4.112   8.181   0.097 -1.0538  2.3285 -1.2852
 4688SOL    HW218427   4.018   8.158  -0.019 -0.9389 -0.9611 -0.8255
 4689SOL     OW18428   5.019   3.146   9.409  0.3780  0.8191 -0.2223
 4689SOL    HW118429   5.102   3.113   9.443  0.1026  0.1684 -0.1623
 4689SOL    HW218430   5.028   3.139   9.314 -0.0728 -0.4565 -0.1904
 4690SOL     OW18431   9.159   2.355   2.429 -0.3730 -0.1294  0.2092
 4690SOL    HW118432   9.106   2.420   2.475  0.3330 -0.3001  1.2922
 4690SOL    HW218433   9.245   2.397   2.421 -0.3015 -0.3799 -0.3460
 4691SOL     OW18434   9.490   7.782  10.620 -0.3866 -0.7362  0.1007
 4691SOL    HW118435   9.407   7.767  10.575  0.1941  1.3064 -1.8665
 4691SOL    HW218436   9.521   7.867  10.586  0.9727  0.1351  3.1760
 4692SOL     OW18437   5.310   6.699   2.538 -0.1678  0.0581 -0.3042
 4692SOL    HW118438   5.349   6.722   2.623 -0.5622  0.9294 -0.3444
 4692SOL    HW218439   5.219   6.728   2.545  0.1518  1.4780 -1.5142
 4693SOL     OW18440   9.866   6.618   7.745 -0.2905 -0.0050 -0.1376
 4693SOL    HW118441   9.793   6.581   7.696  0.1350 -1.5733  0.3652
 4693SOL    HW218442   9.933   6.635   7.679  0.2663 -2.0723 -0.1739
 4694SOL     OW18443   6.587   7.592   0.141  0.0700  0.1059 -0.4187
 4694SOL    HW118444   6.575   7.599   0.046  0.2520  0.9135 -0.3904
 4694SOL    HW218445   6.534   7.663   0.177 -0.3570 -0.4818  0.1121
 4695SOL     OW18446   9.298   7.025   5.762  0.7714  0.2340 -0.3422
 4695SOL    HW118447   9.376   7.029   5.707  0.2580 -1.4033 -1.2664
 4695SOL    HW218448   9.242   7.096   5.730  1.4604  0.7909 -0.3327
 4696SOL     OW18449   6.849   5.561   2.355 -0.4133 -0.1094  0.0629
 4696SOL    HW118450   6.870   5.651   2.331 -0.5993 -0.1430 -0.2271
 4696SOL    HW218451   6.759   5.566   2.387  0.1400  0.1034  1.6714
 4697SOL     OW18452   2.794  10.912   4.165 -0.6510 -0.3392  0.1141
 4697SOL    HW118453   2.864  10.910   4.230 -1.6700 -1.8339  1.2293
 4697SOL    HW218454   2.762  11.002   4.166 -0.4182 -0.2566  1.4088
 4698SOL     OW18455   4.128   5.328   8.066 -0.4380  0.3176  0.1001
 4698SOL    HW118456   4.224   5.332   8.059 -0.4793 -0.0199 -0.7786
 4698SOL    HW218457   4.102   5.417   8.089  0.3323 -0.2844  4.1451
 4699SOL     OW18458   0.963   1.932   8.992  0.3814  0.2256 -0.0732
 4699SOL    HW118459   1.047   1.903   9.030  0.7745  1.4646  0.0428
 4699SOL    HW218460   0.898   1.879   9.038  1.0085  0.2087  0.8478
 4700SOL     OW18461   8.167   2.386   6.729 -0.1758 -0.3619 -0.6548
 4700SOL    HW118462   8.122   2.369   6.812 -0.1472 -1.2800 -0.8157
 4700SOL    HW218463   8.257   2.407   6.753 -0.5507  1.0101 -0.3612
 4701SOL     OW18464  10.309   2.906   7.832 -0.5592 -0.1964 -0.4122
 4701SOL    HW118465  10.307   2.857   7.750  0.9488 -1.4069  0.2068
 4701SOL    HW218466  10.364   2.982   7.813  2.6346 -2.1388  0.1897
 4702SOL     OW18467   9.906   0.512   4.324  0.1948 -0.1642  0.1255
 4702SOL    HW118468   9.961   0.441   4.292 -1.6040 -1.7034  0.2587
 4702SOL    HW218469   9.889   0.491   4.416  0.9545  1.3518  0.6490
 4703SOL     OW18470   1.744  10.268  11.078  0.1288  0.0196 -0.1233
 4703SOL    HW118471   1.802  10.220  11.137 -0.3634  1.0253  1.2339
 4703SOL    HW218472   1.663  10.217  11.078  0.1926 -0.0832 -0.0602
 4704SOL     OW18473   1.667  10.079   5.091 -0.8554 -0.4272 -0.4596
 4704SOL    HW118474   1.714  10.157   5.120  0.8613 -1.0983 -1.2948
 4704SOL    HW218475   1.643  10.033   5.172  1.2307 -0.7854  0.0036
 4705SOL     OW18476   2.606   8.157   3.967 -0.7433 -0.2153 -0.2014
 4705SOL    HW118477   2.595   8.226   4.033  0.4865  0.0144 -0.2094
 4705SOL    HW218478   2.548   8.182   3.896 -0.3362  0.8112 -0.1874
 4706SOL     OW18479   5.108  10.805   7.170 -0.1801  0.4019 -0.3464
 4706SOL    HW118480   5.143  10.894   7.169 -0.9631  0.7145 -0.9901
 4706SOL    HW218481   5.020  10.814   7.206  0.5055 -0.4425  1.6685
 4707SOL     OW18482   4.346   6.935   1.328  0.0061  0.0361  0.1489
 4707SOL    HW118483   4.372   6.856   1.376  2.0348  1.1989  1.1242
 4707SOL    HW218484   4.400   6.934   1.249 -0.9630 -0.2252 -0.5244
 4708SOL     OW18485   4.564   6.314   3.515  0.7360  0.2889 -0.4802
 4708SOL    HW118486   4.558   6.408   3.499  1.3117  0.4178 -0.0151
 4708SOL    HW218487   4.478   6.279   3.494  0.4126  0.9808 -0.3114
 4709SOL     OW18488   8.170   8.800   7.717  0.1749  0.0614 -0.3616
 4709SOL    HW118489   8.232   8.729   7.702  1.1405  0.7506  0.2551
 4709SOL    HW218490   8.221   8.880   7.704 -0.7810  0.6482 -0.6147
 4710SOL     OW18491   2.570   0.092   0.166 -0.5120 -0.7950  0.3916
 4710SOL    HW118492   2.649   0.146   0.155  0.0719 -1.3629  1.5877
 4710SOL    HW218493   2.530   0.089   0.079 -1.3605  2.7290  0.5103
 4711SOL     OW18494   7.186   6.830   1.837 -0.6212  0.0412 -0.3305
 4711SOL    HW118495   7.128   6.764   1.876 -0.0452 -0.4687 -0.3246
 4711SOL    HW218496   7.252   6.779   1.790 -0.4488  0.6248 -0.7327
 4712SOL     OW18497  10.422   5.037   2.448 -0.2005  0.5150 -0.1659
 4712SOL    HW118498  10.472   5.036   2.366 -0.0851 -0.1254 -0.0896
 4712SOL    HW218499  10.474   5.091   2.507 -0.2897  0.9902 -0.5167
 4713SOL     OW18500   1.373   0.270   2.599 -0.5195 -0.2304  0.4848
 4713SOL    HW118501   1.285   0.263   2.636 -0.9111 -1.6439 -0.6050
 4713SOL    HW218502   1.420   0.328   2.659 -2.1060  0.3408  1.2370
 4714SOL     OW18503   6.686   9.349   6.027  0.1931 -0.2938  0.0651
 4714SOL    HW118504   6.728   9.298   5.957 -1.2758 -0.9599 -0.3553
 4714SOL    HW218505   6.618   9.399   5.983  0.5304  0.7941  0.7394
 4715SOL     OW18506   4.769   1.733   7.632 -0.0308  0.3637 -0.6513
 4715SOL    HW118507   4.827   1.687   7.693 -0.1124  1.7539  0.5377
 4715SOL    HW218508   4.723   1.664   7.585 -0.0973 -0.7739  1.0109
 4716SOL     OW18509   8.356   6.384   8.101 -0.1706 -0.0159 -0.1215
 4716SOL    HW118510   8.305   6.385   8.020 -0.2528 -1.1535 -0.1027
 4716SOL    HW218511   8.333   6.301   8.143 -1.5638  1.3495  2.0128
 4717SOL     OW18512   2.216   9.659   1.253  0.7618 -0.3324 -0.5422
 4717SOL    HW118513   2.150   9.591   1.237 -0.1497  0.8946 -2.3905
 4717SOL    HW218514   2.243   9.646   1.344 -1.8878 -0.9962  0.2252
 4718SOL     OW18515   6.609   7.530   5.813  0.6675 -0.9668 -0.2707
 4718SOL    HW118516   6.567   7.560   5.733 -0.0411  3.2000  1.4096
 4718SOL    HW218517   6.703   7.539   5.796  0.5841 -1.5305 -1.0741
 4719SOL     OW18518   2.991   2.455   6.730  0.2737 -0.3256 -0.1414
 4719SOL    HW118519   3.009   2.397   6.804  0.9593  0.0156 -0.0390
 4719SOL    HW218520   3.067   2.512   6.725 -0.6101  0.9094  0.0640
 4720SOL     OW18521  11.012   3.783   7.727 -0.2443 -0.1348 -0.5654
 4720SOL    HW118522  11.029   3.810   7.637 -3.1800 -0.3584 -1.2900
 4720SOL    HW218523  11.052   3.697   7.735  0.5483  0.1344 -1.4568
 4721SOL     OW18524   1.396   8.768   6.743 -0.4571 -0.6070  0.2351
 4721SOL    HW118525   1.481   8.790   6.705 -2.3222  5.0685 -1.5837
 4721SOL    HW218526   1.345   8.732   6.670 -0.9789  0.5037  0.0392
 4722SOL     OW18527   4.869  10.557   6.261  0.1953  0.1594 -0.5368
 4722SOL    HW118528   4.891  10.650   6.271  0.8510  0.0066 -0.5706
 4722SOL    HW218529   4.773  10.556   6.261  0.1524  0.9905 -1.9295
 4723SOL     OW18530  11.049   9.945   5.622  0.5220 -0.6581 -0.4125
 4723SOL    HW118531  11.009  10.030   5.642  3.1192  0.6431 -0.2998
 4723SOL    HW218532  11.020   9.888   5.693 -2.2856 -0.2937 -1.1437
 4724SOL     OW18533   9.398   1.883   5.126 -0.4971 -0.2744  0.1666
 4724SOL    HW118534   9.411   1.839   5.042  0.6953 -2.2610  1.3266
 4724SOL    HW218535   9.476   1.937   5.138  0.6459 -2.0492  1.1441
 4725SOL     OW18536   1.511   0.495   2.832 -0.1977  0.4621 -0.5352
 4725SOL    HW118537   1.578   0.445   2.785  0.5657  1.1379 -0.1920
 4725SOL    HW218538   1.532   0.483   2.924 -1.3378 -0.3718 -0.3699
 4726SOL     OW18539   2.511   1.328   6.024 -0.4572  0.3848 -0.5437
 4726SOL    HW118540   2.587   1.317   5.967  0.8607  1.1598  0.9882
 4726SOL    HW218541   2.547   1.336   6.112 -2.1283  2.9518  0.0184
 4727SOL     OW18542   3.597   1.215   8.828 -0.1077 -0.0712 -0.0001
 4727SOL    HW118543   3.611   1.261   8.746  0.8140 -1.8843 -0.9272
 4727SOL    HW218544   3.684   1.187   8.856 -0.3675  0.7420  1.7698
 4728SOL     OW18545   6.709   7.273   6.142  0.0222  0.3171 -0.2139
 4728SOL    HW118546   6.747   7.298   6.226  0.0985  2.4459 -0.8255
 4728SOL    HW218547   6.651   7.199   6.162  0.1429  0.6987  1.6699
 4729SOL     OW18548   6.071   8.220  10.000  0.2827  0.7367  0.4036
 4729SOL    HW118549   6.112   8.298   9.962  1.4942  0.7398  1.6523
 4729SOL    HW218550   6.123   8.147   9.966  1.2632  0.7276  1.8420
 4730SOL     OW18551   1.081  10.683   1.231  0.1272  0.3754  0.2087
 4730SOL    HW118552   1.113  10.754   1.175 -1.7076  1.4253  0.4296
 4730SOL    HW218553   1.126  10.605   1.198  0.9556  1.3659 -1.1047
 4731SOL     OW18554   8.376   4.214   5.688 -0.7724 -0.1501  0.6002
 4731SOL    HW118555   8.453   4.259   5.652 -0.6771  1.5275  2.7302
 4731SOL    HW218556   8.411   4.133   5.725 -0.4413 -0.5413 -0.5146
 4732SOL     OW18557   8.257   1.471   5.202  0.0015  0.1160 -0.3066
 4732SOL    HW118558   8.274   1.419   5.124 -0.0287 -0.3394 -0.0114
 4732SOL    HW218559   8.162   1.476   5.208  0.0039  0.3271 -0.4106
 4733SOL     OW18560   6.100   7.579   4.282 -0.8063 -0.3551 -0.1628
 4733SOL    HW118561   6.174   7.566   4.343 -0.7369 -0.7710 -0.3315
 4733SOL    HW218562   6.139   7.567   4.195 -0.9952 -0.1926 -0.2693
 4734SOL     OW18563   6.672   3.966   0.759  0.6019  0.0914 -0.4097
 4734SOL    HW118564   6.659   3.938   0.849  0.2349  1.0526 -0.1594
 4734SOL    HW218565   6.662   4.061   0.761  2.0852  0.2957 -1.1893
 4735SOL     OW18566   4.454   2.714   6.330 -0.2581  0.0489 -0.5521
 4735SOL    HW118567   4.401   2.645   6.290 -0.3925 -0.5169  0.5906
 4735SOL    HW218568   4.473   2.683   6.418  0.5235  1.0278 -0.3540
 4736SOL     OW18569   1.613   3.558   0.434 -0.1769  0.1634  0.7037
 4736SOL    HW118570   1.678   3.488   0.437  0.3370  0.4736 -1.3417
 4736SOL    HW218571   1.664   3.638   0.444 -0.2129  0.4010 -0.7723
 4737SOL     OW18572   7.721   9.475   7.217 -0.3719 -0.0274  0.1789
 4737SOL    HW118573   7.668   9.500   7.294 -1.6075 -2.7512  0.3167
 4737SOL    HW218574   7.810   9.499   7.241 -1.1143  1.9857  1.1776
 4738SOL     OW18575   3.726   9.508   0.538  0.0750  0.1630  0.7714
 4738SOL    HW118576   3.659   9.529   0.603 -0.7899  0.5593 -0.2237
 4738SOL    HW218577   3.805   9.550   0.572 -0.4553  0.7048  1.3774
 4739SOL     OW18578   7.589   3.381   0.665 -0.1762  0.1019 -0.2102
 4739SOL    HW118579   7.518   3.446   0.658 -1.0319 -0.8022 -0.1346
 4739SOL    HW218580   7.560   3.308   0.611 -0.6006 -1.4098  1.9111
 4740SOL     OW18581   7.573   2.722   2.263 -0.0780 -0.2164  0.2248
 4740SOL    HW118582   7.654   2.759   2.295 -0.1972  0.8238 -0.6249
 4740SOL    HW218583   7.552   2.652   2.325  0.2850  0.9691  1.7304
 4741SOL     OW18584   9.727  10.806  10.449 -0.1552 -0.2722 -0.1175
 4741SOL    HW118585   9.703  10.896  10.426 -1.0532  0.3585  2.8355
 4741SOL    HW218586   9.804  10.815  10.505 -0.8421 -1.2195  1.0261
 4742SOL     OW18587   3.017   0.160   6.091 -0.2809 -0.1449  0.0108
 4742SOL    HW118588   3.009   0.110   6.009  0.7113  0.1855 -0.3030
 4742SOL    HW218589   2.999   0.096   6.159  1.8384 -1.2055 -0.3463
 4743SOL     OW18590   5.040  10.517   4.513 -0.1304 -0.5400  0.1311
 4743SOL    HW118591   5.097  10.574   4.565 -1.1415  0.1720  0.4982
 4743SOL    HW218592   5.100  10.460   4.465  0.8632 -2.6078  3.5087
 4744SOL     OW18593   6.145   3.307   6.155 -0.1644  0.3887 -0.2980
 4744SOL    HW118594   6.192   3.224   6.154 -1.0854 -0.1318 -1.1909
 4744SOL    HW218595   6.187   3.359   6.086  1.6141  1.3967  1.4203
 4745SOL     OW18596   6.434   9.296   8.393  0.4310  0.4237  0.3083
 4745SOL    HW118597   6.365   9.249   8.439  0.1595 -0.0679 -0.5887
 4745SOL    HW218598   6.471   9.231   8.332  1.2748  0.8521  0.3425
 4746SOL     OW18599   6.365   8.858  10.353 -0.1249 -0.1110  0.5500
 4746SOL    HW118600   6.292   8.848  10.414 -1.8735  0.3880 -1.3509
 4746SOL    HW218601   6.355   8.947  10.318  0.2418 -0.7034 -1.1441
 4747SOL     OW18602   4.468   2.726   3.890 -0.1077 -0.6253  0.3872
 4747SOL    HW118603   4.519   2.647   3.874  1.7621  1.1307 -3.8808
 4747SOL    HW218604   4.518   2.776   3.955  0.5609 -1.4156  0.4878
 4748SOL     OW18605   6.413   5.177  10.369 -0.1753  0.1477 -0.0924
 4748SOL    HW118606   6.323   5.190  10.401 -0.3060  2.3149 -1.1628
 4748SOL    HW218607   6.406   5.103  10.308 -0.8499 -0.8432  1.1308
 4749SOL     OW18608   5.583   0.126   1.904 -0.4327 -0.0229 -0.0572
 4749SOL    HW118609   5.619   0.038   1.912  0.6702  0.4169 -0.0829
 4749SOL    HW218610   5.524   0.134   1.978  1.0363 -0.0522  1.1555
 4750SOL     OW18611   2.835   5.965   2.072 -0.0737 -0.6151  0.6131
 4750SOL    HW118612   2.845   5.894   2.008  1.5160 -0.5693  0.7809
 4750SOL    HW218613   2.804   6.039   2.021  0.4800 -0.7820  0.0278
 4751SOL     OW18614   6.946   0.444  10.001 -0.0069  0.4770 -0.4481
 4751SOL    HW118615   6.972   0.502   9.930 -1.2975  0.9220 -0.5900
 4751SOL    HW218616   6.850   0.440   9.995 -0.0460 -0.4930  0.4728
 4752SOL     OW18617   4.251   4.341   2.943 -0.3591 -0.1755  0.2797
 4752SOL    HW118618   4.187   4.361   2.874 -0.5865 -0.0846  0.5155
 4752SOL    HW218619   4.198   4.307   3.015  0.0160 -1.7630 -0.1421
 4753SOL     OW18620   8.177   7.416   0.418 -0.1094  0.7190  0.2048
 4753SOL    HW118621   8.265   7.410   0.382 -0.5761 -1.2156 -0.7259
 4753SOL    HW218622   8.190   7.417   0.513  0.8831 -2.3489  0.2023
 4754SOL     OW18623   4.446   0.255   1.062  0.0866 -0.4117 -0.1625
 4754SOL    HW118624   4.374   0.245   1.124 -0.0405 -1.0511 -0.4065
 4754SOL    HW218625   4.502   0.179   1.077 -0.6562 -1.3048 -1.7526
 4755SOL     OW18626   2.312   9.918   4.498  0.0803 -0.8092 -0.4350
 4755SOL    HW118627   2.258   9.967   4.559 -1.8885 -1.6407 -1.4125
 4755SOL    HW218628   2.335   9.838   4.545 -2.0470 -1.7937 -0.9144
 4756SOL     OW18629   9.814   2.336   4.968  0.0990  0.0322  0.1561
 4756SOL    HW118630   9.755   2.263   4.955  0.5587 -0.2476 -0.4231
 4756SOL    HW218631   9.762   2.414   4.946 -0.0193 -0.2178 -0.4674
 4757SOL     OW18632   3.690   5.576  10.309  0.1440  0.1306 -0.3479
 4757SOL    HW118633   3.639   5.585  10.229  0.1843  0.1685 -0.3692
 4757SOL    HW218634   3.678   5.659  10.355  0.0248  0.0638 -0.2575
 4758SOL     OW18635  10.307   7.861   3.323  0.2264  0.4966 -0.2198
 4758SOL    HW118636  10.351   7.804   3.259 -0.6563 -0.5538  0.0826
 4758SOL    HW218637  10.306   7.810   3.404 -1.3799  0.5680 -0.1689
 4759SOL     OW18638  10.564   2.898   3.022 -0.1544  0.5850  0.1412
 4759SOL    HW118639  10.631   2.950   3.066 -0.8433  1.0622  0.6519
 4759SOL    HW218640  10.490   2.958   3.011 -0.3109  0.2248 -0.9006
 4760SOL     OW18641   6.628   5.088   3.179  0.4698 -0.1453 -0.2935
 4760SOL    HW118642   6.679   5.013   3.209 -0.7873 -1.2441 -0.8092
 4760SOL    HW218643   6.546   5.050   3.147 -0.0218  1.4134 -0.9687
 4761SOL     OW18644   0.587   1.447   6.044  0.9411 -0.4270 -0.2771
 4761SOL    HW118645   0.604   1.370   6.098  2.4416  0.6688  0.9071
 4761SOL    HW218646   0.667   1.458   5.992  0.0503 -0.6641 -1.7507
 4762SOL     OW18647   1.236   3.134   0.971 -0.7373 -0.4705 -0.7555
 4762SOL    HW118648   1.141   3.133   0.975 -0.7228  0.8014  1.1183
 4762SOL    HW218649   1.257   3.092   0.888 -2.9452  0.0091 -1.6091
 4763SOL     OW18650  10.285   6.385   1.851  0.0861 -0.4822  0.1063
 4763SOL    HW118651  10.246   6.298   1.840 -0.9480 -0.2436  1.5848
 4763SOL    HW218652  10.229   6.428   1.916 -0.1632  1.7530 -1.4798
 4764SOL     OW18653   1.964   5.503   4.797  0.1863 -0.4305  0.4107
 4764SOL    HW118654   2.027   5.496   4.725 -1.1005  2.0599 -1.0929
 4764SOL    HW218655   1.893   5.445   4.774 -0.2159  0.3527 -0.3570
 4765SOL     OW18656  11.104   5.535   6.489 -0.1478 -0.0636  0.0622
 4765SOL    HW118657  11.015   5.518   6.520  0.6843 -0.5695  2.3566
 4765SOL    HW218658  11.159   5.476   6.540  1.7268  1.7717  0.2916
 4766SOL     OW18659   9.064   7.640   5.912  0.1305 -0.2379 -0.3347
 4766SOL    HW118660   8.979   7.623   5.952 -0.4697 -1.8929 -2.1273
 4766SOL    HW218661   9.122   7.576   5.952 -0.3582 -1.5661 -1.6505
 4767SOL     OW18662   1.091   0.218   4.532  0.4195 -0.3690  0.0555
 4767SOL    HW118663   1.038   0.151   4.576  0.7873 -0.6677  0.0531
 4767SOL    HW218664   1.177   0.209   4.572  0.6361 -0.3310 -0.4015
 4768SOL     OW18665   7.569   0.516   4.027  1.0902 -0.3938  0.0646
 4768SOL    HW118666   7.615   0.552   4.103  0.2728 -0.1837  0.4636
 4768SOL    HW218667   7.478   0.510   4.054  1.0373 -1.8391 -0.3399
 4769SOL     OW18668   5.137   5.229   5.649  0.0520  0.3179  0.2392
 4769SOL    HW118669   5.056   5.268   5.616 -0.3634  0.5347  1.4543
 4769SOL    HW218670   5.187   5.208   5.571 -2.7063 -3.2247 -0.8848
 4770SOL     OW18671   6.980   1.659   8.137  0.3315  0.2128  0.1710
 4770SOL    HW118672   7.009   1.568   8.143  0.1733  0.1795  0.4238
 4770SOL    HW218673   6.958   1.684   8.227  1.1447  0.7562  0.2366
 4771SOL     OW18674   4.507   8.739   1.810 -0.7694  0.1680  0.7194
 4771SOL    HW118675   4.451   8.698   1.876 -3.4297  1.2626 -0.7200
 4771SOL    HW218676   4.523   8.669   1.746  1.0063 -0.6125  1.9174
 4772SOL     OW18677   6.952   4.293   9.908 -0.3593 -0.8801 -0.1539
 4772SOL    HW118678   6.956   4.383   9.940  0.5908 -0.6395 -0.8845
 4772SOL    HW218679   6.860   4.280   9.883 -1.0144 -0.9099  2.1025
 4773SOL     OW18680   2.851  10.140   3.756  0.6145 -0.2641  0.1932
 4773SOL    HW118681   2.843  10.228   3.793  0.8428 -0.4994  0.8236
 4773SOL    HW218682   2.840  10.082   3.831 -1.2086 -0.8354 -0.4735
 4774SOL     OW18683   0.346   3.562   6.230 -0.0028  0.5752 -0.3130
 4774SOL    HW118684   0.411   3.579   6.162  0.6768  3.0133  0.8481
 4774SOL    HW218685   0.387   3.592   6.311 -1.9358  0.5570  0.7369
 4775SOL     OW18686   8.810   3.979   1.490  0.4517 -0.3042 -0.7290
 4775SOL    HW118687   8.892   4.021   1.516 -0.3006  1.0324 -0.4929
 4775SOL    HW218688   8.746   4.007   1.554 -0.7256  0.5578 -2.2273
 4776SOL     OW18689   4.588   5.644   4.984 -0.2820 -0.3393 -0.4865
 4776SOL    HW118690   4.619   5.681   4.902 -2.0908  2.8978  0.1062
 4776SOL    HW218691   4.511   5.591   4.960 -1.5308  1.5515 -0.8617
 4777SOL     OW18692   9.725  10.500  10.750 -0.0444  0.2180 -0.1540
 4777SOL    HW118693   9.756  10.584  10.782 -0.3652  0.4618 -0.4667
 4777SOL    HW218694   9.791  10.472  10.686 -0.1168  0.4057 -0.3129
 4778SOL     OW18695   3.787   0.587   4.546  0.0284  0.7953 -0.1015
 4778SOL    HW118696   3.808   0.676   4.575  0.0771  0.6011  0.4762
 4778SOL    HW218697   3.776   0.595   4.452  1.3291  1.1707 -0.2404
 4779SOL     OW18698   6.666  10.924   9.729  0.2896 -0.1730  0.5296
 4779SOL    HW118699   6.626  10.973   9.801  1.0920  0.2540  0.7023
 4779SOL    HW218700   6.593  10.902   9.672 -0.3164 -0.2302  1.3044
 4780SOL     OW18701   6.822   1.118   3.475 -0.0398 -0.0468 -0.0527
 4780SOL    HW118702   6.808   1.211   3.458 -1.4649 -0.2304 -0.0694
 4780SOL    HW218703   6.804   1.076   3.391 -0.3864 -0.4113  0.2027
 4781SOL     OW18704   5.489   7.558   4.957  0.3507 -0.4069  0.0592
 4781SOL    HW118705   5.527   7.572   5.044  1.4349  0.2511 -0.4899
 4781SOL    HW218706   5.493   7.643   4.914  0.6554 -0.8951 -0.9399
 4782SOL     OW18707   5.426   9.022   1.943 -0.4191  0.3368 -0.0991
 4782SOL    HW118708   5.493   8.957   1.923 -1.8390 -1.3902  0.4952
 4782SOL    HW218709   5.433   9.035   2.038 -0.6718  0.4277 -0.0923
 4783SOL     OW18710   4.009   3.040   2.710 -0.3681 -0.0661  0.0895
 4783SOL    HW118711   4.013   3.119   2.655 -0.2320  0.5902  1.0103
 4783SOL    HW218712   4.019   2.968   2.649  2.4954  0.6896 -0.5211
 4784SOL     OW18713   9.400  10.034   2.461  0.2617  0.3269  0.4686
 4784SOL    HW118714   9.436   9.964   2.515  1.3810  1.2966  1.0229
 4784SOL    HW218715   9.476  10.087   2.437 -0.5018  1.1050 -0.3055
 4785SOL     OW18716   6.417   6.336   3.512  0.0441 -0.1305 -0.0256
 4785SOL    HW118717   6.416   6.370   3.422 -0.9337  1.4453  0.5358
 4785SOL    HW218718   6.325   6.338   3.539  0.5790  2.7723  2.1404
 4786SOL     OW18719   9.557   3.390   1.585 -0.0857  0.0859 -0.4718
 4786SOL    HW118720   9.647   3.360   1.594 -0.2575 -0.4650 -0.5536
 4786SOL    HW218721   9.507   3.336   1.647 -0.2568  0.8549  0.0697
 4787SOL     OW18722   5.170   6.001   6.034  0.0844 -0.3505 -0.0356
 4787SOL    HW118723   5.084   5.995   6.077 -0.4842  0.1065 -1.0690
 4787SOL    HW218724   5.209   5.915   6.049 -0.4356 -0.4807  0.6785
 4788SOL     OW18725   9.093   6.053   2.369  0.6338  0.2938 -0.4624
 4788SOL    HW118726   9.169   6.083   2.419  0.9524  1.5173 -1.5937
 4788SOL    HW218727   9.097   5.958   2.372  0.1042  0.2947  2.5517
 4789SOL     OW18728   8.765  10.562   8.622 -0.2203  0.0935  0.4081
 4789SOL    HW118729   8.843  10.587   8.572 -0.0994  1.8143  1.3811
 4789SOL    HW218730   8.771  10.467   8.630  0.4265 -0.0913 -1.7087
 4790SOL     OW18731   2.445   5.014  10.897  0.2488 -0.1620 -0.2558
 4790SOL    HW118732   2.450   5.026  10.802 -0.4939  0.5863 -0.2076
 4790SOL    HW218733   2.403   4.929  10.908  0.9514 -0.5652 -0.5876
 4791SOL     OW18734   4.536   9.278   7.884  0.1737  0.5001  0.0383
 4791SOL    HW118735   4.451   9.271   7.928 -0.6408 -0.6054 -1.6125
 4791SOL    HW218736   4.578   9.353   7.926 -0.9734  0.1559  1.9464
 4792SOL     OW18737   7.442   4.782   9.365  0.0339  0.2441  0.2266
 4792SOL    HW118738   7.427   4.688   9.351  1.7641 -0.0872  0.3267
 4792SOL    HW218739   7.492   4.786   9.446  2.3734  0.9937 -1.1616
 4793SOL     OW18740   1.031  10.279   8.499 -0.2640 -0.2162  0.2131
 4793SOL    HW118741   1.050  10.348   8.562 -0.2759 -0.8579  0.9382
 4793SOL    HW218742   1.080  10.304   8.420  0.2991  0.2553  0.7009
 4794SOL     OW18743   3.735   1.344   4.588  1.0714  0.6114  0.1112
 4794SOL    HW118744   3.652   1.297   4.585  1.4823 -0.1034 -0.6479
 4794SOL    HW218745   3.787   1.296   4.653  1.9733 -0.8809 -1.6136
 4795SOL     OW18746   6.985   5.388   3.653 -0.6289 -0.1288 -0.4454
 4795SOL    HW118747   7.077   5.372   3.631 -0.7993  2.3849 -3.8303
 4795SOL    HW218748   6.938   5.314   3.615 -0.1347 -0.7806  0.1863
 4796SOL     OW18749   5.420   5.338   8.927  0.2297  0.2886  0.4650
 4796SOL    HW118750   5.440   5.295   8.844 -1.3257  1.6213 -0.6447
 4796SOL    HW218751   5.392   5.267   8.985  0.6446 -0.5646 -0.3587
 4797SOL     OW18752  10.899   7.722   7.608 -0.2697 -0.4963  0.5662
 4797SOL    HW118753  10.866   7.804   7.644 -0.0474 -0.9556  1.8923
 4797SOL    HW218754  10.931   7.674   7.685 -0.1016 -1.6819 -0.2230
 4798SOL     OW18755  10.959   0.023   1.165 -0.5760  0.4459 -0.1151
 4798SOL    HW118756  10.999  -0.046   1.112  0.1608  1.9062 -1.5514
 4798SOL    HW218757  10.870   0.030   1.131 -0.7970 -0.0647  0.3349
 4799SOL     OW18758   8.808   9.678   2.569  0.5745  0.1895  0.0099
 4799SOL    HW118759   8.828   9.764   2.607  0.7150 -0.3195  1.1304
 4799SOL    HW218760   8.722   9.655   2.605  0.0184  0.3424 -1.1778
 4800SOL     OW18761   1.277   5.992   8.365 -0.4288 -0.1324 -0.7936
 4800SOL    HW118762   1.226   5.931   8.311  0.2511 -1.1184 -0.3444
 4800SOL    HW218763   1.235   5.989   8.451 -0.1247 -0.3214 -0.6478
 4801SOL     OW18764   8.024   3.114   3.324  0.6529  0.1543 -0.1486
 4801SOL    HW118765   7.933   3.136   3.341 -0.1300 -1.7287 -1.5190
 4801SOL    HW218766   8.059   3.191   3.280 -0.7203  0.3730 -0.9197
 4802SOL     OW18767  10.349   3.867   0.730  0.3017 -0.2838  0.0675
 4802SOL    HW118768  10.382   3.922   0.801  0.7395 -0.6948  0.1890
 4802SOL    HW218769  10.304   3.795   0.775  2.8155 -1.9729  0.0457
 4803SOL     OW18770   6.871   7.056   4.316 -0.6094 -1.2158  0.4094
 4803SOL    HW118771   6.781   7.021   4.319 -1.6221  1.0370 -0.7848
 4803SOL    HW218772   6.863   7.138   4.266  2.1452 -0.9603  0.2286
 4804SOL     OW18773   6.821   2.256   7.711  0.1944  0.0649 -0.4815
 4804SOL    HW118774   6.905   2.238   7.671  0.1556  1.3158 -1.1676
 4804SOL    HW218775   6.759   2.261   7.638 -0.2562  0.3472 -0.0918
 4805SOL     OW18776   6.025   4.808  10.424 -0.0785  0.2461 -0.4027
 4805SOL    HW118777   6.001   4.896  10.456  0.8527  0.7189 -0.9789
 4805SOL    HW218778   6.119   4.803  10.436 -0.2204 -1.0116  0.3925
 4806SOL     OW18779   6.777   0.525   0.127 -0.5017  0.5455  0.3488
 4806SOL    HW118780   6.719   0.600   0.114 -0.4819  0.4672 -0.2029
 4806SOL    HW218781   6.831   0.550   0.202  0.6934  1.8542 -0.8817
 4807SOL     OW18782  10.521   0.523   8.330 -0.2908  0.5861  0.5476
 4807SOL    HW118783  10.504   0.437   8.292 -1.0270  0.2767  1.5331
 4807SOL    HW218784  10.486   0.585   8.265 -1.7197  0.0616  0.7725
 4808SOL     OW18785   7.888   3.253   0.624  0.1845 -0.3394 -0.0633
 4808SOL    HW118786   7.928   3.328   0.666 -0.4257 -0.3344  0.5298
 4808SOL    HW218787   7.956   3.186   0.625 -0.2872 -0.8872  2.4277
 4809SOL     OW18788   5.184   8.747   5.366 -0.6890  0.1418 -0.4852
 4809SOL    HW118789   5.247   8.724   5.434 -2.0787  1.4336  1.3230
 4809SOL    HW218790   5.232   8.804   5.306  0.9083 -2.0026 -1.3619
 4810SOL     OW18791  10.252   6.497   1.336 -0.1215  0.0643  0.4506
 4810SOL    HW118792  10.275   6.469   1.247  0.6450  2.1777 -0.0900
 4810SOL    HW218793  10.331   6.538   1.370 -0.3321 -0.9329  2.2398
 4811SOL     OW18794   9.950   3.860   1.185  0.2172 -0.3612 -0.9119
 4811SOL    HW118795  10.000   3.923   1.134  0.3471 -0.0933 -0.4532
 4811SOL    HW218796  10.014   3.795   1.214  1.0405  1.7026  2.4854
 4812SOL     OW18797   0.139   3.462   4.997 -0.1216  0.1540  0.0168
 4812SOL    HW118798   0.150   3.386   4.939  0.9657  0.6922 -0.5126
 4812SOL    HW218799   0.044   3.475   5.003 -0.3444 -1.4093  0.3507
 4813SOL     OW18800   3.302   6.904   7.596  0.5708 -0.0951 -0.2250
 4813SOL    HW118801   3.351   6.828   7.629 -0.5263 -0.4199  0.7092
 4813SOL    HW218802   3.325   6.975   7.655  1.1890  0.1773 -0.7848
 4814SOL     OW18803   1.746   4.726   1.909  0.2965 -0.4388 -0.2004
 4814SOL    HW118804   1.667   4.777   1.928 -0.0165 -0.8385 -0.4174
 4814SOL    HW218805   1.795   4.727   1.992  1.5366  2.3208 -0.8568
 4815SOL     OW18806   4.253   1.125   4.753  0.5370 -0.5808  0.1698
 4815SOL    HW118807   4.224   1.149   4.665  1.4022 -0.3121 -0.0531
 4815SOL    HW218808   4.219   1.195   4.810  0.5129 -0.4181 -0.0442
 4816SOL     OW18809  10.738   6.649   1.823 -0.3343  0.3877  0.4167
 4816SOL    HW118810  10.726   6.701   1.902 -2.0106 -0.1989  0.5843
 4816SOL    HW218811  10.652   6.613   1.804  0.3233 -0.5926 -0.9141
 4817SOL     OW18812   6.695   1.093   0.511 -0.1805  0.3099 -0.0518
 4817SOL    HW118813   6.606   1.117   0.536 -1.0819 -0.1699 -2.5074
 4817SOL    HW218814   6.688   1.003   0.477  1.0283  0.5750 -1.1254
 4818SOL     OW18815   9.046   1.696   7.886 -0.2590  0.1714 -0.2667
 4818SOL    HW118816   8.966   1.643   7.877 -0.5847  0.9580 -2.9003
 4818SOL    HW218817   9.087   1.691   7.800  1.3160  1.7047  0.3525
 4819SOL     OW18818   1.771   5.708   1.662 -0.3019  0.1666 -0.4741
 4819SOL    HW118819   1.713   5.770   1.706  0.6887  0.4986  0.4068
 4819SOL    HW218820   1.765   5.732   1.569 -1.7756 -0.0013 -0.4498
 4820SOL     OW18821   2.152   4.914   2.333 -0.2679  0.2801 -0.2499
 4820SOL    HW118822   2.069   4.921   2.380  0.4714  2.4093  0.9025
 4820SOL    HW218823   2.139   4.966   2.253 -0.3976 -0.3212 -0.6197
 4821SOL     OW18824   0.901   6.208   8.711 -0.3254 -0.3582 -0.6466
 4821SOL    HW118825   0.991   6.214   8.745 -0.1061  2.7755 -1.4516
 4821SOL    HW218826   0.846   6.233   8.785 -0.7249 -3.1584  0.1201
 4822SOL     OW18827   6.033   3.039  10.501 -0.1573 -0.1755  0.0676
 4822SOL    HW118828   6.004   3.004  10.585  0.4701  0.2674  0.4789
 4822SOL    HW218829   6.066   2.963  10.453  1.3008 -0.1703  0.9907
 4823SOL     OW18830   9.236   2.123   0.867 -0.2597 -0.3943  0.4803
 4823SOL    HW118831   9.267   2.049   0.815 -1.6734 -2.0534  1.8303
 4823SOL    HW218832   9.314   2.159   0.908  0.4961 -1.0057 -0.3937
 4824SOL     OW18833   4.951   3.079   8.658 -0.1262 -1.0975 -0.0253
 4824SOL    HW118834   4.959   3.065   8.752 -1.2338  1.2663  0.5029
 4824SOL    HW218835   4.981   2.997   8.618  1.6108 -1.6861  2.3170
 4825SOL     OW18836   9.966   4.509   0.517 -0.2936 -0.6091  0.1340
 4825SOL    HW118837  10.012   4.428   0.497  1.3479  0.2009  0.4540
 4825SOL    HW218838   9.887   4.506   0.464  0.2497 -1.9486 -0.6317
 4826SOL     OW18839   8.464   0.999   2.455 -0.1580  0.0538 -0.0333
 4826SOL    HW118840   8.386   1.002   2.400  1.0378  2.9211 -1.7965
 4826SOL    HW218841   8.531   0.959   2.399  0.0025 -1.1538  0.9898
 4827SOL     OW18842   2.357  10.865   4.272 -0.3234 -0.3137 -0.1832
 4827SOL    HW118843   2.269  10.828   4.274  0.0300 -1.2323 -1.0254
 4827SOL    HW218844   2.384  10.858   4.181  0.1175  1.2196 -0.1972
 4828SOL     OW18845   8.845   2.581   0.606  0.2092  0.6296  0.1515
 4828SOL    HW118846   8.842   2.590   0.701  2.1332 -1.0800  0.4338
 4828SOL    HW218847   8.781   2.513   0.585  1.3858 -0.6182  0.5125
 4829SOL     OW18848   6.091   0.656   8.675  0.6360 -0.6013 -0.1529
 4829SOL    HW118849   6.096   0.695   8.588 -1.5727 -0.7510 -0.4049
 4829SOL    HW218850   6.118   0.726   8.735 -0.4408  0.4004 -0.7954
 4830SOL     OW18851   9.821   3.800   2.061  0.2424 -0.9265 -0.1815
 4830SOL    HW118852   9.811   3.722   2.007  0.9584  1.0645 -3.4887
 4830SOL    HW218853   9.732   3.834   2.070  0.1341 -1.1853 -0.2622
 4831SOL     OW18854   4.147   6.464   1.623 -0.2304  0.1153  0.2606
 4831SOL    HW118855   4.236   6.472   1.588  0.6375  0.5855  2.4032
 4831SOL    HW218856   4.119   6.376   1.597  0.8840 -0.0688 -0.3841
 4832SOL     OW18857   6.105  11.069  11.051 -0.1918  0.0414 -0.0346
 4832SOL    HW118858   6.058  11.010  11.110 -0.2545 -1.0768 -1.1653
 4832SOL    HW218859   6.072  11.048  10.964  2.4620 -0.9228 -0.9018
 4833SOL     OW18860  10.046   4.669   7.058 -0.4578  0.0465 -0.0117
 4833SOL    HW118861  10.044   4.629   6.971  1.0796  0.9996 -0.5205
 4833SOL    HW218862  10.024   4.761   7.044  0.7210  0.4260  0.4304
 4834SOL     OW18863   3.782   1.450   5.240 -0.1384  0.4239  0.1910
 4834SOL    HW118864   3.766   1.363   5.277  0.6512 -0.1669 -0.8059
 4834SOL    HW218865   3.764   1.440   5.147  0.8126  1.0902 -0.0845
 4835SOL     OW18866   8.011   4.157   7.860 -0.3188  0.0926 -0.2807
 4835SOL    HW118867   7.986   4.065   7.849 -1.1982  0.2335  0.3667
 4835SOL    HW218868   8.102   4.155   7.888 -0.4170 -0.6018  0.0070
 4836SOL     OW18869  10.227   2.412  10.856  0.4032 -0.4722 -0.4096
 4836SOL    HW118870  10.296   2.393  10.920  0.9775  0.8060 -0.6346
 4836SOL    HW218871  10.149   2.429  10.910  0.4367 -1.1416 -0.1304
 4837SOL     OW18872   6.430   1.036   1.387  0.1140 -0.0023 -0.3805
 4837SOL    HW118873   6.369   1.108   1.405 -0.8219 -0.5101 -1.4536
 4837SOL    HW218874   6.477   1.024   1.470 -2.5428 -0.8547  1.1353
 4838SOL     OW18875  10.078   9.110  10.000  0.2435 -0.2919 -0.0677
 4838SOL    HW118876  10.056   9.146  10.086 -1.2313  1.2745 -1.0271
 4838SOL    HW218877  10.111   9.022  10.018 -0.7125 -0.2788  2.0342
 4839SOL     OW18878   1.434   0.119   4.583  0.4095  0.4906 -0.1573
 4839SOL    HW118879   1.477   0.069   4.653 -1.4044 -0.8566  0.0755
 4839SOL    HW218880   1.411   0.202   4.624  2.2120  1.0237 -0.1315
 4840SOL     OW18881   3.755   8.420   8.926 -0.2433  0.2379  0.2044
 4840SOL    HW118882   3.735   8.476   8.851 -1.0926  1.9413  1.6245
 4840SOL    HW218883   3.719   8.335   8.903  0.3523  0.4532 -1.6878
 4841SOL     OW18884   9.693   0.173   7.174 -0.0842 -0.1627  0.4366
 4841SOL    HW118885   9.701   0.173   7.270  1.6918  0.8544  0.3250
 4841SOL    HW218886   9.610   0.128   7.157 -0.9591  0.5377  2.4962
 4842SOL     OW18887   4.610   6.562   2.595 -0.4426  0.0737 -0.1152
 4842SOL    HW118888   4.702   6.565   2.567  0.5575  1.8211  2.8744
 4842SOL    HW218889   4.593   6.649   2.631 -2.6751 -0.8088  1.1684
 4843SOL     OW18890   6.589   1.629  10.297 -0.1987  0.0495  0.6831
 4843SOL    HW118891   6.576   1.652  10.388  1.0634  0.2754  0.8253
 4843SOL    HW218892   6.639   1.701  10.261  1.0023 -0.9348  0.3113
 4844SOL     OW18893   5.433  10.124   3.728  0.3792  0.0222 -0.6455
 4844SOL    HW118894   5.391  10.186   3.667  1.5772  0.7494 -0.7619
 4844SOL    HW218895   5.360  10.088   3.778 -0.6542 -0.5287 -2.4343
 4845SOL     OW18896   4.250   7.656   4.619  0.0848 -0.3002  0.4282
 4845SOL    HW118897   4.220   7.682   4.532 -1.4232 -2.0236  0.3856
 4845SOL    HW218898   4.236   7.733   4.674 -1.4571 -0.0336 -0.3006
 4846SOL     OW18899   2.792  10.103   9.645  0.1579 -0.3468 -0.0793
 4846SOL    HW118900   2.868  10.070   9.597  0.8039  1.0673 -0.0721
 4846SOL    HW218901   2.798  10.062   9.731  0.5998 -0.6745 -0.2628
 4847SOL     OW18902   3.331   8.428   0.782 -0.6072 -0.2005 -0.3352
 4847SOL    HW118903   3.336   8.523   0.794 -1.1305  0.1339 -2.3849
 4847SOL    HW218904   3.324   8.416   0.687 -1.3871 -2.2618 -0.0647
 4848SOL     OW18905  10.566   6.773  10.620 -0.2998 -1.0286  0.0035
 4848SOL    HW118906  10.602   6.710  10.682 -1.3718 -0.0774  1.6574
 4848SOL    HW218907  10.622   6.765  10.543  0.9662 -2.3757  1.0020
 4849SOL     OW18908   4.030   3.788   7.528  0.5179 -0.1777  0.1229
 4849SOL    HW118909   3.983   3.869   7.547  0.1648 -0.2115 -0.5583
 4849SOL    HW218910   4.079   3.807   7.448  0.0144 -0.7826 -0.3487
 4850SOL     OW18911   9.601   4.625   9.434  0.2968 -0.3829 -0.0678
 4850SOL    HW118912   9.679   4.587   9.394  0.4594 -0.3595  0.2267
 4850SOL    HW218913   9.570   4.689   9.370 -0.7377 -1.9085 -1.1826
 4851SOL     OW18914   3.690   4.037   9.167 -0.3476 -0.0576 -0.0618
 4851SOL    HW118915   3.659   4.125   9.190 -0.5251 -0.0565 -0.3000
 4851SOL    HW218916   3.721   4.046   9.077  1.2565  0.1701  0.4704
 4852SOL     OW18917   3.099   9.826   2.606 -0.1013  0.4646  0.2908
 4852SOL    HW118918   3.078   9.819   2.699  0.1684  1.6195  0.4576
 4852SOL    HW218919   3.149   9.747   2.586 -2.3751 -1.1162  0.4780
 4853SOL     OW18920   1.786   3.296  10.512  0.0575 -0.1827  0.0029
 4853SOL    HW118921   1.817   3.206  10.514 -0.0100 -0.2157 -0.3825
 4853SOL    HW218922   1.743   3.309  10.597 -2.0969 -1.2978 -0.8366
 4854SOL     OW18923  10.197   4.790  10.652 -0.1356 -0.0119  0.5389
 4854SOL    HW118924  10.268   4.852  10.631 -0.2188 -0.1975 -0.3307
 4854SOL    HW218925  10.141   4.839  10.712 -0.6890  1.1171 -0.8304
 4855SOL     OW18926   2.493   2.853   4.811 -0.5027  0.4066 -0.1696
 4855SOL    HW118927   2.472   2.848   4.904  0.5781  0.7053  0.1032
 4855SOL    HW218928   2.586   2.827   4.805 -0.9883 -1.2902 -1.3704
 4856SOL     OW18929   7.820  10.828  10.053 -0.1284  0.1275  0.3361
 4856SOL    HW118930   7.801  10.921  10.061 -0.0981  0.2533 -0.7945
 4856SOL    HW218931   7.739  10.784  10.079 -0.9726  0.5637 -1.4229
 4857SOL     OW18932   9.999  11.040   5.932 -0.4070  0.2303 -1.4576
 4857SOL    HW118933  10.049  11.122   5.935  2.3562 -1.2908 -2.0606
 4857SOL    HW218934  10.040  10.990   5.861 -0.6735 -2.4689  0.1573
 4858SOL     OW18935   5.045   5.590   4.903 -0.2328 -0.4176  0.4635
 4858SOL    HW118936   4.995   5.608   4.983  0.4227  0.6946  0.6448
 4858SOL    HW218937   5.015   5.504   4.875  0.2803 -1.3128  2.4855
 4859SOL     OW18938   5.708  10.131   9.752 -0.1551 -0.3727 -0.1571
 4859SOL    HW118939   5.653  10.120   9.830  0.3015  0.3417  0.2835
 4859SOL    HW218940   5.671  10.071   9.688 -1.1511 -0.2545  0.2839
 4860SOL     OW18941   5.468   6.427   6.081  0.0240  0.8319 -0.8155
 4860SOL    HW118942   5.553   6.410   6.122 -0.0146 -2.9256 -1.9332
 4860SOL    HW218943   5.440   6.511   6.118  3.1317  1.0721  1.3737
 4861SOL     OW18944   8.325   0.919   4.700 -0.6089 -0.3242 -0.4765
 4861SOL    HW118945   8.293   0.989   4.644  0.8926  1.6726  1.0062
 4861SOL    HW218946   8.421   0.922   4.690 -0.1383  0.9395  2.9026
 4862SOL     OW18947   4.516   2.112   4.495  0.1162 -0.0625  0.0865
 4862SOL    HW118948   4.530   2.206   4.498 -0.7150  0.0906  3.8090
 4862SOL    HW218949   4.444   2.100   4.433 -0.2559  1.8411  0.1082
 4863SOL     OW18950   9.910   6.295   0.410 -0.1744 -0.4506 -0.2490
 4863SOL    HW118951   9.847   6.310   0.340 -0.2542  1.3708  0.1542
 4863SOL    HW218952   9.971   6.230   0.374 -0.6218 -0.0903 -1.7312
 4864SOL     OW18953   8.789   0.615   0.426  0.0029 -0.0342 -0.2212
 4864SOL    HW118954   8.854   0.545   0.427 -0.7177 -0.7279  1.3795
 4864SOL    HW218955   8.817   0.672   0.354  2.3649 -0.3080  0.3751
 4865SOL     OW18956  10.361   7.381   4.741  0.1593  0.5519 -0.1151
 4865SOL    HW118957  10.303   7.309   4.768 -1.0244  0.4337 -2.6859
 4865SOL    HW218958  10.398   7.353   4.657 -0.7493  3.0705 -1.4870
 4866SOL     OW18959  11.113   8.788  10.576  0.7676  0.1846 -0.4186
 4866SOL    HW118960  11.160   8.871  10.575 -0.5202  0.9472 -0.1739
 4866SOL    HW218961  11.173   8.726  10.535  1.6647  1.2842 -0.8168
 4867SOL     OW18962   1.418   3.146   9.956  0.6347  0.6334 -0.6931
 4867SOL    HW118963   1.456   3.156   9.868 -0.1990 -0.2690 -1.1808
 4867SOL    HW218964   1.398   3.235   9.983 -0.4811  0.8350 -2.0694
 4868SOL     OW18965   1.614   5.896   1.815 -0.2056 -0.3867  0.2506
 4868SOL    HW118966   1.560   5.934   1.745 -0.7211 -0.2162  0.7266
 4868SOL    HW218967   1.550   5.864   1.879  0.1838 -2.5884 -0.3795
 4869SOL     OW18968   3.936   3.297   0.107  0.2010  0.5636 -0.5980
 4869SOL    HW118969   4.001   3.228   0.103 -0.6003 -0.2515 -0.0706
 4869SOL    HW218970   3.948   3.336   0.194 -1.0603 -0.6891  0.1838
 4870SOL     OW18971   5.957   8.635   9.586 -0.2047  0.2286  0.4767
 4870SOL    HW118972   5.868   8.649   9.553  0.3303  1.9496 -0.3703
 4870SOL    HW218973   5.970   8.541   9.579 -1.4618  0.1004 -0.7525
 4871SOL     OW18974   7.799   1.831   9.973 -0.4332 -0.4619  0.0136
 4871SOL    HW118975   7.742   1.764   9.935  1.2291 -0.9438 -1.7590
 4871SOL    HW218976   7.813   1.894   9.903  2.4285 -1.1802 -0.1701
 4872SOL     OW18977  10.710   4.856   4.693 -0.0514  0.0747 -0.1239
 4872SOL    HW118978  10.645   4.840   4.625  0.4492  0.4247 -0.6884
 4872SOL    HW218979  10.790   4.815   4.661 -0.0870 -0.7628  0.7784
 4873SOL     OW18980   1.152  10.066  10.091 -0.2668 -0.1722  0.0061
 4873SOL    HW118981   1.232  10.021  10.117 -0.9683 -2.1338 -1.0404
 4873SOL    HW218982   1.085  10.033  10.151 -0.3338  1.4997  0.9165
 4874SOL     OW18983   3.556   5.479   5.749 -0.3608  0.0586 -0.0786
 4874SOL    HW118984   3.572   5.414   5.817  0.7414  0.1910 -0.1826
 4874SOL    HW218985   3.562   5.564   5.793  1.8491  0.2135 -0.5425
 4875SOL     OW18986   2.523   4.783   3.001  0.1648 -0.1502 -0.0403
 4875SOL    HW118987   2.459   4.773   2.930  0.5095  0.5972 -0.4728
 4875SOL    HW218988   2.533   4.878   3.010  0.9721 -0.2601  0.2364
 4876SOL     OW18989   3.754   4.491   8.195 -0.4456  0.0709  0.0687
 4876SOL    HW118990   3.838   4.512   8.154 -0.3572 -2.2890 -1.1019
 4876SOL    HW218991   3.775   4.424   8.261 -1.5165 -1.6682 -1.2528
 4877SOL     OW18992   0.158   9.334   3.409 -0.1532  0.3568  0.5656
 4877SOL    HW118993   0.217   9.320   3.336 -1.1182 -1.2086  0.0512
 4877SOL    HW218994   0.192   9.412   3.453  1.6431  0.1104 -0.3249
 4878SOL     OW18995   9.713   2.346   2.270  0.2519  1.0192  0.5702
 4878SOL    HW118996   9.645   2.371   2.332 -1.9769  0.2861 -1.4490
 4878SOL    HW218997   9.752   2.267   2.307 -1.1537  0.5023  0.9724
 4879SOL     OW18998   4.829   9.669   0.697 -0.7201  0.0355 -0.0124
 4879SOL    HW118999   4.781   9.633   0.622  1.5551 -1.9469 -0.6676
 4879SOL    HW219000   4.918   9.633   0.688  0.0168  0.8315  2.9059
 4880SOL     OW19001   9.640   8.337  10.133  0.3884  0.3466 -0.4781
 4880SOL    HW119002   9.551   8.306  10.114  0.5296  0.2276 -0.9368
 4880SOL    HW219003   9.684   8.261  10.173  0.7129 -0.0300 -1.5357
 4881SOL     OW19004   6.895   6.019   8.114 -0.2666  0.0458  0.0352
 4881SOL    HW119005   6.878   6.085   8.181  0.3925  0.7102 -0.4403
 4881SOL    HW219006   6.960   6.059   8.057 -1.1677 -0.3136 -1.2927
 4882SOL     OW19007  10.923   0.350   5.912 -0.0133 -0.4322  0.0143
 4882SOL    HW119008  10.847   0.406   5.929 -0.8807 -1.6870  0.4041
 4882SOL    HW219009  10.974   0.399   5.848 -0.1136  1.3535  1.2194
 4883SOL     OW19010   8.055   6.120   9.121 -0.2279 -0.6920  0.1734
 4883SOL    HW119011   8.114   6.090   9.190 -0.4734 -0.9479  0.2719
 4883SOL    HW219012   8.017   6.201   9.155  0.6211 -0.1178 -0.1960
 4884SOL     OW19013   6.710   4.606   7.961  0.3854 -0.1234 -0.0174
 4884SOL    HW119014   6.662   4.658   8.026  0.6545  0.3101 -0.1570
 4884SOL    HW219015   6.682   4.642   7.877  1.2879  0.4484 -0.0912
 4885SOL     OW19016   1.082   0.530   5.393 -0.1955  1.2434  0.0729
 4885SOL    HW119017   1.133   0.605   5.361  1.1546  0.5258  0.4591
 4885SOL    HW219018   1.076   0.544   5.488  0.1566  0.8188  0.1613
 4886SOL     OW19019   6.418   8.108  10.550  0.0133 -0.1727  0.3442
 4886SOL    HW119020   6.324   8.123  10.539  0.1788 -0.8185 -3.1640
 4886SOL    HW219021   6.423   8.045  10.622 -2.2678 -0.2142  0.5551
 4887SOL     OW19022   8.790  10.113   7.580 -0.0172 -0.3782 -0.0778
 4887SOL    HW119023   8.701  10.095   7.549  0.0143 -1.4061  0.3839
 4887SOL    HW219024   8.785  10.101   7.675  0.4536  0.2595  0.0270
 4888SOL     OW19025  10.878   4.264  11.072 -0.4721  0.3970 -0.1770
 4888SOL    HW119026  10.829   4.345  11.088  0.6333  1.4037 -1.6266
 4888SOL    HW219027  10.935   4.255  11.149 -1.7299  0.0950  0.7497
 4889SOL     OW19028   2.103   2.292   4.569  0.2080  0.0192  0.5538
 4889SOL    HW119029   2.196   2.291   4.548  0.0438 -2.1277 -0.2179
 4889SOL    HW219030   2.100   2.280   4.664  0.6982 -0.7546  0.4752
 4890SOL     OW19031   9.134   6.794   8.428  0.1212  0.3961  0.0038
 4890SOL    HW119032   9.053   6.814   8.381 -0.9617 -1.3527  1.0171
 4890SOL    HW219033   9.105   6.770   8.516  1.6747 -0.8586  0.2144
 4891SOL     OW19034   4.396  10.011   5.299 -0.0094 -0.2702 -0.3733
 4891SOL    HW119035   4.468   9.953   5.321 -0.2692 -0.9814 -1.3543
 4891SOL    HW219036   4.359  10.037   5.384  0.7974 -0.6477  0.1005
 4892SOL     OW19037   5.527   0.069   7.006  0.4072  0.6610  0.2355
 4892SOL    HW119038   5.453   0.051   7.065 -0.0091  0.8598 -0.2157
 4892SOL    HW219039   5.527  -0.005   6.945  0.8353  0.4582  0.4775
 4893SOL     OW19040   4.519   2.750   4.305 -0.3822  0.6000 -0.7987
 4893SOL    HW119041   4.550   2.812   4.240 -0.9311  0.3174 -1.3353
 4893SOL    HW219042   4.559   2.666   4.280 -1.2785  0.3091 -1.2849
 4894SOL     OW19043   7.905   8.354  10.364 -0.1994 -0.0407 -0.0161
 4894SOL    HW119044   7.843   8.425  10.346  0.8886  0.7209 -0.8453
 4894SOL    HW219045   7.854   8.290  10.415 -1.4430  0.9142 -0.0239
 4895SOL     OW19046   3.016   3.203   6.802 -0.1655 -0.5469 -0.1546
 4895SOL    HW119047   3.045   3.254   6.879 -2.4076  1.1042 -0.3003
 4895SOL    HW219048   3.090   3.146   6.782  1.2266  0.3378  2.0658
 4896SOL     OW19049   3.091   7.858   5.795  0.0861 -0.0803  0.1262
 4896SOL    HW119050   2.998   7.876   5.807  0.2074  0.6337  0.0906
 4896SOL    HW219051   3.114   7.801   5.868 -0.4412 -0.5069 -0.0355
 4897SOL     OW19052  10.338   3.860   7.114 -0.6823 -0.4031  0.4379
 4897SOL    HW119053  10.354   3.776   7.070 -0.3173 -0.2058  0.1767
 4897SOL    HW219054  10.243   3.871   7.111 -0.7832 -1.0775  0.9927
 4898SOL     OW19055  10.599   8.720   0.596  0.7087 -0.3209  0.4168
 4898SOL    HW119056  10.582   8.641   0.544 -2.0651 -0.0922  0.8022
 4898SOL    HW219057  10.594   8.792   0.533  0.6690 -0.2813  0.4644
 4899SOL     OW19058   8.216   6.406   6.612  0.0364 -0.2482 -0.2483
 4899SOL    HW119059   8.124   6.388   6.632 -0.1047 -0.1658 -0.7956
 4899SOL    HW219060   8.213   6.451   6.527  0.5926 -0.4289 -0.3643
 4900SOL     OW19061   0.821   3.539   8.489 -0.4414  0.1111  0.8804
 4900SOL    HW119062   0.785   3.590   8.562  0.3325  0.2764  1.1537
 4900SOL    HW219063   0.759   3.554   8.417 -0.6847  0.7500  1.2079
 4901SOL     OW19064   4.674   9.027   2.206  0.5499  0.4918 -0.2824
 4901SOL    HW119065   4.752   9.021   2.262 -0.8225  1.2702  1.7904
 4901SOL    HW219066   4.649   9.119   2.209 -0.7662  0.1511 -0.4855
 4902SOL     OW19067   4.652   4.438   4.453 -0.3044  0.6845  0.2119
 4902SOL    HW119068   4.609   4.514   4.493 -2.7559 -0.9978  0.9901
 4902SOL    HW219069   4.580   4.384   4.420  1.1581 -2.2862  1.4921
 4903SOL     OW19070   8.794   2.222   8.124 -0.2257 -0.2842  0.5974
 4903SOL    HW119071   8.806   2.158   8.194  1.8556 -0.7175 -0.0643
 4903SOL    HW219072   8.813   2.173   8.044  1.7453  1.1797  0.0906
 4904SOL     OW19073   0.177   3.723   5.028 -0.4756 -0.1362  0.0869
 4904SOL    HW119074   0.165   3.629   5.042  0.7870 -0.4934 -1.0194
 4904SOL    HW219075   0.225   3.753   5.106  0.5585 -0.7432 -0.3019
 4905SOL     OW19076   4.311   9.784  10.711 -0.1727 -0.6872  0.0509
 4905SOL    HW119077   4.228   9.754  10.673  0.8716 -3.1654 -0.4712
 4905SOL    HW219078   4.376   9.769  10.643  1.1168 -1.3435  1.3700
 4906SOL     OW19079   4.111  10.234   6.790 -0.3254  0.4056 -0.4177
 4906SOL    HW119080   4.016  10.242   6.782 -0.7558 -3.1024 -0.2949
 4906SOL    HW219081   4.131  10.263   6.879 -1.2076  1.4125 -0.5304
 4907SOL     OW19082  10.343   5.577   9.211 -0.1031  0.1441  1.0751
 4907SOL    HW119083  10.356   5.656   9.157  0.5468  1.1858  2.7001
 4907SOL    HW219084  10.327   5.507   9.147  3.0080  0.8299 -0.6408
 4908SOL     OW19085   7.182   9.719   5.657 -0.6606  0.1384 -0.4736
 4908SOL    HW119086   7.217   9.679   5.736 -2.2389 -0.4966 -0.0647
 4908SOL    HW219087   7.215   9.664   5.586 -0.0257  0.1483 -0.1981
 4909SOL     OW19088  10.328   4.963   4.981 -0.2300  0.1070 -0.2073
 4909SOL    HW119089  10.409   5.009   4.959  0.7774 -0.7730  1.4163
 4909SOL    HW219090  10.307   4.912   4.903  0.0115  1.3794 -1.1315
 4910SOL     OW19091   5.807   4.721   1.758  0.3857 -0.0759 -0.0739
 4910SOL    HW119092   5.753   4.680   1.690  1.0535 -1.2062  0.0505
 4910SOL    HW219093   5.758   4.798   1.784 -0.5092 -0.3335 -0.9264
 4911SOL     OW19094   9.644  10.657   1.471 -0.3683  0.3430  0.4024
 4911SOL    HW119095   9.652  10.591   1.401  0.3284 -0.5358  1.2728
 4911SOL    HW219096   9.590  10.726   1.433  2.5792  1.4656 -2.1790
 4912SOL     OW19097   2.709   2.071   7.367  0.4381  0.5592 -0.1799
 4912SOL    HW119098   2.724   1.979   7.388 -0.6614 -0.1390 -2.2387
 4912SOL    HW219099   2.623   2.091   7.406  0.1944  0.3987 -0.6297
 4913SOL     OW19100   2.249   8.064   8.305 -0.1675 -0.4968 -0.4179
 4913SOL    HW119101   2.169   8.035   8.260  0.2740 -0.6674 -1.1087
 4913SOL    HW219102   2.298   7.983   8.321 -0.2548 -0.4215  0.2609
 4914SOL     OW19103   2.156   1.417   7.213  0.5228  0.1606 -0.8204
 4914SOL    HW119104   2.238   1.403   7.261 -0.6609 -2.4617  0.6175
 4914SOL    HW219105   2.162   1.357   7.138 -0.5807 -1.0864  0.0429
 4915SOL     OW19106   6.326  10.102  10.054 -0.1280  0.2407 -0.8013
 4915SOL    HW119107   6.330  10.177  10.113  1.5003 -0.5922  0.2454
 4915SOL    HW219108   6.377  10.130   9.978  0.7250  0.1420 -0.2907
 4916SOL     OW19109   0.555   9.839   5.394  0.0856  0.4147 -0.5147
 4916SOL    HW119110   0.461   9.827   5.383  0.3501 -2.1473 -0.4524
 4916SOL    HW219111   0.570   9.828   5.488  0.4588  0.7287 -0.5352
 4917SOL     OW19112   4.686   0.419   4.192 -0.6990 -0.2412  0.0770
 4917SOL    HW119113   4.667   0.513   4.191  0.1273 -0.0638 -1.1840
 4917SOL    HW219114   4.733   0.405   4.274 -1.2571  0.3385  0.5127
 4918SOL     OW19115   7.147   8.739   3.383 -0.0565  0.5753 -0.2776
 4918SOL    HW119116   7.065   8.691   3.371  0.2383 -0.3374  1.1171
 4918SOL    HW219117   7.216   8.672   3.375  0.3751  0.7635  1.4628
 4919SOL     OW19118  10.735   1.259   1.420  0.0349  0.7513  0.0593
 4919SOL    HW119119  10.721   1.282   1.512  1.3361 -1.6394  0.9712
 4919SOL    HW219120  10.648   1.248   1.384 -0.5213  0.4164  1.4297
 4920SOL     OW19121   9.634   3.804   1.589 -0.0822 -0.1898  0.1269
 4920SOL    HW119122   9.644   3.833   1.498 -1.4091 -2.8550 -0.9753
 4920SOL    HW219123   9.718   3.765   1.612  0.0112 -0.1925 -0.2246
 4921SOL     OW19124   5.559  10.118   9.999 -0.2415 -0.0529 -0.1752
 4921SOL    HW119125   5.468  10.128  10.028  0.0610 -0.0379  0.8256
 4921SOL    HW219126   5.610  10.154  10.071  0.5926 -0.9523 -0.3012
 4922SOL     OW19127   8.826   6.442   6.917 -0.2343 -0.3383  0.0388
 4922SOL    HW119128   8.887   6.369   6.926  0.9341  0.3089 -1.9942
 4922SOL    HW219129   8.791   6.455   7.005  1.1108 -1.9650  0.8728
 4923SOL     OW19130   3.997   9.105  10.231 -0.0593 -0.0570  0.1590
 4923SOL    HW119131   4.009   9.016  10.265  0.1338 -1.5572 -3.4082
 4923SOL    HW219132   3.903   9.116  10.226 -0.0997  0.3434  1.4197
 4924SOL     OW19133   9.539   8.076  10.115 -0.1431 -0.5128  0.0835
 4924SOL    HW119134   9.586   8.019  10.176  1.6797  2.4636  1.7403
 4924SOL    HW219135   9.453   8.087  10.155 -0.0296 -0.9935  0.4751
 4925SOL     OW19136   9.549   9.814   9.625 -0.1984  0.4382 -0.3694
 4925SOL    HW119137   9.556   9.771   9.710 -1.7833 -0.2238 -0.5261
 4925SOL    HW219138   9.608   9.889   9.630 -0.6445  0.7155  1.4996
 4926SOL     OW19139   1.064   1.866   1.004 -0.5008  0.5213 -0.6002
 4926SOL    HW119140   1.066   1.801   0.934 -0.2818 -0.4056  0.2356
 4926SOL    HW219141   1.129   1.834   1.067 -1.1814  0.9486  0.3454
 4927SOL     OW19142   8.456   8.405   4.464 -0.5495  0.0207  0.0243
 4927SOL    HW119143   8.409   8.462   4.403 -0.5952 -0.9232 -0.8580
 4927SOL    HW219144   8.498   8.340   4.408  0.2824 -0.2561  0.9374
 4928SOL     OW19145  10.691  10.900   2.320  0.1195  0.2983  0.3652
 4928SOL    HW119146  10.744  10.832   2.363  0.2918  0.2289  0.0440
 4928SOL    HW219147  10.751  10.942   2.258 -0.5290 -0.6634 -0.9735
 4929SOL     OW19148   6.645   7.976  10.217 -0.0165  0.2197  0.4740
 4929SOL    HW119149   6.568   7.950  10.267 -1.6362 -0.4988 -2.1787
 4929SOL    HW219150   6.618   8.056  10.171  1.0285  0.2980 -0.0336
 4930SOL     OW19151   8.942   7.785   0.051 -0.0517 -0.2817 -0.3234
 4930SOL    HW119152   8.850   7.808   0.044 -0.2762 -1.3761 -1.1960
 4930SOL    HW219153   8.989   7.865   0.025 -0.6793  0.8592  1.8155
 4931SOL     OW19154   2.588   3.949   6.652  0.0376 -0.6328  0.3011
 4931SOL    HW119155   2.531   3.981   6.723 -0.1361 -1.0955  0.3748
 4931SOL    HW219156   2.533   3.887   6.604  0.1394 -0.2817 -0.2733
 4932SOL     OW19157   7.687  10.830   1.185 -0.2534  0.3853  0.3556
 4932SOL    HW119158   7.660  10.904   1.130 -0.7549 -1.1123 -1.5230
 4932SOL    HW219159   7.777  10.851   1.210  0.4217  0.6452 -2.0162
 4933SOL     OW19160   5.522   9.844   0.963 -0.3239  0.0539 -0.1384
 4933SOL    HW119161   5.443   9.830   0.911 -2.2851  2.6783  1.8146
 4933SOL    HW219162   5.594   9.818   0.906 -2.5324 -1.5918 -2.3604
 4934SOL     OW19163   9.697   9.225   0.592 -0.3284  0.2615 -0.1056
 4934SOL    HW119164   9.778   9.227   0.644 -0.4912 -1.5363  0.2765
 4934SOL    HW219165   9.663   9.314   0.597  1.2786  0.8926  0.2750
 4935SOL     OW19166   7.959   2.401   6.543  0.2732  0.0519  0.0693
 4935SOL    HW119167   7.924   2.484   6.577  2.0795  1.0639 -0.3772
 4935SOL    HW219168   8.031   2.380   6.603  0.0322 -1.0380 -0.0085
 4936SOL     OW19169   4.946   2.359   0.264 -0.4817 -0.0227  0.2062
 4936SOL    HW119170   4.898   2.277   0.255 -0.3299 -0.0451 -0.4385
 4936SOL    HW219171   4.914   2.397   0.346 -1.0556 -0.3910  0.1546
 4937SOL     OW19172   4.034   7.995  10.808  0.2836  0.1820  0.2269
 4937SOL    HW119173   4.121   7.992  10.848 -0.4207  0.4707  1.8839
 4937SOL    HW219174   3.987   7.922  10.849  0.0025 -0.5596 -1.3582
 4938SOL     OW19175  11.020   1.747   9.177 -0.5255  0.1432  0.3389
 4938SOL    HW119176  11.009   1.811   9.247  0.5378  3.1577 -2.0392
 4938SOL    HW219177  10.931   1.715   9.160 -0.9618  0.2657  2.1961
 4939SOL     OW19178   5.783   9.460   1.589 -0.3340  0.1802 -0.1239
 4939SOL    HW119179   5.753   9.402   1.519 -1.3944 -0.5095  0.8593
 4939SOL    HW219180   5.707   9.468   1.647  0.4938  0.7892  0.8999
 4940SOL     OW19181   9.250   8.967   2.164 -0.2856 -0.1660  0.2294
 4940SOL    HW119182   9.280   8.965   2.255 -1.1755 -1.6988  0.5247
 4940SOL    HW219183   9.296   8.894   2.122 -0.3533  0.1480 -0.4035
 4941SOL     OW19184   7.548   4.014   9.899  0.2387 -0.3781  0.4813
 4941SOL    HW119185   7.625   4.069   9.878 -0.8415  0.6496 -1.0464
 4941SOL    HW219186   7.541   4.018   9.994  1.2478  0.7143  0.5435
 4942SOL     OW19187   1.552   5.927  10.931 -0.0968 -0.4830 -0.0006
 4942SOL    HW119188   1.601   5.850  10.959 -0.4679 -0.4859  0.6835
 4942SOL    HW219189   1.490   5.943  11.003  1.2513  1.6054  0.7842
 4943SOL     OW19190   2.607   7.020   3.455  0.4360  0.0035  0.4531
 4943SOL    HW119191   2.597   6.936   3.499  0.4624  0.3936  1.2216
 4943SOL    HW219192   2.699   7.042   3.465  0.3178  0.3785  0.7340
 4944SOL     OW19193   4.810   9.138  10.453  0.1578  0.1246  0.7287
 4944SOL    HW119194   4.899   9.169  10.438  0.9786 -2.8853 -1.4633
 4944SOL    HW219195   4.816   9.082  10.530 -0.0673  0.5889  1.0930
 4945SOL     OW19196   5.228  10.709   4.867  0.3738 -0.4315 -0.3071
 4945SOL    HW119197   5.208  10.735   4.957  0.6536 -1.3208  0.0197
 4945SOL    HW219198   5.144  10.717   4.820 -0.2396 -1.8081  0.4893
 4946SOL     OW19199   5.809   4.563   6.995 -0.6307 -0.1191 -0.6474
 4946SOL    HW119200   5.883   4.511   7.025  0.5358  2.0059  0.3834
 4946SOL    HW219201   5.767   4.593   7.076 -0.9027  1.0132 -1.1869
 4947SOL     OW19202   8.501   0.378   1.525 -0.1518 -0.4058  0.2307
 4947SOL    HW119203   8.465   0.375   1.614  1.5896 -0.4322  0.9814
 4947SOL    HW219204   8.520   0.471   1.511  0.3370 -0.5024  0.2287
 4948SOL     OW19205   9.083  10.530  10.738 -0.6693 -0.2247 -0.1108
 4948SOL    HW119206   9.070  10.437  10.722  1.1526 -0.3437 -1.1597
 4948SOL    HW219207   9.143  10.534  10.812  1.1073  0.0006 -1.4918
 4949SOL     OW19208   5.242   0.288   2.165 -0.1247  0.4063 -0.3038
 4949SOL    HW119209   5.204   0.267   2.250  1.3228 -1.5136 -0.0635
 4949SOL    HW219210   5.167   0.291   2.106 -0.9569 -0.2541  0.6851
 4950SOL     OW19211   1.813   9.352   7.740  0.2737  0.5185  0.0027
 4950SOL    HW119212   1.773   9.294   7.675 -1.5227  0.0709  1.4312
 4950SOL    HW219213   1.898   9.313   7.757 -0.3250 -0.9142 -0.1111
 4951SOL     OW19214   6.226   9.563   8.562 -0.3619 -0.1553 -0.0493
 4951SOL    HW119215   6.234   9.643   8.615 -2.4373 -0.0452  0.1987
 4951SOL    HW219216   6.288   9.576   8.490 -0.1355  1.3652  0.3736
 4952SOL     OW19217   5.936   9.214  10.653  0.4772  0.1197  0.4507
 4952SOL    HW119218   5.903   9.285  10.708 -2.2530 -1.1253  0.6269
 4952SOL    HW219219   5.910   9.239  10.564  1.7921  0.4977  0.1523
 4953SOL     OW19220   6.077   1.909   9.423  0.4705  0.0644 -0.3464
 4953SOL    HW119221   6.047   1.960   9.499 -0.8231  0.5738 -1.1569
 4953SOL    HW219222   6.031   1.826   9.431  0.4112  0.0807 -0.5128
 4954SOL     OW19223  10.227   9.552   3.977 -0.2055 -0.1284  0.2616
 4954SOL    HW119224  10.132   9.564   3.970 -0.1516 -0.4553 -1.3743
 4954SOL    HW219225  10.259   9.634   4.015 -0.9462  0.7927 -1.0265
 4955SOL     OW19226   2.666   5.033   1.587 -0.2556 -0.0247  0.5357
 4955SOL    HW119227   2.636   5.110   1.635  0.0834 -0.4434  1.4333
 4955SOL    HW219228   2.605   4.964   1.613 -1.1149  0.1239 -0.9589
 4956SOL     OW19229   1.945   7.811   3.804 -0.4828 -0.2250 -0.4849
 4956SOL    HW119230   2.003   7.735   3.796 -0.5472 -0.3095 -0.1647
 4956SOL    HW219231   1.917   7.829   3.714 -2.5831 -2.2375 -0.3347
 4957SOL     OW19232   4.393   4.001   3.630 -0.3579  0.4859  0.0537
 4957SOL    HW119233   4.368   4.047   3.550 -1.9471 -0.0626  0.2206
 4957SOL    HW219234   4.457   3.936   3.601  1.1136  2.0301 -0.3428
 4958SOL     OW19235   4.228   2.211   8.432  0.4265 -0.0673  0.3030
 4958SOL    HW119236   4.195   2.183   8.517 -2.2648  2.3445  0.1733
 4958SOL    HW219237   4.267   2.297   8.448 -0.4867  0.6101 -0.9295
 4959SOL     OW19238   3.567   1.395   7.109  0.4464  0.3608 -0.5818
 4959SOL    HW119239   3.566   1.362   7.199  2.9640  1.3635 -0.0934
 4959SOL    HW219240   3.554   1.490   7.118  1.8007  0.6242 -1.1219
 4960SOL     OW19241   2.243  11.103   7.198 -0.1898  0.0770 -0.3206
 4960SOL    HW119242   2.267  11.015   7.168 -1.6038 -0.0174 -1.2766
 4960SOL    HW219243   2.239  11.096   7.293  2.1201 -0.2322 -0.1944
 4961SOL     OW19244   6.548   8.734   4.464  0.1654 -0.5228 -0.3720
 4961SOL    HW119245   6.635   8.772   4.449  0.2596 -1.0415 -1.1636
 4961SOL    HW219246   6.524   8.765   4.551  0.1051  1.6207 -1.0970
 4962SOL     OW19247   1.550   1.409   0.142 -0.1191 -0.2559 -0.6021
 4962SOL    HW119248   1.502   1.362   0.210  1.2398  0.8319  1.2243
 4962SOL    HW219249   1.574   1.342   0.079 -2.1550 -1.1680 -0.4834
 4963SOL     OW19250   3.071   7.418   5.108  0.1246  0.1328 -0.6333
 4963SOL    HW119251   3.038   7.392   5.194 -3.8742 -0.2351 -2.0734
 4963SOL    HW219252   3.092   7.511   5.116  0.7776 -0.1344  0.9515
 4964SOL     OW19253   5.200   8.976   8.726 -0.2217 -0.3058 -0.0929
 4964SOL    HW119254   5.184   8.885   8.700  0.5245  0.0081 -1.7976
 4964SOL    HW219255   5.157   9.027   8.658  4.2610  0.5844 -2.6216
 4965SOL     OW19256   2.887   5.082   3.999  0.4735 -0.1223  0.3373
 4965SOL    HW119257   2.947   5.017   4.036 -0.3807 -1.6140 -0.7797
 4965SOL    HW219258   2.935   5.120   3.926 -0.0785 -1.7795 -0.9695
 4966SOL     OW19259   5.883   3.370   5.861 -0.5974 -0.3340  0.3177
 4966SOL    HW119260   5.862   3.282   5.892 -0.8635 -0.6032 -0.5869
 4966SOL    HW219261   5.918   3.356   5.772  0.6790  0.3479  0.6813
 4967SOL     OW19262   4.995   2.954   5.550  0.0150  0.3514 -0.1166
 4967SOL    HW119263   4.928   2.960   5.482 -0.3885  0.3466  0.2757
 4967SOL    HW219264   5.054   2.885   5.520 -0.4005  0.0550 -0.2584
 4968SOL     OW19265   6.937   8.872   1.123 -0.5275  0.4347  0.0287
 4968SOL    HW119266   6.974   8.956   1.096 -0.6870  1.0057  1.5279
 4968SOL    HW219267   7.009   8.827   1.167 -0.8340  0.3671  0.4623
 4969SOL     OW19268   4.183   4.166   4.313  0.3071  0.0562  0.0276
 4969SOL    HW119269   4.094   4.195   4.335  0.2509  0.7752 -1.0754
 4969SOL    HW219270   4.228   4.245   4.284  1.0385 -0.4614 -0.2816
 4970SOL     OW19271   9.295   8.258   3.573 -0.9346 -0.0882 -0.4170
 4970SOL    HW119272   9.299   8.354   3.570 -1.4917 -0.0597 -0.3362
 4970SOL    HW219273   9.310   8.231   3.482  0.4496  0.0188 -0.2322
 4971SOL     OW19274   3.600   5.687   2.849 -0.0816 -0.0513 -0.8926
 4971SOL    HW119275   3.568   5.682   2.939  1.8179  2.6530  0.0795
 4971SOL    HW219276   3.540   5.746   2.805  0.0822  0.1484 -0.8477
 4972SOL     OW19277   4.317   9.251   5.782 -0.0675 -0.2508  0.4257
 4972SOL    HW119278   4.287   9.277   5.869  2.6478  0.4063  1.2409
 4972SOL    HW219279   4.408   9.226   5.794  1.0183  1.7714 -2.5231
 4973SOL     OW19280   2.247  10.316   6.482 -0.3817  0.2129 -0.2850
 4973SOL    HW119281   2.259  10.351   6.394  0.5023  0.0948 -0.2271
 4973SOL    HW219282   2.192  10.381   6.527  2.4997  2.4550  0.3099
 4974SOL     OW19283   8.672   5.592   7.826 -0.5131 -0.1853  0.5264
 4974SOL    HW119284   8.737   5.522   7.823 -1.2729 -0.8919  0.3868
 4974SOL    HW219285   8.610   5.565   7.894 -1.5184 -0.2965 -0.4015
 4975SOL     OW19286   6.270   3.814   0.376 -0.4641 -0.3188  0.1511
 4975SOL    HW119287   6.178   3.839   0.368 -0.2600  1.1039  1.7277
 4975SOL    HW219288   6.302   3.862   0.453  1.2769 -1.7346  0.3851
 4976SOL     OW19289  10.119  10.625   7.977  0.2593  0.0326 -0.2812
 4976SOL    HW119290  10.065  10.657   8.049  1.3288 -1.1746  1.1216
 4976SOL    HW219291  10.139  10.703   7.925 -0.6595  0.9094  0.6366
 4977SOL     OW19292   9.442   9.402   6.156 -0.2709 -0.2750 -0.2019
 4977SOL    HW119293   9.497   9.343   6.207  0.1352 -0.2392 -0.5927
 4977SOL    HW219294   9.440   9.483   6.206 -0.0543 -0.3114 -0.1336
 4978SOL     OW19295   8.467   4.045   8.683  0.6263 -0.2886 -0.5079
 4978SOL    HW119296   8.557   4.077   8.672  0.1386  1.2600 -0.2517
 4978SOL    HW219297   8.413   4.124   8.679 -0.7661 -1.2397 -1.0435
 4979SOL     OW19298   7.214   3.985   8.387  0.0105 -0.2961  0.2910
 4979SOL    HW119299   7.297   4.009   8.346 -0.3793  0.4706 -0.0900
 4979SOL    HW219300   7.209   4.042   8.464 -0.3920  0.0376  0.0236
 4980SOL     OW19301   5.421   5.221   3.533 -0.1929  0.3915 -0.8520
 4980SOL    HW119302   5.500   5.175   3.506 -0.7455 -0.1360 -1.6028
 4980SOL    HW219303   5.419   5.299   3.478  0.0944  0.6976 -0.4369
 4981SOL     OW19304  10.152   2.151   1.162  0.0917  0.0240  0.0021
 4981SOL    HW119305  10.231   2.204   1.174  0.8431 -0.7193 -1.4048
 4981SOL    HW219306  10.166   2.075   1.218 -0.0234  0.2892  0.3967
 4982SOL     OW19307   8.737   0.807   7.720 -0.4111  0.3713  0.4416
 4982SOL    HW119308   8.711   0.764   7.638  0.5037  0.3764  0.1346
 4982SOL    HW219309   8.654   0.828   7.763 -0.9355 -2.4634  1.0278
 4983SOL     OW19310   3.092   9.431   0.215 -0.6845 -0.3526 -0.4302
 4983SOL    HW119311   3.057   9.511   0.253  0.8147  0.7381 -1.2448
 4983SOL    HW219312   3.138   9.388   0.288 -1.1602 -0.2881 -0.0882
 4984SOL     OW19313   7.706   6.742   2.887 -0.1689  0.1589 -0.2900
 4984SOL    HW119314   7.734   6.775   2.802 -1.4458  2.9521  0.2646
 4984SOL    HW219315   7.632   6.684   2.867  1.9483 -2.4078 -1.2663
 4985SOL     OW19316   0.629   2.538   4.320 -0.8284 -0.4222  0.1728
 4985SOL    HW119317   0.705   2.596   4.319 -0.0972 -1.3208  1.3419
 4985SOL    HW219318   0.614   2.520   4.412 -1.7122 -1.2394 -0.1141
 4986SOL     OW19319   6.777   9.978   3.488 -0.3172 -0.0187  0.2828
 4986SOL    HW119320   6.789   9.884   3.473 -1.2112 -0.4806  2.1036
 4986SOL    HW219321   6.814   9.992   3.575 -2.9184  0.6515  1.3678
 4987SOL     OW19322   6.884   2.413  10.052 -0.5045  0.5284  0.2118
 4987SOL    HW119323   6.845   2.331  10.080  0.7421 -0.9587 -2.0841
 4987SOL    HW219324   6.915   2.454  10.132 -0.9700 -1.3540  1.4119
 4988SOL     OW19325   5.240   6.172   5.206  0.2140  0.0250 -0.2630
 4988SOL    HW119326   5.208   6.233   5.140  0.5421  1.2076  0.6508
 4988SOL    HW219327   5.332   6.195   5.219  1.0740 -2.2610 -1.6538
 4989SOL     OW19328   2.302   2.574   5.114  0.1415 -0.4894  0.1794
 4989SOL    HW119329   2.375   2.514   5.101  1.0436  0.2464  1.5650
 4989SOL    HW219330   2.308   2.599   5.207 -1.7981 -0.3148  0.3017
 4990SOL     OW19331   7.453   1.351   5.782  0.0449  0.3006 -0.1213
 4990SOL    HW119332   7.531   1.328   5.732  0.4102  0.7952  0.1998
 4990SOL    HW219333   7.383   1.300   5.743  0.3481  0.5691 -1.0426
 4991SOL     OW19334   9.686   6.123   1.908  0.0250 -0.2776  0.3067
 4991SOL    HW119335   9.744   6.073   1.966  0.0220 -0.2769  0.3104
 4991SOL    HW219336   9.745   6.158   1.840  0.2254  0.7367  0.9891
 4992SOL     OW19337   0.716   0.999   5.659 -0.0075 -0.1156 -0.3216
 4992SOL    HW119338   0.683   0.947   5.732 -1.1900  0.0213 -0.7282
 4992SOL    HW219339   0.644   0.998   5.595  0.2961  1.2906 -0.7028
 4993SOL     OW19340   7.293   8.171   7.184 -0.2280  0.3874 -0.3705
 4993SOL    HW119341   7.254   8.153   7.099  0.8470  1.4973 -1.1317
 4993SOL    HW219342   7.302   8.085   7.226 -1.0979 -0.1286 -1.2103
 4994SOL     OW19343   0.592   6.582   3.598  0.2633  0.4924 -0.5504
 4994SOL    HW119344   0.642   6.640   3.540 -1.5298  1.4525 -1.2056
 4994SOL    HW219345   0.658   6.523   3.635  1.5872  0.2927 -3.0124
 4995SOL     OW19346   9.317  10.944   0.795 -0.6464  0.0832  0.0342
 4995SOL    HW119347   9.257  10.887   0.843 -0.4107  0.0747  0.3138
 4995SOL    HW219348   9.263  10.980   0.724 -0.4720 -1.4679 -0.9153
 4996SOL     OW19349   4.324   6.606   5.466  0.0018 -0.2999 -0.0727
 4996SOL    HW119350   4.306   6.597   5.372  1.5101  0.0874 -0.4298
 4996SOL    HW219351   4.419   6.601   5.472 -0.0844 -0.3678  1.4558
 4997SOL     OW19352   2.895   9.500   8.515  0.3144  0.1326 -0.0232
 4997SOL    HW119353   2.952   9.576   8.515  0.5678 -0.0117  1.6456
 4997SOL    HW219354   2.949   9.428   8.482  1.3004 -0.0996  1.9611
 4998SOL     OW19355   1.442   5.065   0.353  0.4400  0.1360  0.4020
 4998SOL    HW119356   1.457   5.016   0.434  0.2460  1.1270  1.0508
 4998SOL    HW219357   1.515   5.127   0.348  1.4185 -1.0629 -1.0992
 4999SOL     OW19358   8.793   0.318   7.414  0.3859 -0.1454  0.9577
 4999SOL    HW119359   8.729   0.376   7.371  0.6393  0.3489  1.2309
 4999SOL    HW219360   8.827   0.371   7.486  1.6437 -0.1378  0.3841
 5000SOL     OW19361   1.191   5.217   4.209 -0.9498  0.3080  0.1000
 5000SOL    HW119362   1.132   5.192   4.280 -0.0112 -0.8555  0.5112
 5000SOL    HW219363   1.152   5.179   4.130 -1.1006  0.0960  0.2752
 5001SOL     OW19364   6.198   4.742   4.044 -0.1835  0.2055  0.0181
 5001SOL    HW119365   6.220   4.716   4.134 -0.1295  1.2301  0.3116
 5001SOL    HW219366   6.251   4.820   4.029 -2.1613  1.6250  0.0462
 5002SOL     OW19367   7.833   3.475   6.157 -0.6694 -0.1110 -0.0007
 5002SOL    HW119368   7.845   3.551   6.100  0.0573 -1.1130 -1.2429
 5002SOL    HW219369   7.807   3.404   6.098  0.5140 -1.2880  0.8177
 5003SOL     OW19370  10.523   4.759  11.058  0.2794 -0.4285  0.1178
 5003SOL    HW119371  10.430   4.759  11.036  0.3665  0.3745 -0.2760
 5003SOL    HW219372  10.551   4.850  11.045  1.2257 -0.7579 -0.2334
 5004SOL     OW19373   9.286  10.999   8.540 -0.3431 -0.0644 -0.2923
 5004SOL    HW119374   9.214  10.944   8.572 -0.7479 -0.1981 -1.3818
 5004SOL    HW219375   9.255  11.089   8.552 -0.9967 -0.1267 -1.3733
 5005SOL     OW19376   4.966  10.473   2.200 -0.2072 -0.5760 -0.4133
 5005SOL    HW119377   5.026  10.529   2.250 -1.8911  0.3920  0.6360
 5005SOL    HW219378   5.004  10.385   2.208  1.8298  0.1755 -1.0338
 5006SOL     OW19379   7.813   5.951   9.661 -0.2802 -0.6749 -0.1643
 5006SOL    HW119380   7.746   5.919   9.601  0.3870 -1.6257 -0.4401
 5006SOL    HW219381   7.893   5.955   9.608  0.0723 -0.4278  0.3771
 5007SOL     OW19382   9.494   2.606  10.831  0.4393  0.2198 -0.5134
 5007SOL    HW119383   9.453   2.553  10.900 -0.6889  1.3613 -0.2730
 5007SOL    HW219384   9.428   2.610  10.762  1.0256  0.2392 -1.0742
 5008SOL     OW19385   8.109  10.501   2.123 -0.0494 -0.8887  0.1204
 5008SOL    HW119386   8.090  10.496   2.029 -0.6418  0.4823  0.1538
 5008SOL    HW219387   8.161  10.422   2.140  0.2128 -1.0800 -1.3872
 5009SOL     OW19388   9.113   2.911   8.889 -0.3079 -0.4720 -0.5476
 5009SOL    HW119389   9.090   2.827   8.929 -1.4952 -1.0566 -2.3541
 5009SOL    HW219390   9.029   2.956   8.879  0.1023  0.1539 -1.2704
 5010SOL     OW19391   9.724   9.200   5.647 -0.5767 -0.0879  0.0036
 5010SOL    HW119392   9.631   9.224   5.652 -0.9977 -1.6608  0.3610
 5010SOL    HW219393   9.761   9.229   5.730 -1.2946 -1.4515  0.8490
 5011SOL     OW19394   2.384   9.154   2.996 -0.3912 -0.4791  0.8685
 5011SOL    HW119395   2.374   9.073   3.045  0.0126 -0.1045  1.5837
 5011SOL    HW219396   2.320   9.213   3.034 -0.4078 -0.3392  0.6227
 5012SOL     OW19397   1.089  10.303   7.419 -0.2409 -0.1194  0.1524
 5012SOL    HW119398   1.074  10.322   7.326  0.9529 -0.9030 -0.2217
 5012SOL    HW219399   1.029  10.231   7.439 -1.0110  0.5139  0.1971
 5013SOL     OW19400   0.684   1.609   9.923 -0.5842 -0.3915 -0.7916
 5013SOL    HW119401   0.669   1.693   9.967 -1.0777 -0.5229 -0.6951
 5013SOL    HW219402   0.623   1.610   9.849 -1.0464 -0.9166 -0.4309
 5014SOL     OW19403   6.912   2.138   5.149 -0.1368 -0.0997  0.0756
 5014SOL    HW119404   6.989   2.094   5.114  1.3651  0.7297  2.1103
 5014SOL    HW219405   6.846   2.069   5.156  1.0399 -1.2728  0.0250
 5015SOL     OW19406   8.551   2.287   1.777 -0.4313  0.0549 -0.3819
 5015SOL    HW119407   8.566   2.243   1.693 -0.5593  1.1163 -0.9700
 5015SOL    HW219408   8.635   2.281   1.822  0.0686  0.7764 -1.2010
 5016SOL     OW19409  10.463   3.463   7.494 -0.6296  0.3161  0.0397
 5016SOL    HW119410  10.524   3.481   7.423  1.1042  2.5677  1.9197
 5016SOL    HW219411  10.494   3.380   7.531  0.5943  0.8236  0.2117
 5017SOL     OW19412   6.007   8.581  10.233 -0.4782 -0.5677 -0.2793
 5017SOL    HW119413   6.066   8.608  10.163  0.2198 -0.8180  0.1959
 5017SOL    HW219414   5.948   8.517  10.192  0.1978 -1.0330 -0.5427
 5018SOL     OW19415   0.231   2.079   0.205 -0.2656  0.7869 -0.0489
 5018SOL    HW119416   0.268   2.162   0.235  0.7435 -0.3031  1.9173
 5018SOL    HW219417   0.306   2.022   0.192 -1.0381 -0.3612  0.3743
 5019SOL     OW19418   9.721   9.033   5.962  0.3120  0.7318 -0.7990
 5019SOL    HW119419   9.749   9.052   6.051  0.5260 -0.6764 -0.5490
 5019SOL    HW219420   9.635   9.075   5.955  0.0500  0.3898  0.2509
 5020SOL     OW19421   0.856   6.403   6.197 -0.2567  0.1952 -0.1448
 5020SOL    HW119422   0.793   6.420   6.267 -0.6931  0.8248 -0.6707
 5020SOL    HW219423   0.940   6.429   6.233 -0.1696 -1.2108  0.7850
 5021SOL     OW19424   5.194   4.265   4.688 -0.1125  0.2403  0.1662
 5021SOL    HW119425   5.288   4.265   4.667 -0.4786 -3.0062 -2.5026
 5021SOL    HW219426   5.190   4.243   4.781  1.7831  0.2275  0.2830
 5022SOL     OW19427   0.458  10.887  10.323  0.0897  0.0886 -0.2684
 5022SOL    HW119428   0.460  10.852  10.412 -0.4290  0.2229 -0.1996
 5022SOL    HW219429   0.365  10.891  10.301  0.2036  0.2985 -0.7222
 5023SOL     OW19430   0.361  11.025   1.868 -0.0944 -0.0644 -0.4985
 5023SOL    HW119431   0.352  10.946   1.815 -2.0910 -0.3418  0.1835
 5023SOL    HW219432   0.318  11.004   1.951 -1.3021  1.9439 -0.5559
 5024SOL     OW19433   3.745   6.132  10.222 -0.1699 -0.1269 -0.1440
 5024SOL    HW119434   3.688   6.068  10.179 -0.3095 -1.5167  1.9568
 5024SOL    HW219435   3.705   6.217  10.202 -1.0768 -0.8241 -1.4257
 5025SOL     OW19436   9.163   8.041   4.528  0.3222  0.0787  0.5103
 5025SOL    HW119437   9.115   8.033   4.446  0.8740 -0.5164  0.2325
 5025SOL    HW219438   9.100   8.017   4.595  0.2789 -0.8892  0.1355
 5026SOL     OW19439   9.837   3.119   8.710 -0.2045  0.4129  0.5456
 5026SOL    HW119440   9.800   3.031   8.714 -0.6593  0.5267 -0.6359
 5026SOL    HW219441   9.891   3.119   8.631 -2.3676  1.9369 -1.0657
 5027SOL     OW19442   1.554   7.428   5.548 -0.7393 -0.1901 -1.1015
 5027SOL    HW119443   1.552   7.362   5.479  0.8012 -1.0986 -0.3250
 5027SOL    HW219444   1.583   7.380   5.626  1.0749  1.5117 -0.6673
 5028SOL     OW19445   9.518   0.360   6.835 -0.1238  0.1716 -0.3051
 5028SOL    HW119446   9.545   0.439   6.788  1.7118 -0.4028 -0.2839
 5028SOL    HW219447   9.600   0.322   6.867 -1.0996 -0.9971  0.8912
 5029SOL     OW19448   6.033   6.729   1.174 -0.5796 -0.2128 -0.2752
 5029SOL    HW119449   6.062   6.811   1.135 -0.2871 -1.2474 -2.3484
 5029SOL    HW219450   6.112   6.691   1.213 -0.7862  0.6189  1.0036
 5030SOL     OW19451   5.846  10.241   6.285  0.6116  0.2664  0.3724
 5030SOL    HW119452   5.878  10.309   6.345  1.1080 -2.4184  3.4500
 5030SOL    HW219453   5.846  10.161   6.338 -0.0106 -2.1635 -2.9945
 5031SOL     OW19454   3.720   5.065   5.904  0.6379  0.6462  0.0258
 5031SOL    HW119455   3.765   5.040   5.824  0.4227  1.4785 -0.3670
 5031SOL    HW219456   3.754   5.006   5.971  1.1800  0.2682 -0.5787
 5032SOL     OW19457   6.265   7.220   7.780  0.7464  0.3799  0.2823
 5032SOL    HW119458   6.254   7.126   7.796  2.1874 -0.0387 -0.9697
 5032SOL    HW219459   6.221   7.236   7.697  1.4338  0.5771 -0.0517
 5033SOL     OW19460   7.223   0.312   6.630 -0.3359  0.1569 -0.2833
 5033SOL    HW119461   7.140   0.280   6.594 -0.5061 -1.0459  1.0741
 5033SOL    HW219462   7.285   0.303   6.558 -1.7987  3.3885 -2.1639
 5034SOL     OW19463   9.516   5.034   7.547 -1.2343 -0.3898 -0.3675
 5034SOL    HW119464   9.508   4.942   7.572  2.0040 -0.7339 -0.1501
 5034SOL    HW219465   9.481   5.082   7.622 -0.7252 -1.4520  0.5886
 5035SOL     OW19466   7.518   6.925   0.744  0.2843  0.0249 -0.1939
 5035SOL    HW119467   7.470   6.937   0.826  0.5408 -2.2864  0.3466
 5035SOL    HW219468   7.457   6.955   0.676 -0.1346  1.4607  0.7710
 5036SOL     OW19469   2.330  10.847   6.853  0.0087 -0.6139 -0.3496
 5036SOL    HW119470   2.376  10.914   6.803  0.1315  0.7980  1.5385
 5036SOL    HW219471   2.391  10.823   6.923 -1.9816  1.2629  2.1927
 5037SOL     OW19472   5.653   6.170   5.515  0.6545  0.1115  0.4146
 5037SOL    HW119473   5.709   6.220   5.456  2.0624 -0.8885  0.8376
 5037SOL    HW219474   5.681   6.196   5.603  1.1602 -1.0821  0.6359
 5038SOL     OW19475   7.401   2.909  10.400  0.3789  0.1368 -0.0409
 5038SOL    HW119476   7.424   2.975  10.465 -0.8017  0.3908  0.1527
 5038SOL    HW219477   7.479   2.898  10.346  0.2319  2.5764 -0.8374
 5039SOL     OW19478  11.095   0.796   5.999 -0.2970 -0.0184  0.1162
 5039SOL    HW119479  11.183   0.772   6.030  0.0902  0.7222 -0.3783
 5039SOL    HW219480  11.042   0.800   6.079  0.5508  1.2758  0.6507
 5040SOL     OW19481   1.052   9.496   8.951  0.2491 -0.4730 -0.1366
 5040SOL    HW119482   1.113   9.454   8.891 -0.6755 -0.5411 -1.0623
 5040SOL    HW219483   0.979   9.433   8.958 -1.6496  1.2919 -2.3331
 5041SOL     OW19484   1.005   4.951   5.860  0.3020  0.3476 -0.2011
 5041SOL    HW119485   0.968   4.894   5.928  1.6554 -0.7398 -0.3330
 5041SOL    HW219486   1.067   5.007   5.907 -0.2128  0.9779 -0.2513
 5042SOL     OW19487   2.255  10.306   6.784 -0.5658  0.0077 -0.2324
 5042SOL    HW119488   2.322  10.356   6.737 -2.0070  0.1009 -2.3266
 5042SOL    HW219489   2.261  10.337   6.874  0.0222  2.4094 -1.0208
 5043SOL     OW19490   4.375   1.366   8.300 -0.0873  0.3279 -0.3783
 5043SOL    HW119491   4.434   1.304   8.256 -1.1409  1.2821 -3.3699
 5043SOL    HW219492   4.422   1.449   8.298  0.4714  0.1068  1.7761
 5044SOL     OW19493   4.705   5.225  10.452 -0.3734 -0.6380  0.5929
 5044SOL    HW119494   4.682   5.227  10.359  1.5079 -0.0843  0.0967
 5044SOL    HW219495   4.732   5.135  10.469 -0.7769 -0.7548  0.6399
 5045SOL     OW19496   6.254   0.348   5.778 -0.1213  0.0329  0.0390
 5045SOL    HW119497   6.332   0.388   5.739 -0.4563  0.9011  0.2432
 5045SOL    HW219498   6.220   0.291   5.710 -0.0022  0.6001 -0.5043
 5046SOL     OW19499   0.075   6.691   9.623 -0.2839 -0.3496 -0.6432
 5046SOL    HW119500   0.033   6.703   9.539 -1.5126 -0.6114 -0.0876
 5046SOL    HW219501   0.080   6.596   9.635  1.0601 -0.3482 -0.9655
 5047SOL     OW19502   6.313   6.381   0.043 -0.2523 -0.5932  0.5249
 5047SOL    HW119503   6.268   6.394  -0.040  1.2979 -1.3817 -0.4740
 5047SOL    HW219504   6.311   6.468   0.085  2.6370  1.0576 -2.2792
 5048SOL     OW19505   0.198   0.316   1.668 -0.1571  0.3188 -0.4454
 5048SOL    HW119506   0.281   0.354   1.696 -0.0952  0.2073 -0.4783
 5048SOL    HW219507   0.220   0.262   1.592  0.1763 -1.7237  1.0170
 5049SOL     OW19508   3.099   7.614   3.654  0.5045  0.4021  0.0223
 5049SOL    HW119509   3.077   7.675   3.724  2.0650  0.0720  0.8481
 5049SOL    HW219510   3.021   7.611   3.599 -0.6726  0.8482  1.6102
 5050SOL     OW19511   0.738   6.826   7.452  0.2145  0.4253 -0.2093
 5050SOL    HW119512   0.758   6.906   7.501 -1.2006  0.2493  0.7060
 5050SOL    HW219513   0.658   6.846   7.405  1.8557  0.8011 -3.0461
 5051SOL     OW19514   0.049   5.720  10.333  0.5185  0.2583 -0.1188
 5051SOL    HW119515  -0.046   5.723  10.336  0.5091 -0.3618  0.2607
 5051SOL    HW219516   0.076   5.714  10.424  0.8904 -0.5016 -0.2744
 5052SOL     OW19517   3.454   0.518   5.114  0.0279 -0.2956  0.2038
 5052SOL    HW119518   3.460   0.613   5.105 -1.5462 -0.1282  0.6202
 5052SOL    HW219519   3.395   0.491   5.043 -0.2160 -0.8418  0.6081
 5053SOL     OW19520   5.805   4.971   4.657 -0.3735  0.7287  0.0607
 5053SOL    HW119521   5.837   4.988   4.745 -0.1176 -0.0081  0.1112
 5053SOL    HW219522   5.714   5.000   4.659 -0.6238 -0.0810  0.8144
 5054SOL     OW19523   3.664   1.312   1.533  0.2547  0.0211 -0.2394
 5054SOL    HW119524   3.725   1.378   1.499  0.3827  0.8466  1.5227
 5054SOL    HW219525   3.621   1.277   1.454  2.8800 -0.5302 -1.5488
 5055SOL     OW19526   3.221   5.086   3.403  0.1635  1.0662 -0.0746
 5055SOL    HW119527   3.225   5.170   3.448  1.2232  0.6486  0.6577
 5055SOL    HW219528   3.128   5.073   3.384 -0.1763  1.7790  1.0123
 5056SOL     OW19529   8.101   0.127   5.157 -0.0888 -0.4673  0.1583
 5056SOL    HW119530   8.086   0.199   5.095  2.3056 -0.7383 -0.8543
 5056SOL    HW219531   8.178   0.082   5.123  0.4357 -1.5562  2.5682
 5057SOL     OW19532   7.960   2.941  10.719  0.5490  0.3465  0.1902
 5057SOL    HW119533   7.948   3.033  10.742 -1.5301 -0.1609  1.4013
 5057SOL    HW219534   8.049   2.920  10.747  0.6168  1.6650  1.0192
 5058SOL     OW19535   1.619   0.931   2.096  0.3047 -0.1549  0.4564
 5058SOL    HW119536   1.561   0.956   2.167  0.8774  1.7824  0.2909
 5058SOL    HW219537   1.560   0.912   2.023 -0.2141 -0.7330  1.0138
 5059SOL     OW19538   2.975  10.799   5.952  0.2624 -0.2852  0.1305
 5059SOL    HW119539   2.960  10.785   6.046 -1.7804  1.2109  0.0991
 5059SOL    HW219540   3.061  10.840   5.948 -0.4914  1.6106  1.6150
 5060SOL     OW19541   1.541   7.002   6.423  0.6350  0.0840  0.3709
 5060SOL    HW119542   1.620   7.046   6.390  1.1482 -0.3612  0.9932
 5060SOL    HW219543   1.483   6.999   6.347  0.8802  1.1701  0.1205
 5061SOL     OW19544   8.194   7.906   6.216 -0.2441 -0.6547 -0.4446
 5061SOL    HW119545   8.145   7.908   6.134  0.9530 -1.5474 -1.2148
 5061SOL    HW219546   8.142   7.848   6.273 -1.4016  0.4626 -0.3226
 5062SOL     OW19547   1.260   1.732   2.121  0.2119  0.2912  1.0780
 5062SOL    HW119548   1.171   1.712   2.092 -0.3236  1.2282  1.9850
 5062SOL    HW219549   1.274   1.674   2.196  0.5270 -0.1339  0.6979
 5063SOL     OW19550   8.736   7.606   5.800  0.2787  0.1562 -0.6992
 5063SOL    HW119551   8.764   7.515   5.784 -0.4667  0.0831 -1.6986
 5063SOL    HW219552   8.805   7.659   5.759  1.1662  0.0747  0.6471
 5064SOL     OW19553   4.708  10.638   7.126  0.5396  0.2187 -0.5253
 5064SOL    HW119554   4.753  10.557   7.151 -2.7834 -1.1062  1.9847
 5064SOL    HW219555   4.724  10.698   7.198  1.2589  1.1017 -1.3924
 5065SOL     OW19556   7.190   9.704   8.294  0.1884  0.0260 -0.3951
 5065SOL    HW119557   7.101   9.673   8.311  0.4155 -0.4359 -0.0470
 5065SOL    HW219558   7.208   9.675   8.204  0.1970 -0.3802 -0.2652
 5066SOL     OW19559   7.979   6.402   4.913 -0.6126 -0.3397 -0.5858
 5066SOL    HW119560   7.926   6.453   4.975 -0.8536  0.1162 -1.1567
 5066SOL    HW219561   7.935   6.415   4.829 -1.7070 -2.8523 -0.5023
 5067SOL     OW19562   7.249   2.687   8.754  0.0461 -0.7341  0.1458
 5067SOL    HW119563   7.310   2.731   8.695 -0.1270 -0.1023  0.4310
 5067SOL    HW219564   7.295   2.607   8.781  1.2589  0.3048  1.2999
 5068SOL     OW19565   3.350   1.491   2.913 -0.0599  0.1040 -0.1533
 5068SOL    HW119566   3.363   1.565   2.854  0.8157  1.0419  1.1609
 5068SOL    HW219567   3.325   1.531   2.997 -0.4232 -1.1423  0.3534
 5069SOL     OW19568   7.839   0.224   6.731 -0.0460  0.3114  0.0443
 5069SOL    HW119569   7.775   0.245   6.663 -0.3442  1.9179  0.7656
 5069SOL    HW219570   7.901   0.297   6.728  0.5968 -0.1974  0.7212
 5070SOL     OW19571   4.597   7.772   9.966 -0.2341  0.2227 -0.0581
 5070SOL    HW119572   4.618   7.850  10.017 -1.3396  0.7157 -0.3160
 5070SOL    HW219573   4.610   7.799   9.875  1.7654 -0.6596 -0.0799
 5071SOL     OW19574   6.886   0.409   0.774 -0.0530 -0.2528 -0.1533
 5071SOL    HW119575   6.871   0.435   0.865  0.7879  1.8447 -0.5559
 5071SOL    HW219576   6.800   0.384   0.741 -0.7982  1.2126  0.5837
 5072SOL     OW19577  10.282   4.548  10.520 -0.3276 -0.0627 -0.5294
 5072SOL    HW119578  10.249   4.617  10.577  0.2365  3.0972 -3.6713
 5072SOL    HW219579  10.203   4.508  10.483 -0.6759  0.4419 -0.3435
 5073SOL     OW19580   5.540   4.776   4.718  0.8156  0.7993  0.6461
 5073SOL    HW119581   5.630   4.743   4.719  0.3103 -0.6408  1.0577
 5073SOL    HW219582   5.511   4.767   4.628  0.5366 -0.3609  0.8348
 5074SOL     OW19583  10.959   1.533   0.125  0.4003  0.1193 -0.2530
 5074SOL    HW119584  11.004   1.466   0.175 -0.7644  0.5429  1.4368
 5074SOL    HW219585  10.965   1.504   0.034  1.7374 -1.1586  0.2158
 5075SOL     OW19586   3.333   9.412   3.522  0.0322 -0.3935 -0.2254
 5075SOL    HW119587   3.314   9.342   3.585 -3.5297 -0.5317 -1.1880
 5075SOL    HW219588   3.392   9.471   3.568  0.8007 -2.5107  1.7037
 5076SOL     OW19589   7.227   2.312   4.170 -0.0505 -0.2181 -0.0326
 5076SOL    HW119590   7.320   2.292   4.171 -0.2222 -1.0692 -0.3541
 5076SOL    HW219591   7.218   2.388   4.228  0.6160 -1.0922  1.2666
 5077SOL     OW19592   6.101   6.247   1.635  0.3024  0.0134 -0.2423
 5077SOL    HW119593   6.195   6.251   1.653  0.3679  0.5142 -0.6363
 5077SOL    HW219594   6.096   6.236   1.540 -0.0344 -0.5571 -0.1580
 5078SOL     OW19595   6.366   4.802   4.375  0.1452  0.1361  0.2030
 5078SOL    HW119596   6.451   4.846   4.376  0.1165  0.1889  0.2418
 5078SOL    HW219597   6.379   4.724   4.429  0.6259 -0.6775 -1.0251
 5079SOL     OW19598   9.670   2.732   4.360 -0.4650 -0.5155 -0.0482
 5079SOL    HW119599   9.608   2.794   4.399  2.4487  0.6693  3.3223
 5079SOL    HW219600   9.714   2.783   4.291  0.9324  0.8900  1.7597
 5080SOL     OW19601   8.376   5.303  10.638  0.4097 -0.3771  0.2102
 5080SOL    HW119602   8.432   5.273  10.710  0.7012 -0.5319 -0.0780
 5080SOL    HW219603   8.406   5.252  10.563 -0.8726 -1.2947  0.2991
 5081SOL     OW19604   3.375   8.469   3.823 -0.5169 -0.1043  0.1850
 5081SOL    HW119605   3.373   8.536   3.754  0.4147  1.2900  1.4211
 5081SOL    HW219606   3.401   8.389   3.778 -0.0397  0.7374 -1.1034
 5082SOL     OW19607  10.249   7.918   7.334  0.2322  0.1712 -0.0551
 5082SOL    HW119608  10.214   7.842   7.379  2.2254 -0.3211  0.7957
 5082SOL    HW219609  10.283   7.884   7.252 -1.3501  0.6762 -0.9637
 5083SOL     OW19610   7.307   2.865   6.820  0.2705  0.2046 -0.0095
 5083SOL    HW119611   7.326   2.939   6.762 -0.9091 -0.1146 -0.8356
 5083SOL    HW219612   7.349   2.888   6.903  0.7993  1.3166 -0.5697
 5084SOL     OW19613   6.135   3.216   3.346  0.0542  0.0927 -0.1328
 5084SOL    HW119614   6.097   3.244   3.262  0.2100  0.4527 -0.0838
 5084SOL    HW219615   6.059   3.202   3.402 -0.0414  0.0952 -0.2602
 5085SOL     OW19616   6.858   2.191   3.865  0.1087 -0.2651  0.0840
 5085SOL    HW119617   6.903   2.179   3.949 -0.3611  2.7317  0.8938
 5085SOL    HW219618   6.929   2.201   3.801  0.4702 -2.3140  0.1118
 5086SOL     OW19619   3.918   6.016   3.148  0.4266 -0.2061 -0.1654
 5086SOL    HW119620   3.884   5.964   3.075 -0.7393 -1.2610  1.0700
 5086SOL    HW219621   3.844   6.072   3.174  0.8890  0.2955  0.0927
 5087SOL     OW19622   8.554   3.968   1.329 -0.5044  0.5094 -0.3384
 5087SOL    HW119623   8.555   4.020   1.249 -2.4840  2.4948  0.8271
 5087SOL    HW219624   8.644   3.973   1.362  0.3669 -0.4145 -2.4056
 5088SOL     OW19625   9.767   1.698   4.850 -0.2392  0.9286 -0.2851
 5088SOL    HW119626   9.819   1.778   4.849 -1.9984  2.1630  1.5005
 5088SOL    HW219627   9.800   1.649   4.926 -1.7257  1.7942  0.9563
 5089SOL     OW19628   8.385   0.010   1.985  0.2062  0.0208 -0.3401
 5089SOL    HW119629   8.409  -0.000   2.077 -1.2860  0.3662  0.1199
 5089SOL    HW219630   8.460   0.053   1.945  1.2743 -1.0094  0.4909
 5090SOL     OW19631   7.524   0.398   9.790 -0.6388  0.7173 -0.7911
 5090SOL    HW119632   7.476   0.407   9.873  1.3340  0.3027  0.4818
 5090SOL    HW219633   7.461   0.359   9.730 -1.6877 -0.5817  1.0260
 5091SOL     OW19634   5.866   3.849  10.521  0.2353  0.5486  0.3466
 5091SOL    HW119635   5.951   3.852  10.565  1.0942  0.3448 -1.2205
 5091SOL    HW219636   5.875   3.909  10.447 -0.7986  0.1212 -0.1500
 5092SOL     OW19637   4.372  10.817   2.271 -0.6889 -0.6905  0.3157
 5092SOL    HW119638   4.399  10.852   2.356 -0.0288 -2.5875  0.9462
 5092SOL    HW219639   4.317  10.886   2.233  0.4297  0.9343  1.4917
 5093SOL     OW19640   9.329   2.166   9.296  0.0842  0.2875 -0.1471
 5093SOL    HW119641   9.342   2.254   9.261 -0.0736 -0.3379 -1.9126
 5093SOL    HW219642   9.235   2.156   9.305  0.1582  0.7831  1.4858
 5094SOL     OW19643   1.184   6.539   0.854  0.2879  0.0870  0.3295
 5094SOL    HW119644   1.102   6.579   0.882  0.5191  1.5734 -0.9924
 5094SOL    HW219645   1.159   6.480   0.783  0.3235  0.3860  0.0647
 5095SOL     OW19646   7.411   0.804   9.028  0.7425 -0.2930 -0.4725
 5095SOL    HW119647   7.467   0.743   9.076  0.5837 -1.5729 -1.8449
 5095SOL    HW219648   7.377   0.753   8.955 -0.0546  1.2316 -1.2131
 5096SOL     OW19649   3.993   9.269   5.785 -0.3746  0.2584  0.1912
 5096SOL    HW119650   3.921   9.214   5.816  0.7214 -0.2424  2.0190
 5096SOL    HW219651   4.036   9.216   5.717 -1.4134  0.3611 -0.5660
 5097SOL     OW19652  10.052   8.641   1.275  0.3654  0.0550  0.3980
 5097SOL    HW119653  10.099   8.601   1.202  0.0520  0.4041  0.0037
 5097SOL    HW219654  10.050   8.573   1.342  0.2949 -0.4103 -0.0721
 5098SOL     OW19655   5.237  10.750   6.225 -0.6355  0.3543  0.5877
 5098SOL    HW119656   5.315  10.787   6.267 -0.0428  0.3158 -0.4576
 5098SOL    HW219657   5.172  10.819   6.231 -0.6841  0.2229  1.8783
 5099SOL     OW19658   7.314   3.097   5.488  0.0958 -0.0987 -0.1926
 5099SOL    HW119659   7.383   3.135   5.434  0.1457  2.7875  1.6762
 5099SOL    HW219660   7.233   3.111   5.438  0.2540  1.6489 -0.0089
 5100SOL     OW19661   5.181   0.033   4.255  0.2780  0.0706 -0.1225
 5100SOL    HW119662   5.130  -0.017   4.191  0.1336 -0.3770  0.3328
 5100SOL    HW219663   5.252   0.071   4.204  0.9238 -1.3510 -0.3315
 5101SOL     OW19664   1.513   7.635   8.457  0.5937 -0.1931 -0.0530
 5101SOL    HW119665   1.528   7.674   8.543 -0.9357 -0.6896  0.4864
 5101SOL    HW219666   1.522   7.540   8.472  1.0555 -0.2388 -0.6050
 5102SOL     OW19667   4.878   6.822   3.361  0.0782  0.2885  0.1727
 5102SOL    HW119668   4.815   6.764   3.317 -0.3388  0.7852  0.1071
 5102SOL    HW219669   4.852   6.910   3.334  0.8669  0.4961  0.0617
 5103SOL     OW19670   5.029   3.847   7.605  0.3787  0.1539 -0.5584
 5103SOL    HW119671   5.071   3.796   7.536  0.8306  0.2313 -0.3423
 5103SOL    HW219672   4.961   3.896   7.560 -1.0760 -1.7490 -0.5554
 5104SOL     OW19673   7.474   3.521   9.428 -0.2397 -0.7001 -0.5527
 5104SOL    HW119674   7.414   3.510   9.502  0.7966  0.3859  0.4902
 5104SOL    HW219675   7.427   3.485   9.354 -0.3310 -4.3028  1.0333
 5105SOL     OW19676   9.899   9.526   1.833 -0.4567  0.0343 -0.1830
 5105SOL    HW119677   9.989   9.495   1.824 -0.9725 -1.2068 -1.4745
 5105SOL    HW219678   9.863   9.475   1.905 -0.3673 -0.0408 -0.1919
 5106SOL     OW19679   3.833   0.120   7.393  0.0314 -0.2031  0.2049
 5106SOL    HW119680   3.764   0.061   7.424 -0.9425 -0.0745 -1.6219
 5106SOL    HW219681   3.787   0.196   7.358  1.0274 -0.3922 -1.6409
 5107SOL     OW19682   4.671   1.517   3.287 -0.2872  0.4318  0.0891
 5107SOL    HW119683   4.597   1.522   3.226 -2.7771 -2.0788  2.5578
 5107SOL    HW219684   4.732   1.456   3.246 -1.9889 -1.3523  0.0360
 5108SOL     OW19685   1.395   0.969   8.624  0.2368  0.1539 -0.0457
 5108SOL    HW119686   1.438   0.992   8.707  0.2585 -2.3910  0.7191
 5108SOL    HW219687   1.313   0.928   8.650  0.7605 -1.7268 -1.2022
 5109SOL     OW19688   0.378   8.079   3.970  0.0644 -0.0202  0.4161
 5109SOL    HW119689   0.395   8.076   4.064 -0.7967  0.5013  0.5957
 5109SOL    HW219690   0.283   8.081   3.962 -0.0939  5.0911 -0.1969
 5110SOL     OW19691   7.707   1.382   5.258  0.2527  0.1538 -0.0828
 5110SOL    HW119692   7.789   1.430   5.266 -0.2504  0.9299  0.6120
 5110SOL    HW219693   7.723   1.299   5.302  0.7271  0.2201 -0.1253
 5111SOL     OW19694  10.925  10.062   9.509 -0.0109  0.1103 -0.1865
 5111SOL    HW119695  11.013  10.094   9.529 -0.1450 -0.4836  1.5022
 5111SOL    HW219696  10.913   9.987   9.567 -2.1772  1.0617  0.7048
 5112SOL     OW19697   5.325   8.495   6.294 -0.0504 -0.4232  0.1323
 5112SOL    HW119698   5.318   8.432   6.366  0.3771  0.9408  1.4186
 5112SOL    HW219699   5.306   8.580   6.334  2.2282  0.6603 -0.8679
 5113SOL     OW19700   6.703   6.534   4.950  0.5847  0.6455  0.2435
 5113SOL    HW119701   6.666   6.551   5.037 -1.3870  1.1375 -0.6329
 5113SOL    HW219702   6.670   6.605   4.895  0.9479 -0.2007 -1.1257
 5114SOL     OW19703   8.997   8.658   5.806  0.3567  0.5784  0.2968
 5114SOL    HW119704   8.942   8.723   5.851 -2.1024 -0.2993 -1.2999
 5114SOL    HW219705   9.022   8.596   5.875  0.3670  1.6334  1.2745
 5115SOL     OW19706  10.679   9.669  10.738  0.6730  0.0669 -0.1607
 5115SOL    HW119707  10.628   9.612  10.681  0.7908  0.6437 -0.8466
 5115SOL    HW219708  10.742   9.610  10.780  0.1353 -0.4713 -0.1020
 5116SOL     OW19709   0.437   5.524   7.028  0.0845 -0.0472  0.1320
 5116SOL    HW119710   0.507   5.459   7.023  0.8899  0.8614 -1.2478
 5116SOL    HW219711   0.385   5.510   6.949  1.7436  2.4820 -1.5798
 5117SOL     OW19712   3.940   9.912   5.748  0.5630 -0.1909  0.1386
 5117SOL    HW119713   4.010   9.964   5.787 -1.4865  1.8911  1.2674
 5117SOL    HW219714   3.939   9.939   5.656 -0.2287  1.5739  0.6311
 5118SOL     OW19715   3.279  10.701   4.993  0.4065  0.2849  0.2610
 5118SOL    HW119716   3.244  10.655   4.917 -1.7665  0.0903  1.2939
 5118SOL    HW219717   3.327  10.634   5.041 -0.0808 -0.1558  0.1531
 5119SOL     OW19718   9.760  10.254   8.831  0.1223 -0.0741  0.1735
 5119SOL    HW119719   9.682  10.199   8.826 -0.0711 -0.1477  2.6545
 5119SOL    HW219720   9.796  10.253   8.743 -1.0471 -2.4508 -0.3569
 5120SOL     OW19721   9.373   5.588   4.289  1.0011 -0.0720 -0.1862
 5120SOL    HW119722   9.402   5.668   4.333 -0.6948 -0.6546  2.1509
 5120SOL    HW219723   9.399   5.517   4.348 -0.6981 -0.9630 -0.4608
 5121SOL     OW19724   5.635   5.740   3.687 -0.1029  0.3542  0.3066
 5121SOL    HW119725   5.711   5.726   3.744 -0.5441  0.6100  0.9729
 5121SOL    HW219726   5.663   5.808   3.626  0.5460 -0.2718 -0.1147
 5122SOL     OW19727   2.353   5.455  10.055 -0.2232  0.3821  0.5797
 5122SOL    HW119728   2.332   5.380  10.000 -1.5053  1.0144  0.1646
 5122SOL    HW219729   2.446   5.445  10.074 -0.0920 -0.6593 -0.4597
 5123SOL     OW19730   2.117   2.244   0.128  0.6304 -0.0796 -0.4518
 5123SOL    HW119731   2.185   2.178   0.114 -0.6467 -2.1524  2.2188
 5123SOL    HW219732   2.134   2.278   0.216 -0.7518  0.6388 -0.4301
 5124SOL     OW19733   5.368   3.445  10.546 -0.4470 -0.1544  0.4885
 5124SOL    HW119734   5.403   3.521  10.593 -0.7869  1.9860 -2.4430
 5124SOL    HW219735   5.286   3.425  10.591 -1.4022  2.6072  0.2002
 5125SOL     OW19736   8.326   2.798   3.250 -0.1339  1.1389 -0.4651
 5125SOL    HW119737   8.357   2.884   3.223  0.9921  0.4480 -1.5245
 5125SOL    HW219738   8.403   2.742   3.243 -0.8923  0.0021 -0.0122
 5126SOL     OW19739   9.571   6.232   5.248 -0.2933  0.2898 -0.0886
 5126SOL    HW119740   9.494   6.182   5.219 -0.6497  0.8201 -0.0694
 5126SOL    HW219741   9.535   6.311   5.288  0.1922 -0.3569  1.7056
 5127SOL     OW19742   5.780   2.319   2.394 -0.3486 -0.2263 -0.2384
 5127SOL    HW119743   5.688   2.299   2.380 -0.5945  0.6646  0.0641
 5127SOL    HW219744   5.805   2.371   2.317 -0.4462  0.6032  0.2719
 5128SOL     OW19745   4.035   2.226  10.595 -0.1861  0.5697 -0.0276
 5128SOL    HW119746   3.949   2.267  10.581 -0.0616  0.7572 -0.2352
 5128SOL    HW219747   4.098   2.293  10.570  0.0161 -0.0090 -1.0931
 5129SOL     OW19748   1.986   9.754   4.834 -0.3949 -0.1607 -0.2940
 5129SOL    HW119749   1.903   9.743   4.880  0.1728  0.8673  1.0578
 5129SOL    HW219750   2.052   9.741   4.902  0.4453  2.7803 -0.4271
 5130SOL     OW19751   6.963   7.367   4.734  0.4092 -0.0501 -0.1418
 5130SOL    HW119752   7.054   7.365   4.764  0.4113  0.4971 -0.1070
 5130SOL    HW219753   6.917   7.307   4.793  0.8264 -0.6879 -0.4465
 5131SOL     OW19754   0.636   2.624   8.823  0.5182 -0.1414  0.3127
 5131SOL    HW119755   0.684   2.659   8.898  1.2654 -0.8240  0.1614
 5131SOL    HW219756   0.611   2.535   8.850 -1.6828  0.5807  0.8431
 5132SOL     OW19757   0.364   6.863  10.672 -0.0906  0.2941  0.2753
 5132SOL    HW119758   0.310   6.795  10.711  0.4344 -0.9239 -1.0809
 5132SOL    HW219759   0.309   6.941  10.674 -1.8180 -0.8480 -0.8452
 5133SOL     OW19760   1.002   9.983   1.543 -0.0787  0.0363  0.3789
 5133SOL    HW119761   0.961  10.005   1.459 -1.0527  1.4037  1.1816
 5133SOL    HW219762   1.039  10.066   1.574  0.6846 -0.5525  1.0879
 5134SOL     OW19763   4.730   5.789   3.249 -0.1164 -0.5396 -0.4482
 5134SOL    HW119764   4.684   5.705   3.237  2.3500 -1.7220 -2.3620
 5134SOL    HW219765   4.661   5.849   3.278 -2.4831 -2.6231 -1.3289
 5135SOL     OW19766   4.836   1.908   2.674  0.1092 -0.3912  0.1966
 5135SOL    HW119767   4.866   1.913   2.583 -0.6426  0.8498 -0.0032
 5135SOL    HW219768   4.867   1.823   2.704  1.2332 -0.4152 -0.9104
 5136SOL     OW19769   4.787   8.515   3.020  0.1337  0.2341  0.8028
 5136SOL    HW119770   4.724   8.550   3.082  0.4599 -1.3977  2.1108
 5136SOL    HW219771   4.820   8.592   2.973 -0.3876  1.4624  2.3837
 5137SOL     OW19772   6.402   8.105   2.557 -0.1854  0.8059 -0.3173
 5137SOL    HW119773   6.410   8.047   2.633  1.3232  1.0825 -0.2325
 5137SOL    HW219774   6.403   8.046   2.481 -1.4024  0.5504 -0.1481
 5138SOL     OW19775   7.190   5.837   8.030 -0.2001  0.8620  0.2403
 5138SOL    HW119776   7.116   5.856   7.971 -0.8323  1.6662  1.2694
 5138SOL    HW219777   7.150   5.831   8.117  0.2945 -2.8436  0.3672
 5139SOL     OW19778  10.242  10.916   6.585 -0.2019 -0.0640  0.0069
 5139SOL    HW119779  10.272  10.840   6.537  2.3791  0.3341  0.8368
 5139SOL    HW219780  10.242  10.888   6.677 -1.5651  0.2494  0.1241
 5140SOL     OW19781   9.409   0.848   7.076  0.9128 -0.2296 -0.3711
 5140SOL    HW119782   9.393   0.776   7.015  0.9858  0.4252 -1.1837
 5140SOL    HW219783   9.330   0.901   7.073  1.4268  0.5143 -0.8950
 5141SOL     OW19784   1.710  10.350   5.213  0.5523  0.2491  0.3493
 5141SOL    HW119785   1.790  10.386   5.251  0.5308 -1.3478  2.0248
 5141SOL    HW219786   1.653  10.332   5.288 -1.0257  0.4981 -0.7439
 5142SOL     OW19787   6.642   0.754   6.351 -0.5323 -0.4975  0.4083
 5142SOL    HW119788   6.604   0.707   6.276 -0.7365 -0.6763  0.6227
 5142SOL    HW219789   6.663   0.685   6.414  1.8487 -0.6180 -0.4208
 5143SOL     OW19790   1.233   8.488   5.571  0.0500  0.2840  0.3591
 5143SOL    HW119791   1.293   8.479   5.645  0.3996  0.3477  0.0868
 5143SOL    HW219792   1.246   8.409   5.520 -0.9836 -0.2754  0.9260
 5144SOL     OW19793   2.155   9.812   6.695 -0.3579 -0.3417 -0.1845
 5144SOL    HW119794   2.168   9.905   6.675 -1.7881  0.3582  1.7977
 5144SOL    HW219795   2.072   9.790   6.652 -0.8881 -0.1955  0.7304
 5145SOL     OW19796   6.522   1.471   8.883 -0.3402  0.2919 -0.0496
 5145SOL    HW119797   6.562   1.501   8.801  0.0385 -1.7404 -0.6568
 5145SOL    HW219798   6.594   1.474   8.947 -0.4645  1.2270  0.0606
 5146SOL     OW19799  10.209   0.758  10.117 -0.1348  0.2550 -0.0413
 5146SOL    HW119800  10.194   0.807  10.036  1.4186  1.4242  0.3065
 5146SOL    HW219801  10.128   0.766  10.166 -0.8129  0.2302 -1.1271
 5147SOL     OW19802   2.947   0.888   8.241 -0.0348  0.2362  0.0974
 5147SOL    HW119803   2.859   0.877   8.204  0.4074  0.8912 -1.2115
 5147SOL    HW219804   2.996   0.813   8.210 -0.6010 -1.2273  2.4811
 5148SOL     OW19805   1.681   5.632   7.765  0.2777 -0.4783 -0.0676
 5148SOL    HW119806   1.604   5.689   7.769 -0.0719 -0.7605 -1.9328
 5148SOL    HW219807   1.754   5.689   7.789 -0.3083  0.2278  0.0870
 5149SOL     OW19808   2.990   1.336   5.016  0.3029  0.0759  0.3993
 5149SOL    HW119809   2.998   1.426   4.984  0.4529  0.3800  1.2660
 5149SOL    HW219810   2.902   1.332   5.054  0.6162  0.1162  1.1388
 5150SOL     OW19811   7.930   6.902   6.519 -0.5294 -0.7099  0.9184
 5150SOL    HW119812   7.925   6.838   6.447  0.6513  0.9709 -0.7622
 5150SOL    HW219813   7.936   6.848   6.598  0.0740 -2.6744 -0.3745
 5151SOL     OW19814   6.823   0.833   2.066 -0.1500 -0.0903 -0.0242
 5151SOL    HW119815   6.790   0.891   2.135 -0.0939 -0.3808  0.2516
 5151SOL    HW219816   6.912   0.864   2.048 -0.2712  0.1721 -0.1768
 5152SOL     OW19817   6.487   7.401   7.829 -0.0340 -0.4637 -0.4564
 5152SOL    HW119818   6.406   7.351   7.817  0.2020 -1.0913  0.3862
 5152SOL    HW219819   6.510   7.385   7.921  1.2382 -0.6018 -0.7807
 5153SOL     OW19820   8.836   2.232   6.148 -0.0883  0.3278 -0.1240
 5153SOL    HW119821   8.759   2.204   6.098  2.3954 -0.7960 -3.7484
 5153SOL    HW219822   8.858   2.157   6.204  0.7309 -1.1668 -2.3152
 5154SOL     OW19823   7.383  10.157   7.718 -0.0816 -0.7234  0.6886
 5154SOL    HW119824   7.402  10.106   7.639 -1.9083  0.6192 -0.7164
 5154SOL    HW219825   7.464  10.206   7.735  0.5294 -1.4714  0.0181
 5155SOL     OW19826   4.473   7.273   9.033  0.2666 -0.1577  0.4809
 5155SOL    HW119827   4.514   7.222   8.964 -0.3020  0.1896 -0.1334
 5155SOL    HW219828   4.380   7.250   9.027  0.1727  0.0859  0.9527
 5156SOL     OW19829   6.093   3.792   1.089  0.5895  0.1744 -0.0772
 5156SOL    HW119830   6.141   3.875   1.084  0.7133  0.0601 -1.0172
 5156SOL    HW219831   6.159   3.728   1.115  0.5727  0.3063  0.2946
 5157SOL     OW19832   5.840   6.416   0.365  0.1886 -0.5029  0.0556
 5157SOL    HW119833   5.780   6.347   0.337 -0.1429 -0.2411  0.1216
 5157SOL    HW219834   5.927   6.382   0.343 -0.0482 -0.3940 -1.1035
 5158SOL     OW19835   8.063   6.745   2.607  0.0281  0.4250  0.1654
 5158SOL    HW119836   8.007   6.820   2.627  1.2953  0.7168  3.1076
 5158SOL    HW219837   8.145   6.784   2.579 -0.2151  0.0437 -1.1288
 5159SOL     OW19838   7.097   4.786   5.276 -0.3730 -0.5180  0.3878
 5159SOL    HW119839   7.022   4.766   5.220 -0.5940 -1.3838  0.9744
 5159SOL    HW219840   7.125   4.701   5.310 -0.0208 -0.0462  1.3111
 5160SOL     OW19841   9.457   4.979   3.193 -0.0892 -0.0781 -0.0703
 5160SOL    HW119842   9.477   5.050   3.132  0.7048  0.5650  0.8992
 5160SOL    HW219843   9.538   4.927   3.196  0.6590  1.0994  1.9825
 5161SOL     OW19844   8.040   5.221   7.613 -0.0082 -0.7596 -0.1841
 5161SOL    HW119845   8.066   5.291   7.673 -2.3127  0.7848 -0.8273
 5161SOL    HW219846   7.990   5.266   7.545 -0.9731 -2.9589 -1.0239
 5162SOL     OW19847  11.084   7.083   7.824 -0.1026  0.1211  0.2161
 5162SOL    HW119848  11.019   7.119   7.764 -0.3758 -0.4055  0.1924
 5162SOL    HW219849  11.051   6.995   7.845 -0.7637  0.7897  2.2234
 5163SOL     OW19850  10.088   3.697   7.339  0.0431 -0.4636  0.4981
 5163SOL    HW119851  10.175   3.713   7.376  0.5305 -1.7453 -0.0642
 5163SOL    HW219852  10.028   3.717   7.411  0.8117  0.0911  1.0050
 5164SOL     OW19853   4.447   2.120   5.255 -0.0410 -0.3834  0.2636
 5164SOL    HW119854   4.416   2.130   5.165 -2.3064  1.3734  1.1582
 5164SOL    HW219855   4.377   2.073   5.300  1.4152 -1.9910  1.0106
 5165SOL     OW19856   0.522   3.710   6.429  0.4683  0.2237  0.2189
 5165SOL    HW119857   0.604   3.663   6.439  0.4769  0.3737  0.9348
 5165SOL    HW219858   0.473   3.690   6.508  0.0555  0.6001  0.0644
 5166SOL     OW19859   9.896   8.673   3.336 -0.0406 -0.5060  0.3399
 5166SOL    HW119860   9.963   8.719   3.286  0.4811 -2.1488 -0.5513
 5166SOL    HW219861   9.842   8.630   3.270 -1.7086  0.3954  1.0673
 5167SOL     OW19862   4.102   6.359   7.862  0.5843 -0.1382 -0.1942
 5167SOL    HW119863   4.046   6.285   7.887 -0.0922  0.6015  0.5038
 5167SOL    HW219864   4.094   6.421   7.934 -0.9890  1.8224 -1.9288
 5168SOL     OW19865   3.783   0.695   4.314  0.0602  0.3278 -0.2482
 5168SOL    HW119866   3.744   0.782   4.320 -1.3167 -0.3335  1.2476
 5168SOL    HW219867   3.854   0.704   4.251 -1.6908  1.9397 -2.1191
 5169SOL     OW19868   8.597   5.635   6.610 -0.3028  0.9123  0.0674
 5169SOL    HW119869   8.582   5.545   6.581 -1.0874  1.3596 -0.9652
 5169SOL    HW219870   8.671   5.628   6.670 -1.0360 -0.5727  0.8711
 5170SOL     OW19871   6.589   5.052   0.125 -0.0304 -0.2198  0.1528
 5170SOL    HW119872   6.571   4.976   0.181 -0.4308  0.0050  0.3412
 5170SOL    HW219873   6.684   5.060   0.125 -0.0394  0.0202  1.1450
 5171SOL     OW19874   3.055   8.319  10.075 -0.5002 -0.1752  0.2184
 5171SOL    HW119875   3.005   8.256  10.128 -0.6882 -1.4623 -1.4253
 5171SOL    HW219876   2.999   8.397  10.073 -1.3139 -0.7383  0.4340
 5172SOL     OW19877   0.065   2.004   8.419  0.4978  0.1093  0.4216
 5172SOL    HW119878   0.038   2.074   8.480  0.5522  0.7744 -0.2999
 5172SOL    HW219879   0.102   1.936   8.476  1.4039  1.1041  1.0732
 5173SOL     OW19880   4.868   7.318   7.410 -0.3661 -0.2059  0.9657
 5173SOL    HW119881   4.955   7.295   7.378 -0.1085  1.3145  0.4809
 5173SOL    HW219882   4.808   7.278   7.347  0.0213 -0.4439  0.7469
 5174SOL     OW19883   1.414   6.284  10.089 -0.1237 -0.4396  0.7031
 5174SOL    HW119884   1.428   6.195  10.122  0.4553 -0.3387  0.7407
 5174SOL    HW219885   1.340   6.276  10.029  0.9631 -1.2849 -0.5954
 5175SOL     OW19886   5.882   6.518   4.766  0.5768  0.1018 -0.6220
 5175SOL    HW119887   5.864   6.528   4.859  2.3203 -0.0119 -0.2269
 5175SOL    HW219888   5.913   6.605   4.738  0.2866  0.0746 -1.0488
 5176SOL     OW19889   7.143   4.031  10.225 -0.3865 -0.1129 -0.1352
 5176SOL    HW119890   7.084   4.087  10.276  0.0584  0.8633 -0.6736
 5176SOL    HW219891   7.087   3.993  10.158 -0.6405 -0.1114  0.0725
 5177SOL     OW19892   4.782   9.084   6.486  0.6447  0.2269 -0.3020
 5177SOL    HW119893   4.736   9.062   6.567 -1.0365 -2.0131 -1.7363
 5177SOL    HW219894   4.714   9.122   6.430  1.1030 -0.6909 -1.5384
 5178SOL     OW19895   7.879   4.980   2.364 -0.2568  0.3863  0.4110
 5178SOL    HW119896   7.930   4.930   2.428 -0.6075  0.1208  0.4851
 5178SOL    HW219897   7.910   5.070   2.374 -1.7894  0.7692  2.4892
 5179SOL     OW19898   7.806   7.895   4.651 -0.1491 -0.6543 -0.0551
 5179SOL    HW119899   7.851   7.816   4.681 -0.7737 -1.3568 -0.8976
 5179SOL    HW219900   7.716   7.866   4.634 -0.8927  0.6790  1.4148
 5180SOL     OW19901   1.214   0.134  10.982 -0.2553  0.5223 -0.1090
 5180SOL    HW119902   1.276   0.064  10.962  0.8111  1.0300  1.2010
 5180SOL    HW219903   1.149   0.093  11.038  0.2358  0.4992  0.4623
 5181SOL     OW19904   0.791   3.456   7.357 -0.4054  0.1840 -0.0985
 5181SOL    HW119905   0.780   3.422   7.445 -0.5073 -0.5944 -0.4093
 5181SOL    HW219906   0.819   3.547   7.370 -0.7259  0.1707  0.7252
 5182SOL     OW19907   9.028   2.270   9.053  0.3370  0.6209 -0.1179
 5182SOL    HW119908   9.069   2.185   9.036 -0.2639  0.2699  0.1331
 5182SOL    HW219909   9.096   2.334   9.035  0.3057  0.1888 -1.9713
 5183SOL     OW19910   6.490   9.727   8.612  0.5768 -0.2972 -0.6273
 5183SOL    HW119911   6.535   9.645   8.595 -0.5089 -1.0992  0.2459
 5183SOL    HW219912   6.457   9.718   8.702 -0.5972  0.5923 -0.9415
 5184SOL     OW19913   4.696   5.546   1.565  0.9179  0.1454  0.3079
 5184SOL    HW119914   4.610   5.543   1.608  0.7226 -1.4409 -0.1117
 5184SOL    HW219915   4.699   5.632   1.523  0.1377  0.7834  1.5163
 5185SOL     OW19916   0.499   7.820   6.320 -0.7109 -0.2867  0.1897
 5185SOL    HW119917   0.515   7.771   6.240 -0.3792 -0.7635  0.5439
 5185SOL    HW219918   0.577   7.807   6.373 -0.1803  1.4646 -0.1126
 5186SOL     OW19919   1.710   9.981  10.134  0.0974  0.1872 -0.0391
 5186SOL    HW119920   1.671  10.068  10.126  1.3355  0.7427 -0.2367
 5186SOL    HW219921   1.745   9.962  10.047  0.9788  0.0682  0.3309
 5187SOL     OW19922  10.601   2.579   1.111 -0.4801  0.0331  0.2161
 5187SOL    HW119923  10.530   2.591   1.174 -1.7143  3.3888 -1.5339
 5187SOL    HW219924  10.558   2.586   1.025  1.5650 -1.0024 -0.9596
 5188SOL     OW19925   7.540   9.613   6.187  0.3035 -0.9056 -0.6110
 5188SOL    HW119926   7.454   9.627   6.227 -0.0665 -0.4885 -1.5315
 5188SOL    HW219927   7.563   9.523   6.211 -0.8882 -1.4055 -1.2678
 5189SOL     OW19928   1.262   4.425   7.847  0.3062  0.4812 -0.2085
 5189SOL    HW119929   1.252   4.413   7.753 -0.6458 -0.2065 -0.0343
 5189SOL    HW219930   1.242   4.517   7.862 -0.8040  0.3046 -0.5294
 5190SOL     OW19931   6.642   6.581   0.861 -0.7079 -0.0146 -0.3888
 5190SOL    HW119932   6.732   6.568   0.892 -1.6482 -1.8938  1.8379
 5190SOL    HW219933   6.629   6.511   0.797 -0.3327  0.8113 -1.3868
 5191SOL     OW19934   3.837   0.385   7.059 -0.4109 -0.0822 -0.5381
 5191SOL    HW119935   3.889   0.427   6.991 -0.6259 -0.5928 -1.0267
 5191SOL    HW219936   3.878   0.411   7.141 -0.3890  0.8609 -0.8412
 5192SOL     OW19937   0.102   9.261   5.457  0.5998 -0.3339  0.2207
 5192SOL    HW119938   0.029   9.277   5.517  1.2290 -0.0827  0.9362
 5192SOL    HW219939   0.076   9.303   5.375 -0.8539 -1.8121 -0.1272
 5193SOL     OW19940  10.685   4.340   3.395  0.3812 -0.5212 -0.6332
 5193SOL    HW119941  10.606   4.342   3.341  0.1788 -1.3519 -0.3941
 5193SOL    HW219942  10.756   4.366   3.336 -0.1096  0.6026 -0.7574
 5194SOL     OW19943   8.483  11.036   5.238 -0.1358  0.1369 -0.1403
 5194SOL    HW119944   8.392  11.010   5.255  0.4302 -1.1096  1.2865
 5194SOL    HW219945   8.477  11.102   5.170 -1.8548 -2.5862 -2.8864
 5195SOL     OW19946   0.044   1.098   6.033  0.6953 -0.6932 -0.2398
 5195SOL    HW119947   0.085   1.136   6.111  0.4484  0.8075 -0.8051
 5195SOL    HW219948   0.016   1.011   6.061  0.1697 -0.0139  1.5102
 5196SOL     OW19949   7.778   3.770   7.699 -0.0977 -0.1197  0.2569
 5196SOL    HW119950   7.780   3.683   7.659 -0.2273 -1.0090  2.1139
 5196SOL    HW219951   7.865   3.780   7.738 -0.1323  0.5325  0.1662
 5197SOL     OW19952   5.113   6.921   0.933 -0.3507  0.4451 -0.1835
 5197SOL    HW119953   5.079   6.927   1.022  0.6590  0.3296  0.2261
 5197SOL    HW219954   5.051   6.864   0.888  1.1936 -2.8665  1.5376
 5198SOL     OW19955   6.303   5.035   9.325  1.0404  1.2630  0.1214
 5198SOL    HW119956   6.244   5.094   9.279  0.4567  0.9296  0.4345
 5198SOL    HW219957   6.253   5.005   9.401  1.9406  1.7168  0.9112
 5199SOL     OW19958   6.498   2.751   0.061  0.8585  0.0129 -0.2753
 5199SOL    HW119959   6.508   2.704   0.143  1.3329 -0.8070 -0.7930
 5199SOL    HW219960   6.566   2.818   0.063  0.4874  0.3879  0.2507
 5200SOL     OW19961   7.322   9.291   5.093 -0.0128  0.9003 -0.2345
 5200SOL    HW119962   7.288   9.333   5.015 -2.1648  0.4753  0.3994
 5200SOL    HW219963   7.293   9.348   5.165  2.9422  1.9391  0.2605
 5201SOL     OW19964   9.379   6.976   3.958 -0.3043  0.3479 -0.0590
 5201SOL    HW119965   9.413   7.026   3.883 -1.7756  0.9917 -0.3312
 5201SOL    HW219966   9.433   7.004   4.032 -0.5313  1.7061 -0.3820
 5202SOL     OW19967   4.912  11.036  10.577 -0.2303 -0.1524  0.1144
 5202SOL    HW119968   4.944  11.050  10.488  2.6533 -0.8695  0.9293
 5202SOL    HW219969   4.827  11.080  10.580 -1.1083 -1.2992 -3.3608
 5203SOL     OW19970   2.747   0.891   7.785 -0.3779  0.4298  0.2625
 5203SOL    HW119971   2.788   0.976   7.800  0.4509  0.3100 -1.0869
 5203SOL    HW219972   2.722   0.893   7.692  0.9850 -1.3106 -0.2048
 5204SOL     OW19973   8.963   0.468   1.086 -0.0372 -0.3055 -0.2945
 5204SOL    HW119974   9.034   0.508   1.034  0.3668 -0.8151 -0.1466
 5204SOL    HW219975   9.007   0.431   1.162 -0.2430 -1.9561 -0.9512
 5205SOL     OW19976   5.462   5.762  11.066  0.2512 -0.0068  0.1141
 5205SOL    HW119977   5.458   5.720  10.980 -2.3788  1.1749 -0.4504
 5205SOL    HW219978   5.496   5.850  11.048 -0.9686  0.4827  0.1433
 5206SOL     OW19979   1.292   1.705   6.133  0.0437  0.2691  0.2646
 5206SOL    HW119980   1.283   1.772   6.201  0.5977 -1.9125  2.6478
 5206SOL    HW219981   1.223   1.641   6.153  1.3563 -1.3218 -0.0950
 5207SOL     OW19982   6.516   0.917   3.593  0.1940  0.7835 -0.5628
 5207SOL    HW119983   6.578   0.844   3.589  1.9180  2.2159 -1.3694
 5207SOL    HW219984   6.528   0.954   3.680 -2.9448 -1.6480  1.1193
 5208SOL     OW19985  10.571   0.132   6.219  0.0239  0.1842 -0.2789
 5208SOL    HW119986  10.627   0.123   6.142 -0.0873  0.5596 -0.4045
 5208SOL    HW219987  10.593   0.218   6.256 -0.1738  0.1579 -0.0947
 5209SOL     OW19988   0.463   1.055   4.754 -0.1881 -0.1533  0.3995
 5209SOL    HW119989   0.507   0.973   4.774 -2.0737 -1.6391 -1.0454
 5209SOL    HW219990   0.458   1.057   4.658  1.2019  2.4972  0.2690
 5210SOL     OW19991  10.535   0.797   4.665  0.3514 -0.4992 -0.4183
 5210SOL    HW119992  10.481   0.875   4.651 -0.1682 -0.6184  0.7761
 5210SOL    HW219993  10.609   0.808   4.605 -0.0238  0.6122 -0.7050
 5211SOL     OW19994   1.331   5.151   9.771  0.1805 -0.3673 -0.2785
 5211SOL    HW119995   1.355   5.168   9.680  0.1310 -0.8463 -0.3814
 5211SOL    HW219996   1.413   5.160   9.819 -0.0006  1.1076 -0.1873
 5212SOL     OW19997   6.798   3.018   2.559 -0.6485 -0.2958 -0.1153
 5212SOL    HW119998   6.706   2.994   2.554 -0.6673 -0.0655 -0.9414
 5212SOL    HW219999   6.834   2.996   2.473 -0.4440  1.6623 -0.5781
 5213SOL     OW20000   8.389   2.298   8.983  0.0425 -0.4084  0.2776
 5213SOL    HW120001   8.381   2.342   8.899 -0.4369  0.7248  0.9013
 5213SOL    HW220002   8.299   2.277   9.009  0.1645 -0.5515  0.6031
 5214SOL     OW20003  10.699   9.648   2.726  0.5095 -0.3695  0.4515
 5214SOL    HW120004  10.741   9.721   2.680  0.9419 -0.9666 -0.1246
 5214SOL    HW220005  10.695   9.676   2.817 -0.5777  0.9420  0.0286
 5215SOL     OW20006   8.368   6.056   7.447  0.4609 -0.1281 -0.3211
 5215SOL    HW120007   8.303   6.118   7.481  0.7614 -0.3909  0.7541
 5215SOL    HW220008   8.442   6.063   7.507  1.7269  0.6561 -1.8963
 5216SOL     OW20009   2.523   0.286   8.091 -0.1696  0.0114  0.1466
 5216SOL    HW120010   2.476   0.358   8.134 -0.7313 -0.1371 -0.1996
 5216SOL    HW220011   2.503   0.209   8.145  1.3511  0.2919  1.1691
 5217SOL     OW20012   4.637   0.322   6.805  0.0722 -0.0026  0.3027
 5217SOL    HW120013   4.675   0.242   6.840 -2.2685 -0.0842  3.0612
 5217SOL    HW220014   4.656   0.389   6.871 -1.4961  0.7083  0.1054
 5218SOL     OW20015   0.321   5.969   6.211 -0.3595 -0.3804  0.4483
 5218SOL    HW120016   0.272   5.992   6.291 -0.2923  0.3896  0.2726
 5218SOL    HW220017   0.346   5.878   6.225 -1.0177 -0.4986  0.9697
 5219SOL     OW20018   0.078   7.822   7.109  0.4643  0.2264 -0.0750
 5219SOL    HW120019   0.037   7.843   7.026  0.5779  1.5111  0.1724
 5219SOL    HW220020   0.025   7.751   7.145 -0.2770  0.4497 -0.7123
 5220SOL     OW20021   5.561   8.111   0.434 -0.3127  0.2141 -0.3199
 5220SOL    HW120022   5.564   8.133   0.341 -0.9428 -0.7304 -0.5767
 5220SOL    HW220023   5.606   8.183   0.477  0.2986  0.4911 -1.3887
 5221SOL     OW20024   9.963   4.088   4.045  0.2672  0.1790 -0.0192
 5221SOL    HW120025  10.000   4.158   3.992 -3.5137  1.9999 -0.5763
 5221SOL    HW220026   9.957   4.125   4.133 -1.0171  0.3563 -0.1511
 5222SOL     OW20027   9.886   2.930   1.417  0.2593 -0.0302  0.1218
 5222SOL    HW120028   9.817   2.896   1.474 -0.5597  0.6202 -0.4603
 5222SOL    HW220029   9.841   2.992   1.359  0.5224 -2.3059 -2.8129
 5223SOL     OW20030   2.796  10.911   5.205  0.1360 -0.3142 -0.0895
 5223SOL    HW120031   2.868  10.954   5.158 -0.9891  0.2000 -1.4444
 5223SOL    HW220032   2.727  10.977   5.207  0.0163 -0.4511  2.0607
 5224SOL     OW20033   0.466   9.500   5.011  0.1875 -0.7578 -0.2627
 5224SOL    HW120034   0.373   9.499   5.034  0.5501 -0.9720  1.2513
 5224SOL    HW220035   0.467   9.480   4.917 -1.3396  0.2182 -0.5264
 5225SOL     OW20036   8.984  10.247   1.244 -0.6548  0.4894  0.0912
 5225SOL    HW120037   8.936  10.184   1.190  0.9594 -0.7172 -0.0251
 5225SOL    HW220038   9.067  10.260   1.198 -0.7045  2.2690  0.4410
 5226SOL     OW20039   4.402   6.499   7.459  0.4290  0.2649  0.5174
 5226SOL    HW120040   4.388   6.517   7.552 -1.6221  0.3018  0.2528
 5226SOL    HW220041   4.417   6.585   7.420  2.3800  0.1610  0.9139
 5227SOL     OW20042   3.768   8.423  11.026 -0.0639  0.3151 -0.3144
 5227SOL    HW120043   3.747   8.516  11.026  0.6838  0.4964  0.2068
 5227SOL    HW220044   3.841   8.415  10.965  1.1115  0.3975  1.0092
 5228SOL     OW20045   5.598  10.756   7.187  0.0682 -0.2855 -0.0809
 5228SOL    HW120046   5.630  10.701   7.116  1.1877 -0.8097  0.8135
 5228SOL    HW220047   5.504  10.735   7.192  0.0019 -0.3663 -1.2689
 5229SOL     OW20048   6.111   2.081   7.947 -0.1055  0.2353  0.3706
 5229SOL    HW120049   6.148   2.103   7.861 -1.3164  0.5083 -0.1077
 5229SOL    HW220050   6.140   1.992   7.964  1.5926  0.7837  0.4881
 5230SOL     OW20051   1.891   3.668   1.746  0.0675 -0.4522 -0.0700
 5230SOL    HW120052   1.963   3.655   1.807 -0.5283  1.0379  1.0270
 5230SOL    HW220053   1.932   3.691   1.663  0.8722  1.1542  0.7386
 5231SOL     OW20054   0.009   0.610   8.084 -0.2387  0.1902  0.1057
 5231SOL    HW120055  -0.078   0.575   8.065 -0.0466 -0.1142 -0.2098
 5231SOL    HW220056   0.020   0.681   8.021  0.4497 -0.8999 -1.0291
 5232SOL     OW20057   5.855   2.210   4.844 -0.2001  0.4000  0.3050
 5232SOL    HW120058   5.890   2.217   4.755  1.5372 -0.6554  0.8443
 5232SOL    HW220059   5.781   2.149   4.836  0.7539 -0.7363 -0.2502
 5233SOL     OW20060   5.588   8.785   2.085 -0.4058 -0.0268  0.5883
 5233SOL    HW120061   5.627   8.717   2.141  0.0388  0.2825  0.6622
 5233SOL    HW220062   5.664   8.829   2.045 -0.6683  0.8526  1.0410
 5234SOL     OW20063  10.554   5.361   6.131  0.5811  0.2752  0.4097
 5234SOL    HW120064  10.589   5.446   6.106 -0.8357  0.7026 -0.2217
 5234SOL    HW220065  10.581   5.302   6.060 -0.0474  0.6323 -0.1418
 5235SOL     OW20066   0.048   4.152   3.266  0.1875  0.3433  0.6351
 5235SOL    HW120067   0.025   4.091   3.196  0.2412  0.4948  0.4848
 5235SOL    HW220068  -0.035   4.170   3.311  0.0780  0.5833  0.3384
 5236SOL     OW20069   2.810   8.001   5.307  0.1083  0.1087 -0.4924
 5236SOL    HW120070   2.782   8.091   5.291 -0.1598  0.3063  1.0057
 5236SOL    HW220071   2.902   8.000   5.280  0.0749  0.7854 -0.6538
 5237SOL     OW20072   7.054   1.880   3.843  0.3323 -0.0405  0.1950
 5237SOL    HW120073   7.136   1.857   3.799  0.3596 -1.1034  0.7526
 5237SOL    HW220074   7.027   1.962   3.803  1.4548  0.1105 -0.2921
 5238SOL     OW20075   0.559   4.080   7.496  0.4277 -0.0756 -0.5160
 5238SOL    HW120076   0.597   4.004   7.540 -0.6108 -0.0114  0.5341
 5238SOL    HW220077   0.627   4.147   7.501 -0.1149  0.3652  2.2326
 5239SOL     OW20078   5.799   9.219  10.029  0.1445  0.3832  0.1460
 5239SOL    HW120079   5.869   9.280  10.005  0.5225  0.5092  1.4798
 5239SOL    HW220080   5.718   9.262  10.000  0.6519 -0.4311 -2.7661
 5240SOL     OW20081   7.663   9.578   0.450  0.0916  0.1509  0.6479
 5240SOL    HW120082   7.619   9.599   0.367 -0.1039  1.6467  1.1013
 5240SOL    HW220083   7.743   9.630   0.448  2.8362 -3.6608 -0.8576
 5241SOL     OW20084   9.412   1.492   6.304  0.0832  0.2613  0.0725
 5241SOL    HW120085   9.326   1.513   6.339 -0.3494  0.1008 -0.8625
 5241SOL    HW220086   9.473   1.522   6.371 -0.6427  1.6741  0.1310
 5242SOL     OW20087   7.291   0.144   9.873  0.2975 -0.0139 -0.0174
 5242SOL    HW120088   7.324   0.196   9.800  2.5468 -1.8475 -0.4247
 5242SOL    HW220089   7.209   0.106   9.841  0.7807 -0.0562 -1.2447
 5243SOL     OW20090   9.252   9.193   6.186 -0.2728  0.0436  0.1366
 5243SOL    HW120091   9.294   9.270   6.147  0.8532 -0.1622  0.8887
 5243SOL    HW220092   9.305   9.119   6.156 -1.3022 -0.4554 -0.5232
 5244SOL     OW20093   3.645   7.294   7.082  0.7476  0.6689  0.7493
 5244SOL    HW120094   3.737   7.273   7.068  0.5896  0.7175 -0.4387
 5244SOL    HW220095   3.622   7.351   7.009 -0.7848 -1.0660 -0.1870
 5245SOL     OW20096  10.499  10.459   2.973 -0.0419 -0.1259 -0.4118
 5245SOL    HW120097  10.444  10.537   2.977  0.3568  0.1407 -0.0197
 5245SOL    HW220098  10.551  10.470   2.893  0.3139  0.2142 -0.1341
 5246SOL     OW20099   9.841   8.879   0.105 -0.3922 -0.6917 -0.4498
 5246SOL    HW120100   9.839   8.956   0.161 -1.8694 -1.8198  1.1319
 5246SOL    HW220101   9.775   8.896   0.037  1.7654  0.9065 -2.3258
 5247SOL     OW20102  10.157   5.491   2.752  0.1765 -0.1476 -0.5055
 5247SOL    HW120103  10.097   5.438   2.700  0.5064 -0.9941 -0.0349
 5247SOL    HW220104  10.232   5.434   2.768 -0.5580 -0.4995  2.2050
 5248SOL     OW20105   9.629  10.599   1.003  0.2575  0.4174 -0.3164
 5248SOL    HW120106   9.555  10.651   1.033  0.0191  1.1810 -2.0734
 5248SOL    HW220107   9.593  10.546   0.932  1.7940  2.5688 -2.9079
 5249SOL     OW20108  10.589   6.815   6.515  0.3214 -0.3397 -0.5184
 5249SOL    HW120109  10.621   6.743   6.569 -1.9610 -0.4925  0.7759
 5249SOL    HW220110  10.623   6.894   6.558  1.1148 -0.5572 -0.7286
 5250SOL     OW20111   9.219   7.123   4.359 -0.0864 -0.2155 -0.3438
 5250SOL    HW120112   9.231   7.046   4.304 -1.1019 -0.9970  0.4911
 5250SOL    HW220113   9.130   7.115   4.393 -0.2330  1.3612 -0.2773
 5251SOL     OW20114   7.583   8.965   2.421 -0.0092 -0.1769 -0.1044
 5251SOL    HW120115   7.505   9.017   2.403 -0.9233 -1.3607  0.3312
 5251SOL    HW220116   7.576   8.942   2.513  1.7863  1.1701  0.4295
 5252SOL     OW20117  10.986   7.595   4.458 -0.1850 -0.0349  0.2662
 5252SOL    HW120118  10.980   7.546   4.540 -0.0724 -0.4469  0.0273
 5252SOL    HW220119  10.980   7.529   4.390  0.4122  0.2349 -0.0525
 5253SOL     OW20120   7.145   1.310   5.507 -0.5821  0.1988  0.2429
 5253SOL    HW120121   7.190   1.277   5.430  0.8868 -0.7322  1.4450
 5253SOL    HW220122   7.171   1.402   5.514 -0.8742  0.3371 -0.4535
 5254SOL     OW20123   2.935   6.034   1.632  0.2425  0.6354  0.3938
 5254SOL    HW120124   2.900   6.077   1.555  1.5052 -1.3391 -1.4081
 5254SOL    HW220125   2.885   5.953   1.640  2.3096 -0.8496 -0.5299
 5255SOL     OW20126   6.029   0.945   5.369  0.0407 -0.0896 -0.6237
 5255SOL    HW120127   6.069   0.905   5.291  0.9836 -1.5634  0.5457
 5255SOL    HW220128   5.981   0.873   5.410  0.1959  0.4599  0.5536
 5256SOL     OW20129  10.397   7.633   6.156 -0.0185  0.0544  0.1252
 5256SOL    HW120130  10.367   7.550   6.118 -1.0494  0.8760 -0.8990
 5256SOL    HW220131  10.493   7.626   6.157  0.0317 -0.2326 -2.1266
 5257SOL     OW20132  10.609   3.461   6.602  0.3983  0.0355  0.6404
 5257SOL    HW120133  10.580   3.551   6.615  0.1410 -0.3217  2.8782
 5257SOL    HW220134  10.703   3.469   6.583 -0.1969  0.9138 -2.5128
 5258SOL     OW20135   8.034   1.333   6.855 -0.1616 -0.0757  0.2802
 5258SOL    HW120136   8.091   1.258   6.837  1.5618  1.4195 -0.7410
 5258SOL    HW220137   8.067   1.369   6.937 -0.8581 -0.2750  0.6573
 5259SOL     OW20138   0.780  10.422   9.276  0.2435 -0.3638  0.5029
 5259SOL    HW120139   0.787  10.435   9.371  1.9577 -1.3877  0.5634
 5259SOL    HW220140   0.817  10.335   9.261 -1.6307 -0.9976 -0.9401
 5260SOL     OW20141   1.809   7.611  10.662 -0.1262 -0.2227  0.5959
 5260SOL    HW120142   1.740   7.664  10.622 -1.9502 -2.3231  0.7406
 5260SOL    HW220143   1.790   7.614  10.756  1.0963  0.6227  0.8328
 5261SOL     OW20144   6.697   1.590   1.311 -0.2671  0.5753  0.7879
 5261SOL    HW120145   6.655   1.538   1.242 -1.5219  0.8881  1.3054
 5261SOL    HW220146   6.791   1.583   1.291 -0.5272 -0.3419 -0.2366
 5262SOL     OW20147  10.178   4.832   1.539  0.1656 -0.3810 -0.1369
 5262SOL    HW120148  10.138   4.779   1.471  2.3535 -0.3874 -1.4999
 5262SOL    HW220149  10.191   4.918   1.499  0.8058 -0.1548  0.5241
 5263SOL     OW20150   8.575   9.962   8.342  0.2143 -0.5219 -0.7069
 5263SOL    HW120151   8.516  10.036   8.325  0.1635 -0.0410  1.3901
 5263SOL    HW220152   8.568   9.908   8.263  0.3297  1.7363 -2.3525
 5264SOL     OW20153  11.046   7.743   0.445  0.2825 -0.5016  0.2781
 5264SOL    HW120154  11.016   7.690   0.371  0.3980 -1.6612  1.0249
 5264SOL    HW220155  10.992   7.821   0.443  0.8221 -0.1262 -1.5028
 5265SOL     OW20156   7.039   4.242   0.103  0.2501  0.3102  0.5610
 5265SOL    HW120157   7.123   4.234   0.148  0.4116  0.9408  0.3728
 5265SOL    HW220158   7.046   4.182   0.029  0.0252 -0.6520  1.2823
 5266SOL     OW20159   7.761   6.187   6.707  0.5039  0.7689  0.0166
 5266SOL    HW120160   7.730   6.125   6.640 -1.0345 -0.3008  1.6100
 5266SOL    HW220161   7.826   6.137   6.757  1.0301  1.2812 -0.1449
 5267SOL     OW20162   8.255   9.368   4.036 -0.5264  0.2926  0.2132
 5267SOL    HW120163   8.268   9.354   4.130 -2.2795 -0.4493  0.3849
 5267SOL    HW220164   8.300   9.294   3.995  0.2575  0.6258  0.4315
 5268SOL     OW20165  10.373   6.526   6.692 -0.0522  0.1151 -0.1198
 5268SOL    HW120166  10.417   6.455   6.645 -0.3341  0.3017 -0.6804
 5268SOL    HW220167  10.342   6.486   6.773  1.2922  0.0316  0.3656
 5269SOL     OW20168   2.704   5.505  10.748  0.1077 -0.0182  0.0462
 5269SOL    HW120169   2.627   5.516  10.804 -0.4988 -1.9504 -0.3334
 5269SOL    HW220170   2.767   5.570  10.781 -1.5996  1.5129  0.4655
 5270SOL     OW20171   4.681   3.888   8.533  0.2018  0.9116 -0.4518
 5270SOL    HW120172   4.735   3.963   8.559  0.4901  0.0743  1.5691
 5270SOL    HW220173   4.744   3.823   8.501  0.1129  0.9766 -0.7546
 5271SOL     OW20174   7.724   7.076   0.885  0.5139 -0.3121 -0.1400
 5271SOL    HW120175   7.777   7.119   0.818 -0.1726  0.7032 -0.0606
 5271SOL    HW220176   7.665   7.018   0.836  1.7579 -1.5676 -0.2180
 5272SOL     OW20177   6.443   6.210   7.061 -0.3621 -0.3029 -0.1640
 5272SOL    HW120178   6.445   6.305   7.054 -1.1814 -0.3469 -1.2224
 5272SOL    HW220179   6.469   6.192   7.152  1.4974  0.8204 -0.4352
 5273SOL     OW20180   6.621   8.196   3.091  0.1810 -0.4935  0.3666
 5273SOL    HW120181   6.689   8.189   3.024  0.8692  0.1617  0.9787
 5273SOL    HW220182   6.542   8.162   3.048  0.0791  1.8313 -1.5471
 5274SOL     OW20183   2.333   1.522   4.278 -0.2301  0.2847  0.3280
 5274SOL    HW120184   2.308   1.441   4.233 -0.7217  0.2788  0.6046
 5274SOL    HW220185   2.310   1.592   4.216 -0.8308  0.2721  0.5323
 5275SOL     OW20186   4.112   2.969   1.942  0.1051 -0.8002  0.3022
 5275SOL    HW120187   4.159   2.990   2.023  0.0025  0.1866  0.1133
 5275SOL    HW220188   4.031   2.927   1.971 -1.4535  2.3553  0.9214
 5276SOL     OW20189   4.278   3.808   6.600  0.0717  1.3125 -0.0086
 5276SOL    HW120190   4.315   3.856   6.526 -1.2845  1.7875 -0.3948
 5276SOL    HW220191   4.252   3.723   6.563  0.0268  1.2847  0.0850
 5277SOL     OW20192   5.157   2.764   7.757 -0.2132  0.2985 -0.5164
 5277SOL    HW120193   5.063   2.754   7.770 -0.7913  0.8385 -3.4823
 5277SOL    HW220194   5.194   2.677   7.775 -1.3291 -0.0575  0.1203
 5278SOL     OW20195   5.076   9.999   8.280 -0.2436 -0.7567  0.1338
 5278SOL    HW120196   5.147  10.054   8.314 -1.1570  0.8153 -0.3556
 5278SOL    HW220197   5.101   9.980   8.190 -1.0847  1.0951 -0.5505
 5279SOL     OW20198  10.473   6.004   1.506  0.1668 -0.3847 -0.0646
 5279SOL    HW120199  10.459   6.089   1.464 -1.8060  0.1313  1.4956
 5279SOL    HW220200  10.471   5.941   1.434  0.3738  0.7539 -1.1080
 5280SOL     OW20201   0.718   0.678   5.881  0.6763  0.0713 -0.4590
 5280SOL    HW120202   0.709   0.731   5.960  1.0584 -1.0634  0.3585
 5280SOL    HW220203   0.776   0.607   5.906 -0.2219 -1.0202 -1.3939
 5281SOL     OW20204   8.061   4.554   7.932 -0.0505  0.4471  0.6085
 5281SOL    HW120205   8.018   4.638   7.920  1.6535  1.1992 -0.6177
 5281SOL    HW220206   8.026   4.498   7.863  1.4044  1.2898 -0.8781
 5282SOL     OW20207   7.363   5.510   3.710 -0.1107  0.3348 -0.1595
 5282SOL    HW120208   7.341   5.450   3.780 -0.7628  0.3315 -0.3587
 5282SOL    HW220209   7.457   5.524   3.718  0.6305 -2.8029 -1.7131
 5283SOL     OW20210   2.298   7.771  10.950  0.1047 -0.8194 -0.0155
 5283SOL    HW120211   2.371   7.722  10.913  0.3326  1.5592 -3.1111
 5283SOL    HW220212   2.272   7.833  10.881 -2.9987  0.4009  1.9890
 5284SOL     OW20213   1.874   0.125  10.761 -0.3139  0.1290 -0.1694
 5284SOL    HW120214   1.952   0.149  10.712  0.3562  0.8406  1.1907
 5284SOL    HW220215   1.801   0.156  10.707  0.4494  3.3574  0.4355
 5285SOL     OW20216   1.081   4.945   7.759  0.1790 -0.3550  0.2516
 5285SOL    HW120217   1.031   5.024   7.780  0.5131 -0.0162 -0.1957
 5285SOL    HW220218   1.016   4.876   7.752  0.0607 -0.5525  2.6477
 5286SOL     OW20219   5.063   2.793   5.006 -0.3653 -0.5363 -0.1288
 5286SOL    HW120220   5.058   2.887   5.022 -1.9214 -0.5720 -0.2540
 5286SOL    HW220221   5.137   2.782   4.947  1.0824  0.3713  1.4379
 5287SOL     OW20222   7.563   3.532   3.071  0.6462  0.3650  0.3998
 5287SOL    HW120223   7.644   3.483   3.057 -0.2702 -1.3554  0.7831
 5287SOL    HW220224   7.567   3.559   3.163  0.2924 -0.7170  0.7463
 5288SOL     OW20225   4.422   1.004   5.915  0.3358 -0.0051  0.1897
 5288SOL    HW120226   4.457   0.962   5.994 -0.8264 -1.1243  0.1544
 5288SOL    HW220227   4.496   1.050   5.876  1.6235 -1.8344  0.3744
 5289SOL     OW20228  11.055   4.576   5.883 -0.3064 -0.5260 -0.0526
 5289SOL    HW120229  10.995   4.587   5.809  0.6877  1.6721 -0.6073
 5289SOL    HW220230  11.047   4.658   5.932  2.0339 -0.2716 -0.0141
 5290SOL     OW20231   0.516   7.284   6.783 -0.0995 -0.2484  0.5886
 5290SOL    HW120232   0.518   7.327   6.868  1.6821 -2.0216  1.5394
 5290SOL    HW220233   0.598   7.311   6.741 -0.3622 -0.4001 -0.0321
 5291SOL     OW20234   6.264  10.271   4.428 -0.1934  0.7828  0.5885
 5291SOL    HW120235   6.292  10.314   4.347  0.3048  2.2638  1.5146
 5291SOL    HW220236   6.176  10.239   4.409  0.2131  0.4062 -0.7766
 5292SOL     OW20237  10.555   1.325   7.249  0.5967 -1.0398 -0.5607
 5292SOL    HW120238  10.517   1.307   7.335 -0.4534 -2.3459 -1.2555
 5292SOL    HW220239  10.502   1.273   7.188 -0.7319  2.1737 -2.4169
 5293SOL     OW20240  11.066   9.386   5.265  0.0953  0.8242  0.2754
 5293SOL    HW120241  10.972   9.394   5.278 -0.3766 -1.7910 -1.0345
 5293SOL    HW220242  11.076   9.357   5.175  2.0891 -0.0383  0.7259
 5294SOL     OW20243   6.854  10.223   3.890  0.3310 -0.0956  0.1377
 5294SOL    HW120244   6.782  10.235   3.952 -0.1311  0.9850 -0.5857
 5294SOL    HW220245   6.933  10.236   3.943 -0.0589  0.9303  0.4882
 5295SOL     OW20246   7.791   4.631   2.540  0.1947  0.0562  0.9045
 5295SOL    HW120247   7.850   4.672   2.604 -0.8798  2.0894  0.6564
 5295SOL    HW220248   7.720   4.694   2.529 -1.1469 -1.5723 -0.1139
 5296SOL     OW20249   1.226   1.606   2.395 -0.2232  0.0194  0.5687
 5296SOL    HW120250   1.235   1.513   2.412  1.5329 -0.0794 -0.5518
 5296SOL    HW220251   1.302   1.645   2.439  0.5393  0.5502 -1.1140
 5297SOL     OW20252   3.287   6.600   3.527  0.7951  0.3215 -0.1747
 5297SOL    HW120253   3.329   6.670   3.476  0.1569  0.9539  0.1566
 5297SOL    HW220254   3.277   6.528   3.465  0.6884  0.8276 -0.7544
 5298SOL     OW20255   7.550   2.719   4.509 -0.1636 -0.0072  0.1118
 5298SOL    HW120256   7.597   2.678   4.436  0.9191 -0.1657  0.8824
 5298SOL    HW220257   7.489   2.651   4.538 -0.4854 -0.0045 -0.5238
 5299SOL     OW20258   6.773   4.353   4.540 -0.3299  0.1964  0.3646
 5299SOL    HW120259   6.804   4.268   4.570  2.2956  1.0964  0.4152
 5299SOL    HW220260   6.801   4.414   4.608  0.4315  1.4783 -1.0615
 5300SOL     OW20261   6.955   8.555   3.912 -0.1147  0.2565 -0.1846
 5300SOL    HW120262   6.961   8.474   3.962  1.2195 -0.3820 -1.2938
 5300SOL    HW220263   7.027   8.609   3.946  0.0269  0.3090 -0.5617
 5301SOL     OW20264   8.473   6.520   5.254  0.5457  0.0486 -0.4466
 5301SOL    HW120265   8.461   6.427   5.231  0.2832  0.5014 -2.3746
 5301SOL    HW220266   8.565   6.537   5.236  1.2536 -0.4090  2.3750
 5302SOL     OW20267   1.381   9.449   2.406  0.9820  0.1318  0.0223
 5302SOL    HW120268   1.288   9.429   2.413  0.6773  0.9847 -1.3023
 5302SOL    HW220269   1.389   9.539   2.437  1.2979  0.2152 -0.2911
 5303SOL     OW20270   0.538  11.005   4.032  0.4868  0.3425  0.3124
 5303SOL    HW120271   0.514  11.092   4.064  1.1113 -0.0337  1.8960
 5303SOL    HW220272   0.634  11.009   4.023  0.5655 -0.3145  0.8242
 5304SOL     OW20273   4.093   6.275   5.618  0.3521 -0.1824  0.0057
 5304SOL    HW120274   4.186   6.269   5.598  0.5998  0.5492  0.9162
 5304SOL    HW220275   4.074   6.194   5.666  0.3203 -0.7145 -0.8685
 5305SOL     OW20276   1.646   3.392   5.855  0.0906  0.2745  0.0322
 5305SOL    HW120277   1.678   3.363   5.770 -0.6598 -0.5726  0.0115
 5305SOL    HW220278   1.662   3.318   5.914 -0.6423  0.3166  0.3035
 5306SOL     OW20279   6.811   8.313   8.790  0.5116  0.0179 -0.2455
 5306SOL    HW120280   6.858   8.395   8.774  1.7171 -0.5156  0.3961
 5306SOL    HW220281   6.805   8.271   8.705  0.0696  0.6685 -0.5437
 5307SOL     OW20282   1.947   9.606  10.232 -0.1783  0.1120 -0.0366
 5307SOL    HW120283   1.891   9.552  10.287  0.7510 -1.9526 -0.9955
 5307SOL    HW220284   1.960   9.687  10.282 -0.9612 -0.8748  1.8324
 5308SOL     OW20285  10.151   1.401   5.680  0.4674 -0.3451  0.2554
 5308SOL    HW120286  10.183   1.444   5.759  1.2767 -0.1527 -0.1658
 5308SOL    HW220287  10.065   1.441   5.664  0.4712 -0.1061  0.8157
 5309SOL     OW20288   9.556   1.836   3.463 -0.5122  0.3884  0.7582
 5309SOL    HW120289   9.479   1.856   3.409  0.6543  2.1329 -0.3835
 5309SOL    HW220290   9.611   1.914   3.456  1.1615 -0.6109  1.9175
 5310SOL     OW20291   5.249   8.362   2.496 -0.7571  0.1594  0.0443
 5310SOL    HW120292   5.200   8.326   2.423 -0.1827 -0.5195 -0.0122
 5310SOL    HW220293   5.314   8.420   2.456  1.2960 -2.1801 -0.2307
 5311SOL     OW20294   1.765   6.115   7.732 -0.2788  0.0859  0.1807
 5311SOL    HW120295   1.675   6.107   7.764 -0.4687 -0.6032 -0.4938
 5311SOL    HW220296   1.756   6.130   7.638  0.3116 -0.5721  0.0045
 5312SOL     OW20297   6.986   3.490   4.003 -0.3294 -0.0846 -0.2294
 5312SOL    HW120298   6.970   3.463   3.912  1.7181  0.8931 -0.9450
 5312SOL    HW220299   7.059   3.435   4.032 -0.1417  0.4649  0.3744
 5313SOL     OW20300   1.594   7.458   6.567 -0.1642 -0.3850 -0.6604
 5313SOL    HW120301   1.605   7.523   6.498  0.4829  1.7362  1.3100
 5313SOL    HW220302   1.680   7.419   6.579  0.0081  0.1084 -0.2689
 5314SOL     OW20303   6.140   4.675   9.510  0.3721  0.3285 -0.1338
 5314SOL    HW120304   6.205   4.644   9.447  0.7090  1.0967 -0.1677
 5314SOL    HW220305   6.157   4.768   9.519  1.1638  0.0362  2.0456
 5315SOL     OW20306   7.098   0.982  10.966  0.0073 -0.3368  0.2308
 5315SOL    HW120307   7.135   0.916  10.907  0.8186 -1.4131  1.8745
 5315SOL    HW220308   7.169   1.045  10.979  0.6449 -1.3109  1.7738
 5316SOL     OW20309   8.687  10.994   5.397  0.5023 -0.0513 -0.5035
 5316SOL    HW120310   8.753  11.028   5.338  0.5523 -0.3512 -0.6240
 5316SOL    HW220311   8.605  11.001   5.348  0.7737 -1.9923 -1.3618
 5317SOL     OW20312   0.144   2.084  10.490 -0.4956  0.2021 -0.2867
 5317SOL    HW120313   0.224   2.090  10.438  0.1875 -1.1176  0.5375
 5317SOL    HW220314   0.094   2.163  10.468  0.7038  0.6948 -1.3487
 5318SOL     OW20315   6.738   2.977  10.375 -0.2892  0.1264  0.5826
 5318SOL    HW120316   6.693   3.024  10.304  0.5390 -0.4275 -0.3241
 5318SOL    HW220317   6.830   2.979  10.351 -0.0849 -0.7815  1.2331
 5319SOL     OW20318   7.219  10.847   3.840 -0.2898  0.2075 -0.0471
 5319SOL    HW120319   7.245  10.894   3.920 -0.9413  1.1727 -0.3804
 5319SOL    HW220320   7.301  10.815   3.803 -0.1134 -2.0065  2.0374
 5320SOL     OW20321   2.743   6.839   8.204  0.1203 -0.2858  0.7441
 5320SOL    HW120322   2.701   6.754   8.221  2.3899 -1.5839  0.2350
 5320SOL    HW220323   2.713   6.863   8.116 -0.2766 -0.7110  0.7600
 5321SOL     OW20324   8.705   7.205   9.998  0.5209 -0.2871  0.3273
 5321SOL    HW120325   8.653   7.124   9.998  0.0566 -0.0554 -2.0710
 5321SOL    HW220326   8.648   7.270  10.039  0.2423 -0.7927  0.7514
 5322SOL     OW20327   3.648   7.817  10.206  0.6774  0.1023  0.5495
 5322SOL    HW120328   3.655   7.750  10.274 -1.3807  1.0460  1.7967
 5322SOL    HW220329   3.593   7.885  10.245  0.0103  1.0259 -1.8102
 5323SOL     OW20330  11.004   2.158   9.835  0.2832  0.0614  0.6191
 5323SOL    HW120331  10.983   2.109   9.915 -0.8788 -0.1772  0.1951
 5323SOL    HW220332  11.097   2.142   9.820  0.6356  0.4763  2.1619
 5324SOL     OW20333   6.387   3.316   1.125 -0.5276 -0.4499  1.0852
 5324SOL    HW120334   6.300   3.316   1.164 -1.3937 -0.9536 -0.7346
 5324SOL    HW220335   6.371   3.318   1.030  1.4311 -0.6910  0.7061
 5325SOL     OW20336   9.479   3.361   3.891  0.6349  0.2565  0.1833
 5325SOL    HW120337   9.548   3.397   3.836  0.9085  0.5622  0.7134
 5325SOL    HW220338   9.508   3.272   3.912  0.6033  0.1940 -0.0436
 5326SOL     OW20339   0.705   7.628   8.739  0.3680  0.2802  0.1696
 5326SOL    HW120340   0.790   7.598   8.707  1.3600  1.2364  1.7941
 5326SOL    HW220341   0.709   7.723   8.732 -0.2410  0.3766  1.0001
 5327SOL     OW20342   1.497   0.562  10.284  0.0065 -0.3877 -0.5830
 5327SOL    HW120343   1.477   0.486  10.337 -0.9054 -1.0429 -1.8100
 5327SOL    HW220344   1.592   0.572  10.289  0.2204 -2.0457 -0.9801
 5328SOL     OW20345   7.433   0.733   3.680 -0.1355  0.0860 -0.0970
 5328SOL    HW120346   7.492   0.701   3.749  1.4209  0.9281 -0.9806
 5328SOL    HW220347   7.454   0.678   3.604  0.0081  0.8400 -0.6125
 5329SOL     OW20348   7.943   0.114   7.650  0.0051 -0.7330  0.0849
 5329SOL    HW120349   8.006   0.086   7.584 -0.8032  0.1234 -1.0893
 5329SOL    HW220350   7.953   0.051   7.722  1.1470 -1.4699 -0.6981
 5330SOL     OW20351  10.052   7.627   2.431  0.0415  0.5721  0.0914
 5330SOL    HW120352  10.090   7.631   2.519 -2.2340 -0.0996  1.1810
 5330SOL    HW220353  10.003   7.545   2.430 -0.6050  0.9424 -1.5408
 5331SOL     OW20354   1.890   4.480   5.273  0.3802 -0.2946 -0.3345
 5331SOL    HW120355   1.881   4.387   5.295 -0.2372  0.2127  1.8040
 5331SOL    HW220356   1.968   4.509   5.320  0.1684  0.4245 -0.4045
 5332SOL     OW20357   5.397   9.993   8.572  0.2808  0.2419  0.2989
 5332SOL    HW120358   5.360   9.980   8.659  0.3790  0.1233  0.3229
 5332SOL    HW220359   5.345  10.064   8.534 -1.7829 -1.7227 -0.7127
 5333SOL     OW20360   7.143   3.493   3.163  0.2932 -0.3124 -0.4052
 5333SOL    HW120361   7.053   3.460   3.164  0.3847 -0.5989  0.8787
 5333SOL    HW220362   7.165   3.503   3.256  1.0959  1.1127 -0.7240
 5334SOL     OW20363   1.198   4.997   1.305 -0.6269 -0.8293 -0.2096
 5334SOL    HW120364   1.234   4.909   1.296  1.1149 -0.1649 -0.2625
 5334SOL    HW220365   1.262   5.043   1.360 -2.3932 -0.0701  1.3254
 5335SOL     OW20366   1.033   2.463   8.454  0.2232  0.1740  0.0489
 5335SOL    HW120367   0.985   2.452   8.536  0.5815 -0.8058  0.1443
 5335SOL    HW220368   1.114   2.508   8.479 -0.4804  1.5420 -0.0645
 5336SOL     OW20369  10.954   5.190   3.513 -0.0563  0.4289  0.3512
 5336SOL    HW120370  11.046   5.205   3.489  0.8836 -3.2749  1.1039
 5336SOL    HW220371  10.908   5.190   3.429  1.0289  0.1292 -0.2718
 5337SOL     OW20372   9.715   2.341  10.896 -0.6126  0.3598 -0.5333
 5337SOL    HW120373   9.659   2.355  10.972  1.5459  1.1922  0.9886
 5337SOL    HW220374   9.704   2.248  10.875 -0.7787 -0.0465  1.1985
 5338SOL     OW20375   4.862   4.876  10.758 -0.2378 -0.4050 -0.5664
 5338SOL    HW120376   4.934   4.933  10.786 -1.2867  1.4880 -1.4840
 5338SOL    HW220377   4.789   4.900  10.816 -0.4338 -1.5704 -0.3079
 5339SOL     OW20378   5.167   3.160   7.473 -0.2379  0.3982  0.0382
 5339SOL    HW120379   5.246   3.212   7.490 -0.1290  0.3360 -0.2562
 5339SOL    HW220380   5.104   3.222   7.437  0.3415  0.0994 -1.5830
 5340SOL     OW20381   6.203   8.263   0.248 -0.2474  0.2378  0.0036
 5340SOL    HW120382   6.111   8.291   0.255 -0.7326 -0.9533 -1.1366
 5340SOL    HW220383   6.233   8.256   0.338 -1.3380  0.4558  0.3979
 5341SOL     OW20384  10.381   9.275   7.585 -0.4262 -0.0771 -0.2088
 5341SOL    HW120385  10.406   9.209   7.520 -0.9949 -0.1549 -0.3576
 5341SOL    HW220386  10.344   9.224   7.658 -0.0459  0.0263  0.0589
 5342SOL     OW20387   1.234  10.539   9.898  0.5992 -0.4619  0.0705
 5342SOL    HW120388   1.227  10.566   9.806 -0.9096 -1.1101 -0.0172
 5342SOL    HW220389   1.231  10.622   9.947 -1.9097 -0.2662 -0.3138
 5343SOL     OW20390   5.121   3.779   1.772  0.0781 -0.1620  0.0369
 5343SOL    HW120391   5.143   3.795   1.680 -0.0315  2.8662  0.4558
 5343SOL    HW220392   5.043   3.832   1.788 -0.4418 -1.3438  1.6779
 5344SOL     OW20393   5.487   7.478   1.734  0.0319 -0.1688 -0.2715
 5344SOL    HW120394   5.564   7.424   1.716  0.7945 -0.0142  2.2116
 5344SOL    HW220395   5.415   7.434   1.689  1.3522 -0.9316 -1.7173
 5345SOL     OW20396   6.371   2.625   0.772  0.5572 -0.2004 -0.5665
 5345SOL    HW120397   6.463   2.612   0.792  0.5283  0.9016  0.3702
 5345SOL    HW220398   6.340   2.687   0.838 -0.4980  0.5479 -1.7058
 5346SOL     OW20399   3.946  10.042   7.304 -0.0156 -0.3556 -0.1125
 5346SOL    HW120400   3.964  10.057   7.396 -0.0028 -0.6182 -0.0717
 5346SOL    HW220401   3.923   9.950   7.298  0.8264 -0.5614 -0.4919
 5347SOL     OW20402   2.012   7.018   0.000  0.0665 -0.4149  0.2565
 5347SOL    HW120403   1.939   6.960   0.021 -0.9037  0.7088  0.1028
 5347SOL    HW220404   2.056   7.032   0.084 -1.6056  1.1339  0.9557
 5348SOL     OW20405   7.905   3.222   6.992  0.2919  0.3578  0.3295
 5348SOL    HW120406   7.956   3.154   7.034  1.2231 -0.9249 -2.6147
 5348SOL    HW220407   7.820   3.181   6.975  0.5290  0.2022 -0.5688
 5349SOL     OW20408   8.359   8.077   9.229 -0.8159  0.5285  0.6431
 5349SOL    HW120409   8.338   8.022   9.305 -0.0988  0.2010  0.6080
 5349SOL    HW220410   8.417   8.023   9.176  0.1858  1.4409  0.7777
 5350SOL     OW20411   3.799   3.791   6.643 -1.1515  0.5078 -0.2280
 5350SOL    HW120412   3.708   3.822   6.636 -0.6499  1.6371 -2.3654
 5350SOL    HW220413   3.843   3.857   6.696 -0.9340  1.5071 -1.6353
 5351SOL     OW20414   2.686   5.497   7.744  0.3241  0.6210 -0.0518
 5351SOL    HW120415   2.701   5.541   7.828  0.0983  1.7213 -0.5661
 5351SOL    HW220416   2.757   5.433   7.738  0.9184  1.2061  0.5386
 5352SOL     OW20417   1.706   9.674   0.512  0.0123  0.0604 -0.0687
 5352SOL    HW120418   1.653   9.737   0.560 -0.0506  0.0909 -0.1775
 5352SOL    HW220419   1.794   9.709   0.514  0.1766 -0.3755  0.7845
 5353SOL     OW20420   8.830   0.764   5.829  0.9018 -0.1195 -0.1533
 5353SOL    HW120421   8.789   0.838   5.785  1.4038  0.5498  0.4762
 5353SOL    HW220422   8.785   0.758   5.913  0.6014 -0.7811 -0.3568
 5354SOL     OW20423   6.606   8.510   4.289 -0.1425 -0.6360  0.0051
 5354SOL    HW120424   6.628   8.556   4.208  0.7334 -1.0508 -0.0042
 5354SOL    HW220425   6.611   8.577   4.357  2.1530 -0.8582  0.1495
 5355SOL     OW20426   7.094   4.833   1.504  0.2939  0.0573  0.0413
 5355SOL    HW120427   7.005   4.803   1.520 -0.3221  1.1582 -1.1186
 5355SOL    HW220428   7.102   4.913   1.556  0.9349 -0.5107  0.8471
 5356SOL     OW20429   3.527   3.910   7.546 -0.5494  0.1152  0.4798
 5356SOL    HW120430   3.570   3.976   7.599 -1.1745  0.4821  0.5367
 5356SOL    HW220431   3.434   3.934   7.548 -0.7332 -0.5550  0.2078
 5357SOL     OW20432   9.505   7.082   9.684 -0.1081 -0.0240 -0.0048
 5357SOL    HW120433   9.535   7.040   9.765 -0.6308  0.0328  0.2270
 5357SOL    HW220434   9.539   7.027   9.614 -0.0418 -0.3355  0.2672
 5358SOL     OW20435   8.559   4.747   7.573  0.0673 -0.3712  0.2663
 5358SOL    HW120436   8.643   4.707   7.550  0.2590 -0.6087  1.3282
 5358SOL    HW220437   8.554   4.740   7.668 -1.5196 -1.0734  0.1577
 5359SOL     OW20438   8.473   1.571   0.261  0.0634 -0.8323  0.2589
 5359SOL    HW120439   8.440   1.655   0.229  1.2741  0.1468  1.4512
 5359SOL    HW220440   8.439   1.565   0.350 -0.1809 -1.7227  0.1136
 5360SOL     OW20441   0.372   7.823   9.252 -0.5372  0.0971  0.2952
 5360SOL    HW120442   0.426   7.774   9.190  1.2326  2.1715  0.0755
 5360SOL    HW220443   0.290   7.839   9.206  0.1178  0.1885 -0.8744
 5361SOL     OW20444   3.185   0.563   0.632  0.0587  0.4151 -0.1829
 5361SOL    HW120445   3.120   0.514   0.581 -1.8843 -0.2121  2.6405
 5361SOL    HW220446   3.212   0.502   0.701  1.6221  1.6062  0.3114
 5362SOL     OW20447   9.238   9.110   1.073  0.0074 -0.2630 -0.3222
 5362SOL    HW120448   9.251   9.160   1.154 -0.5992  0.6114 -0.7546
 5362SOL    HW220449   9.289   9.030   1.087  1.2776  0.6046  0.2483
 5363SOL     OW20450   7.690   8.999   8.428 -0.6950 -0.2117  0.0354
 5363SOL    HW120451   7.702   9.089   8.459 -0.5908 -1.1476  3.0043
 5363SOL    HW220452   7.776   8.974   8.394 -0.4292  0.4613  0.2033
 5364SOL     OW20453  10.925   1.144   4.676 -0.0155 -0.4380 -0.2499
 5364SOL    HW120454  10.977   1.150   4.756 -0.0664 -0.9659 -0.1735
 5364SOL    HW220455  10.882   1.229   4.669 -0.3658 -0.5439  0.5342
 5365SOL     OW20456   6.724   6.664   4.460  0.1249 -0.0353  0.3017
 5365SOL    HW120457   6.661   6.595   4.478 -0.8557  0.7024 -0.2237
 5365SOL    HW220458   6.718   6.723   4.534 -0.9624  0.8607 -0.4752
 5366SOL     OW20459   0.573   9.053   3.494 -0.1768  0.1182  0.2331
 5366SOL    HW120460   0.551   9.097   3.412 -0.2309 -1.1021 -0.4297
 5366SOL    HW220461   0.505   9.080   3.555 -1.1383 -0.3053 -0.6212
 5367SOL     OW20462   7.014  10.524  10.541  0.0844 -0.2274  0.1632
 5367SOL    HW120463   6.954  10.564  10.603  0.0673  0.3124 -0.1952
 5367SOL    HW220464   7.023  10.588  10.471 -0.6719 -1.2147 -0.8907
 5368SOL     OW20465   1.892   7.166   9.784  0.0878  0.1701 -0.4580
 5368SOL    HW120466   1.921   7.075   9.778 -0.0943  0.0787  0.0333
 5368SOL    HW220467   1.933   7.200   9.863 -2.2993 -0.4169  1.1506
 5369SOL     OW20468   7.029   9.069   9.923  0.0103 -0.3683  0.1810
 5369SOL    HW120469   6.946   9.028   9.946  0.2558 -0.4671  0.8956
 5369SOL    HW220470   7.080   9.069  10.004  0.4462  0.3127 -0.0826
 5370SOL     OW20471   3.202   7.357   2.417  0.2990 -0.3480  0.4647
 5370SOL    HW120472   3.141   7.362   2.491 -1.2284 -0.7210 -0.7172
 5370SOL    HW220473   3.233   7.447   2.405 -4.1674  1.1718 -2.1669
 5371SOL     OW20474   9.885   5.897   0.634 -0.5407 -0.2787  0.3830
 5371SOL    HW120475   9.955   5.876   0.572  0.1893 -0.3201  1.2172
 5371SOL    HW220476   9.811   5.920   0.578  0.7828  2.0542 -0.5806
 5372SOL     OW20477   8.237   8.971   0.065  0.4933 -0.1726  0.2499
 5372SOL    HW120478   8.148   8.968   0.099 -0.2908  0.5607 -1.6186
 5372SOL    HW220479   8.284   9.029   0.126 -0.5801  0.2768  0.6673
 5373SOL     OW20480   8.908   4.500   3.820  0.1929  0.2173 -0.0128
 5373SOL    HW120481   8.961   4.573   3.850  0.6173  0.1672 -0.6220
 5373SOL    HW220482   8.863   4.468   3.898 -0.5677  1.5941  0.1320
 5374SOL     OW20483   3.038   5.752   3.504  0.0907  0.0688  0.1055
 5374SOL    HW120484   3.028   5.796   3.588  1.6042 -1.3801  1.1284
 5374SOL    HW220485   2.966   5.689   3.502  0.4647 -0.4004  0.7018
 5375SOL     OW20486   8.889   8.282   5.970  0.1492  0.6199  0.1574
 5375SOL    HW120487   8.872   8.189   5.952 -0.9238  0.7874  0.2599
 5375SOL    HW220488   8.984   8.286   5.983  0.3255 -0.3177 -0.6776
 5376SOL     OW20489   5.064   7.886   9.999 -0.3127  0.0691 -0.3577
 5376SOL    HW120490   5.003   7.814  10.018 -1.8995  1.1934 -1.0561
 5376SOL    HW220491   5.012   7.951   9.954  1.0845  1.7116  0.2805
 5377SOL     OW20492   7.093   3.149   5.329 -0.2642 -0.2553  0.1630
 5377SOL    HW120493   7.014   3.186   5.368 -0.3887  0.0059 -0.3249
 5377SOL    HW220494   7.133   3.222   5.282 -0.2011 -0.5978 -0.3221
 5378SOL     OW20495   4.886   1.672   2.074  0.0335  0.7948  0.1704
 5378SOL    HW120496   4.946   1.628   2.135 -1.4091 -0.3913  0.7802
 5378SOL    HW220497   4.854   1.749   2.122 -1.7474 -0.5864  1.3119
 5379SOL     OW20498  10.904  11.061   5.335 -0.8006  0.6105  0.3844
 5379SOL    HW120499  10.881  11.142   5.291  0.0368  1.3627  1.2773
 5379SOL    HW220500  10.915  11.086   5.427 -0.3902 -0.4820  0.6494
 5380SOL     OW20501   9.836   2.244   0.492 -0.2947  0.2428 -0.0946
 5380SOL    HW120502   9.875   2.290   0.567 -1.3179  0.0238  0.5951
 5380SOL    HW220503   9.803   2.314   0.436  1.1794  0.4381 -0.7656
 5381SOL     OW20504   6.980   2.541  10.977 -0.0404  0.1869 -0.5890
 5381SOL    HW120505   6.982   2.584  10.891  0.6011 -0.6790 -1.0267
 5381SOL    HW220506   7.022   2.604  11.036 -0.1978  0.6563 -0.9693
 5382SOL     OW20507   4.229   5.574   9.311  0.1555  0.0699  0.1689
 5382SOL    HW120508   4.299   5.633   9.340 -0.4166  0.3497  1.0434
 5382SOL    HW220509   4.212   5.599   9.220  0.0837  1.1045  0.4532
 5383SOL     OW20510   9.329   7.826   6.479 -0.2251 -0.3568  0.0548
 5383SOL    HW120511   9.247   7.777   6.492  0.0337 -0.7267  0.3083
 5383SOL    HW220512   9.303   7.900   6.424 -0.2533 -1.8663 -2.0991
 5384SOL     OW20513   3.167   3.981   4.604  0.3876 -0.3746  0.0654
 5384SOL    HW120514   3.205   3.940   4.527  1.0623 -1.7753  1.1044
 5384SOL    HW220515   3.074   3.990   4.583  0.7889  0.6037 -1.4494
 5385SOL     OW20516   0.396   8.840   2.429  0.0474 -0.6957 -0.0996
 5385SOL    HW120517   0.366   8.749   2.428 -2.2190 -0.0099 -0.5269
 5385SOL    HW220518   0.352   8.880   2.353 -1.2731  1.3882  1.6616
 5386SOL     OW20519  10.639   0.874  10.372 -0.6406  0.4491 -0.0520
 5386SOL    HW120520  10.598   0.822  10.303 -0.9253  0.7744 -0.1288
 5386SOL    HW220521  10.697   0.812  10.417  0.6868  0.5617 -1.4850
 5387SOL     OW20522   3.841   8.727   3.571 -0.0552 -0.4756  0.3273
 5387SOL    HW120523   3.849   8.666   3.498 -0.9859 -0.4820  0.2224
 5387SOL    HW220524   3.850   8.814   3.530  1.0806 -0.5216  0.4507
 5388SOL     OW20525   8.485   4.495   2.297 -0.4738 -0.3359  0.1317
 5388SOL    HW120526   8.484   4.495   2.392 -0.3938 -1.3265  0.1401
 5388SOL    HW220527   8.411   4.441   2.272  0.1946 -1.0512 -0.3485
 5389SOL     OW20528   3.606  10.532   1.575  0.2036  0.5154 -0.0396
 5389SOL    HW120529   3.687  10.499   1.537  0.2401  0.4869  0.0605
 5389SOL    HW220530   3.545  10.540   1.502 -0.2155 -0.9933  0.0989
 5390SOL     OW20531   2.268   7.691   6.097 -0.1898 -0.1526  0.1405
 5390SOL    HW120532   2.228   7.644   6.170 -2.0281 -1.2044 -1.4437
 5390SOL    HW220533   2.213   7.769   6.086  0.6007  0.4548  0.3995
 5391SOL     OW20534   0.599  10.747   6.537  0.5745  0.1558 -0.4269
 5391SOL    HW120535   0.583  10.682   6.469 -1.1820  0.2785 -0.1782
 5391SOL    HW220536   0.541  10.722   6.609  0.6506  1.3731  0.0949
 5392SOL     OW20537   6.427   3.007  10.994  0.1044  0.1467  0.1446
 5392SOL    HW120538   6.487   3.022  11.068  0.3836 -0.2868  0.0130
 5392SOL    HW220539   6.349   3.058  11.016  0.7956  1.3131 -0.0347
 5393SOL     OW20540   4.027   8.205   7.045  0.2062 -0.1010 -0.2184
 5393SOL    HW120541   4.013   8.256   6.965  1.3633  0.9230  0.1864
 5393SOL    HW220542   4.097   8.144   7.022 -0.6780 -1.0332 -0.4871
 5394SOL     OW20543   4.594   3.150   1.518  0.1048  0.0567 -0.2597
 5394SOL    HW120544   4.647   3.098   1.578  1.2572  1.7243  0.2475
 5394SOL    HW220545   4.587   3.236   1.560  1.1170  1.3536 -2.5509
 5395SOL     OW20546   7.425   3.895   9.118 -0.2960  0.8631  0.2845
 5395SOL    HW120547   7.363   3.961   9.148 -2.5819 -0.4316 -1.2626
 5395SOL    HW220548   7.427   3.904   9.023  0.6213 -0.2314  0.1657
 5396SOL     OW20549  10.841   5.224   6.043 -0.5664  0.2007 -0.3135
 5396SOL    HW120550  10.769   5.264   5.994 -1.8326 -1.0629  0.4444
 5396SOL    HW220551  10.879   5.162   5.981  0.2578  1.2522 -0.8968
 5397SOL     OW20552   4.797   2.207   3.307  0.1232  0.3581 -0.1373
 5397SOL    HW120553   4.887   2.194   3.337 -0.0118  1.7120  0.9455
 5397SOL    HW220554   4.745   2.212   3.388 -1.3545 -2.7618 -0.7197
 5398SOL     OW20555   4.323   2.821   7.872  0.1572 -0.1084 -0.3846
 5398SOL    HW120556   4.234   2.788   7.860 -0.2737  0.7845  0.2140
 5398SOL    HW220557   4.378   2.743   7.874 -0.5126 -0.6243 -1.5423
 5399SOL     OW20558   9.197   0.205   9.004  0.5785  0.0323  0.1621
 5399SOL    HW120559   9.131   0.143   8.973 -0.9986  0.8894  1.5952
 5399SOL    HW220560   9.192   0.278   8.943  0.4491 -0.0619  0.0598
 5400SOL     OW20561   0.959   7.586  10.478  0.3443  0.6895  0.8406
 5400SOL    HW120562   0.877   7.538  10.467  1.0261 -0.3725  0.1465
 5400SOL    HW220563   0.990   7.562  10.565 -0.2939  1.4573  1.2912
 5401SOL     OW20564   4.036   5.795   5.578  0.0227  0.2160 -0.2641
 5401SOL    HW120565   3.966   5.825   5.519  0.6562 -0.1553 -1.2238
 5401SOL    HW220566   4.053   5.871   5.634 -1.7946  0.0114  0.6246
 5402SOL     OW20567   0.459  10.284   6.966 -0.0054  0.2623  0.6015
 5402SOL    HW120568   0.519  10.293   7.040 -0.2674  0.8514  0.7443
 5402SOL    HW220569   0.382  10.239   7.003 -0.1588  0.6049  0.7027
 5403SOL     OW20570   0.055   4.382   8.132  0.2033  0.5127 -0.2376
 5403SOL    HW120571   0.127   4.391   8.069 -0.5405 -1.8768 -1.5161
 5403SOL    HW220572  -0.015   4.340   8.083 -0.8650 -0.3129  1.8864
 5404SOL     OW20573   8.274   4.063   7.998  0.6455 -0.3839 -0.4253
 5404SOL    HW120574   8.212   4.004   7.953 -0.4951  0.6132 -0.2129
 5404SOL    HW220575   8.358   4.045   7.956  0.4276 -2.4581 -0.0866
 5405SOL     OW20576   3.265   1.742   0.938  0.3898 -0.4904  0.1879
 5405SOL    HW120577   3.336   1.711   0.882  0.0486 -1.3854  0.2388
 5405SOL    HW220578   3.291   1.716   1.027 -0.9578 -2.7448 -0.0066
 5406SOL     OW20579   3.833   5.129   1.277  0.3548  0.2769  0.1525
 5406SOL    HW120580   3.898   5.197   1.260 -1.2738  2.0950  0.9293
 5406SOL    HW220581   3.843   5.068   1.204  1.1731  1.8769 -1.1264
 5407SOL     OW20582   0.582   9.291  10.008 -0.1910 -0.3329 -0.1189
 5407SOL    HW120583   0.498   9.336  10.006 -0.8442 -1.5169 -0.4845
 5407SOL    HW220584   0.606   9.288  10.100  0.6702  2.1379 -0.1985
 5408SOL     OW20585   0.029   5.601   3.704 -0.2057 -0.2040  0.1189
 5408SOL    HW120586  -0.007   5.514   3.717 -1.6464  0.4013  0.3952
 5408SOL    HW220587   0.058   5.601   3.613  1.0995 -1.3944  0.5060
 5409SOL     OW20588   5.226   7.426   4.871 -0.1807  0.4668  0.3211
 5409SOL    HW120589   5.166   7.498   4.855  0.6606  1.4475  1.4078
 5409SOL    HW220590   5.312   7.460   4.844  0.4890  0.4819  2.3442
 5410SOL     OW20591   9.004   8.158   4.765  0.3850  0.1503 -0.1937
 5410SOL    HW120592   8.957   8.197   4.839 -0.3503  0.2686 -0.7126
 5410SOL    HW220593   9.079   8.216   4.751 -0.3702  1.0595 -0.5719
 5411SOL     OW20594   6.708   6.222   0.869 -0.3404 -0.3224 -0.8346
 5411SOL    HW120595   6.724   6.221   0.963 -0.3646 -2.6698 -0.8188
 5411SOL    HW220596   6.781   6.273   0.832  0.6618 -0.9216  0.2823
 5412SOL     OW20597   3.249   3.793   3.379 -0.2187 -0.0828  0.3589
 5412SOL    HW120598   3.271   3.886   3.382  0.5342 -0.1225 -2.1208
 5412SOL    HW220599   3.228   3.776   3.287 -2.3655 -1.9442  1.0997
 5413SOL     OW20600   9.707   8.427   6.479  0.1432  0.3838  0.2072
 5413SOL    HW120601   9.662   8.509   6.499 -0.8434 -0.5075  1.7255
 5413SOL    HW220602   9.756   8.406   6.558 -2.0803 -2.0758  1.0564
 5414SOL     OW20603   8.011   8.300  10.052  0.4432  0.2130  0.1610
 5414SOL    HW120604   7.929   8.295  10.003  0.7133  0.2637 -0.3001
 5414SOL    HW220605   7.987   8.339  10.136 -0.2227 -0.9351  0.5192
 5415SOL     OW20606   0.177   2.604   7.943 -0.1648  0.4736  0.1594
 5415SOL    HW120607   0.254   2.658   7.957  1.0019 -1.3317  1.0440
 5415SOL    HW220608   0.192   2.563   7.857 -0.1735  0.1666  0.3047
 5416SOL     OW20609   9.667   4.144   7.680  0.3093  0.5704 -0.2361
 5416SOL    HW120610   9.619   4.068   7.647 -2.0058  2.2132 -0.9376
 5416SOL    HW220611   9.739   4.156   7.618  0.7205 -1.0312 -0.0899
 5417SOL     OW20612   6.446  10.880   9.522  0.0207 -0.1011 -0.8858
 5417SOL    HW120613   6.492  10.826   9.459 -0.1692 -1.8499  0.3984
 5417SOL    HW220614   6.388  10.935   9.469  2.5429  1.2166 -2.4292
 5418SOL     OW20615   4.468   7.489   6.131 -0.6207 -0.0233  0.2829
 5418SOL    HW120616   4.390   7.494   6.186 -2.3907 -0.0615 -2.0393
 5418SOL    HW220617   4.494   7.397   6.134 -2.7566 -0.7779 -1.4551
 5419SOL     OW20618   4.352   8.306   2.153 -0.3961  0.2250 -0.5380
 5419SOL    HW120619   4.405   8.227   2.156  0.1390  0.4992 -2.0904
 5419SOL    HW220620   4.414   8.376   2.130 -1.0319  0.9423 -0.1314
 5420SOL     OW20621   8.832   6.076   7.292 -0.2728 -0.1888 -0.2129
 5420SOL    HW120622   8.771   6.102   7.361 -0.4552  0.1942 -0.5137
 5420SOL    HW220623   8.918   6.103   7.324 -0.5236  1.4431 -0.8032
 5421SOL     OW20624   6.724   6.092   8.788 -0.0872  0.3192  0.0995
 5421SOL    HW120625   6.816   6.099   8.762 -0.2243  0.0514 -0.4562
 5421SOL    HW220626   6.716   6.153   8.862  1.0328 -1.1096  1.4816
 5422SOL     OW20627   1.549   6.173  10.446 -0.2274 -0.3663  0.0658
 5422SOL    HW120628   1.622   6.128  10.488  0.9909  0.3158 -1.2727
 5422SOL    HW220629   1.526   6.243  10.508 -0.3222 -1.0890  0.8724
 5423SOL     OW20630  10.047   3.784   3.618 -0.0179  0.7459 -0.4492
 5423SOL    HW120631  10.106   3.769   3.544  0.1594 -0.0328 -0.1592
 5423SOL    HW220632  10.083   3.731   3.689 -0.5095  1.0375  0.0269
 5424SOL     OW20633  11.061   7.483   1.636  0.5712 -0.0789  0.4085
 5424SOL    HW120634  11.067   7.533   1.555  1.2794 -1.2145 -0.2744
 5424SOL    HW220635  11.084   7.393   1.610 -0.5829 -0.7486  1.5879
 5425SOL     OW20636   2.570  10.739   6.972 -0.4002 -0.4050 -0.0173
 5425SOL    HW120637   2.615  10.722   6.889  0.2987  1.9373 -0.2095
 5425SOL    HW220638   2.635  10.718   7.039 -1.0105 -2.4306  0.0044
 5426SOL     OW20639   4.003   3.483   8.736  0.2274  0.4268 -0.0574
 5426SOL    HW120640   3.940   3.436   8.791  0.7588  0.6694  0.7697
 5426SOL    HW220641   4.014   3.426   8.659 -0.7813  0.2539 -0.0907
 5427SOL     OW20642   4.461  10.518   5.243  0.1454  0.5722  0.1069
 5427SOL    HW120643   4.459  10.422   5.245  0.4076  0.5689  0.3110
 5427SOL    HW220644   4.397  10.542   5.176 -0.9380  0.2867  0.9905
 5428SOL     OW20645   3.805   1.082   2.067 -0.0086  0.0263  0.2255
 5428SOL    HW120646   3.744   1.064   2.139  0.0619  0.8733  0.5048
 5428SOL    HW220647   3.780   1.020   1.998 -2.2784  1.3963 -0.2994
 5429SOL     OW20648   2.536   4.294  10.721 -0.2394 -0.3125  0.5561
 5429SOL    HW120649   2.447   4.327  10.708  0.5787  1.6387 -0.4878
 5429SOL    HW220650   2.524   4.211  10.768 -2.6062 -0.2390  0.2153
 5430SOL     OW20651   7.758   0.412   6.405  0.2459  0.5263 -0.8241
 5430SOL    HW120652   7.833   0.362   6.374 -0.3817 -1.3131  0.4585
 5430SOL    HW220653   7.723   0.454   6.326  1.9497  0.5692 -1.6114
 5431SOL     OW20654   3.595   8.764   2.266 -0.4142 -0.1051  0.2610
 5431SOL    HW120655   3.636   8.679   2.284 -0.2716  0.1336  1.1450
 5431SOL    HW220656   3.585   8.804   2.352  1.0053  1.4589 -0.2540
 5432SOL     OW20657   4.329   9.157  10.734  0.1655 -0.0973  0.0029
 5432SOL    HW120658   4.287   9.201  10.808 -1.2473 -0.7943 -0.3436
 5432SOL    HW220659   4.334   9.065  10.761 -1.4941 -0.5904 -1.2011
 5433SOL     OW20660   9.661   7.688   5.029 -0.1218  0.0774  0.6366
 5433SOL    HW120661   9.609   7.706   4.951  0.1640 -0.5277  0.2975
 5433SOL    HW220662   9.598   7.694   5.101 -0.5511 -0.1095  0.2830
 5434SOL     OW20663   3.599   3.588   9.963 -0.2078  0.0284  0.2277
 5434SOL    HW120664   3.631   3.515   9.910  0.3577 -0.3346  1.0475
 5434SOL    HW220665   3.641   3.665   9.925  0.7760 -0.3160  0.5917
 5435SOL     OW20666   8.203   4.386   9.470  0.2105 -0.0321 -0.1558
 5435SOL    HW120667   8.269   4.407   9.404  1.4259  0.1328  1.0783
 5435SOL    HW220668   8.187   4.469   9.515 -0.7562 -0.0999 -0.3431
 5436SOL     OW20669   3.785  10.892   4.031 -0.5356  0.7344  0.3285
 5436SOL    HW120670   3.803  10.899   4.125 -0.1062 -1.6579  0.4759
 5436SOL    HW220671   3.870  10.905   3.990 -0.4900  0.5167  0.3528
 5437SOL     OW20672   3.665   9.260   3.674 -0.5971  0.4654  0.8777
 5437SOL    HW120673   3.707   9.260   3.760  0.1670  0.6680  0.5082
 5437SOL    HW220674   3.731   9.225   3.614 -0.7716  1.2376  0.2070
 5438SOL     OW20675   5.235   0.860   6.377  0.0676  0.6984  0.1002
 5438SOL    HW120676   5.322   0.825   6.399 -0.1701 -0.6954 -0.9719
 5438SOL    HW220677   5.253   0.932   6.316  0.4696 -0.5377 -1.3058
 5439SOL     OW20678   4.710   1.966   0.559  0.4032  0.1553  0.2759
 5439SOL    HW120679   4.707   1.881   0.603  0.2994  0.3362  0.6237
 5439SOL    HW220680   4.770   1.953   0.486 -0.6182 -0.5846 -0.4553
 5440SOL     OW20681   8.187   3.507   9.036  0.2480 -0.4500 -0.2898
 5440SOL    HW120682   8.186   3.520   9.131 -1.1923 -0.1696 -0.3290
 5440SOL    HW220683   8.106   3.547   9.005  0.0881 -1.6426 -1.5014
 5441SOL     OW20684   9.512   0.796   6.000  0.0278  0.0599  0.9048
 5441SOL    HW120685   9.579   0.743   6.044  0.1761 -1.3103 -0.8446
 5441SOL    HW220686   9.443   0.733   5.979  0.0398  0.6004 -0.9191
 5442SOL     OW20687   4.264   4.937   5.236  0.0720 -0.3932 -0.0541
 5442SOL    HW120688   4.288   4.890   5.316 -0.2778 -1.6002 -0.6283
 5442SOL    HW220689   4.191   4.993   5.261  0.8844  0.3190  0.7864
 5443SOL     OW20690   2.312   7.264   7.953 -0.0643  0.6850 -0.1641
 5443SOL    HW120691   2.349   7.349   7.975  1.6326  0.3747 -1.5883
 5443SOL    HW220692   2.248   7.247   8.022  1.0420  2.1774  1.3026
 5444SOL     OW20693   6.724  11.007   3.446 -0.8729  0.7845  0.0932
 5444SOL    HW120694   6.657  11.075   3.453 -1.8511 -0.2759  1.3027
 5444SOL    HW220695   6.687  10.943   3.386 -0.7301  0.4312  0.3793
 5445SOL     OW20696   1.913   6.824   7.443  0.1720  0.1347 -0.3830
 5445SOL    HW120697   2.001   6.795   7.420  0.8600  0.4266  1.7133
 5445SOL    HW220698   1.861   6.808   7.364  2.4540  1.6777 -2.3411
 5446SOL     OW20699   5.563   3.314   6.383  1.0125  0.0089 -0.0705
 5446SOL    HW120700   5.526   3.237   6.340  0.3782  0.3303 -0.1159
 5446SOL    HW220701   5.650   3.286   6.411  1.4393 -0.2133 -1.5453
 5447SOL     OW20702   0.909   6.016   1.477 -0.2685 -0.2863 -0.5726
 5447SOL    HW120703   0.947   6.103   1.485 -0.2025 -0.1178 -2.3534
 5447SOL    HW220704   0.815   6.031   1.469 -0.3561 -0.4518  0.1154
 5448SOL     OW20705   4.431   4.246   9.242 -0.0801 -0.4252  0.0676
 5448SOL    HW120706   4.356   4.200   9.204 -0.8316 -1.1508  2.2710
 5448SOL    HW220707   4.502   4.182   9.239 -0.2074 -0.5697  0.1031
 5449SOL     OW20708   8.761   3.503   4.688  0.2897  0.1025 -0.1100
 5449SOL    HW120709   8.847   3.470   4.664  0.1476 -0.6276  0.3415
 5449SOL    HW220710   8.777   3.563   4.761  0.4840  0.5595 -0.5199
 5450SOL     OW20711   0.105   5.998   0.659  0.1860  0.1988 -0.0593
 5450SOL    HW120712   0.100   6.025   0.567 -0.9282  0.2322 -0.0037
 5450SOL    HW220713   0.136   5.907   0.655 -1.1126 -0.2498 -0.5700
 5451SOL     OW20714   3.072   0.893   1.868  0.1278  0.1106 -0.1266
 5451SOL    HW120715   3.076   0.886   1.964  2.1585  0.7032 -0.1053
 5451SOL    HW220716   3.113   0.813   1.836 -0.6174 -0.1221 -0.5159
 5452SOL     OW20717   2.481   6.387   8.281  0.6407  0.0426 -0.1382
 5452SOL    HW120718   2.521   6.313   8.326  1.4014  0.2430 -0.4625
 5452SOL    HW220719   2.441   6.439   8.352 -0.1235 -0.7884  0.0622
 5453SOL     OW20720   5.381   3.524   6.816 -0.0458  0.1743  0.5117
 5453SOL    HW120721   5.330   3.486   6.745  0.4111 -0.7271  0.6549
 5453SOL    HW220722   5.416   3.449   6.864  2.0269  0.7317 -0.0142
 5454SOL     OW20723   0.415   4.141   3.617 -0.7035 -0.6920 -0.1521
 5454SOL    HW120724   0.370   4.105   3.693 -1.2693 -0.0960 -0.1905
 5454SOL    HW220725   0.479   4.202   3.653 -0.3115 -1.1129 -0.1224
 5455SOL     OW20726   0.454   3.079   8.952 -0.0654 -0.3709  0.6978
 5455SOL    HW120727   0.457   2.994   8.907 -0.4215 -0.4114  0.7425
 5455SOL    HW220728   0.409   3.060   9.035  0.1412 -0.1983  0.8504
 5456SOL     OW20729   4.005   2.487   2.760  0.1012 -0.3675 -0.3435
 5456SOL    HW120730   4.096   2.518   2.767  0.5532 -1.4283 -1.2592
 5456SOL    HW220731   3.998   2.418   2.826  0.3284 -1.1005 -1.0731
 5457SOL     OW20732   1.549   6.323   5.491  0.2325 -0.1364  0.3437
 5457SOL    HW120733   1.627   6.281   5.528 -0.7102 -1.0296  1.3687
 5457SOL    HW220734   1.565   6.417   5.505  2.0743 -0.1030 -1.4218
 5458SOL     OW20735   7.946   4.994   8.066  0.0123  0.0482 -0.4058
 5458SOL    HW120736   7.914   5.002   8.155 -0.0175 -0.4672 -0.3661
 5458SOL    HW220737   8.039   4.974   8.075  0.0007 -0.0472 -0.4894
 5459SOL     OW20738   0.705   9.710   1.156 -0.3587 -0.2880  0.2826
 5459SOL    HW120739   0.622   9.668   1.134 -3.0515  2.8934  3.1596
 5459SOL    HW220740   0.716   9.694   1.250  1.2125  0.9882  0.3621
 5460SOL     OW20741   3.910   9.005   0.441  0.3835  0.0850  0.1593
 5460SOL    HW120742   3.915   8.937   0.374 -2.8873 -0.3446  0.2333
 5460SOL    HW220743   3.893   8.957   0.522  1.4073  0.8056  0.8233
 5461SOL     OW20744   2.456  10.579   9.592 -0.1537  0.0702  0.0220
 5461SOL    HW120745   2.504  10.544   9.517 -0.6983  1.0230 -0.7887
 5461SOL    HW220746   2.368  10.596   9.559 -0.0257  1.7945  0.4822
 5462SOL     OW20747   2.988   6.485   2.312 -0.5480 -0.7692 -0.2185
 5462SOL    HW120748   2.904   6.439   2.312 -0.3030 -1.4324 -3.4290
 5462SOL    HW220749   3.026   6.466   2.226  0.9914  2.9364 -0.5250
 5463SOL     OW20750   2.599   2.594   5.217  0.0165 -0.3761 -0.3315
 5463SOL    HW120751   2.664   2.662   5.202 -0.8935  0.4062 -0.7951
 5463SOL    HW220752   2.628   2.550   5.297 -1.0807  2.6369  1.9168
 5464SOL     OW20753   3.688  10.804  10.652 -0.6392  0.0020 -0.7344
 5464SOL    HW120754   3.720  10.734  10.709 -0.6573  0.6439  0.0779
 5464SOL    HW220755   3.765  10.832  10.602 -1.2379 -2.8131 -3.5569
 5465SOL     OW20756  10.145   6.059   7.156 -0.4599  0.1060 -0.3845
 5465SOL    HW120757  10.118   5.967   7.149 -2.0345  0.3795  1.5312
 5465SOL    HW220758  10.213   6.058   7.223 -0.3741  0.3244 -0.4696
 5466SOL     OW20759   1.382  10.786   4.333 -0.3932  0.1667  0.2210
 5466SOL    HW120760   1.390  10.881   4.326  0.2048  0.1468  0.5540
 5466SOL    HW220761   1.457  10.753   4.284 -0.6220 -0.1352  0.0758
 5467SOL     OW20762   6.468   7.645   9.672  0.2564  0.1574 -0.2763
 5467SOL    HW120763   6.412   7.670   9.598 -2.4562  0.2833  1.6891
 5467SOL    HW220764   6.472   7.550   9.668 -1.4887  0.0249  0.4458
 5468SOL     OW20765  10.641   5.179   8.662  0.3367 -0.3759 -0.1872
 5468SOL    HW120766  10.615   5.150   8.575 -0.0222 -1.1091  0.1544
 5468SOL    HW220767  10.719   5.128   8.683  1.7562  1.3747 -0.9510
 5469SOL     OW20768  10.667   6.124   6.411 -0.7237  0.0347  0.4956
 5469SOL    HW120769  10.688   6.034   6.386 -3.0108  0.0093 -1.7647
 5469SOL    HW220770  10.750   6.171   6.403  0.0338 -1.3918 -0.7218
 5470SOL     OW20771   9.763   2.988   9.619  0.6839  0.2368 -0.4870
 5470SOL    HW120772   9.746   2.951   9.533 -0.2257  0.4534 -0.4066
 5470SOL    HW220773   9.680   3.026   9.646  0.3452 -1.6151  1.3761
 5471SOL     OW20774  11.067   0.036   0.607  0.1101 -0.1453  0.9448
 5471SOL    HW120775  11.058   0.029   0.512  1.6099  1.0169  0.6669
 5471SOL    HW220776  11.047   0.127   0.627 -1.0062 -0.5778  1.8712
 5472SOL     OW20777  10.534   6.434   8.435  0.1356 -0.7062 -0.1427
 5472SOL    HW120778  10.561   6.520   8.466 -0.2498 -0.3790 -0.6805
 5472SOL    HW220779  10.546   6.375   8.510 -0.8103  0.0573  0.6365
 5473SOL     OW20780   6.732  10.097   9.427  0.9232 -0.2099 -0.0026
 5473SOL    HW120781   6.803  10.048   9.468  0.4877 -1.5954 -0.8530
 5473SOL    HW220782   6.656  10.040   9.434 -0.0625  1.1152  0.6066
 5474SOL     OW20783   8.687   5.660   3.580 -0.0276 -0.2537 -0.2256
 5474SOL    HW120784   8.665   5.649   3.488  1.0889 -1.1159 -0.4088
 5474SOL    HW220785   8.626   5.727   3.612 -1.8260 -1.4389 -1.0467
 5475SOL     OW20786   2.003   4.561   6.952 -0.0242  0.2402  0.3508
 5475SOL    HW120787   2.017   4.467   6.935 -1.4377 -0.1892  1.3847
 5475SOL    HW220788   2.071   4.604   6.901  1.7896 -1.4328  1.1747
 5476SOL     OW20789   0.177  10.131   3.612  1.1641 -0.0408 -0.4481
 5476SOL    HW120790   0.173  10.157   3.519  3.0600 -0.2786 -0.6437
 5476SOL    HW220791   0.096  10.164   3.649  1.0225  1.3796 -1.8833
 5477SOL     OW20792   0.956   2.158   9.140 -0.1690  0.4191  0.4215
 5477SOL    HW120793   0.954   2.116   9.226 -2.3304  0.1161  0.2764
 5477SOL    HW220794   0.976   2.087   9.079 -0.0931  0.3529  0.5222
 5478SOL     OW20795   2.581   1.219   6.971  0.0329 -0.3989  0.3900
 5478SOL    HW120796   2.589   1.127   6.948  0.8342 -0.5088  1.0546
 5478SOL    HW220797   2.600   1.222   7.065 -0.3383  0.3981  0.4505
 5479SOL     OW20798   0.835   8.990   5.154  0.1053  0.8559  0.1230
 5479SOL    HW120799   0.853   8.898   5.172  1.4058  0.7640 -1.4797
 5479SOL    HW220800   0.760   9.011   5.210  0.2124 -0.9734  1.0191
 5480SOL     OW20801   9.451   2.486   5.820  0.1058  0.1031  0.2034
 5480SOL    HW120802   9.484   2.490   5.731  0.4588  0.2638  0.3418
 5480SOL    HW220803   9.456   2.393   5.844  0.2202  0.0920  0.1354
 5481SOL     OW20804   5.196   1.672   6.816  0.2946  0.0389  0.0370
 5481SOL    HW120805   5.240   1.587   6.817 -2.1600 -1.3162  0.6607
 5481SOL    HW220806   5.189   1.694   6.723 -1.1175 -1.6776 -0.3272
 5482SOL     OW20807   7.008  10.165   5.720 -0.0925 -0.4127  0.2459
 5482SOL    HW120808   7.085  10.222   5.725  0.2676 -1.0136  2.1793
 5482SOL    HW220809   6.965  10.174   5.805 -0.3379 -2.5624  0.3983
 5483SOL     OW20810  10.336  10.359   2.601  0.3374 -0.1273 -0.0891
 5483SOL    HW120811  10.427  10.379   2.579  1.1004 -0.2020  2.5925
 5483SOL    HW220812  10.304  10.437   2.646 -0.4348 -0.6558  0.3085
 5484SOL     OW20813   9.484   2.536   6.286 -0.2538  0.5511 -0.0702
 5484SOL    HW120814   9.578   2.523   6.295  0.1528  2.1723 -1.4230
 5484SOL    HW220815   9.445   2.452   6.310  1.6276 -0.5825 -0.8440
 5485SOL     OW20816   6.310   3.991  10.987  0.2280  0.2768  0.1192
 5485SOL    HW120817   6.271   4.072  10.954  1.8086  1.0338  0.0393
 5485SOL    HW220818   6.383   3.974  10.927  0.8374 -0.3758  1.0322
 5486SOL     OW20819   1.048   1.848   6.305 -0.2865  0.4546  0.6147
 5486SOL    HW120820   0.991   1.803   6.242 -0.7874  0.6725  0.9041
 5486SOL    HW220821   1.037   1.798   6.386  1.8576 -1.0230  0.0599
 5487SOL     OW20822   4.623  10.740   5.185  0.4426  1.0545 -0.0429
 5487SOL    HW120823   4.579  10.793   5.252  0.7839  1.7564 -0.3582
 5487SOL    HW220824   4.593  10.651   5.201 -1.7002  1.5890 -0.6998
 5488SOL     OW20825   4.844   4.563   5.312  0.6839  0.1943  0.1774
 5488SOL    HW120826   4.909   4.549   5.381  1.2979  0.0240 -0.4249
 5488SOL    HW220827   4.835   4.658   5.306  0.2567  0.2015  0.8251
 5489SOL     OW20828   1.247   3.302   6.178  0.1620  0.3260  0.1970
 5489SOL    HW120829   1.252   3.303   6.082  0.5916  0.6057  0.2208
 5489SOL    HW220830   1.164   3.346   6.198 -0.3595 -0.5022 -0.0692
 5490SOL     OW20831   7.428   7.595   2.510 -0.0068 -0.5571  0.3080
 5490SOL    HW120832   7.465   7.508   2.527 -1.9158 -1.4733  0.0636
 5490SOL    HW220833   7.415   7.597   2.415  0.4016  0.1676  0.2604
 5491SOL     OW20834   4.824   2.163   5.141 -0.0912  0.4651  0.8558
 5491SOL    HW120835   4.755   2.222   5.111  0.5482 -0.2738 -2.4670
 5491SOL    HW220836   4.782   2.077   5.142  0.5554  0.0914 -0.6910
 5492SOL     OW20837  10.906   7.163   6.557  0.2402  0.0904 -0.3667
 5492SOL    HW120838  10.974   7.230   6.553  2.9323 -2.0219  3.2531
 5492SOL    HW220839  10.940   7.092   6.502 -0.4425  0.0417 -0.7356
 5493SOL     OW20840   4.131   6.482   6.299  0.5316  0.0262  0.0658
 5493SOL    HW120841   4.164   6.445   6.380  0.6269  1.1451  0.5511
 5493SOL    HW220842   4.078   6.412   6.260  1.1968 -0.8090  0.6537
 5494SOL     OW20843   0.134   1.500   1.878  0.3020  0.3540  0.7469
 5494SOL    HW120844   0.151   1.413   1.912 -0.0149 -0.2771 -0.6088
 5494SOL    HW220845   0.083   1.544   1.946  1.6621 -0.0199  2.0268
 5495SOL     OW20846   3.507   1.370   7.367 -0.1783 -0.2443 -0.3823
 5495SOL    HW120847   3.422   1.394   7.402  0.0465  1.7165 -1.0835
 5495SOL    HW220848   3.542   1.307   7.430 -1.1314  0.7490  1.1908
 5496SOL     OW20849   6.562  11.008   4.246  0.2549 -0.0204 -0.3951
 5496SOL    HW120850   6.649  10.968   4.252 -0.0838 -0.7008  0.2402
 5496SOL    HW220851   6.510  10.945   4.196 -0.3161 -0.4694  0.7178
 5497SOL     OW20852   3.381   5.862   3.184  0.2946  0.0841  0.5635
 5497SOL    HW120853   3.475   5.845   3.189  0.3267 -0.2334 -0.7253
 5497SOL    HW220854   3.344   5.817   3.260  1.3209  1.4468  1.9439
 5498SOL     OW20855   3.227   1.225   5.109  0.5420  0.0245 -0.3165
 5498SOL    HW120856   3.136   1.249   5.089  0.8755  1.0624 -0.6265
 5498SOL    HW220857   3.248   1.273   5.189  0.1946 -1.7766  0.9215
 5499SOL     OW20858   0.355   7.523   4.918  0.4466  0.3953 -0.1455
 5499SOL    HW120859   0.417   7.478   4.975  1.0138  0.4612 -0.6970
 5499SOL    HW220860   0.308   7.453   4.872 -0.0864  0.3411  0.4792
 5500SOL     OW20861   0.762   1.749  10.211  0.3775 -0.0693  0.1257
 5500SOL    HW120862   0.847   1.757  10.167  0.2745 -2.0200 -0.5102
 5500SOL    HW220863   0.779   1.693  10.286 -0.1571  0.3758  0.5862
 5501SOL     OW20864   3.061  10.039   1.315  0.6576  0.2707 -0.1228
 5501SOL    HW120865   3.073   9.993   1.399  1.2436 -0.1045 -0.4094
 5501SOL    HW220866   3.095   9.978   1.249  1.1352  0.9750 -0.5399
 5502SOL     OW20867   4.437   5.998   5.124 -0.6687 -0.2220 -0.9199
 5502SOL    HW120868   4.475   6.040   5.047  0.8742  0.1980  0.0275
 5502SOL    HW220869   4.506   5.940   5.157 -1.2914 -0.3951  0.1458
 5503SOL     OW20870  10.547   7.130   9.733 -0.5231  0.4044 -0.6218
 5503SOL    HW120871  10.637   7.145   9.704 -0.1028 -0.1131  0.3781
 5503SOL    HW220872  10.508   7.078   9.662  0.0785  0.2980 -0.8808
 5504SOL     OW20873  10.642   9.638  10.180  0.1218  0.0333 -0.0141
 5504SOL    HW120874  10.665   9.722  10.219 -1.1691  0.8578 -0.9540
 5504SOL    HW220875  10.670   9.573  10.245  0.5731  1.2129  1.0073
 5505SOL     OW20876   7.781   8.067   8.847  0.0247  0.0060  0.2043
 5505SOL    HW120877   7.757   8.050   8.938 -0.7779  0.3649  0.0636
 5505SOL    HW220878   7.820   8.154   8.849  0.0515 -0.0061  0.2139
 5506SOL     OW20879   2.740   9.222   3.813 -0.3784  0.2598  0.2661
 5506SOL    HW120880   2.691   9.209   3.894  2.1816 -0.3126  1.8257
 5506SOL    HW220881   2.808   9.286   3.836  0.1342  0.4277 -1.5601
 5507SOL     OW20882   8.570   8.785   1.922 -0.1500 -0.2635  0.1149
 5507SOL    HW120883   8.523   8.702   1.935 -0.2281 -0.0048  1.7232
 5507SOL    HW220884   8.543   8.839   1.996 -1.6570  1.9788 -1.9437
 5508SOL     OW20885   9.749  10.103   5.047 -0.3739  0.9354 -0.6387
 5508SOL    HW120886   9.667  10.055   5.047  0.9357 -1.6146  1.8191
 5508SOL    HW220887   9.749  10.152   5.129  0.5171  0.9955 -0.6587
 5509SOL     OW20888   9.040   9.599   4.902  0.3245 -0.0961 -0.3370
 5509SOL    HW120889   9.132   9.603   4.874  0.8132  1.2917  1.2746
 5509SOL    HW220890   9.020   9.688   4.930 -2.1419  0.0971 -2.3661
 5510SOL     OW20891   6.620   8.439   0.268  0.0109  0.1290 -0.4308
 5510SOL    HW120892   6.551   8.467   0.208 -0.0176 -0.3108 -0.6040
 5510SOL    HW220893   6.610   8.344   0.275 -0.2462  0.2162  0.5857
 5511SOL     OW20894   0.850   0.581   7.393 -0.3248  0.0800  0.6618
 5511SOL    HW120895   0.758   0.594   7.372 -0.2829  0.5359  0.7574
 5511SOL    HW220896   0.863   0.486   7.384 -1.4531 -0.3971  3.2007
 5512SOL     OW20897   6.579   9.954   9.044  0.1005 -0.5302  0.0545
 5512SOL    HW120898   6.608   9.943   9.135  0.7101 -0.4525 -0.1293
 5512SOL    HW220899   6.635  10.023   9.009 -0.5639 -0.1059 -0.1964
 5513SOL     OW20900   3.454   6.917   4.644  0.3498 -0.8579  0.8148
 5513SOL    HW120901   3.415   7.004   4.643  0.3316 -0.8451  1.7962
 5513SOL    HW220902   3.408   6.869   4.574  1.0359  0.1847 -0.3872
 5514SOL     OW20903   1.721   1.842   1.951  0.2697  0.7386 -0.3417
 5514SOL    HW120904   1.794   1.781   1.943  0.7672  0.8477  2.2931
 5514SOL    HW220905   1.646   1.786   1.971 -0.2789  0.6861 -2.3594
 5515SOL     OW20906   2.011   4.677   7.549 -0.4833 -0.0472 -0.5408
 5515SOL    HW120907   1.973   4.663   7.462  0.3532  0.0032 -0.9251
 5515SOL    HW220908   2.082   4.741   7.534 -0.0502 -0.3658  0.1018
 5516SOL     OW20909   0.007   5.511   1.285  0.4408  0.3327 -0.3640
 5516SOL    HW120910  -0.030   5.562   1.357  0.9927  0.0081  0.1662
 5516SOL    HW220911  -0.011   5.420   1.309 -1.3833  0.2880 -1.7768
 5517SOL     OW20912   4.937   4.418   7.286 -0.3733  0.0382 -0.0478
 5517SOL    HW120913   4.841   4.416   7.290 -0.3218 -1.2430  1.5655
 5517SOL    HW220914   4.963   4.326   7.288  0.9054  0.3878  0.2759
 5518SOL     OW20915   3.313   8.759   8.573 -0.3875  0.0046  0.2209
 5518SOL    HW120916   3.269   8.815   8.637 -0.2400 -1.2556  1.4789
 5518SOL    HW220917   3.405   8.760   8.599 -0.2957 -0.3960 -0.0818
 5519SOL     OW20918   1.973   1.793   3.846  0.3568 -0.0126  0.3583
 5519SOL    HW120919   2.010   1.768   3.761  1.3451 -0.6479  0.9535
 5519SOL    HW220920   1.879   1.775   3.838  0.2677  0.8665 -0.9212
 5520SOL     OW20921   1.250   8.833   4.350 -0.4698 -0.1168  0.1480
 5520SOL    HW120922   1.255   8.924   4.381 -2.9880  0.0637  0.1888
 5520SOL    HW220923   1.274   8.838   4.258 -1.8682  0.8462 -0.1938
 5521SOL     OW20924   4.097   0.752   6.015  0.5423 -0.4156  0.3140
 5521SOL    HW120925   4.178   0.719   5.975  0.0078 -0.8181 -0.4628
 5521SOL    HW220926   4.030   0.691   5.985 -0.5956  1.6681 -1.6489
 5522SOL     OW20927   5.724   7.048   3.105 -0.1126 -0.2067 -0.1792
 5522SOL    HW120928   5.777   7.119   3.142  1.0759 -0.0843 -1.9651
 5522SOL    HW220929   5.641   7.091   3.080 -0.0341  0.1960  0.2439
 5523SOL     OW20930   2.233   0.894   2.256 -0.0940 -0.4123  0.1226
 5523SOL    HW120931   2.261   0.804   2.272 -0.1369 -0.3640  0.4841
 5523SOL    HW220932   2.161   0.886   2.193  1.1011 -0.4913 -1.2985
 5524SOL     OW20933   7.201   4.686   8.811 -0.4129 -0.0438  0.2784
 5524SOL    HW120934   7.210   4.592   8.796 -0.2125 -0.3071  1.9051
 5524SOL    HW220935   7.206   4.725   8.723 -1.6108 -1.6104 -0.5436
 5525SOL     OW20936   0.901   7.283   3.043  0.0144 -0.2209  0.0390
 5525SOL    HW120937   0.847   7.357   3.015  1.0416  0.5911  0.1323
 5525SOL    HW220938   0.947   7.255   2.964 -0.4352 -0.8430 -0.0163
 5526SOL     OW20939   5.912   0.340   5.327 -0.0705  0.0237  0.7550
 5526SOL    HW120940   5.980   0.407   5.332 -0.3503  0.3066  0.8235
 5526SOL    HW220941   5.955   0.264   5.286 -0.4666  1.2208 -2.1614
 5527SOL     OW20942   6.483   9.676   3.037 -0.2908 -0.9316  0.3828
 5527SOL    HW120943   6.456   9.755   2.990 -1.6770 -2.6235 -1.8817
 5527SOL    HW220944   6.428   9.674   3.115 -0.4423  0.1815  0.3193
 5528SOL     OW20945   0.992   0.963   5.620 -0.2649  0.0780 -0.3136
 5528SOL    HW120946   0.978   0.943   5.527 -1.4496  1.3814 -0.4514
 5528SOL    HW220947   0.904   0.966   5.658  0.2193 -0.7513  0.9429
 5529SOL     OW20948   9.789   1.111   3.999 -0.5044  0.0254 -0.4576
 5529SOL    HW120949   9.751   1.050   4.063  0.9193 -0.3720  0.0559
 5529SOL    HW220950   9.883   1.106   4.015 -0.1997  0.7318 -1.8909
 5530SOL     OW20951   6.728   1.158   9.541 -0.1712  0.2365  0.3115
 5530SOL    HW120952   6.812   1.113   9.539 -1.3156 -1.9975 -0.4006
 5530SOL    HW220953   6.693   1.142   9.628  0.3556  1.6664  0.8131
 5531SOL     OW20954   9.822   3.984   9.846 -0.0147 -0.7481 -0.1648
 5531SOL    HW120955   9.770   3.925   9.901  0.0033  0.4536  1.2085
 5531SOL    HW220956   9.760   4.020   9.783 -0.7847  0.3033  1.1507
 5532SOL     OW20957   3.185   6.132   2.730  0.3301 -0.7523  0.6188
 5532SOL    HW120958   3.224   6.112   2.815  1.1917  0.1481  0.4662
 5532SOL    HW220959   3.119   6.199   2.749  0.2069 -0.8810  0.6407
 5533SOL     OW20960   1.638   0.009   1.803 -0.8866 -0.1680 -0.2360
 5533SOL    HW120961   1.544   0.001   1.788 -1.1168  0.2588  0.9038
 5533SOL    HW220962   1.652  -0.029   1.889  0.4839 -3.1559 -1.6332
 5534SOL     OW20963   5.464   8.807   3.186  0.2488 -0.1900 -0.0494
 5534SOL    HW120964   5.380   8.814   3.140  1.4112 -0.6491 -2.4272
 5534SOL    HW220965   5.473   8.890   3.232 -0.2801  1.0932 -2.0903
 5535SOL     OW20966   4.110   2.136   3.785 -1.0492 -0.3411  0.6051
 5535SOL    HW120967   4.204   2.120   3.798 -0.9902 -0.6445 -0.1477
 5535SOL    HW220968   4.103   2.165   3.694 -1.9693 -2.8680 -0.2140
 5536SOL     OW20969   2.238  10.590  10.164 -0.1957  0.7872  0.3021
 5536SOL    HW120970   2.297  10.666  10.160  2.4362 -1.1202  0.5850
 5536SOL    HW220971   2.212  10.575  10.073  0.0507  1.4305  0.1185
 5537SOL     OW20972   0.995   0.673   9.275  0.3451 -0.2492 -0.0995
 5537SOL    HW120973   1.021   0.698   9.186  1.2874 -1.2354 -0.1196
 5537SOL    HW220974   0.915   0.623   9.265 -0.5267  1.1186 -0.2210
 5538SOL     OW20975   4.748   0.422   6.156  0.6619 -0.3761 -0.1839
 5538SOL    HW120976   4.683   0.353   6.162  1.3440 -0.9527  0.7571
 5538SOL    HW220977   4.812   0.389   6.093 -0.8256  0.9735 -2.5912
 5539SOL     OW20978  11.068   6.281   3.568  0.1945  0.4523  0.1566
 5539SOL    HW120979  11.143   6.286   3.508 -0.3472 -0.1752 -0.5858
 5539SOL    HW220980  11.083   6.201   3.618  0.0180  0.3270  0.0079
 5540SOL     OW20981   4.311   8.079   7.760 -0.1605 -0.9821 -0.3083
 5540SOL    HW120982   4.271   8.010   7.813 -2.3539  0.0721 -0.4769
 5540SOL    HW220983   4.395   8.097   7.804 -0.4329 -2.3604  0.8760
 5541SOL     OW20984   9.888   5.048   7.724  0.0226  0.7743  0.0052
 5541SOL    HW120985   9.971   5.059   7.770  0.5452  1.7558 -1.1181
 5541SOL    HW220986   9.843   5.131   7.736  0.1319  1.0154 -1.1436
 5542SOL     OW20987  10.202   0.245   4.729  0.0841 -0.3836  0.7011
 5542SOL    HW120988  10.219   0.179   4.662  0.2739 -1.0038  1.3430
 5542SOL    HW220989  10.192   0.327   4.681  1.8210 -0.5214  0.0300
 5543SOL     OW20990   4.343   2.689   3.647  0.1576  0.1885  0.2887
 5543SOL    HW120991   4.426   2.688   3.600  0.8308  0.1379  1.4397
 5543SOL    HW220992   4.368   2.700   3.739 -1.1431  0.9666  0.5772
 5544SOL     OW20993   6.297   0.690   2.511  0.6045 -0.0183  0.3090
 5544SOL    HW120994   6.378   0.646   2.536  1.2200 -0.0799 -1.6551
 5544SOL    HW220995   6.318   0.784   2.517  0.3856 -0.0094  1.0784
 5545SOL     OW20996   2.739  10.620  11.061 -0.0275 -1.1467  0.2359
 5545SOL    HW120997   2.816  10.609  11.005  0.6187 -0.1526  0.9053
 5545SOL    HW220998   2.742  10.711  11.089 -2.6839 -0.4326 -1.4878
 5546SOL     OW20999   0.624   8.489   6.738  0.1153 -0.3422  0.1214
 5546SOL    HW121000   0.611   8.523   6.826 -2.6892 -0.0898 -0.2962
 5546SOL    HW221001   0.700   8.536   6.704 -0.6242  1.8627  1.3312
 5547SOL     OW21002   2.690   6.934   9.843  0.0606  0.9117  0.1680
 5547SOL    HW121003   2.680   7.029   9.845  0.9848  1.0904 -1.6881
 5547SOL    HW221004   2.693   6.912   9.750 -1.3689 -1.1050  0.5223
 5548SOL     OW21005   3.943   0.451   8.286 -0.7259  0.5032 -0.0340
 5548SOL    HW121006   3.993   0.388   8.338 -1.0167  0.4658  0.2032
 5548SOL    HW221007   3.905   0.398   8.215 -0.3883  0.5414 -0.2459
 5549SOL     OW21008   6.110   5.719  11.097 -0.2766 -0.3376  0.2682
 5549SOL    HW121009   6.136   5.680  11.013 -0.3485 -1.4223  0.7302
 5549SOL    HW221010   6.014   5.714  11.096 -0.2576 -0.8203  0.6241
 5550SOL     OW21011   1.086   7.728   8.543 -0.0223 -0.3931  0.3234
 5550SOL    HW121012   1.129   7.673   8.476  0.8145 -0.1994  0.6863
 5550SOL    HW221013   1.023   7.670   8.585  1.2468 -1.2665  1.0860
 5551SOL     OW21014   9.541   9.795  10.562  0.0295  0.3622 -0.2940
 5551SOL    HW121015   9.510   9.705  10.569  0.6829  0.1135 -0.5094
 5551SOL    HW221016   9.462   9.849  10.574 -0.6191 -0.2574 -1.6662
 5552SOL     OW21017   0.372   3.814   2.813  0.1127  0.0617 -0.1601
 5552SOL    HW121018   0.393   3.904   2.788 -0.8041  0.0078 -1.1930
 5552SOL    HW221019   0.288   3.820   2.857 -0.6876 -0.4400 -1.5565
 5553SOL     OW21020   9.255   8.013   8.196 -0.5414  0.3086 -0.1561
 5553SOL    HW121021   9.293   8.045   8.114  1.5728  0.2833  0.7715
 5553SOL    HW221022   9.321   8.030   8.262 -1.6482 -0.9135  1.3390
 5554SOL     OW21023   0.420   4.873   1.694 -0.4782  0.4198  0.4604
 5554SOL    HW121024   0.379   4.919   1.621  2.1099  1.9152 -0.1570
 5554SOL    HW221025   0.493   4.825   1.655 -1.5218 -2.2601  1.5030
 5555SOL     OW21026   7.748  10.700   0.525  0.3729  0.1405  0.0358
 5555SOL    HW121027   7.778  10.689   0.616 -2.8956 -3.4367  0.9320
 5555SOL    HW221028   7.780  10.622   0.480 -0.4762  0.4529 -1.1328
 5556SOL     OW21029   5.147  10.645   9.906  0.1441  0.1538  0.1209
 5556SOL    HW121030   5.140  10.586   9.831  0.6860 -0.2964  0.4168
 5556SOL    HW221031   5.108  10.596   9.978  0.7939  0.0636  0.4149
 5557SOL     OW21032   5.387   5.396  10.453  0.5183  0.0387 -0.4979
 5557SOL    HW121033   5.367   5.478  10.498 -0.3265 -0.4005 -0.0559
 5557SOL    HW221034   5.475   5.409  10.418  1.2820  0.3292  1.4238
 5558SOL     OW21035   1.961   8.112   3.510  0.6645  0.1939  0.1085
 5558SOL    HW121036   1.894   8.053   3.477  2.4434 -1.2639 -1.0748
 5558SOL    HW221037   1.938   8.126   3.602 -1.2960 -0.1509 -0.2889
 5559SOL     OW21038   1.987   6.057   9.267 -0.0197 -0.2193 -0.6746
 5559SOL    HW121039   2.035   6.096   9.340  0.5135  0.5902 -1.4388
 5559SOL    HW221040   2.040   5.982   9.240 -2.0815 -2.9634  2.1656
 5560SOL     OW21041   5.796   0.946   7.194 -1.0321 -0.3862 -0.2266
 5560SOL    HW121042   5.864   1.012   7.185  0.3692 -1.4525  1.6817
 5560SOL    HW221043   5.777   0.943   7.288 -2.5761 -1.2456 -0.5189
 5561SOL     OW21044   9.744   2.620   5.732  0.2836  0.1753 -0.0820
 5561SOL    HW121045   9.648   2.620   5.738  0.0113 -0.7545 -2.9283
 5561SOL    HW221046   9.762   2.653   5.644  2.6748  1.1805  0.7031
 5562SOL     OW21047   3.840   3.477   8.078 -0.0647  0.0913 -0.0289
 5562SOL    HW121048   3.787   3.402   8.053  2.3429 -1.1135 -1.9282
 5562SOL    HW221049   3.897   3.445   8.148  3.1845 -1.0172 -2.9354
 5563SOL     OW21050   4.200   6.875   3.769 -0.1067  0.0044 -0.4679
 5563SOL    HW121051   4.277   6.831   3.733  0.4951  0.4772  0.2060
 5563SOL    HW221052   4.219   6.969   3.759 -0.6497  0.1228 -0.4102
 5564SOL     OW21053   8.147   8.197   9.848 -0.5486  0.1753 -0.2605
 5564SOL    HW121054   8.117   8.242   9.769 -0.9077  0.9634  0.3037
 5564SOL    HW221055   8.086   8.226   9.916  0.0813 -0.0611  0.4191
 5565SOL     OW21056  10.383   3.168   9.730 -0.2188 -0.5936  0.4128
 5565SOL    HW121057  10.295   3.203   9.728  0.6004  1.5954 -0.0218
 5565SOL    HW221058  10.384   3.101   9.661 -0.8222  1.3157 -1.5556
 5566SOL     OW21059   5.902   9.769   4.880  0.3844  0.1285 -0.2308
 5566SOL    HW121060   5.935   9.806   4.798  0.5993  0.5240  0.0326
 5566SOL    HW221061   5.914   9.839   4.944  0.5695 -0.3200  0.2235
 5567SOL     OW21062  10.652  10.473   1.453  0.4534 -0.2343 -0.1600
 5567SOL    HW121063  10.690  10.385   1.446 -2.1625 -1.4251 -0.4129
 5567SOL    HW221064  10.625  10.493   1.363 -0.4787  0.0971  0.1945
 5568SOL     OW21065   9.139   0.826   1.268 -0.2298 -0.4200 -0.2184
 5568SOL    HW121066   9.075   0.896   1.252 -0.4578 -0.3668  0.8588
 5568SOL    HW221067   9.205   0.839   1.200 -0.1688  0.9635  0.0739
 5569SOL     OW21068   9.820   9.904  10.704  0.0708  0.3371 -0.4612
 5569SOL    HW121069   9.734   9.887  10.666  0.2076  0.5815 -0.8836
 5569SOL    HW221070   9.802   9.921  10.796 -0.0638 -2.4866  0.1365
 5570SOL     OW21071   5.839   5.092   5.151  0.0509 -0.4913  0.5151
 5570SOL    HW121072   5.779   5.064   5.220  0.9774 -0.0264  1.5363
 5570SOL    HW221073   5.926   5.075   5.186  0.5681  0.7012 -0.1282
 5571SOL     OW21074   3.785   7.895   8.316  0.6341 -0.4084 -0.1939
 5571SOL    HW121075   3.732   7.939   8.383  1.0870 -0.1844  0.0248
 5571SOL    HW221076   3.875   7.923   8.335  0.8830 -1.1328 -0.2884
 5572SOL     OW21077   7.869   9.701   3.102 -0.1899  0.4067  0.0614
 5572SOL    HW121078   7.778   9.717   3.076 -0.8950 -0.7737  1.5973
 5572SOL    HW221079   7.884   9.609   3.081  0.2184  0.2531  0.9638
 5573SOL     OW21080  11.027   2.946   1.642  0.4485  0.2395 -0.0979
 5573SOL    HW121081  11.004   2.856   1.621  0.1294  0.2832  0.0538
 5573SOL    HW221082  10.950   2.980   1.688 -0.0006  1.0134 -1.3600
 5574SOL     OW21083  10.994   9.251   1.180 -0.2844  0.4860 -0.9190
 5574SOL    HW121084  10.935   9.262   1.254  1.2647  0.7226  0.3562
 5574SOL    HW221085  11.015   9.340   1.153  0.7459  0.4604 -0.2673
 5575SOL     OW21086   6.548   2.576   0.277 -0.0007  0.0830 -0.4155
 5575SOL    HW121087   6.639   2.555   0.301  0.0045 -0.8822 -1.2329
 5575SOL    HW221088   6.496   2.539   0.348  0.2875  1.7844  0.7453
 5576SOL     OW21089  10.881   9.465   9.711 -0.3532 -0.5685 -0.1167
 5576SOL    HW121090  10.854   9.376   9.733 -0.0500 -0.4465  0.7841
 5576SOL    HW221091  10.868   9.515   9.791 -1.6915  0.4958 -0.9455
 5577SOL     OW21092   8.987  11.096   4.482 -0.3902 -0.1084  0.3161
 5577SOL    HW121093   8.991  11.001   4.489 -3.0195 -0.1758  3.6534
 5577SOL    HW221094   8.908  11.113   4.430 -0.8552  0.1751  1.0912
 5578SOL     OW21095   0.527   7.713   2.349 -0.1775  0.1809 -0.3161
 5578SOL    HW121096   0.498   7.682   2.435 -1.0081  0.2777 -0.5506
 5578SOL    HW221097   0.529   7.809   2.359 -1.1629  0.2529 -0.6558
 5579SOL     OW21098   4.004   4.366   0.482  0.2947  0.2547 -0.0223
 5579SOL    HW121099   4.091   4.353   0.445 -1.2830 -0.2382 -4.0422
 5579SOL    HW221100   3.984   4.284   0.527  0.5097 -1.1840 -2.4104
 5580SOL     OW21101   8.360   0.090   4.399 -0.0954  0.4837 -0.1863
 5580SOL    HW121102   8.317   0.175   4.388  0.6853  0.9664  0.3591
 5580SOL    HW221103   8.451   0.106   4.374  0.5201  0.3422  1.7783
 5581SOL     OW21104   0.203   4.544   4.228 -0.3382 -0.5743  0.5548
 5581SOL    HW121105   0.120   4.515   4.190 -0.6886 -0.7269  1.4044
 5581SOL    HW221106   0.270   4.513   4.167 -0.7928 -1.9470  0.7039
 5582SOL     OW21107   5.387   7.839   5.417 -0.3490 -0.1877 -0.0025
 5582SOL    HW121108   5.315   7.897   5.441  1.4170  2.9544 -1.7164
 5582SOL    HW221109   5.344   7.764   5.375 -2.6833  0.6136  0.7969
 5583SOL     OW21110   1.001   7.260   6.814  0.3295 -0.5528  0.4204
 5583SOL    HW121111   1.083   7.265   6.764  0.9838 -1.7890  1.3312
 5583SOL    HW221112   0.961   7.346   6.802  0.5066 -0.7351 -2.1390
 5584SOL     OW21113   3.957  10.869   5.430 -0.0918 -0.2925  0.1486
 5584SOL    HW121114   3.898  10.795   5.415 -0.7940  0.2777  0.0902
 5584SOL    HW221115   3.945  10.925   5.354  0.0710  0.1298  0.4313
 5585SOL     OW21116   2.838   2.263   6.618  0.0489 -0.4285  0.4315
 5585SOL    HW121117   2.862   2.344   6.664  1.8625 -1.3088  1.1413
 5585SOL    HW221118   2.801   2.292   6.535 -0.3637  1.1330  1.1230
 5586SOL     OW21119   5.224   6.624   6.149 -0.3151  1.1995 -0.1831
 5586SOL    HW121120   5.274   6.689   6.099 -0.2935  0.6427 -0.8914
 5586SOL    HW221121   5.158   6.591   6.088  0.4371 -0.3097 -0.2267
 5587SOL     OW21122   7.318   6.210   6.625 -0.6424  0.9078 -0.8180
 5587SOL    HW121123   7.357   6.283   6.673 -0.7599  0.3808  0.1001
 5587SOL    HW221124   7.349   6.221   6.535  0.8081  1.0668 -0.3210
 5588SOL     OW21125   3.044   2.314   1.925 -0.4673 -0.1824  0.0138
 5588SOL    HW121126   2.975   2.254   1.896 -2.4202  1.8419  0.1667
 5588SOL    HW221127   3.031   2.393   1.873  1.4192  0.4808  0.4623
 5589SOL     OW21128   3.220   6.177   0.472 -0.3897  0.3062 -0.4605
 5589SOL    HW121129   3.308   6.212   0.479 -0.2872  0.0141 -0.2423
 5589SOL    HW221130   3.230   6.097   0.419 -0.3619 -0.2583  0.3730
 5590SOL     OW21131   8.432   2.172   0.078 -0.1319 -0.9000  0.5481
 5590SOL    HW121132   8.375   2.182   0.154  0.3316 -1.7515  1.0287
 5590SOL    HW221133   8.388   2.108   0.022 -1.0317  0.5569 -0.4813
 5591SOL     OW21134   7.076   7.830   0.444  0.0268 -0.1577  0.0796
 5591SOL    HW121135   7.081   7.851   0.537 -2.1669  1.1551 -0.0063
 5591SOL    HW221136   7.065   7.735   0.441 -3.0638  0.0294  1.4717
 5592SOL     OW21137   8.424   8.797   3.798 -0.1581  0.0440 -0.1113
 5592SOL    HW121138   8.333   8.824   3.784 -0.1130  0.4374  0.3213
 5592SOL    HW221139   8.417   8.714   3.844 -0.3079  0.4366  0.5928
 5593SOL     OW21140   7.871   7.033   1.103  0.5023  0.6405  0.0784
 5593SOL    HW121141   7.844   7.075   1.021 -0.0439 -1.5007 -0.8930
 5593SOL    HW221142   7.823   6.950   1.105  2.7392 -0.7115  1.1095
 5594SOL     OW21143   9.640   8.100   3.649 -0.4064 -0.2538  0.2469
 5594SOL    HW121144   9.583   8.028   3.620  0.3022 -0.8126  0.2104
 5594SOL    HW221145   9.659   8.149   3.570 -2.4172  1.1221  0.5458
 5595SOL     OW21146   9.200   7.865  10.303 -0.2165  0.1889  0.0742
 5595SOL    HW121147   9.111   7.871  10.269 -0.5221 -1.0308  0.6008
 5595SOL    HW221148   9.230   7.956  10.309 -1.5685  0.6431  0.2660
 5596SOL     OW21149   6.969  10.510   1.801 -0.0516 -0.2998  0.4671
 5596SOL    HW121150   6.934  10.573   1.864 -0.8284 -0.3905  0.1305
 5596SOL    HW221151   7.050  10.550   1.771 -0.6790  0.6862  0.0409
 5597SOL     OW21152   1.611   8.634   4.156  0.1456  0.2708 -0.4107
 5597SOL    HW121153   1.698   8.672   4.143  0.4430 -0.3392 -0.2142
 5597SOL    HW221154   1.573   8.686   4.228 -0.1333  1.3163 -1.2843
 5598SOL     OW21155   4.260   7.396   2.590  0.5995 -0.0217 -0.8253
 5598SOL    HW121156   4.233   7.449   2.515 -0.5685 -1.3282 -1.3691
 5598SOL    HW221157   4.227   7.444   2.666  0.5131  0.5842 -1.2363
 5599SOL     OW21158  10.085   9.162   2.775  0.4178  0.2355  0.1322
 5599SOL    HW121159  10.067   9.175   2.682  0.9173 -1.6253 -0.2644
 5599SOL    HW221160  10.083   9.067   2.787 -0.5565  0.4630  2.2240
 5600SOL     OW21161   8.912   0.550   6.490 -0.0959  0.6583 -0.2467
 5600SOL    HW121162   8.838   0.611   6.491 -0.7321  0.0273 -2.6610
 5600SOL    HW221163   8.955   0.563   6.575 -2.4124  1.7094  0.8663
 5601SOL     OW21164   1.532   5.406   2.906 -0.3473 -0.5508  0.0042
 5601SOL    HW121165   1.476   5.398   2.829 -0.4337 -1.4808  0.1455
 5601SOL    HW221166   1.615   5.367   2.879 -0.2747 -0.5849  0.2771
 5602SOL     OW21167   8.766   7.346   5.746 -0.4917  0.1500  0.1935
 5602SOL    HW121168   8.845   7.292   5.743  0.6241  1.7361 -0.1649
 5602SOL    HW221169   8.713   7.307   5.816  0.8459 -0.6152  0.8182
 5603SOL     OW21170   7.702   6.142  10.609  0.5449  0.6184  0.0566
 5603SOL    HW121171   7.656   6.226  10.599  0.9254  0.8734  0.3941
 5603SOL    HW221172   7.775   6.162  10.667  0.2366 -0.1163  0.7086
 5604SOL     OW21173   9.373   3.819   6.725  0.1187  0.6941 -0.1726
 5604SOL    HW121174   9.324   3.839   6.804  0.9157  0.0507  0.5182
 5604SOL    HW221175   9.406   3.730   6.739 -0.1111  0.3839 -1.4351
 5605SOL     OW21176   7.630   9.060   3.703 -0.0230  0.1877 -0.4541
 5605SOL    HW121177   7.594   9.066   3.615  2.2356 -0.0482 -1.4522
 5605SOL    HW221178   7.623   8.967   3.725  1.3487 -0.1321 -1.2867
 5606SOL     OW21179   4.791   8.372   2.126  0.0426 -0.1637  0.3230
 5606SOL    HW121180   4.795   8.279   2.146 -0.8375 -0.3139 -0.1707
 5606SOL    HW221181   4.882   8.401   2.131  0.7437 -1.6360 -2.1498
 5607SOL     OW21182   4.858   8.407  10.725  0.2698 -0.0124 -0.2061
 5607SOL    HW121183   4.850   8.378  10.634 -1.0315 -2.4167  0.6034
 5607SOL    HW221184   4.950   8.432  10.734 -0.0753  2.7239 -2.7845
 5608SOL     OW21185   0.065   3.965   8.045  0.4138 -0.7290 -0.1821
 5608SOL    HW121186   0.140   4.006   8.089 -0.6310 -0.0835  1.0562
 5608SOL    HW221187   0.065   4.005   7.958  0.2474  0.9475  0.5307
 5609SOL     OW21188   1.952   6.211   3.894  0.1810  0.4067  0.2656
 5609SOL    HW121189   1.986   6.282   3.839  1.2337  0.0382  0.4165
 5609SOL    HW221190   2.021   6.196   3.959 -0.4059 -0.1739  0.7673
 5610SOL     OW21191  10.532   1.588  10.496  0.6634 -0.2022  0.4403
 5610SOL    HW121192  10.487   1.520  10.445  0.4298 -1.1765  1.8763
 5610SOL    HW221193  10.477   1.600  10.573  0.5813  1.8285  0.0983
 5611SOL     OW21194  10.330   3.037   0.119  0.2343  0.4417 -0.8391
 5611SOL    HW121195  10.319   2.959   0.064  0.1497  0.4567 -0.8437
 5611SOL    HW221196  10.419   3.029   0.155 -0.0162 -0.0085 -0.2964
 5612SOL     OW21197   2.532   5.757   6.820 -0.0737 -0.3018  0.0462
 5612SOL    HW121198   2.493   5.693   6.880 -2.4932  0.8628 -0.1652
 5612SOL    HW221199   2.553   5.832   6.876  0.8274 -0.4605 -0.0568
 5613SOL     OW21200   4.157   1.587   9.962  0.4758 -0.3876  0.0482
 5613SOL    HW121201   4.093   1.540   9.908  0.3932  1.1911 -1.3005
 5613SOL    HW221202   4.193   1.520  10.020 -0.9541 -1.7184 -0.5284
 5614SOL     OW21203  10.666   0.702   7.550 -0.2972 -0.0040 -0.0382
 5614SOL    HW121204  10.669   0.648   7.471  2.0831 -0.7445  0.4590
 5614SOL    HW221205  10.638   0.642   7.619  1.9704 -0.6063  0.4419
 5615SOL     OW21206   5.489  10.666   4.950  0.3692  0.4131  0.2416
 5615SOL    HW121207   5.520  10.577   4.934 -1.5988 -0.2665 -0.1543
 5615SOL    HW221208   5.396  10.663   4.928  0.4161  2.7931 -0.5500
 5616SOL     OW21209   3.348   0.945   6.708  0.7621  0.2666 -0.2576
 5616SOL    HW121210   3.431   0.935   6.756  1.0389 -2.1539 -1.1336
 5616SOL    HW221211   3.353   0.881   6.637 -2.7566 -1.6094  0.9420
 5617SOL     OW21212   2.005   4.246   5.351 -0.4166 -0.1082  0.2935
 5617SOL    HW121213   2.071   4.229   5.418 -0.2998 -0.5588  0.0670
 5617SOL    HW221214   2.054   4.249   5.269 -0.4592  1.1144  0.2883
 5618SOL     OW21215   7.700  10.852   1.955  0.1877  0.0076  0.3386
 5618SOL    HW121216   7.696  10.792   2.030  2.4860 -2.2628 -1.1987
 5618SOL    HW221217   7.729  10.935   1.993  1.0238 -1.0043  2.0486
 5619SOL     OW21218  10.413   8.766   8.009 -0.0563 -0.5620  0.1837
 5619SOL    HW121219  10.389   8.673   8.015 -0.3702 -0.5027 -0.1649
 5619SOL    HW221220  10.425   8.793   8.100 -0.7580 -0.7391  0.3338
 5620SOL     OW21221   6.921   9.947   9.542 -0.0505  0.1378  0.2476
 5620SOL    HW121222   6.946   9.892   9.468  1.3177  0.2779  0.5707
 5620SOL    HW221223   6.881   9.887   9.605 -1.6413  0.0875 -0.7529
 5621SOL     OW21224   8.924   8.122   9.215  0.4762 -0.1423 -0.1176
 5621SOL    HW121225   8.930   8.194   9.278  1.1481  0.3366 -0.7286
 5621SOL    HW221226   8.854   8.067   9.250 -0.6018  1.2071 -0.0522
 5622SOL     OW21227   4.480   0.978   0.946 -0.3638 -0.0829  0.1850
 5622SOL    HW121228   4.483   0.883   0.956  0.2555 -0.0162  0.7256
 5622SOL    HW221229   4.523   1.012   1.025  0.3996  0.6150 -0.5045
 5623SOL     OW21230   5.209   6.596   0.745 -0.3587 -0.1896  0.0064
 5623SOL    HW121231   5.126   6.557   0.774  0.4842 -2.2670 -0.1617
 5623SOL    HW221232   5.263   6.596   0.824  0.1506 -0.7933 -0.3358
 5624SOL     OW21233   0.364   0.751  10.023  0.6629  0.1853 -0.5828
 5624SOL    HW121234   0.379   0.793  10.108 -0.7861 -0.8560  0.2436
 5624SOL    HW221235   0.381   0.819   9.958 -3.2289  2.7287  0.6991
 5625SOL     OW21236   1.268   8.732   5.435  0.2788 -0.5911 -0.1904
 5625SOL    HW121237   1.223   8.800   5.484  0.4078 -0.6061 -0.0463
 5625SOL    HW221238   1.231   8.650   5.469  0.8497 -0.6265  0.3802
 5626SOL     OW21239   4.010  10.596   2.653  0.0768  0.6494 -0.1460
 5626SOL    HW121240   4.040  10.507   2.668 -0.4487  0.3975 -0.5918
 5626SOL    HW221241   4.023  10.612   2.560  1.3572  1.4888  0.1514
 5627SOL     OW21242   7.772   5.720   3.180  0.4639 -0.3833  0.1375
 5627SOL    HW121243   7.787   5.645   3.122 -0.6591 -0.0628 -0.5947
 5627SOL    HW221244   7.823   5.699   3.259  0.4440 -1.7515 -0.1783
 5628SOL     OW21245   2.436   6.208   4.024 -0.0421  0.0067  0.3620
 5628SOL    HW121246   2.437   6.288   4.076  1.2769  0.0996  0.2317
 5628SOL    HW221247   2.490   6.229   3.948  1.4560 -1.4136  0.9754
 5629SOL     OW21248   1.701   4.302   7.469 -0.2342  0.5138  0.2684
 5629SOL    HW121249   1.657   4.302   7.554 -0.8534 -0.9954 -0.0052
 5629SOL    HW221250   1.794   4.297   7.490 -0.3286  1.1590  0.8550
 5630SOL     OW21251   6.172   4.049   0.094  0.3373  0.0825  0.0062
 5630SOL    HW121252   6.235   4.086   0.155  0.9002  0.5803 -0.8595
 5630SOL    HW221253   6.225   4.015   0.022 -0.3917  0.7086 -0.8465
 5631SOL     OW21254   5.836   1.282   2.277  0.6736  1.0296  0.1602
 5631SOL    HW121255   5.887   1.327   2.211  1.5791  2.2535  1.6318
 5631SOL    HW221256   5.890   1.208   2.304  0.8966  1.3110  0.4834
 5632SOL     OW21257   8.166   6.738   7.036 -0.2055 -0.2862 -0.5003
 5632SOL    HW121258   8.116   6.819   7.033  0.3250  0.1081  0.8278
 5632SOL    HW221259   8.203   6.729   6.948 -3.2758 -1.0584 -1.8248
 5633SOL     OW21260   2.913  10.965   2.771  0.2902 -0.0397 -0.8366
 5633SOL    HW121261   2.845  10.945   2.707  0.1186 -0.0085 -0.6627
 5633SOL    HW221262   2.986  10.998   2.718  0.2330 -0.2346 -1.0359
 5634SOL     OW21263  11.091   9.134   9.515  0.1595  0.1705  0.2732
 5634SOL    HW121264  11.085   9.144   9.420 -0.2806  0.2556  0.3074
 5634SOL    HW221265  11.080   9.040   9.530 -2.4315  0.4124  0.4064
 5635SOL     OW21266   6.307   7.198   4.325 -0.3804  0.3438 -0.4342
 5635SOL    HW121267   6.386   7.231   4.368 -0.3777 -0.4575  0.1888
 5635SOL    HW221268   6.335   7.119   4.280 -0.7941  0.1317 -0.3245
 5636SOL     OW21269   4.497   4.464  10.440 -0.3052  0.2973 -0.2416
 5636SOL    HW121270   4.570   4.500  10.490 -0.4611  0.4121 -0.0954
 5636SOL    HW221271   4.474   4.533  10.378 -1.3620  0.9308  0.8129
 5637SOL     OW21272   5.639   4.983  11.014 -0.2843  0.3455 -0.0731
 5637SOL    HW121273   5.558   5.000  11.061 -0.1124 -0.6366  0.6279
 5637SOL    HW221274   5.613   4.925  10.942 -0.5546  1.8833 -1.2688
 5638SOL     OW21275  10.930   7.508   9.492 -0.0152  0.4582  0.5477
 5638SOL    HW121276  10.874   7.458   9.434  1.5178  0.1731 -0.7534
 5638SOL    HW221277  10.938   7.594   9.450  0.1442  0.6559  0.9692
 5639SOL     OW21278   7.157   9.992   6.658  0.4883  0.6835  0.5047
 5639SOL    HW121279   7.245  10.029   6.655  0.3117  1.3581  2.4662
 5639SOL    HW221280   7.152   9.947   6.742 -0.3603 -1.2089 -0.4874
 5640SOL     OW21281   7.909   3.362   8.362 -0.1476 -0.4612 -0.8494
 5640SOL    HW121282   7.990   3.369   8.313  0.2017  0.6926 -0.1511
 5640SOL    HW221283   7.913   3.434   8.425 -1.4046 -0.7973 -0.3556
 5641SOL     OW21284   7.770   9.927   8.832  0.1337 -1.1292  0.5350
 5641SOL    HW121285   7.812   9.853   8.789 -0.1792 -1.4233  0.7302
 5641SOL    HW221286   7.808   9.927   8.920  0.9304 -0.4005  0.1984
 5642SOL     OW21287  10.383   6.905  10.222  0.0215 -0.2740  0.5744
 5642SOL    HW121288  10.437   6.887  10.144  0.0641 -1.2223  0.8104
 5642SOL    HW221289  10.295   6.915  10.188  0.4615  2.5245  0.0230
 5643SOL     OW21290   8.530   0.349   8.038  0.2171  0.8101 -0.3292
 5643SOL    HW121291   8.480   0.404   8.099 -2.1032  0.9231 -2.2037
 5643SOL    HW221292   8.598   0.407   8.004  0.8559  1.0587  1.2796
 5644SOL     OW21293   2.224   0.191   6.774  0.1261 -0.4167 -0.4909
 5644SOL    HW121294   2.194   0.104   6.801  0.4751 -0.4915 -0.3377
 5644SOL    HW221295   2.303   0.206   6.825 -1.6008  1.3314  1.8675
 5645SOL     OW21296  10.831   0.562   9.298  0.3668  0.0436  0.2289
 5645SOL    HW121297  10.913   0.611   9.294 -0.8360  2.3289  1.3655
 5645SOL    HW221298  10.834   0.503   9.223  2.8324  0.3592 -0.0034
 5646SOL     OW21299   8.451   0.981   1.646  0.2033 -0.3043 -0.1275
 5646SOL    HW121300   8.512   0.937   1.706 -1.0271 -0.5252  1.0049
 5646SOL    HW221301   8.471   0.944   1.560  1.2025 -0.8684  0.3336
 5647SOL     OW21302   7.321   5.428   4.580  0.1701  0.2437  0.1078
 5647SOL    HW121303   7.225   5.424   4.577  0.1259 -1.7648  1.5990
 5647SOL    HW221304   7.349   5.371   4.508  0.0854 -2.2705  1.9110
 5648SOL     OW21305   0.763   8.011   9.161  0.4550  0.0734 -0.4635
 5648SOL    HW121306   0.784   8.105   9.164  1.4080 -0.1399  1.4221
 5648SOL    HW221307   0.797   7.982   9.076  0.7448  1.3084 -0.7991
 5649SOL     OW21308   4.338   9.171   4.108 -0.1130 -0.4127  0.0294
 5649SOL    HW121309   4.354   9.250   4.160 -0.4449 -1.3339  1.5827
 5649SOL    HW221310   4.425   9.136   4.091 -0.0331 -1.7932  2.7361
 5650SOL     OW21311   9.174   2.237   7.305 -0.0904  0.0361  0.2597
 5650SOL    HW121312   9.143   2.312   7.356 -0.5773  0.6612 -0.9117
 5650SOL    HW221313   9.186   2.272   7.217 -1.0016 -1.4276 -0.4727
 5651SOL     OW21314   8.717   7.341   4.641 -0.1769  0.0622  0.1046
 5651SOL    HW121315   8.647   7.392   4.683  0.2536  1.8833 -1.2354
 5651SOL    HW221316   8.703   7.355   4.547  1.6768  0.0837 -0.2037
 5652SOL     OW21317   6.886   8.603   1.398  0.2038  0.1942  0.6472
 5652SOL    HW121318   6.864   8.541   1.328  0.1638  0.0726  0.7659
 5652SOL    HW221319   6.958   8.656   1.363  2.1956 -1.7489  1.5433
 5653SOL     OW21320   0.986   5.165  10.453 -0.5235  0.4687  0.0371
 5653SOL    HW121321   0.916   5.145  10.391  0.8101 -1.6964 -0.8791
 5653SOL    HW221322   0.954   5.133  10.537 -1.2851  1.0279 -0.0283
 5654SOL     OW21323   9.881   1.651   8.953 -0.0478 -0.5724 -0.6365
 5654SOL    HW121324   9.950   1.714   8.976 -0.0364 -0.8665  0.1753
 5654SOL    HW221325   9.926   1.582   8.904  0.2508 -0.7793 -0.0811
 5655SOL     OW21326   9.881   5.964   7.885 -0.7854 -0.9277  0.7330
 5655SOL    HW121327   9.811   6.007   7.933 -1.5436  0.9811 -1.8081
 5655SOL    HW221328   9.837   5.919   7.813  0.4219 -1.7151  0.4588
 5656SOL     OW21329  11.014   2.875   8.941 -0.0110  0.0830 -0.0366
 5656SOL    HW121330  11.094   2.828   8.964 -0.1533 -0.0564  0.1858
 5656SOL    HW221331  11.033   2.966   8.964  0.2874  0.1472 -0.5255
 5657SOL     OW21332   0.552   4.090   4.387  0.1859  0.5073 -0.1015
 5657SOL    HW121333   0.591   4.025   4.328  0.6639  0.7013 -0.0094
 5657SOL    HW221334   0.620   4.104   4.454 -0.8216 -0.6402  1.2273
 5658SOL     OW21335   8.671   9.363   3.112  0.1932  0.6927  0.4201
 5658SOL    HW121336   8.748   9.339   3.061  1.7191  1.4443  2.2547
 5658SOL    HW221337   8.646   9.283   3.158  1.5367  1.0531  1.8418
 5659SOL     OW21338   8.460   8.688   6.330 -0.4526 -0.3798 -0.0298
 5659SOL    HW121339   8.527   8.749   6.300 -0.0099 -0.5690  0.5684
 5659SOL    HW221340   8.460   8.696   6.425 -0.9762 -0.7036  0.0029
 5660SOL     OW21341   0.536   0.768   3.357 -0.1630  0.4187 -0.4104
 5660SOL    HW121342   0.487   0.689   3.333 -1.2937  1.9670 -3.7669
 5660SOL    HW221343   0.628   0.745   3.342 -0.2362 -0.8779  0.8626
 5661SOL     OW21344   0.448   1.310   5.824  0.2133  0.6720 -0.5236
 5661SOL    HW121345   0.478   1.350   5.905  0.1169 -1.0760  0.4159
 5661SOL    HW221346   0.354   1.300   5.835  0.3780 -0.7656 -0.2778
 5662SOL     OW21347   7.426   5.408   3.120 -0.0800 -0.4567 -0.8483
 5662SOL    HW121348   7.490   5.479   3.126  0.6734 -1.2089  0.7091
 5662SOL    HW221349   7.346   5.445   3.157  0.3087 -0.3888 -0.0407
 5663SOL     OW21350   8.273   3.756   5.356 -0.3843  0.3421 -0.3363
 5663SOL    HW121351   8.291   3.838   5.311 -1.1249 -0.3285 -1.9361
 5663SOL    HW221352   8.205   3.777   5.420 -1.1075  0.8423 -1.2466
 5664SOL     OW21353   7.942   9.740   6.586  0.2438 -0.6827  0.0473
 5664SOL    HW121354   7.922   9.825   6.624 -0.7878 -1.1356  0.5767
 5664SOL    HW221355   7.872   9.683   6.619  0.9698 -1.7479 -0.2179
 5665SOL     OW21356   3.734   8.179   7.001 -0.2569  0.0386  0.5222
 5665SOL    HW121357   3.723   8.226   7.084 -0.4091 -0.3328  0.7132
 5665SOL    HW221358   3.805   8.225   6.957 -2.3449  2.4115 -0.6493
 5666SOL     OW21359   6.149   8.053   9.743 -0.1154  0.4737  0.0619
 5666SOL    HW121360   6.174   7.961   9.742  0.5947  0.6533  0.8405
 5666SOL    HW221361   6.166   8.083   9.654 -1.1349 -0.3338 -0.4366
 5667SOL     OW21362   4.837   0.721   3.386  0.0567 -0.6416 -0.1862
 5667SOL    HW121363   4.849   0.649   3.323  3.4494  0.7468 -1.3229
 5667SOL    HW221364   4.875   0.797   3.343 -0.6843  1.1960  2.2022
 5668SOL     OW21365   2.314   7.973  10.024 -0.1276  0.1293 -0.6450
 5668SOL    HW121366   2.306   7.883   9.993 -0.2815  0.3017 -1.1067
 5668SOL    HW221367   2.250   8.022   9.973  0.4518  0.6321 -0.9062
 5669SOL     OW21368   8.718   7.500   1.080 -0.0746 -0.0823 -0.6192
 5669SOL    HW121369   8.753   7.585   1.053 -1.7222  0.8280 -0.0089
 5669SOL    HW221370   8.648   7.482   1.017  1.3795 -1.8732 -1.8194
 5670SOL     OW21371   9.276   9.926  10.574 -0.0588  0.8578  0.2433
 5670SOL    HW121372   9.326   9.998  10.612  0.8665 -0.2268  1.1668
 5670SOL    HW221373   9.204   9.912  10.635 -0.0522  0.8051  0.2394
 5671SOL     OW21374   3.128   2.993   2.288  0.0176  0.1184 -0.1983
 5671SOL    HW121375   3.191   3.056   2.325  0.7630 -0.3342 -0.6652
 5671SOL    HW221376   3.100   3.034   2.206 -2.5522  1.6924  1.3331
 5672SOL     OW21377   5.587   9.195   5.842 -0.3429  0.5468 -0.3109
 5672SOL    HW121378   5.595   9.173   5.935  0.2920  0.9805 -0.2625
 5672SOL    HW221379   5.635   9.125   5.797  0.4511  1.0264 -0.2333
 5673SOL     OW21380   7.582   9.140   9.535  0.2974 -0.3955  0.2552
 5673SOL    HW121381   7.603   9.230   9.509  1.2121 -0.8393 -0.6349
 5673SOL    HW221382   7.515   9.113   9.472 -0.0122 -0.3239  0.5535
 5674SOL     OW21383   5.219   0.511   5.368 -0.7940 -0.1472 -0.6353
 5674SOL    HW121384   5.204   0.494   5.275  2.0239 -3.5877 -0.6651
 5674SOL    HW221385   5.291   0.574   5.370  0.7318 -1.8087 -0.9249
 5675SOL     OW21386   8.290   1.290   1.966 -0.2504 -0.2771 -0.3686
 5675SOL    HW121387   8.284   1.265   1.874  0.0047  2.8211 -1.3421
 5675SOL    HW221388   8.380   1.268   1.991 -0.3587 -1.2491 -0.7927
 5676SOL     OW21389   1.550   8.821   7.790 -0.1514 -0.3359  0.2014
 5676SOL    HW121390   1.543   8.912   7.759 -0.4769 -0.5878 -0.4741
 5676SOL    HW221391   1.643   8.802   7.786 -0.1677 -0.2946 -0.4271
 5677SOL     OW21392   3.984   4.272   6.657  0.6145  0.6919  0.4029
 5677SOL    HW121393   3.932   4.310   6.586 -1.1464 -0.7168  0.8562
 5677SOL    HW221394   3.964   4.327   6.733 -0.9866 -0.3063  0.7738
 5678SOL     OW21395   0.799   3.936   2.316  0.2094  0.1021  0.3432
 5678SOL    HW121396   0.755   3.932   2.231  2.4212  3.1525 -1.1181
 5678SOL    HW221397   0.786   4.025   2.346 -0.9843 -1.0284  3.6415
 5679SOL     OW21398   8.096   8.346   9.559 -0.4085  0.2572  0.4588
 5679SOL    HW121399   8.127   8.327   9.471 -0.0789  1.6383  0.2482
 5679SOL    HW221400   8.005   8.373   9.547  0.0326  1.8059  0.3269
 5680SOL     OW21401   5.361   1.703   7.211  0.3872 -0.1257 -0.5089
 5680SOL    HW121402   5.296   1.717   7.280  0.4892  0.0503 -0.4481
 5680SOL    HW221403   5.333   1.762   7.140  1.5017  1.3220  0.2045
 5681SOL     OW21404   5.433  10.807   1.795  0.7049 -0.8121 -0.4584
 5681SOL    HW121405   5.470  10.853   1.720 -1.4105 -0.3848 -1.3012
 5681SOL    HW221406   5.395  10.876   1.850  0.3131 -1.2986 -0.1058
 5682SOL     OW21407   7.926   4.170   8.476  0.4418  0.0782 -0.0145
 5682SOL    HW121408   8.020   4.162   8.491  0.5683 -0.6041 -1.0268
 5682SOL    HW221409   7.888   4.095   8.522  1.0742 -3.6349 -4.7549
 5683SOL     OW21410   5.603   2.247   0.137  0.1978 -0.1341 -0.1479
 5683SOL    HW121411   5.522   2.226   0.183 -0.3749 -0.0342 -1.0998
 5683SOL    HW221412   5.644   2.161   0.121 -0.9329 -0.4212 -1.8247
 5684SOL     OW21413   0.368   5.243   0.744 -0.1898  0.5121 -0.0351
 5684SOL    HW121414   0.354   5.236   0.649  0.7200  1.9145 -0.2989
 5684SOL    HW221415   0.412   5.161   0.767  3.2797  1.7207 -1.6133
 5685SOL     OW21416   2.030   1.801   2.927 -0.2885  0.4221  0.5627
 5685SOL    HW121417   1.975   1.879   2.920  0.7978  1.1193 -0.2857
 5685SOL    HW221418   2.092   1.822   2.997 -0.5599 -0.0566  0.9600
 5686SOL     OW21419   4.874   1.712   1.632 -0.2205  0.0200 -0.0624
 5686SOL    HW121420   4.891   1.645   1.566 -0.4446  0.6504 -0.7694
 5686SOL    HW221421   4.811   1.771   1.591 -1.9889 -0.6932  1.4539
 5687SOL     OW21422  10.768   5.867  10.546 -0.5469 -0.1703 -0.0414
 5687SOL    HW121423  10.819   5.946  10.564 -0.7827 -0.2393  1.0294
 5687SOL    HW221424  10.749   5.831  10.633 -0.1085 -1.6294 -0.5231
 5688SOL     OW21425   5.828   8.687   6.637 -0.0169 -0.0690 -0.8669
 5688SOL    HW121426   5.777   8.623   6.687 -0.9945  1.4472  0.1792
 5688SOL    HW221427   5.826   8.766   6.691  2.4611  0.4224 -1.3810
 5689SOL     OW21428   7.795   8.159   0.169  0.4675 -0.2153 -0.4209
 5689SOL    HW121429   7.789   8.248   0.202 -0.7522  0.7683 -2.9668
 5689SOL    HW221430   7.886   8.133   0.183  0.3077  0.4664  2.4601
 5690SOL     OW21431   4.723   4.547   8.466 -0.0691 -0.6032 -0.6129
 5690SOL    HW121432   4.749   4.540   8.558  2.2895  0.1724 -1.1663
 5690SOL    HW221433   4.771   4.477   8.422 -0.6857 -0.5673 -1.3731
 5691SOL     OW21434   2.833   1.246   2.949  0.6202 -0.4732 -0.1230
 5691SOL    HW121435   2.798   1.297   3.022 -0.6832  2.0104 -2.3075
 5691SOL    HW221436   2.928   1.261   2.952  0.5323 -0.0440  0.7834
 5692SOL     OW21437   7.891   3.492   9.630  0.2016  0.4409  0.0949
 5692SOL    HW121438   7.821   3.434   9.663  0.0560  1.3119  1.3878
 5692SOL    HW221439   7.955   3.495   9.701  0.6645  1.1200 -0.3419
 5693SOL     OW21440   8.665   7.724  10.962  0.4454  0.2093  0.9421
 5693SOL    HW121441   8.713   7.643  10.943 -2.3717 -1.2161 -0.6419
 5693SOL    HW221442   8.672   7.776  10.882 -0.1431  0.2508  0.9154
 5694SOL     OW21443   1.055   3.556   9.033  0.0740  0.2402  0.2361
 5694SOL    HW121444   1.020   3.481   9.080  1.0050  0.0535  0.6515
 5694SOL    HW221445   0.990   3.575   8.966  0.2528 -1.5080 -0.4718
 5695SOL     OW21446   5.164   8.824   3.970 -0.3974  0.6151 -0.3370
 5695SOL    HW121447   5.185   8.916   3.952  0.5586  0.1416 -1.8367
 5695SOL    HW221448   5.101   8.828   4.042 -0.3520  2.4393 -0.3358
 5696SOL     OW21449   2.412   0.035  10.475 -1.0193  0.4042 -0.1271
 5696SOL    HW121450   2.394  -0.034  10.539  0.0353  0.7972  0.6184
 5696SOL    HW221451   2.507   0.037  10.468 -1.0835  1.0570 -0.9649
 5697SOL     OW21452   0.079  10.330   4.771 -0.1368 -0.0478  0.1364
 5697SOL    HW121453   0.097  10.413   4.814  0.7256 -0.6738  1.0171
 5697SOL    HW221454  -0.014  10.313   4.791  0.2971 -0.4352  1.9841
 5698SOL     OW21455   6.579   2.558   7.185  0.0812  0.1559 -0.2462
 5698SOL    HW121456   6.671   2.566   7.210  0.8103 -2.0180 -1.8835
 5698SOL    HW221457   6.534   2.536   7.267  1.2402 -0.0768  0.3505
 5699SOL     OW21458   3.844   4.787  10.814 -0.9244 -0.1976  0.5706
 5699SOL    HW121459   3.826   4.838  10.735 -0.7809  0.4543  0.9516
 5699SOL    HW221460   3.903   4.718  10.786 -2.0782 -0.9092 -0.2106
 5700SOL     OW21461  10.006   7.776  10.951  0.2326 -0.1096  0.3397
 5700SOL    HW121462  10.054   7.709  10.902  0.5138 -0.0606  0.5473
 5700SOL    HW221463   9.988   7.844  10.887  3.5265  1.5440  0.9665
 5701SOL     OW21464   1.519   9.445  10.581 -0.1371  0.0155 -0.1146
 5701SOL    HW121465   1.536   9.378  10.514 -1.4906 -0.3478 -0.1321
 5701SOL    HW221466   1.425   9.462  10.573  0.1808  1.9444 -0.1020
 5702SOL     OW21467   1.005   8.197   9.807 -0.3014  0.0530 -0.1379
 5702SOL    HW121468   1.080   8.203   9.866 -0.0546 -1.1440 -0.3028
 5702SOL    HW221469   0.933   8.166   9.861 -0.9987  2.1473  0.2493
 5703SOL     OW21470  10.652   1.394   2.577  0.0917  0.2883 -0.4632
 5703SOL    HW121471  10.709   1.350   2.640 -0.0760 -1.5859 -1.5600
 5703SOL    HW221472  10.710   1.454   2.531  0.7909 -0.2606 -0.3179
 5704SOL     OW21473   5.136   7.184   0.817 -0.5111 -0.2850  0.3805
 5704SOL    HW121474   5.092   7.101   0.834  0.9059 -1.4066 -1.0455
 5704SOL    HW221475   5.180   7.206   0.899 -1.0214 -0.8683  0.8194
 5705SOL     OW21476   8.238   4.823   2.963 -0.3525  0.1620 -0.0719
 5705SOL    HW121477   8.267   4.767   2.891 -1.3301 -0.0436 -0.3220
 5705SOL    HW221478   8.172   4.771   3.008  1.6825 -0.5847  2.2896
 5706SOL     OW21479   6.576   8.790   7.058  0.3549 -0.3233  0.4808
 5706SOL    HW121480   6.496   8.775   7.008  0.4321  0.2465  0.1782
 5706SOL    HW221481   6.629   8.846   7.002  0.5514  0.1108  1.0860
 5707SOL     OW21482  10.056   9.288   8.215 -0.1192  0.1565  0.3012
 5707SOL    HW121483  10.123   9.356   8.219 -0.3502  0.3885  0.1953
 5707SOL    HW221484   9.973   9.334   8.224 -0.3356  0.0103 -0.7828
 5708SOL     OW21485   7.756   1.996   5.517 -0.3188 -0.0925  0.2121
 5708SOL    HW121486   7.806   1.942   5.577 -0.7231  0.5508  1.1659
 5708SOL    HW221487   7.699   2.048   5.574 -0.8707  0.3830 -0.7448
 5709SOL     OW21488   3.474   2.676   7.566  0.4606  0.1582  0.0068
 5709SOL    HW121489   3.524   2.752   7.595  0.4664 -0.0477  0.5309
 5709SOL    HW221490   3.425   2.708   7.490  1.3392  0.3717 -0.4792
 5710SOL     OW21491   6.403   3.066   3.989  0.6877  0.7522 -0.2992
 5710SOL    HW121492   6.371   3.110   4.068  2.2285  1.2569  0.0906
 5710SOL    HW221493   6.347   2.989   3.980  0.1507  0.9579  0.9984
 5711SOL     OW21494   4.048   1.552   5.853  0.3162  0.3218  0.0372
 5711SOL    HW121495   3.982   1.561   5.921 -0.4555  1.3638 -0.8122
 5711SOL    HW221496   4.003   1.575   5.772  0.9792 -1.6488 -0.9843
 5712SOL     OW21497   9.772   7.013  10.934  0.6759 -0.3339 -0.0260
 5712SOL    HW121498   9.743   6.983  11.020 -0.0356 -0.0562 -0.1643
 5712SOL    HW221499   9.736   7.101  10.926  0.4079 -0.5064 -0.7709
 5713SOL     OW21500   6.844   3.498   5.443 -0.2800 -0.2903  0.0424
 5713SOL    HW121501   6.777   3.541   5.391 -1.3611  2.4795  3.3350
 5713SOL    HW221502   6.821   3.519   5.534  4.1396 -0.5068  1.4579
 5714SOL     OW21503   4.938   8.462   5.629  0.5053 -0.2173 -0.1796
 5714SOL    HW121504   4.916   8.417   5.711 -0.6598  1.0894  0.2846
 5714SOL    HW221505   4.975   8.546   5.658 -0.8339  0.6817 -0.9292
 5715SOL     OW21506   5.784   3.810   0.631  0.1675 -0.3559  0.1743
 5715SOL    HW121507   5.855   3.773   0.579 -0.4687 -0.9458 -0.2886
 5715SOL    HW221508   5.812   3.900   0.650  1.1436 -0.6545  0.2114
 5716SOL     OW21509   9.682   7.645   9.927 -0.5331  0.0029  0.0918
 5716SOL    HW121510   9.629   7.610   9.855 -2.1674  2.0881  0.1808
 5716SOL    HW221511   9.637   7.616  10.006 -1.4597  1.5847  0.1726
 5717SOL     OW21512   3.536   8.986   7.217  0.5405  0.5509  0.1871
 5717SOL    HW121513   3.623   9.016   7.246  2.0501 -0.7847 -2.5510
 5717SOL    HW221514   3.550   8.955   7.128 -2.3702 -1.6431  0.3516
 5718SOL     OW21515   5.991   4.667   5.022 -0.4115 -0.3362 -0.3092
 5718SOL    HW121516   6.004   4.581   5.060  2.2741  0.0935 -0.0670
 5718SOL    HW221517   5.987   4.726   5.097  3.1535  0.2982 -0.4334
 5719SOL     OW21518   8.717   1.010   2.083  0.5923  0.2538  0.4057
 5719SOL    HW121519   8.625   1.034   2.098  0.6282 -0.8766  3.0091
 5719SOL    HW221520   8.767   1.071   2.138  1.0863 -1.4366  1.9439
 5720SOL     OW21521   6.507   1.857   8.091 -0.4211  0.1480 -0.2044
 5720SOL    HW121522   6.542   1.784   8.142 -0.6396 -0.9092 -1.4862
 5720SOL    HW221523   6.568   1.929   8.106  0.0339 -0.4192  0.7711
 5721SOL     OW21524  10.360  10.469   6.860 -0.1473 -0.0678  0.3560
 5721SOL    HW121525  10.281  10.432   6.899  0.5561 -1.7000  0.3446
 5721SOL    HW221526  10.431  10.442   6.919  0.5253  0.4353 -0.2027
 5722SOL     OW21527   1.228   0.532   2.817 -0.2094  0.0044 -0.2339
 5722SOL    HW121528   1.314   0.492   2.829 -0.4537 -0.4332  0.0972
 5722SOL    HW221529   1.190   0.533   2.905  0.0928  1.6764 -0.0997
 5723SOL     OW21530   3.296   1.418   3.254  0.2160 -0.5996  0.3590
 5723SOL    HW121531   3.206   1.392   3.236  0.1923 -0.1679 -0.1629
 5723SOL    HW221532   3.350   1.357   3.203  0.1649  0.2396 -0.7371
 5724SOL     OW21533   3.744   7.912   2.843  0.3225  0.5221  0.9783
 5724SOL    HW121534   3.799   7.944   2.771  1.0311  1.5083  1.9078
 5724SOL    HW221535   3.703   7.833   2.809  1.9483  0.0185  0.0629
 5725SOL     OW21536   6.391   0.552   4.898  0.8033 -0.3316 -0.6031
 5725SOL    HW121537   6.427   0.638   4.880 -1.0074  0.5313 -0.3433
 5725SOL    HW221538   6.460   0.507   4.947  0.4499  2.3865  2.8085
 5726SOL     OW21539   3.223   2.939   7.066  0.5371  0.2252  0.1221
 5726SOL    HW121540   3.146   2.965   7.116 -0.2022 -0.2204 -0.7454
 5726SOL    HW221541   3.205   2.849   7.040  1.8334 -0.2544  0.7815
 5727SOL     OW21542   9.950   7.362   2.404  0.4816 -0.5177 -0.0411
 5727SOL    HW121543   9.900   7.374   2.323 -0.5603  0.0479  0.6560
 5727SOL    HW221544  10.040   7.348   2.375  0.2978  0.6533 -1.2599
 5728SOL     OW21545   1.267   4.568   4.106 -0.1185  0.3496 -0.2978
 5728SOL    HW121546   1.225   4.484   4.125 -0.7345  0.5687 -0.6528
 5728SOL    HW221547   1.307   4.557   4.020  1.1096 -0.0561  0.2969
 5729SOL     OW21548   1.850   8.215   0.952  0.1092 -0.1765  0.1861
 5729SOL    HW121549   1.838   8.282   1.019 -1.8247 -0.3175  0.0573
 5729SOL    HW221550   1.838   8.132   0.998 -0.8438 -0.2874 -0.2236
 5730SOL     OW21551   2.199   4.559   0.756 -0.2195  0.0637  0.6360
 5730SOL    HW121552   2.116   4.605   0.765 -0.6459 -0.7479  0.9730
 5730SOL    HW221553   2.221   4.531   0.845  0.2454 -0.0148  0.4999
 5731SOL     OW21554   3.735   0.651   2.046 -0.3927 -0.1731  0.3759
 5731SOL    HW121555   3.787   0.673   2.124 -0.5069  0.6560  0.2344
 5731SOL    HW221556   3.730   0.734   1.998 -0.8431 -0.5361 -0.2062
 5732SOL     OW21557  10.122   5.781   0.977  0.1785 -0.9794 -0.3970
 5732SOL    HW121558  10.161   5.697   0.956  0.2568 -0.9572 -0.3427
 5732SOL    HW221559  10.170   5.844   0.923 -1.6802 -1.2700 -2.5284
 5733SOL     OW21560   4.927   6.264   1.339  0.3491  0.6520 -0.2652
 5733SOL    HW121561   4.996   6.326   1.319  1.0954 -0.4430 -1.2156
 5733SOL    HW221562   4.901   6.285   1.429  2.8658  0.2374  0.6368
 5734SOL     OW21563   3.839   2.369   2.336 -0.2667  0.3692 -0.5200
 5734SOL    HW121564   3.748   2.369   2.304  0.0128 -0.7664 -1.3908
 5734SOL    HW221565   3.833   2.402   2.426 -1.5999 -0.0958 -0.4144
 5735SOL     OW21566   6.795   0.802  10.560 -0.3880  0.3590 -0.1065
 5735SOL    HW121567   6.789   0.707  10.555  0.0891  0.0663  2.7693
 5735SOL    HW221568   6.820   0.830  10.472  0.2595 -2.2301 -0.8285
 5736SOL     OW21569   4.099   9.550   2.026 -0.0228 -0.4639  0.5240
 5736SOL    HW121570   4.047   9.616   2.072  1.3105  0.2340  1.0782
 5736SOL    HW221571   4.041   9.518   1.957 -1.6196 -0.5861  1.8497
 5737SOL     OW21572   1.150   4.512   5.164  0.4594  0.2942 -0.1099
 5737SOL    HW121573   1.120   4.429   5.126  1.6837 -0.0901 -0.2881
 5737SOL    HW221574   1.144   4.575   5.093  1.9436 -0.2357 -0.7452
 5738SOL     OW21575   4.987   9.282   1.058 -0.0205  0.1503  0.7146
 5738SOL    HW121576   4.913   9.221   1.059  0.6427 -0.6854  0.5882
 5738SOL    HW221577   4.988   9.319   0.970 -0.3281  0.2169  0.7391
 5739SOL     OW21578   2.594   5.430   2.345 -0.3801 -0.0955 -0.4102
 5739SOL    HW121579   2.528   5.419   2.276 -0.3283  0.5579 -0.5725
 5739SOL    HW221580   2.667   5.375   2.316 -1.3118 -1.8717  0.4180
 5740SOL     OW21581   0.768   0.191   7.460  0.0594 -0.1364 -0.1373
 5740SOL    HW121582   0.705   0.167   7.391  1.0795 -0.5394 -0.9597
 5740SOL    HW221583   0.739   0.277   7.490 -1.9391 -1.0639  0.7765
 5741SOL     OW21584   2.306   5.376   8.683  0.4173 -0.0118 -0.5962
 5741SOL    HW121585   2.389   5.416   8.708 -0.9247  1.7986  1.3330
 5741SOL    HW221586   2.287   5.314   8.754 -1.1248  1.6153  0.4934
 5742SOL     OW21587   1.064   2.566   0.915 -0.1870  0.0421 -0.1275
 5742SOL    HW121588   1.113   2.601   0.841 -0.0639  0.3284  0.0846
 5742SOL    HW221589   1.020   2.488   0.881 -0.1116  0.1576 -0.4931
 5743SOL     OW21590   3.614   3.625   5.657 -0.2684  0.1198  0.4339
 5743SOL    HW121591   3.627   3.604   5.750  0.3971 -1.3150  0.0544
 5743SOL    HW221592   3.643   3.715   5.649  0.2958  0.0620  1.5122
 5744SOL     OW21593   4.573   0.093   7.770  0.1516 -0.4835 -0.4587
 5744SOL    HW121594   4.623   0.154   7.824 -0.4054 -0.6917  0.3195
 5744SOL    HW221595   4.515   0.048   7.832 -1.7859  0.5081 -1.4709
 5745SOL     OW21596   2.324   3.342   6.533  0.2829  0.1490 -0.2814
 5745SOL    HW121597   2.396   3.404   6.534  0.1384  0.3189 -0.3009
 5745SOL    HW221598   2.285   3.352   6.446 -1.3756  1.9404  0.5845
 5746SOL     OW21599   9.726   2.542   7.871  0.1843 -0.0526  0.0894
 5746SOL    HW121600   9.763   2.561   7.958 -0.5847 -0.9460  0.6283
 5746SOL    HW221601   9.680   2.622   7.846  1.3522  0.6181 -0.0201
 5747SOL     OW21602   2.969   0.042   9.300 -0.4703 -0.3089 -0.3457
 5747SOL    HW121603   3.028   0.082   9.236 -0.2109  1.4290  0.8958
 5747SOL    HW221604   2.916  -0.020   9.250  1.8014 -1.2943 -1.6653
 5748SOL     OW21605   0.341   6.747   4.285 -0.5453  0.2488  0.0882
 5748SOL    HW121606   0.418   6.765   4.339  0.0292 -0.1384 -0.5786
 5748SOL    HW221607   0.368   6.771   4.196 -0.6411 -1.3889 -0.4107
 5749SOL     OW21608   4.134   8.418   9.165  0.0141  0.1007  0.2676
 5749SOL    HW121609   4.107   8.422   9.073 -1.1030 -1.1966  0.5130
 5749SOL    HW221610   4.165   8.507   9.185  0.0723  0.4544 -1.2876
 5750SOL     OW21611   8.073   4.699  10.203  0.3685 -0.1878 -0.3497
 5750SOL    HW121612   8.003   4.651  10.159  0.0729 -0.0430 -0.0435
 5750SOL    HW221613   8.152   4.648  10.185  0.1247 -0.5623 -0.3729
 5751SOL     OW21614   1.215   6.604  10.722 -0.2097 -0.0494  0.2391
 5751SOL    HW121615   1.142   6.625  10.780  0.1628 -0.5876  0.9293
 5751SOL    HW221616   1.178   6.606  10.634 -0.8472  0.5381  0.5155
 5752SOL     OW21617   2.383   3.013   6.541 -0.0457  0.0588  0.8589
 5752SOL    HW121618   2.373   3.106   6.521  1.4345  0.5951  2.2867
 5752SOL    HW221619   2.441   2.980   6.472  0.1216  0.4207  0.8207
 5753SOL     OW21620   1.344   8.041   4.813 -0.5568 -0.1784  0.0401
 5753SOL    HW121621   1.400   8.103   4.766  0.2977 -0.1561  1.0459
 5753SOL    HW221622   1.339   8.076   4.902 -1.0682 -0.9064  0.3057
 5754SOL     OW21623   9.980   0.430   8.349  0.9106 -0.9452  0.3476
 5754SOL    HW121624  10.055   0.380   8.315  2.3962  1.1823  0.2705
 5754SOL    HW221625   9.990   0.426   8.444  1.2099 -0.5834  0.3358
 5755SOL     OW21626  10.289   0.178   5.472 -0.1405 -0.1435 -0.2229
 5755SOL    HW121627  10.268   0.270   5.488  0.7753  0.1161 -0.4490
 5755SOL    HW221628  10.204   0.134   5.469 -0.5613  0.5884  0.5076
 5756SOL     OW21629   8.961  10.679  11.006 -0.1907  0.0379 -0.0530
 5756SOL    HW121630   9.045  10.714  10.977 -0.5930  0.1705 -1.0862
 5756SOL    HW221631   8.982  10.631  11.086  0.8586  0.1100 -0.2647
 5757SOL     OW21632   2.371   6.034   8.816 -0.1410  0.0947 -0.8902
 5757SOL    HW121633   2.425   6.105   8.848 -1.7159  1.5262 -1.2448
 5757SOL    HW221634   2.399   6.021   8.725 -0.7703  1.2525 -1.2701
 5758SOL     OW21635  11.104   7.234   3.634 -0.3771 -0.9232  0.3966
 5758SOL    HW121636  11.147   7.271   3.711  0.5826 -1.1491 -0.0142
 5758SOL    HW221637  11.081   7.145   3.659  0.3606 -1.1507  0.2662
 5759SOL     OW21638   1.317   7.733   1.282 -0.1004 -0.5147 -0.2299
 5759SOL    HW121639   1.390   7.757   1.225 -0.9661  0.7529 -0.8424
 5759SOL    HW221640   1.292   7.645   1.253  0.5860 -0.5877 -0.6178
 5760SOL     OW21641   9.004   9.256   9.209  0.0887  0.3339  0.0400
 5760SOL    HW121642   8.976   9.185   9.265  0.1674 -0.7405 -1.2379
 5760SOL    HW221643   9.096   9.237   9.190  0.2731  1.0824  0.1318
 5761SOL     OW21644   6.880   0.027   7.246 -0.0491 -0.8233 -0.2763
 5761SOL    HW121645   6.966   0.069   7.249 -0.3090 -0.0796 -1.8756
 5761SOL    HW221646   6.899  -0.067   7.251  0.7949 -0.6440  0.1102
 5762SOL     OW21647   0.122   3.270   2.888  0.6908  0.3525  0.3507
 5762SOL    HW121648   0.162   3.189   2.919  1.6957  0.7507  0.1376
 5762SOL    HW221649   0.191   3.312   2.836  0.5037  1.7747  1.2006
 5763SOL     OW21650   2.354   0.550   0.905 -0.0806 -0.4091 -0.0939
 5763SOL    HW121651   2.325   0.502   0.983  2.1121 -0.9847  0.4390
 5763SOL    HW221652   2.392   0.631   0.940 -0.9684  0.3206 -0.7635
 5764SOL     OW21653   9.451  10.402   9.828 -0.0006  0.6241 -0.2048
 5764SOL    HW121654   9.384  10.361   9.882  1.0414 -0.4632  0.3008
 5764SOL    HW221655   9.418  10.490   9.811 -1.3175  0.2706  0.4333
 5765SOL     OW21656   1.723  10.577   8.918  0.6136 -0.6597  0.4098
 5765SOL    HW121657   1.698  10.623   8.998  0.6529 -1.5839  0.9666
 5765SOL    HW221658   1.714  10.643   8.849 -1.2519 -0.3622  0.8972
 5766SOL     OW21659   9.653   4.432   7.214  0.0322 -0.0889 -0.1251
 5766SOL    HW121660   9.668   4.525   7.231 -1.1441 -0.2035  1.8084
 5766SOL    HW221661   9.599   4.431   7.135  1.0136  0.7890 -0.8294
 5767SOL     OW21662   1.427   4.791   7.589 -0.0276 -0.5818  0.7652
 5767SOL    HW121663   1.412   4.756   7.501  2.3322 -2.2043  0.9134
 5767SOL    HW221664   1.478   4.871   7.576 -0.6714 -0.1860  0.6367
 5768SOL     OW21665   8.671   8.420   4.108 -0.8132  0.0572  0.1730
 5768SOL    HW121666   8.657   8.512   4.087 -1.1116  0.2829  1.2841
 5768SOL    HW221667   8.761   8.417   4.140 -1.1711  0.1905  1.2353
 5769SOL     OW21668   2.478   6.679   3.495  0.0404 -0.3464 -0.0549
 5769SOL    HW121669   2.421   6.629   3.436  1.0756 -0.6709 -0.8129
 5769SOL    HW221670   2.565   6.640   3.483  0.2279 -0.6666  1.9854
 5770SOL     OW21671   0.643   7.228   4.127 -0.0273  0.4058 -0.2332
 5770SOL    HW121672   0.603   7.172   4.060  1.7694 -1.3437  0.0628
 5770SOL    HW221673   0.570   7.255   4.183 -1.0578 -1.1214 -0.7678
 5771SOL     OW21674   7.453  10.987   3.123  0.2000  0.2050  0.3392
 5771SOL    HW121675   7.366  10.950   3.137  0.2439  0.2109  0.6322
 5771SOL    HW221676   7.454  11.013   3.030  1.4424 -4.0678 -1.0946
 5772SOL     OW21677  10.227   9.879   2.439 -0.3059  0.2326 -0.1936
 5772SOL    HW121678  10.141   9.866   2.480 -0.0222  1.6490  0.9533
 5772SOL    HW221679  10.287   9.827   2.492 -0.3001  0.1154 -0.3171
 5773SOL     OW21680  10.520   4.803   3.001 -0.8222  0.0853 -0.1660
 5773SOL    HW121681  10.525   4.710   2.978  0.9503  0.0829  0.1226
 5773SOL    HW221682  10.531   4.848   2.917 -0.1622  0.0391 -0.1066
 5774SOL     OW21683   0.639   6.351   6.747  0.5496 -0.6148 -0.4658
 5774SOL    HW121684   0.584   6.294   6.801 -1.2660  0.3671 -1.2035
 5774SOL    HW221685   0.717   6.299   6.730  0.6128 -1.4637  1.9475
 5775SOL     OW21686   5.086  10.441   0.182  0.3792 -0.2525  0.4479
 5775SOL    HW121687   5.064  10.534   0.181  1.2357 -0.0493  0.2052
 5775SOL    HW221688   5.027  10.403   0.248  0.6627  0.6088  1.2108
 5776SOL     OW21689   7.030   7.350   0.524  0.0536 -0.2469 -0.2089
 5776SOL    HW121690   7.119   7.366   0.493  0.8217  2.1030  2.7554
 5776SOL    HW221691   7.022   7.403   0.603 -3.5022 -1.5752  0.5126
 5777SOL     OW21692   9.694   4.020  10.496  0.1469 -0.0725 -0.5301
 5777SOL    HW121693   9.753   4.044  10.424  0.6808  1.0807  0.2551
 5777SOL    HW221694   9.739   4.052  10.575 -0.9458 -0.3089  0.2081
 5778SOL     OW21695   6.972   5.553   7.266 -0.7826 -0.3184  0.3440
 5778SOL    HW121696   6.953   5.634   7.312  0.9568  1.5359 -1.9344
 5778SOL    HW221697   6.920   5.558   7.185 -0.6354 -1.4830  0.1524
 5779SOL     OW21698   0.001   4.313   6.248  0.4482 -0.1334 -0.2371
 5779SOL    HW121699  -0.016   4.295   6.341 -0.9027  2.4674  0.0974
 5779SOL    HW221700   0.095   4.296   6.237  0.5367 -0.9623  1.4464
 5780SOL     OW21701   3.699   3.561   7.207  0.3854 -0.5162  0.2616
 5780SOL    HW121702   3.701   3.608   7.290  0.5986 -0.5427  0.2723
 5780SOL    HW221703   3.786   3.521   7.200  0.7088  0.2814 -0.4419
 5781SOL     OW21704   3.903   4.929   1.783  0.2912 -0.2180  0.3891
 5781SOL    HW121705   3.894   4.848   1.834  0.6021 -1.0651 -0.8703
 5781SOL    HW221706   3.852   4.914   1.704  0.6150  0.7059 -0.0065
 5782SOL     OW21707   1.345   8.307  11.048 -0.1197  0.1035 -0.2412
 5782SOL    HW121708   1.422   8.307  10.991 -0.4239  1.0225 -0.6702
 5782SOL    HW221709   1.381   8.312  11.136  0.3227  0.3459 -0.4303
 5783SOL     OW21710   5.568   7.011   7.607 -0.1254 -0.0660 -0.8222
 5783SOL    HW121711   5.543   6.943   7.545 -1.2538 -0.4852  0.0624
 5783SOL    HW221712   5.512   7.086   7.584  1.3410  0.7256 -2.0084
 5784SOL     OW21713   1.653   8.707   0.616 -0.5475 -0.0990 -0.0235
 5784SOL    HW121714   1.658   8.673   0.706  0.2269 -2.4648 -0.8770
 5784SOL    HW221715   1.565   8.682   0.586  0.0830 -1.6585 -0.7090
 5785SOL     OW21716   2.232   6.602   3.770  0.3965 -0.2499 -0.2989
 5785SOL    HW121717   2.322   6.571   3.773  0.3945 -0.2332  0.0645
 5785SOL    HW221718   2.216   6.624   3.679  0.4891 -1.0577 -0.5149
 5786SOL     OW21719   1.517  10.728   1.683  0.5494  0.0298 -0.6022
 5786SOL    HW121720   1.527  10.765   1.770  1.0123 -0.7231 -0.3283
 5786SOL    HW221721   1.562  10.790   1.625 -1.1364  1.3803 -0.5442
 5787SOL     OW21722  10.599   8.896   6.235 -0.7745  0.1100  0.1261
 5787SOL    HW121723  10.664   8.840   6.278 -1.4218 -0.8291 -0.0924
 5787SOL    HW221724  10.523   8.892   6.292 -1.1010  0.1274 -0.3096
 5788SOL     OW21725   6.366   1.939   0.896  0.0922 -0.6885 -0.2367
 5788SOL    HW121726   6.422   1.994   0.841  0.7227  0.4539  1.4646
 5788SOL    HW221727   6.284   1.933   0.847  0.1137  1.5228 -0.6694
 5789SOL     OW21728   7.300   8.130   1.307 -0.0075 -0.1742 -0.4213
 5789SOL    HW121729   7.225   8.187   1.289  0.5964  0.9001  0.3484
 5789SOL    HW221730   7.376   8.180   1.277  0.5641 -0.4446  0.5448
 5790SOL     OW21731   0.956   5.733   9.790 -0.4817 -0.1650  0.4933
 5790SOL    HW121732   0.917   5.655   9.828 -1.7350 -0.5117 -1.3776
 5790SOL    HW221733   1.012   5.701   9.720 -1.4191  0.6173 -0.6441
 5791SOL     OW21734   4.724  10.230   0.206 -0.4834  0.1648  0.1206
 5791SOL    HW121735   4.741  10.238   0.112  0.4910 -1.5002  0.1107
 5791SOL    HW221736   4.639  10.272   0.219 -0.5559  0.5823 -1.4658
 5792SOL     OW21737   0.629   4.869   3.068 -0.2454  0.3156  0.0732
 5792SOL    HW121738   0.644   4.871   3.162 -1.1988  2.1933  0.2224
 5792SOL    HW221739   0.665   4.951   3.036  3.4932 -1.8242 -1.8560
 5793SOL     OW21740   4.409   9.957   8.854  0.3341  0.2752 -0.4951
 5793SOL    HW121741   4.461   9.922   8.926  0.7988  0.1139 -0.8983
 5793SOL    HW221742   4.341  10.009   8.896  1.9392  2.0713  0.0404
 5794SOL     OW21743   9.431   2.456   6.934  0.2972  0.1430  0.2675
 5794SOL    HW121744   9.458   2.548   6.933 -0.3732  0.3619 -1.1215
 5794SOL    HW221745   9.494   2.413   6.990  1.5492  1.1980 -0.2834
 5795SOL     OW21746   4.368   4.060   6.136  0.1573  0.3366 -0.2901
 5795SOL    HW121747   4.284   4.062   6.091 -0.2633 -0.1029  0.4715
 5795SOL    HW221748   4.431   4.087   6.069 -0.8428  2.9651 -0.2857
 5796SOL     OW21749   6.319   2.033   2.838  0.7928 -0.2524  0.1284
 5796SOL    HW121750   6.241   2.039   2.783 -0.6876  2.0136  2.2548
 5796SOL    HW221751   6.388   2.000   2.779 -1.2349 -0.3646 -2.3558
 5797SOL     OW21752   8.145   5.491   3.900 -0.1269 -0.5850  0.1820
 5797SOL    HW121753   8.118   5.536   3.820  1.4702  0.0501 -0.0384
 5797SOL    HW221754   8.186   5.559   3.953 -1.6790 -0.8633  1.8382
 5798SOL     OW21755   1.763   9.019   4.326  0.0254 -0.0013  0.1624
 5798SOL    HW121756   1.752   9.112   4.345 -0.6055  0.1903 -1.0550
 5798SOL    HW221757   1.810   8.985   4.402  0.8287  1.4265  0.3435
 5799SOL     OW21758   9.401   0.616   2.788 -0.5556 -0.5007  0.3097
 5799SOL    HW121759   9.490   0.652   2.778  0.5203 -2.8960  0.6696
 5799SOL    HW221760   9.391   0.603   2.882 -2.2066  1.7469  0.5250
 5800SOL     OW21761   9.636   4.895  10.498 -0.3475 -0.2560  0.2495
 5800SOL    HW121762   9.649   4.884  10.404  0.7830  1.1937  0.1901
 5800SOL    HW221763   9.582   4.821  10.524 -0.1155 -1.0561 -1.4196
 5801SOL     OW21764   8.110   6.147   5.892  0.1696 -0.0794  0.6407
 5801SOL    HW121765   8.101   6.071   5.834  0.1615 -0.5460  1.2455
 5801SOL    HW221766   8.200   6.178   5.877  1.2107 -1.9459  2.4407
 5802SOL     OW21767   7.153   4.963   6.642 -0.2657 -0.0441 -0.0282
 5802SOL    HW121768   7.152   5.059   6.650  0.2136  0.0318 -0.8061
 5802SOL    HW221769   7.237   4.937   6.679  0.8555  0.0975 -2.3171
 5803SOL     OW21770   4.583   4.319   9.876  0.4375 -0.3310 -0.3716
 5803SOL    HW121771   4.618   4.316   9.787 -1.5716  3.1042 -1.4963
 5803SOL    HW221772   4.502   4.268   9.872 -0.3212  0.8773 -0.9464
 5804SOL     OW21773   0.644   4.869  10.518  0.5250  0.5194 -0.0202
 5804SOL    HW121774   0.665   4.839  10.606 -0.5382  3.3446  1.3047
 5804SOL    HW221775   0.548   4.871  10.516  0.5409  0.8782 -1.1222
 5805SOL     OW21776   6.917   5.287   7.993  0.0611 -0.1918 -0.0659
 5805SOL    HW121777   6.955   5.270   7.907 -0.6596  0.0906 -0.4536
 5805SOL    HW221778   6.831   5.244   7.990 -0.0831  0.0483  0.4154
 5806SOL     OW21779   9.520   0.722   7.327  0.7997 -0.3965  0.4547
 5806SOL    HW121780   9.441   0.705   7.275  0.3903 -0.1577  0.9927
 5806SOL    HW221781   9.531   0.643   7.380  0.0218  0.2013  1.5225
 5807SOL     OW21782   0.177   8.091   9.311  0.5461 -0.0022  0.1003
 5807SOL    HW121783   0.251   8.030   9.317  1.7220  1.0840 -2.1232
 5807SOL    HW221784   0.184   8.144   9.390  1.0322 -1.0889  0.8202
 5808SOL     OW21785   1.574   8.270   6.943 -0.2022 -0.2103 -0.2531
 5808SOL    HW121786   1.574   8.236   7.032 -0.9269  2.9717  1.0908
 5808SOL    HW221787   1.487   8.250   6.910  0.2711 -1.9480 -0.5356
 5809SOL     OW21788   6.047   9.346   6.184  0.5465  1.2211  0.3705
 5809SOL    HW121789   6.097   9.271   6.215  0.6810  1.7072  1.3883
 5809SOL    HW221790   5.955   9.320   6.192  0.5851  0.0179 -2.2866
 5810SOL     OW21791   2.871   7.700   4.539  0.1874 -0.1357  0.0487
 5810SOL    HW121792   2.917   7.754   4.603  0.7453  0.3524 -0.7489
 5810SOL    HW221793   2.909   7.613   4.551 -1.3418 -0.6185  1.9551
 5811SOL     OW21794  10.787   2.510   2.606  0.3420 -0.8290 -0.4568
 5811SOL    HW121795  10.838   2.436   2.640 -1.0084 -0.9614  1.4403
 5811SOL    HW221796  10.814   2.585   2.659  0.4783 -0.3121 -1.2355
 5812SOL     OW21797  11.015   3.888   1.877  0.0392  0.0399 -0.7443
 5812SOL    HW121798  11.097   3.846   1.901 -0.4068 -0.7339 -0.5108
 5812SOL    HW221799  11.040   3.965   1.826  0.9230  0.3596  0.1554
 5813SOL     OW21800   4.568   6.952   0.881 -0.0703 -0.2656  0.0336
 5813SOL    HW121801   4.566   6.969   0.975  1.4076 -0.2818  0.0888
 5813SOL    HW221802   4.639   7.007   0.848 -0.2993 -0.5693 -1.0141
 5814SOL     OW21803   9.380   3.733   1.474 -0.0656  0.5735 -0.6051
 5814SOL    HW121804   9.448   3.728   1.542  1.2521  0.5484 -1.8887
 5814SOL    HW221805   9.428   3.731   1.392 -1.6259  0.8293 -1.5565
 5815SOL     OW21806  10.895  11.095   9.926  0.2315  0.4626  0.4028
 5815SOL    HW121807  10.806  11.111   9.896  0.5611  0.0289 -0.8736
 5815SOL    HW221808  10.948  11.161   9.881  0.7528 -0.2744 -0.0855
 5816SOL     OW21809   8.659   0.851   2.348  0.4119 -0.3577  0.3502
 5816SOL    HW121810   8.641   0.758   2.332 -0.1392 -0.0476 -1.0629
 5816SOL    HW221811   8.750   0.863   2.320 -0.0283 -0.1667 -1.0986
 5817SOL     OW21812   2.518   8.869   0.171 -0.3125  0.0032  0.3193
 5817SOL    HW121813   2.435   8.877   0.123  0.1257  1.2595 -0.2696
 5817SOL    HW221814   2.502   8.912   0.254 -0.7556 -1.2775  0.9302
 5818SOL     OW21815   8.675   9.796   7.374  0.5390 -0.4769  0.1829
 5818SOL    HW121816   8.768   9.778   7.359  0.5744 -0.5155  0.4378
 5818SOL    HW221817   8.663   9.783   7.468  1.1197  3.2481  0.9341
 5819SOL     OW21818   6.744   3.521  10.139  0.5713  0.0024 -0.2436
 5819SOL    HW121819   6.739   3.468  10.059 -0.8946  0.1312 -0.2629
 5819SOL    HW221820   6.761   3.610  10.108 -2.1715  0.4742 -0.6458
 5820SOL     OW21821   6.499   9.972   9.393 -0.3984 -0.6119  0.6762
 5820SOL    HW121822   6.443  10.047   9.375  0.7811  0.0875 -0.2275
 5820SOL    HW221823   6.440   9.897   9.388 -1.1237  0.0164 -1.0761
 5821SOL     OW21824   2.631   3.637   7.259 -0.2975  0.7124 -0.2532
 5821SOL    HW121825   2.713   3.678   7.284 -1.9836  3.1151  1.9468
 5821SOL    HW221826   2.576   3.644   7.338 -2.4318 -1.2711 -1.4370
 5822SOL     OW21827   0.740  10.962  10.578  0.1097  0.0855  0.3277
 5822SOL    HW121828   0.820  10.911  10.590  0.6911  0.8850 -0.0871
 5822SOL    HW221829   0.744  10.993  10.487  0.5979  2.2471  1.0317
 5823SOL     OW21830   7.157   5.430   3.324  0.1592  0.1447 -0.0442
 5823SOL    HW121831   7.233   5.413   3.379 -0.6429 -0.6288  0.8669
 5823SOL    HW221832   7.107   5.496   3.372 -0.4594 -0.4066  0.0794
 5824SOL     OW21833   6.820   7.732   6.929 -0.9050  0.2567  0.0028
 5824SOL    HW121834   6.769   7.688   6.861 -1.5786 -0.1504  0.7434
 5824SOL    HW221835   6.861   7.661   6.978 -2.2134  0.3991  1.3726
 5825SOL     OW21836   2.218   5.900   6.859  0.5363  0.0325 -0.1828
 5825SOL    HW121837   2.223   5.808   6.886 -0.5702 -0.6230 -2.0253
 5825SOL    HW221838   2.131   5.928   6.887 -0.1487 -0.2967 -1.8697
 5826SOL     OW21839   6.075   6.977   1.067 -0.3162  0.1518  0.4619
 5826SOL    HW121840   6.051   7.068   1.049 -0.3038  0.4266  1.7433
 5826SOL    HW221841   6.134   6.954   0.995  1.3420  1.8436  1.1753
 5827SOL     OW21842   3.851   5.816   4.671  0.6126 -0.7207  0.2796
 5827SOL    HW121843   3.856   5.867   4.751  0.3396 -1.4416  0.7659
 5827SOL    HW221844   3.819   5.877   4.605  0.6482 -0.1738  0.7611
 5828SOL     OW21845   0.150   2.678   5.235 -0.2795 -0.5314 -0.3369
 5828SOL    HW121846   0.165   2.643   5.322 -0.4260 -1.3819 -0.6420
 5828SOL    HW221847   0.063   2.646   5.211  0.4792 -1.8170 -1.4969
 5829SOL     OW21848   4.358   7.676   5.694 -0.1892 -0.1333  0.4321
 5829SOL    HW121849   4.436   7.628   5.720  0.2427 -0.9237 -2.0217
 5829SOL    HW221850   4.285   7.616   5.713  0.1019 -0.6498 -0.0390
 5830SOL     OW21851   0.334   4.973   1.457  0.0550 -0.6684  0.0622
 5830SOL    HW121852   0.396   4.937   1.393 -0.9720 -0.0250 -1.3389
 5830SOL    HW221853   0.268   5.018   1.405 -0.6537  0.1744  1.5993
 5831SOL     OW21854   9.962   0.720   6.654 -0.0137 -0.1665  0.2814
 5831SOL    HW121855   9.906   0.759   6.722  0.4225  1.2544 -0.1387
 5831SOL    HW221856   9.901   0.689   6.587 -0.3524  2.5328 -0.7946
 5832SOL     OW21857   3.175  10.804   7.050  0.4583 -0.1140 -0.9684
 5832SOL    HW121858   3.218  10.790   7.135  1.4672 -0.3588 -1.5035
 5832SOL    HW221859   3.085  10.829   7.073  1.0893  1.2888  0.2225
 5833SOL     OW21860   7.021   5.513  10.546  0.2458  0.2118  0.5146
 5833SOL    HW121861   6.935   5.552  10.563  0.0985  1.0367 -1.7630
 5833SOL    HW221862   7.083   5.584  10.560  0.3356  0.2268  0.0737
 5834SOL     OW21863   5.345   7.192   1.250  0.5964 -0.4729 -0.1527
 5834SOL    HW121864   5.294   7.214   1.172 -0.2261  0.3888  0.6172
 5834SOL    HW221865   5.431   7.166   1.215  0.4322  0.4437 -1.3182
 5835SOL     OW21866   4.967   9.379   9.426  0.1320  0.4276 -0.2533
 5835SOL    HW121867   5.039   9.442   9.419 -0.2396  0.7788 -1.1855
 5835SOL    HW221868   5.008   9.298   9.454  0.8889  0.6327 -0.7444
 5836SOL     OW21869   3.426   5.661   4.658  0.0018 -0.4108 -0.1076
 5836SOL    HW121870   3.438   5.569   4.633 -2.6229 -1.2619  1.4367
 5836SOL    HW221871   3.425   5.660   4.754  1.7461  1.5657  0.0134
 5837SOL     OW21872   1.508   5.172   7.594 -0.4814 -0.3033 -0.4057
 5837SOL    HW121873   1.545   5.228   7.525  0.3255  0.4461  0.6228
 5837SOL    HW221874   1.569   5.099   7.602  0.2703  0.4120  0.5824
 5838SOL     OW21875   4.267   4.044   1.991 -0.2820 -0.1868 -0.1019
 5838SOL    HW121876   4.309   4.070   2.073 -1.0569 -1.1363  0.6109
 5838SOL    HW221877   4.228   3.959   2.009 -1.1817 -0.0380 -1.2031
 5839SOL     OW21878   7.228   9.933  10.273 -0.3852 -0.0801  0.0825
 5839SOL    HW121879   7.149   9.978  10.244 -0.9416 -0.4158  1.0492
 5839SOL    HW221880   7.235   9.858  10.214  1.3063  1.8964 -2.4507
 5840SOL     OW21881   5.495   1.193   0.791 -0.3676 -0.1142 -0.0320
 5840SOL    HW121882   5.412   1.223   0.753 -0.7650 -0.8736  0.2152
 5840SOL    HW221883   5.548   1.272   0.798 -1.4854  0.5962  0.8577
 5841SOL     OW21884   6.758   9.458   1.389 -0.1495 -0.2096 -0.2156
 5841SOL    HW121885   6.728   9.417   1.308 -0.6685  1.6219 -0.9999
 5841SOL    HW221886   6.833   9.406   1.415  1.0018  0.0065 -2.7324
 5842SOL     OW21887   2.457   0.485   3.330 -0.0201  0.2395 -0.1485
 5842SOL    HW121888   2.522   0.514   3.393 -0.6128 -0.2220  0.7103
 5842SOL    HW221889   2.416   0.565   3.298 -0.5096  0.4459  0.9502
 5843SOL     OW21890   8.109   4.520   6.576 -0.1297  0.0728 -0.0947
 5843SOL    HW121891   8.079   4.446   6.629 -1.3839 -0.4451 -1.4644
 5843SOL    HW221892   8.029   4.558   6.540  0.5608  1.6049 -0.0957
 5844SOL     OW21893   5.269   2.192  11.063 -0.4765 -0.1437  0.0111
 5844SOL    HW121894   5.295   2.216  11.151 -0.2644  1.6113 -0.4970
 5844SOL    HW221895   5.181   2.228  11.053 -0.4263 -0.1670 -0.5587
 5845SOL     OW21896   7.931   7.505   2.281 -0.3326  0.1717  0.5813
 5845SOL    HW121897   7.878   7.570   2.235 -1.0014  0.9186  2.3136
 5845SOL    HW221898   8.015   7.506   2.235 -1.4719 -0.4083 -1.6752
 5846SOL     OW21899   4.680   4.964   2.340  0.2787  0.8053 -0.2012
 5846SOL    HW121900   4.716   5.042   2.382 -0.1303  0.4096  0.9189
 5846SOL    HW221901   4.752   4.902   2.339 -0.0898  0.3274  1.2200
 5847SOL     OW21902  10.051   8.931   8.822  0.1174  0.1623 -0.2898
 5847SOL    HW121903  10.110   8.857   8.838  0.7713  0.5365 -0.9337
 5847SOL    HW221904  10.003   8.941   8.904  0.9857 -0.1272  0.2694
 5848SOL     OW21905   9.735   9.012   6.267 -0.5609 -0.0696  0.3158
 5848SOL    HW121906   9.647   8.992   6.298 -0.7164 -0.4010 -0.3206
 5848SOL    HW221907   9.782   9.043   6.344 -0.3106 -2.8131  1.3725
 5849SOL     OW21908   9.523   3.816   5.704  0.1055 -0.3206 -0.1151
 5849SOL    HW121909   9.563   3.778   5.626  2.2134 -3.3275  2.1707
 5849SOL    HW221910   9.467   3.746   5.738  1.6124 -0.3810  2.5605
 5850SOL     OW21911   9.302   8.073  10.769 -0.4407  0.0083  0.0322
 5850SOL    HW121912   9.240   8.002  10.754 -1.4207  0.7601  0.3457
 5850SOL    HW221913   9.366   8.037  10.830 -0.7412 -0.6960 -0.0588
 5851SOL     OW21914   5.004   9.579   5.059 -0.4168  0.2743 -0.5661
 5851SOL    HW121915   5.058   9.579   5.138 -0.3043  2.1319 -0.6029
 5851SOL    HW221916   4.936   9.644   5.076 -0.7155  0.3061 -1.7879
 5852SOL     OW21917   8.668   4.325   6.896 -0.3944 -0.6109 -0.2679
 5852SOL    HW121918   8.695   4.293   6.810  0.0973  0.6362 -0.5973
 5852SOL    HW221919   8.748   4.361   6.934 -0.3935 -1.9754  1.1223
 5853SOL     OW21920   3.753   9.541  10.442 -0.3429  0.3134 -0.2340
 5853SOL    HW121921   3.846   9.528  10.427  0.0929  1.1038  1.5371
 5853SOL    HW221922   3.722   9.458  10.477 -0.3650 -0.0050 -0.9798
 5854SOL     OW21923   6.943   2.482   9.781 -0.2331 -0.2791 -0.0814
 5854SOL    HW121924   6.936   2.464   9.875 -0.8146  2.9747  0.6258
 5854SOL    HW221925   7.036   2.500   9.767  0.0152 -1.6845 -0.3774
 5855SOL     OW21926   9.534   6.187   2.161  0.5042  0.6067  0.3004
 5855SOL    HW121927   9.614   6.223   2.201  1.4370 -0.2858 -0.7173
 5855SOL    HW221928   9.559   6.169   2.070 -0.9903  0.7047 -0.1423
 5856SOL     OW21929  11.048  10.227   8.750 -0.0468 -0.2431 -0.0798
 5856SOL    HW121930  11.083  10.161   8.691 -0.6271 -0.3339 -0.3364
 5856SOL    HW221931  11.025  10.179   8.830  1.0572 -0.0624  0.3688
 5857SOL     OW21932   1.827   8.398  10.389 -0.5835  0.2082  0.1374
 5857SOL    HW121933   1.808   8.464  10.322  0.1270 -0.5625 -0.8641
 5857SOL    HW221934   1.867   8.326  10.340  0.6879 -0.0538  1.5209
 5858SOL     OW21935   4.183   1.766   2.085  0.4545  0.1863  0.0151
 5858SOL    HW121936   4.103   1.744   2.037  1.5767 -1.2958 -1.2697
 5858SOL    HW221937   4.254   1.730   2.032  2.0473  1.8540  0.8803
 5859SOL     OW21938   6.260   5.295   5.579 -0.2123  0.1973 -0.2400
 5859SOL    HW121939   6.310   5.339   5.511 -0.4555  0.2845 -0.3622
 5859SOL    HW221940   6.317   5.223   5.608 -0.4477 -0.3700 -1.1324
 5860SOL     OW21941   5.314   7.674   1.522  0.0485 -0.3461  0.6607
 5860SOL    HW121942   5.358   7.616   1.585  0.3573 -1.5510 -0.6093
 5860SOL    HW221943   5.333   7.762   1.553  0.1404 -0.8945  2.2756
 5861SOL     OW21944   3.385   9.707   3.472 -0.2416 -0.2315 -0.1136
 5861SOL    HW121945   3.388   9.720   3.567 -0.8911 -0.6483 -0.0244
 5861SOL    HW221946   3.382   9.795   3.436  2.0886  0.0182  0.1335
 5862SOL     OW21947   6.721   2.083   1.939 -0.2621 -0.4288 -0.8391
 5862SOL    HW121948   6.669   2.153   1.978  0.5643  0.4339 -1.2576
 5862SOL    HW221949   6.666   2.048   1.870 -0.2657  0.5490 -1.3485
 5863SOL     OW21950   5.896   7.218   3.875 -0.3488 -0.1702 -0.3600
 5863SOL    HW121951   5.903   7.139   3.821  0.1273 -0.0672 -0.4524
 5863SOL    HW221952   5.811   7.255   3.852 -0.8616 -0.9966  0.1490
 5864SOL     OW21953   4.856   3.065   9.627  0.8325 -0.1031 -0.2666
 5864SOL    HW121954   4.904   3.067   9.544  0.1018  0.0886 -0.6993
 5864SOL    HW221955   4.876   3.149   9.668  2.0603 -0.6373  0.2725
 5865SOL     OW21956   2.212   6.276   2.758  0.3596  0.1426  0.0906
 5865SOL    HW121957   2.137   6.224   2.731 -0.0092  0.9522 -0.4727
 5865SOL    HW221958   2.206   6.356   2.707  2.3474 -0.3200 -0.9842
 5866SOL     OW21959   1.007  10.580   9.015 -0.1657  0.5848 -0.6237
 5866SOL    HW121960   1.001  10.673   9.035  0.3325  0.4243  0.3646
 5866SOL    HW221961   0.919  10.555   8.987 -0.7844  0.9936  0.8354
 5867SOL     OW21962   5.765  10.169   2.833  0.2684  0.7755  0.3294
 5867SOL    HW121963   5.843  10.201   2.787  2.0072 -1.7208  1.2773
 5867SOL    HW221964   5.709  10.134   2.765  1.6912 -0.6798 -0.1524
 5868SOL     OW21965  10.772   3.676   6.139 -0.1193 -0.2012  0.0297
 5868SOL    HW121966  10.718   3.750   6.166  1.4160  0.7687  0.5750
 5868SOL    HW221967  10.750   3.662   6.047 -4.0330 -2.3227  1.0366
 5869SOL     OW21968   0.188   1.662   5.470 -0.1746 -0.2982 -0.0095
 5869SOL    HW121969   0.219   1.704   5.550 -0.5147  0.1146 -0.0898
 5869SOL    HW221970   0.104   1.703   5.452 -0.6081 -1.1618  0.0134
 5870SOL     OW21971   6.738   4.917   1.735  0.1688  0.5435 -0.1718
 5870SOL    HW121972   6.720   5.011   1.744 -1.5223  0.1535  0.9281
 5870SOL    HW221973   6.653   4.875   1.748  1.0198 -1.1923 -0.0034
 5871SOL     OW21974   9.476   5.490   1.083  0.0791  0.3753  0.0294
 5871SOL    HW121975   9.547   5.446   1.035 -0.2930  0.9830 -1.1026
 5871SOL    HW221976   9.396   5.458   1.042 -0.4672 -1.6425  2.3975
 5872SOL     OW21977   0.098   7.521   2.537 -0.4482  0.1690  0.2425
 5872SOL    HW121978   0.068   7.538   2.448  0.7919 -0.8013 -0.3866
 5872SOL    HW221979   0.036   7.570   2.593 -1.1024  0.9789 -1.1370
 5873SOL     OW21980   8.710   1.186   5.157 -0.8113 -0.3868  0.3906
 5873SOL    HW121981   8.643   1.221   5.216 -0.7629 -1.1336  0.9032
 5873SOL    HW221982   8.793   1.212   5.196 -0.7665 -1.3661  0.9788
 5874SOL     OW21983   8.670   6.195   9.147  0.0313 -0.3502  0.1931
 5874SOL    HW121984   8.761   6.168   9.151 -0.1667 -1.4133 -1.6979
 5874SOL    HW221985   8.640   6.192   9.238  1.5560 -1.0977  0.6947
 5875SOL     OW21986   8.747   2.649   5.265  0.0194 -0.1765 -0.2905
 5875SOL    HW121987   8.668   2.691   5.231 -0.6485  2.0402  3.3463
 5875SOL    HW221988   8.796   2.721   5.307  3.2943 -1.7108 -1.1105
 5876SOL     OW21989   4.321   5.734  10.031  0.2900  0.3923 -0.3594
 5876SOL    HW121990   4.276   5.650  10.022  0.3048  0.2124  1.0968
 5876SOL    HW221991   4.412   5.715  10.005  0.0205  0.2714 -1.2587
 5877SOL     OW21992   1.326   7.448   5.376  0.1985 -0.2889  0.5199
 5877SOL    HW121993   1.237   7.413   5.369 -0.3844  1.3006 -0.4503
 5877SOL    HW221994   1.377   7.395   5.314 -0.5618  0.1864 -0.5464
 5878SOL     OW21995   3.265   6.058   6.514  0.0821 -0.1168  0.1099
 5878SOL    HW121996   3.253   6.146   6.478 -0.7686 -0.5296 -0.6756
 5878SOL    HW221997   3.268   6.071   6.609 -1.0081  0.6755  0.0559
 5879SOL     OW21998   8.700  10.176   6.672 -0.4072  0.4408  0.0687
 5879SOL    HW121999   8.762  10.192   6.601  0.7201 -0.8665  0.7042
 5879SOL    HW222000   8.618  10.214   6.641  0.1769  0.3468 -1.7245
 5880SOL     OW22001   2.529   0.150   1.612  0.1369 -0.2654  0.3657
 5880SOL    HW122002   2.557   0.112   1.695 -0.6834 -0.7489  0.4391
 5880SOL    HW222003   2.596   0.124   1.549  0.5008 -0.3261  0.7740
 5881SOL     OW22004   7.097   9.039   0.739  0.4534  0.0570  0.3454
 5881SOL    HW122005   7.182   9.010   0.704 -0.0282 -1.8611  0.6327
 5881SOL    HW222006   7.041   8.962   0.731 -1.4645  1.4593 -0.3789
 5882SOL     OW22007   6.396   2.700   6.169 -0.5846 -0.2982  0.2634
 5882SOL    HW122008   6.486   2.691   6.202 -0.0571 -0.4664 -1.1366
 5882SOL    HW222009   6.349   2.746   6.239  0.8309  0.6779  0.6242
 5883SOL     OW22010  10.753  10.653   2.051 -0.1608 -0.1374  0.1899
 5883SOL    HW122011  10.761  10.743   2.019 -0.7560 -0.2528 -0.2981
 5883SOL    HW222012  10.662  10.629   2.033  0.7163 -1.8910 -2.5045
 5884SOL     OW22013  10.319   2.017   9.640  0.4223  0.5918  0.2714
 5884SOL    HW122014  10.245   2.045   9.587 -0.0513 -1.5268 -0.2961
 5884SOL    HW222015  10.382   1.981   9.577  1.5447  1.4621  0.8387
 5885SOL     OW22016   3.813   4.893   5.691  0.3673  0.0047  0.3119
 5885SOL    HW122017   3.901   4.897   5.653 -0.2676  1.7657 -1.1339
 5885SOL    HW222018   3.800   4.801   5.713  2.7925 -0.1998  1.1754
 5886SOL     OW22019   8.078   5.978   2.159  0.6724  0.5959 -0.2343
 5886SOL    HW122020   8.027   5.987   2.239  0.0148  1.4259 -0.7297
 5886SOL    HW222021   8.133   6.056   2.155 -0.3325  1.2781 -1.2918
 5887SOL     OW22022   4.490   7.483   8.479 -0.1207 -0.0926  0.0808
 5887SOL    HW122023   4.416   7.468   8.421 -0.6010  0.1513  0.6224
 5887SOL    HW222024   4.498   7.578   8.484  1.1911 -0.0853 -1.1632
 5888SOL     OW22025   0.298   4.407   7.518  0.4090 -0.2802  0.3977
 5888SOL    HW122026   0.224   4.428   7.575  1.0415 -1.5598  1.7567
 5888SOL    HW222027   0.355   4.484   7.522 -0.5313  0.4558 -0.1534
 5889SOL     OW22028   4.616   0.790   4.750  0.1678  0.0333  0.1191
 5889SOL    HW122029   4.642   0.853   4.818 -0.4532  0.0138  0.3772
 5889SOL    HW222030   4.635   0.704   4.788 -2.6479 -0.1414  1.4074
 5890SOL     OW22031   7.792  10.563   9.885 -0.1878 -0.1394  0.1977
 5890SOL    HW122032   7.791  10.657   9.905 -2.1095  0.0224 -0.4332
 5890SOL    HW222033   7.751  10.521   9.961  2.3669 -0.7298  1.3386
 5891SOL     OW22034   5.419   8.601   3.374  0.3690 -0.2880 -0.5182
 5891SOL    HW122035   5.325   8.605   3.395 -0.0545  0.1828 -2.3010
 5891SOL    HW222036   5.431   8.668   3.307  1.5760 -1.6622 -1.7474
 5892SOL     OW22037   8.969   1.501   0.707 -0.0187  0.2329  0.2538
 5892SOL    HW122038   8.921   1.548   0.775  1.6672  1.2023  0.8154
 5892SOL    HW222039   9.002   1.569   0.649 -0.5919 -0.5237 -1.0088
 5893SOL     OW22040   3.631  10.288   3.960 -0.5605  0.9501  0.1351
 5893SOL    HW122041   3.598  10.372   3.929 -0.0451  0.8884 -0.6106
 5893SOL    HW222042   3.694  10.261   3.893  1.9756  1.6669  2.0689
 5894SOL     OW22043   5.648  10.589  10.277  0.1495 -0.1257  0.4682
 5894SOL    HW122044   5.667  10.625  10.190  0.4508  0.5318  0.7982
 5894SOL    HW222045   5.683  10.654  10.338  0.8637 -1.0830  1.0907
 5895SOL     OW22046   3.767   4.783   2.307 -0.1972  0.2512 -0.0109
 5895SOL    HW122047   3.861   4.792   2.319 -0.5425  1.5735  2.2455
 5895SOL    HW222048   3.741   4.861   2.258 -0.1451 -0.1400 -0.6816
 5896SOL     OW22049   6.954   9.285   5.116  0.4010  0.2722 -0.2389
 5896SOL    HW122050   6.875   9.313   5.070  1.0085  0.3121 -1.2890
 5896SOL    HW222051   6.999   9.366   5.139 -0.9652  0.3553  2.4379
 5897SOL     OW22052   9.170   7.951   5.392  0.2557  0.8366  0.0661
 5897SOL    HW122053   9.095   7.965   5.334  0.6354 -0.9772 -0.9244
 5897SOL    HW222054   9.242   7.927   5.333  1.1352  0.7231  1.1582
 5898SOL     OW22055   9.758   6.822   2.789 -0.1073 -0.2587 -0.0160
 5898SOL    HW122056   9.788   6.731   2.780 -0.4012 -0.4393  0.7999
 5898SOL    HW222057   9.718   6.826   2.875  0.8919  0.9365  0.4233
 5899SOL     OW22058   3.699   2.537   7.684  0.5982  0.2777 -0.0479
 5899SOL    HW122059   3.620   2.590   7.680  0.6337  0.3106 -0.3205
 5899SOL    HW222060   3.668   2.447   7.679  0.5575  0.2787  0.1567
 5900SOL     OW22061   0.242   1.860   5.205 -0.0979  0.2302 -0.9312
 5900SOL    HW122062   0.289   1.813   5.274  1.5693  1.3866 -1.2424
 5900SOL    HW222063   0.220   1.792   5.141  0.8495 -0.4031 -0.6125
 5901SOL     OW22064   5.890  11.085   2.098 -0.3943  0.5773 -0.3844
 5901SOL    HW122065   5.902  11.055   2.188 -0.4047 -0.8052 -0.8285
 5901SOL    HW222066   5.808  11.136   2.101 -0.4834  0.4031  0.3452
 5902SOL     OW22067   4.383   1.727   0.754  0.6252 -0.1414 -0.1288
 5902SOL    HW122068   4.351   1.639   0.777 -0.1446  0.0611 -0.4013
 5902SOL    HW222069   4.335   1.750   0.675 -2.2350  2.1203  2.0227
 5903SOL     OW22070   1.730   4.055   0.338 -0.0342  0.0272 -0.4406
 5903SOL    HW122071   1.725   4.136   0.389  0.2995 -0.0709 -0.2526
 5903SOL    HW222072   1.756   4.083   0.251  0.0262  0.1280 -0.3897
 5904SOL     OW22073   0.520   2.362   8.571 -0.6088  0.0274 -0.3034
 5904SOL    HW122074   0.533   2.375   8.665 -0.1049 -0.9032 -0.2319
 5904SOL    HW222075   0.531   2.268   8.558  0.4822  0.2859 -1.4679
 5905SOL     OW22076   7.506   8.483  11.106 -0.2219  0.4775 -0.9291
 5905SOL    HW122077   7.532   8.394  11.083 -2.2467 -0.0595 -1.3322
 5905SOL    HW222078   7.516   8.487  11.202  1.8000  0.5182 -1.1080
 5906SOL     OW22079   8.299   1.684  10.947  0.4461 -0.0937  0.0831
 5906SOL    HW122080   8.250   1.602  10.953  0.4182  0.0205  2.2836
 5906SOL    HW222081   8.386   1.658  10.915  0.0399 -0.7945 -0.4640
 5907SOL     OW22082   8.516   3.669   1.095  0.0206  0.0918 -0.0252
 5907SOL    HW122083   8.511   3.627   1.181 -3.2755 -1.5853 -0.8757
 5907SOL    HW222084   8.438   3.725   1.091 -0.1846 -0.2734 -2.1044
 5908SOL     OW22085  10.985   0.381   0.932 -0.1312 -0.1329 -0.0106
 5908SOL    HW122086  10.906   0.360   0.882  0.9900 -2.6831 -0.8803
 5908SOL    HW222087  11.002   0.303   0.985  1.3515  0.6811  0.7783
 5909SOL     OW22088   1.933   6.356   2.317 -0.1205 -0.2516  0.2690
 5909SOL    HW122089   1.926   6.261   2.311 -1.4998 -0.1367 -0.2396
 5909SOL    HW222090   2.007   6.379   2.261  0.3308 -1.0282  0.5394
 5910SOL     OW22091   2.877   8.247  10.770  0.1196  0.1179  0.1757
 5910SOL    HW122092   2.895   8.269  10.862  1.6636  0.5486 -0.2014
 5910SOL    HW222093   2.864   8.153  10.770  2.1762 -0.2108  0.5770
 5911SOL     OW22094   8.017   5.961   5.662 -0.0273 -0.0816  0.1424
 5911SOL    HW122095   8.010   5.908   5.583  2.9197 -0.5148  0.0750
 5911SOL    HW222096   8.004   5.899   5.734  1.2825 -0.5017  0.0307
 5912SOL     OW22097   8.452   2.179   1.530 -0.2967 -0.0371 -0.1415
 5912SOL    HW122098   8.390   2.245   1.558 -0.4349 -0.0090 -0.5096
 5912SOL    HW222099   8.441   2.174   1.435  0.8565  0.5786 -0.3226
 5913SOL     OW22100   7.416   7.979   2.720 -0.0411 -0.3094 -0.2842
 5913SOL    HW122101   7.509   7.984   2.700  0.2723 -1.3869  0.7632
 5913SOL    HW222102   7.405   8.038   2.795 -0.6597  1.5294 -1.7498
 5914SOL     OW22103   0.112   2.516   0.402 -0.6172  0.3603 -0.2672
 5914SOL    HW122104   0.194   2.549   0.439 -1.3600  1.4365  0.5004
 5914SOL    HW222105   0.051   2.591   0.409 -1.7145 -0.4722 -0.6285
 5915SOL     OW22106   6.608   5.721   1.689 -0.2533  0.4544  0.2876
 5915SOL    HW122107   6.703   5.726   1.696 -0.1492 -0.7698 -0.1817
 5915SOL    HW222108   6.591   5.673   1.609 -1.2784  0.6225  0.3840
 5916SOL     OW22109   1.451   4.909   1.555  0.6458  1.0025 -1.0551
 5916SOL    HW122110   1.424   4.847   1.488 -2.2675 -0.5436  1.3332
 5916SOL    HW222111   1.546   4.897   1.561  0.3505 -2.6495 -1.3525
 5917SOL     OW22112   3.109   0.681   8.168  0.2532  0.3459  0.6714
 5917SOL    HW122113   3.181   0.620   8.180 -0.1980 -0.1037  1.1186
 5917SOL    HW222114   3.036   0.627   8.139  0.4034  0.9631 -0.9567
 5918SOL     OW22115   3.987  10.068   4.278 -0.3301 -0.1514 -0.0314
 5918SOL    HW122116   3.934   9.992   4.299  0.9163 -0.3222  3.0416
 5918SOL    HW222117   4.054  10.034   4.218 -0.1928 -1.3450  0.7558
 5919SOL     OW22118   5.831   7.599   2.481  0.1741  0.2874 -0.0014
 5919SOL    HW122119   5.820   7.572   2.572  2.0240  0.5745  0.3576
 5919SOL    HW222120   5.746   7.636   2.456 -0.6923 -0.7651  1.2509
 5920SOL     OW22121   4.849   5.099   8.844 -0.3421 -0.2051  0.0549
 5920SOL    HW122122   4.792   5.127   8.772  0.1960  0.1207 -0.2473
 5920SOL    HW222123   4.789   5.081   8.917 -0.9467 -1.0030 -0.6107
 5921SOL     OW22124   7.021   5.043  10.241  0.0640  0.2669 -0.0764
 5921SOL    HW122125   7.073   5.030  10.321  1.9587 -1.9576 -1.5265
 5921SOL    HW222126   7.051   5.126  10.206  1.0279  0.0908  0.2865
 5922SOL     OW22127   7.616   5.586   3.639 -0.5211 -0.2055  0.5228
 5922SOL    HW122128   7.694   5.564   3.690 -0.9728 -1.5673  0.6846
 5922SOL    HW222129   7.620   5.681   3.628  0.7767 -0.1651  1.1382
 5923SOL     OW22130   5.679  10.798   8.383  0.1114  0.6500 -0.8373
 5923SOL    HW122131   5.769  10.784   8.411  0.1204 -2.5540 -2.0122
 5923SOL    HW222132   5.627  10.744   8.443 -1.1039  2.6059 -0.0550
 5924SOL     OW22133   6.955   3.887   4.974  0.0410  0.3112  0.8269
 5924SOL    HW122134   6.996   3.825   4.915 -0.5490 -0.4866  1.2327
 5924SOL    HW222135   7.024   3.910   5.037 -0.4720 -2.2656  2.4979
 5925SOL     OW22136  10.780   0.753   3.282  0.0996 -0.2444  0.2515
 5925SOL    HW122137  10.867   0.792   3.279 -0.2776  0.6463  0.4475
 5925SOL    HW222138  10.750   0.754   3.191  0.1259 -0.1338  0.2430
 5926SOL     OW22139   7.203   7.621   2.695 -0.4959  1.0123 -0.0974
 5926SOL    HW122140   7.291   7.613   2.659 -0.6414  1.2220 -0.5128
 5926SOL    HW222141   7.173   7.707   2.664 -0.8488  0.9346  0.0247
 5927SOL     OW22142   0.596   0.397   7.499 -0.2169 -0.3416 -0.4872
 5927SOL    HW122143   0.564   0.410   7.410  0.8854 -2.3670 -1.2209
 5927SOL    HW222144   0.580   0.481   7.542 -1.3358  0.4868 -2.3901
 5928SOL     OW22145   4.773  10.919   7.663 -0.0569  0.3598  0.1713
 5928SOL    HW122146   4.753  10.991   7.723 -0.5484 -0.1548  0.6345
 5928SOL    HW222147   4.806  10.962   7.584  1.4971  1.0141  1.1336
 5929SOL     OW22148   7.208   5.601   3.520  0.1312  0.5130 -0.4794
 5929SOL    HW122149   7.259   5.565   3.592 -0.1745  0.2932 -0.3719
 5929SOL    HW222150   7.163   5.676   3.557  2.5790  2.5087 -1.2590
 5930SOL     OW22151  10.060   1.941   4.470 -0.0070 -0.7002  0.2896
 5930SOL    HW122152  10.149   1.976   4.474 -0.2682 -0.1081  1.1621
 5930SOL    HW222153  10.012   2.005   4.417 -0.0684 -0.6613  0.3916
 5931SOL     OW22154   4.694   1.920   5.230 -0.1148 -0.0800 -0.0694
 5931SOL    HW122155   4.620   1.968   5.269 -1.7994 -0.6868 -2.2918
 5931SOL    HW222156   4.707   1.845   5.288 -1.5771 -0.2259  0.1062
 5932SOL     OW22157  10.293   5.738   6.964 -0.3977 -0.1930  0.4892
 5932SOL    HW122158  10.340   5.660   6.936  0.1799  0.7073 -1.1804
 5932SOL    HW222159  10.361   5.797   6.996 -0.6709  0.1790  0.3941
 5933SOL     OW22160   7.784   2.427  10.427 -0.7173 -0.0824  0.3771
 5933SOL    HW122161   7.870   2.416  10.467 -0.7851 -2.6515  0.0032
 5933SOL    HW222162   7.726   2.371  10.478 -1.0219 -2.6108 -2.4652
 5934SOL     OW22163   8.018   0.433   5.373 -0.3337  0.1877  0.3159
 5934SOL    HW122164   8.102   0.470   5.400 -0.8520  1.0732  0.7725
 5934SOL    HW222165   8.011   0.455   5.280  1.1537 -2.2864 -0.4640
 5935SOL     OW22166   0.875   6.670   5.463 -0.3736 -0.3780  0.1688
 5935SOL    HW122167   0.965   6.638   5.459 -0.7266 -1.2875 -0.8429
 5935SOL    HW222168   0.822   6.592   5.482 -1.2593 -0.4886 -2.4567
 5936SOL     OW22169  10.889  10.418   0.968  0.2554 -0.6627 -0.1103
 5936SOL    HW122170  10.869  10.451   0.880 -1.0196  1.0744  0.7619
 5936SOL    HW222171  10.804  10.404   1.009  0.8143 -0.3568  1.2245
 5937SOL     OW22172   1.978   2.962   6.137  0.3391 -0.0305  0.0326
 5937SOL    HW122173   2.040   2.968   6.209  0.1240  0.3600  0.1878
 5937SOL    HW222174   1.925   2.886   6.157 -0.1809  0.4879  0.6566
 5938SOL     OW22175   7.107   8.649   3.663  0.2633  0.4208 -0.3795
 5938SOL    HW122176   7.103   8.557   3.637  0.5064  0.8407 -1.9812
 5938SOL    HW222177   7.072   8.650   3.752 -1.4588 -0.9761 -0.9738
 5939SOL     OW22178   6.473   7.936   0.484 -0.0218  0.0425 -0.0664
 5939SOL    HW122179   6.510   8.024   0.497 -0.4229  0.1347  0.4522
 5939SOL    HW222180   6.382   7.944   0.513  0.5200 -1.1143  2.1294
 5940SOL     OW22181   8.986   7.659   1.021 -0.4479  0.3620 -0.4613
 5940SOL    HW122182   8.961   7.695   1.106  1.4712 -0.6941  0.6010
 5940SOL    HW222183   9.004   7.737   0.967 -0.3322  1.0353  0.5158
 5941SOL     OW22184   4.798   8.332   8.874  0.1239  0.3641 -0.2601
 5941SOL    HW122185   4.803   8.291   8.788 -1.3716  1.5128 -0.9295
 5941SOL    HW222186   4.816   8.261   8.936 -2.1999 -1.3195 -1.3818
 5942SOL     OW22187   1.634   5.238   0.343  0.8938  0.3955  0.0538
 5942SOL    HW122188   1.646   5.227   0.249  0.4292 -1.4066  0.1651
 5942SOL    HW222189   1.720   5.266   0.375  0.8954  1.6367 -0.9576
 5943SOL     OW22190   7.999   9.529   0.201 -0.0607 -0.2344 -0.8285
 5943SOL    HW122191   7.984   9.524   0.107  0.8028 -0.6878 -0.9573
 5943SOL    HW222192   8.010   9.438   0.229  0.6462 -0.0510 -0.4653
 5944SOL     OW22193   4.597   2.361   8.938  0.1190 -0.1202 -0.4582
 5944SOL    HW122194   4.681   2.398   8.964 -0.3170  1.0691 -0.6881
 5944SOL    HW222195   4.548   2.354   9.020 -0.9825  2.9332 -0.7349
 5945SOL     OW22196   2.279   3.077   2.839  0.0292  0.3700 -0.4217
 5945SOL    HW122197   2.265   3.048   2.929  1.8130  0.7413  0.0176
 5945SOL    HW222198   2.345   3.017   2.804  0.4390  1.1385 -0.9894
 5946SOL     OW22199   2.527   5.081   6.207  0.2535  0.3981  0.2499
 5946SOL    HW122200   2.513   5.155   6.147  0.8998  1.0462  0.8771
 5946SOL    HW222201   2.590   5.114   6.271  0.2794 -0.5904  0.7487
 5947SOL     OW22202   1.275   6.805   2.627  0.2000  0.5537 -0.1330
 5947SOL    HW122203   1.183   6.825   2.643  0.1263 -0.4464  0.8491
 5947SOL    HW222204   1.313   6.796   2.715  0.6135 -1.6093 -0.4718
 5948SOL     OW22205   4.013   0.426   7.887 -0.9254 -0.3545 -0.3899
 5948SOL    HW122206   3.964   0.455   7.810  0.3669  0.1765 -1.0410
 5948SOL    HW222207   4.076   0.496   7.903  0.9420 -1.8586 -0.7814
 5949SOL     OW22208   9.756   8.121   7.439 -0.1939 -0.2903  0.0371
 5949SOL    HW122209   9.719   8.208   7.425  1.3245  0.4963  0.7162
 5949SOL    HW222210   9.722   8.094   7.524  0.3926  0.2249  0.4402
 5950SOL     OW22211   5.852  10.184   3.366 -0.0996 -0.2179 -0.2673
 5950SOL    HW122212   5.861  10.183   3.271 -1.7951  0.5713 -0.4557
 5950SOL    HW222213   5.781  10.122   3.385  0.2594 -0.4126  0.5025
 5951SOL     OW22214   1.166   5.847   5.858  0.2443  0.8708 -0.0085
 5951SOL    HW122215   1.218   5.808   5.929  0.6506  0.4169 -0.5479
 5951SOL    HW222216   1.208   5.816   5.778 -2.1016 -1.3391 -0.5398
 5952SOL     OW22217   4.681   3.186   2.345  0.0565  0.0428 -0.0426
 5952SOL    HW122218   4.673   3.092   2.360 -1.2691  0.0663 -0.4164
 5952SOL    HW222219   4.643   3.199   2.258 -2.9701  1.3238  1.3433
 5953SOL     OW22220   8.435   7.505   3.284 -0.0033 -0.6063 -0.4258
 5953SOL    HW122221   8.512   7.471   3.238  1.1809  1.3779 -0.0292
 5953SOL    HW222222   8.471   7.551   3.360 -1.0886  4.0537 -2.4002
 5954SOL     OW22223   1.988   4.150   3.862 -0.5224  0.2936  0.1353
 5954SOL    HW122224   2.023   4.068   3.897 -0.1063  1.0248  1.5349
 5954SOL    HW222225   1.900   4.156   3.898 -0.1468  0.9805  0.9826
 5955SOL     OW22226   2.538   4.435   2.854 -0.1322 -0.5353 -0.5528
 5955SOL    HW122227   2.463   4.375   2.862  0.9018 -1.8210 -0.1176
 5955SOL    HW222228   2.565   4.425   2.763 -0.8769  0.4486 -0.9019
 5956SOL     OW22229   9.571   2.128   2.761  0.1173  0.1437 -0.1398
 5956SOL    HW122230   9.614   2.116   2.677 -1.9723  1.4615 -1.4912
 5956SOL    HW222231   9.576   2.222   2.778 -2.2230  0.3856 -0.4331
 5957SOL     OW22232   8.910   9.019   0.620  0.1576  0.1392  0.0224
 5957SOL    HW122233   8.959   9.074   0.559 -0.9832  0.4509 -0.6437
 5957SOL    HW222234   8.824   9.060   0.625 -0.5042 -1.2014  0.0501
 5958SOL     OW22235   1.430   1.785   3.335 -0.1446 -0.3481  0.3015
 5958SOL    HW122236   1.358   1.730   3.363 -0.3567 -0.2325 -0.0036
 5958SOL    HW222237   1.508   1.746   3.374 -0.4351 -0.1397  1.1119
 5959SOL     OW22238   3.904   2.401   8.782 -0.0197  0.5504 -0.1139
 5959SOL    HW122239   3.828   2.435   8.829  0.1081  0.4083  0.2013
 5959SOL    HW222240   3.875   2.316   8.749  0.3809 -0.0819  1.0723
 5960SOL     OW22241   2.442   8.293   5.538  0.0613 -0.1583 -0.1376
 5960SOL    HW122242   2.534   8.321   5.543  0.5324 -1.4674 -0.9780
 5960SOL    HW222243   2.417   8.309   5.447 -0.1837 -0.8873 -0.1968
 5961SOL     OW22244   4.671   3.553  10.640  0.1297  0.0321  0.2176
 5961SOL    HW122245   4.696   3.543  10.731  1.0959 -0.5008 -0.0957
 5961SOL    HW222246   4.592   3.608  10.643 -2.3872 -3.2962  1.6792
 5962SOL     OW22247   7.084   6.174   7.938 -0.1320 -0.4812 -0.0411
 5962SOL    HW122248   7.157   6.221   7.978  1.3629 -2.5640 -0.2147
 5962SOL    HW222249   7.109   6.163   7.846 -1.8801  1.0223 -0.7762
 5963SOL     OW22250   1.683   1.694   2.320  0.4777 -0.0647  0.6358
 5963SOL    HW122251   1.687   1.783   2.283  1.1415  0.1551  1.2153
 5963SOL    HW222252   1.670   1.637   2.244  0.8177  0.4646  0.1754
 5964SOL     OW22253   2.058   8.903   8.906  0.4676 -0.1461 -0.3800
 5964SOL    HW122254   2.061   8.994   8.935  1.3601 -0.5435  0.8673
 5964SOL    HW222255   2.145   8.886   8.869  1.2976 -1.2107  1.8557
 5965SOL     OW22256   5.500   8.487   0.382  0.3058  0.5388  0.2654
 5965SOL    HW122257   5.490   8.540   0.303 -0.6780 -0.3297 -0.2108
 5965SOL    HW222258   5.461   8.539   0.451 -0.0798  0.7056 -0.0757
 5966SOL     OW22259  10.937   9.330   4.948 -0.2516  0.0875  0.1545
 5966SOL    HW122260  11.022   9.375   4.952  0.8785 -1.5695 -2.5152
 5966SOL    HW222261  10.919   9.321   4.855 -2.2539 -1.6745  0.6374
 5967SOL     OW22262   8.037   8.192  10.852 -0.5915  0.1487 -0.1748
 5967SOL    HW122263   8.001   8.271  10.891  0.7814  0.7833 -0.1244
 5967SOL    HW222264   8.063   8.138  10.927 -2.6307 -0.9386 -0.1787
 5968SOL     OW22265   5.865   2.780   3.856 -0.3403  1.1029 -0.1989
 5968SOL    HW122266   5.823   2.819   3.779  0.1237 -0.8890 -1.5210
 5968SOL    HW222267   5.793   2.744   3.907 -0.5908  1.7438 -0.0933
 5969SOL     OW22268   9.235  10.808   3.748 -0.1880  0.2046  0.3534
 5969SOL    HW122269   9.150  10.795   3.706  0.1582 -0.2175 -0.2136
 5969SOL    HW222270   9.291  10.739   3.713  0.3475  0.3757  0.8531
 5970SOL     OW22271   7.148   1.948   0.294 -0.1890  0.4775 -0.1737
 5970SOL    HW122272   7.093   1.908   0.361 -0.8489  0.3223 -0.7930
 5970SOL    HW222273   7.156   1.881   0.226  0.4925  0.6236 -0.2488
 5971SOL     OW22274   7.862   1.745   7.524 -0.3270  0.1293  0.0472
 5971SOL    HW122275   7.885   1.827   7.567  0.4539 -0.1329  0.1602
 5971SOL    HW222276   7.917   1.679   7.568 -1.2865 -0.5281  0.2778
 5972SOL     OW22277   6.436   2.991   4.339  0.6099 -0.3296  0.2815
 5972SOL    HW122278   6.442   3.002   4.434 -1.9154 -0.2477  0.4856
 5972SOL    HW222279   6.515   2.941   4.316  0.6435 -1.4575  2.5875
 5973SOL     OW22280   6.220   1.194   4.400 -0.0451  0.3040  0.1061
 5973SOL    HW122281   6.203   1.168   4.490  1.6086 -0.2654  0.2858
 5973SOL    HW222282   6.281   1.128   4.366  0.5852  1.3616 -0.9137
 5974SOL     OW22283   5.869   7.106  10.429  0.4139  0.0987  0.2310
 5974SOL    HW122284   5.892   7.025  10.384 -0.3981  0.2425 -0.4669
 5974SOL    HW222285   5.953   7.146  10.451  0.9133  0.6844 -2.3682
 5975SOL     OW22286   8.069   3.420   4.607 -0.0845  0.2984  0.3647
 5975SOL    HW122287   8.042   3.451   4.521  1.3549 -1.4779 -0.7790
 5975SOL    HW222288   8.119   3.340   4.590 -0.5669 -0.6389  2.9141
 5976SOL     OW22289   9.464   3.624   3.508  0.0728 -0.7847  0.2943
 5976SOL    HW122290   9.420   3.650   3.588 -0.5099  0.4595 -0.4107
 5976SOL    HW222291   9.401   3.640   3.438  0.9959 -0.6844 -0.5489
 5977SOL     OW22292   8.639   8.465   0.943 -0.3604  0.1415  0.2068
 5977SOL    HW122293   8.709   8.435   1.001 -0.4250 -0.3717  0.0227
 5977SOL    HW222294   8.672   8.547   0.906  1.1841 -1.2489 -1.7062
 5978SOL     OW22295   9.941   1.194   2.792  0.6446  0.2877 -0.4749
 5978SOL    HW122296   9.945   1.266   2.729  0.7612  0.5266 -0.1955
 5978SOL    HW222297   9.934   1.236   2.877 -1.5988 -0.0422 -0.4475
 5979SOL     OW22298   1.188   2.696   5.239 -0.2125  0.3118 -0.4475
 5979SOL    HW122299   1.166   2.627   5.303  0.0473 -0.2951 -1.0030
 5979SOL    HW222300   1.147   2.668   5.158  0.6196  0.3573 -0.9025
 5980SOL     OW22301   8.503   5.165  10.123  0.1267 -0.3266 -0.3749
 5980SOL    HW122302   8.462   5.084  10.152 -1.1454  0.5395  0.3916
 5980SOL    HW222303   8.450   5.234  10.164 -0.0461  0.9154 -2.5403
 5981SOL     OW22304   2.882   8.212  10.268  0.0234  0.3115  0.4368
 5981SOL    HW122305   2.908   8.252  10.351 -0.7997  0.3164  0.6949
 5981SOL    HW222306   2.821   8.143  10.292 -0.4243  0.4795 -0.1778
 5982SOL     OW22307   6.330   8.428  10.552 -0.6561  0.4923 -1.0226
 5982SOL    HW122308   6.354   8.420  10.460 -0.4765 -0.4308 -0.9023
 5982SOL    HW222309   6.283   8.347  10.572  0.0831  0.2828 -0.0700
 5983SOL     OW22310   4.368   8.197   8.652 -0.1897 -0.4585  0.1236
 5983SOL    HW122311   4.370   8.219   8.745 -1.1459  0.5962 -0.0789
 5983SOL    HW222312   4.424   8.120   8.644 -0.7473 -1.0562  1.6963
 5984SOL     OW22313   5.784   5.426   3.841 -0.1402 -0.0937 -0.5241
 5984SOL    HW122314   5.832   5.387   3.768 -2.4226 -1.2787 -1.5085
 5984SOL    HW222315   5.807   5.519   3.838 -0.2393 -0.0835 -2.8684
 5985SOL     OW22316  10.319   4.255   7.833  0.8025 -0.2275  0.1086
 5985SOL    HW122317  10.275   4.336   7.809  2.4935  1.1978  1.5054
 5985SOL    HW222318  10.254   4.187   7.818 -1.6925  1.6516  1.5801
 5986SOL     OW22319   2.894   3.432   9.178 -0.0566 -0.0514 -0.5460
 5986SOL    HW122320   2.969   3.465   9.228  1.8219 -2.4337 -1.5372
 5986SOL    HW222321   2.838   3.391   9.243  0.6838 -0.2202  0.0068
 5987SOL     OW22322   3.098   1.363   5.815  0.3743 -0.3374 -0.3746
 5987SOL    HW122323   3.183   1.387   5.778  0.4074  0.6498  0.3184
 5987SOL    HW222324   3.078   1.432   5.878 -0.6237 -0.9224 -0.0191
 5988SOL     OW22325   2.444   8.273   8.546  0.0772 -0.4736  0.0800
 5988SOL    HW122326   2.393   8.203   8.505  0.8101 -2.2486  2.0248
 5988SOL    HW222327   2.379   8.331   8.586 -0.5061 -1.1031  0.0595
 5989SOL     OW22328   0.995   0.710   1.316 -0.9121  0.8530 -0.7031
 5989SOL    HW122329   0.948   0.775   1.263  0.4685  2.8838  0.4104
 5989SOL    HW222330   1.023   0.758   1.394 -0.8857 -1.4533  0.8058
 5990SOL     OW22331  10.029   1.531   6.761  0.1513 -0.1969  0.6220
 5990SOL    HW122332  10.098   1.584   6.722 -0.4321 -1.2445 -2.1117
 5990SOL    HW222333   9.966   1.595   6.796  0.9690  0.8245  0.2621
 5991SOL     OW22334   7.357   4.299   2.665  0.3495 -0.2346 -0.1457
 5991SOL    HW122335   7.415   4.352   2.610 -1.2402  2.0639  0.2890
 5991SOL    HW222336   7.289   4.359   2.694 -0.4348 -2.0578  2.0708
 5992SOL     OW22337   3.662   7.613   0.837  0.7910  0.3508 -0.5696
 5992SOL    HW122338   3.754   7.587   0.847  0.6752 -0.3078 -1.1492
 5992SOL    HW222339   3.655   7.695   0.886  1.1978 -0.6080  1.1691
 5993SOL     OW22340   4.979   4.660   7.422 -0.3249  0.2745 -0.5414
 5993SOL    HW122341   5.044   4.724   7.393 -0.2737 -0.2561 -1.6492
 5993SOL    HW222342   5.017   4.575   7.400 -0.1783 -0.1958  1.3478
 5994SOL     OW22343   1.024   0.707   5.131 -0.2188 -0.1758  0.7872
 5994SOL    HW122344   1.031   0.733   5.039 -0.9492 -0.3788  0.6645
 5994SOL    HW222345   1.112   0.678   5.155 -0.2364 -1.0748 -0.1566
 5995SOL     OW22346   5.335   2.324   0.208 -0.2780  0.5150  0.0483
 5995SOL    HW122347   5.370   2.355   0.291  0.2483  2.0389 -0.6952
 5995SOL    HW222348   5.282   2.397   0.176  0.7062  0.5668 -1.6098
 5996SOL     OW22349   6.727   3.566  10.909  0.0552  0.1162 -0.1318
 5996SOL    HW122350   6.633   3.551  10.900 -0.2773  1.9110 -0.0839
 5996SOL    HW222351   6.741   3.569  11.004  0.2128 -0.4634 -0.1384
 5997SOL     OW22352   9.869   0.261   0.818  0.3210  0.5161  0.1258
 5997SOL    HW122353   9.806   0.189   0.811  0.3713  0.3560  1.1442
 5997SOL    HW222354   9.916   0.260   0.735 -2.2347  1.8162 -1.4594
 5998SOL     OW22355   1.693   2.331   8.286  0.1398 -0.0392  0.0720
 5998SOL    HW122356   1.606   2.355   8.317  0.4112  0.0203  0.7983
 5998SOL    HW222357   1.692   2.353   8.193 -1.0304 -1.1595 -0.2146
 5999SOL     OW22358   4.825  10.191   7.265 -0.4883 -0.0855  0.6546
 5999SOL    HW122359   4.822  10.101   7.296  0.5305 -0.4869 -0.3479
 5999SOL    HW222360   4.823  10.184   7.169  1.6417  0.7987  0.4697
 6000SOL     OW22361   0.816   8.106   7.150  0.2010  0.4216  0.1555
 6000SOL    HW122362   0.828   8.201   7.157  0.5747  0.3945 -0.0846
 6000SOL    HW222363   0.728   8.090   7.184  0.2850  0.8067  0.5602
 6001SOL     OW22364   4.966  10.908   8.059 -0.2476  0.1020 -0.1466
 6001SOL    HW122365   4.913  10.964   8.002  1.6659  1.5410 -0.6122
 6001SOL    HW222366   5.056  10.930   8.037  0.5801 -0.3737  2.4410
 6002SOL     OW22367  10.631   0.903   5.410  0.2052  0.4812 -0.2422
 6002SOL    HW122368  10.588   0.988   5.422  2.4442  1.6888 -0.0835
 6002SOL    HW222369  10.631   0.864   5.498 -1.5867 -0.1135 -0.4770
 6003SOL     OW22370   1.104   4.810  11.110  0.3900 -0.3121 -0.7580
 6003SOL    HW122371   1.061   4.891  11.137  1.1912  0.1688 -0.9156
 6003SOL    HW222372   1.100   4.811  11.015 -1.2216 -1.3563 -0.7449
 6004SOL     OW22373   2.998   7.614   0.251  0.3335  0.7087 -0.1705
 6004SOL    HW122374   3.028   7.615   0.342 -1.3162  0.9716  0.3875
 6004SOL    HW222375   3.007   7.522   0.224  0.9630  0.6588  0.1918
 6005SOL     OW22376   5.088   3.795   2.593 -0.1161 -0.0825 -0.3861
 6005SOL    HW122377   5.052   3.840   2.517 -2.7613  1.5206  1.6530
 6005SOL    HW222378   5.017   3.738   2.623  0.3089  0.4001  1.6791
 6006SOL     OW22379   0.472   3.892   8.557 -0.3707 -0.3469 -0.0940
 6006SOL    HW122380   0.439   3.810   8.520  0.1071  0.3133 -2.1111
 6006SOL    HW222381   0.418   3.960   8.516  0.4565  0.4530  0.1143
 6007SOL     OW22382   6.844  10.860   4.354 -0.3371  0.1712  0.5767
 6007SOL    HW122383   6.819  10.851   4.446 -0.9796 -0.7649  0.3137
 6007SOL    HW222384   6.881  10.949   4.349 -1.4156  0.7008  1.4740
 6008SOL     OW22385   7.558   7.171   3.203 -0.3131  0.2332 -0.0724
 6008SOL    HW122386   7.511   7.239   3.250  0.2385 -1.1953  2.7744
 6008SOL    HW222387   7.640   7.213   3.176  0.5047  0.5661  2.5832
 6009SOL     OW22388   7.492   5.506   4.765 -0.0254 -0.2396 -0.0221
 6009SOL    HW122389   7.433   5.477   4.695  1.0621 -0.2965 -0.9571
 6009SOL    HW222390   7.578   5.512   4.722  0.6710 -0.2635  1.3172
 6010SOL     OW22391   8.825   2.329   6.411 -0.2412  0.1598  0.4724
 6010SOL    HW122392   8.744   2.279   6.405  0.4426 -0.9542  0.1553
 6010SOL    HW222393   8.875   2.302   6.333  1.2626 -0.7055  1.6852
 6011SOL     OW22394   3.536   6.388   8.192  0.7770  0.1496  0.1680
 6011SOL    HW122395   3.511   6.407   8.283  1.9225  0.0446  0.5243
 6011SOL    HW222396   3.491   6.455   8.140  1.9705  1.7069  1.0610
 6012SOL     OW22397   5.111  11.069   5.076  0.3934  0.4807  0.2947
 6012SOL    HW122398   5.143  11.079   5.165  1.6091  0.7908 -0.1619
 6012SOL    HW222399   5.119  10.976   5.057  1.4545  0.6128  0.0418
 6013SOL     OW22400   3.924   8.276   6.225  0.9683 -0.2287  0.1817
 6013SOL    HW122401   3.913   8.249   6.133 -1.7988 -0.6354  0.5624
 6013SOL    HW222402   3.955   8.197   6.269  0.6753 -0.5217 -0.1248
 6014SOL     OW22403  10.984   6.152   3.215 -0.2561  0.6311  0.6007
 6014SOL    HW122404  10.922   6.098   3.166 -0.2986  0.6916  0.5893
 6014SOL    HW222405  10.963   6.134   3.307  0.1023  0.1901  0.5984
 6015SOL     OW22406   6.681   0.443   7.151  0.3737  0.1489 -0.1192
 6015SOL    HW122407   6.587   0.432   7.154  0.2396  1.3925  2.4235
 6015SOL    HW222408   6.716   0.356   7.129 -1.1971 -1.3525  2.8709
 6016SOL     OW22409   9.099   9.114   9.600 -0.5085 -0.1569  0.0690
 6016SOL    HW122410   9.091   9.035   9.655 -0.8637 -0.6161 -0.6323
 6016SOL    HW222411   9.009   9.138   9.580 -0.3999  0.4863  0.3591
 6017SOL     OW22412   8.997   6.082   5.584 -0.1467 -0.0871 -0.2157
 6017SOL    HW122413   8.970   5.995   5.616  0.9470 -0.6113 -0.6863
 6017SOL    HW222414   9.087   6.070   5.555  0.8359  1.7338  1.8092
 6018SOL     OW22415   8.741   9.120   3.631  0.3405 -0.2520  0.3845
 6018SOL    HW122416   8.771   9.208   3.609 -2.5770  0.8556  0.3688
 6018SOL    HW222417   8.729   9.077   3.547  0.3689 -0.1327  0.3181
 6019SOL     OW22418   8.230   3.004   8.108  0.1861 -0.0687 -0.0750
 6019SOL    HW122419   8.145   3.021   8.150  1.2010  0.2070  2.0044
 6019SOL    HW222420   8.209   2.946   8.035 -1.8366  0.3245  0.1315
 6020SOL     OW22421   4.720   7.273   0.689  0.2684 -0.0185 -0.1507
 6020SOL    HW122422   4.797   7.328   0.690  0.5545 -0.4229  0.2401
 6020SOL    HW222423   4.751   7.187   0.717  0.1867 -0.8488 -2.3515
 6021SOL     OW22424   3.259   6.464   8.865 -0.2610  0.0600  0.2539
 6021SOL    HW122425   3.273   6.452   8.959  0.4564 -0.8166  0.0525
 6021SOL    HW222426   3.166   6.480   8.855 -0.4602 -0.5754  1.0534
 6022SOL     OW22427   9.400   6.986   7.807 -0.3852  0.7563  0.2630
 6022SOL    HW122428   9.472   6.982   7.869 -0.5697  1.2278  0.5125
 6022SOL    HW222429   9.350   6.906   7.822  0.3733  0.1678 -0.2749
 6023SOL     OW22430   6.040   8.616   8.233 -0.1096 -0.2673  0.0638
 6023SOL    HW122431   6.037   8.530   8.275  0.1634  0.2375  1.1493
 6023SOL    HW222432   6.116   8.612   8.174  0.4500 -0.4765  0.7892
 6024SOL     OW22433   4.979  10.486  10.082 -0.1177 -0.2027 -0.2098
 6024SOL    HW122434   4.899  10.439  10.108 -0.8131  0.8549 -0.3825
 6024SOL    HW222435   4.980  10.564  10.138 -0.9127  1.4279 -2.3328
 6025SOL     OW22436   5.377   0.186   4.132 -0.1790 -0.3392  0.2787
 6025SOL    HW122437   5.418   0.160   4.049 -1.9582 -0.5864 -0.5750
 6025SOL    HW222438   5.401   0.278   4.143  2.2155 -0.9663  0.8690
 6026SOL     OW22439   7.081   5.082   0.578 -0.5949 -0.1826  0.1725
 6026SOL    HW122440   7.025   5.022   0.529  0.2007 -1.9176  1.3261
 6026SOL    HW222441   7.044   5.169   0.558 -2.1306 -1.0481 -1.0721
 6027SOL     OW22442   8.873   4.533   8.955 -0.0013  0.2577 -0.4686
 6027SOL    HW122443   8.860   4.555   8.862 -1.7181 -0.5774 -0.4664
 6027SOL    HW222444   8.812   4.591   9.001 -0.0012 -0.1494  0.0409
 6028SOL     OW22445   7.429   2.789   1.454 -0.1151  0.0266  0.3020
 6028SOL    HW122446   7.397   2.724   1.391 -1.4345  1.5466 -0.6770
 6028SOL    HW222447   7.476   2.853   1.401  1.9088 -0.4900  1.3578
 6029SOL     OW22448   8.137   1.825   7.896  0.3838 -0.5121  0.0317
 6029SOL    HW122449   8.178   1.883   7.962  0.1241 -1.5021  1.1014
 6029SOL    HW222450   8.043   1.839   7.907  0.2930 -1.4688  0.6588
 6030SOL     OW22451   0.325  10.707   8.278 -0.1275 -0.4229  0.0305
 6030SOL    HW122452   0.260  10.639   8.296  0.7624 -1.4982 -0.7074
 6030SOL    HW222453   0.383  10.707   8.354 -2.0446  1.9100  1.6423
 6031SOL     OW22454   0.666  10.132   9.890 -0.3745  0.0896 -0.0993
 6031SOL    HW122455   0.724  10.207   9.874 -0.4416  0.4615  1.2790
 6031SOL    HW222456   0.719  10.055   9.869  0.5033  0.4336  0.7949
 6032SOL     OW22457   1.390   9.092   9.616 -0.3955  0.0204 -0.7200
 6032SOL    HW122458   1.413   9.004   9.586  0.8009  0.3239 -0.7326
 6032SOL    HW222459   1.472   9.140   9.614 -0.8538  0.8772  0.2026
 6033SOL     OW22460  10.783   0.624  10.575  0.1944  0.2394  0.6011
 6033SOL    HW122461  10.851   0.598  10.513 -0.7013  0.5480 -0.5618
 6033SOL    HW222462  10.769   0.546  10.629 -0.5225 -0.8287 -1.0390
 6034SOL     OW22463   8.927   3.306   0.485 -0.1956  0.0978  0.6204
 6034SOL    HW122464   8.982   3.267   0.417 -1.2303 -0.3250  0.0040
 6034SOL    HW222465   8.881   3.377   0.441 -0.2712  0.3399  1.0877
 6035SOL     OW22466   2.739   3.717   9.973  0.1524 -0.0836 -0.3106
 6035SOL    HW122467   2.648   3.691   9.986  0.2812 -0.5737 -0.4004
 6035SOL    HW222468   2.789   3.636   9.976  0.9193  0.3938  2.4587
 6036SOL     OW22469   4.521   8.275   0.747  0.1606 -0.1318 -0.3053
 6036SOL    HW122470   4.441   8.266   0.695  0.2456  0.6542 -0.5814
 6036SOL    HW222471   4.585   8.220   0.701  0.0386 -0.0094 -0.6291
 6037SOL     OW22472   3.240   3.323   7.581 -0.0297 -0.1572 -0.1311
 6037SOL    HW122473   3.199   3.256   7.526  1.7837  0.0479 -1.8362
 6037SOL    HW222474   3.279   3.275   7.653  0.0185 -0.7742 -0.5655
 6038SOL     OW22475   5.264   0.672   2.816 -0.2379 -0.2032  0.7123
 6038SOL    HW122476   5.208   0.678   2.739 -1.1801 -0.8686  1.3141
 6038SOL    HW222477   5.352   0.661   2.781 -0.4367  1.0622 -0.2582
 6039SOL     OW22478  11.078   9.205  10.486  0.5074  0.4714 -0.0753
 6039SOL    HW122479  10.992   9.166  10.505 -0.1614  0.4948 -2.6997
 6039SOL    HW222480  11.140   9.134  10.501  0.3917  0.9286  3.6763
 6040SOL     OW22481  10.826  10.087   7.961 -0.3291  0.0975  0.1151
 6040SOL    HW122482  10.906  10.138   7.963 -0.4819  0.3588  1.9814
 6040SOL    HW222483  10.801  10.084   7.869  0.4791  2.1254 -0.2212
 6041SOL     OW22484   1.658   8.871   1.352 -0.1879 -0.1784 -0.1451
 6041SOL    HW122485   1.690   8.910   1.433 -0.5984  0.4238 -0.2675
 6041SOL    HW222486   1.636   8.946   1.297 -0.7140 -0.5875 -0.4938
 6042SOL     OW22487  10.484   3.063   0.501 -0.1553 -0.4475  0.2079
 6042SOL    HW122488  10.561   3.029   0.456 -0.6132  1.4933 -2.2498
 6042SOL    HW222489  10.519   3.110   0.577  0.8959 -1.1707  0.1954
 6043SOL     OW22490   2.952   6.337   5.428 -0.1322 -0.0033  0.0630
 6043SOL    HW122491   3.008   6.283   5.485 -1.7411 -0.7694  0.9755
 6043SOL    HW222492   2.890   6.377   5.488 -0.2934  1.2018 -0.8846
 6044SOL     OW22493   8.326   0.896   9.683  0.0306 -0.0138  0.0708
 6044SOL    HW122494   8.382   0.856   9.617  0.2510  0.5321 -0.0737
 6044SOL    HW222495   8.282   0.968   9.637  1.1321  1.1775  0.8260
 6045SOL     OW22496   7.190   4.469   2.814  0.0135  0.7848 -0.3432
 6045SOL    HW122497   7.261   4.532   2.826  1.4547 -0.7442 -0.3864
 6045SOL    HW222498   7.173   4.435   2.902 -0.2926  0.7661 -0.4093
 6046SOL     OW22499   0.820   9.653   7.232 -0.0106 -0.2349 -0.1718
 6046SOL    HW122500   0.731   9.635   7.201 -1.2251 -0.6438  3.1390
 6046SOL    HW222501   0.855   9.568   7.257  0.4540  0.1726  0.6025
 6047SOL     OW22502   0.625   7.020   2.702 -0.1126 -0.2662 -0.3230
 6047SOL    HW122503   0.643   7.114   2.700 -0.3927 -0.2007  0.1237
 6047SOL    HW222504   0.535   7.012   2.670  0.8010 -0.6373 -3.0247
 6048SOL     OW22505   7.152   0.053   1.719  0.1688  0.1443 -0.2022
 6048SOL    HW122506   7.132   0.146   1.706  0.3971  0.2744  0.3274
 6048SOL    HW222507   7.160   0.044   1.814 -1.6339 -0.7923 -0.1151
 6049SOL     OW22508   0.104  10.357   7.246 -0.2306  0.0895  0.5286
 6049SOL    HW122509   0.109  10.381   7.154  0.5604 -1.6718  0.0744
 6049SOL    HW222510   0.156  10.425   7.290  1.6442 -0.5027 -0.6547
 6050SOL     OW22511   4.555   0.541   1.923  0.6351 -0.0953  0.2396
 6050SOL    HW122512   4.505   0.622   1.910 -1.2417 -1.1150  0.6910
 6050SOL    HW222513   4.572   0.510   1.834  0.4739  0.2693  0.0767
 6051SOL     OW22514   3.278   7.500  10.976 -0.2223 -0.0240  0.2138
 6051SOL    HW122515   3.285   7.495  11.071 -0.2256 -1.2585  0.1705
 6051SOL    HW222516   3.313   7.416  10.945 -1.7822 -0.3664 -0.7678
 6052SOL     OW22517  10.355   4.404   9.050  0.1065  0.3549  1.0318
 6052SOL    HW122518  10.344   4.426   8.957 -1.1162  0.1306  1.1018
 6052SOL    HW222519  10.381   4.486   9.091  2.6192  0.0398  0.2209
 6053SOL     OW22520   5.899   8.181   9.044  0.0107  0.2550 -0.0840
 6053SOL    HW122521   5.819   8.231   9.029  1.3580  2.6697  0.2715
 6053SOL    HW222522   5.896   8.112   8.978 -2.1305  0.5527 -0.3762
 6054SOL     OW22523   7.338   6.462   5.458  0.1495  0.2279 -0.1513
 6054SOL    HW122524   7.404   6.525   5.487  0.9199 -0.6475  0.0268
 6054SOL    HW222525   7.324   6.483   5.365  0.1609  0.8642 -0.0121
 6055SOL     OW22526   6.127   3.344   9.962 -0.2391  0.3351  0.0198
 6055SOL    HW122527   6.133   3.438   9.947 -0.9427  0.1162 -1.8963
 6055SOL    HW222528   6.216   3.318   9.986  0.1399  1.3721 -0.2061
 6056SOL     OW22529   2.446   6.124  10.406  0.4120 -0.1083  0.1574
 6056SOL    HW122530   2.514   6.189  10.427  0.2584  0.2490 -0.4170
 6056SOL    HW222531   2.376   6.175  10.365 -0.0243 -0.5384  0.3599
 6057SOL     OW22532  10.294   6.609   2.099 -0.3006 -0.2003 -0.0682
 6057SOL    HW122533  10.226   6.543   2.083 -1.6515  0.5629  2.0994
 6057SOL    HW222534  10.376   6.560   2.093 -1.1947 -1.8145  0.2010
 6058SOL     OW22535   5.754   6.317   2.972  1.0261 -0.3502 -0.1142
 6058SOL    HW122536   5.660   6.307   2.987  1.1177 -1.6361 -0.2267
 6058SOL    HW222537   5.760   6.361   2.887  0.5284 -0.1875 -0.0725
 6059SOL     OW22538   1.778   9.318   9.308  0.4648  0.2262 -0.5542
 6059SOL    HW122539   1.722   9.354   9.240  0.6420 -0.6873 -1.1977
 6059SOL    HW222540   1.806   9.233   9.274  1.6617  0.3529  0.0597
 6060SOL     OW22541   9.155   3.404   9.638  0.2445 -0.6254 -0.4187
 6060SOL    HW122542   9.120   3.492   9.624 -1.8364 -1.2732  0.2606
 6060SOL    HW222543   9.128   3.356   9.559  4.0056 -0.0163 -2.2647
 6061SOL     OW22544   2.121   8.366   2.037  0.0490 -0.1312 -0.2191
 6061SOL    HW122545   2.095   8.389   2.126  1.9763 -0.5451  0.5127
 6061SOL    HW222546   2.055   8.304   2.007 -1.3003  0.9407  0.4492
 6062SOL     OW22547   8.405   6.145   5.917 -0.0542 -0.1497  0.5963
 6062SOL    HW122548   8.491   6.149   5.959  0.8489  1.0736 -1.1975
 6062SOL    HW222549   8.425   6.134   5.824 -1.7124  2.3466 -0.1603
 6063SOL     OW22550   2.121   4.681  10.697 -0.4177  0.5995 -0.0666
 6063SOL    HW122551   2.098   4.592  10.672 -0.3090  0.7395 -0.6756
 6063SOL    HW222552   2.173   4.715  10.623  0.4980  0.7886  0.6359
 6064SOL     OW22553   7.676   3.934   3.776 -0.0991  0.8290 -0.3586
 6064SOL    HW122554   7.740   3.914   3.708 -0.1079 -0.7164  0.0424
 6064SOL    HW222555   7.706   4.017   3.814  0.4611  1.1990 -1.5683
 6065SOL     OW22556   5.897   5.488   9.471 -0.1733 -0.0858  0.2784
 6065SOL    HW122557   5.871   5.579   9.482 -0.8879 -0.2706  0.1616
 6065SOL    HW222558   5.829   5.449   9.416 -0.4035 -0.9324  1.1288
 6066SOL     OW22559   1.808   4.456   6.043 -0.0145  0.0131  0.1426
 6066SOL    HW122560   1.811   4.417   5.956 -3.9902 -0.2849 -0.0649
 6066SOL    HW222561   1.857   4.537   6.036  0.8083 -0.6161 -2.0104
 6067SOL     OW22562   0.979   5.906   7.642 -0.0107  0.5531  0.5138
 6067SOL    HW122563   1.000   5.838   7.579  2.1374  0.3193  1.3852
 6067SOL    HW222564   0.923   5.862   7.707  0.5427 -0.1347  0.5393
 6068SOL     OW22565   0.214   9.760   1.971  0.0151 -0.3792 -0.0217
 6068SOL    HW122566   0.162   9.788   1.896 -0.9591  0.2390  0.8459
 6068SOL    HW222567   0.304   9.760   1.940 -0.4068 -0.4922 -1.2845
 6069SOL     OW22568   6.988   5.831   2.007 -0.4403 -0.3992  0.0201
 6069SOL    HW122569   6.904   5.804   1.970 -0.6962 -1.9621  1.6344
 6069SOL    HW222570   7.047   5.758   1.990  0.4574  0.4182 -0.5214
 6070SOL     OW22571   1.644   1.250   3.387 -0.2042  1.0011 -0.6133
 6070SOL    HW122572   1.651   1.311   3.462 -3.1377  1.4259 -0.5613
 6070SOL    HW222573   1.734   1.223   3.370  0.6019  0.3193  3.5304
 6071SOL     OW22574   1.964   4.208   7.149  0.3333 -0.1021  0.0853
 6071SOL    HW122575   1.968   4.197   7.244 -0.6334 -2.1195 -0.0538
 6071SOL    HW222576   1.887   4.263   7.135  0.9912  0.9477  0.4903
 6072SOL     OW22577   1.005   4.498   5.725  0.1075  0.1086  0.2595
 6072SOL    HW122578   1.089   4.507   5.771  0.1355  1.0351  0.0509
 6072SOL    HW222579   1.030   4.491   5.633 -0.1011  2.5479 -0.0332
 6073SOL     OW22580   6.835   0.231   3.368  0.4033  0.1300  0.4324
 6073SOL    HW122581   6.862   0.269   3.283  2.3288 -0.4706  0.7279
 6073SOL    HW222582   6.916   0.223   3.417 -0.4534 -1.1671  1.7005
 6074SOL     OW22583   0.873  10.040   1.291  0.0710 -0.7954 -0.8364
 6074SOL    HW122584   0.833  10.059   1.207 -1.1383 -2.7828 -0.7811
 6074SOL    HW222585   0.826   9.963   1.324  0.9358 -0.4830  1.3583
 6075SOL     OW22586   5.359   3.902  10.026  0.0794  0.0201  0.1183
 6075SOL    HW122587   5.277   3.869  10.062 -0.0135  0.3510  0.2189
 6075SOL    HW222588   5.368   3.858   9.941  0.3735 -0.8685  0.6026
 6076SOL     OW22589   9.114   6.366   8.340  0.3878  0.5972 -0.6057
 6076SOL    HW122590   9.135   6.308   8.266 -0.5623 -0.2500 -0.2375
 6076SOL    HW222591   9.194   6.370   8.391  0.8619  0.6679 -1.3436
 6077SOL     OW22592   7.527   4.285   6.397 -0.0749  0.0717 -0.2007
 6077SOL    HW122593   7.558   4.280   6.487  0.5083  0.8740 -0.3529
 6077SOL    HW222594   7.450   4.227   6.395 -0.2710  0.2797  0.8751
 6078SOL     OW22595   2.088   9.194   0.569  0.2772 -0.4697 -0.1096
 6078SOL    HW122596   2.133   9.277   0.559  0.8258 -0.8949 -1.3665
 6078SOL    HW222597   2.141   9.146   0.633  1.4679 -0.8407 -1.3332
 6079SOL     OW22598  10.963  10.173   9.853  0.3173  0.0623 -0.3841
 6079SOL    HW122599  11.038  10.203   9.801  1.1360  1.4063  1.4563
 6079SOL    HW222600  10.995  10.175   9.944 -1.4130 -1.0739  0.2989
 6080SOL     OW22601   0.974   8.271   6.171  0.0899  0.1678  0.2855
 6080SOL    HW122602   1.063   8.278   6.138  1.1176 -1.6917  2.4179
 6080SOL    HW222603   0.982   8.278   6.266 -2.3537  2.1903  0.4617
 6081SOL     OW22604   8.345   8.104   3.214  0.1072  0.4335 -0.1059
 6081SOL    HW122605   8.330   8.188   3.257 -2.1711  1.4814 -2.6535
 6081SOL    HW222606   8.388   8.126   3.132 -1.1809 -0.7930 -1.1553
 6082SOL     OW22607  10.709   5.170   4.670  0.1568 -0.1530 -0.1967
 6082SOL    HW122608  10.679   5.088   4.631 -0.2481  0.0571 -0.3280
 6082SOL    HW222609  10.795   5.185   4.629 -0.2866  0.0921 -1.0567
 6083SOL     OW22610   1.334   7.440   1.351  0.5994  0.6801 -0.0179
 6083SOL    HW122611   1.328   7.350   1.318 -1.1239  0.6433  0.3222
 6083SOL    HW222612   1.421   7.469   1.324  1.3401 -1.2043  0.1724
 6084SOL     OW22613   2.845   0.803   4.974 -0.6160  0.1456  0.3868
 6084SOL    HW122614   2.876   0.805   4.883 -0.1854 -2.1343  0.4230
 6084SOL    HW222615   2.753   0.826   4.968 -0.5127  0.3797 -0.5733
 6085SOL     OW22616   5.455   1.521   3.459  0.2233 -0.3536 -0.4841
 6085SOL    HW122617   5.500   1.502   3.542 -0.2321 -0.7211 -0.3193
 6085SOL    HW222618   5.476   1.447   3.403 -1.0059 -1.0357 -0.0647
 6086SOL     OW22619   2.490   7.638   2.470  0.5657 -0.6357 -0.7611
 6086SOL    HW122620   2.443   7.721   2.472  1.6095  0.1048  3.8134
 6086SOL    HW222621   2.582   7.661   2.480  0.9832 -2.3288 -0.3363
 6087SOL     OW22622   5.246   4.079   8.914  0.1966 -0.5565  0.1737
 6087SOL    HW122623   5.161   4.048   8.944 -0.3084 -1.3278 -1.8945
 6087SOL    HW222624   5.246   4.172   8.934 -2.0803 -0.0615 -1.6549
 6088SOL     OW22625  10.327   5.257   2.808 -0.4036 -0.2691  0.6497
 6088SOL    HW122626  10.405   5.308   2.786 -1.4181  1.9988  1.9107
 6088SOL    HW222627  10.358   5.192   2.871  0.6342  0.0315  0.4668
 6089SOL     OW22628   5.213   5.532  11.003 -0.0488  0.5628 -0.1431
 6089SOL    HW122629   5.144   5.572  10.950  0.9698  3.4813  0.5736
 6089SOL    HW222630   5.291   5.584  10.985  1.4750 -1.2955  0.7221
 6090SOL     OW22631   1.511   3.544   7.037 -0.1363 -0.3505 -0.1831
 6090SOL    HW122632   1.586   3.573   7.089 -0.9750 -1.3087  1.6532
 6090SOL    HW222633   1.536   3.458   7.006 -1.0091 -1.3778  1.7687
 6091SOL     OW22634   6.044   9.316   1.268 -0.0744 -0.0024  0.1517
 6091SOL    HW122635   5.970   9.336   1.211 -0.9833 -1.2112  0.8532
 6091SOL    HW222636   6.006   9.264   1.340  1.1411  0.8816  1.4916
 6092SOL     OW22637  10.102   9.436   1.599 -0.1669  0.3177 -0.3818
 6092SOL    HW122638  10.099   9.413   1.692 -1.7026 -1.0224 -0.7072
 6092SOL    HW222639  10.126   9.529   1.598  1.5914 -0.0551  1.2425
 6093SOL     OW22640   3.217   1.936   9.461  0.2054  0.1801  0.5285
 6093SOL    HW122641   3.306   1.920   9.428 -0.5576 -1.6830 -0.7998
 6093SOL    HW222642   3.203   1.867   9.526 -0.6906 -0.2647 -0.1339
 6094SOL     OW22643  10.886   8.550   5.458 -0.2210 -0.7120  0.0011
 6094SOL    HW122644  10.832   8.475   5.433 -1.6074 -0.2247  1.3829
 6094SOL    HW222645  10.832   8.599   5.520  0.8317  1.1806 -0.4907
 6095SOL     OW22646   0.774   2.801   0.660 -0.4785  0.2923  0.6161
 6095SOL    HW122647   0.858   2.844   0.678  0.6929 -1.4536 -0.3674
 6095SOL    HW222648   0.748   2.762   0.743  0.5939 -0.6154  0.5437
 6096SOL     OW22649   2.173   2.597   2.577  0.2402 -0.1154  0.3260
 6096SOL    HW122650   2.111   2.637   2.517 -0.5743 -3.4859 -1.3014
 6096SOL    HW222651   2.248   2.657   2.578  0.3520  0.1428 -4.1685
 6097SOL     OW22652   0.636   7.105   9.303  0.0467  0.0070  0.2475
 6097SOL    HW122653   0.631   7.193   9.266 -1.4842 -0.2621 -0.2485
 6097SOL    HW222654   0.573   7.106   9.375  0.1971 -0.6299  0.3957
 6098SOL     OW22655   3.110  10.438   6.899  0.5245 -0.0089  0.0228
 6098SOL    HW122656   3.067  10.468   6.979 -0.2187 -0.4171 -0.2146
 6098SOL    HW222657   3.069  10.490   6.829 -0.4822 -1.2475 -0.3420
 6099SOL     OW22658   0.986   6.016   4.977  0.4747 -0.3631 -0.0187
 6099SOL    HW122659   1.027   6.099   4.997  0.7889 -0.8468  1.4373
 6099SOL    HW222660   1.058   5.957   4.955  0.4256 -0.7209  0.7375
 6100SOL     OW22661   0.478   2.750   3.662  0.3337  0.4022  0.1587
 6100SOL    HW122662   0.451   2.841   3.677  0.8066  0.6672 -0.5424
 6100SOL    HW222663   0.561   2.757   3.615  0.5011 -0.3993  0.3160
 6101SOL     OW22664   9.788   5.172   7.032 -0.3022 -0.3789 -1.0798
 6101SOL    HW122665   9.732   5.186   6.955  1.2898 -0.0621 -2.2189
 6101SOL    HW222666   9.757   5.238   7.095 -0.5672  0.4678 -2.0605
 6102SOL     OW22667  10.595   5.436   4.693 -0.4878 -0.2212  0.4457
 6102SOL    HW122668  10.676   5.488   4.696 -0.5316  0.0252 -1.5748
 6102SOL    HW222669  10.625   5.346   4.685 -0.3561 -0.0640 -1.2185
 6103SOL     OW22670   9.290   3.221   7.800  0.2440  0.0897  0.5091
 6103SOL    HW122671   9.229   3.203   7.729 -0.5890 -1.0707  1.4845
 6103SOL    HW222672   9.375   3.192   7.767 -0.2541 -1.0751  0.2073
 6104SOL     OW22673   2.556  10.632   1.623  0.1836 -0.0671 -0.6581
 6104SOL    HW122674   2.641  10.608   1.660 -1.1332  0.0384  2.7938
 6104SOL    HW222675   2.553  10.727   1.631 -0.4593 -0.1203 -0.2102
 6105SOL     OW22676   0.029   9.750   4.995 -0.2516 -0.2745 -0.5114
 6105SOL    HW122677  -0.009   9.685   4.936 -1.2806 -1.0080  0.8963
 6105SOL    HW222678  -0.047   9.788   5.041  0.4968  0.4404  0.1727
 6106SOL     OW22679   5.446   5.646  10.560 -1.0586  0.0085 -0.3682
 6106SOL    HW122680   5.412   5.711  10.499  2.1577  2.1272 -0.0848
 6106SOL    HW222681   5.534   5.626  10.528  0.2494  0.2057  2.7608
 6107SOL     OW22682   4.602  10.288   7.478 -0.2470 -0.0961 -0.2079
 6107SOL    HW122683   4.586  10.265   7.569 -1.0144  1.1702 -0.0022
 6107SOL    HW222684   4.607  10.204   7.433 -0.1214 -0.7277  0.9581
 6108SOL     OW22685  10.860   3.656   7.195 -0.5456 -0.0466 -0.7069
 6108SOL    HW122686  10.872   3.623   7.105 -1.7939  1.1293 -1.3319
 6108SOL    HW222687  10.819   3.742   7.184 -0.7930  0.0844  1.0092
 6109SOL     OW22688   4.136   5.809   3.205  0.3408 -0.0214 -0.8017
 6109SOL    HW122689   4.064   5.853   3.250  1.2911  2.7265 -1.7741
 6109SOL    HW222690   4.199   5.790   3.274  1.3418  3.2300 -0.6905
 6110SOL     OW22691   2.365   8.505   0.520 -0.2389 -0.5579  0.0294
 6110SOL    HW122692   2.456   8.532   0.535 -0.2293 -0.6848  0.1986
 6110SOL    HW222693   2.373   8.427   0.465 -0.2769 -0.0170 -0.7607
 6111SOL     OW22694   2.069   7.687   6.357 -0.1288 -0.4648  0.0848
 6111SOL    HW122695   2.006   7.720   6.421 -1.3673 -1.5735 -0.5045
 6111SOL    HW222696   2.110   7.766   6.320 -1.1538  0.2884  0.5164
 6112SOL     OW22697   3.595   5.031   1.123  0.8947  0.1979  0.1030
 6112SOL    HW122698   3.619   5.109   1.173  1.5594 -0.9623  1.6734
 6112SOL    HW222699   3.657   4.964   1.153  0.2650 -0.9681 -1.1226
 6113SOL     OW22700   7.813   9.631   2.406  0.4915  0.3332 -0.6215
 6113SOL    HW122701   7.786   9.702   2.465 -2.6502 -1.0456 -0.1601
 6113SOL    HW222702   7.876   9.580   2.458  1.9703  2.1016 -0.5726
 6114SOL     OW22703   9.545   4.767   2.592  0.2041 -0.1965 -0.1357
 6114SOL    HW122704   9.628   4.719   2.596  0.1962 -0.1769  0.4738
 6114SOL    HW222705   9.539   4.810   2.678 -0.0858  0.3919 -0.4471
 6115SOL     OW22706   2.592   3.146   9.558  0.4684 -0.5585  0.3923
 6115SOL    HW122707   2.641   3.111   9.632  0.7730  0.9678  0.9368
 6115SOL    HW222708   2.500   3.135   9.584  0.5682  0.7199  1.4076
 6116SOL     OW22709   5.125   4.045   9.722 -0.1783  0.0920  0.1136
 6116SOL    HW122710   5.195   4.030   9.657  0.5462 -1.0713  1.1341
 6116SOL    HW222711   5.135   4.138   9.745  0.3545  0.2074 -0.5236
 6117SOL     OW22712   9.696   9.105   4.287  0.4960  0.3134 -0.2175
 6117SOL    HW122713   9.634   9.104   4.215  0.7467 -0.4744 -0.4324
 6117SOL    HW222714   9.764   9.043   4.261  1.5187  1.3565 -0.1171
 6118SOL     OW22715   6.657   0.962   1.832  0.0022 -0.2417  0.8572
 6118SOL    HW122716   6.742   0.933   1.866  0.1903  0.1073  0.6842
 6118SOL    HW222717   6.593   0.923   1.891  0.2430 -1.2458  0.4767
 6119SOL     OW22718   5.194   6.074   8.132 -0.1549  0.0221 -0.2484
 6119SOL    HW122719   5.251   6.098   8.059 -0.5769 -0.1780 -0.6520
 6119SOL    HW222720   5.220   6.132   8.203  0.3086  0.1744 -0.5375
 6120SOL     OW22721   1.477   1.648   2.507  0.5124 -0.7756  0.7788
 6120SOL    HW122722   1.504   1.569   2.554 -0.1681 -1.8253 -0.5176
 6120SOL    HW222723   1.534   1.651   2.430 -1.8754 -2.2177 -1.2199
 6121SOL     OW22724   5.262   5.889   2.186 -0.3845 -0.2614 -0.0719
 6121SOL    HW122725   5.184   5.905   2.239 -0.4007 -0.8826  0.0942
 6121SOL    HW222726   5.247   5.939   2.106 -0.7252  0.0217  0.1659
 6122SOL     OW22727   3.844   4.509   9.109 -0.4039 -0.4909  0.0897
 6122SOL    HW122728   3.820   4.541   9.196 -1.3201  2.2644 -1.0550
 6122SOL    HW222729   3.938   4.494   9.114 -0.6245 -1.5427  1.8504
 6123SOL     OW22730   1.825   0.848   0.213 -0.2206  0.2891 -0.1296
 6123SOL    HW122731   1.890   0.780   0.230  0.2724  0.9468  0.7219
 6123SOL    HW222732   1.841   0.876   0.123  0.9906  0.7606  0.2192
 6124SOL     OW22733   9.775   5.743   5.071 -0.4138 -0.3020 -0.0748
 6124SOL    HW122734   9.807   5.788   5.149 -0.0405 -0.8711  0.1017
 6124SOL    HW222735   9.854   5.720   5.023 -0.6441  0.2335 -0.7365
 6125SOL     OW22736   8.768   7.880   1.900  0.1329 -0.3311  0.8453
 6125SOL    HW122737   8.855   7.883   1.941  0.8503 -0.2755 -0.6202
 6125SOL    HW222738   8.737   7.970   1.902  0.6938 -0.1159  0.1892
 6126SOL     OW22739   2.805   6.721   2.412  0.2926 -0.0608 -1.0015
 6126SOL    HW122740   2.727   6.751   2.365 -0.7336 -1.7699 -0.4732
 6126SOL    HW222741   2.830   6.796   2.467 -1.0309  0.4882 -1.1081
 6127SOL     OW22742  11.077   7.643  10.082  0.4175  0.3046 -0.5563
 6127SOL    HW122743  11.044   7.725  10.118  0.0773 -0.0004 -0.1709
 6127SOL    HW222744  11.172   7.655  10.079  0.3783  0.6626 -0.3808
 6128SOL     OW22745  10.605   4.183  10.614 -0.9831  0.0225  0.2906
 6128SOL    HW122746  10.617   4.217  10.703  1.9861 -2.2726  0.8931
 6128SOL    HW222747  10.605   4.262  10.559  3.7036  1.3979  1.7743
 6129SOL     OW22748   0.274   5.100   4.942 -0.2774  0.4058  0.2835
 6129SOL    HW122749   0.256   5.118   5.034 -0.9131  1.3990 -0.0061
 6129SOL    HW222750   0.342   5.033   4.942 -0.1232  0.5500  1.4744
 6130SOL     OW22751   0.934   0.492   2.660 -0.1156  0.2038  0.2474
 6130SOL    HW122752   0.872   0.560   2.633 -0.2026  0.0397  0.0349
 6130SOL    HW222753   1.016   0.517   2.619 -0.7252 -1.2016 -2.0087
 6131SOL     OW22754   3.411   3.826   9.587 -0.3556  0.0823  0.0918
 6131SOL    HW122755   3.472   3.899   9.579 -1.1312  0.6750 -0.5000
 6131SOL    HW222756   3.387   3.825   9.679 -0.9658  1.0986 -0.0423
 6132SOL     OW22757   6.539   4.507  10.773  0.5534  0.3177 -0.1524
 6132SOL    HW122758   6.454   4.473  10.798  0.1589  0.7108 -0.9226
 6132SOL    HW222759   6.600   4.434  10.787 -0.0829 -0.3145 -0.6492
 6133SOL     OW22760   5.535   1.633   7.782 -0.4628  0.3802  0.6234
 6133SOL    HW122761   5.608   1.579   7.752  0.2263  0.9979  1.1700
 6133SOL    HW222762   5.576   1.713   7.815 -1.4212  0.9513  0.4647
 6134SOL     OW22763   6.606   4.694   9.260 -0.1663  0.1021  0.1497
 6134SOL    HW122764   6.617   4.601   9.243  0.4228  0.1656  0.1809
 6134SOL    HW222765   6.669   4.714   9.330 -0.5550  0.4450  0.4107
 6135SOL     OW22766   6.377   6.915   6.394 -0.4183 -0.1935 -0.5384
 6135SOL    HW122767   6.335   6.836   6.427 -1.5369  0.6073  0.0210
 6135SOL    HW222768   6.329   6.937   6.315 -0.9941  0.6433  0.0228
 6136SOL     OW22769  10.671   4.616   1.883 -0.0892  0.1629 -0.0568
 6136SOL    HW122770  10.683   4.616   1.788 -1.1790  0.2591 -0.2036
 6136SOL    HW222771  10.638   4.529   1.903  0.7596 -0.0801  0.3303
 6137SOL     OW22772   1.974   1.546   3.239 -0.4636 -0.5351 -0.3300
 6137SOL    HW122773   2.049   1.533   3.182 -1.4372  1.1960 -2.1182
 6137SOL    HW222774   1.904   1.493   3.199 -0.8246 -0.3063 -0.0133
 6138SOL     OW22775   1.403   5.749   7.371 -0.4905 -0.1746 -0.3177
 6138SOL    HW122776   1.321   5.713   7.405 -1.3169  0.7695 -1.2313
 6138SOL    HW222777   1.461   5.673   7.362 -2.0693 -1.2847 -1.9117
 6139SOL     OW22778   2.598   2.084   6.624 -0.1358  0.1025  0.0946
 6139SOL    HW122779   2.537   2.158   6.621  0.6933  0.7805 -0.6453
 6139SOL    HW222780   2.684   2.124   6.616  0.3085 -0.9782 -0.9105
 6140SOL     OW22781   2.333  10.075   4.023 -0.6163  0.1550  0.2572
 6140SOL    HW122782   2.318   9.988   4.062  0.7184 -0.3629 -0.3323
 6140SOL    HW222783   2.269  10.080   3.951 -1.3893  0.0945  0.9210
 6141SOL     OW22784   0.440  10.181   9.715  0.5593 -0.1943 -0.3624
 6141SOL    HW122785   0.466  10.269   9.690  0.1666 -0.2786 -1.0729
 6141SOL    HW222786   0.522  10.139   9.744  0.3597  1.2495  2.7451
 6142SOL     OW22787   9.715   1.433   9.030 -0.2013 -0.8922  0.0819
 6142SOL    HW122788   9.687   1.416   9.121 -1.4681 -1.2340 -0.3553
 6142SOL    HW222789   9.770   1.511   9.036  0.9498 -1.7541  1.3507
 6143SOL     OW22790   8.126   1.424   1.190 -0.0124  0.6455  0.2601
 6143SOL    HW122791   8.059   1.441   1.123 -2.9114 -1.9715  2.1839
 6143SOL    HW222792   8.137   1.509   1.233 -2.1052  1.2429 -0.2189
 6144SOL     OW22793   4.600   4.034   9.270  0.2285  0.3531  0.0434
 6144SOL    HW122794   4.689   4.067   9.286  0.4179  0.4861 -1.1772
 6144SOL    HW222795   4.584   3.972   9.341  1.5814 -0.1909 -0.0967
 6145SOL     OW22796  10.863   4.792   8.074 -0.2606  0.0249 -0.3041
 6145SOL    HW122797  10.894   4.740   7.999 -0.3988 -1.0073  0.3356
 6145SOL    HW222798  10.902   4.878   8.061 -0.7752  0.0573 -1.8945
 6146SOL     OW22799   6.903   3.045   0.071 -0.3184 -0.1472 -0.2263
 6146SOL    HW122800   6.904   3.052   0.167 -0.3871 -2.0403 -0.0526
 6146SOL    HW222801   6.905   3.136   0.041 -2.8174  0.6351  1.5835
 6147SOL     OW22802   1.268  10.951   7.660 -0.1256  0.4701  0.7301
 6147SOL    HW122803   1.205  10.897   7.706  1.1713  0.0788  2.1289
 6147SOL    HW222804   1.353  10.910   7.677  0.8527  2.5843  1.3697
 6148SOL     OW22805   2.850   0.554   5.724 -0.4282  0.2925 -0.2157
 6148SOL    HW122806   2.855   0.460   5.743 -2.5881  0.4933  1.7325
 6148SOL    HW222807   2.766   0.564   5.678 -0.5819  1.3674  0.2926
 6149SOL     OW22808   2.035   9.698   9.683  0.4028 -0.3541  0.2242
 6149SOL    HW122809   1.998   9.676   9.769  0.4566  0.8257  0.5638
 6149SOL    HW222810   1.987   9.642   9.622 -1.6115  0.7440  0.7173
 6150SOL     OW22811   7.079   6.271   3.998 -0.3359  0.3776 -0.1092
 6150SOL    HW122812   7.084   6.224   4.081  1.2538 -0.4750 -0.6396
 6150SOL    HW222813   7.023   6.346   4.016 -0.4917 -0.1004  1.5744
 6151SOL     OW22814   5.836   4.856   3.655  0.3275 -0.1274 -0.0185
 6151SOL    HW122815   5.763   4.800   3.681  1.4147 -0.6760  2.0949
 6151SOL    HW222816   5.883   4.805   3.588 -0.7274 -0.1194 -0.7858
 6152SOL     OW22817   5.246   2.013   9.667  0.6572  0.2264 -0.3720
 6152SOL    HW122818   5.170   2.072   9.664  0.7185  0.5579  2.2305
 6152SOL    HW222819   5.209   1.926   9.681  0.7261  0.5197  1.9060
 6153SOL     OW22820   9.114   8.286   4.360 -0.0870 -0.5111  0.1284
 6153SOL    HW122821   9.061   8.315   4.434 -0.8110 -2.2633  0.3440
 6153SOL    HW222822   9.060   8.222   4.315  0.3460  0.5056 -1.9549
 6154SOL     OW22823   7.658   5.406   0.615 -0.1376  0.8187 -0.0361
 6154SOL    HW122824   7.614   5.466   0.555  0.7201  1.9053  0.3760
 6154SOL    HW222825   7.737   5.454   0.643  1.1437 -0.9124 -0.5142
 6155SOL     OW22826   7.801  10.469   0.388  0.1479 -0.2304 -0.6198
 6155SOL    HW122827   7.896  10.480   0.383  0.2397 -0.7776 -0.2074
 6155SOL    HW222828   7.774  10.449   0.299  0.1587  1.8107 -1.1261
 6156SOL     OW22829   9.281   5.681   8.254 -0.2523  0.2967  1.0065
 6156SOL    HW122830   9.365   5.660   8.295  0.3533  1.1279  0.2550
 6156SOL    HW222831   9.256   5.765   8.294  0.4709  1.2467 -0.4290
 6157SOL     OW22832   5.075   0.551   8.449 -0.2631  0.2217 -0.6721
 6157SOL    HW122833   5.039   0.591   8.370 -4.4500 -1.6270  0.0462
 6157SOL    HW222834   5.033   0.598   8.521  0.8463 -0.3559  0.3835
 6158SOL     OW22835  10.457   9.940   9.406 -0.4439  0.1586  0.9516
 6158SOL    HW122836  10.474   9.959   9.498  0.5354  0.0913  0.7981
 6158SOL    HW222837  10.372   9.897   9.405 -0.9179  1.0488  1.7196
 6159SOL     OW22838   4.420   4.351   7.392 -0.1420  0.2789  0.1766
 6159SOL    HW122839   4.463   4.316   7.470 -1.7241  0.7792  1.3227
 6159SOL    HW222840   4.366   4.423   7.425 -1.5503 -0.0922 -1.2334
 6160SOL     OW22841   7.592   2.252   1.962 -0.2163 -0.2095  0.0345
 6160SOL    HW122842   7.539   2.272   2.039  0.1905 -2.8435  1.1207
 6160SOL    HW222843   7.680   2.237   1.996  0.2390 -0.2843 -1.1168
 6161SOL     OW22844   1.540   3.427   7.781 -0.4942 -0.2572 -0.4568
 6161SOL    HW122845   1.509   3.425   7.872 -0.1411  0.1114 -0.3234
 6161SOL    HW222846   1.544   3.335   7.755  0.2362 -0.4304  0.1965
 6162SOL     OW22847   5.743   9.226   7.136  0.2898  0.1827 -0.3973
 6162SOL    HW122848   5.671   9.286   7.152  0.0777  0.0357 -0.7802
 6162SOL    HW222849   5.818   9.266   7.179 -0.2190 -0.1288  0.8205
 6163SOL     OW22850   5.677   0.650   3.642  0.1207 -0.3926  0.1082
 6163SOL    HW122851   5.768   0.676   3.637  0.4022 -1.4053 -0.2681
 6163SOL    HW222852   5.637   0.684   3.561 -0.2542  1.5243  1.0568
 6164SOL     OW22853   6.543   5.925   5.777 -0.0327  0.1618 -0.2395
 6164SOL    HW122854   6.573   5.836   5.760 -0.2048  0.1167 -0.3118
 6164SOL    HW222855   6.608   5.981   5.734 -0.8076  0.0355 -1.6696
 6165SOL     OW22856   6.084   2.451   0.639  0.4909 -0.6013  0.4650
 6165SOL    HW122857   6.144   2.435   0.567  0.3181 -0.6903  0.3410
 6165SOL    HW222858   6.117   2.530   0.681 -0.2522  0.3103 -0.6083
 6166SOL     OW22859   0.058  10.726   3.076 -0.2378 -0.1776  0.6480
 6166SOL    HW122860   0.002  10.797   3.107 -1.1367 -0.5158 -0.1654
 6166SOL    HW222861   0.107  10.698   3.154 -0.5212  0.7332  1.1632
 6167SOL     OW22862   3.830   8.468   4.847 -0.0150 -0.0244  0.4833
 6167SOL    HW122863   3.837   8.427   4.760  1.0112  1.5998 -0.2608
 6167SOL    HW222864   3.876   8.408   4.905 -0.7817 -1.1817 -0.0685
 6168SOL     OW22865  10.825   9.547   9.996  0.4562  0.3969  0.7921
 6168SOL    HW122866  10.784   9.593  10.070 -1.5752 -1.7075  1.0712
 6168SOL    HW222867  10.790   9.458  10.001  2.1824 -0.4616 -1.2927
 6169SOL     OW22868   0.179  10.033  10.354 -0.6863 -0.0715 -0.3350
 6169SOL    HW122869   0.152   9.990  10.273  1.4247 -1.2717 -0.4563
 6169SOL    HW222870   0.209  10.120  10.325 -0.8618 -0.1276 -0.6959
 6170SOL     OW22871   7.817   0.538   2.053 -0.0196  0.2586  0.6441
 6170SOL    HW122872   7.801   0.446   2.077 -0.2735 -0.1767 -1.0736
 6170SOL    HW222873   7.729   0.577   2.051 -0.0539  0.1559 -0.0440
 6171SOL     OW22874   4.127   9.160   7.527 -0.7672  0.4676 -0.3057
 6171SOL    HW122875   4.104   9.095   7.461  1.0569 -0.0076 -0.5301
 6171SOL    HW222876   4.195   9.213   7.486  0.0457  0.4784  1.0042
 6172SOL     OW22877   5.103   8.952   5.677  0.1555 -0.3629  0.0854
 6172SOL    HW122878   5.041   8.912   5.617  0.4381 -2.0164  0.8342
 6172SOL    HW222879   5.189   8.926   5.645  0.3916  0.2188  0.2195
 6173SOL     OW22880  10.506   6.873   4.606 -0.4580  0.3703  0.4976
 6173SOL    HW122881  10.465   6.901   4.524 -0.3257  1.5714  0.8270
 6173SOL    HW222882  10.435   6.873   4.669 -0.7870 -1.5784  0.1893
 6174SOL     OW22883   6.152   7.974   3.374 -0.8522  0.0253 -0.1990
 6174SOL    HW122884   6.215   7.969   3.446 -0.8812  0.6295 -0.1301
 6174SOL    HW222885   6.077   7.923   3.405 -0.3541 -0.8041 -0.3357
 6175SOL     OW22886   9.240   5.957   4.975  0.9601  0.1471  0.6429
 6175SOL    HW122887   9.162   5.976   4.923  1.8890  0.0818 -0.8302
 6175SOL    HW222888   9.230   5.865   5.000  0.6772  0.0731  0.2647
 6176SOL     OW22889   1.125   9.350   3.704 -0.3981  0.4728  0.0775
 6176SOL    HW122890   1.095   9.354   3.794  3.5069  0.5722  1.5657
 6176SOL    HW222891   1.153   9.259   3.692  1.6666  1.0552  0.0162
 6177SOL     OW22892   1.500   6.396   6.048 -0.6856 -0.1343  0.6641
 6177SOL    HW122893   1.440   6.330   6.083 -0.3753 -0.2725  0.9387
 6177SOL    HW222894   1.505   6.377   5.955 -0.0041 -0.9752  0.8614
 6178SOL     OW22895   9.884   9.393   4.925  0.4371  0.0452  0.4165
 6178SOL    HW122896   9.808   9.337   4.917  0.0073  0.6518  0.1365
 6178SOL    HW222897   9.959   9.334   4.918 -0.0031 -0.4945  0.2004
 6179SOL     OW22898   2.894   7.470   3.859  0.2829  0.7713  0.2268
 6179SOL    HW122899   2.893   7.566   3.855 -0.8568  0.7423 -1.8373
 6179SOL    HW222900   2.978   7.446   3.819 -0.0300  0.9078 -0.5302
 6180SOL     OW22901  10.694   7.058   9.296 -0.5023  0.3286  0.4349
 6180SOL    HW122902  10.619   7.010   9.330 -2.4631  0.9472 -2.6389
 6180SOL    HW222903  10.739   6.996   9.239 -0.3059  0.7527  0.1198
 6181SOL     OW22904   9.124   2.126   8.596  0.2110 -0.5566  0.5082
 6181SOL    HW122905   9.113   2.222   8.597  0.4517 -0.4054 -2.7061
 6181SOL    HW222906   9.219   2.113   8.599  0.4226 -0.4312 -2.5809
 6182SOL     OW22907   4.183   3.600  10.099  0.0679  0.8453 -0.0135
 6182SOL    HW122908   4.122   3.527  10.087 -0.1853  1.2233 -1.0710
 6182SOL    HW222909   4.143   3.673  10.053 -0.4023  2.0914  2.2360
 6183SOL     OW22910   1.947   9.977   0.769 -0.3976 -0.3663  0.5002
 6183SOL    HW122911   1.949  10.034   0.692  1.3883  0.1560  0.8704
 6183SOL    HW222912   1.901  10.029   0.836 -0.2460 -0.0210  0.3404
 6184SOL     OW22913   5.515   8.889   8.578 -0.1263  0.3767  0.6106
 6184SOL    HW122914   5.423   8.917   8.575 -0.1186  0.5308  1.6300
 6184SOL    HW222915   5.511   8.794   8.588 -0.1537  0.2100 -0.7292
 6185SOL     OW22916   6.670   3.600  10.647  0.0012 -0.6239 -0.2178
 6185SOL    HW122917   6.692   3.584  10.739  0.3898  0.0606 -0.1809
 6185SOL    HW222918   6.578   3.626  10.649  0.6884  2.2075  0.3787
 6186SOL     OW22919   3.402   1.249   2.545  0.3067  0.0206  0.3283
 6186SOL    HW122920   3.351   1.237   2.625  1.5034 -0.3056  1.0748
 6186SOL    HW222921   3.391   1.342   2.523  0.0267  0.1353  0.9243
 6187SOL     OW22922   0.412   0.263  10.847 -0.4515  0.2520  0.5251
 6187SOL    HW122923   0.396   0.169  10.845 -0.3487  0.2408 -1.1170
 6187SOL    HW222924   0.405   0.291  10.756  2.6512  1.2772  0.4582
 6188SOL     OW22925   7.435   2.717  10.847  0.1540 -0.0090 -0.2003
 6188SOL    HW122926   7.504   2.690  10.786  0.3531  2.5312 -1.2062
 6188SOL    HW222927   7.479   2.774  10.909 -0.4847 -0.8552  1.0650
 6189SOL     OW22928   5.451   4.557   4.254  0.0306 -0.0689  0.5635
 6189SOL    HW122929   5.460   4.466   4.282  0.2794 -0.4841 -0.8050
 6189SOL    HW222930   5.385   4.555   4.185  0.0975  0.7790  0.4605
 6190SOL     OW22931   6.135   0.010   1.273  0.6426  0.2833  0.6793
 6190SOL    HW122932   6.053   0.049   1.243  1.4419  0.8378 -0.9206
 6190SOL    HW222933   6.117  -0.017   1.363 -1.7204 -0.9445 -0.0790
 6191SOL     OW22934   1.336   7.945   9.393 -0.5188  0.2550  0.3660
 6191SOL    HW122935   1.263   7.915   9.446  0.8266  0.7444  2.6323
 6191SOL    HW222936   1.361   8.029   9.431  0.8679  0.3722 -0.6944
 6192SOL     OW22937   3.183   7.738   9.093  0.2953 -0.1138 -0.0886
 6192SOL    HW122938   3.197   7.644   9.091  0.6610 -0.1357  1.6475
 6192SOL    HW222939   3.160   7.762   9.003 -1.2969 -2.0746 -0.2668
 6193SOL     OW22940   5.268   5.134   5.437 -0.8666  0.1775 -0.0802
 6193SOL    HW122941   5.252   5.040   5.438 -0.4053  0.0568 -1.3909
 6193SOL    HW222942   5.324   5.147   5.360 -1.8899  1.6701 -0.6006
 6194SOL     OW22943   6.987   5.532   6.344 -0.1057 -0.1072 -0.4722
 6194SOL    HW122944   6.999   5.602   6.279  1.4006  0.3033  0.2112
 6194SOL    HW222945   6.893   5.511   6.340 -0.0117 -0.2732 -2.9367
 6195SOL     OW22946   4.304   5.699   2.708 -0.1605 -0.2000  0.1079
 6195SOL    HW122947   4.276   5.783   2.674  0.5419 -0.2165 -0.5224
 6195SOL    HW222948   4.384   5.718   2.757  0.6128 -0.6490 -0.9493
 6196SOL     OW22949   3.751   5.067   0.398  0.7513  0.7032 -0.6063
 6196SOL    HW122950   3.692   5.056   0.323 -0.5818  0.0373  0.4843
 6196SOL    HW222951   3.738   5.157   0.426  0.5895  0.6891 -0.6360
 6197SOL     OW22952   9.667  10.916   9.403 -0.4618 -0.1673  0.0727
 6197SOL    HW122953   9.593  10.871   9.364 -1.1245  0.6261  0.3873
 6197SOL    HW222954   9.629  10.971   9.471  0.5794 -0.8203  1.2158
 6198SOL     OW22955   0.367   1.545   9.203  0.1710  0.0737 -0.2958
 6198SOL    HW122956   0.297   1.518   9.144  1.0068 -0.8127 -0.9112
 6198SOL    HW222957   0.409   1.618   9.158  0.5825 -0.3703 -0.6405
 6199SOL     OW22958   3.747   0.370   2.610 -0.2657  0.5318 -0.1924
 6199SOL    HW122959   3.750   0.276   2.591  0.4532  0.2688  1.1599
 6199SOL    HW222960   3.775   0.378   2.701 -0.0088  2.0927 -0.3764
 6200SOL     OW22961   8.131   6.126   9.750 -0.2931 -0.4370 -0.1672
 6200SOL    HW122962   8.096   6.210   9.780 -1.3927 -0.6359 -0.8597
 6200SOL    HW222963   8.189   6.098   9.821  0.0433  0.8697  0.0994
 6201SOL     OW22964  10.389  10.943  10.526  0.1608 -0.4141 -0.3289
 6201SOL    HW122965  10.448  10.871  10.548  0.1326 -0.1010  0.7916
 6201SOL    HW222966  10.425  11.019  10.572 -2.0948 -0.5810  1.9270
 6202SOL     OW22967   9.454   3.054   9.991  0.1647  0.2978  0.6141
 6202SOL    HW122968   9.450   2.995  10.066 -0.9519 -0.8564 -0.3263
 6202SOL    HW222969   9.366   3.089   9.982  0.6946  1.7661  0.8593
 6203SOL     OW22970   4.435   7.183   4.295  0.1183  0.1605  0.1496
 6203SOL    HW122971   4.456   7.250   4.359  2.2140 -1.4005  1.2238
 6203SOL    HW222972   4.340   7.172   4.301 -0.1146  2.1794  0.7317
 6204SOL     OW22973   6.147   7.577   6.582  0.1665  0.8912 -0.1625
 6204SOL    HW122974   6.132   7.619   6.667 -0.4708 -0.1323  0.2536
 6204SOL    HW222975   6.113   7.640   6.518 -0.4503  1.1683  0.4245
 6205SOL     OW22976   4.015   6.542   3.875 -0.3462 -0.1101 -0.0278
 6205SOL    HW122977   3.987   6.451   3.865  0.7053 -0.5697  1.0181
 6205SOL    HW222978   4.100   6.546   3.832 -0.6337  0.5407 -0.5647
 6206SOL     OW22979  10.511   6.566   5.050 -0.2730 -0.2096 -0.1621
 6206SOL    HW122980  10.465   6.612   5.121  0.2866 -0.2989  0.2678
 6206SOL    HW222981  10.442   6.519   5.004 -0.5308 -0.9729  0.9506
 6207SOL     OW22982   7.939   6.805   3.559 -0.1382  0.4767 -0.3710
 6207SOL    HW122983   8.010   6.826   3.498  1.1439 -3.2953 -0.4451
 6207SOL    HW222984   7.878   6.753   3.507 -1.4604  1.1114  0.4850
 6208SOL     OW22985   6.951   5.077   5.190 -0.1561  0.5002 -0.2340
 6208SOL    HW122986   6.918   5.131   5.262 -0.3800 -0.7057  0.6141
 6208SOL    HW222987   6.872   5.044   5.146 -0.0204  1.1944 -1.0123
 6209SOL     OW22988   4.291   9.764   8.195 -0.1694  0.1399 -0.0907
 6209SOL    HW122989   4.240   9.799   8.268 -1.0090  0.5732 -0.8657
 6209SOL    HW222990   4.363   9.826   8.184 -0.2005  0.2264  0.1949
 6210SOL     OW22991   8.385   0.713   7.283 -0.1362  0.1266 -0.5420
 6210SOL    HW122992   8.366   0.805   7.267 -1.8052  0.2611  1.7309
 6210SOL    HW222993   8.328   0.666   7.221  0.1682  0.5965 -1.1945
 6211SOL     OW22994   7.357   2.545   5.984 -0.5447  0.3017  1.0023
 6211SOL    HW122995   7.275   2.518   5.943  0.2678 -0.6773 -0.0341
 6211SOL    HW222996   7.421   2.479   5.957  1.1480  2.3235 -0.2774
 6212SOL     OW22997   5.796   6.044  10.960 -0.3327  0.2101  0.4717
 6212SOL    HW122998   5.703   6.030  10.972 -0.2749  0.4146  1.1697
 6212SOL    HW222999   5.802   6.112  10.892 -0.6984  0.5838  0.8139
 6213SOL     OW23000  10.322   7.255   1.826  0.2598  0.1264  0.2288
 6213SOL    HW123001  10.255   7.279   1.761  1.5268  0.8436 -0.8731
 6213SOL    HW223002  10.337   7.162   1.811 -1.6035 -0.4390  1.5848
 6214SOL     OW23003   6.145   7.321   1.089 -0.8164 -0.0982 -0.0817
 6214SOL    HW123004   6.187   7.406   1.072 -0.6509 -0.3040 -0.7160
 6214SOL    HW223005   6.136   7.281   1.003 -1.4930 -0.4495  0.1496
 6215SOL     OW23006   8.840   8.584   5.571  0.1149 -0.4155 -0.5886
 6215SOL    HW123007   8.856   8.660   5.515 -1.2177  0.3271 -0.0165
 6215SOL    HW223008   8.872   8.611   5.657 -2.1175  0.3139  0.0867
 6216SOL     OW23009   1.342   2.561   4.450 -0.2069 -0.6874  0.3729
 6216SOL    HW123010   1.365   2.543   4.359  0.5284 -0.2724  0.4673
 6216SOL    HW223011   1.369   2.652   4.464  1.3227 -1.2849  1.4998
 6217SOL     OW23012   9.612   2.030   3.004 -0.2200 -0.4378  0.3512
 6217SOL    HW123013   9.674   1.957   2.998  1.5684  1.0993 -2.3888
 6217SOL    HW223014   9.593   2.052   2.913 -0.1237  2.8972  1.0275
 6218SOL     OW23015   8.611   4.269   4.351  0.2860 -0.1171  0.0662
 6218SOL    HW123016   8.625   4.360   4.327  0.9678 -0.7080 -2.0752
 6218SOL    HW223017   8.523   4.249   4.317  0.9314 -0.7454 -1.3377
 6219SOL     OW23018   7.309  10.225   3.287  0.3637  0.4726  0.2762
 6219SOL    HW123019   7.244  10.245   3.355  0.3899 -1.8109  1.0665
 6219SOL    HW223020   7.390  10.264   3.319  0.6663 -1.5275  2.2660
 6220SOL     OW23021   3.977   6.133   6.515 -0.3147  0.1551  0.4857
 6220SOL    HW123022   3.922   6.161   6.441 -0.1303 -0.0553  0.2687
 6220SOL    HW223023   3.995   6.214   6.562 -0.4814  0.2838  0.3324
 6221SOL     OW23024  10.601   0.587   0.025 -0.0507 -0.6859  0.4053
 6221SOL    HW123025  10.522   0.624  -0.014  1.2390  0.4894 -1.1876
 6221SOL    HW223026  10.604   0.626   0.113 -0.1403  0.9636 -0.2797
 6222SOL     OW23027   6.813   2.529   7.831 -0.0859  0.3875  0.3063
 6222SOL    HW123028   6.839   2.438   7.814 -0.5119 -0.5023  3.6479
 6222SOL    HW223029   6.717   2.528   7.826 -0.0898  0.6796  0.2993
 6223SOL     OW23030  10.455   9.087   7.401 -0.5119 -0.0675 -0.0440
 6223SOL    HW123031  10.503   9.042   7.470  0.3298 -0.1284 -0.6581
 6223SOL    HW223032  10.519   9.145   7.360 -1.6963  2.2135  1.1052
 6224SOL     OW23033  10.297   2.902   2.870 -0.2849  0.0050 -0.2322
 6224SOL    HW123034  10.296   2.944   2.784 -1.4000  1.5545  0.4762
 6224SOL    HW223035  10.226   2.945   2.918  0.7432 -0.3171  1.6961
 6225SOL     OW23036   3.882   9.257   9.734  0.3838 -0.0757  0.3693
 6225SOL    HW123037   3.857   9.164   9.739  0.4977 -0.1369 -0.1454
 6225SOL    HW223038   3.974   9.258   9.759  0.2109 -0.0161  1.0125
 6226SOL     OW23039   9.238   6.435   2.955 -0.2456 -0.1456 -0.2130
 6226SOL    HW123040   9.318   6.424   2.904  0.5440  0.9558  0.7215
 6226SOL    HW223041   9.226   6.351   2.999  1.2223  0.1160  0.7559
 6227SOL     OW23042   6.523   9.225   6.232  0.1259 -0.2979  0.3670
 6227SOL    HW123043   6.617   9.241   6.224  0.2225 -0.6180  0.8778
 6227SOL    HW223044   6.514   9.171   6.310 -0.4886 -0.2245  0.3492
 6228SOL     OW23045   5.540   2.228   1.407  0.0956 -0.4074  0.0651
 6228SOL    HW123046   5.629   2.217   1.374  0.2599 -0.2722  0.4566
 6228SOL    HW223047   5.541   2.313   1.451 -0.5170  0.0877 -0.8597
 6229SOL     OW23048   6.765   2.204  10.693 -0.7489  0.4549  0.2223
 6229SOL    HW123049   6.767   2.299  10.702  0.8443  0.3506  1.5210
 6229SOL    HW223050   6.815   2.172  10.768 -1.4134 -1.4257 -0.0856
 6230SOL     OW23051   3.261   3.519  10.851  0.5210 -0.0128 -0.3291
 6230SOL    HW123052   3.248   3.483  10.763  2.8740  0.8724 -1.1162
 6230SOL    HW223053   3.259   3.442  10.908 -0.5470 -0.6624 -1.1920
 6231SOL     OW23054   2.724   9.203   4.875  0.7677 -0.1211 -0.2077
 6231SOL    HW123055   2.772   9.278   4.912  0.7312 -0.6117  0.8928
 6231SOL    HW223056   2.740   9.132   4.938  0.4908 -0.9330 -1.0375
 6232SOL     OW23057   6.001   3.924   7.477 -0.1475 -0.2617 -0.1191
 6232SOL    HW123058   5.917   3.878   7.472  0.4454 -1.2928 -2.1722
 6232SOL    HW223059   6.066   3.856   7.459  1.0030  0.8035 -0.1268
 6233SOL     OW23060   6.978  11.033   3.504 -0.1643 -0.6866  0.0568
 6233SOL    HW123061   7.047  11.050   3.439 -0.5407 -0.6852 -0.3460
 6233SOL    HW223062   6.897  11.052   3.458 -0.7120 -4.0406 -0.6712
 6234SOL     OW23063   6.444   6.205   0.961  0.0531  0.1958  0.8620
 6234SOL    HW123064   6.512   6.229   0.899 -0.0681  1.6552  1.2614
 6234SOL    HW223065   6.370   6.262   0.939 -0.9017 -1.0554  0.7105
 6235SOL     OW23066   4.561   3.187   4.673 -0.2866  0.3525 -0.1902
 6235SOL    HW123067   4.639   3.138   4.698 -0.4301 -0.0920 -0.5942
 6235SOL    HW223068   4.583   3.225   4.588 -1.7317 -2.7732 -2.1636
 6236SOL     OW23069   7.623   4.217   4.530  0.1746  0.4048  0.5088
 6236SOL    HW123070   7.652   4.126   4.521  0.3452  0.2033  2.6754
 6236SOL    HW223071   7.697   4.269   4.499 -0.0270 -0.1579 -1.0204
 6237SOL     OW23072   9.959  10.448   4.544 -0.0235 -0.4260 -0.1267
 6237SOL    HW123073  10.023  10.388   4.507 -1.4455 -2.3825  0.4508
 6237SOL    HW223074  10.008  10.500   4.608  1.3904 -0.4526 -1.1688
 6238SOL     OW23075  10.655   8.348   5.840 -0.0666  0.0905  0.4793
 6238SOL    HW123076  10.595   8.389   5.778  1.0374  0.0387 -0.6608
 6238SOL    HW223077  10.603   8.337   5.920 -1.1036  1.4405  0.0314
 6239SOL     OW23078   8.911   9.134   4.910 -0.3975 -0.2208 -0.4138
 6239SOL    HW123079   8.926   9.218   4.953  0.3470 -0.1995 -0.7014
 6239SOL    HW223080   8.839   9.095   4.959 -1.1286  0.8153 -0.6185
 6240SOL     OW23081   2.417   4.747   1.231 -0.0569 -0.2260 -0.0715
 6240SOL    HW123082   2.374   4.799   1.299  0.2612  1.5266 -1.1499
 6240SOL    HW223083   2.503   4.788   1.221  1.4866 -2.9292  1.2244
 6241SOL     OW23084   4.951   6.941  10.949  0.0037  0.0869  0.0034
 6241SOL    HW123085   4.902   6.911  10.873 -0.1166  0.0590  0.0920
 6241SOL    HW223086   4.957   6.864  11.006  1.1561 -0.2349 -0.5236
 6242SOL     OW23087   3.377   8.849   0.174 -0.0353  0.1662  0.5028
 6242SOL    HW123088   3.351   8.793   0.101 -0.7067  1.0202  0.0655
 6242SOL    HW223089   3.366   8.938   0.141  2.6943  0.6150  0.5873
 6243SOL     OW23090   5.069   9.685   6.506 -0.1372  0.0605 -0.2818
 6243SOL    HW123091   5.047   9.770   6.544  1.3779  0.8744 -1.1462
 6243SOL    HW223092   5.056   9.696   6.412 -2.0292 -1.3606 -0.2352
 6244SOL     OW23093   3.037   3.061   7.763  0.2997  0.1846  1.0844
 6244SOL    HW123094   2.994   3.061   7.678 -0.1446  1.8634  1.2853
 6244SOL    HW223095   2.968   3.081   7.826  0.6914 -0.6908  1.8233
 6245SOL     OW23096   3.357   8.160   8.641  0.6554  0.2336  0.1294
 6245SOL    HW123097   3.369   8.157   8.736 -0.0623 -2.0337  0.2025
 6245SOL    HW223098   3.399   8.080   8.609 -1.8462 -0.6672 -1.0885
 6246SOL     OW23099   0.247   5.005  10.001 -0.1189 -0.2428 -0.5451
 6246SOL    HW123100   0.160   5.010   9.960 -0.2178  0.0548 -0.3046
 6246SOL    HW223101   0.294   5.080   9.964 -0.6396  0.8190  0.8701
 6247SOL     OW23102   1.714   0.595   0.362  0.2804  0.2578 -0.1564
 6247SOL    HW123103   1.790   0.537   0.356  0.1208 -0.0539  0.6825
 6247SOL    HW223104   1.729   0.661   0.295  0.7313 -0.4509 -0.7728
 6248SOL     OW23105   6.344   1.253  10.380  0.1351 -0.0409 -0.3664
 6248SOL    HW123106   6.389   1.298  10.309  0.1481  0.2684 -0.1652
 6248SOL    HW223107   6.311   1.323  10.436  0.2308 -0.2801 -0.0002
 6249SOL     OW23108   1.697   9.900   6.007 -0.1432  0.0499  0.3927
 6249SOL    HW123109   1.707   9.984   5.962  1.5442  0.4950  1.5146
 6249SOL    HW223110   1.621   9.859   5.965 -1.5541  2.4869  0.3715
 6250SOL     OW23111   9.516   7.906   5.681  0.7011  0.9155 -0.2050
 6250SOL    HW123112   9.566   7.899   5.762  2.2328 -0.0158 -1.1878
 6250SOL    HW223113   9.431   7.866   5.701  0.9623  0.9399  0.9952
 6251SOL     OW23114  10.212   3.626   5.155 -0.0710 -0.5561 -0.0138
 6251SOL    HW123115  10.128   3.642   5.198  0.7154  0.8567  1.1069
 6251SOL    HW223116  10.222   3.699   5.094  1.4849  0.8546  1.7919
 6252SOL     OW23117   0.038   8.351   5.409  0.0414 -0.3743  0.5282
 6252SOL    HW123118  -0.049   8.386   5.431 -1.1154 -2.6901 -0.1164
 6252SOL    HW223119   0.098   8.402   5.464 -1.9731 -0.4965  3.0343
 6253SOL     OW23120   1.240   6.328   1.677  0.0006 -0.0699  0.4748
 6253SOL    HW123121   1.278   6.346   1.590 -3.2007  1.2990 -0.7820
 6253SOL    HW223122   1.292   6.255   1.710  1.9333 -0.0769 -2.2060
 6254SOL     OW23123   8.847  10.395   8.131  0.1922  0.3166 -0.1517
 6254SOL    HW123124   8.869  10.369   8.042  1.0870 -1.6744  0.5895
 6254SOL    HW223125   8.835  10.312   8.178  2.1327  1.2286  2.1422
 6255SOL     OW23126   9.527   5.344   2.827 -0.3010 -0.0712  0.1702
 6255SOL    HW123127   9.465   5.328   2.755  0.2712  2.3945 -0.9779
 6255SOL    HW223128   9.482   5.408   2.883  1.0426  1.5575 -0.5447
 6256SOL     OW23129   7.703   5.439   1.017  0.5593  0.3624  0.0914
 6256SOL    HW123130   7.668   5.366   0.967 -0.1610  1.7044 -1.4353
 6256SOL    HW223131   7.765   5.399   1.078 -1.0273 -1.6961  0.4744
 6257SOL     OW23132   6.855   7.710   7.492 -0.1091  0.3299  0.0018
 6257SOL    HW123133   6.920   7.774   7.465 -0.6919  1.1391  0.4609
 6257SOL    HW223134   6.813   7.749   7.569  0.1032 -0.9834  0.8176
 6258SOL     OW23135  10.138   4.894   2.888  0.4132 -0.2203  0.0165
 6258SOL    HW123136  10.102   4.981   2.868  1.6956  0.2447 -0.3579
 6258SOL    HW223137  10.171   4.862   2.805  1.5131 -0.3088  0.4624
 6259SOL     OW23138   4.242   6.271   4.585 -0.8840  0.8550 -0.1649
 6259SOL    HW123139   4.213   6.361   4.598 -0.3988  1.1851 -1.2630
 6259SOL    HW223140   4.327   6.279   4.542 -0.1395 -0.1230  1.0718
 6260SOL     OW23141   5.521   4.099   8.670  0.8210 -0.3496 -0.7924
 6260SOL    HW123142   5.486   4.044   8.740  3.2478 -1.4058 -0.3080
 6260SOL    HW223143   5.464   4.176   8.669  0.2170 -0.6774  1.8013
 6261SOL     OW23144   2.923   7.039   3.265 -0.8110 -0.4561  0.0829
 6261SOL    HW123145   2.854   7.098   3.236 -1.1792 -0.0789  1.6139
 6261SOL    HW223146   2.927   7.052   3.360  1.1811 -0.6651  0.0682
 6262SOL     OW23147   9.286   5.610   9.433  0.4701  0.1629  0.0301
 6262SOL    HW123148   9.195   5.642   9.433 -0.0790 -1.2759 -0.4057
 6262SOL    HW223149   9.300   5.578   9.522  0.9133  1.2848  0.3791
 6263SOL     OW23150   8.810   0.753  11.012 -0.1620 -0.6841 -0.0345
 6263SOL    HW123151   8.787   0.721  10.925 -2.4886  0.2193  0.1710
 6263SOL    HW223152   8.756   0.832  11.023  1.6301  0.4000  1.4255
 6264SOL     OW23153   5.918  10.977   2.376  0.2963 -0.1659  0.5733
 6264SOL    HW123154   5.968  10.909   2.331  0.2390 -0.1252  0.4492
 6264SOL    HW223155   5.965  10.990   2.459 -0.4566 -1.3355  1.2114
 6265SOL     OW23156   5.363  10.435   9.266 -0.0132  0.1175  0.2394
 6265SOL    HW123157   5.269  10.438   9.248 -0.3281 -1.4666  1.3707
 6265SOL    HW223158   5.369  10.441   9.362  1.1136  1.2044  0.1238
 6266SOL     OW23159   7.606   9.769   3.010 -0.6717  0.6186 -0.3138
 6266SOL    HW123160   7.542   9.798   3.074 -0.6640  1.3271 -0.6192
 6266SOL    HW223161   7.556   9.759   2.928 -0.2265  2.1155 -0.7894
 6267SOL     OW23162   2.832   7.895   0.512 -0.4618 -0.2185  0.0101
 6267SOL    HW123163   2.751   7.848   0.490 -1.3516  0.1251  2.2188
 6267SOL    HW223164   2.882   7.831   0.563  0.3745 -0.1979 -0.7728
 6268SOL     OW23165   1.738   1.232   2.739 -0.2246 -0.4409  0.1678
 6268SOL    HW123166   1.828   1.225   2.706  0.3478 -0.1379  1.5857
 6268SOL    HW223167   1.687   1.176   2.681  0.5717  0.6914 -1.7023
 6269SOL     OW23168   1.569   3.622   1.057  0.2613 -0.3646  0.7439
 6269SOL    HW123169   1.646   3.582   1.098  0.6669 -0.8302 -0.4423
 6269SOL    HW223170   1.495   3.581   1.101  0.6864 -0.9131  0.9610
 6270SOL     OW23171   7.825   6.522  10.700  0.3815 -0.3458  0.1720
 6270SOL    HW123172   7.740   6.558  10.726  0.3397  0.0114 -0.4406
 6270SOL    HW223173   7.820   6.518  10.604  0.7319 -1.1274  0.1786
 6271SOL     OW23174   6.037  10.622   1.631  0.5351  0.0515  0.3946
 6271SOL    HW123175   6.021  10.675   1.553  2.6154  1.7465  1.0171
 6271SOL    HW223176   6.017  10.681   1.704 -0.3734 -1.1691  1.1679
 6272SOL     OW23177   9.996   5.243   5.318 -0.0610 -0.1265 -0.3393
 6272SOL    HW123178   9.975   5.307   5.251  0.3678  0.6299  0.2367
 6272SOL    HW223179  10.040   5.172   5.271 -1.9965 -0.7853 -1.2447
 6273SOL     OW23180   6.759   0.307   5.469  0.5758 -0.8720 -0.3305
 6273SOL    HW123181   6.829   0.346   5.416 -0.0523  0.1023 -0.4572
 6273SOL    HW223182   6.737   0.226   5.422 -0.3597  0.2423 -1.9333
 6274SOL     OW23183   7.352   9.225   8.561  0.6925  0.2428  0.0692
 6274SOL    HW123184   7.336   9.227   8.467  1.8158 -0.1196 -0.1532
 6274SOL    HW223185   7.346   9.317   8.588 -0.2943  0.2713 -0.2266
 6275SOL     OW23186   9.350  10.678   1.707  0.0822 -0.2729 -0.0996
 6275SOL    HW123187   9.320  10.729   1.782 -0.5828 -1.8891  0.8019
 6275SOL    HW223188   9.315  10.590   1.722  1.5878 -1.1451 -1.2975
 6276SOL     OW23189   6.990   5.616   9.440  0.3808  0.1241 -0.3214
 6276SOL    HW123190   6.924   5.639   9.506  0.7884 -0.4342  0.2956
 6276SOL    HW223191   6.974   5.523   9.423  1.2066 -0.0989  0.0742
 6277SOL     OW23192   2.910   5.315   7.743  0.4254 -0.0833  0.4673
 6277SOL    HW123193   2.898   5.283   7.833 -1.3835  0.7922  0.5741
 6277SOL    HW223194   2.942   5.238   7.695 -1.1500 -1.3451  1.3145
 6278SOL     OW23195   5.358  10.285   5.106 -0.3063  0.3448  0.0943
 6278SOL    HW123196   5.379  10.374   5.135  0.1280 -0.4839  2.5045
 6278SOL    HW223197   5.294  10.253   5.169 -2.0086 -0.4237 -1.8912
 6279SOL     OW23198   3.749   7.043   0.909 -0.2088 -0.3097  0.4033
 6279SOL    HW123199   3.676   6.997   0.867 -0.7718  0.3598  0.6221
 6279SOL    HW223200   3.711   7.126   0.938  0.6779  0.1038  0.4096
 6280SOL     OW23201   5.759   2.177   1.621  0.7710 -0.2792 -0.0889
 6280SOL    HW123202   5.767   2.082   1.633 -0.8793 -0.4395 -0.0264
 6280SOL    HW223203   5.732   2.209   1.707  2.0419  0.3628  0.0862
 6281SOL     OW23204   7.645   4.116   3.441  0.0924 -1.0748  0.1827
 6281SOL    HW123205   7.573   4.097   3.501  0.5242 -0.2103  1.0104
 6281SOL    HW223206   7.607   4.104   3.354 -0.9532 -0.9877  0.6023
 6282SOL     OW23207   5.359   9.319   6.370  0.5568  0.4277 -0.2802
 6282SOL    HW123208   5.319   9.245   6.414  1.7614 -1.1477 -1.6802
 6282SOL    HW223209   5.286   9.367   6.332 -0.2834  0.2806  1.1002
 6283SOL     OW23210   6.797   2.927   5.235  0.1101 -0.0656  0.2851
 6283SOL    HW123211   6.833   2.876   5.162 -0.7796 -1.0286  0.4892
 6283SOL    HW223212   6.782   3.014   5.200  1.0987 -0.1038 -0.2534
 6284SOL     OW23213   2.191   4.045   3.145 -0.0180  0.1675  0.1969
 6284SOL    HW123214   2.255   4.104   3.184 -0.7226  0.9337  0.2524
 6284SOL    HW223215   2.149   4.099   3.077  1.6380 -1.3107 -2.1182
 6285SOL     OW23216   6.905   6.280   2.370  0.1887 -0.3085  0.1515
 6285SOL    HW123217   6.948   6.361   2.344  0.9237 -0.6302  0.3394
 6285SOL    HW223218   6.832   6.271   2.308  1.5109 -0.7205 -1.4321
 6286SOL     OW23219   5.206   9.775   0.076  0.3874 -0.3516 -0.4041
 6286SOL    HW123220   5.112   9.765   0.092  0.6551  0.0668  1.6030
 6286SOL    HW223221   5.211   9.814  -0.011 -1.3120  0.0572 -0.3528
 6287SOL     OW23222   4.664   6.931  10.137  0.3464 -0.2602 -0.1252
 6287SOL    HW123223   4.612   6.876  10.196  1.0828 -0.3383  0.4571
 6287SOL    HW223224   4.687   7.007  10.191 -1.0996  0.9020 -1.0608
 6288SOL     OW23225   0.336   1.684  10.390  0.6847 -0.2877  0.0611
 6288SOL    HW123226   0.411   1.732  10.425  0.8342  0.0861 -0.7400
 6288SOL    HW223227   0.341   1.598  10.430  0.0382  0.5419  2.0627
 6289SOL     OW23228   4.358   0.343   2.532  0.1703  0.0662 -0.0100
 6289SOL    HW123229   4.308   0.424   2.525  0.5639  0.3978  0.8713
 6289SOL    HW223230   4.401   0.334   2.447 -1.0576 -0.0256 -0.6469
 6290SOL     OW23231   9.825   6.012   4.222  0.1546  0.1332 -0.2508
 6290SOL    HW123232   9.831   5.944   4.289  0.5587  0.5278  0.1214
 6290SOL    HW223233   9.870   5.976   4.147  1.9385  0.6616  0.5175
 6291SOL     OW23234   9.859   4.084   5.814  0.2006  0.3106  0.8183
 6291SOL    HW123235   9.771   4.081   5.850  0.3109  1.0120  1.1672
 6291SOL    HW223236   9.847   4.119   5.725 -0.1210 -1.8383 -0.0599
 6292SOL     OW23237   7.276   6.232   0.163  0.4487  0.0515  0.0416
 6292SOL    HW123238   7.241   6.143   0.165 -0.7524  0.4662 -0.9810
 6292SOL    HW223239   7.321   6.238   0.078  0.1028  0.5604 -0.1072
 6293SOL     OW23240  10.125   3.202   1.652 -0.0342  0.3773  0.6434
 6293SOL    HW123241  10.071   3.277   1.627  0.1918  0.6307  0.9045
 6293SOL    HW223242  10.082   3.166   1.730 -0.7145 -0.3852 -0.0566
 6294SOL     OW23243  10.771   5.481   3.378  0.0136 -0.1261  0.1083
 6294SOL    HW123244  10.836   5.524   3.323  0.7592 -0.6513  0.5673
 6294SOL    HW223245  10.780   5.523   3.464  0.5560 -0.9874  0.4858
 6295SOL     OW23246   7.953   3.142   3.914  0.0620 -0.3034 -0.2126
 6295SOL    HW123247   7.950   3.061   3.863  1.3874 -0.4554 -0.1043
 6295SOL    HW223248   7.884   3.132   3.980 -0.2296 -1.0521 -0.6221
 6296SOL     OW23249   9.243   9.113   3.071 -0.0355  0.1447 -0.1259
 6296SOL    HW123250   9.182   9.040   3.061 -0.3475  0.7518 -4.6169
 6296SOL    HW223251   9.188   9.191   3.077  0.2406  0.4285 -1.0491
 6297SOL     OW23252   1.516  10.387   3.055  0.1380 -0.0520  0.0945
 6297SOL    HW123253   1.568  10.463   3.027 -1.2507  0.9544  0.1490
 6297SOL    HW223254   1.431  10.400   3.014 -0.1939 -1.4730  0.3038
 6298SOL     OW23255   7.573   0.616   7.021  0.4902  0.1326  0.3083
 6298SOL    HW123256   7.570   0.533   7.068  0.4276  0.2672  0.5432
 6298SOL    HW223257   7.543   0.681   7.084 -0.3785  0.2070 -0.1636
 6299SOL     OW23258  10.917   6.865   0.167  0.2401  0.5184 -0.0285
 6299SOL    HW123259  10.949   6.908   0.246 -0.8987  1.7690 -0.2034
 6299SOL    HW223260  10.830   6.831   0.191  0.6767 -0.7868 -0.2082
 6300SOL     OW23261   0.159   7.455   7.155  0.3110 -0.3181  0.4244
 6300SOL    HW123262   0.249   7.465   7.189  0.9098 -1.3115 -0.7924
 6300SOL    HW223263   0.157   7.509   7.076 -0.1990 -0.2270  0.4978
 6301SOL     OW23264   3.146   5.050   2.296 -0.0891  0.0728 -0.7053
 6301SOL    HW123265   3.133   5.079   2.386  1.1284  1.6280 -0.9843
 6301SOL    HW223266   3.207   4.977   2.302 -1.5918 -1.1914 -0.1471
 6302SOL     OW23267   9.903   9.012   7.347  0.1040  0.0531 -0.0565
 6302SOL    HW123268   9.941   9.043   7.264 -0.8443  2.7052  0.3889
 6302SOL    HW223269   9.963   9.045   7.414 -0.2124 -0.3361  0.4209
 6303SOL     OW23270   2.682   4.850   1.207 -0.1275 -0.3506 -0.0657
 6303SOL    HW123271   2.661   4.935   1.245  1.7369  1.2095 -2.2195
 6303SOL    HW223272   2.768   4.828   1.244  1.0294  0.4910 -2.0965
 6304SOL     OW23273   6.150   3.202   8.071  0.3532  0.2827  0.4291
 6304SOL    HW123274   6.156   3.107   8.083 -0.0068  0.2711  0.5210
 6304SOL    HW223275   6.171   3.238   8.157  1.1214  0.3109  0.2368
 6305SOL     OW23276   6.391   4.981   3.093 -0.0513  0.0413  0.1221
 6305SOL    HW123277   6.307   5.027   3.094 -0.8033 -1.0807 -2.7635
 6305SOL    HW223278   6.370   4.893   3.125  0.5972  0.4725  1.8375
 6306SOL     OW23279  10.351   5.966   7.971 -0.2629 -0.0728  0.0665
 6306SOL    HW123280  10.381   5.880   7.941 -1.9277 -1.3286  1.7772
 6306SOL    HW223281  10.264   5.950   8.008 -0.1400  2.1368  1.5135
 6307SOL     OW23282   9.395   6.249  10.989 -0.1599 -0.3459  0.0233
 6307SOL    HW123283   9.469   6.273  10.933 -1.0166  0.4748 -0.8250
 6307SOL    HW223284   9.384   6.324  11.047  0.2727 -0.8878  0.8149
 6308SOL     OW23285   3.173   3.755   4.376 -0.2251  0.3329 -0.5960
 6308SOL    HW123286   3.256   3.753   4.425 -1.3569 -0.3635  1.4266
 6308SOL    HW223287   3.162   3.665   4.345 -0.3264  0.3713 -0.6712
 6309SOL     OW23288   4.182   6.203   3.750  0.1635  0.7894  0.0037
 6309SOL    HW123289   4.270   6.233   3.774  0.6193 -0.5790  0.0858
 6309SOL    HW223290   4.161   6.253   3.670  1.6338  0.0438 -0.8880
 6310SOL     OW23291   8.168   9.736   0.327 -0.5183 -0.1424  0.4693
 6310SOL    HW123292   8.092   9.687   0.296 -0.4567  0.8789 -1.4426
 6310SOL    HW223293   8.134   9.822   0.350  0.1770  0.8436 -1.8331
 6311SOL     OW23294   1.359   5.083   3.936 -0.1938 -0.0138 -0.1545
 6311SOL    HW123295   1.305   5.148   3.891  0.3431  0.9852  0.5812
 6311SOL    HW223296   1.443   5.127   3.950 -0.1271 -0.5201  1.2047
 6312SOL     OW23297   0.387   9.658  10.754  0.1369 -0.7739  0.4253
 6312SOL    HW123298   0.420   9.675  10.665  0.1678 -0.7387  0.4442
 6312SOL    HW223299   0.431   9.723  10.808 -0.8316  0.0196  0.2788
 6313SOL     OW23300   5.425  10.341  10.708 -0.2728  0.7755  0.7226
 6313SOL    HW123301   5.428  10.400  10.783  1.2801  0.3470  1.0509
 6313SOL    HW223302   5.484  10.269  10.733 -3.2285 -1.7508  1.0043
 6314SOL     OW23303   7.601   0.166   0.886  0.5929  0.3772 -0.3479
 6314SOL    HW123304   7.582   0.166   0.792 -2.3887 -0.1484  0.1465
 6314SOL    HW223305   7.545   0.236   0.922 -0.1584 -0.9751  1.2789
 6315SOL     OW23306   0.456   0.512   7.265  0.0160  0.2849 -0.2663
 6315SOL    HW123307   0.424   0.520   7.175 -0.4116  1.3564 -0.0331
 6315SOL    HW223308   0.482   0.601   7.289 -0.2435  0.0873  0.8008
 6316SOL     OW23309  10.187   1.935   4.103 -0.0321 -0.1026 -0.7109
 6316SOL    HW123310  10.278   1.911   4.119 -0.0671  0.1305 -0.1686
 6316SOL    HW223311  10.191   2.027   4.075 -0.2704  0.5762  1.3281
 6317SOL     OW23312   7.411   3.258   7.085  0.1070 -0.1456 -0.2194
 6317SOL    HW123313   7.426   3.258   6.990  0.2296  0.2788 -0.2013
 6317SOL    HW223314   7.491   3.219   7.122  0.2796  0.1729 -0.2574
 6318SOL     OW23315   7.438   6.266   1.348 -0.0154  0.1398 -0.4632
 6318SOL    HW123316   7.531   6.272   1.328 -0.1849  0.5627 -1.1656
 6318SOL    HW223317   7.406   6.194   1.294 -0.0742 -0.0876 -0.1286
 6319SOL     OW23318   3.708   9.177   4.417  0.1834 -0.0495  0.2950
 6319SOL    HW123319   3.773   9.170   4.347 -0.8624 -1.4163 -0.6015
 6319SOL    HW223320   3.748   9.234   4.483  1.6437  0.3604 -0.9163
 6320SOL     OW23321   6.079   5.063   5.275 -0.0027  0.0403 -0.0952
 6320SOL    HW123322   6.055   4.971   5.275 -1.3088  0.3719  0.0509
 6320SOL    HW223323   6.168   5.064   5.311 -0.1946 -1.0924  0.4632
 6321SOL     OW23324   3.734   9.893   7.936 -0.4250 -0.6311  0.5566
 6321SOL    HW123325   3.798   9.947   7.983 -0.6187 -0.4665  0.6293
 6321SOL    HW223326   3.783   9.815   7.910 -0.1076 -0.3629  0.3379
 6322SOL     OW23327   0.906   6.297   8.244 -0.0662 -0.3595  0.0556
 6322SOL    HW123328   0.832   6.263   8.193  0.7672 -0.4741 -1.1212
 6322SOL    HW223329   0.982   6.250   8.211  0.4705 -0.7294  1.7202
 6323SOL     OW23330   7.376  10.253   4.520  0.0190 -0.0637 -0.0677
 6323SOL    HW123331   7.410  10.210   4.599  1.5547  0.1451 -0.5841
 6323SOL    HW223332   7.453  10.264   4.464 -0.9895  0.0798 -1.4682
 6324SOL     OW23333   4.661   8.800   6.217 -0.8933  0.2696  0.5558
 6324SOL    HW123334   4.582   8.817   6.167 -0.6699  1.2685  0.5307
 6324SOL    HW223335   4.705   8.729   6.170 -2.2485 -0.9980  1.1216
 6325SOL     OW23336   1.478  11.059   5.820 -0.3242  0.6952 -0.3439
 6325SOL    HW123337   1.534  11.042   5.896 -0.6522  0.8961 -0.0522
 6325SOL    HW223338   1.390  11.065   5.857 -0.3757  1.7359 -0.6099
 6326SOL     OW23339   9.674   2.831   2.834 -0.2600  0.2459  0.4747
 6326SOL    HW123340   9.597   2.887   2.827 -0.3766  0.2786  1.8624
 6326SOL    HW223341   9.745   2.882   2.796 -0.8344  0.3514 -0.5045
 6327SOL     OW23342   1.480   5.955  10.658  0.1471 -0.3641 -0.4494
 6327SOL    HW123343   1.413   6.020  10.643 -1.2106 -1.0738  2.0347
 6327SOL    HW223344   1.502   5.963  10.751  0.8051 -2.5944 -0.3449
 6328SOL     OW23345  10.888   6.574   7.105  0.0230 -0.1460  0.1344
 6328SOL    HW123346  10.916   6.604   7.018  2.2669  1.8748  1.4291
 6328SOL    HW223347  10.862   6.654   7.150 -1.8537 -1.2621  1.1404
 6329SOL     OW23348   7.929   3.891   8.113  0.0195 -0.1222  0.4252
 6329SOL    HW123349   7.862   3.958   8.129  0.8045  0.8798 -0.3326
 6329SOL    HW223350   7.938   3.846   8.197 -1.4386 -0.1379  0.5997
 6330SOL     OW23351  10.551   2.889   9.872  0.4232 -0.4641  0.1709
 6330SOL    HW123352  10.503   2.820   9.824  0.0093 -1.3118  1.7343
 6330SOL    HW223353  10.544   2.966   9.816  1.4999 -1.8333 -1.9962
 6331SOL     OW23354   6.327  10.095   8.905 -0.1431 -0.1351 -0.3219
 6331SOL    HW123355   6.308  10.024   8.967  0.6192  0.5996  0.7870
 6331SOL    HW223356   6.251  10.095   8.846 -1.2488 -0.4215  1.0305
 6332SOL     OW23357   8.576   6.425   8.571  0.3059 -0.0576 -0.0564
 6332SOL    HW123358   8.672   6.424   8.575  0.3280  1.7347  0.7210
 6332SOL    HW223359   8.548   6.448   8.659 -0.7675  1.0806 -0.6675
 6333SOL     OW23360   5.152   9.285   2.023  0.3321  0.6936  0.1731
 6333SOL    HW123361   5.086   9.337   2.069  1.5714  1.7714  0.8082
 6333SOL    HW223362   5.219   9.269   2.088  0.6909 -0.4140 -0.4490
 6334SOL     OW23363   8.465   3.559  10.148 -0.2962  0.4746 -0.2266
 6334SOL    HW123364   8.482   3.616  10.073  0.4520 -0.3627 -0.7139
 6334SOL    HW223365   8.372   3.573  10.168 -0.1179  1.8909 -0.2919
 6335SOL     OW23366   5.802  10.654   5.286 -0.4324  0.4356  0.3136
 6335SOL    HW123367   5.837  10.641   5.374 -0.8280 -0.4342  0.3494
 6335SOL    HW223368   5.879  10.678   5.234 -0.2206  1.0950  0.9165
 6336SOL     OW23369   5.914   7.205   9.113  0.2391  0.1099  0.4222
 6336SOL    HW123370   5.958   7.288   9.133  1.4248 -0.9327  2.4333
 6336SOL    HW223371   5.934   7.189   9.021 -0.1404  2.1055 -0.0422
 6337SOL     OW23372   3.795   8.956  10.485  0.5516 -0.4608  0.0050
 6337SOL    HW123373   3.858   8.930  10.552  1.7048 -3.1906 -1.9808
 6337SOL    HW223374   3.765   8.874  10.445 -1.4108  0.9481 -1.6814
 6338SOL     OW23375   9.759   3.497   1.222 -0.2449 -0.1932 -0.6091
 6338SOL    HW123376   9.811   3.569   1.187 -1.1518  0.4486 -0.6694
 6338SOL    HW223377   9.753   3.434   1.151 -1.9346  1.0210 -1.6326
 6339SOL     OW23378   8.521  10.847   0.692 -0.2321 -0.2943  0.0770
 6339SOL    HW123379   8.495  10.803   0.773 -1.4079  0.2135  0.0099
 6339SOL    HW223380   8.564  10.928   0.721 -0.6246 -0.1271  0.2040
 6340SOL     OW23381   3.688   4.578  10.966  0.1042 -0.1284 -0.2434
 6340SOL    HW123382   3.720   4.668  10.966  1.9558 -0.7510  0.0008
 6340SOL    HW223383   3.594   4.587  10.980  0.0259  1.8181 -1.5801
 6341SOL     OW23384   1.883   1.104   3.179  0.0116  0.7802  0.2858
 6341SOL    HW123385   1.815   1.134   3.119  1.5979  0.3623 -1.8715
 6341SOL    HW223386   1.888   1.010   3.164  0.9523  0.7875  0.4946
 6342SOL     OW23387   8.510   4.382   0.433 -0.1513  0.5214 -0.1758
 6342SOL    HW123388   8.498   4.296   0.393 -2.5589  0.2982  0.8456
 6342SOL    HW223389   8.495   4.444   0.361  1.0734  0.1281 -0.7961
 6343SOL     OW23390   9.953   3.613  10.180  0.2065  0.1801 -0.0338
 6343SOL    HW123391   9.971   3.553  10.107  1.6862  1.1197 -0.4811
 6343SOL    HW223392  10.024   3.677  10.177 -0.5700  1.1606  1.2874
 6344SOL     OW23393   0.729   9.658   4.814  0.0146 -0.2651  0.0346
 6344SOL    HW123394   0.679   9.668   4.895  2.0205  0.2124  1.2619
 6344SOL    HW223395   0.767   9.571   4.820 -0.9228 -0.7890 -1.0914
 6345SOL     OW23396   1.762   4.739   7.711 -0.1717  0.0048 -0.8138
 6345SOL    HW123397   1.844   4.743   7.662 -0.5807  1.4894 -1.4425
 6345SOL    HW223398   1.731   4.649   7.699  0.5093 -0.0896 -1.9910
 6346SOL     OW23399   5.211   9.486   8.720  0.1569  0.1213 -0.3308
 6346SOL    HW123400   5.306   9.495   8.727  0.4042 -2.0766  0.1222
 6346SOL    HW223401   5.188   9.530   8.639  1.5353  0.7870 -0.3885
 6347SOL     OW23402   6.214   7.562   2.809 -0.9612 -0.0424  0.1562
 6347SOL    HW123403   6.178   7.487   2.763 -2.9013  0.5161  0.6720
 6347SOL    HW223404   6.160   7.571   2.888  0.3825  0.8094  1.0253
 6348SOL     OW23405   4.972   6.760   9.347 -0.5678 -0.5739  0.8377
 6348SOL    HW123406   4.967   6.742   9.440  1.4813  0.4236  1.1827
 6348SOL    HW223407   4.992   6.853   9.341 -0.0231 -0.7472 -0.5801
 6349SOL     OW23408   9.804   3.296  10.835 -0.5250 -0.1668  0.1821
 6349SOL    HW123409   9.813   3.310  10.929  1.4875 -1.8675  0.3252
 6349SOL    HW223410   9.730   3.236  10.827 -0.2796 -0.5611  0.7623
 6350SOL     OW23411   1.143   0.547   0.836  0.5448  0.1440 -0.0549
 6350SOL    HW123412   1.172   0.613   0.773  0.4551  0.6503  0.4216
 6350SOL    HW223413   1.173   0.581   0.921  0.2211 -0.2727  0.2302
 6351SOL     OW23414   9.683   1.521   6.115 -0.0294 -0.5738 -0.0741
 6351SOL    HW123415   9.655   1.598   6.066  0.7096  0.4215  1.0190
 6351SOL    HW223416   9.658   1.447   6.060 -0.7684  0.4403 -1.1398
 6352SOL     OW23417   4.985   9.885   5.483 -0.4933  0.0141  0.0576
 6352SOL    HW123418   5.039   9.884   5.405 -1.1313 -0.1430 -0.3885
 6352SOL    HW223419   4.898   9.908   5.452 -0.4481  1.4443  0.9261
 6353SOL     OW23420   3.198   8.469  10.416 -0.0953 -0.5378 -0.0989
 6353SOL    HW123421   3.143   8.528  10.364  1.5132 -0.9326 -2.4481
 6353SOL    HW223422   3.195   8.505  10.504 -0.0723  2.4533 -1.1890
 6354SOL     OW23423  10.971  10.221   1.320 -0.2119 -0.5240 -0.2583
 6354SOL    HW123424  11.002  10.156   1.383  0.0456 -0.7440 -0.6066
 6354SOL    HW223425  10.876  10.215   1.325 -0.1986 -0.2879  0.3628
 6355SOL     OW23426  10.707   5.675   9.567 -0.8705 -0.1227  0.7447
 6355SOL    HW123427  10.624   5.628   9.580 -0.3259 -1.0245  1.1257
 6355SOL    HW223428  10.760   5.614   9.515 -0.9603  1.0624 -0.7784
 6356SOL     OW23429   3.897   0.752   2.734 -0.2228 -0.3379  0.0745
 6356SOL    HW123430   3.831   0.783   2.672 -0.4003  1.6754  1.2068
 6356SOL    HW223431   3.856   0.678   2.778 -0.8812 -0.4661 -0.7363
 6357SOL     OW23432   1.243   9.453  11.043  0.0520 -0.6153  0.1467
 6357SOL    HW123433   1.285   9.432  11.126  0.2604  1.1611  0.5250
 6357SOL    HW223434   1.316   9.462  10.981  0.1491  1.0851  0.4844
 6358SOL     OW23435   3.603   5.089   1.716 -0.1679 -0.2964  0.0863
 6358SOL    HW123436   3.624   5.068   1.625  0.7655 -1.7051  0.5846
 6358SOL    HW223437   3.588   5.004   1.757  1.6066  0.1150  1.7446
 6359SOL     OW23438   7.764   9.530   0.979  0.4465  0.3549  0.2347
 6359SOL    HW123439   7.807   9.505   0.897 -0.3529  0.6607 -0.2890
 6359SOL    HW223440   7.678   9.563   0.952 -0.5955 -1.3483  1.3511
 6360SOL     OW23441   1.206   7.877   5.076  0.1968  0.3037 -0.4131
 6360SOL    HW123442   1.228   7.852   5.166 -0.7392  2.0659  0.3434
 6360SOL    HW223443   1.136   7.817   5.051 -0.1184  0.3418  0.3502
 6361SOL     OW23444   6.925   2.494   1.874 -0.0640 -0.2412 -0.3180
 6361SOL    HW123445   6.985   2.437   1.827 -0.4021 -2.6649  1.9940
 6361SOL    HW223446   6.847   2.440   1.888 -1.0528  1.3375  0.5632
 6362SOL     OW23447   2.859   0.699   7.132 -0.0097  0.3095 -0.4619
 6362SOL    HW123448   2.906   0.640   7.191  0.5027  0.2614 -0.9156
 6362SOL    HW223449   2.927   0.749   7.088 -0.3774  0.2288 -1.1373
 6363SOL     OW23450   7.764   2.160   7.398 -0.0578 -0.9328 -0.2040
 6363SOL    HW123451   7.695   2.096   7.412  0.6994 -1.5010  1.1438
 6363SOL    HW223452   7.828   2.142   7.467  1.0626  0.0806 -0.9341
 6364SOL     OW23453   8.073   9.973   0.510  0.3526  0.1950  0.3034
 6364SOL    HW123454   8.161  10.003   0.529  0.9454 -1.8916  1.1887
 6364SOL    HW223455   8.061   9.896   0.566 -2.0509  0.4420  0.2493
 6365SOL     OW23456   3.380   6.875   6.883  0.7629 -0.2624  0.4168
 6365SOL    HW123457   3.353   6.879   6.792  2.5172  1.0678 -0.0950
 6365SOL    HW223458   3.303   6.906   6.932  0.3822  0.6822 -0.7382
 6366SOL     OW23459   3.501   5.031  10.301 -0.5169 -0.0913  0.6024
 6366SOL    HW123460   3.500   5.113  10.350 -1.0208 -0.1196  0.6453
 6366SOL    HW223461   3.511   4.963  10.367  1.2608 -0.0071  0.4646
 6367SOL     OW23462   5.417   0.877   3.309  0.3683  0.2145 -0.5772
 6367SOL    HW123463   5.414   0.942   3.240  0.1955  0.3729 -0.4208
 6367SOL    HW223464   5.346   0.817   3.289 -0.3731  0.8660  0.0592
 6368SOL     OW23465   7.634   3.155   1.146 -0.5353  0.2218 -0.3346
 6368SOL    HW123466   7.696   3.137   1.075  3.1033 -0.1293  2.6072
 6368SOL    HW223467   7.621   3.250   1.144  1.1181  0.4813 -0.3851
 6369SOL     OW23468   1.509  10.043   4.343  0.3953  0.4338 -0.1572
 6369SOL    HW123469   1.555   9.963   4.318  0.9556  0.6079  0.2882
 6369SOL    HW223470   1.423  10.013   4.373  1.4688 -0.3077  2.4506
 6370SOL     OW23471   0.049   6.481   4.849  0.2966 -0.1145 -0.1675
 6370SOL    HW123472   0.088   6.551   4.796 -0.9526 -0.9309 -2.3175
 6370SOL    HW223473  -0.009   6.527   4.909 -1.4091  0.7526 -2.3258
 6371SOL     OW23474   6.752  10.234   6.589  0.0652  0.0097 -0.0515
 6371SOL    HW123475   6.805  10.242   6.509 -0.3063  3.2160 -0.0955
 6371SOL    HW223476   6.685  10.169   6.567  0.3646  0.3444 -2.1371
 6372SOL     OW23477   3.566   7.002   2.009  0.2278  0.4722 -0.3074
 6372SOL    HW123478   3.623   7.075   1.984 -1.6043  1.1009 -3.1667
 6372SOL    HW223479   3.615   6.924   1.983  1.6467  0.6760  1.5486
 6373SOL     OW23480   5.626  10.323   0.499 -0.0115 -0.2943 -0.2265
 6373SOL    HW123481   5.536  10.294   0.516 -0.4879  1.1261 -0.2344
 6373SOL    HW223482   5.622  10.418   0.501  1.4963 -0.2023 -0.2863
 6374SOL     OW23483   0.310  10.072   7.816 -0.3752  0.4620 -1.1078
 6374SOL    HW123484   0.216  10.083   7.802 -0.6326 -1.0462 -0.7606
 6374SOL    HW223485   0.339  10.013   7.747 -0.4507 -2.0292  0.8404
 6375SOL     OW23486   9.062   7.228   8.934 -0.1671  0.2253  0.5389
 6375SOL    HW123487   9.063   7.135   8.958  0.5310 -0.0557 -0.4859
 6375SOL    HW223488   9.076   7.228   8.839  0.1101  1.3949  0.5619
 6376SOL     OW23489   1.016   4.147   6.928 -0.1654  0.3053 -0.2655
 6376SOL    HW123490   0.932   4.181   6.959 -0.5954 -0.5078 -0.5316
 6376SOL    HW223491   1.027   4.064   6.975  0.8220  0.7363  0.2908
 6377SOL     OW23492   8.238   3.210   3.951 -0.3142  0.2320 -0.4343
 6377SOL    HW123493   8.160   3.167   3.916 -0.4354  1.2253 -1.4510
 6377SOL    HW223494   8.209   3.298   3.976  0.3105  0.3491 -0.0828
 6378SOL     OW23495   1.146   0.925   2.051  0.3539 -0.1132  0.2295
 6378SOL    HW123496   1.186   0.957   1.971 -0.1588 -0.3363 -0.1229
 6378SOL    HW223497   1.052   0.936   2.037  0.2673  0.0036  0.8669
 6379SOL     OW23498   2.886   2.484   8.181  0.9371  0.2004 -0.8898
 6379SOL    HW123499   2.930   2.566   8.206 -0.2891  1.0400 -1.3869
 6379SOL    HW223500   2.815   2.512   8.124 -1.3405 -0.9192  1.2044
 6380SOL     OW23501   4.321   3.622  10.466  0.1079  1.2872  0.0806
 6380SOL    HW123502   4.256   3.691  10.458  0.5697  2.0014  1.9721
 6380SOL    HW223503   4.337   3.593  10.376 -2.4853  1.3618 -0.4860
 6381SOL     OW23504   9.384  10.192   4.187  0.2624  0.1304  0.6397
 6381SOL    HW123505   9.409  10.108   4.148 -1.8470  0.2037 -1.0231
 6381SOL    HW223506   9.380  10.253   4.113  0.4184  1.3848  1.6281
 6382SOL     OW23507   3.934   8.445   3.714 -0.6332  0.0948  0.5569
 6382SOL    HW123508   3.842   8.473   3.719 -0.6889 -0.0360  0.2802
 6382SOL    HW223509   3.931   8.362   3.666 -0.3386  0.2511  0.2637
 6383SOL     OW23510   3.024  10.832   5.407 -0.2291 -0.0878 -0.3634
 6383SOL    HW123511   3.042  10.842   5.313 -2.1543 -1.5023 -0.9356
 6383SOL    HW223512   2.939  10.874   5.419 -0.7492 -1.3187  0.4122
 6384SOL     OW23513   1.015   8.489   4.309  0.3056  0.8747  0.2315
 6384SOL    HW123514   0.992   8.512   4.399  0.8858  2.6329 -0.0293
 6384SOL    HW223515   0.965   8.551   4.255  0.2056  0.0449 -0.6555
 6385SOL     OW23516  10.942   8.914   3.936  0.4892  0.2815 -0.3385
 6385SOL    HW123517  10.914   8.999   3.902  0.0587  0.2877  0.0145
 6385SOL    HW223518  10.881   8.896   4.008  0.4277 -0.4386 -0.5621
 6386SOL     OW23519   9.395   6.053   8.291 -0.3471  0.3125  0.2828
 6386SOL    HW123520   9.428   6.038   8.202  0.8959  0.1757  0.7477
 6386SOL    HW223521   9.474   6.069   8.343 -1.0936  0.8016  1.2867
 6387SOL     OW23522   5.737   9.780   2.611  0.0358  0.2480 -0.4430
 6387SOL    HW123523   5.817   9.736   2.639 -0.0602  0.4980  0.2313
 6387SOL    HW223524   5.670   9.751   2.672 -0.4584 -0.1645 -1.1644
 6388SOL     OW23525   5.093   6.562   2.307 -0.4354  0.1849  0.2210
 6388SOL    HW123526   5.176   6.570   2.259 -0.7598  0.0803 -0.3624
 6388SOL    HW223527   5.052   6.649   2.299  0.6224  0.9704  2.4211
 6389SOL     OW23528   3.037   7.145   2.336 -0.1674 -0.5130 -0.0413
 6389SOL    HW123529   2.980   7.147   2.413  0.1745 -1.4722  0.2652
 6389SOL    HW223530   3.109   7.204   2.359  0.3032 -1.3347  0.7118
 6390SOL     OW23531   2.275  10.634   5.523 -0.0261  0.4699 -0.0068
 6390SOL    HW123532   2.229  10.661   5.602 -1.8430 -0.2993 -0.7392
 6390SOL    HW223533   2.232  10.682   5.452 -0.6030 -1.2063 -0.8530
 6391SOL     OW23534   2.458   6.036   5.686 -0.2401 -0.3392  0.3283
 6391SOL    HW123535   2.544   6.011   5.651 -0.1429 -0.1781  0.4489
 6391SOL    HW223536   2.406   6.059   5.609 -0.2786 -0.7551  0.2308
 6392SOL     OW23537   6.867   9.900   2.878  0.4160  0.2492 -0.5165
 6392SOL    HW123538   6.931   9.965   2.907  1.0767  0.7126 -2.8569
 6392SOL    HW223539   6.893   9.820   2.924  2.6962  0.4416 -1.3352
 6393SOL     OW23540   5.256   3.688   2.822 -0.3236 -0.5351  0.3561
 6393SOL    HW123541   5.217   3.703   2.736 -0.6643  1.1306  0.7598
 6393SOL    HW223542   5.186   3.707   2.884  0.4306  0.1594  1.0295
 6394SOL     OW23543   9.991   3.061   8.469  0.3409  0.0144 -0.3206
 6394SOL    HW123544   9.954   3.142   8.432 -1.3362 -0.3187  0.5052
 6394SOL    HW223545  10.081   3.060   8.439  0.2596  1.9331 -0.7986
 6395SOL     OW23546   8.752   6.020   3.423  0.1507  0.1993 -0.0317
 6395SOL    HW123547   8.710   6.105   3.435 -0.4595 -0.0321 -0.4628
 6395SOL    HW223548   8.785   6.023   3.333  0.2950  0.0513  0.0163
 6396SOL     OW23549  10.612   3.582   6.925  0.3948 -0.4052 -0.5418
 6396SOL    HW123550  10.703   3.565   6.901  1.0631  2.3386 -0.2433
 6396SOL    HW223551  10.569   3.607   6.843  0.3316 -0.0764 -0.4104
 6397SOL     OW23552   9.622   3.513   8.798  0.3188 -0.4055  0.4025
 6397SOL    HW123553   9.621   3.426   8.839  3.4699  0.5696  2.9394
 6397SOL    HW223554   9.706   3.517   8.753 -1.5045 -0.0402 -3.4433
 6398SOL     OW23555   0.400   3.640   8.198  0.5090  0.1709  0.3562
 6398SOL    HW123556   0.475   3.684   8.160 -0.4799  2.1660  0.5552
 6398SOL    HW223557   0.329   3.656   8.136 -0.1382 -0.2336  0.9761
 6399SOL     OW23558   0.251   0.696   2.062 -0.4445 -0.0893 -0.4031
 6399SOL    HW123559   0.214   0.652   1.985 -1.2789  1.0074 -0.6533
 6399SOL    HW223560   0.346   0.689   2.049 -0.5548 -1.4627 -0.6189
 6400SOL     OW23561   7.136   1.872   8.994 -0.2297  0.1669 -0.5482
 6400SOL    HW123562   7.073   1.902   8.928  0.5685  0.1286 -1.3523
 6400SOL    HW223563   7.091   1.800   9.039 -1.6289  1.5964  0.4633
 6401SOL     OW23564   2.037   9.007   4.526  0.7753 -0.3144 -0.5775
 6401SOL    HW123565   2.040   8.914   4.548 -0.0934 -0.5150 -1.2522
 6401SOL    HW223566   2.035   9.051   4.611  0.5888 -0.9340 -0.2496
 6402SOL     OW23567   6.157   1.001   1.713 -0.1302 -0.6735  0.3213
 6402SOL    HW123568   6.118   0.950   1.784 -0.7118 -0.2017  0.3438
 6402SOL    HW223569   6.168   1.089   1.749  0.6201 -0.7123  0.1929
 6403SOL     OW23570   7.543   9.027   8.194 -0.2385 -0.0101 -0.0336
 6403SOL    HW123571   7.573   9.020   8.285  0.9141 -1.1634 -0.4745
 6403SOL    HW223572   7.622   9.015   8.141 -0.7962  1.2099 -1.2014
 6404SOL     OW23573   9.799  10.699   3.274 -0.2956 -0.2912  0.2426
 6404SOL    HW123574   9.826  10.679   3.184 -0.2901 -0.6228  0.3165
 6404SOL    HW223575   9.836  10.628   3.326  0.3252  0.2843  0.6084
 6405SOL     OW23576   7.581   8.782   0.644 -0.1041  0.3616 -0.4544
 6405SOL    HW123577   7.500   8.775   0.595 -1.2762 -0.4524  1.4942
 6405SOL    HW223578   7.561   8.840   0.717  1.1958  0.4879 -0.1618
 6406SOL     OW23579   7.024   5.374   4.765 -0.4585  0.0495  0.0426
 6406SOL    HW123580   7.049   5.432   4.838 -0.5110 -1.2682  1.1512
 6406SOL    HW223581   7.081   5.298   4.774 -0.9512 -0.4418 -0.8881
 6407SOL     OW23582   9.453   4.226   6.066 -0.0493 -0.0858 -0.0009
 6407SOL    HW123583   9.384   4.159   6.073 -0.2059  0.0600 -0.1333
 6407SOL    HW223584   9.460   4.243   5.973 -1.9443  2.0669  0.1730
 6408SOL     OW23585   2.341  10.819   9.293 -0.4087  0.5329 -0.2523
 6408SOL    HW123586   2.348  10.855   9.382  1.0221  1.4973 -0.7284
 6408SOL    HW223587   2.429  10.827   9.257 -1.2592  1.5322 -2.2701
 6409SOL     OW23588   7.203   3.490   3.442  0.4233  0.1054  0.2708
 6409SOL    HW123589   7.283   3.466   3.489 -0.3539 -2.1357  0.5899
 6409SOL    HW223590   7.134   3.441   3.486 -0.9569  1.0403 -0.7585
 6410SOL     OW23591   1.731   8.307   1.271 -0.7171 -0.0225 -0.0998
 6410SOL    HW123592   1.814   8.296   1.318 -0.9315  2.0607  0.8983
 6410SOL    HW223593   1.664   8.282   1.335 -0.8832 -2.2048 -1.0748
 6411SOL     OW23594   6.867   2.708  10.044  0.0072  0.2842  0.0523
 6411SOL    HW123595   6.831   2.642   9.985  0.6065  0.0660 -0.0791
 6411SOL    HW223596   6.947   2.668  10.078  0.3537  0.9221  0.0045
 6412SOL     OW23597   5.870   6.451  11.082  0.3619  0.0087 -0.0179
 6412SOL    HW123598   5.903   6.387  11.019  0.2378 -0.8816  0.8013
 6412SOL    HW223599   5.795   6.408  11.123  0.1995  0.7342  0.4627
 6413SOL     OW23600   8.937   7.240   2.063 -0.0905  0.0249 -0.0851
 6413SOL    HW123601   9.032   7.239   2.071  0.1149 -2.0264 -1.8994
 6413SOL    HW223602   8.905   7.237   2.153  1.5284  0.9566  0.5579
 6414SOL     OW23603  11.023   0.010   2.771 -0.0286  0.4887 -0.0104
 6414SOL    HW123604  10.986   0.095   2.795 -1.3092  0.3608 -1.3766
 6414SOL    HW223605  11.097   0.031   2.715  0.9337  0.7100  1.2916
 6415SOL     OW23606  10.441  10.695   2.621 -0.0757 -0.2165  0.3205
 6415SOL    HW123607  10.523  10.712   2.575 -0.0011 -1.6361 -0.1257
 6415SOL    HW223608  10.428  10.771   2.677 -0.0455  1.5370 -1.8741
 6416SOL     OW23609   7.245   5.568   9.470  0.1192 -0.4712 -0.4939
 6416SOL    HW123610   7.155   5.593   9.492  0.5110 -0.3710  1.1046
 6416SOL    HW223611   7.297   5.647   9.487  0.5446 -0.5705 -1.2646
 6417SOL     OW23612   1.250   8.368   2.473 -0.0052  0.2374 -0.0051
 6417SOL    HW123613   1.343   8.387   2.461  0.4831 -1.3269  0.9832
 6417SOL    HW223614   1.228   8.309   2.401 -0.4484  1.2088 -0.6815
 6418SOL     OW23615   0.835  10.420   1.202  0.1035  0.8091  0.4175
 6418SOL    HW123616   0.835  10.451   1.293 -0.7081  0.9232  0.3895
 6418SOL    HW223617   0.769  10.350   1.201  3.6673 -2.9417  1.1035
 6419SOL     OW23618   3.091   4.274   2.315 -0.0919  0.2588 -0.3614
 6419SOL    HW123619   3.129   4.342   2.371 -2.0627  0.4647  0.8277
 6419SOL    HW223620   3.058   4.323   2.239 -1.5415  0.7310  0.5091
 6420SOL     OW23621   5.640   9.252   8.272 -0.1112  0.3051  0.1749
 6420SOL    HW123622   5.725   9.251   8.317  0.0545  2.4385 -0.0039
 6420SOL    HW223623   5.658   9.209   8.188  0.4661 -0.3804  0.6300
 6421SOL     OW23624   0.782   9.450  10.504 -0.0582  0.5757  0.2102
 6421SOL    HW123625   0.698   9.488  10.527  0.0603  2.1472 -1.6645
 6421SOL    HW223626   0.845   9.495  10.560 -0.3815 -0.2104  1.2289
 6422SOL     OW23627   8.939   4.397   6.971  0.2586  0.4449  0.8411
 6422SOL    HW123628   9.017   4.348   6.997 -0.7587 -1.6993  0.0990
 6422SOL    HW223629   8.889   4.405   7.052 -0.6119 -1.8580  0.6066
 6423SOL     OW23630   2.357   5.549   0.374 -0.1530  0.0600  0.1466
 6423SOL    HW123631   2.385   5.637   0.397 -1.6789  0.9939 -1.4401
 6423SOL    HW223632   2.270   5.540   0.412 -0.9524  0.0948 -1.6036
 6424SOL     OW23633  10.712   5.758   2.384 -0.2141 -0.8247  0.2241
 6424SOL    HW123634  10.672   5.684   2.430  0.0278 -1.9254 -1.2208
 6424SOL    HW223635  10.806   5.747   2.399 -0.1240 -1.2671 -0.5877
 6425SOL     OW23636   0.303   1.849   1.571  0.0479 -1.0000 -0.2208
 6425SOL    HW123637   0.384   1.798   1.566 -0.1172 -1.3067  0.1683
 6425SOL    HW223638   0.317   1.921   1.510  0.2871 -1.5008 -0.7726
 6426SOL     OW23639   6.473   6.541  10.452 -0.4756  1.1493 -0.5313
 6426SOL    HW123640   6.528   6.528  10.374 -1.6072  1.3752 -1.3864
 6426SOL    HW223641   6.452   6.635  10.451  0.2477  1.3447  0.5751
 6427SOL     OW23642   5.159   5.618   6.869 -0.7808 -0.3827  0.5768
 6427SOL    HW123643   5.213   5.567   6.930  0.6787 -1.0132 -1.1584
 6427SOL    HW223644   5.178   5.709   6.891 -1.0356 -0.5737  1.6826
 6428SOL     OW23645  10.382   4.484   2.897  0.5957  0.0482  0.3981
 6428SOL    HW123646  10.370   4.403   2.848 -0.6240 -0.1658  1.0129
 6428SOL    HW223647  10.464   4.471   2.945  0.0761 -1.1168  1.0162
 6429SOL     OW23648   5.653   0.368   9.972 -0.6320  0.3334 -0.1733
 6429SOL    HW123649   5.583   0.421   9.935 -0.0974  0.1856 -1.4831
 6429SOL    HW223650   5.734   0.414   9.947 -0.2488  0.8201  1.8090
 6430SOL     OW23651   3.084   1.698   5.046  0.0002 -0.0490  0.8915
 6430SOL    HW123652   3.087   1.790   5.018  0.7376 -0.1344  0.6721
 6430SOL    HW223653   3.175   1.675   5.064 -0.2906 -0.4237  2.0046
 6431SOL     OW23654   2.490   4.687   7.476 -0.4513  0.2612 -0.4132
 6431SOL    HW123655   2.491   4.609   7.531 -1.4181  0.0880 -0.6203
 6431SOL    HW223656   2.532   4.755   7.529 -2.5596  0.4678  1.1212
 6432SOL     OW23657   1.583   2.796   1.748  0.0366 -0.5669 -1.0285
 6432SOL    HW123658   1.510   2.738   1.770 -1.9606 -0.0992 -5.2926
 6432SOL    HW223659   1.618   2.761   1.666  1.6139  1.7660 -1.4566
 6433SOL     OW23660  10.516   9.797   5.831 -0.4464  0.4740  0.2167
 6433SOL    HW123661  10.509   9.731   5.762  2.2574 -1.5227  1.6506
 6433SOL    HW223662  10.434   9.790   5.880 -2.0055  1.2714 -2.1206
 6434SOL     OW23663   7.628   4.141   4.170  0.5992 -0.1702  0.4846
 6434SOL    HW123664   7.681   4.072   4.211 -1.0540 -1.3970  0.6468
 6434SOL    HW223665   7.538   4.116   4.187 -0.0712  1.6908 -0.0810
 6435SOL     OW23666  10.434  10.208   1.471  0.3218  0.6942 -0.5210
 6435SOL    HW123667  10.368  10.158   1.423  0.0907  0.9777 -0.5035
 6435SOL    HW223668  10.391  10.292   1.489 -0.1603  0.0612  1.5038
 6436SOL     OW23669  10.868   2.951   5.380  0.3698  0.3862 -0.1699
 6436SOL    HW123670  10.830   3.030   5.341  1.3274  1.0075  0.1222
 6436SOL    HW223671  10.826   2.944   5.466  2.2182  2.1333  0.9389
 6437SOL     OW23672   4.756   4.715   4.892  0.6098 -0.0888  0.5200
 6437SOL    HW123673   4.848   4.704   4.867  0.9316 -0.1033  1.6341
 6437SOL    HW223674   4.707   4.703   4.811  1.4469 -2.2530  0.2548
 6438SOL     OW23675   1.392   4.409   9.911 -0.5349 -0.1269  0.0929
 6438SOL    HW123676   1.486   4.427   9.911 -0.6247  0.6789  2.6940
 6438SOL    HW223677   1.359   4.459   9.836  0.8648  0.9279  0.1239
 6439SOL     OW23678   7.561   0.698   2.401  0.3800  0.1868  0.3916
 6439SOL    HW123679   7.541   0.731   2.313 -0.7779 -0.3814  0.4265
 6439SOL    HW223680   7.626   0.759   2.435  0.8616  0.4088 -0.8620
 6440SOL     OW23681  10.096   7.637   1.974 -0.1935 -0.6956  0.0037
 6440SOL    HW123682  10.140   7.570   1.922 -0.0792 -0.5043 -0.1468
 6440SOL    HW223683  10.162   7.666   2.037 -0.0445 -0.3022 -0.3190
 6441SOL     OW23684   6.574   3.390   9.670  0.1111  0.2539  0.1556
 6441SOL    HW123685   6.481   3.405   9.651  0.3023  1.2004 -0.0744
 6441SOL    HW223686   6.620   3.428   9.595  0.6420 -1.7017 -0.5756
 6442SOL     OW23687   7.914   2.564   3.247 -0.9659  0.0266 -0.0688
 6442SOL    HW123688   7.914   2.658   3.229 -3.7026  0.2960  0.9496
 6442SOL    HW223689   7.923   2.558   3.342  0.2150 -0.8332 -0.2103
 6443SOL     OW23690   4.013   5.192   4.201  0.1181  0.2596  0.1557
 6443SOL    HW123691   4.048   5.110   4.168 -1.0190 -0.5067  0.8102
 6443SOL    HW223692   4.067   5.259   4.159  0.1665 -0.7522 -1.4876
 6444SOL     OW23693   3.853   2.356   7.305  0.8145 -0.2192  0.2630
 6444SOL    HW123694   3.849   2.451   7.317  0.7707  0.1776 -2.3745
 6444SOL    HW223695   3.934   2.331   7.349  1.3725  1.2102  0.1192
 6445SOL     OW23696   1.617   4.104   1.525  0.6905  0.1455 -0.4334
 6445SOL    HW123697   1.655   4.185   1.489  1.5252  0.1317  0.3699
 6445SOL    HW223698   1.527   4.128   1.547  0.6639  0.6079 -1.0056
 6446SOL     OW23699   3.285   1.519   9.854 -0.1864  0.3577 -0.2180
 6446SOL    HW123700   3.281   1.588   9.920 -0.5690  0.7569 -0.6589
 6446SOL    HW223701   3.248   1.558   9.775 -2.3842 -0.9924  0.0692
 6447SOL     OW23702  10.442   1.199   6.805  0.3288 -0.4106 -0.3131
 6447SOL    HW123703  10.347   1.189   6.812  0.3904 -1.2878 -0.6199
 6447SOL    HW223704  10.469   1.129   6.746  1.3663 -1.1993  1.0477
 6448SOL     OW23705   4.964   1.924   1.154  0.0866 -0.7613  0.0675
 6448SOL    HW123706   4.898   1.912   1.086  0.7434  1.0557 -0.9631
 6448SOL    HW223707   5.047   1.920   1.107  0.5465  0.5638  0.7300
 6449SOL     OW23708   1.943   7.169   9.018 -0.4723  0.4492  0.3401
 6449SOL    HW123709   1.907   7.200   9.101 -2.4517  1.3567 -0.8072
 6449SOL    HW223710   2.007   7.236   8.993 -2.0432  1.7755 -0.2965
 6450SOL     OW23711   6.796   9.182   4.597 -0.0310  0.7432 -0.2546
 6450SOL    HW123712   6.794   9.216   4.687  1.2030  1.5504 -0.4910
 6450SOL    HW223713   6.854   9.243   4.551 -0.2979  0.0839 -1.4945
 6451SOL     OW23714   1.683   1.989   9.122 -0.0929  0.4991  0.6830
 6451SOL    HW123715   1.718   1.906   9.154 -0.6934  0.3987  1.1076
 6451SOL    HW223716   1.605   1.964   9.072 -0.3304  0.8089  0.8904
 6452SOL     OW23717  11.090   8.489   9.268  0.1052 -0.3344 -0.0708
 6452SOL    HW123718  11.166   8.546   9.254  0.5828 -1.0415 -0.4566
 6452SOL    HW223719  11.123   8.401   9.250 -0.8827 -0.6265 -0.5072
 6453SOL     OW23720   0.964   6.824   2.929 -0.3312  0.1798 -0.6723
 6453SOL    HW123721   1.005   6.751   2.976 -2.2649 -0.4163  0.1982
 6453SOL    HW223722   0.926   6.879   2.997  1.2030  2.1310 -1.3102
 6454SOL     OW23723   0.622   4.349  10.473 -0.5122  0.4037 -0.1866
 6454SOL    HW123724   0.605   4.263  10.511 -0.6939  0.6455  0.2908
 6454SOL    HW223725   0.704   4.338  10.425 -1.4291 -0.5019 -1.6157
 6455SOL     OW23726   1.082   3.634   1.841 -0.2236 -0.0198 -0.5184
 6455SOL    HW123727   1.074   3.654   1.748 -1.0006  1.2418 -0.2017
 6455SOL    HW223728   1.175   3.648   1.860  0.0993 -1.0576 -1.2503
 6456SOL     OW23729   1.082   6.864   0.806 -0.5106 -0.1826 -0.6373
 6456SOL    HW123730   1.054   6.851   0.715  1.3538  0.9275 -1.4289
 6456SOL    HW223731   1.061   6.782   0.850 -2.1593 -0.4734 -1.8658
 6457SOL     OW23732   2.828  10.090   8.672  0.2567  0.2706  0.3243
 6457SOL    HW123733   2.858  10.113   8.760  1.1521  2.4689 -0.4729
 6457SOL    HW223734   2.748  10.140   8.660 -0.8678 -1.4099  0.4777
 6458SOL     OW23735   7.141   4.971   9.008  0.0912 -0.4748  0.1481
 6458SOL    HW123736   7.221   5.023   9.011  0.4916 -0.9844 -1.2267
 6458SOL    HW223737   7.152   4.906   9.079  0.3441  0.2094  0.7464
 6459SOL     OW23738   6.494   0.082   5.735 -0.1621  0.1170 -0.3852
 6459SOL    HW123739   6.545   0.161   5.715  0.2533 -0.3341 -1.1756
 6459SOL    HW223740   6.443   0.106   5.812  0.9514  0.7216  0.2024
 6460SOL     OW23741  10.478   3.210   5.443  0.2977  0.0635 -0.1219
 6460SOL    HW123742  10.419   3.151   5.397 -0.6854  0.8996  0.0167
 6460SOL    HW223743  10.422   3.252   5.508  0.9746  1.1128 -0.2026
 6461SOL     OW23744   4.012   6.959   6.193 -0.0482 -0.7116 -0.1088
 6461SOL    HW123745   4.087   6.901   6.189  0.6513  0.1311  0.3239
 6461SOL    HW223746   3.963   6.942   6.113  0.9078 -0.8732 -0.6681
 6462SOL     OW23747   3.047   0.170   3.381 -0.2571 -0.0084  0.1286
 6462SOL    HW123748   3.020   0.261   3.390  2.5792  0.9429 -0.0441
 6462SOL    HW223749   3.091   0.166   3.296  0.9990 -1.1302  0.7872
 6463SOL     OW23750   5.347   7.013   0.731 -0.3094 -0.3296  0.6531
 6463SOL    HW123751   5.271   7.064   0.759  0.2799  0.4672  0.8515
 6463SOL    HW223752   5.400   7.075   0.680  0.7281 -0.5624  1.4096
 6464SOL     OW23753   6.237   9.312   5.865 -0.4534 -0.4653 -0.0277
 6464SOL    HW123754   6.234   9.336   5.772 -1.8979 -0.8350 -0.0981
 6464SOL    HW223755   6.294   9.234   5.867 -0.9689 -0.8747 -0.7100
 6465SOL     OW23756   4.577   4.223  10.356  0.4302 -0.0814  0.6532
 6465SOL    HW123757   4.534   4.228  10.271 -0.7183 -1.0443  1.1524
 6465SOL    HW223758   4.550   4.302  10.401 -2.1204 -1.3294  1.5043
 6466SOL     OW23759   5.449   5.620  10.841  0.4772  0.7447  0.2409
 6466SOL    HW123760   5.453   5.631  10.746  0.3687  1.5534  0.3241
 6466SOL    HW223761   5.501   5.541  10.859 -0.1047  0.1627 -0.5557
 6467SOL     OW23762   8.284   0.830   1.182 -0.9688  0.2927  0.3579
 6467SOL    HW123763   8.272   0.781   1.101  0.9830 -0.6920  0.5928
 6467SOL    HW223764   8.338   0.905   1.158 -0.0451 -0.2169  0.7818
 6468SOL     OW23765   3.893   2.002   8.428  0.7216  0.3984  0.5325
 6468SOL    HW123766   3.969   1.946   8.446  0.1085 -0.6824 -0.0989
 6468SOL    HW223767   3.929   2.078   8.383  1.3057 -0.8681 -1.3041
 6469SOL     OW23768   9.378   6.207   8.851 -0.3258 -0.3276 -0.6805
 6469SOL    HW123769   9.377   6.281   8.910  0.4352 -0.9137  0.0806
 6469SOL    HW223770   9.441   6.231   8.783  0.8543 -0.7596  0.2248
 6470SOL     OW23771   7.341   3.765   0.537  0.2518 -0.4623 -0.1358
 6470SOL    HW123772   7.292   3.834   0.582 -1.3835 -1.2375 -0.6410
 6470SOL    HW223773   7.373   3.807   0.457 -0.9410 -0.3336 -0.5610
 6471SOL     OW23774   6.481   9.151   0.713  0.2194  0.1359  0.2322
 6471SOL    HW123775   6.484   9.101   0.794  1.5487  1.1278  0.8363
 6471SOL    HW223776   6.495   9.242   0.740  0.1277  0.5509 -1.0419
 6472SOL     OW23777   6.796   9.345   7.492 -0.1017 -0.6386 -0.0489
 6472SOL    HW123778   6.792   9.254   7.462 -2.5689 -0.1290 -1.5281
 6472SOL    HW223779   6.757   9.395   7.420  2.4084  1.8026  0.1257
 6473SOL     OW23780   5.016  10.918   0.953  0.2078  0.2864 -0.2371
 6473SOL    HW123781   5.105  10.952   0.968 -0.0475  1.2299 -0.7303
 6473SOL    HW223782   4.970  10.934   1.035 -0.4388  2.9723 -1.0060
 6474SOL     OW23783  10.169   9.758   9.865 -0.7022 -0.0811 -0.3172
 6474SOL    HW123784  10.083   9.791   9.836 -0.7332  0.7149  0.6298
 6474SOL    HW223785  10.186   9.804   9.947  0.2256 -0.9112 -0.0234
 6475SOL     OW23786   9.686   5.063   1.124 -0.2785  0.1558  0.2259
 6475SOL    HW123787   9.710   5.146   1.164 -1.3275  1.0684 -0.9530
 6475SOL    HW223788   9.768   5.027   1.092 -0.0745  1.9566 -1.4409
 6476SOL     OW23789  10.205   7.014   6.026 -0.1704  0.3099 -0.0924
 6476SOL    HW123790  10.287   7.024   6.073  0.5080  0.2913 -1.2353
 6476SOL    HW223791  10.154   7.092   6.048 -0.3081 -0.2031  1.4813
 6477SOL     OW23792   2.334   0.163   8.710 -0.7547 -0.2340 -0.0351
 6477SOL    HW123793   2.414   0.208   8.735 -0.3620 -1.2393  0.5822
 6477SOL    HW223794   2.361   0.099   8.644 -0.7581 -1.5624  1.1942
 6478SOL     OW23795   7.514  10.141   6.418 -0.4016 -0.3079 -0.0433
 6478SOL    HW123796   7.452  10.102   6.357 -1.7243  2.2873 -0.5202
 6478SOL    HW223797   7.557  10.210   6.367 -0.1527  0.6651  1.4295
 6479SOL     OW23798   6.060   0.529   9.513 -0.0516  0.1773  0.3180
 6479SOL    HW123799   6.014   0.446   9.522 -0.4620  0.5366  1.7075
 6479SOL    HW223800   6.005   0.592   9.559  0.4313  1.1684 -0.4146
 6480SOL     OW23801  10.383   8.101   8.355 -0.7324  0.3261 -0.4053
 6480SOL    HW123802  10.341   8.080   8.272 -2.8156  0.9771  0.3960
 6480SOL    HW223803  10.311   8.101   8.419  0.7227  0.2261  1.3308
 6481SOL     OW23804   4.735   7.404   3.900 -0.1384  0.2090  0.0345
 6481SOL    HW123805   4.686   7.384   3.979 -0.9937  0.3091 -0.4582
 6481SOL    HW223806   4.669   7.434   3.838  0.3134 -1.0759 -1.1313
 6482SOL     OW23807   1.432   7.916  10.354 -0.3805 -0.3106  0.9754
 6482SOL    HW123808   1.342   7.884  10.354 -0.3912 -0.2863  1.2507
 6482SOL    HW223809   1.425   8.007  10.326 -0.3950 -0.4282  0.5922
 6483SOL     OW23810   7.697   3.358   7.407  0.2545  0.5091  0.1152
 6483SOL    HW123811   7.698   3.282   7.349 -0.0517  1.2714 -0.9170
 6483SOL    HW223812   7.652   3.328   7.485  0.3815 -0.4500 -0.1693
 6484SOL     OW23813   7.744   9.169   0.333  0.3212 -0.6205  0.5322
 6484SOL    HW123814   7.751   9.202   0.243 -0.1592 -2.1834 -0.1121
 6484SOL    HW223815   7.659   9.199   0.363  0.6451  0.2368  0.6213
 6485SOL     OW23816   6.236   0.173   1.770  0.4924 -0.2016  0.2393
 6485SOL    HW123817   6.216   0.263   1.798 -0.4898 -0.2440 -0.2840
 6485SOL    HW223818   6.162   0.121   1.801 -0.1965 -0.3931 -1.6368
 6486SOL     OW23819  11.032   3.036   0.208 -0.6637 -0.0933 -0.1806
 6486SOL    HW123820  10.957   3.096   0.216 -0.4582  0.2797 -0.9853
 6486SOL    HW223821  11.100   3.076   0.262 -0.5721  0.3377 -0.6069
 6487SOL     OW23822   6.154   9.596  10.212  0.6808 -0.1748  0.2049
 6487SOL    HW123823   6.229   9.630  10.162  0.6214  0.3220  0.4486
 6487SOL    HW223824   6.086   9.663  10.200 -0.7875 -1.9646 -2.5022
 6488SOL     OW23825   4.227  11.023   2.939 -0.1551  0.8431  0.3766
 6488SOL    HW123826   4.237  10.968   3.016  0.0237 -1.2131 -1.0480
 6488SOL    HW223827   4.316  11.034   2.905 -0.3855  0.5901 -0.3090
 6489SOL     OW23828   7.775  10.508   4.495  0.4218  0.2377 -0.8649
 6489SOL    HW123829   7.744  10.523   4.405  1.9208  0.2527 -1.4103
 6489SOL    HW223830   7.868  10.531   4.492  0.5305  0.0938  0.6694
 6490SOL     OW23831   9.403   7.649   2.842 -0.1573 -0.5564 -0.2283
 6490SOL    HW123832   9.426   7.741   2.856  0.1153 -0.7971  1.1119
 6490SOL    HW223833   9.360   7.623   2.924  0.2577 -1.7641 -0.3743
 6491SOL     OW23834   5.416   9.291   0.950 -0.0235 -0.0696 -0.3435
 6491SOL    HW123835   5.493   9.298   1.007  0.3186  0.0669 -0.8197
 6491SOL    HW223836   5.389   9.199   0.958  0.6703 -0.3195 -0.7886
 6492SOL     OW23837  10.302  10.933   4.567 -0.1115  0.1068 -0.4221
 6492SOL    HW123838  10.332  10.854   4.522  0.7681  0.1704  0.0476
 6492SOL    HW223839  10.379  10.967   4.612 -1.1167 -0.4697  1.9140
 6493SOL     OW23840  10.230   3.731   3.836  0.3360  0.2874 -0.1476
 6493SOL    HW123841  10.142   3.758   3.861  0.2820 -0.3463  0.3805
 6493SOL    HW223842  10.259   3.673   3.907  2.1553  2.4282  0.9707
 6494SOL     OW23843   7.281   1.849   1.847 -0.1335 -0.4527 -0.1316
 6494SOL    HW123844   7.243   1.928   1.884 -0.0194 -0.5883  0.2842
 6494SOL    HW223845   7.373   1.853   1.873  0.5008  0.5876 -2.3215
 6495SOL     OW23846  10.349   5.320   3.361 -0.6533  0.7416  0.0775
 6495SOL    HW123847  10.296   5.316   3.281  0.4307  0.2022 -0.6399
 6495SOL    HW223848  10.392   5.405   3.357  0.2830  0.2702 -0.5342
 6496SOL     OW23849   5.454   4.985   5.783 -0.4412  0.6323  0.3187
 6496SOL    HW123850   5.520   4.940   5.730 -1.6388 -2.0321  0.9146
 6496SOL    HW223851   5.373   4.936   5.767 -1.8248  2.5122  1.2098
 6497SOL     OW23852  10.563   4.196   3.631 -0.5383  0.3713 -0.5035
 6497SOL    HW123853  10.595   4.106   3.628 -0.5409  0.3476  0.1838
 6497SOL    HW223854  10.614   4.241   3.564  1.4153  0.4848  0.9750
 6498SOL     OW23855  10.950   3.169   3.512  0.4299 -0.1223 -0.0869
 6498SOL    HW123856  10.929   3.090   3.562  2.8300  0.6799  2.5079
 6498SOL    HW223857  10.865   3.206   3.489 -0.7788 -2.0227  1.0409
 6499SOL     OW23858   1.891   8.552  11.080  0.1940 -0.0040 -0.1646
 6499SOL    HW123859   1.907   8.557  11.174 -0.3056 -0.8776 -0.0236
 6499SOL    HW223860   1.838   8.472  11.069 -0.3910  0.4981 -1.0951
 6500SOL     OW23861   2.582   6.854   3.687 -0.6613 -0.4424 -0.0022
 6500SOL    HW123862   2.594   6.802   3.766  0.7693  0.4873  0.4452
 6500SOL    HW223863   2.530   6.799   3.629  0.9966 -2.4871  0.3247
 6501SOL     OW23864   5.415   2.114   8.041 -1.3924 -0.0663 -0.1105
 6501SOL    HW123865   5.340   2.147   8.090 -1.3328 -0.9677  0.6042
 6501SOL    HW223866   5.481   2.094   8.108 -0.8597 -0.1604 -0.6554
 6502SOL     OW23867   8.307   0.282   5.599  0.2146 -0.3489 -0.9309
 6502SOL    HW123868   8.337   0.250   5.684 -1.3326  0.7322  0.0921
 6502SOL    HW223869   8.374   0.345   5.572  0.3659 -0.1616 -0.1489
 6503SOL     OW23870   4.422   7.195  11.039 -0.1972 -0.0183  0.5603
 6503SOL    HW123871   4.422   7.271  11.098  0.8326  1.3423 -1.0784
 6503SOL    HW223872   4.514   7.170  11.034 -0.5218 -1.3689  1.0170
 6504SOL     OW23873   1.541  10.937   9.082  0.3443 -0.1910 -0.5311
 6504SOL    HW123874   1.621  10.960   9.034  0.7303  1.4580  0.8027
 6504SOL    HW223875   1.551  10.844   9.102  0.9044 -0.5272 -2.2073
 6505SOL     OW23876   5.013   9.557   3.705  0.2746  0.5296  0.0409
 6505SOL    HW123877   4.925   9.532   3.733  0.8132  1.1446  2.5730
 6505SOL    HW223878   5.071   9.495   3.748  1.2748  2.5776  1.8591
 6506SOL     OW23879   4.552   2.650   5.045  0.4753 -0.0357 -0.3116
 6506SOL    HW123880   4.562   2.560   5.013  1.0969  0.5002 -1.7003
 6506SOL    HW223881   4.470   2.681   5.006  0.9063  0.4048 -0.8937
 6507SOL     OW23882   0.374   1.660   7.866 -0.6902 -0.6276  0.3300
 6507SOL    HW123883   0.374   1.684   7.958 -0.4085  0.4605  0.0572
 6507SOL    HW223884   0.329   1.732   7.821 -1.1937 -1.3373 -0.3388
 6508SOL     OW23885   8.335  10.600  10.001  0.0581 -0.2817 -0.3832
 6508SOL    HW123886   8.326  10.688  10.037  0.0352  0.2171 -1.5585
 6508SOL    HW223887   8.282  10.545  10.058 -0.8812  0.6611 -0.3234
 6509SOL     OW23888   5.057   9.990   6.274 -0.6039  0.6260  0.6508
 6509SOL    HW123889   5.127  10.053   6.256 -2.7484  2.8253 -0.6293
 6509SOL    HW223890   4.978  10.043   6.281 -2.3798 -1.8436  0.8080
 6510SOL     OW23891   2.800   6.917   1.064 -0.6139 -0.2805  0.2011
 6510SOL    HW123892   2.711   6.882   1.064 -0.9028  0.3392 -1.8674
 6510SOL    HW223893   2.856   6.840   1.068 -1.2406 -0.7885 -0.5093
 6511SOL     OW23894   5.570   5.402   7.669  0.9497 -0.7043 -0.0719
 6511SOL    HW123895   5.574   5.372   7.578  0.5885 -2.4086  0.4301
 6511SOL    HW223896   5.601   5.492   7.666  0.3074 -0.4995 -1.9722
 6512SOL     OW23897  10.453   2.986   6.130  0.2535  0.4086 -0.2329
 6512SOL    HW123898  10.547   2.986   6.112  0.2749 -0.3858 -0.1389
 6512SOL    HW223899  10.432   3.079   6.141  0.8538  0.6644 -1.1013
 6513SOL     OW23900   5.703   9.961   0.130 -0.4889  0.4536  0.7339
 6513SOL    HW123901   5.710   9.976   0.224  1.5947  2.2570  0.3675
 6513SOL    HW223902   5.779   9.907   0.109  0.0786  1.5343 -0.1263
 6514SOL     OW23903   2.406  10.556   8.313 -0.4396  0.1095  0.0645
 6514SOL    HW123904   2.439  10.597   8.233 -0.0736 -0.6337 -0.1684
 6514SOL    HW223905   2.335  10.499   8.284 -0.4929  0.0526  0.3030
 6515SOL     OW23906   2.992   4.648   3.997  0.2745 -0.3961 -0.6131
 6515SOL    HW123907   3.044   4.581   4.042  1.3262 -0.1641 -1.4406
 6515SOL    HW223908   3.004   4.629   3.904  0.3917  0.7907 -0.8527
 6516SOL     OW23909  10.560   6.823   3.239 -0.6385 -0.4191  0.5399
 6516SOL    HW123910  10.547   6.733   3.271  1.9468 -0.8993  0.4145
 6516SOL    HW223911  10.589   6.872   3.315 -0.0801 -0.1766  0.1733
 6517SOL     OW23912  10.783   3.853  10.201 -0.8313 -0.1696 -0.0325
 6517SOL    HW123913  10.835   3.919  10.156 -0.9200 -0.7508 -1.0337
 6517SOL    HW223914  10.749   3.897  10.279 -0.0526  0.6450 -0.1382
 6518SOL     OW23915   4.006   5.375   5.938 -0.2745  0.3639  0.0152
 6518SOL    HW123916   3.967   5.337   6.017 -0.5313  0.5668 -0.0124
 6518SOL    HW223917   3.944   5.352   5.868 -0.0306  0.1540 -0.1349
 6519SOL     OW23918   8.526   9.918   2.768 -0.1490  0.2935 -0.0988
 6519SOL    HW123919   8.520  10.013   2.756 -1.2431  0.2055 -0.3446
 6519SOL    HW223920   8.548   9.907   2.860  2.7338  0.8325 -0.6108
 6520SOL     OW23921   3.282   4.583   9.458  0.0736  0.7408  0.4585
 6520SOL    HW123922   3.231   4.652   9.500 -1.1912  0.7086 -0.9488
 6520SOL    HW223923   3.231   4.559   9.381  1.5087 -0.3416 -0.1987
 6521SOL     OW23924   5.948   2.441   8.122  0.3104  0.0195  0.0799
 6521SOL    HW123925   5.990   2.525   8.103 -1.2490  0.6224 -0.9750
 6521SOL    HW223926   5.878   2.462   8.183  0.7028 -0.7440  0.8123
 6522SOL     OW23927   0.706   4.837   9.538  0.2195  0.4648 -0.2941
 6522SOL    HW123928   0.774   4.842   9.604 -0.4972  1.3385  0.4170
 6522SOL    HW223929   0.741   4.888   9.464 -0.1750  2.1107  0.5869
 6523SOL     OW23930   3.702   4.203   0.436  0.3658 -0.2269 -0.3095
 6523SOL    HW123931   3.720   4.296   0.423 -0.4770 -0.1312 -0.8814
 6523SOL    HW223932   3.720   4.188   0.529  1.7731  0.2020 -0.4965
 6524SOL     OW23933   9.318  10.387   1.288  0.5054 -0.4642 -0.6006
 6524SOL    HW123934   9.335  10.338   1.208 -2.7501 -2.9463  0.0095
 6524SOL    HW223935   9.354  10.332   1.358 -0.4217 -0.4593 -0.1067
 6525SOL     OW23936   1.212   8.181   5.925  0.9205  0.0481  0.3119
 6525SOL    HW123937   1.132   8.190   5.873  0.9312 -0.3749  0.2128
 6525SOL    HW223938   1.192   8.111   5.988  0.5635  1.2317  1.5598
 6526SOL     OW23939   6.335   4.303   3.454  0.2658  0.2777  0.5559
 6526SOL    HW123940   6.321   4.309   3.359  0.1217 -0.8060  0.4990
 6526SOL    HW223941   6.316   4.391   3.486 -0.8238  0.3778 -0.2834
 6527SOL     OW23942   1.384  10.375   5.288 -0.0645  0.6157  0.2282
 6527SOL    HW123943   1.307  10.320   5.275  0.7421 -0.3202 -0.7299
 6527SOL    HW223944   1.440  10.325   5.348 -0.2667  1.3729  1.0698
 6528SOL     OW23945   9.389   5.454   6.323 -0.2929  0.5154 -0.1330
 6528SOL    HW123946   9.432   5.471   6.239  0.6533  1.8548  0.5888
 6528SOL    HW223947   9.373   5.541   6.360 -1.3745 -0.0349  0.7534
 6529SOL     OW23948   1.401   9.148   4.712  0.7486  0.0328  0.0997
 6529SOL    HW123949   1.493   9.175   4.711  0.5338  0.8253  0.5047
 6529SOL    HW223950   1.352   9.229   4.702  0.0888 -0.3939 -0.2003
 6530SOL     OW23951   3.634   7.624   4.701  0.2085  0.0108 -0.0436
 6530SOL    HW123952   3.656   7.692   4.638  1.9181  0.9664  1.4783
 6530SOL    HW223953   3.539   7.630   4.713  0.1383  1.0974 -1.0550
 6531SOL     OW23954   0.600  10.888   5.505 -0.3482 -0.5374 -0.1758
 6531SOL    HW123955   0.568  10.976   5.521 -0.6100 -0.7641  0.5846
 6531SOL    HW223956   0.616  10.852   5.592 -0.8487 -1.4574 -0.4509
 6532SOL     OW23957   2.154   7.016   1.730 -0.1615  0.7786 -0.4098
 6532SOL    HW123958   2.116   7.100   1.755 -0.4176  0.4147  0.4539
 6532SOL    HW223959   2.244   7.037   1.704  0.2765  1.1375  1.2774
 6533SOL     OW23960  10.844   2.871  10.478  0.0185  0.2768 -0.2817
 6533SOL    HW123961  10.838   2.800  10.542 -1.2635  0.2428 -0.4129
 6533SOL    HW223962  10.846   2.826  10.393  1.1285  0.3432 -0.3052
 6534SOL     OW23963   2.165   5.630   1.140  0.0887 -0.5078  0.2974
 6534SOL    HW123964   2.130   5.719   1.137 -0.1397 -0.6160 -1.8989
 6534SOL    HW223965   2.103   5.578   1.090  0.2710 -1.9218  1.4649
 6535SOL     OW23966   7.442   3.770   7.512 -0.3667 -0.1620  0.1152
 6535SOL    HW123967   7.372   3.740   7.569 -0.9486  0.1992 -0.4017
 6535SOL    HW223968   7.494   3.829   7.567 -0.2001 -0.7598  0.6251
 6536SOL     OW23969   4.360   6.681   6.605  0.1284 -0.4778 -0.0783
 6536SOL    HW123970   4.392   6.698   6.694  1.5920 -0.0719 -0.6480
 6536SOL    HW223971   4.302   6.606   6.614 -0.8771  0.4271  1.4322
 6537SOL     OW23972   9.758   6.305   9.686  0.4306  0.2604 -0.0342
 6537SOL    HW123973   9.691   6.247   9.650  1.3433 -0.6319 -0.3423
 6537SOL    HW223974   9.716   6.391   9.689 -1.6685 -0.7209  2.3373
 6538SOL     OW23975   3.396   9.285   5.743 -0.3501 -0.7790  0.4431
 6538SOL    HW123976   3.446   9.220   5.694  0.4495 -0.6864  1.1254
 6538SOL    HW223977   3.308   9.247   5.749  0.0070 -1.6244  0.5066
 6539SOL     OW23978   7.816   8.094   5.949  0.5118 -0.0265  0.2223
 6539SOL    HW123979   7.791   8.103   6.040  1.5064  0.0952  0.4967
 6539SOL    HW223980   7.872   8.170   5.932  1.2282 -0.6247 -0.1615
 6540SOL     OW23981   7.840   3.465   7.139  0.0415 -0.5486  0.2871
 6540SOL    HW123982   7.858   3.387   7.086  2.7172  0.0975  0.1223
 6540SOL    HW223983   7.818   3.430   7.225  2.3640 -1.5554  0.5575
 6541SOL     OW23984   6.888   1.673   3.526  0.8061 -0.4749 -0.1621
 6541SOL    HW123985   6.817   1.733   3.508  1.2729  0.2801  0.4616
 6541SOL    HW223986   6.943   1.676   3.447  0.9728  0.1326 -0.0251
 6542SOL     OW23987   8.628   1.504   8.062 -0.2365 -0.2286 -0.6653
 6542SOL    HW123988   8.618   1.597   8.080  3.0290  0.2844 -0.9109
 6542SOL    HW223989   8.713   1.481   8.099 -1.2478 -3.3572  0.1122
 6543SOL     OW23990   5.428   5.528   5.232 -0.1834 -0.5343 -0.5425
 6543SOL    HW123991   5.344   5.494   5.264 -0.7552  0.7096 -0.6598
 6543SOL    HW223992   5.492   5.462   5.259 -0.9259 -0.5788  1.3275
 6544SOL     OW23993   0.919   9.846   4.377  0.6259 -0.1611 -0.1027
 6544SOL    HW123994   0.921   9.845   4.473  2.1256  1.4354 -0.0710
 6544SOL    HW223995   0.969   9.768   4.351  0.8822 -0.1780  0.4310
 6545SOL     OW23996   3.114   6.391   9.496 -0.3727 -0.1750 -0.0288
 6545SOL    HW123997   3.163   6.394   9.578  0.1159  0.5664 -0.3367
 6545SOL    HW223998   3.172   6.345   9.435 -0.8766 -1.0337  0.1202
 6546SOL     OW23999   7.159   9.080   9.635 -0.1209 -0.1462  0.0234
 6546SOL    HW124000   7.082   9.120   9.594 -1.0459 -0.2846  1.5197
 6546SOL    HW224001   7.123   9.030   9.709  1.4745  0.5638  1.3580
 6547SOL     OW24002   4.020   4.677   7.080  0.0312 -0.1943 -0.8134
 6547SOL    HW124003   4.085   4.747   7.079  0.8589 -0.9378 -0.1979
 6547SOL    HW224004   4.054   4.614   7.143 -1.4877 -0.4176 -0.1762
 6548SOL     OW24005   2.218   4.515   5.959  0.2593 -0.1068 -0.4067
 6548SOL    HW124006   2.137   4.566   5.965  0.0190 -0.5171 -0.1145
 6548SOL    HW224007   2.196   4.430   5.997  1.0791  0.0831  0.5477
 6549SOL     OW24008   3.786   8.511   8.675 -0.2603  0.3519  0.4473
 6549SOL    HW124009   3.729   8.583   8.650  1.1928  1.7501  1.0181
 6549SOL    HW224010   3.874   8.542   8.657  0.4712 -0.8704  1.7116
 6550SOL     OW24011  10.378   9.415   5.870  0.5225 -0.5616  0.8513
 6550SOL    HW124012  10.459   9.417   5.920  0.0834  1.2085  1.5568
 6550SOL    HW224013  10.340   9.502   5.881  0.1734 -0.2087 -2.2029
 6551SOL     OW24014   7.850   7.603   8.395 -0.3510  0.1709  0.5010
 6551SOL    HW124015   7.792   7.679   8.393 -1.3172 -0.4895  1.8930
 6551SOL    HW224016   7.793   7.529   8.376  0.3656 -0.3312  0.2547
 6552SOL     OW24017   1.178   0.565   2.540 -0.3597  0.2574 -0.3761
 6552SOL    HW124018   1.206   0.485   2.495 -0.6781  0.5331 -1.0748
 6552SOL    HW224019   1.201   0.550   2.632 -1.5867 -1.1819 -0.2629
 6553SOL     OW24020   8.290   1.444   4.902  0.3605  0.0765  0.4028
 6553SOL    HW124021   8.357   1.396   4.951 -0.7360 -1.8664  0.1007
 6553SOL    HW224022   8.267   1.386   4.830 -0.8308  1.2117 -0.1743
 6554SOL     OW24023   0.913   2.905   5.313 -0.1696 -0.4115  0.1665
 6554SOL    HW124024   0.853   2.878   5.244 -1.4492 -2.1921  1.8753
 6554SOL    HW224025   0.903   2.839   5.381  1.7978  0.7066  1.6524
 6555SOL     OW24026   0.011   2.413   0.728 -0.5204  0.1428 -0.6895
 6555SOL    HW124027   0.033   2.397   0.820 -0.0678  0.4779 -0.7394
 6555SOL    HW224028  -0.031   2.499   0.728 -1.3112 -0.2305 -0.6787
 6556SOL     OW24029   8.126   7.696   6.381 -0.7731  0.3703  0.1590
 6556SOL    HW124030   8.202   7.640   6.401 -1.0530 -0.1678 -0.2719
 6556SOL    HW224031   8.059   7.636   6.350 -2.1761  0.5216  2.6567
 6557SOL     OW24032   3.913   7.541   9.101 -0.0844  0.2871  0.3103
 6557SOL    HW124033   3.842   7.562   9.163 -0.5216 -0.4858  0.0939
 6557SOL    HW224034   3.984   7.508   9.156 -0.6716 -0.9142  0.3831
 6558SOL     OW24035   5.850   8.672   3.363 -0.5026  0.1317 -0.0260
 6558SOL    HW124036   5.771   8.655   3.311 -1.1260  1.2920  0.5005
 6558SOL    HW224037   5.841   8.614   3.439 -0.6616  0.0014 -0.1413
 6559SOL     OW24038   8.186  10.864   9.005  0.6233  0.9560 -0.5174
 6559SOL    HW124039   8.160  10.824   8.922  2.1343 -0.0395 -0.5588
 6559SOL    HW224040   8.136  10.817   9.072  0.9689  0.2872 -0.7196
 6560SOL     OW24041   0.996   3.310  10.628  0.2474 -0.1507  0.1053
 6560SOL    HW124042   1.022   3.353  10.547  0.2249  1.8940  1.1267
 6560SOL    HW224043   0.923   3.362  10.661 -0.6590 -1.7641  0.7675
 6561SOL     OW24044   7.263   9.472  10.603 -0.2290 -0.0419  0.0068
 6561SOL    HW124045   7.258   9.452  10.696  1.4184  0.6705  0.2847
 6561SOL    HW224046   7.335   9.417  10.571  0.6917  1.3182 -0.3594
 6562SOL     OW24047   6.065   6.030   0.150  0.3051 -0.1487  0.0732
 6562SOL    HW124048   6.046   6.010   0.242  0.8497 -1.5629 -0.1037
 6562SOL    HW224049   5.991   5.993   0.102  0.9881 -1.1606 -0.2101
 6563SOL     OW24050   5.507   6.639  10.920 -0.0439 -0.3361  0.2366
 6563SOL    HW124051   5.584   6.583  10.910 -0.0362 -0.4018  0.6539
 6563SOL    HW224052   5.535   6.708  10.981 -0.4608 -0.6356  0.7795
 6564SOL     OW24053   5.991   1.975   4.049  0.0428 -0.1396  0.2545
 6564SOL    HW124054   5.914   1.923   4.071  0.3193 -1.0321 -0.7449
 6564SOL    HW224055   6.062   1.911   4.046  0.5586  0.4389 -0.1691
 6565SOL     OW24056   9.630   9.138   2.777  0.2527 -0.3341  0.2510
 6565SOL    HW124057   9.550   9.175   2.740  0.5156 -1.4056 -1.4795
 6565SOL    HW224058   9.616   9.140   2.872 -1.4766  0.2321  0.0124
 6566SOL     OW24059   5.837   3.382   7.027  0.5902 -0.2348 -0.3417
 6566SOL    HW124060   5.748   3.403   7.057  1.0150  0.5710  0.4261
 6566SOL    HW224061   5.891   3.393   7.106  1.4422 -0.1817 -0.9243
 6567SOL     OW24062   0.115   8.788   0.610  0.1358 -0.6474  0.5991
 6567SOL    HW124063   0.094   8.721   0.546  0.2551  1.6755 -2.0325
 6567SOL    HW224064   0.062   8.765   0.687 -0.5253 -3.1526 -0.5090
 6568SOL     OW24065   1.606   7.426   2.577 -0.2404  0.1762  0.0103
 6568SOL    HW124066   1.630   7.514   2.605 -0.8446  0.1745  0.5630
 6568SOL    HW224067   1.556   7.438   2.496 -2.2475  0.5406  1.2390
 6569SOL     OW24068   8.100   7.165   9.899 -0.0201  0.3054  0.0607
 6569SOL    HW124069   8.043   7.134   9.829 -0.2619  0.4998  0.1721
 6569SOL    HW224070   8.042   7.179   9.974  0.4379 -1.3058  0.7639
 6570SOL     OW24071  10.544   9.243   2.462 -0.4121 -0.0602  0.4645
 6570SOL    HW124072  10.569   9.324   2.506  0.4614 -0.9757  1.7454
 6570SOL    HW224073  10.482   9.201   2.522 -0.4850 -0.5706  0.0412
 6571SOL     OW24074   5.035   8.561   1.848 -0.2131 -0.1479  0.0612
 6571SOL    HW124075   5.080   8.635   1.808  1.5339 -1.2523 -0.1255
 6571SOL    HW224076   5.102   8.493   1.854 -0.8097 -0.5669  3.4776
 6572SOL     OW24077   8.538   9.293   7.047 -0.1386  0.2770 -0.0796
 6572SOL    HW124078   8.590   9.219   7.016 -0.8210 -0.8147  1.2512
 6572SOL    HW224079   8.476   9.254   7.109 -0.0664  2.0498  1.1771
 6573SOL     OW24080   1.740   3.185   6.021  0.0757 -0.3931 -0.0975
 6573SOL    HW124081   1.713   3.120   5.957 -1.8898  0.4202 -0.1622
 6573SOL    HW224082   1.821   3.150   6.058 -0.6730 -2.6506 -0.4410
 6574SOL     OW24083   8.850   6.941   9.509  0.3782  0.2874 -0.0912
 6574SOL    HW124084   8.783   6.986   9.561 -1.0263 -0.5632 -1.0944
 6574SOL    HW224085   8.930   6.948   9.561 -0.4249  1.5529  1.0273
 6575SOL     OW24086   3.074   2.265   4.947  0.1060  0.2502 -0.2863
 6575SOL    HW124087   3.048   2.314   4.869 -0.5000  0.3978 -0.0012
 6575SOL    HW224088   3.020   2.302   5.017 -0.0785 -0.5607  0.0063
 6576SOL     OW24089   9.535   4.340  10.605 -0.6887 -0.2515 -0.2620
 6576SOL    HW124090   9.619   4.368  10.641 -1.3049  1.5908 -0.1566
 6576SOL    HW224091   9.486   4.308  10.680  0.3234 -2.5221 -0.5054
 6577SOL     OW24092   6.983   9.976   4.522 -0.0017  0.0771 -0.5190
 6577SOL    HW124093   6.911  10.040   4.520 -0.6860 -0.6329  0.5870
 6577SOL    HW224094   7.056  10.021   4.479 -1.7376 -0.0198 -3.9079
 6578SOL     OW24095   5.650   3.364   6.063  0.2936  0.1064  0.8521
 6578SOL    HW124096   5.712   3.438   6.063  0.7335 -0.2593  0.9986
 6578SOL    HW224097   5.566   3.404   6.085 -0.4072  1.3182 -3.2077
 6579SOL     OW24098   2.288   4.373   3.683  0.3117  0.8348  0.0552
 6579SOL    HW124099   2.196   4.351   3.665  0.8925 -1.3250 -0.5554
 6579SOL    HW224100   2.311   4.437   3.615 -0.2754  0.1162 -0.8373
 6580SOL     OW24101   3.337   3.257   8.986 -0.2452 -0.4621 -0.2124
 6580SOL    HW124102   3.280   3.269   9.062 -1.6215  0.4373 -1.3317
 6580SOL    HW224103   3.285   3.206   8.925  0.9917 -1.5163 -0.4415
 6581SOL     OW24104   9.379   5.445   0.544  0.2818 -0.6600  0.2057
 6581SOL    HW124105   9.338   5.371   0.498  0.1601 -0.2125 -0.4177
 6581SOL    HW224106   9.472   5.422   0.548  0.0938 -1.3238  0.9365
 6582SOL     OW24107   6.041   5.546   7.464  0.2337  0.4293 -0.2466
 6582SOL    HW124108   6.096   5.623   7.475 -0.5432  1.2896 -1.9377
 6582SOL    HW224109   5.952   5.581   7.460 -0.4782 -0.8921  2.1087
 6583SOL     OW24110   5.169   3.459   8.136  0.3981 -0.3528 -0.6277
 6583SOL    HW124111   5.193   3.369   8.111  2.1005  0.0385 -0.5196
 6583SOL    HW224112   5.249   3.510   8.120 -0.8642  1.3778 -1.7764
 6584SOL     OW24113   1.639   6.945  10.844 -0.5091  0.1440 -0.2218
 6584SOL    HW124114   1.561   6.892  10.826 -0.5119  0.0189  0.1480
 6584SOL    HW224115   1.712   6.884  10.832 -0.4830  0.1931 -0.3118
 6585SOL     OW24116   9.465   3.485   4.169 -0.2149  0.4999 -0.2041
 6585SOL    HW124117   9.439   3.421   4.235  0.0749  2.2489  1.7450
 6585SOL    HW224118   9.478   3.435   4.089 -2.3210 -1.4788  0.6086
 6586SOL     OW24119   7.317   9.914   8.442 -0.4463 -0.2378 -0.8303
 6586SOL    HW124120   7.271   9.855   8.383 -0.2462  0.2662 -1.5061
 6586SOL    HW224121   7.402   9.928   8.401 -0.6764  0.9263 -0.9622
 6587SOL     OW24122   8.119   2.715   3.422  0.4557  0.0671 -0.2315
 6587SOL    HW124123   8.182   2.745   3.357  0.6077 -1.7442 -0.9878
 6587SOL    HW224124   8.113   2.620   3.408 -1.2680 -0.0367  0.8534
 6588SOL     OW24125   0.068  10.288   7.548  0.1807 -0.1328  0.1706
 6588SOL    HW124126   0.077  10.327   7.461  0.6711  1.3395  0.8554
 6588SOL    HW224127   0.149  10.239   7.561 -0.3745 -1.3404 -0.6295
 6589SOL     OW24128   1.090   9.254   0.335 -0.0359  0.0258 -0.1804
 6589SOL    HW124129   1.183   9.268   0.317  0.0594  0.2411  0.4561
 6589SOL    HW224130   1.045   9.293   0.261  0.3511  0.7304 -0.0474
 6590SOL     OW24131   8.638   8.782   7.978 -0.3701  0.5454  0.3033
 6590SOL    HW124132   8.654   8.774   8.072 -0.2839  0.2365  0.2611
 6590SOL    HW224133   8.723   8.762   7.937 -0.8822 -1.2966  0.0674
 6591SOL     OW24134  10.458  10.449   5.459 -0.2051 -0.2539 -0.0085
 6591SOL    HW124135  10.484  10.362   5.430  0.1691 -0.2170  0.2130
 6591SOL    HW224136  10.478  10.506   5.385 -0.1459 -0.3067 -0.0332
 6592SOL     OW24137   6.611   6.107   9.060  0.4405 -0.1446  0.1368
 6592SOL    HW124138   6.667   6.031   9.075 -0.2014 -0.4778  0.8962
 6592SOL    HW224139   6.541   6.098   9.124 -0.7071  0.0519 -1.0586
 6593SOL     OW24140  10.065   9.083   7.566  0.4069  0.3026  0.1953
 6593SOL    HW124141  10.001   9.128   7.621 -0.4587 -1.1419  0.4062
 6593SOL    HW224142  10.141   9.069   7.623 -0.4244 -1.0457  1.0306
 6594SOL     OW24143   9.658   4.045   3.714 -0.5665  0.6957  0.5942
 6594SOL    HW124144   9.573   4.009   3.692 -0.0389 -0.4660  0.3999
 6594SOL    HW224145   9.721   3.983   3.679  0.3594  1.1296  1.4222
 6595SOL     OW24146   4.947   5.279   0.973  0.2707 -0.6002 -0.0025
 6595SOL    HW124147   4.871   5.338   0.972  1.6442  1.2720  0.3210
 6595SOL    HW224148   4.961   5.259   1.065  0.1512 -0.9958 -0.0667
 6596SOL     OW24149   7.096   2.495   5.893  0.1753  0.1494  0.3909
 6596SOL    HW124150   7.123   2.430   5.828  1.2039  0.9579 -0.0081
 6596SOL    HW224151   7.005   2.473   5.912  0.0990 -0.5727 -0.7436
 6597SOL     OW24152   3.042   7.769   8.058 -0.0867 -0.0443  0.0235
 6597SOL    HW124153   3.068   7.680   8.035 -1.9573 -0.4006 -0.9498
 6597SOL    HW224154   3.021   7.810   7.974 -3.1353 -0.0356  0.6623
 6598SOL     OW24155   4.107   5.343   0.036  0.3921 -0.1718 -0.5007
 6598SOL    HW124156   4.047   5.290  -0.017 -0.5720  1.0092 -0.6385
 6598SOL    HW224157   4.141   5.282   0.101  0.0296 -1.1768 -1.2172
 6599SOL     OW24158   3.025   1.010   3.051  0.3809 -0.0872 -0.6054
 6599SOL    HW124159   2.949   1.018   2.993  0.4434 -1.6361 -0.9608
 6599SOL    HW224160   3.100   1.029   2.995  0.2870  1.5740 -0.2227
 6600SOL     OW24161   8.646   0.934   0.519 -0.3305 -0.1623  0.1307
 6600SOL    HW124162   8.552   0.951   0.517 -0.3560 -0.1714  0.8173
 6600SOL    HW224163   8.657   0.851   0.473 -0.7774 -0.6271  0.8382
 6601SOL     OW24164   8.168   5.916   2.995 -0.2852  0.0533  1.0817
 6601SOL    HW124165   8.261   5.894   3.001  0.1113  1.4774  0.4558
 6601SOL    HW224166   8.157   5.990   3.055 -0.4201  1.5942 -0.7630
 6602SOL     OW24167   8.532   5.024   1.361  0.0600 -0.0865  0.3476
 6602SOL    HW124168   8.499   5.076   1.288 -0.2986  0.1747  0.6955
 6602SOL    HW224169   8.454   4.979   1.395  0.3497 -0.7875  0.1009
 6603SOL     OW24170  10.255   4.525  10.055  0.1160  0.0501 -0.8393
 6603SOL    HW124171  10.290   4.579  10.126 -1.1502  1.2670 -1.0951
 6603SOL    HW224172  10.165   4.506  10.082  0.4739 -1.7870 -0.8588
 6604SOL     OW24173   3.506  10.471  10.632  0.1994 -0.4250  0.4692
 6604SOL    HW124174   3.456  10.551  10.616 -0.7283 -0.4554  2.8649
 6604SOL    HW224175   3.593  10.490  10.598 -0.1475  1.3946  0.5055
 6605SOL     OW24176  11.042   6.910   4.313 -0.5200  0.2273 -0.1274
 6605SOL    HW124177  11.101   6.936   4.241  0.6534 -0.2682  0.6316
 6605SOL    HW224178  11.083   6.833   4.351 -2.2734 -0.8171 -0.2771
 6606SOL     OW24179   2.006   3.779   9.229  0.4848 -0.4383 -0.5400
 6606SOL    HW124180   1.968   3.713   9.287  4.0563 -1.0024  1.4308
 6606SOL    HW224181   1.962   3.860   9.253 -0.5290 -1.2662  0.5054
 6607SOL     OW24182   7.423   6.559  10.981  0.2553 -0.5808  0.0463
 6607SOL    HW124183   7.356   6.505  11.024 -0.0629 -1.2182 -1.2020
 6607SOL    HW224184   7.499   6.552  11.038 -0.1225 -1.4947  0.4650
 6608SOL     OW24185   3.260   5.163  11.047 -0.5231  0.5475 -0.2021
 6608SOL    HW124186   3.228   5.123  11.129  0.6377 -3.0684 -1.3212
 6608SOL    HW224187   3.188   5.219  11.018 -2.8720 -1.5987  1.0554
 6609SOL     OW24188   7.732  10.638   5.708  0.0953  0.4000 -0.0256
 6609SOL    HW124189   7.746  10.681   5.793 -0.4159  2.1957 -0.8137
 6609SOL    HW224190   7.639  10.614   5.708  0.2229 -0.1056  0.1341
 6610SOL     OW24191   7.635   8.957   5.082  0.0723  0.3992 -0.1230
 6610SOL    HW124192   7.687   8.972   5.161  0.3799  0.9854 -0.4293
 6610SOL    HW224193   7.544   8.966   5.110  0.1150 -0.9088  0.4776
 6611SOL     OW24194   3.328   2.564   4.529 -0.2411 -0.0913 -0.0054
 6611SOL    HW124195   3.323   2.660   4.527 -0.5029 -0.1058 -0.1742
 6611SOL    HW224196   3.372   2.544   4.612 -0.3993  0.1673  0.1434
 6612SOL     OW24197   0.390   2.115   9.216  0.1503 -0.2151 -0.4858
 6612SOL    HW124198   0.370   2.036   9.166 -0.3457 -2.9205  3.5132
 6612SOL    HW224199   0.486   2.118   9.219  0.1888 -1.8751  0.9242
 6613SOL     OW24200  10.206   1.736   8.806  0.3619  0.1449 -0.0287
 6613SOL    HW124201  10.228   1.798   8.736  1.2958 -0.2497 -0.1081
 6613SOL    HW224202  10.156   1.667   8.762 -1.1598  1.0867  0.1613
 6614SOL     OW24203   1.389  10.339   7.642 -0.0586 -0.3742 -0.0240
 6614SOL    HW124204   1.478  10.371   7.626  0.1045 -0.1416  1.2078
 6614SOL    HW224205   1.332  10.401   7.597  0.4299 -1.3807 -2.1299
 6615SOL     OW24206   9.978   3.532   9.479  0.0929 -0.2252  0.0227
 6615SOL    HW124207   9.912   3.593   9.512 -0.1530 -0.2195 -0.4678
 6615SOL    HW224208   9.974   3.457   9.539  0.7134  0.4183  0.8919
 6616SOL     OW24209   8.451   3.647   2.774 -0.3247 -0.2822 -0.9192
 6616SOL    HW124210   8.452   3.728   2.722  0.7354  0.0652 -0.3824
 6616SOL    HW224211   8.538   3.642   2.812 -0.9291 -0.7685  0.4731
 6617SOL     OW24212   0.952   6.946   1.104 -0.5003 -0.4114  0.3406
 6617SOL    HW124213   0.908   6.889   1.041 -0.4198  0.3361 -0.3999
 6617SOL    HW224214   1.013   6.998   1.052 -1.3463  1.1371  0.8258
 6618SOL     OW24215   9.528   8.797   4.038 -0.0664  0.2243 -0.0342
 6618SOL    HW124216   9.506   8.710   4.006  0.3305  0.2529 -0.3978
 6618SOL    HW224217   9.579   8.782   4.118 -0.5252  0.1390  0.2468
 6619SOL     OW24218  10.817   0.816   1.068 -0.1249 -0.3166  0.5238
 6619SOL    HW124219  10.743   0.758   1.046 -0.9815  0.3059  1.6577
 6619SOL    HW224220  10.892   0.777   1.022 -0.4330 -2.9560  2.0414
 6620SOL     OW24221   1.659   4.694   2.733 -0.1950 -0.2159 -0.2578
 6620SOL    HW124222   1.754   4.697   2.719 -0.3745  2.2827 -1.5075
 6620SOL    HW224223   1.625   4.646   2.657 -0.0438  0.2067 -0.5920
 6621SOL     OW24224   7.972   8.403   0.154 -0.2088  0.5788  0.2638
 6621SOL    HW124225   8.030   8.388   0.228  0.1571 -1.2152 -0.3445
 6621SOL    HW224226   7.887   8.425   0.194  0.1880  0.4532  1.1883
 6622SOL     OW24227   7.017  10.067   3.054  0.0156  0.4310 -0.2788
 6622SOL    HW124228   7.049  10.154   3.027  1.8035 -0.0508  0.1100
 6622SOL    HW224229   7.090  10.030   3.103 -1.2877 -0.7145  0.8735
 6623SOL     OW24230   1.430   9.356   5.374 -0.5375  0.3656  0.4979
 6623SOL    HW124231   1.437   9.260   5.381 -0.5984  0.3153 -0.0499
 6623SOL    HW224232   1.404   9.371   5.283 -0.6936  0.8976  0.6275
 6624SOL     OW24233   9.324   9.769   1.098  0.0828 -0.6156 -0.1367
 6624SOL    HW124234   9.376   9.690   1.090  1.2507 -0.0710  1.4170
 6624SOL    HW224235   9.331   9.793   1.191 -1.4078  0.5219 -0.2702
 6625SOL     OW24236   5.199   9.308   9.957 -0.2820  0.1206 -0.0932
 6625SOL    HW124237   5.252   9.243   9.913 -0.7599  0.3414 -1.0278
 6625SOL    HW224238   5.110   9.293   9.924 -0.5142  0.7983  0.1960
 6626SOL     OW24239  10.540  10.616  10.319 -0.0473 -0.3457  0.6802
 6626SOL    HW124240  10.551  10.562  10.397  0.0846  1.0193  1.6394
 6626SOL    HW224241  10.581  10.699  10.341 -1.7262  0.7477 -0.1187
 6627SOL     OW24242   9.811  10.776   7.893 -0.3265 -0.3400 -0.3968
 6627SOL    HW124243   9.818  10.692   7.847  0.8567 -0.3948 -0.1493
 6627SOL    HW224244   9.808  10.841   7.823 -3.2150 -0.6552 -0.6575
 6628SOL     OW24245   0.278  10.150   4.934  0.0531  0.5247 -0.2011
 6628SOL    HW124246   0.268  10.055   4.940 -2.0620  0.7808  3.3582
 6628SOL    HW224247   0.223  10.175   4.861  0.3011 -0.9207 -0.9287
 6629SOL     OW24248   4.363   3.803   4.214  0.5314  0.3902  0.2424
 6629SOL    HW124249   4.347   3.831   4.124  0.2511 -2.9313 -0.8684
 6629SOL    HW224250   4.279   3.816   4.258  0.1089  0.2589 -0.5004
 6630SOL     OW24251   8.064   2.051   2.840  0.8379  0.2342  0.0366
 6630SOL    HW124252   8.080   2.142   2.863 -0.7883  0.7816 -0.8774
 6630SOL    HW224253   7.978   2.031   2.875  0.2678 -0.2895 -1.5557
 6631SOL     OW24254   2.348   8.290   8.190  0.5371 -0.1203 -0.4209
 6631SOL    HW124255   2.308   8.230   8.253  1.1393  0.7312  0.8136
 6631SOL    HW224256   2.275   8.325   8.139  0.0321 -0.7227 -0.1139
 6632SOL     OW24257   3.586   0.053   4.848 -0.3640 -0.2608 -0.0916
 6632SOL    HW124258   3.587  -0.010   4.776 -0.5326 -1.8722  1.2555
 6632SOL    HW224259   3.650   0.019   4.911  0.2513  1.4488  0.2772
 6633SOL     OW24260   7.033   5.807   6.507  0.0654  0.2402  0.3219
 6633SOL    HW124261   6.968   5.876   6.503  0.8261  0.9145 -0.7285
 6633SOL    HW224262   7.108   5.847   6.552  1.1394  0.6689 -1.7453
 6634SOL     OW24263  10.819   9.811   9.318 -0.7735 -0.2116 -0.0701
 6634SOL    HW124264  10.790   9.853   9.399  0.9189  1.1021 -0.0703
 6634SOL    HW224265  10.912   9.792   9.333 -0.8011 -1.3321 -1.1656
 6635SOL     OW24266  10.424   2.765   8.664  0.3594 -0.0111  0.1360
 6635SOL    HW124267  10.377   2.728   8.739  0.7029 -0.2890  0.2154
 6635SOL    HW224268  10.514   2.776   8.694  0.0503  1.9650  0.4870
 6636SOL     OW24269   1.795   9.105   0.148 -0.2427  0.2988 -0.5331
 6636SOL    HW124270   1.837   9.070   0.069  1.9870  0.5720  0.4676
 6636SOL    HW224271   1.743   9.032   0.181 -1.3590  0.2371 -2.3199
 6637SOL     OW24272   7.278   4.548  10.601  0.0599 -0.6054  0.7087
 6637SOL    HW124273   7.309   4.550  10.511  3.4426 -0.1024  1.7002
 6637SOL    HW224274   7.299   4.460  10.632  1.8838  0.1356  1.7813
 6638SOL     OW24275   8.299   9.634   8.432  0.3891  0.1548 -0.2357
 6638SOL    HW124276   8.245   9.617   8.508  0.3741  0.9707 -0.0513
 6638SOL    HW224277   8.369   9.691   8.464  0.4663  0.3874 -0.7980
 6639SOL     OW24278   4.431   3.738   0.340 -0.6722  0.0316 -0.3667
 6639SOL    HW124279   4.514   3.719   0.382 -0.0801  0.9085 -1.0912
 6639SOL    HW224280   4.441   3.706   0.251 -0.7888  0.8752 -0.6951
 6640SOL     OW24281   3.165   6.550  10.506 -0.2840 -0.4524  0.2627
 6640SOL    HW124282   3.149   6.639  10.473  0.3124 -0.8882 -1.2904
 6640SOL    HW224283   3.104   6.495  10.456 -0.8696 -0.9045  1.4328
 6641SOL     OW24284   2.686   7.781   3.098 -0.2279 -0.4178 -0.0544
 6641SOL    HW124285   2.718   7.866   3.069  0.7015 -1.0151 -0.8717
 6641SOL    HW224286   2.765   7.726   3.103 -0.9199 -1.4835 -0.4754
 6642SOL     OW24287   8.560   9.803   3.974 -0.3624  0.4952 -0.0708
 6642SOL    HW124288   8.497   9.731   3.966 -0.9152  1.0106 -0.4082
 6642SOL    HW224289   8.539   9.843   4.058 -0.1825  0.3917  0.0254
 6643SOL     OW24290   9.850   6.625   0.421 -1.0352  0.2295  0.1652
 6643SOL    HW124291   9.904   6.549   0.446 -1.9532 -0.2780  0.6363
 6643SOL    HW224292   9.896   6.663   0.346 -0.5970 -0.8346 -0.1230
 6644SOL     OW24293   7.895   7.973  10.729 -0.3225 -0.2469  0.1886
 6644SOL    HW124294   7.946   8.037  10.779 -0.0275 -0.8548  0.6861
 6644SOL    HW224295   7.954   7.947  10.657 -1.3766  1.9234 -1.5894
 6645SOL     OW24296   7.642   8.669   3.301 -0.2347  0.6563  0.4715
 6645SOL    HW124297   7.705   8.715   3.246 -0.2181 -0.4283 -0.4674
 6645SOL    HW224298   7.584   8.625   3.239  0.1205 -1.0691  1.2979
 6646SOL     OW24299   6.632   8.314   6.296  0.1471 -0.3154  0.0495
 6646SOL    HW124300   6.614   8.301   6.389 -3.8495  0.4922 -0.4226
 6646SOL    HW224301   6.562   8.266   6.251  0.6410  1.1326 -2.4830
 6647SOL     OW24302   2.978   5.118  10.599  0.1328 -0.4356 -0.0739
 6647SOL    HW124303   2.900   5.166  10.573 -0.4320 -1.4004 -0.2133
 6647SOL    HW224304   2.963   5.028  10.568 -0.0560 -1.3925  2.5359
 6648SOL     OW24305   0.498   6.488   5.829 -0.1623  0.1407  0.2013
 6648SOL    HW124306   0.494   6.558   5.893 -0.3671  0.8046 -0.5215
 6648SOL    HW224307   0.488   6.532   5.744  0.0932 -0.7130 -0.2878
 6649SOL     OW24308   2.595   8.614   8.597  0.3864 -0.1482  0.3289
 6649SOL    HW124309   2.518   8.663   8.567  0.1534 -1.1534 -0.7869
 6649SOL    HW224310   2.592   8.533   8.547  2.0884 -0.2734  0.3935
 6650SOL     OW24311   5.201  11.008   7.607 -0.0595  0.0040 -0.2474
 6650SOL    HW124312   5.144  11.078   7.637 -0.2791 -0.4757  0.4767
 6650SOL    HW224313   5.224  10.959   7.686  0.8199 -0.2099 -0.6149
 6651SOL     OW24314   7.651   0.893   4.979 -0.4147  0.5321  0.0846
 6651SOL    HW124315   7.721   0.835   4.948 -0.3515  0.0155  1.1475
 6651SOL    HW224316   7.572   0.859   4.937 -0.3350 -0.1821  0.4898
 6652SOL     OW24317   5.324   8.320   3.820  0.1803  0.2261  0.0073
 6652SOL    HW124318   5.299   8.405   3.857  2.6276  1.4981 -0.9907
 6652SOL    HW224319   5.293   8.323   3.729  1.5776  0.7425 -0.4778
 6653SOL     OW24320   7.253   7.321   8.490 -0.3182 -0.2578 -0.0162
 6653SOL    HW124321   7.232   7.344   8.400  0.0838 -0.8953 -0.2811
 6653SOL    HW224322   7.169   7.292   8.527 -0.0584 -2.4033 -0.9419
 6654SOL     OW24323   1.477   2.288   3.781 -0.7237 -0.2887 -0.2746
 6654SOL    HW124324   1.536   2.345   3.831 -0.6382  0.4651 -1.2091
 6654SOL    HW224325   1.533   2.216   3.753 -0.5770 -0.2930  0.0215
 6655SOL     OW24326   0.801   7.944   5.826  0.0184 -0.1554  0.1961
 6655SOL    HW124327   0.855   7.896   5.889  1.8064  0.3942 -0.8369
 6655SOL    HW224328   0.848   7.935   5.743 -0.5417  1.8256 -0.3934
 6656SOL     OW24329   2.010   4.320   1.026  0.0757 -0.0086 -0.7106
 6656SOL    HW124330   1.992   4.406   1.066 -0.0941 -0.5736  0.4915
 6656SOL    HW224331   2.103   4.323   1.003 -0.0552  0.6836 -1.1736
 6657SOL     OW24332   9.727   5.333   2.157  0.1683  0.7116 -0.5821
 6657SOL    HW124333   9.820   5.316   2.171 -0.0055  1.6052  2.5929
 6657SOL    HW224334   9.720   5.429   2.158 -0.7770  0.6523 -0.7175
 6658SOL     OW24335   0.578   1.859   2.618  0.6300  0.2047 -0.0092
 6658SOL    HW124336   0.636   1.892   2.549  0.3829 -0.7000 -0.6668
 6658SOL    HW224337   0.616   1.775   2.642 -0.0656 -0.1143 -0.0140
 6659SOL     OW24338   8.675  10.044   1.791 -0.0421 -0.1270  0.6257
 6659SOL    HW124339   8.752  10.096   1.812 -0.6991  1.4160 -0.6022
 6659SOL    HW224340   8.654  10.066   1.700 -1.3092 -1.3167  0.5867
 6660SOL     OW24341   2.967   4.163   7.260 -0.7279  0.7516  0.2326
 6660SOL    HW124342   2.963   4.256   7.235 -0.2441  0.5011 -0.8019
 6660SOL    HW224343   2.883   4.128   7.232 -0.0017  0.3561 -1.6324
 6661SOL     OW24344   9.693   5.136   0.083  0.5493 -0.6628  0.1114
 6661SOL    HW124345   9.644   5.109   0.006 -0.5202 -1.8872  1.1721
 6661SOL    HW224346   9.630   5.187   0.134  1.2327  0.1014  0.2139
 6662SOL     OW24347   7.554   4.785   6.010 -0.3900 -0.6199 -0.7792
 6662SOL    HW124348   7.483   4.723   6.025 -1.3750  0.3077 -1.3697
 6662SOL    HW224349   7.544   4.850   6.080 -1.0452  0.2743 -1.6605
 6663SOL     OW24350   7.957   7.861   1.422  0.1971 -0.0662 -0.6788
 6663SOL    HW124351   7.892   7.885   1.488  1.6400 -0.0302  0.7984
 6663SOL    HW224352   7.905   7.843   1.343 -1.6598 -0.7501  0.6142
 6664SOL     OW24353   8.763   8.010   3.115  0.1058 -0.1204 -0.4591
 6664SOL    HW124354   8.728   8.006   3.026  1.4390  0.1964 -1.0101
 6664SOL    HW224355   8.748   8.100   3.143 -0.3813 -0.2405 -0.3272
 6665SOL     OW24356   5.654   5.381  11.094 -0.2565  0.1998  0.4284
 6665SOL    HW124357   5.622   5.327  11.023  1.4767  1.2210 -1.2205
 6665SOL    HW224358   5.737   5.341  11.119 -0.2719  0.5435  1.0646
 6666SOL     OW24359   1.012   2.072   9.834  0.4561 -0.0819 -0.2143
 6666SOL    HW124360   0.936   2.061   9.891  0.7692  1.5804  0.5867
 6666SOL    HW224361   1.065   1.994   9.849  0.0669 -0.1255  1.0687
 6667SOL     OW24362   9.443   9.190   3.837  0.2728 -0.1777  0.1496
 6667SOL    HW124363   9.509   9.258   3.836  0.5971 -0.4800 -1.2798
 6667SOL    HW224364   9.364   9.232   3.804  0.1126 -0.1547  0.5596
 6668SOL     OW24365   2.483   9.134   8.736 -0.2829 -0.9635  0.4095
 6668SOL    HW124366   2.562   9.085   8.759  0.2441  0.4119  1.6483
 6668SOL    HW224367   2.490   9.149   8.642  1.0152 -0.7272  0.5330
 6669SOL     OW24368   8.516   2.035   8.096 -0.0549 -0.3637 -0.4467
 6669SOL    HW124369   8.553   2.097   8.034  0.3904 -2.5994 -2.5346
 6669SOL    HW224370   8.578   2.035   8.170  0.3173  1.0771 -0.7336
 6670SOL     OW24371   9.059   3.802  11.000  0.4537  0.0399  0.0429
 6670SOL    HW124372   9.096   3.890  11.006 -1.2060  0.7310  0.6893
 6670SOL    HW224373   9.135   3.744  11.001  1.7961  1.4992 -2.9767
 6671SOL     OW24374   3.651   0.120   3.171 -0.1089 -0.1154  0.0776
 6671SOL    HW124375   3.560   0.150   3.164  0.4180  1.2828 -1.2188
 6671SOL    HW224376   3.685   0.163   3.249 -0.7170 -1.1434  0.9317
 6672SOL     OW24377   9.505   6.819   6.473 -0.1603 -0.0427  0.0073
 6672SOL    HW124378   9.546   6.905   6.481  1.5931 -0.7611 -0.8431
 6672SOL    HW224379   9.462   6.819   6.388  0.9253 -0.4345 -0.5500
 6673SOL     OW24380   4.413   8.494   8.894  0.6781  0.3830 -0.6567
 6673SOL    HW124381   4.359   8.415   8.896 -1.9515  2.0890  0.6198
 6673SOL    HW224382   4.422   8.515   8.801  0.4859 -0.7794 -0.9513
 6674SOL     OW24383   6.383   7.633   2.422 -0.0932  0.0788 -0.4699
 6674SOL    HW124384   6.335   7.556   2.392 -0.5837  0.3809 -0.4721
 6674SOL    HW224385   6.475   7.609   2.411 -0.1415 -1.3899  1.7322
 6675SOL     OW24386   6.647   8.611   8.924  0.5685  0.6361 -0.4292
 6675SOL    HW124387   6.626   8.695   8.965  1.3828  1.1599 -1.0614
 6675SOL    HW224388   6.727   8.582   8.967  0.2679  0.1588 -0.1848
 6676SOL     OW24389   4.675   8.540  11.104  0.2213  0.2346  0.1454
 6676SOL    HW124390   4.729   8.592  11.045 -2.3010  2.9867  0.0044
 6676SOL    HW224391   4.621   8.486  11.046  0.4539  0.0459  0.1074
 6677SOL     OW24392   8.631  10.613   3.660 -0.6271 -0.0189 -0.1910
 6677SOL    HW124393   8.569  10.596   3.589 -1.6407 -1.7698  1.0536
 6677SOL    HW224394   8.697  10.544   3.651  2.0322  2.5264 -2.2810
 6678SOL     OW24395   9.673   4.400   9.660  0.0233  0.0208  0.0493
 6678SOL    HW124396   9.667   4.458   9.584 -0.3670 -0.5486 -0.3670
 6678SOL    HW224397   9.713   4.320   9.626 -1.4685 -0.7850  0.0961
 6679SOL     OW24398   7.956   8.887   8.765 -0.1575 -0.4413  0.1063
 6679SOL    HW124399   7.931   8.796   8.780  0.3251 -0.5270  0.4457
 6679SOL    HW224400   7.878   8.938   8.786  0.2521 -0.6176  2.3081
 6680SOL     OW24401   8.745   2.930   5.783 -0.0520 -0.0098 -0.0953
 6680SOL    HW124402   8.653   2.934   5.808 -0.2283  0.7485 -0.8415
 6680SOL    HW224403   8.789   2.891   5.859 -0.8809  0.2716  0.5334
 6681SOL     OW24404   8.546   3.640   1.978 -0.5666  0.6242 -0.2952
 6681SOL    HW124405   8.573   3.550   1.997  0.2624  0.7616 -0.7653
 6681SOL    HW224406   8.509   3.672   2.060  1.6046  0.7353  0.6862
 6682SOL     OW24407   7.371   6.932  10.557 -0.1320  0.0378 -0.3331
 6682SOL    HW124408   7.340   6.860  10.502  0.4017  0.4564 -1.2071
 6682SOL    HW224409   7.324   6.922  10.640 -1.3777 -0.2690 -1.0685
 6683SOL     OW24410   6.601   5.850   8.798  0.3995 -0.2163 -0.0809
 6683SOL    HW124411   6.643   5.815   8.876  1.6744  0.2872 -0.5201
 6683SOL    HW224412   6.643   5.935   8.784 -0.6165  0.2157 -0.6667
 6684SOL     OW24413   7.608   7.483   3.105 -0.3134  0.3496 -0.5873
 6684SOL    HW124414   7.585   7.564   3.151 -3.3000  0.2233 -1.6645
 6684SOL    HW224415   7.543   7.475   3.035  0.5896 -2.4106 -1.2528
 6685SOL     OW24416  10.425  10.446   9.296  0.2833  0.1712 -0.3426
 6685SOL    HW124417  10.467  10.391   9.229 -0.8948 -0.0173 -0.9412
 6685SOL    HW224418  10.333  10.451   9.270  0.1125  1.4100  0.3905
 6686SOL     OW24419   7.277   0.405   6.888  0.0161 -0.0738 -0.3255
 6686SOL    HW124420   7.193   0.415   6.933 -0.1720  1.3004 -0.9583
 6686SOL    HW224421   7.255   0.369   6.802  0.3499 -2.3968  0.4884
 6687SOL     OW24422   0.406   2.065   6.685  0.4216 -0.9080  0.0787
 6687SOL    HW124423   0.456   2.144   6.702 -0.5093 -0.5613  1.3407
 6687SOL    HW224424   0.317   2.086   6.715  0.4446 -2.8503  1.7380
 6688SOL     OW24425   0.063   3.261   4.863 -0.0471 -0.1908  0.3246
 6688SOL    HW124426   0.075   3.276   4.769 -0.1887  2.3442  0.6475
 6688SOL    HW224427  -0.030   3.240   4.872 -0.2263  0.4249 -0.0260
 6689SOL     OW24428   0.717  10.412   4.305 -0.3231  0.3677 -0.1591
 6689SOL    HW124429   0.732  10.507   4.302 -1.3405  0.5619  0.3784
 6689SOL    HW224430   0.787  10.378   4.360 -0.3752  0.9114  0.2550
 6690SOL     OW24431   3.703   1.299   1.236 -0.0562 -0.5369  0.0890
 6690SOL    HW124432   3.714   1.328   1.145  0.5586 -0.0569  0.3125
 6690SOL    HW224433   3.790   1.309   1.275 -0.4696 -0.1161  0.9175
 6691SOL     OW24434   4.885   9.276  10.849  0.0045  0.3510  0.1898
 6691SOL    HW124435   4.899   9.209  10.916  0.0759 -0.0490 -0.2219
 6691SOL    HW224436   4.791   9.296  10.855 -1.0486 -2.8147 -2.4408
 6692SOL     OW24437  10.743   2.405  10.956  0.3258  0.0324  0.0687
 6692SOL    HW124438  10.792   2.323  10.943  2.4479  1.2524 -0.1942
 6692SOL    HW224439  10.780   2.442  11.036 -2.2632 -0.3371  1.5245
 6693SOL     OW24440   0.986  10.721  10.316  0.1232 -0.0207  0.1054
 6693SOL    HW124441   1.056  10.746  10.255 -0.7671 -1.9275 -1.8319
 6693SOL    HW224442   0.906  10.754  10.275 -0.4079 -0.5539  0.6996
 6694SOL     OW24443   6.721   7.204   0.570 -0.2028  0.2323  0.0231
 6694SOL    HW124444   6.664   7.127   0.579 -1.5702  0.8424 -2.5584
 6694SOL    HW224445   6.728   7.218   0.475  1.2210  2.4422  0.3822
 6695SOL     OW24446  10.707  10.870   8.969 -0.0412  0.3805 -0.0870
 6695SOL    HW124447  10.694  10.786   9.015  0.7210  1.0824  1.5013
 6695SOL    HW224448  10.680  10.852   8.879  1.1767 -1.9226 -0.0926
 6696SOL     OW24449   7.000   0.599   4.059  0.1842 -0.2972  0.2481
 6696SOL    HW124450   6.994   0.604   4.155  1.1782 -2.2237  0.4581
 6696SOL    HW224451   6.975   0.509   4.038  1.6292 -0.4112 -1.1465
 6697SOL     OW24452   6.878   4.834   3.346  0.6328  0.0800  0.1195
 6697SOL    HW124453   6.896   4.769   3.414  3.2204  0.9140  0.3417
 6697SOL    HW224454   6.917   4.914   3.378 -1.3600  1.4805 -0.7423
 6698SOL     OW24455   3.462   4.384   5.465  0.0965 -0.1113 -0.1013
 6698SOL    HW124456   3.546   4.360   5.504  0.0240  0.1712  0.2319
 6698SOL    HW224457   3.403   4.315   5.492 -0.3123  0.8327  1.5570
 6699SOL     OW24458   9.213   7.379   4.443 -0.4548  0.4167  0.6452
 6699SOL    HW124459   9.212   7.285   4.425  1.3465  0.5690 -0.4606
 6699SOL    HW224460   9.143   7.391   4.507 -1.2124 -1.5513  0.2686
 6700SOL     OW24461   5.049   5.047   8.536  0.0404 -0.0270 -0.7842
 6700SOL    HW124462   5.019   5.135   8.514  0.2217  0.4580  0.7662
 6700SOL    HW224463   4.992   4.989   8.485  0.4940  0.9718 -2.4973
 6701SOL     OW24464   4.642   2.711   6.876  0.0391 -0.2034  0.5770
 6701SOL    HW124465   4.555   2.750   6.866  0.7491  1.5912  1.0856
 6701SOL    HW224466   4.629   2.643   6.942 -0.8016  0.6980  1.3838
 6702SOL     OW24467   0.956   1.372   6.384  0.3504 -0.3123  0.1991
 6702SOL    HW124468   0.980   1.441   6.445 -0.8312  0.6741 -0.3881
 6702SOL    HW224469   1.009   1.297   6.410  1.6868  0.8097  0.8465
 6703SOL     OW24470   3.879   1.561   4.226  0.5362 -0.3409  0.2928
 6703SOL    HW124471   3.953   1.507   4.254 -0.2824 -1.8736 -0.4095
 6703SOL    HW224472   3.819   1.561   4.301 -0.0803 -1.5863 -0.1661
 6704SOL     OW24473   4.069   5.014   1.435 -0.1791 -0.3478  0.3998
 6704SOL    HW124474   3.991   5.037   1.385  0.5635 -2.3757 -1.8449
 6704SOL    HW224475   4.133   5.083   1.414 -0.5733  0.0068  0.3537
 6705SOL     OW24476   9.896   6.533  10.495 -0.2322  0.2199  0.3206
 6705SOL    HW124477   9.809   6.499  10.478  0.7332 -1.9610 -0.5606
 6705SOL    HW224478   9.942   6.462  10.540  1.0913  1.3546  0.8596
 6706SOL     OW24479   4.189   5.346   6.230 -0.0281  0.1245 -0.0547
 6706SOL    HW124480   4.136   5.327   6.152 -0.4755  0.2736  0.2075
 6706SOL    HW224481   4.239   5.424   6.207 -1.9291  1.6395  0.6089
 6707SOL     OW24482   9.703   5.152  10.581 -0.0426 -0.0080  0.3935
 6707SOL    HW124483   9.694   5.071  10.530 -0.1565  0.4673 -0.3619
 6707SOL    HW224484   9.614   5.178  10.601 -0.0271  0.1841  0.2192
 6708SOL     OW24485   2.536   2.762   4.357  0.0430 -0.2460 -0.3985
 6708SOL    HW124486   2.564   2.684   4.406 -0.5911 -1.3478 -1.7055
 6708SOL    HW224487   2.607   2.825   4.371  0.7957 -1.2106  0.3431
 6709SOL     OW24488   3.111   1.993   8.518 -0.6464 -0.0117 -0.5752
 6709SOL    HW124489   3.191   2.037   8.492 -1.2985  1.7556  0.2361
 6709SOL    HW224490   3.066   1.974   8.435 -0.6073  1.4035 -0.9392
 6710SOL     OW24491   3.589   8.483   7.105 -0.5668  0.4057  0.3456
 6710SOL    HW124492   3.551   8.510   7.022  0.2180 -0.3302 -0.2679
 6710SOL    HW224493   3.556   8.547   7.169 -2.6756 -0.1055 -0.1651
 6711SOL     OW24494   5.502   8.319   9.843  0.5651 -0.3509 -0.2416
 6711SOL    HW124495   5.532   8.284   9.926 -0.2686  0.1461  0.2864
 6711SOL    HW224496   5.531   8.255   9.778  0.4875 -1.1857  0.5202
 6712SOL     OW24497   4.418   4.866   5.010 -0.2416  0.5625  0.2798
 6712SOL    HW124498   4.484   4.935   5.017 -1.4695  1.9193 -0.8080
 6712SOL    HW224499   4.363   4.877   5.088 -0.4952  0.9008  0.0579
 6713SOL     OW24500   0.461  10.799   0.525  0.1908 -0.3475 -0.2297
 6713SOL    HW124501   0.381  10.776   0.480 -0.1256 -1.4907  0.8453
 6713SOL    HW224502   0.454  10.756   0.611  1.9976 -0.6090 -0.1558
 6714SOL     OW24503   0.514   2.593   2.168  0.3200 -0.1721  0.0349
 6714SOL    HW124504   0.471   2.595   2.083  0.8816 -1.1315 -0.2856
 6714SOL    HW224505   0.500   2.681   2.204 -2.5592 -0.6527  0.3018
 6715SOL     OW24506   9.576   8.067   5.450  0.2933  0.5458 -0.0028
 6715SOL    HW124507   9.545   8.015   5.525  1.4391  0.9710  0.7803
 6715SOL    HW224508   9.613   8.146   5.489  1.1788  0.6392 -0.9977
 6716SOL     OW24509   6.359   0.140   0.192  0.1910 -0.2474 -0.0700
 6716SOL    HW124510   6.382   0.227   0.226  1.4993 -0.5569 -0.1175
 6716SOL    HW224511   6.402   0.079   0.251 -0.8777 -0.8853  0.0645
 6717SOL     OW24512   3.538   5.742  11.022 -0.4019 -0.2385  0.1107
 6717SOL    HW124513   3.539   5.683  11.098 -1.1110 -2.3277 -1.3949
 6717SOL    HW224514   3.603   5.705  10.963 -2.8256 -1.3102 -2.0833
 6718SOL     OW24515   1.915   0.703   8.512 -0.3338  0.0121 -0.3847
 6718SOL    HW124516   1.820   0.709   8.502 -0.2006  0.1896 -1.7388
 6718SOL    HW224517   1.941   0.788   8.547 -0.9452 -0.9892  2.7287
 6719SOL     OW24518  10.226   0.636   9.391  0.2023 -0.2184 -0.4352
 6719SOL    HW124519  10.250   0.622   9.300  1.0658  1.2911 -0.4714
 6719SOL    HW224520  10.252   0.726   9.409  0.3301 -0.5825  1.3968
 6720SOL     OW24521   7.726  10.113   6.920 -0.1358  0.4531 -0.4091
 6720SOL    HW124522   7.727  10.208   6.921  2.3672  0.5027 -0.5618
 6720SOL    HW224523   7.818  10.088   6.927 -0.7895 -1.9809  0.6143
 6721SOL     OW24524   3.722  10.380   3.386  0.0286 -0.4515  0.1195
 6721SOL    HW124525   3.700  10.419   3.470  0.4028 -2.5070  1.2275
 6721SOL    HW224526   3.705  10.450   3.322 -0.8236  0.9641  1.8095
 6722SOL     OW24527   9.407   7.369   6.758  0.3056 -0.0730 -0.0367
 6722SOL    HW124528   9.493   7.364   6.799  0.5198 -2.2244 -0.6226
 6722SOL    HW224529   9.392   7.282   6.722 -1.4479  0.6907 -1.3444
 6723SOL     OW24530   9.917   1.341   7.467  0.1071 -0.1601 -0.3943
 6723SOL    HW124531   9.981   1.276   7.495  0.4027 -0.0111 -0.7140
 6723SOL    HW224532   9.969   1.415   7.437 -0.2338  0.9684  1.6606
 6724SOL     OW24533   2.575   7.852  10.955 -0.2256 -0.0219  0.2913
 6724SOL    HW124534   2.552   7.793  10.884  1.4029  0.6987 -0.9019
 6724SOL    HW224535   2.590   7.795  11.030 -0.0155 -0.9939 -0.4679
 6725SOL     OW24536   4.701   5.297   1.750  0.1690  0.0966 -0.9864
 6725SOL    HW124537   4.637   5.346   1.698 -0.0850  1.6754  0.6898
 6725SOL    HW224538   4.685   5.325   1.840  2.3013 -0.5270 -0.3473
 6726SOL     OW24539   5.553   5.175   0.377 -0.1271  0.0517 -0.5450
 6726SOL    HW124540   5.565   5.270   0.388 -0.1791  0.0067 -0.0796
 6726SOL    HW224541   5.513   5.147   0.459  2.0506 -0.7549  0.3176
 6727SOL     OW24542   0.067   5.582   9.949  0.1437 -0.7383  0.3736
 6727SOL    HW124543   0.077   5.504   9.894 -1.5415 -1.2274  0.7019
 6727SOL    HW224544  -0.006   5.561  10.007  0.4723  0.6185  1.3124
 6728SOL     OW24545   3.032   4.149   6.029 -0.3070 -0.0008 -0.2953
 6728SOL    HW124546   2.937   4.151   6.044 -0.4633  1.1776 -1.2648
 6728SOL    HW224547   3.041   4.122   5.938  0.3494 -1.1484  0.0972
 6729SOL     OW24548   2.691   8.557   2.174  0.7047  0.1234 -0.3688
 6729SOL    HW124549   2.596   8.568   2.176  0.6336 -0.2848 -1.0832
 6729SOL    HW224550   2.713   8.563   2.081  1.4730  0.9373 -0.1521
 6730SOL     OW24551   6.567   2.646   5.526 -0.0126 -0.1302 -0.5821
 6730SOL    HW124552   6.556   2.730   5.480  2.9363  1.1698  0.7592
 6730SOL    HW224553   6.652   2.614   5.496 -0.3385 -1.7921  0.1974
 6731SOL     OW24554   2.129   8.159   6.501 -0.3036  0.2152 -0.2248
 6731SOL    HW124555   2.178   8.078   6.517 -0.1586  0.2243 -0.6143
 6731SOL    HW224556   2.129   8.204   6.586  1.6438  0.9192 -0.5650
 6732SOL     OW24557   9.087   5.882   9.917 -0.7151  0.4155 -0.5207
 6732SOL    HW124558   9.023   5.817   9.889 -1.6063  1.8627 -2.0759
 6732SOL    HW224559   9.155   5.880   9.849 -0.7346  1.0657 -0.5716
 6733SOL     OW24560   6.326   1.639   1.847 -0.2153  0.4789 -0.6322
 6733SOL    HW124561   6.397   1.703   1.844  1.5737 -1.4234 -0.9403
 6733SOL    HW224562   6.362   1.562   1.804 -2.4189 -0.6311 -0.5916
 6734SOL     OW24563   5.421  10.704   2.161 -0.3205 -0.2146 -0.4609
 6734SOL    HW124564   5.369  10.785   2.168  0.6542  0.3073  1.2721
 6734SOL    HW224565   5.405  10.659   2.244  1.4563 -0.3720 -0.1841
 6735SOL     OW24566   3.744   7.687   6.804  0.6776  0.2564 -0.0781
 6735SOL    HW124567   3.658   7.702   6.765 -0.2053 -0.1700  1.5957
 6735SOL    HW224568   3.764   7.596   6.783 -0.5832 -0.5216  1.7688
 6736SOL     OW24569  10.616   3.806   9.973 -0.3257  0.0234 -0.1642
 6736SOL    HW124570  10.677   3.738   9.944  0.6444  0.5160  0.6686
 6736SOL    HW224571  10.657   3.844  10.051 -0.7577  1.6858 -0.7028
 6737SOL     OW24572   5.001   2.270   3.712 -0.1570 -0.0697 -0.3522
 6737SOL    HW124573   4.978   2.350   3.663 -0.6510  0.4838  0.7440
 6737SOL    HW224574   5.027   2.302   3.798  1.4392 -0.9763 -0.4658
 6738SOL     OW24575   6.789   6.565   8.967  0.0335 -0.4686  1.0154
 6738SOL    HW124576   6.879   6.591   8.986 -0.0822  0.9826 -0.2036
 6738SOL    HW224577   6.752   6.542   9.052  0.8338  1.3100  1.8976
 6739SOL     OW24578   6.442   0.921   5.576  0.2091 -0.0482 -0.0425
 6739SOL    HW124579   6.355   0.946   5.546  0.6639  2.3730  0.4865
 6739SOL    HW224580   6.426   0.850   5.639 -1.0354 -2.2117 -2.5858
 6740SOL     OW24581   7.286   4.762   7.841  0.0801 -0.0034  0.1522
 6740SOL    HW124582   7.206   4.800   7.877 -0.1570  0.8316 -1.1613
 6740SOL    HW224583   7.355   4.792   7.899 -0.6093 -1.3788  1.7614
 6741SOL     OW24584   4.964   8.750  10.680  0.4584 -0.1786  0.3511
 6741SOL    HW124585   5.029   8.686  10.709  1.5429  1.2119  1.0844
 6741SOL    HW224586   4.901   8.698  10.629  0.9952 -1.9094  1.3506
 6742SOL     OW24587   2.323   7.283   8.317 -0.2874  0.0102  1.1455
 6742SOL    HW124588   2.418   7.294   8.312 -0.2357 -0.7800 -0.0539
 6742SOL    HW224589   2.311   7.198   8.359 -0.5125  0.6326  2.3982
 6743SOL     OW24590   1.821   0.803   8.865  0.6203 -0.0480  0.0393
 6743SOL    HW124591   1.834   0.829   8.773 -0.1466  0.9645  0.1982
 6743SOL    HW224592   1.840   0.883   8.915  0.7711 -0.5202  0.7402
 6744SOL     OW24593   5.664   9.757   3.861 -0.4336  0.0280 -0.0021
 6744SOL    HW124594   5.668   9.829   3.798 -1.7566 -0.3847 -0.6121
 6744SOL    HW224595   5.606   9.790   3.930  0.3042  0.1544  0.5590
 6745SOL     OW24596   8.581   3.514  10.416  0.2515 -0.0774 -0.2184
 6745SOL    HW124597   8.528   3.534  10.340 -0.3256  0.0727  0.2205
 6745SOL    HW224598   8.537   3.440  10.458  0.2841  0.1568  0.2417
 6746SOL     OW24599   8.273   6.192   8.723  0.3559  0.2404 -0.7511
 6746SOL    HW124600   8.191   6.146   8.737  0.1887  0.4146 -1.1415
 6746SOL    HW224601   8.248   6.283   8.708  0.7871  0.8523  1.7972
 6747SOL     OW24602   8.281   9.420   1.280  0.2682 -0.4276  0.4180
 6747SOL    HW124603   8.307   9.335   1.244 -0.7061 -1.5115  2.1363
 6747SOL    HW224604   8.359   9.451   1.326  0.6095 -0.4062 -0.1639
 6748SOL     OW24605   5.137  10.884   2.882 -0.2726 -0.0140 -0.1004
 6748SOL    HW124606   5.152  10.975   2.907 -0.3533  0.6036 -2.0777
 6748SOL    HW224607   5.061  10.857   2.933  0.4573  0.6245  1.3772
 6749SOL     OW24608   8.338   3.932  11.010 -0.2423  0.0874 -0.6126
 6749SOL    HW124609   8.361   3.921  10.918  0.9470 -0.6144 -0.2587
 6749SOL    HW224610   8.422   3.936  11.055 -0.7944  1.6468  0.3277
 6750SOL     OW24611   1.103   7.960   2.113  0.1756  0.2209  0.1667
 6750SOL    HW124612   1.067   7.985   2.198  0.5545  1.7016 -0.0841
 6750SOL    HW224613   1.030   7.969   2.053  0.2558  0.5099  0.1124
 6751SOL     OW24614  10.899   3.528   1.899  0.5321  0.2657  0.7998
 6751SOL    HW124615  10.856   3.446   1.923  1.3583 -0.4112  0.0496
 6751SOL    HW224616  10.908   3.523   1.803 -0.3008  1.6883  0.6113
 6752SOL     OW24617   7.650   0.339   8.036 -0.0375  0.0398  0.1296
 6752SOL    HW124618   7.571   0.317   8.085 -0.3976 -0.6934 -0.7518
 6752SOL    HW224619   7.712   0.269   8.057 -0.4848 -0.7599 -1.0845
 6753SOL     OW24620   4.914   5.562   1.701  0.1916  0.1444 -0.3715
 6753SOL    HW124621   4.826   5.560   1.665  0.3247  0.6886 -0.7301
 6753SOL    HW224622   4.932   5.470   1.723  0.4627 -0.4079 -2.5834
 6754SOL     OW24623   0.501   0.126   1.919 -0.0192 -0.4289  0.1794
 6754SOL    HW124624   0.416   0.082   1.927 -0.0191 -0.1156  2.3171
 6754SOL    HW224625   0.565   0.060   1.944  0.3059 -0.3797 -0.5031
 6755SOL     OW24626   4.764   5.545   6.858 -0.3775 -0.2409  0.0213
 6755SOL    HW124627   4.812   5.590   6.927 -0.6934  0.1327 -0.0034
 6755SOL    HW224628   4.827   5.481   6.824 -0.3233 -0.6655  0.8737
 6756SOL     OW24629   5.655   7.753   5.803 -0.6202  0.1492  0.1558
 6756SOL    HW124630   5.729   7.810   5.784 -0.5151 -0.2130 -0.5608
 6756SOL    HW224631   5.685   7.697   5.874 -0.8087  1.1390  1.0408
 6757SOL     OW24632  10.905   9.818   1.652 -0.5799  0.3445 -1.0373
 6757SOL    HW124633  10.846   9.870   1.598 -0.6626  0.1747 -1.1135
 6757SOL    HW224634  10.932   9.745   1.595 -0.5974  0.2132 -0.8795
 6758SOL     OW24635   2.854   7.033   0.810  0.1270  0.1425 -0.0802
 6758SOL    HW124636   2.917   7.105   0.798 -0.5794  0.6367 -0.9239
 6758SOL    HW224637   2.845   7.025   0.905  0.8506  0.6077  0.0357
 6759SOL     OW24638   8.742   8.320   1.507 -0.1622  0.4284 -0.0102
 6759SOL    HW124639   8.782   8.234   1.519 -0.1203  0.4827  0.2407
 6759SOL    HW224640   8.737   8.357   1.595 -1.6405  0.0300  0.0991
 6760SOL     OW24641   2.182   8.361   3.049  0.0334  0.1470  0.1306
 6760SOL    HW124642   2.140   8.438   3.013 -1.1885 -0.2684  0.6186
 6760SOL    HW224643   2.135   8.343   3.131  1.6399  0.0889  1.0859
 6761SOL     OW24644   5.795   1.816   0.376 -0.3041 -0.3218  0.2223
 6761SOL    HW124645   5.735   1.757   0.330 -1.3728  0.0189  1.1353
 6761SOL    HW224646   5.830   1.763   0.448 -0.4487 -0.1600  0.4119
 6762SOL     OW24647   6.973   6.859   4.723  0.0086  0.2490 -0.1679
 6762SOL    HW124648   7.019   6.781   4.692 -0.6719 -0.2794  0.1233
 6762SOL    HW224649   6.882   6.831   4.733 -0.1410  0.9270  0.4808
 6763SOL     OW24650   4.819   4.853   7.296 -0.2578 -0.2109  0.3826
 6763SOL    HW124651   4.834   4.775   7.349  3.3451  0.5456  0.6964
 6763SOL    HW224652   4.845   4.827   7.207 -0.6981  0.1706  0.1355
 6764SOL     OW24653   7.233   8.518   8.314  0.1656 -0.0654 -0.0945
 6764SOL    HW124654   7.211   8.523   8.221  2.1629  0.8999 -0.5857
 6764SOL    HW224655   7.150   8.527   8.360 -0.9388 -1.2558 -1.7882
 6765SOL     OW24656  10.118   0.549   2.218  0.6025 -0.0548 -0.0191
 6765SOL    HW124657  10.109   0.614   2.147  1.9984  0.5574  0.3315
 6765SOL    HW224658  10.144   0.469   2.173  2.1670  0.5049 -0.1750
 6766SOL     OW24659   2.039   9.034   2.688 -0.1119  0.2037 -0.2014
 6766SOL    HW124660   2.129   9.038   2.654 -0.1737 -0.5423 -0.4693
 6766SOL    HW224661   2.046   9.065   2.778  0.7297 -1.5497  0.3655
 6767SOL     OW24662   0.270   9.875   3.451  0.1095 -0.1809  0.1345
 6767SOL    HW124663   0.322   9.909   3.524 -2.4658  2.6255  0.8467
 6767SOL    HW224664   0.293   9.932   3.377 -1.6988  1.0043  0.4247
 6768SOL     OW24665   9.060  10.186  10.913 -0.4475 -0.3672 -0.4511
 6768SOL    HW124666   9.154  10.201  10.919 -0.7716  1.6818  0.5703
 6768SOL    HW224667   9.039  10.199  10.821  0.2428 -0.8458 -0.6866
 6769SOL     OW24668   0.128   2.825   1.179 -0.2276  0.2961  1.2547
 6769SOL    HW124669   0.035   2.805   1.189 -0.1123 -0.8578  0.3378
 6769SOL    HW224670   0.159   2.760   1.115  0.5399  2.5487 -0.8373
 6770SOL     OW24671   0.138   6.653   4.661 -0.1374 -0.0945  1.2086
 6770SOL    HW124672   0.117   6.663   4.568  2.4663 -0.4330  0.5061
 6770SOL    HW224673   0.103   6.732   4.702 -0.4129  0.5587 -0.2221
 6771SOL     OW24674   8.577  10.287   0.581  0.2121  0.3300 -0.1067
 6771SOL    HW124675   8.622  10.363   0.620 -0.1091  0.9255 -0.8680
 6771SOL    HW224676   8.489  10.319   0.563 -0.3261 -0.6313  0.7462
 6772SOL     OW24677   4.774   0.065   4.538  0.3431 -0.1836 -0.0667
 6772SOL    HW124678   4.822   0.113   4.470 -1.7754  1.5972 -0.4434
 6772SOL    HW224679   4.768   0.127   4.611 -1.5845 -0.1629 -0.1678
 6773SOL     OW24680   9.636   6.596   5.422 -0.1854  0.1712  0.4701
 6773SOL    HW124681   9.546   6.584   5.392 -0.0846 -0.0926  0.2785
 6773SOL    HW224682   9.629   6.601   5.517 -0.3713 -0.1372  0.4734
 6774SOL     OW24683   3.312   2.225   5.041  0.3713  0.4189 -0.5781
 6774SOL    HW124684   3.289   2.159   5.106 -0.9534  1.7195  0.3317
 6774SOL    HW224685   3.237   2.228   4.982  2.4687 -2.4133 -3.7507
 6775SOL     OW24686   9.012   6.205   5.868  0.0758 -0.8712 -0.0447
 6775SOL    HW124687   9.034   6.141   5.936  1.5846 -0.7863 -0.4061
 6775SOL    HW224688   9.074   6.187   5.798 -1.8085 -1.3029 -1.6682
 6776SOL     OW24689   8.100   9.622   9.145 -0.5880  0.4741  0.5045
 6776SOL    HW124690   8.104   9.671   9.227  1.7397  0.6848  0.3314
 6776SOL    HW224691   8.181   9.570   9.143 -0.9232 -0.0590 -1.3163
 6777SOL     OW24692   1.220   2.478   1.646 -0.6973 -0.4093  0.2441
 6777SOL    HW124693   1.126   2.463   1.657 -0.9719  1.5706  1.0244
 6777SOL    HW224694   1.227   2.534   1.569 -0.2111 -0.1156  0.4932
 6778SOL     OW24695   4.791  10.578   1.577 -0.4093  0.4787 -0.1133
 6778SOL    HW124696   4.870  10.552   1.623 -0.4848  0.3134 -0.0757
 6778SOL    HW224697   4.786  10.673   1.590  0.2159  0.6119 -0.8019
 6779SOL     OW24698   3.298   2.946   6.408 -0.2114  0.3180  0.2710
 6779SOL    HW124699   3.304   3.041   6.402 -2.4867  0.5200  0.3840
 6779SOL    HW224700   3.346   2.914   6.332  1.5255  1.4771  0.8236
 6780SOL     OW24701   3.092   5.314   3.155  0.2592 -0.2042  0.2733
 6780SOL    HW124702   3.048   5.312   3.240 -0.5030  1.2415 -0.0544
 6780SOL    HW224703   3.023   5.336   3.093  1.3669  2.0675 -0.2749
 6781SOL     OW24704   1.393   7.667  10.147  0.2913 -0.1169  0.2469
 6781SOL    HW124705   1.421   7.758  10.137 -0.6962  0.1039 -0.6937
 6781SOL    HW224706   1.407   7.628  10.061 -1.0794 -0.3245  0.1012
 6782SOL     OW24707   0.921   7.488   8.637  0.3009  0.1894 -0.0584
 6782SOL    HW124708   0.858   7.421   8.611 -0.8616  1.0624  0.4427
 6782SOL    HW224709   1.006   7.443   8.632 -0.4975 -1.5707  1.0585
 6783SOL     OW24710   0.661   6.674   4.137 -0.3729 -0.8407 -0.2038
 6783SOL    HW124711   0.722   6.615   4.181 -0.5914 -2.3096 -1.7806
 6783SOL    HW224712   0.663   6.647   4.045 -2.9679 -0.6150 -0.4063
 6784SOL     OW24713   1.972   8.656   7.162  0.7207 -0.2625 -0.4256
 6784SOL    HW124714   2.053   8.615   7.195  0.7502  0.1858  0.0788
 6784SOL    HW224715   1.965   8.738   7.212 -0.2958 -0.5175 -0.1190
 6785SOL     OW24716   9.346   9.606  10.208 -0.2060 -0.4378  0.3828
 6785SOL    HW124717   9.328   9.567  10.123 -1.0191 -0.5554  0.5961
 6785SOL    HW224718   9.379   9.534  10.262 -2.5876 -1.1284  1.0585
 6786SOL     OW24719  10.867   3.679   5.335  0.3016 -0.5254 -0.5043
 6786SOL    HW124720  10.879   3.616   5.406  0.9226  1.3307  1.1425
 6786SOL    HW224721  10.772   3.687   5.325  0.1216  0.6186  1.5589
 6787SOL     OW24722   8.343   8.308   0.034 -0.8289 -0.2920  0.1470
 6787SOL    HW124723   8.398   8.381   0.061 -1.6457 -0.2060  1.7522
 6787SOL    HW224724   8.284   8.344  -0.032  0.4110 -0.1624 -0.9176
 6788SOL     OW24725   7.853   0.736   3.479  0.4435 -0.9317  0.4728
 6788SOL    HW124726   7.768   0.753   3.436 -0.0954 -1.3595  1.3396
 6788SOL    HW224727   7.900   0.679   3.419  1.0691  1.1194 -1.0995
 6789SOL     OW24728   5.661   1.593   6.614  0.4869 -0.1169  0.5134
 6789SOL    HW124729   5.750   1.578   6.585  0.7193  0.8624  0.6985
 6789SOL    HW224730   5.635   1.511   6.656  1.5909 -0.1364  1.1882
 6790SOL     OW24731   0.191   7.805   3.638 -0.2248  0.7141 -0.4156
 6790SOL    HW124732   0.164   7.826   3.549 -0.7671  2.0202  0.0381
 6790SOL    HW224733   0.216   7.889   3.676 -0.5355  0.2539  0.8468
 6791SOL     OW24734   0.599   1.263   0.023  0.3433  0.4579 -0.8076
 6791SOL    HW124735   0.575   1.319   0.098  0.6907 -0.9434  0.4006
 6791SOL    HW224736   0.530   1.279  -0.041  0.1346  1.8499 -0.2859
 6792SOL     OW24737   0.623   4.248   6.476  0.5456 -0.1614  0.3900
 6792SOL    HW124738   0.666   4.328   6.447  0.4486  0.5875  2.2128
 6792SOL    HW224739   0.582   4.213   6.396  0.7783  1.4662 -0.4890
 6793SOL     OW24740   7.565   0.853   2.093  0.4321  0.3906 -0.1448
 6793SOL    HW124741   7.554   0.758   2.086 -2.8062  0.7284 -1.7052
 6793SOL    HW224742   7.620   0.876   2.019  2.4395 -0.3295  1.0469
 6794SOL     OW24743   5.327   3.425   2.414  0.0906  0.1952  0.4696
 6794SOL    HW124744   5.329   3.335   2.446 -0.0122  0.5153  1.4010
 6794SOL    HW224745   5.294   3.476   2.487 -0.3043  0.9361 -0.2079
 6795SOL     OW24746   9.831   9.526   5.163 -0.4566 -0.3276 -0.1545
 6795SOL    HW124747   9.844   9.498   5.072  1.9075 -0.2121  0.1087
 6795SOL    HW224748   9.820   9.621   5.157  1.3889 -0.0912 -0.2085
 6796SOL     OW24749   2.004  10.903   9.527 -0.1651 -0.8611 -0.8279
 6796SOL    HW124750   2.093  10.940   9.528 -1.4102  2.6782  1.9612
 6796SOL    HW224751   2.016  10.812   9.554  2.5105  0.3122  2.7060
 6797SOL     OW24752   9.694   1.861   9.053 -0.0349 -0.0022 -0.6398
 6797SOL    HW124753   9.668   1.784   9.104 -0.8388 -0.8217 -2.2355
 6797SOL    HW224754   9.761   1.829   8.993  0.7077  0.8945 -0.3110
 6798SOL     OW24755   8.570   8.922   1.344  0.1946  0.3069 -0.0670
 6798SOL    HW124756   8.585   8.992   1.280 -0.5742  1.2782  0.7819
 6798SOL    HW224757   8.578   8.966   1.429 -0.3555 -0.6301  0.4773
 6799SOL     OW24758   9.127   9.533   1.457  0.2207 -0.0485  0.2248
 6799SOL    HW124759   9.142   9.598   1.525  0.1254 -0.2451  0.4364
 6799SOL    HW224760   9.211   9.488   1.447  0.1555 -0.2178  0.4246
 6800SOL     OW24761   0.185   6.437   0.618 -0.2074  0.2903  0.2048
 6800SOL    HW124762   0.238   6.400   0.689  1.0298  2.8258  0.7181
 6800SOL    HW224763   0.119   6.490   0.662 -1.3604 -0.5095 -0.5108
 6801SOL     OW24764   2.991   6.543   4.206 -0.9227  0.4899 -0.0352
 6801SOL    HW124765   3.032   6.624   4.236  0.7415 -0.7006  1.0957
 6801SOL    HW224766   3.035   6.523   4.124 -1.0020  0.4824 -0.0758
 6802SOL     OW24767   2.355   9.032   0.043 -0.3460  0.3689  0.4708
 6802SOL    HW124768   2.436   9.084   0.041 -0.7068  0.9309  0.3063
 6802SOL    HW224769   2.310   9.056  -0.038 -0.4910 -0.2550  0.3607
 6803SOL     OW24770   0.136   7.222   7.426 -0.0381 -0.2969  0.3579
 6803SOL    HW124771   0.219   7.207   7.381  0.2606 -0.6793  1.0255
 6803SOL    HW224772   0.118   7.315   7.413  0.0138 -0.4169 -0.5933
 6804SOL     OW24773   1.280   8.278   2.216  0.1092  0.0144  0.2698
 6804SOL    HW124774   1.249   8.272   2.126 -0.5756 -1.9752  0.5778
 6804SOL    HW224775   1.370   8.309   2.209 -0.5179  1.6766 -0.9422
 6805SOL     OW24776   1.509   1.875   5.193  0.3325 -0.4150 -0.1005
 6805SOL    HW124777   1.503   1.861   5.099  0.5891 -1.7987  0.0724
 6805SOL    HW224778   1.425   1.913   5.217  0.6029  0.8148 -1.0142
 6806SOL     OW24779   6.281   5.159   1.164 -0.2777  0.0008  0.1003
 6806SOL    HW124780   6.279   5.205   1.080  0.1418 -0.8021 -0.3672
 6806SOL    HW224781   6.191   5.129   1.177 -0.1159 -0.9226 -0.6897
 6807SOL     OW24782   7.210   9.786   4.372 -0.1468 -0.4037 -0.0383
 6807SOL    HW124783   7.136   9.749   4.420  0.1444  0.7029  1.3236
 6807SOL    HW224784   7.184   9.876   4.352  0.7501 -0.0449  0.3277
 6808SOL     OW24785   4.852   4.587   1.488  0.3422 -0.2173 -0.0160
 6808SOL    HW124786   4.932   4.628   1.455  0.3650  0.2318  0.5773
 6808SOL    HW224787   4.843   4.621   1.577  0.6157 -1.8798  0.6702
 6809SOL     OW24788  10.581   5.458   6.457 -0.1264 -0.0528  0.1531
 6809SOL    HW124789  10.504   5.493   6.503  0.6167  2.0210 -0.0963
 6809SOL    HW224790  10.576   5.497   6.370  0.1157 -1.5750 -0.5829
 6810SOL     OW24791   8.539   6.703   0.412 -0.2075  0.6909  0.4468
 6810SOL    HW124792   8.514   6.683   0.502 -0.9596 -0.2753  0.0368
 6810SOL    HW224793   8.476   6.656   0.358 -0.9505  2.7547 -0.6064
 6811SOL     OW24794   2.566   0.853   6.571 -0.0159 -0.4670  0.4923
 6811SOL    HW124795   2.625   0.927   6.584  1.1841 -1.0327 -1.3808
 6811SOL    HW224796   2.514   0.876   6.494  0.1142 -1.4015  0.1118
 6812SOL     OW24797   0.790   7.042   5.769  0.0486 -0.3351  0.2663
 6812SOL    HW124798   0.856   7.029   5.702  2.9100  0.9998  2.5857
 6812SOL    HW224799   0.775   6.955   5.806 -0.5409 -0.8511 -1.1324
 6813SOL     OW24800  10.056   7.917   5.652  0.7315 -0.3107 -0.1995
 6813SOL    HW124801  10.028   8.009   5.653 -0.2638 -0.5845 -1.0871
 6813SOL    HW224802  10.027   7.884   5.567  0.8531 -1.5195  0.2100
 6814SOL     OW24803   0.847   0.249   3.337  0.5893 -0.5654 -0.0131
 6814SOL    HW124804   0.868   0.225   3.427 -0.1260  0.7766  0.5420
 6814SOL    HW224805   0.813   0.169   3.298  1.2737 -1.2638  0.7816
 6815SOL     OW24806   5.164  10.814   8.358 -0.8029 -0.2499  0.2010
 6815SOL    HW124807   5.235  10.822   8.295 -1.0588 -1.6444 -0.3157
 6815SOL    HW224808   5.207  10.809   8.443 -0.3817  0.4510  0.0311
 6816SOL     OW24809   5.865   7.882   0.699  0.0143 -0.1374 -0.0044
 6816SOL    HW124810   5.783   7.916   0.734 -0.3605  1.0017 -1.8875
 6816SOL    HW224811   5.896   7.821   0.766 -2.2343 -0.4217  0.8401
 6817SOL     OW24812   1.764   6.244   5.812 -0.1376 -0.5215 -0.2340
 6817SOL    HW124813   1.797   6.166   5.857  2.4316 -1.0380 -2.7329
 6817SOL    HW224814   1.759   6.218   5.720  2.5603  2.6315 -1.4923
 6818SOL     OW24815  10.170   9.138   4.540  0.2537 -0.2877  0.2403
 6818SOL    HW124816  10.204   9.128   4.629 -0.4007 -0.2329  0.4997
 6818SOL    HW224817  10.089   9.188   4.550  0.4175  0.1281 -0.4365
 6819SOL     OW24818   8.252  10.675   2.457  0.1053 -0.9019 -0.7016
 6819SOL    HW124819   8.213  10.684   2.544  0.3954 -0.4016 -0.6233
 6819SOL    HW224820   8.335  10.629   2.473  0.7728  0.3190 -0.5465
 6820SOL     OW24821   4.116   8.737  11.033  0.1016 -0.1360 -0.1315
 6820SOL    HW124822   4.158   8.810  11.079  0.4410 -1.2400  1.4139
 6820SOL    HW224823   4.036   8.774  10.997  0.7238  1.2116 -0.2037
 6821SOL     OW24824   0.310   4.210   2.448 -0.1465 -0.3500  0.1950
 6821SOL    HW124825   0.261   4.177   2.524  3.6429 -0.9142  2.6360
 6821SOL    HW224826   0.349   4.292   2.479  1.6151 -0.6731 -1.0510
 6822SOL     OW24827   0.523   4.807   8.464 -0.3346  0.0120  0.0582
 6822SOL    HW124828   0.494   4.898   8.474  0.4994  0.1905  1.0484
 6822SOL    HW224829   0.619   4.813   8.462 -0.2614 -0.8866  0.5063
 6823SOL     OW24830   6.137   3.343   1.235 -0.5076 -0.2590 -0.5369
 6823SOL    HW124831   6.146   3.270   1.296  0.7233 -0.8149 -1.3230
 6823SOL    HW224832   6.048   3.335   1.200 -2.1675  1.5061  2.8523
 6824SOL     OW24833   7.825   4.613  11.048  0.5019  0.3894 -0.3300
 6824SOL    HW124834   7.809   4.596  11.141 -0.1852  0.0273 -0.5068
 6824SOL    HW224835   7.774   4.692  11.029 -0.6514 -0.4169 -0.7496
 6825SOL     OW24836   9.883   1.177   5.944 -0.4373  0.3215  0.0354
 6825SOL    HW124837   9.869   1.145   5.854 -1.7124  0.3445  0.2092
 6825SOL    HW224838   9.846   1.108   5.999 -0.0395  0.5070  0.5395
 6826SOL     OW24839   6.443   6.550   5.546  0.0607  0.3728  0.4247
 6826SOL    HW124840   6.451   6.646   5.545 -2.2792  0.6316 -0.7221
 6826SOL    HW224841   6.406   6.528   5.460  1.1421 -1.6522  0.4221
 6827SOL     OW24842   6.936   9.672   2.996  0.3158  0.2157 -0.0012
 6827SOL    HW124843   7.009   9.630   2.950 -0.6070 -1.0526 -0.3509
 6827SOL    HW224844   6.861   9.616   2.979 -0.1260 -0.2332  2.9084
 6828SOL     OW24845   3.215   3.061  10.048 -0.0329  0.2178  0.3432
 6828SOL    HW124846   3.163   2.982  10.036  0.5537 -0.4387  1.9375
 6828SOL    HW224847   3.284   3.035  10.109  1.5334  1.3459 -0.8733
 6829SOL     OW24848  10.577   3.563   3.055  0.6731 -0.2676 -0.1688
 6829SOL    HW124849  10.511   3.509   3.009 -0.8278  0.7148  0.7377
 6829SOL    HW224850  10.652   3.504   3.065 -0.2374 -1.6141 -0.7988
 6830SOL     OW24851   2.804   4.217   9.576 -0.1104  0.0876  0.2254
 6830SOL    HW124852   2.890   4.176   9.584  0.1800  0.7725  0.6561
 6830SOL    HW224853   2.763   4.203   9.662 -0.1103  0.4697  0.2894
 6831SOL     OW24854   2.329  10.417   9.180  0.0946  0.1425 -0.1131
 6831SOL    HW124855   2.331  10.428   9.085 -0.9251 -1.7439 -0.3973
 6831SOL    HW224856   2.389  10.345   9.198 -0.1971  0.0647  0.6069
 6832SOL     OW24857   4.403  10.629   5.966 -0.1599 -0.1045 -0.2437
 6832SOL    HW124858   4.338  10.585   6.021  0.1966 -0.1594  0.1417
 6832SOL    HW224859   4.371  10.720   5.961 -0.3267 -0.1563 -0.1479
 6833SOL     OW24860   0.456   2.064   0.390 -0.1853  0.4529 -0.3260
 6833SOL    HW124861   0.411   2.126   0.448 -2.1762 -1.2300  0.0615
 6833SOL    HW224862   0.486   1.994   0.449 -0.8681 -0.5136 -1.0814
 6834SOL     OW24863  10.496   6.525   9.776  0.2883 -0.0964 -0.0748
 6834SOL    HW124864  10.443   6.603   9.759 -0.7151 -0.6705  0.3305
 6834SOL    HW224865  10.433   6.459   9.804  1.3339 -0.5451  1.3089
 6835SOL     OW24866  10.842  10.474   7.495 -0.3245  0.1577 -0.6326
 6835SOL    HW124867  10.783  10.508   7.563 -0.6338  1.0287 -1.3251
 6835SOL    HW224868  10.842  10.379   7.510  1.3785  0.4727  1.9952
 6836SOL     OW24869   1.568   3.728   6.576 -0.1985  0.1927  0.4235
 6836SOL    HW124870   1.634   3.706   6.642  0.3533 -0.5004 -0.3426
 6836SOL    HW224871   1.571   3.823   6.569  0.7152  0.1670  0.4059
 6837SOL     OW24872   9.706   2.723   6.805 -0.5148  0.4029  0.5057
 6837SOL    HW124873   9.640   2.656   6.820  0.7322 -0.4452  2.5341
 6837SOL    HW224874   9.678   2.797   6.859 -0.2828  0.3742  0.6656
 6838SOL     OW24875   7.409   4.222   0.619 -0.7899 -0.4619  0.0420
 6838SOL    HW124876   7.438   4.264   0.538 -1.3796  0.5430  0.3314
 6838SOL    HW224877   7.469   4.255   0.686  0.2388 -1.9577 -0.0989
 6839SOL     OW24878   6.421   6.431   7.285  0.3736  0.0596  0.1934
 6839SOL    HW124879   6.345   6.435   7.344 -0.8962  1.1388 -1.4338
 6839SOL    HW224880   6.447   6.522   7.273  1.8071 -0.2826  0.5334
 6840SOL     OW24881   0.100   6.271   1.157  0.8017 -0.0719  0.0217
 6840SOL    HW124882   0.149   6.255   1.076  0.0153  0.7802 -0.6548
 6840SOL    HW224883   0.081   6.184   1.191  0.1652 -0.4970 -1.3399
 6841SOL     OW24884   3.809   3.131   5.076 -0.1264 -0.6079 -0.3465
 6841SOL    HW124885   3.820   3.036   5.080  1.6022 -0.4108  0.6404
 6841SOL    HW224886   3.862   3.165   5.149  1.3895  1.2588 -2.1678
 6842SOL     OW24887   6.400   6.069   1.869 -0.0409  0.4086 -0.2781
 6842SOL    HW124888   6.352   6.090   1.949 -0.7915  0.8773 -0.8406
 6842SOL    HW224889   6.372   5.981   1.846  1.6454 -0.5359  1.0146
 6843SOL     OW24890   5.687   6.306   9.988 -0.0848  0.1389  0.0331
 6843SOL    HW124891   5.778   6.315  10.017 -0.2497 -0.2979  0.7342
 6843SOL    HW224892   5.693   6.264   9.902  0.4912  2.9316 -1.3983
 6844SOL     OW24893   7.432   0.901   6.228 -0.1847  0.2528 -0.1179
 6844SOL    HW124894   7.374   0.877   6.155 -0.4928 -0.3760  0.3292
 6844SOL    HW224895   7.520   0.903   6.188 -0.0637 -2.1250 -0.0970
 6845SOL     OW24896   6.466   5.787   0.965  0.2516 -0.3750  0.2841
 6845SOL    HW124897   6.397   5.726   0.938  0.2195  0.4094 -1.6021
 6845SOL    HW224898   6.526   5.788   0.890  2.3461 -1.0407  1.8650
 6846SOL     OW24899   0.039   5.943   6.987 -0.0410 -0.0911 -0.3765
 6846SOL    HW124900   0.042   6.036   6.965 -0.0527  0.2225  0.8867
 6846SOL    HW224901  -0.003   5.902   6.911 -0.3792  0.9797 -0.7840
 6847SOL     OW24902   6.020   6.777   0.285  0.0209  0.0627  0.2527
 6847SOL    HW124903   5.979   6.768   0.199  0.8338 -1.1748 -0.0385
 6847SOL    HW224904   5.985   6.859   0.320 -1.8441 -0.3948 -0.4192
 6848SOL     OW24905   7.365   2.576   2.682  0.3117 -0.2064 -0.0443
 6848SOL    HW124906   7.282   2.529   2.689  0.0827  0.1832 -0.1604
 6848SOL    HW224907   7.369   2.629   2.761  0.4106 -0.1581 -0.0818
 6849SOL     OW24908   8.141   5.720   3.444  0.3178 -0.1648  0.4219
 6849SOL    HW124909   8.229   5.742   3.412 -0.3266  1.5485 -0.2576
 6849SOL    HW224910   8.127   5.630   3.413  0.9712  0.3316 -1.4398
 6850SOL     OW24911  10.947   0.570  10.357  0.1378  0.3778  0.0059
 6850SOL    HW124912  11.005   0.601  10.288  0.0470 -0.8752 -0.6814
 6850SOL    HW224913  10.870   0.537  10.310  0.3387 -1.0868  0.6255
 6851SOL     OW24914   9.478   7.477   0.212 -0.0659  0.0877 -0.4581
 6851SOL    HW124915   9.428   7.428   0.146  0.3122  0.4987 -1.0585
 6851SOL    HW224916   9.559   7.502   0.167  0.5443 -0.2899  0.4036
 6852SOL     OW24917   7.941   1.549  10.158 -0.0996 -0.0794 -0.0925
 6852SOL    HW124918   8.028   1.519  10.184  0.2347  0.7334 -0.2288
 6852SOL    HW224919   7.887   1.470  10.156  0.4164 -0.4691  0.8606
 6853SOL     OW24920   2.480   5.065   2.902 -0.0571 -0.2221 -0.0446
 6853SOL    HW124921   2.526   5.115   2.835  1.6952 -1.7825 -0.0729
 6853SOL    HW224922   2.401   5.033   2.858 -0.0688  0.6211 -0.6623
 6854SOL     OW24923   7.917   9.571   9.515  0.4405  0.2539 -0.0445
 6854SOL    HW124924   7.968   9.629   9.459  1.5697 -0.3260  0.3455
 6854SOL    HW224925   7.926   9.485   9.473 -1.9847  0.4727 -1.1483
 6855SOL     OW24926   2.941   5.963  10.794  0.5725  0.6330 -0.3441
 6855SOL    HW124927   2.889   5.895  10.751  0.0382 -0.1491  1.4496
 6855SOL    HW224928   3.032   5.934  10.782  0.4054  0.1671 -0.5168
 6856SOL     OW24929   4.570   5.000   1.026  0.0304  0.2711  0.8961
 6856SOL    HW124930   4.666   5.004   1.017 -0.0105 -1.8941 -1.9817
 6856SOL    HW224931   4.537   5.061   0.960 -0.4983 -0.5822  0.3406
 6857SOL     OW24932   4.838   2.361   8.275 -0.4260  0.0843  0.2599
 6857SOL    HW124933   4.802   2.371   8.363 -0.4685  1.1265  0.1400
 6857SOL    HW224934   4.764   2.329   8.223 -0.3785 -0.6162  0.6104
 6858SOL     OW24935   8.477  10.390   5.078 -0.1582  0.7702  0.2647
 6858SOL    HW124936   8.572  10.391   5.071 -0.2049 -1.0235 -1.8857
 6858SOL    HW224937   8.447  10.366   4.990 -2.5183 -0.3668  1.2824
 6859SOL     OW24938   4.256   3.446   9.000 -0.2504  0.2696  0.6241
 6859SOL    HW124939   4.263   3.521   9.059 -3.7192  1.7588 -0.6316
 6859SOL    HW224940   4.342   3.441   8.958  1.2205  1.2386  3.2638
 6860SOL     OW24941   8.726   1.207   4.546 -1.0056  0.3279 -0.4440
 6860SOL    HW124942   8.683   1.245   4.622 -1.7647 -0.5022 -0.4558
 6860SOL    HW224943   8.682   1.248   4.471  0.6121  2.1506 -0.4932
 6861SOL     OW24944   4.939   3.541   9.728 -0.8370 -0.0550  0.0800
 6861SOL    HW124945   4.983   3.624   9.714 -0.6968 -0.2405 -0.6056
 6861SOL    HW224946   4.990   3.498   9.797 -0.8509  0.3763  0.3623
 6862SOL     OW24947   2.801   5.150   9.976  0.3663  0.6907  0.2476
 6862SOL    HW124948   2.811   5.056   9.964  0.1695  0.2348  3.0119
 6862SOL    HW224949   2.746   5.178   9.903 -0.2103 -1.4787 -0.2227
 6863SOL     OW24950   4.698   5.898  10.571  0.7375 -0.6342 -0.4109
 6863SOL    HW124951   4.604   5.880  10.583  0.3919  0.7927 -0.7754
 6863SOL    HW224952   4.704   5.932  10.482  1.1848  1.7194  0.4658
 6864SOL     OW24953   1.216   7.238   6.601 -0.7310 -0.0939  0.4467
 6864SOL    HW124954   1.221   7.145   6.625 -1.5164 -0.9699 -2.3581
 6864SOL    HW224955   1.261   7.244   6.517 -1.3833  1.9221  0.1808
 6865SOL     OW24956   2.178  10.967   4.664  0.0600 -0.4893  0.0507
 6865SOL    HW124957   2.114  10.901   4.692  0.5895 -0.7959  0.5597
 6865SOL    HW224958   2.256  10.917   4.641  0.2483 -0.0892 -0.1971
 6866SOL     OW24959   2.274   9.609   9.627  0.4784  0.2933  0.1850
 6866SOL    HW124960   2.200   9.641   9.679  0.8227  0.9718  0.2705
 6866SOL    HW224961   2.247   9.522   9.597  0.0742  0.1087  1.0749
 6867SOL     OW24962   5.656   4.651   1.555 -0.0470 -0.1176  0.4247
 6867SOL    HW124963   5.586   4.592   1.529 -0.3856  0.2229  0.5491
 6867SOL    HW224964   5.667   4.709   1.480 -0.5545  0.4299  0.7588
 6868SOL     OW24965   3.666   1.891   8.511  0.2648 -0.2742  0.3915
 6868SOL    HW124966   3.743   1.922   8.463  1.4153 -1.4895  1.3669
 6868SOL    HW224967   3.666   1.796   8.497 -0.8874 -0.3312  0.6740
 6869SOL     OW24968   6.724   7.181   6.425 -0.1149 -0.5813 -0.1883
 6869SOL    HW124969   6.643   7.231   6.419  0.9757  1.2845 -0.1806
 6869SOL    HW224970   6.718   7.136   6.509 -2.0134 -2.1812 -1.0982
 6870SOL     OW24971   6.765   4.758   9.464  0.2109  0.1129 -0.2902
 6870SOL    HW124972   6.715   4.791   9.540 -0.0704  0.1715 -0.4961
 6870SOL    HW224973   6.843   4.719   9.502 -0.7797 -1.5272  0.1977
 6871SOL     OW24974   9.124   5.786   5.610  0.0645  0.3738  0.4801
 6871SOL    HW124975   9.163   5.700   5.598  1.1888  0.8802  0.4418
 6871SOL    HW224976   9.082   5.782   5.696 -0.8742 -0.5592  0.0140
 6872SOL     OW24977   6.040   4.928   0.400  0.2506  0.4707  0.4177
 6872SOL    HW124978   6.132   4.947   0.418  0.1153  0.6379  0.9299
 6872SOL    HW224979   6.015   4.993   0.334  0.7836 -0.2431 -0.5218
 6873SOL     OW24980   5.859   2.667   5.252  0.1576  0.1328  0.3232
 6873SOL    HW124981   5.924   2.597   5.258  1.8318  1.3533 -1.9831
 6873SOL    HW224982   5.873   2.719   5.331  1.3766 -0.1585  0.3267
 6874SOL     OW24983   4.545   0.888   5.132  0.0076 -0.0660 -0.0922
 6874SOL    HW124984   4.604   0.946   5.084 -0.0150 -0.8260 -1.0884
 6874SOL    HW224985   4.602   0.841   5.192  0.3420 -0.3893 -0.6496
 6875SOL     OW24986  10.010   4.718   7.980 -0.4723 -0.2348  0.0533
 6875SOL    HW124987   9.969   4.801   7.959 -0.4298 -0.3380 -0.4449
 6875SOL    HW224988   9.948   4.651   7.951 -0.2387 -0.3842 -0.1094
 6876SOL     OW24989   0.672   1.415   5.078  0.2044 -0.6141 -0.4820
 6876SOL    HW124990   0.663   1.372   4.993  1.3874 -0.5752 -0.6361
 6876SOL    HW224991   0.745   1.476   5.067  1.4351 -1.7462  1.0009
 6877SOL     OW24992  11.014   6.542   3.636 -0.7147  0.0190  0.3532
 6877SOL    HW124993  10.993   6.454   3.606  0.6898 -0.1550 -0.1648
 6877SOL    HW224994  11.032   6.591   3.556  1.8652 -0.1372  0.7646
 6878SOL     OW24995  10.898   1.980   8.331 -0.0534  0.6064  0.1446
 6878SOL    HW124996  10.992   1.967   8.341 -0.1027  0.3659  0.3053
 6878SOL    HW224997  10.879   2.059   8.382 -0.1439 -0.0513  1.1398
 6879SOL     OW24998  10.205   4.390   6.837 -0.2247 -0.6289 -0.0280
 6879SOL    HW124999  10.203   4.483   6.813 -0.9520 -0.6232  0.0159
 6879SOL    HW225000  10.248   4.388   6.923  0.1781 -0.3815 -0.2222
 6880SOL     OW25001  10.946   4.035   7.829 -0.1157 -0.7825 -0.6178
 6880SOL    HW125002  10.938   3.944   7.803  2.7588 -1.4013  0.3100
 6880SOL    HW225003  11.002   4.075   7.762  0.6887 -0.3644  0.2733
 6881SOL     OW25004   8.647   3.838   7.138  0.0433 -0.0689 -0.6859
 6881SOL    HW125005   8.677   3.888   7.062 -0.4629  0.0174 -0.8331
 6881SOL    HW225006   8.588   3.897   7.184  3.0534  1.2587  1.8112
 6882SOL     OW25007   4.110   0.533   1.520  0.2507  0.1741  0.4502
 6882SOL    HW125008   4.050   0.578   1.460 -0.3119 -1.0142  0.0882
 6882SOL    HW225009   4.197   0.561   1.492 -0.0725  0.9917  0.2154
 6883SOL     OW25010   0.060   0.552   6.461  0.1585 -0.3107 -0.2194
 6883SOL    HW125011   0.085   0.471   6.416  0.9242  0.3498 -1.0307
 6883SOL    HW225012   0.080   0.536   6.553 -0.0660 -1.1852 -0.3187
 6884SOL     OW25013   7.463   4.428   6.171 -0.0347  0.2706 -0.1184
 6884SOL    HW125014   7.496   4.375   6.243  0.7929 -0.7212 -1.1794
 6884SOL    HW225015   7.401   4.488   6.211  2.0839  1.3345  1.7858
 6885SOL     OW25016  11.002   3.042  10.298 -0.1634 -0.5679 -0.7567
 6885SOL    HW125017  10.945   2.990  10.355 -0.6916  1.3435  0.5511
 6885SOL    HW225018  11.001   2.995  10.214  0.3372 -3.2627  0.6326
 6886SOL     OW25019   7.698   4.953   8.286 -0.5168  0.6621  0.0674
 6886SOL    HW125020   7.665   5.042   8.300 -0.0716  0.6433  1.2965
 6886SOL    HW225021   7.780   4.950   8.334 -0.5996 -0.4568  0.1494
 6887SOL     OW25022   5.762   2.679   8.504  0.5773 -0.4420 -0.4089
 6887SOL    HW125023   5.674   2.641   8.508  1.3319 -2.7000 -2.3939
 6887SOL    HW225024   5.764   2.744   8.574 -3.7398  2.1137 -2.2236
 6888SOL     OW25025   7.606   8.186   5.268  0.0161  0.7352  0.7010
 6888SOL    HW125026   7.667   8.205   5.339  1.0731  2.8476 -0.6494
 6888SOL    HW225027   7.662   8.173   5.191 -1.1536  0.8633 -0.2071
 6889SOL     OW25028   3.788   2.203   3.538  0.4305 -0.5143  0.2264
 6889SOL    HW125029   3.761   2.218   3.447  0.5964 -2.3536 -0.1670
 6889SOL    HW225030   3.880   2.178   3.532  0.3726 -0.9144  0.8566
 6890SOL     OW25031   9.290   7.661   6.889  0.2517  0.2360  0.0156
 6890SOL    HW125032   9.348   7.697   6.823  0.4196  0.9422  0.5389
 6890SOL    HW225033   9.277   7.732   6.951 -0.9824  0.0156  0.0344
 6891SOL     OW25034   2.002   4.009   1.878 -0.2725 -0.0858  0.0132
 6891SOL    HW125035   1.967   4.041   1.795 -2.3144  0.3957  0.9994
 6891SOL    HW225036   1.964   4.067   1.944  1.6327 -0.1845  1.2843
 6892SOL     OW25037   7.648  10.075   7.977 -0.0801  0.3001 -0.4270
 6892SOL    HW125038   7.655  10.086   7.882 -0.7512 -2.5060 -0.9125
 6892SOL    HW225039   7.717  10.012   7.999 -0.4958  0.2470  0.8031
 6893SOL     OW25040   8.746   8.403   6.968 -0.1901  0.8162  0.1215
 6893SOL    HW125041   8.784   8.433   7.050 -0.6140  0.2718  0.5247
 6893SOL    HW225042   8.667   8.356   6.994  0.0478  0.0280 -0.5475
 6894SOL     OW25043   4.845   3.218   7.051  0.2875 -0.2247 -0.3964
 6894SOL    HW125044   4.751   3.228   7.035 -0.0735  0.7332  1.8250
 6894SOL    HW225045   4.885   3.289   7.002 -0.5522  1.4816  1.2207
 6895SOL     OW25046   8.155   4.527   0.166  0.3754  0.3671 -0.1336
 6895SOL    HW125047   8.186   4.471   0.095  0.7988 -1.6931  1.5697
 6895SOL    HW225048   8.067   4.553   0.139  0.1873 -1.0884 -1.0463
 6896SOL     OW25049   5.542   5.527   2.445  0.2272  0.2165 -0.2804
 6896SOL    HW125050   5.452   5.500   2.425  0.4521 -1.4764  0.7521
 6896SOL    HW225051   5.532   5.610   2.492 -0.9096 -0.4720  0.7845
 6897SOL     OW25052  10.020  10.044   7.042 -0.4998 -0.4333 -0.1036
 6897SOL    HW125053  10.049  10.094   7.118  0.7793 -0.5242 -0.5216
 6897SOL    HW225054  10.024   9.952   7.070 -3.5922 -0.3835  0.9317
 6898SOL     OW25055   0.686   6.216   8.072 -0.2508  0.3859  0.4581
 6898SOL    HW125056   0.645   6.296   8.040  0.6311  0.9367  0.6711
 6898SOL    HW225057   0.717   6.172   7.993  1.8649  1.7123  0.4542
 6899SOL     OW25058   7.298   6.973   4.616  0.5074 -0.1541 -0.0907
 6899SOL    HW125059   7.325   6.974   4.708  1.1333  1.2833 -0.2695
 6899SOL    HW225060   7.216   7.022   4.614  0.2533 -0.5770 -0.2436
 6900SOL     OW25061   1.300   7.519   9.076 -0.1785  0.4102  0.6616
 6900SOL    HW125062   1.317   7.440   9.128 -1.5718 -0.1497  0.3032
 6900SOL    HW225063   1.340   7.589   9.127  0.2602 -0.4025  1.4704
 6901SOL     OW25064   6.676   4.494   3.069  0.8285 -0.5782  0.0667
 6901SOL    HW125065   6.729   4.551   3.013  2.2790 -3.4814 -1.7640
 6901SOL    HW225066   6.731   4.418   3.086 -1.6518 -2.3827  0.6929
 6902SOL     OW25067   8.402   6.103   1.295 -0.0273 -0.3638  0.1546
 6902SOL    HW125068   8.418   6.120   1.388  2.8907 -2.7128  0.2479
 6902SOL    HW225069   8.465   6.158   1.249  0.3423 -1.0788 -0.2279
 6903SOL     OW25070   0.160   1.377   5.244  0.3872  0.1339  0.0948
 6903SOL    HW125071   0.111   1.457   5.228  1.2228  1.0114  1.7482
 6903SOL    HW225072   0.100   1.322   5.295 -0.6344 -0.8711 -2.0175
 6904SOL     OW25073   6.692   0.562   5.596  0.3745 -0.0088  0.0359
 6904SOL    HW125074   6.714   0.481   5.550  1.6690  0.3823 -0.0781
 6904SOL    HW225075   6.706   0.631   5.531 -2.1400  0.2557 -0.3426
 6905SOL     OW25076   8.073   5.087   9.693  0.4115  0.1098 -0.2623
 6905SOL    HW125077   8.001   5.091   9.756  0.7472  0.1063  0.1214
 6905SOL    HW225078   8.123   5.167   9.710  2.1160 -1.2350  1.4146
 6906SOL     OW25079   0.156  10.977   2.054  0.5899  0.6403 -0.2597
 6906SOL    HW125080   0.208  10.936   2.123 -1.2344 -1.4303 -0.0249
 6906SOL    HW225081   0.090  10.912   2.031 -1.4660  2.8402 -1.0296
 6907SOL     OW25082   7.034   0.743  10.137 -0.1653  0.0066 -0.2556
 6907SOL    HW125083   6.961   0.731  10.076 -1.5460 -0.4869  1.4190
 6907SOL    HW225084   6.995   0.788  10.212  1.2916 -0.1431  0.6227
 6908SOL     OW25085   1.417   3.596   5.374 -0.2361  0.0527  0.7898
 6908SOL    HW125086   1.457   3.604   5.460 -0.6563  0.0558  0.9858
 6908SOL    HW225087   1.451   3.512   5.340  0.1321  0.1755  0.8466
 6909SOL     OW25088   0.055   5.032   0.839 -0.5021 -0.0129 -0.4853
 6909SOL    HW125089   0.018   5.022   0.927 -1.3895  1.1562 -0.7012
 6909SOL    HW225090   0.005   5.103   0.800  0.5638  0.1650 -1.5851
 6910SOL     OW25091   0.067   5.187   8.445  0.1791 -0.0453  0.1477
 6910SOL    HW125092   0.119   5.118   8.486 -0.7958 -0.6237  0.4221
 6910SOL    HW225093   0.132   5.252   8.417  1.1831 -1.4542 -0.9075
 6911SOL     OW25094   5.087   5.155   3.439  0.6006  0.1521  0.1966
 6911SOL    HW125095   5.111   5.102   3.363  0.4156  1.5197 -0.8579
 6911SOL    HW225096   5.074   5.092   3.509  1.4666 -1.0995 -0.7214
 6912SOL     OW25097   7.858   1.428   7.290  0.0499 -0.3719  0.6519
 6912SOL    HW125098   7.814   1.423   7.375 -0.5882 -2.0635  0.2596
 6912SOL    HW225099   7.810   1.367   7.234  0.7773  0.3223 -0.7904
 6913SOL     OW25100   9.884   0.963   7.742  0.0177  0.4976 -0.1476
 6913SOL    HW125101   9.891   0.901   7.670 -0.1301  0.7747 -0.4072
 6913SOL    HW225102   9.799   1.006   7.729  0.4307  1.2688 -0.3995
 6914SOL     OW25103   2.828   7.276   6.231 -0.1515 -0.0106 -0.5081
 6914SOL    HW125104   2.788   7.198   6.192 -1.2457  0.3641 -0.1682
 6914SOL    HW225105   2.816   7.266   6.325 -1.2844  1.0519 -0.5053
 6915SOL     OW25106   3.018   9.744   5.698  0.0910 -0.0126  0.1145
 6915SOL    HW125107   2.984   9.680   5.635 -0.7186 -1.2273  1.6807
 6915SOL    HW225108   3.109   9.758   5.672 -0.6364  0.7786 -2.2446
 6916SOL     OW25109   6.636   2.194   7.027 -0.4887 -0.1921  0.2698
 6916SOL    HW125110   6.700   2.131   7.063  1.2849  1.5408  0.3052
 6916SOL    HW225111   6.580   2.140   6.970  2.3394 -1.5390 -1.5001
 6917SOL     OW25112   7.246   9.362  10.862 -0.0008 -0.3944  0.3198
 6917SOL    HW125113   7.307   9.417  10.912 -0.6956 -0.8804  1.7572
 6917SOL    HW225114   7.254   9.276  10.902 -1.5657 -0.4848  0.4963
 6918SOL     OW25115   9.600   1.489   0.995  0.4690 -0.1756 -0.0751
 6918SOL    HW125116   9.628   1.468   0.906 -0.5642 -0.0726 -0.4415
 6918SOL    HW225117   9.512   1.525   0.984  0.6216  0.5471  0.9216
 6919SOL     OW25118   9.461   2.028   1.239 -0.3350 -0.4243  0.1041
 6919SOL    HW125119   9.495   2.093   1.300 -1.2448 -0.4184  0.6194
 6919SOL    HW225120   9.377   2.063   1.209 -1.1601 -1.6302  0.8857
 6920SOL     OW25121  10.754  10.078   4.888 -0.3185  0.1830 -0.1243
 6920SOL    HW125122  10.713  10.089   4.803  1.2910  0.6217 -0.8929
 6920SOL    HW225123  10.732   9.988   4.914 -1.8100  0.4486 -0.4312
 6921SOL     OW25124   7.396  10.714  11.013 -0.6053 -0.0260 -0.0581
 6921SOL    HW125125   7.362  10.741  10.927 -0.1646  0.2378 -0.1533
 6921SOL    HW225126   7.454  10.641  10.994 -0.0397  0.4169 -0.0552
 6922SOL     OW25127   4.824   7.841   7.085  0.2322  0.0469  0.1155
 6922SOL    HW125128   4.831   7.760   7.136  0.6994  0.3253  0.5099
 6922SOL    HW225129   4.743   7.832   7.036  0.7342 -1.0638 -0.5495
 6923SOL     OW25130   4.165   8.485   8.346 -0.2294 -0.5345  0.3230
 6923SOL    HW125131   4.098   8.511   8.283  0.7649 -0.5206 -0.7754
 6923SOL    HW225132   4.233   8.552   8.338  1.6480 -2.4909 -1.4126
 6924SOL     OW25133   1.736   3.542   1.252  0.0894 -0.1907 -0.0497
 6924SOL    HW125134   1.751   3.480   1.324  0.0168 -0.9786 -0.7013
 6924SOL    HW225135   1.712   3.624   1.296 -2.6040 -1.3274  0.8040
 6925SOL     OW25136   7.767   5.796  10.251 -0.9501  0.2219  0.3006
 6925SOL    HW125137   7.700   5.786  10.184 -0.6398  1.2999 -0.1826
 6925SOL    HW225138   7.845   5.757  10.214 -0.7259  0.9979 -0.0575
 6926SOL     OW25139   9.371   6.605   8.369 -0.1731  0.0233 -0.5868
 6926SOL    HW125140   9.309   6.647   8.428  3.5890  1.5048  2.7761
 6926SOL    HW225141   9.420   6.677   8.330  0.2721 -1.0959 -2.2192
 6927SOL     OW25142   4.435   5.962   2.192 -0.4812 -0.2622  0.1689
 6927SOL    HW125143   4.443   6.031   2.126 -1.6683 -0.1848  0.0818
 6927SOL    HW225144   4.341   5.954   2.208 -0.2822 -0.9432  1.1597
 6928SOL     OW25145   1.806  10.622   2.110  0.0037  0.5296  0.3121
 6928SOL    HW125146   1.826  10.578   2.192 -0.0069 -0.6999 -0.3222
 6928SOL    HW225147   1.874  10.689   2.101  1.9020 -1.3549 -0.1635
 6929SOL     OW25148   8.860  10.897   0.046  0.3084 -0.6362 -1.0686
 6929SOL    HW125149   8.938  10.899   0.101  1.4940  0.5201 -2.7066
 6929SOL    HW225150   8.852  10.805   0.019 -0.2275 -1.1924  0.8654
 6930SOL     OW25151   9.688  10.203   1.318  0.0335 -0.2982  0.2728
 6930SOL    HW125152   9.743  10.134   1.356  0.6769  1.4936  2.8201
 6930SOL    HW225153   9.598  10.174   1.332  0.2917 -1.2395  0.0256
 6931SOL     OW25154  10.742   5.213   3.897  0.1047  0.2717 -0.1152
 6931SOL    HW125155  10.798   5.177   3.965  0.0595  1.0552  0.3555
 6931SOL    HW225156  10.752   5.154   3.823  0.7756 -0.1452  0.3030
 6932SOL     OW25157   2.287   7.956   6.568  0.3712 -0.0437 -0.2046
 6932SOL    HW125158   2.350   7.972   6.638  1.0087  0.8900 -0.9627
 6932SOL    HW225159   2.304   7.866   6.541  0.5556 -0.1967  0.4039
 6933SOL     OW25160   2.679   8.889   8.446 -0.5044  0.2705  0.2975
 6933SOL    HW125161   2.687   8.815   8.386 -2.4417  0.6050 -0.4434
 6933SOL    HW225162   2.686   8.851   8.533  0.3598 -0.4935 -0.0903
 6934SOL     OW25163   6.943   5.940   9.717 -0.1953 -0.3286  0.7245
 6934SOL    HW125164   7.028   5.902   9.740 -1.0322 -2.5908  0.3513
 6934SOL    HW225165   6.887   5.917   9.791 -1.3325 -2.0699 -0.6159
 6935SOL     OW25166   0.828   6.516   0.621 -0.0582  0.2829  0.2566
 6935SOL    HW125167   0.765   6.447   0.641 -1.7144  2.2014  2.2179
 6935SOL    HW225168   0.788   6.596   0.655  2.1387  2.1087 -1.1195
 6936SOL     OW25169   8.187   7.197   0.011  0.7663 -0.6108 -0.2170
 6936SOL    HW125170   8.251   7.188   0.081  1.2425  0.2115 -0.5316
 6936SOL    HW225171   8.171   7.291   0.006 -0.8062 -0.8292  0.1522
 6937SOL     OW25172   2.348   8.102   0.151  0.2665 -0.5652  0.0202
 6937SOL    HW125173   2.417   8.093   0.217  1.0645  1.1809 -0.5039
 6937SOL    HW225174   2.298   8.021   0.157 -0.2068 -0.1860  3.3264
 6938SOL     OW25175   8.325   4.778   3.861  0.0471 -0.2146 -0.2444
 6938SOL    HW125176   8.282   4.731   3.789  0.4559 -0.1757 -0.5165
 6938SOL    HW225177   8.268   4.853   3.878  0.8985  0.8412 -1.8164
 6939SOL     OW25178   4.288   1.035   3.871  0.1192 -0.2864 -0.5171
 6939SOL    HW125179   4.357   1.011   3.933 -0.9008 -1.3615  0.2386
 6939SOL    HW225180   4.270   0.954   3.822 -0.8852 -0.1345 -0.4196
 6940SOL     OW25181   4.454   7.295   2.249 -0.4078  0.5123 -0.5173
 6940SOL    HW125182   4.473   7.314   2.342  0.1776  0.7500 -0.6768
 6940SOL    HW225183   4.483   7.205   2.237 -0.9860  0.3047 -0.3350
 6941SOL     OW25184   5.166   3.805   3.342 -0.1701  0.0445 -0.0979
 6941SOL    HW125185   5.148   3.768   3.256 -1.8086 -1.2121  0.7127
 6941SOL    HW225186   5.081   3.803   3.386  0.9153 -0.8940  2.1008
 6942SOL     OW25187   1.871   9.907   1.912  0.3367  0.4367 -0.2369
 6942SOL    HW125188   1.885   9.925   1.819  1.0992  1.3284  0.0404
 6942SOL    HW225189   1.958   9.912   1.951 -0.1708  1.8006  0.8020
 6943SOL     OW25190   2.808   0.474   8.379 -0.3242 -0.0689 -0.1095
 6943SOL    HW125191   2.833   0.495   8.289 -2.1477 -0.4271 -0.7387
 6943SOL    HW225192   2.863   0.531   8.433 -0.1813  1.1580 -1.4913
 6944SOL     OW25193   5.884   7.528   0.630 -0.3523  0.8224  0.3768
 6944SOL    HW125194   5.828   7.451   0.626  0.0488  0.5226  0.3908
 6944SOL    HW225195   5.877   7.559   0.720  0.4873  0.0326  0.7284
 6945SOL     OW25196   2.449   5.128   5.185 -0.0233  0.1552 -0.0582
 6945SOL    HW125197   2.454   5.202   5.125 -1.1240  1.3420  1.2470
 6945SOL    HW225198   2.356   5.107   5.190  0.2939 -1.5409 -0.6292
 6946SOL     OW25199   4.397   4.308   6.510  0.0280  0.2986  0.3642
 6946SOL    HW125200   4.471   4.264   6.469  0.2445 -0.6387  1.6911
 6946SOL    HW225201   4.436   4.369   6.572 -0.3004  0.5862  0.2949
 6947SOL     OW25202  10.306   9.449   9.236 -0.0372  0.1984  0.1455
 6947SOL    HW125203  10.274   9.375   9.186 -0.1746  1.2155 -1.3298
 6947SOL    HW225204  10.302   9.523   9.176  0.8482  1.2598  1.3205
 6948SOL     OW25205   2.017   1.576   6.887  0.2460  0.1967 -0.2932
 6948SOL    HW125206   2.011   1.671   6.896 -0.3126  0.0994  0.4796
 6948SOL    HW225207   1.938   1.551   6.839 -0.5176 -0.0417  1.0338
 6949SOL     OW25208   0.983   8.042   7.871  0.4614 -0.2843  0.4319
 6949SOL    HW125209   0.978   8.121   7.818  1.1570 -0.4967  0.0364
 6949SOL    HW225210   1.047   8.063   7.939 -0.5244  0.0348  1.2845
 6950SOL     OW25211   9.645   6.355   7.187 -0.0214 -0.6247  0.1320
 6950SOL    HW125212   9.703   6.427   7.212  0.8339 -1.0847 -0.4948
 6950SOL    HW225213   9.560   6.397   7.172  0.3744  0.1996  0.1530
 6951SOL     OW25214  10.045   9.874   6.504  0.1191 -0.3283  0.4784
 6951SOL    HW125215   9.967   9.930   6.506 -0.4442 -1.1093  0.6391
 6951SOL    HW225216  10.117   9.933   6.527 -0.4073  0.4154  0.2722
 6952SOL     OW25217   6.720   3.954   3.644  0.0077  0.1600  0.0629
 6952SOL    HW125218   6.643   3.898   3.657  0.5054 -0.4625  0.3962
 6952SOL    HW225219   6.726   3.965   3.549 -1.5597  1.7503  0.1033
 6953SOL     OW25220   4.020   9.714   4.935  0.0626  0.1444 -0.1903
 6953SOL    HW125221   4.003   9.638   4.991  0.8401 -0.6219 -0.9591
 6953SOL    HW225222   4.102   9.693   4.890  0.3795  1.5127 -0.3106
 6954SOL     OW25223   4.544   3.819  10.991  0.2808 -0.0900  0.1285
 6954SOL    HW125224   4.618   3.879  10.985  1.1187 -0.7792  2.3952
 6954SOL    HW225225   4.572   3.742  10.941 -0.3855  0.9538 -1.9334
 6955SOL     OW25226   0.053   9.626   0.049  0.2948 -0.3898 -0.5091
 6955SOL    HW125227   0.119   9.692   0.028  0.4586 -0.0698  0.8853
 6955SOL    HW225228   0.062   9.613   0.144  1.0845 -3.2924 -0.8788
 6956SOL     OW25229   3.492   1.699   4.158 -0.2961  0.6176  0.1043
 6956SOL    HW125230   3.542   1.689   4.077  0.3237 -1.5203  0.6781
 6956SOL    HW225231   3.518   1.785   4.192  2.4389 -0.0577 -0.0390
 6957SOL     OW25232   1.837   6.451   1.718 -0.5150  0.2350 -0.2244
 6957SOL    HW125233   1.922   6.481   1.685  1.1468 -0.4359  3.0704
 6957SOL    HW225234   1.782   6.530   1.717  0.0065  0.6429 -2.5628
 6958SOL     OW25235   9.023  10.898   2.059 -0.2111  0.0446 -0.7103
 6958SOL    HW125236   9.104  10.949   2.050  0.9939 -1.1381  2.0560
 6958SOL    HW225237   9.053  10.807   2.065 -2.0033 -0.6879 -1.9650
 6959SOL     OW25238  10.345   6.487   8.217 -0.3075  0.2412  0.6064
 6959SOL    HW125239  10.315   6.397   8.212  1.0781 -0.1717 -1.3493
 6959SOL    HW225240  10.421   6.484   8.275 -0.7092  0.3196  1.1506
 6960SOL     OW25241  10.960   4.892   1.508 -0.1327 -0.0537  0.2688
 6960SOL    HW125242  11.030   4.930   1.561 -0.2721 -1.3987  1.4963
 6960SOL    HW225243  10.912   4.836   1.569 -2.1518  0.6357 -0.5790
 6961SOL     OW25244   4.516   7.177   6.481  0.0907  0.2730  0.0876
 6961SOL    HW125245   4.421   7.187   6.486  0.0415  0.2938 -0.7723
 6961SOL    HW225246   4.550   7.247   6.537 -0.3949  0.4996  0.1068
 6962SOL     OW25247  10.392   6.101   2.896 -0.5830 -0.0878  0.0141
 6962SOL    HW125248  10.428   6.136   2.815 -0.6386 -0.0362  0.0115
 6962SOL    HW225249  10.297   6.099   2.881 -0.4541 -2.5885 -0.9465
 6963SOL     OW25250   7.683   9.476   3.356 -0.2463  0.5400 -0.2575
 6963SOL    HW125251   7.775   9.486   3.332  0.1674  1.1779  1.4701
 6963SOL    HW225252   7.660   9.560   3.396 -1.6348  0.4346 -0.7704
 6964SOL     OW25253   8.701   9.269   7.361  0.7461  0.6089  0.5160
 6964SOL    HW125254   8.728   9.221   7.283  0.2688  2.8949 -1.1422
 6964SOL    HW225255   8.605   9.266   7.360  0.7290  0.8288  0.8978
 6965SOL     OW25256  10.239   0.213   3.936  0.8997 -0.2277  0.0514
 6965SOL    HW125257  10.284   0.292   3.906  1.5730 -0.9350 -0.8612
 6965SOL    HW225258  10.244   0.152   3.862 -1.5420 -0.3683 -0.0966
 6966SOL     OW25259   5.948   8.126  10.428  0.4421  0.0877 -0.6184
 6966SOL    HW125260   5.884   8.121  10.499  1.4444  2.5076  0.5994
 6966SOL    HW225261   5.900   8.163  10.354 -0.0379 -0.0111 -0.3545
 6967SOL     OW25262   1.331   0.760  10.373 -0.5384  0.7264 -0.6160
 6967SOL    HW125263   1.238   0.740  10.362 -0.8280  2.4217 -1.5139
 6967SOL    HW225264   1.376   0.688  10.329 -1.4264  0.1061 -0.5436
 6968SOL     OW25265   9.500   9.007   7.138 -0.4159 -0.3787  0.3195
 6968SOL    HW125266   9.517   9.082   7.195  1.0213 -0.1708 -0.3543
 6968SOL    HW225267   9.582   8.958   7.137 -0.4652 -0.4783 -1.4133
 6969SOL     OW25268  10.872   8.925   8.212  0.3699  0.9293 -0.5307
 6969SOL    HW125269  10.779   8.908   8.222  0.7341 -1.0783 -0.0532
 6969SOL    HW225270  10.897   8.878   8.133  0.8875  1.9346 -0.9841
 6970SOL     OW25271   2.033   7.225   6.307  0.0610 -0.0238 -0.2572
 6970SOL    HW125272   2.053   7.208   6.399 -0.3837  1.5852  0.1735
 6970SOL    HW225273   2.099   7.290   6.280 -1.2125  1.2681 -0.3720
 6971SOL     OW25274   5.423   6.754   0.641  0.7112 -0.5843 -0.2490
 6971SOL    HW125275   5.397   6.837   0.681  0.8682 -0.5183 -0.2858
 6971SOL    HW225276   5.340   6.710   0.622  0.5709 -1.8772  2.7452
 6972SOL     OW25277   5.385   6.784   6.474  0.0917 -0.6293 -0.5612
 6972SOL    HW125278   5.329   6.861   6.480 -0.0907 -0.7538 -0.6731
 6972SOL    HW225279   5.465   6.809   6.522  0.8599  0.3533 -2.2817
 6973SOL     OW25280   7.258   6.794   5.381 -0.0262  0.7102 -0.0765
 6973SOL    HW125281   7.219   6.812   5.467  0.2734  0.1238  0.1909
 6973SOL    HW225282   7.350   6.821   5.391  0.1942 -0.0603  0.0306
 6974SOL     OW25283   6.770   5.433   1.660 -0.3341  0.2928 -0.1300
 6974SOL    HW125284   6.775   5.472   1.572  0.8357  0.9577  0.2090
 6974SOL    HW225285   6.679   5.447   1.686 -0.0651  2.6223 -0.1535
 6975SOL     OW25286   7.462   1.371   4.106  0.0674 -0.8544  0.2877
 6975SOL    HW125287   7.469   1.396   4.199  2.1390  1.9126 -0.4436
 6975SOL    HW225288   7.523   1.298   4.097  2.4731  0.9860  0.6010
 6976SOL     OW25289   5.714   0.922   3.013  0.1429  0.0484  0.2265
 6976SOL    HW125290   5.693   0.866   2.938 -0.2477 -1.5054  1.4245
 6976SOL    HW225291   5.791   0.881   3.053 -0.7353 -0.2613  1.6898
 6977SOL     OW25292   4.451   6.631   8.873 -0.1072  0.1431  0.2469
 6977SOL    HW125293   4.452   6.539   8.847 -0.7021  0.5628 -1.3634
 6977SOL    HW225294   4.460   6.628   8.969  0.3162 -1.5555  0.1955
 6978SOL     OW25295   5.337   8.843   7.974 -0.0796  0.3084 -0.5319
 6978SOL    HW125296   5.310   8.880   8.058  1.2766  1.1180 -0.4382
 6978SOL    HW225297   5.323   8.913   7.911 -1.5520 -0.4514 -1.1003
 6979SOL     OW25298   3.591  10.363   4.855  0.1208 -0.7184 -0.7691
 6979SOL    HW125299   3.561  10.329   4.771 -0.5424  0.4407 -1.0243
 6979SOL    HW225300   3.511  10.371   4.907  0.0236  1.5236 -1.1352
 6980SOL     OW25301   4.145   5.840   0.312 -0.2890 -0.6446  0.1734
 6980SOL    HW125302   4.236   5.825   0.336 -0.3527 -1.7924 -0.2053
 6980SOL    HW225303   4.121   5.762   0.261 -1.6655 -0.6658  0.8077
 6981SOL     OW25304   7.850   3.484   8.740 -0.1517 -0.0098 -0.5567
 6981SOL    HW125305   7.782   3.492   8.673 -2.1335 -0.1925  1.3038
 6981SOL    HW225306   7.808   3.436   8.811  2.4798 -1.6083  0.0697
 6982SOL     OW25307   8.837   9.977   5.886 -0.2176 -1.0299  0.2097
 6982SOL    HW125308   8.822  10.049   5.824  1.1913 -1.2674 -0.4486
 6982SOL    HW225309   8.776   9.909   5.859 -1.5097 -0.1407  0.7840
 6983SOL     OW25310   4.517   1.948   1.271  0.3536 -0.1263 -0.0827
 6983SOL    HW125311   4.491   1.963   1.361 -0.3854 -0.6326 -0.2057
 6983SOL    HW225312   4.480   1.863   1.249  1.4115 -0.4945 -0.5330
 6984SOL     OW25313   6.415   1.023   4.750 -0.0233 -0.0324  0.2562
 6984SOL    HW125314   6.500   1.061   4.729 -0.8090  0.7190 -1.8410
 6984SOL    HW225315   6.396   1.054   4.838  0.5976  2.2717 -0.3442
 6985SOL     OW25316   8.056  10.899   5.637 -0.0070  0.0052 -0.6556
 6985SOL    HW125317   8.151  10.910   5.641 -0.1424  1.3983 -0.6594
 6985SOL    HW225318   8.038  10.828   5.699  1.0968 -0.8597 -1.2707
 6986SOL     OW25319   8.958   8.198   2.360 -0.4015 -0.5055  0.7560
 6986SOL    HW125320   8.956   8.292   2.340 -1.0281 -0.4865  0.8885
 6986SOL    HW225321   8.905   8.190   2.440 -0.0049 -0.9177  0.9798
 6987SOL     OW25322   4.307   9.776   0.962 -0.6026  0.3610  0.2414
 6987SOL    HW125323   4.287   9.854   1.013  0.6853  1.5676 -0.9945
 6987SOL    HW225324   4.264   9.790   0.878 -1.4209 -0.8802  0.4225
 6988SOL     OW25325   3.539   4.090   5.640 -0.9443  0.4155 -0.0592
 6988SOL    HW125326   3.559   4.133   5.722 -0.0782 -0.7076  0.3425
 6988SOL    HW225327   3.582   4.144   5.573 -1.5644  1.2687  0.2084
 6989SOL     OW25328   5.591   4.736   3.701 -0.1720  0.4836 -0.2900
 6989SOL    HW125329   5.588   4.814   3.757  1.6580 -0.4816  1.2572
 6989SOL    HW225330   5.546   4.669   3.752 -0.1795  0.0698 -0.8352
 6990SOL     OW25331  10.311   1.186   8.076 -0.6587  0.3631 -0.1445
 6990SOL    HW125332  10.234   1.155   8.029 -0.0001 -2.1440  0.2686
 6990SOL    HW225333  10.372   1.113   8.072  1.4304  1.9875  0.1981
 6991SOL     OW25334   6.684   8.326  10.261  0.0509  0.0249  0.0675
 6991SOL    HW125335   6.668   8.310  10.354 -0.0638 -1.4840 -0.1952
 6991SOL    HW225336   6.607   8.290  10.217  2.1606 -3.7196 -0.9331
 6992SOL     OW25337  10.032   0.518  10.084 -0.2604 -0.6405  0.4441
 6992SOL    HW125338  10.111   0.570  10.095  0.3049 -1.9412  3.1108
 6992SOL    HW225339   9.970   0.578  10.042  0.8150  1.7200  2.0499
 6993SOL     OW25340   3.633   7.594  10.716  0.4914  0.1124 -0.2922
 6993SOL    HW125341   3.599   7.640  10.793 -0.8350  0.1613 -0.8693
 6993SOL    HW225342   3.683   7.521  10.752  0.0177  0.2201  0.6274
 6994SOL     OW25343   2.068   0.408   6.136  0.3535 -0.1749  0.0928
 6994SOL    HW125344   2.162   0.421   6.127  0.4566 -0.9907 -0.1228
 6994SOL    HW225345   2.032   0.440   6.053  0.6296 -1.4549 -0.5505
 6995SOL     OW25346   4.925   7.143  10.198 -0.6554  0.0668 -0.5767
 6995SOL    HW125347   4.869   7.123  10.273  0.0235 -0.7917 -0.2850
 6995SOL    HW225348   4.884   7.220  10.158 -1.5499 -0.0219  0.1259
 6996SOL     OW25349   0.925   0.492   1.670  0.4148  0.4256 -0.1061
 6996SOL    HW125350   0.885   0.486   1.757 -0.0043  1.3432 -0.2245
 6996SOL    HW225351   1.005   0.439   1.677 -0.5172 -0.9733  0.2951
 6997SOL     OW25352  10.489   8.645   7.324 -0.4133  0.1252  0.0126
 6997SOL    HW125353  10.438   8.724   7.309 -0.4293 -0.2125 -2.1003
 6997SOL    HW225354  10.424   8.575   7.327 -0.2670 -0.0083  0.0824
 6998SOL     OW25355   2.679   0.126   5.006 -0.5546 -0.3206 -0.4631
 6998SOL    HW125356   2.715   0.214   4.989  0.0152 -0.7295 -1.4099
 6998SOL    HW225357   2.591   0.143   5.041 -0.7474  0.6065 -1.3502
 6999SOL     OW25358   2.262   0.645   6.660  0.0130 -0.3377  0.5148
 6999SOL    HW125359   2.233   0.694   6.584 -0.4089 -0.7473  0.4102
 6999SOL    HW225360   2.195   0.577   6.673  1.1631 -1.6257 -0.0457
 7000SOL     OW25361   5.834   4.994   6.007  0.1305  0.0056 -0.2779
 7000SOL    HW125362   5.742   5.016   6.019  0.0429 -0.2211 -0.5122
 7000SOL    HW225363   5.865   5.056   5.941  0.0371 -0.1785 -0.4990
 7001SOL     OW25364   0.636   7.636   8.331  0.3077  0.3994  0.4308
 7001SOL    HW125365   0.573   7.609   8.398 -0.7625 -0.2596 -0.8169
 7001SOL    HW225366   0.666   7.554   8.292  1.2949  0.7537  0.4085
 7002SOL     OW25367   4.722   4.003   3.369 -0.7049 -0.0117 -0.1642
 7002SOL    HW125368   4.778   3.943   3.419 -1.1575 -1.2937 -1.1350
 7002SOL    HW225369   4.714   4.080   3.425 -0.6795 -1.1375  1.4846
 7003SOL     OW25370   8.794   5.580   1.482 -0.2919  0.1214 -0.2455
 7003SOL    HW125371   8.879   5.541   1.503 -1.2009 -1.1933  1.2798
 7003SOL    HW225372   8.731   5.512   1.506 -1.7961  1.2356 -0.9286
 7004SOL     OW25373   6.314   2.145   6.678 -0.4937  0.1859  0.4458
 7004SOL    HW125374   6.363   2.118   6.755  1.4040  2.1274  0.0188
 7004SOL    HW225375   6.336   2.238   6.666  0.7995 -0.4425 -3.4413
 7005SOL     OW25376   4.515   1.905   6.843  0.3885  0.1061  0.2831
 7005SOL    HW125377   4.594   1.851   6.852  0.7927  0.3657 -1.4026
 7005SOL    HW225378   4.443   1.845   6.863  0.7500 -1.4872 -2.6289
 7006SOL     OW25379   6.516   3.297  11.066 -0.2006 -0.0064  0.0108
 7006SOL    HW125380   6.497   3.336  10.980 -1.0760 -0.4713 -0.0220
 7006SOL    HW225381   6.577   3.226  11.047  0.4074  0.5318 -0.0890
 7007SOL     OW25382   3.702   0.751   7.018  0.1453 -0.0749  0.6142
 7007SOL    HW125383   3.686   0.658   7.008 -1.1370  0.1464  0.4773
 7007SOL    HW225384   3.770   0.757   7.086 -0.3544 -1.0751  1.2172
 7008SOL     OW25385   3.305   6.000   4.804  0.1731  0.0316  0.3131
 7008SOL    HW125386   3.376   5.938   4.784 -0.4572 -0.4386 -0.5624
 7008SOL    HW225387   3.313   6.068   4.737 -1.5953 -1.2455 -1.3177
 7009SOL     OW25388   2.177   7.456   2.813  0.2473 -0.0625  0.4213
 7009SOL    HW125389   2.184   7.546   2.783  2.5981 -0.2748  0.1320
 7009SOL    HW225390   2.213   7.457   2.902 -0.2937 -0.6309  0.6595
 7010SOL     OW25391   2.631   7.405   8.124 -0.0154  0.2208  0.4693
 7010SOL    HW125392   2.707   7.463   8.122  0.7183 -0.7207  0.3397
 7010SOL    HW225393   2.651   7.337   8.060 -1.1030  0.1134  0.2236
 7011SOL     OW25394   9.576   1.028   5.836  0.1665  0.4789  0.4515
 7011SOL    HW125395   9.662   1.036   5.795 -0.0724  0.7088 -0.0251
 7011SOL    HW225396   9.567   0.935   5.854  1.1741  0.6566  1.9953
 7012SOL     OW25397   5.131   0.565   6.503  0.4552  0.1153 -0.2612
 7012SOL    HW125398   5.160   0.614   6.426 -0.8269 -0.8509 -1.4055
 7012SOL    HW225399   5.061   0.509   6.470 -0.6995  0.2709  1.7873
 7013SOL     OW25400   1.185   9.712   7.672 -0.3703 -0.2037 -0.6475
 7013SOL    HW125401   1.270   9.750   7.694  1.3716 -4.2304  0.4012
 7013SOL    HW225402   1.187   9.702   7.577 -1.4128  3.0886 -1.1541
 7014SOL     OW25403   4.281   3.252   1.363  0.0206 -0.4913 -0.1928
 7014SOL    HW125404   4.286   3.156   1.368  0.6856 -0.4205  0.8968
 7014SOL    HW225405   4.294   3.281   1.453  0.3616  0.6540 -0.5971
 7015SOL     OW25406  11.045   7.896   0.061  0.0265 -0.4999 -0.0948
 7015SOL    HW125407  10.969   7.891   0.120 -0.3536  1.9793 -0.2571
 7015SOL    HW225408  11.008   7.923  -0.023  0.8998 -1.0632 -0.6749
 7016SOL     OW25409   4.180   3.213   8.794  0.1583 -0.2166 -0.4191
 7016SOL    HW125410   4.236   3.219   8.872  0.0596  0.8268 -0.4170
 7016SOL    HW225411   4.181   3.301   8.757  0.4012 -0.7523 -1.7539
 7017SOL     OW25412   4.416   0.436   7.024 -0.0023 -0.1224  0.5690
 7017SOL    HW125413   4.412   0.343   7.047  1.1732 -0.3094  0.1006
 7017SOL    HW225414   4.509   0.454   7.013 -0.2147  1.1216  0.6624
 7018SOL     OW25415   0.874  10.978   5.581 -0.5086 -0.4039  0.1013
 7018SOL    HW125416   0.919  10.996   5.499  0.2669 -0.1658  0.5674
 7018SOL    HW225417   0.864  10.883   5.583  1.5787 -0.6697  0.7772
 7019SOL     OW25418   6.129   7.735   3.625  0.2849 -0.4694 -0.5342
 7019SOL    HW125419   6.206   7.789   3.643 -0.2520  0.4257 -0.8623
 7019SOL    HW225420   6.065   7.762   3.692  0.6413 -2.0666  0.5132
 7020SOL     OW25421   3.048   5.000   9.192 -0.8254 -0.1246 -0.2104
 7020SOL    HW125422   3.067   5.094   9.185  0.7066 -0.5400 -4.2628
 7020SOL    HW225423   2.973   4.986   9.135 -1.2224 -1.3508  0.5757
 7021SOL     OW25424   8.739   5.157   0.269 -0.0255  0.1317 -0.4601
 7021SOL    HW125425   8.645   5.151   0.281 -0.2712  0.6077 -1.8688
 7021SOL    HW225426   8.755   5.251   0.255  0.5846  0.0060 -0.6497
 7022SOL     OW25427   4.353   3.247   5.186  0.6691  0.2983 -0.1463
 7022SOL    HW125428   4.296   3.273   5.114 -1.2217 -0.9577  0.8165
 7022SOL    HW225429   4.295   3.205   5.249  2.4491  0.2809  1.5884
 7023SOL     OW25430   5.388   3.090  10.414  0.3033 -0.5134  0.3410
 7023SOL    HW125431   5.403   3.171  10.463 -0.7811  0.9621 -1.6131
 7023SOL    HW225432   5.459   3.032  10.442  2.4061  1.8375  0.2824
 7024SOL     OW25433   3.517   0.733   3.531  0.2454 -0.2248 -0.3971
 7024SOL    HW125434   3.458   0.665   3.497  1.4184 -2.8296  2.2736
 7024SOL    HW225435   3.462   0.786   3.588 -0.6020  0.9464 -2.2101
 7025SOL     OW25436   1.773   8.982   2.641 -0.1166 -0.4428 -0.0404
 7025SOL    HW125437   1.863   9.013   2.652 -0.4533  2.0574 -3.0209
 7025SOL    HW225438   1.741   8.969   2.731  2.0577  2.1728  1.2694
 7026SOL     OW25439   5.366  10.878   8.196  0.3122  0.0755 -0.3281
 7026SOL    HW125440   5.317  10.907   8.119  0.4853  0.2023 -0.3929
 7026SOL    HW225441   5.451  10.922   8.188  1.2745 -1.8567 -1.3883
 7027SOL     OW25442   7.124   5.228   8.150  0.0160 -0.2901 -0.0461
 7027SOL    HW125443   7.096   5.153   8.202 -0.1469  0.1206  0.4648
 7027SOL    HW225444   7.043   5.265   8.116  0.0539 -0.0090  0.1704
 7028SOL     OW25445   2.477   4.890   3.901  0.1188  0.0447 -0.7245
 7028SOL    HW125446   2.477   4.956   3.831  0.6444  0.9049  0.0585
 7028SOL    HW225447   2.513   4.936   3.977 -2.3233 -0.2334  0.7184
 7029SOL     OW25448   5.644  10.965   6.211  0.2873 -0.7183 -0.2360
 7029SOL    HW125449   5.632  10.970   6.116  1.8524  0.7167 -0.3963
 7029SOL    HW225450   5.737  10.949   6.223  0.0277 -1.4468  1.0805
 7030SOL     OW25451   3.946   5.488  10.049  0.1196  0.6497  0.1198
 7030SOL    HW125452   4.003   5.481  10.126 -0.4143 -0.7271  0.4119
 7030SOL    HW225453   3.930   5.582  10.041 -0.4898  0.7805  2.1965
 7031SOL     OW25454   6.607   9.068   5.275  0.1224 -0.7264  0.6615
 7031SOL    HW125455   6.692   9.025   5.279  1.6839  1.8928 -1.2790
 7031SOL    HW225456   6.620   9.152   5.319 -1.6539 -0.5286  0.8968
 7032SOL     OW25457   3.785  10.597   7.881 -0.0052  0.2626  0.4654
 7032SOL    HW125458   3.879  10.608   7.892 -0.2933  2.1830  1.4632
 7032SOL    HW225459   3.776  10.516   7.832  2.1121 -0.4659  1.1751
 7033SOL     OW25460   5.388   0.009   1.082  0.2210  0.1185 -0.4002
 7033SOL    HW125461   5.411   0.097   1.053  0.2150 -0.4152 -2.1540
 7033SOL    HW225462   5.345  -0.031   1.006  1.6956 -1.9568 -0.2287
 7034SOL     OW25463   6.725   7.031   5.323  0.0864 -0.0322  0.3467
 7034SOL    HW125464   6.797   6.987   5.367 -0.2464 -0.7277  0.2229
 7034SOL    HW225465   6.653   6.968   5.328 -0.3140  0.3847 -0.1067
 7035SOL     OW25466   3.522   3.718   4.101  0.1009 -0.0524 -0.0411
 7035SOL    HW125467   3.594   3.769   4.065  1.3411 -0.6960  1.4247
 7035SOL    HW225468   3.486   3.772   4.171 -0.8997  0.2886 -0.7997
 7036SOL     OW25469   3.085   6.958   3.686 -0.1123  0.8537 -0.6352
 7036SOL    HW125470   3.170   6.913   3.690  0.4811  1.8799 -1.3644
 7036SOL    HW225471   3.108   7.051   3.675 -1.2992  1.3905  1.0483
 7037SOL     OW25472   6.028   6.851   1.515  0.4555 -0.2922  0.4739
 7037SOL    HW125473   6.057   6.923   1.459  0.6482 -0.0121  0.9277
 7037SOL    HW225474   5.937   6.837   1.490  1.2969 -2.0790 -1.9018
 7038SOL     OW25475   5.080   4.756   3.690  0.0337 -0.0170  0.0185
 7038SOL    HW125476   5.009   4.729   3.630  0.4752 -0.5634 -0.2686
 7038SOL    HW225477   5.127   4.824   3.642  0.0481 -0.0557 -0.0221
 7039SOL     OW25478   0.600   0.315   4.315 -0.4426 -0.0769  0.3651
 7039SOL    HW125479   0.630   0.405   4.308 -0.1789 -0.2317 -0.7402
 7039SOL    HW225480   0.631   0.285   4.400  1.0038  0.3152 -0.0045
 7040SOL     OW25481   7.003   8.516   5.168  0.5443 -0.0414  0.2492
 7040SOL    HW125482   6.978   8.467   5.089  0.4710  1.6323 -0.8195
 7040SOL    HW225483   7.084   8.562   5.143  0.3740  0.7223  1.0528
 7041SOL     OW25484   8.198   0.670   5.624 -0.1989 -0.1540  0.3495
 7041SOL    HW125485   8.107   0.676   5.653 -0.3110 -1.2785  0.2754
 7041SOL    HW225486   8.248   0.714   5.692 -0.6241 -1.2647  1.4258
 7042SOL     OW25487   7.037   8.790   2.762 -0.4534 -0.1281 -0.6173
 7042SOL    HW125488   6.994   8.829   2.837 -3.2390 -2.6373 -0.7311
 7042SOL    HW225489   7.123   8.762   2.795  0.1338  2.5188  0.3763
 7043SOL     OW25490   2.674   4.338  10.125  0.2085  0.2521  0.3056
 7043SOL    HW125491   2.624   4.297  10.197 -0.5376 -1.8395 -1.2891
 7043SOL    HW225492   2.741   4.390  10.169 -2.0162  1.4425  2.5260
 7044SOL     OW25493   0.219   8.225   1.135  0.0353  0.1860  0.3291
 7044SOL    HW125494   0.240   8.314   1.163 -0.4886 -0.1945  2.1154
 7044SOL    HW225495   0.296   8.173   1.157 -0.7848 -0.3188  2.2682
 7045SOL     OW25496   2.125   8.782   6.722  0.3209  0.1667  0.2276
 7045SOL    HW125497   2.056   8.736   6.771 -1.0147  1.9584  0.1051
 7045SOL    HW225498   2.181   8.818   6.791  0.7215 -0.6546  0.3426
 7046SOL     OW25499   2.857   4.975   2.804 -0.9591 -0.0632 -0.6084
 7046SOL    HW125500   2.804   5.040   2.757  0.5150  0.3396 -1.7954
 7046SOL    HW225501   2.849   4.896   2.750 -1.7370 -0.5158  0.1549
 7047SOL     OW25502   4.345   1.454   4.593  0.3195 -0.2855 -0.0925
 7047SOL    HW125503   4.431   1.496   4.599  0.4751 -0.6850  0.5981
 7047SOL    HW225504   4.342   1.395   4.668 -0.8385  0.2303  0.2836
 7048SOL     OW25505   3.217   9.406   5.927 -0.5942  0.1302 -0.3245
 7048SOL    HW125506   3.305   9.396   5.890 -1.1534  0.2790 -1.7161
 7048SOL    HW225507   3.163   9.342   5.880 -1.0891 -0.5394  1.0862
 7049SOL     OW25508   6.915   0.195   2.621  0.2036 -0.2567  0.4143
 7049SOL    HW125509   6.973   0.241   2.560  0.1540 -0.4635  0.2090
 7049SOL    HW225510   6.946   0.221   2.708 -0.0070  0.3886  0.2997
 7050SOL     OW25511   6.145   5.162   9.741  0.1510 -0.4406  0.0786
 7050SOL    HW125512   6.055   5.177   9.769  0.1623  0.1960 -0.1911
 7050SOL    HW225513   6.186   5.115   9.813  0.2531  1.3891  1.2860
 7051SOL     OW25514   1.243  10.129   1.183 -0.0966 -0.1885 -0.6382
 7051SOL    HW125515   1.307  10.113   1.115  0.6292 -2.5237  0.4803
 7051SOL    HW225516   1.293  10.167   1.256 -0.5856  0.8402 -0.8072
 7052SOL     OW25517   8.480   7.345   9.579  0.5842  0.4166 -0.1680
 7052SOL    HW125518   8.446   7.346   9.668 -1.7623  1.1849 -1.0095
 7052SOL    HW225519   8.575   7.353   9.589  0.2615  2.0670  2.2003
 7053SOL     OW25520   1.088   6.075   2.018  0.8707  0.1134  0.4148
 7053SOL    HW125521   1.065   6.061   2.109  1.5552  0.2764  0.6188
 7053SOL    HW225522   1.014   6.123   1.981  0.2194 -0.6744  0.6630
 7054SOL     OW25523  10.861   2.089  10.684  0.2554 -0.0520 -0.2045
 7054SOL    HW125524  10.861   1.999  10.652 -1.0748 -0.1685  0.0629
 7054SOL    HW225525  10.952   2.106  10.708  0.2920 -1.8123  1.0951
 7055SOL     OW25526   3.631  10.949   8.820  0.3916  0.2594 -0.2777
 7055SOL    HW125527   3.565  10.977   8.883  1.0814  0.1748  0.4948
 7055SOL    HW225528   3.698  11.017   8.825  1.1060 -0.4657  0.1028
 7056SOL     OW25529  10.017   2.401   2.900 -0.5183 -0.1501 -0.2264
 7056SOL    HW125530  10.096   2.365   2.941 -0.0104  1.9469  0.7641
 7056SOL    HW225531  10.050   2.451   2.825 -1.1051 -0.8757 -0.9819
 7057SOL     OW25532  10.906   0.322   0.260 -0.2968 -0.0630  0.1470
 7057SOL    HW125533  10.890   0.373   0.180  1.8521 -0.5881 -0.6987
 7057SOL    HW225534  10.926   0.387   0.326  0.7112  0.3024 -0.4898
 7058SOL     OW25535   8.091   1.844   3.510 -0.1743 -0.8220 -0.0478
 7058SOL    HW125536   8.125   1.933   3.510 -0.0971 -0.8451 -1.2224
 7058SOL    HW225537   8.104   1.813   3.421 -0.0712 -2.0632  0.3760
 7059SOL     OW25538   1.751   9.913   6.865 -0.1161  0.3901 -0.0507
 7059SOL    HW125539   1.744  10.000   6.825  0.8232  0.0415 -1.0422
 7059SOL    HW225540   1.702   9.856   6.805 -0.4393  0.1774  0.4123
 7060SOL     OW25541   0.885  10.152   9.319 -0.1184 -0.0212  0.2655
 7060SOL    HW125542   0.941  10.169   9.243  1.4094  1.3222  1.5914
 7060SOL    HW225543   0.832  10.077   9.294  1.3574 -0.5278 -1.5896
 7061SOL     OW25544   5.911  11.093   6.054 -0.5128 -0.6963  0.1317
 7061SOL    HW125545   5.935  11.010   6.095  1.3156 -0.0551  0.4646
 7061SOL    HW225546   5.968  11.158   6.095 -3.0905  1.0816  1.1428
 7062SOL     OW25547  10.150   5.239   3.664 -0.3270  0.0523 -0.2824
 7062SOL    HW125548  10.116   5.180   3.596  0.4152  0.2347 -0.8310
 7062SOL    HW225549  10.244   5.219   3.668 -0.1525  0.8687 -0.1456
 7063SOL     OW25550   0.744   5.954   3.681  0.0880 -0.2617 -0.2823
 7063SOL    HW125551   0.809   5.908   3.628 -1.3885 -2.8288 -0.0306
 7063SOL    HW225552   0.745   5.909   3.766 -3.1494 -1.6079 -0.8197
 7064SOL     OW25553   0.882   3.372   9.176  0.3177  0.0321  0.5267
 7064SOL    HW125554   0.949   3.327   9.228  0.1609 -0.2937  0.4485
 7064SOL    HW225555   0.811   3.308   9.168 -0.4314  0.7295  1.4633
 7065SOL     OW25556   7.325   6.731   9.612  0.1996  0.7688 -0.2756
 7065SOL    HW125557   7.250   6.785   9.637 -0.4551 -1.1549  2.4852
 7065SOL    HW225558   7.373   6.783   9.548 -1.9258  3.3005  0.0295
 7066SOL     OW25559   8.114  10.187   0.897  0.0888  0.1764 -0.0565
 7066SOL    HW125560   8.147  10.210   0.811  0.7352  1.0770  0.4225
 7066SOL    HW225561   8.019  10.192   0.889  0.1411  0.1053 -0.7485
 7067SOL     OW25562   4.694   5.965   2.604 -0.2800 -0.3732  0.5944
 7067SOL    HW125563   4.697   5.966   2.509 -1.2655  1.4515  0.5376
 7067SOL    HW225564   4.611   6.008   2.626 -1.1627 -2.7147  2.2706
 7068SOL     OW25565   1.465   4.910   4.121 -0.2777 -0.4652 -0.1479
 7068SOL    HW125566   1.400   4.903   4.051 -0.2302 -1.2689 -0.1192
 7068SOL    HW225567   1.534   4.850   4.095 -0.2293 -0.7234  0.5572
 7069SOL     OW25568   9.198   2.657   0.158 -0.5211 -0.0196 -0.0174
 7069SOL    HW125569   9.207   2.604   0.238  0.0965  0.6325  0.3485
 7069SOL    HW225570   9.279   2.641   0.109 -0.5797  0.1520 -0.1717
 7070SOL     OW25571  10.624   5.193   6.515  0.2009 -0.0758 -0.6516
 7070SOL    HW125572  10.624   5.288   6.509  0.2613 -0.1314 -1.8389
 7070SOL    HW225573  10.577   5.164   6.437 -2.1493 -0.9675  0.9767
 7071SOL     OW25574   9.640   7.319   7.764 -0.0953  0.2236 -0.4021
 7071SOL    HW125575   9.596   7.254   7.708 -0.5241 -1.6570  1.9679
 7071SOL    HW225576   9.584   7.397   7.759 -2.2526 -1.1957  0.3628
 7072SOL     OW25577   1.416   9.915   9.947  0.1234 -0.2192 -0.6130
 7072SOL    HW125578   1.444   9.852  10.013 -1.5921 -3.3404 -2.5935
 7072SOL    HW225579   1.454   9.998   9.974  0.5590 -1.5739  3.5224
 7073SOL     OW25580   2.644  10.813   9.591  0.6038 -0.1080 -0.0621
 7073SOL    HW125581   2.697  10.751   9.541  0.5710 -0.5963  0.4943
 7073SOL    HW225582   2.596  10.759   9.653  0.1675  0.4261  0.0757
 7074SOL     OW25583   3.258   8.504   3.373 -0.3937 -0.5529 -0.2902
 7074SOL    HW125584   3.311   8.582   3.388  0.4323 -0.9161 -1.2091
 7074SOL    HW225585   3.305   8.455   3.306 -2.3441 -0.4554 -1.8243
 7075SOL     OW25586   6.680   7.909   8.537  0.3116 -0.1961 -0.3272
 7075SOL    HW125587   6.744   7.953   8.593 -0.8742  1.4317 -0.1600
 7075SOL    HW225588   6.732   7.868   8.468  1.5491  0.8616 -0.0686
 7076SOL     OW25589   0.879   4.098   8.454  0.1173 -0.1536 -0.3861
 7076SOL    HW125590   0.804   4.140   8.411 -1.6805 -3.3753 -0.7075
 7076SOL    HW225591   0.844   4.016   8.489  3.2590 -1.2282  0.5582
 7077SOL     OW25592   2.126   8.650   0.433 -0.3323 -0.3889 -0.4393
 7077SOL    HW125593   2.202   8.631   0.489 -0.1539  0.2700 -0.4531
 7077SOL    HW225594   2.052   8.652   0.493 -0.6935 -3.0369 -0.6676
 7078SOL     OW25595  10.778   1.555   0.501  0.6246  0.1063 -0.2909
 7078SOL    HW125596  10.828   1.473   0.493 -0.9785 -1.1802  1.9185
 7078SOL    HW225597  10.697   1.539   0.453 -0.0051  0.0760  0.7411
 7079SOL     OW25598   1.701   9.766   3.883  0.0902  0.0709  0.0528
 7079SOL    HW125599   1.765   9.827   3.919 -0.8572 -0.1668  2.2496
 7079SOL    HW225600   1.717   9.684   3.929  1.0583 -1.3256 -2.5346
 7080SOL     OW25601   8.232   0.315   6.865 -0.1439  0.1831 -0.2535
 7080SOL    HW125602   8.223   0.242   6.926 -1.1677  0.5575  0.0565
 7080SOL    HW225603   8.157   0.372   6.883  1.6251  2.2980  0.8076
 7081SOL     OW25604   6.923  10.915   9.823 -0.0367  0.0688  0.0628
 7081SOL    HW125605   6.952  10.845   9.882  0.4213  0.4743  0.3207
 7081SOL    HW225606   6.827  10.907   9.823  0.0146 -0.6096  0.0218
 7082SOL     OW25607   4.582  10.452   3.490 -0.3347 -0.0987  0.3626
 7082SOL    HW125608   4.602  10.384   3.426 -1.8685 -0.7309  0.5062
 7082SOL    HW225609   4.660  10.457   3.545  0.6380 -0.2059 -0.9593
 7083SOL     OW25610   3.608   0.453   4.132 -0.5449  0.3074  0.9165
 7083SOL    HW125611   3.533   0.402   4.102 -1.3843  1.8049  0.3647
 7083SOL    HW225612   3.584   0.480   4.221 -0.7368  0.8851  0.6969
 7084SOL     OW25613   4.167   1.379   8.944 -0.4812 -0.1507 -0.0487
 7084SOL    HW125614   4.243   1.324   8.962 -0.9203 -0.2105  1.6996
 7084SOL    HW225615   4.199   1.442   8.879  0.6875 -0.9749 -0.3041
 7085SOL     OW25616   8.211   9.769   5.872  0.1689 -0.2703  0.4681
 7085SOL    HW125617   8.286   9.747   5.817  1.8722  1.3338  2.0053
 7085SOL    HW225618   8.165   9.838   5.825  0.3652 -0.3873  0.1012
 7086SOL     OW25619   1.629   7.141  10.651  0.3506  0.2840  0.1142
 7086SOL    HW125620   1.651   7.076  10.718 -2.8597 -0.9301  0.1361
 7086SOL    HW225621   1.685   7.215  10.672  2.6012 -1.6279  1.4414
 7087SOL     OW25622   3.084   3.675  11.022  0.0761 -0.4229 -0.2735
 7087SOL    HW125623   3.089   3.653  10.929  1.5028  0.0507 -0.3424
 7087SOL    HW225624   3.175   3.689  11.048 -0.4404  1.6168  0.6593
 7088SOL     OW25625  10.630   7.733   7.332 -0.3768 -0.1713  0.1542
 7088SOL    HW125626  10.579   7.768   7.405 -1.1205 -0.1685 -0.3525
 7088SOL    HW225627  10.648   7.642   7.357 -1.3924 -0.4402 -0.0325
 7089SOL     OW25628   6.342   4.008  10.494  0.7439 -0.3377  0.4938
 7089SOL    HW125629   6.368   3.917  10.510 -0.8580 -0.9692 -0.2454
 7089SOL    HW225630   6.367   4.024  10.404 -0.6261 -0.7126  0.0100
 7090SOL     OW25631   8.178   4.802   8.531 -0.5108 -0.3875  0.3119
 7090SOL    HW125632   8.239   4.861   8.576 -0.1805 -0.6386  0.2034
 7090SOL    HW225633   8.210   4.714   8.553 -1.0536 -0.5257  0.5458
 7091SOL     OW25634   0.369   2.796   7.982  0.1128  0.2242  0.0096
 7091SOL    HW125635   0.442   2.813   8.041  0.0951 -0.0120  0.0996
 7091SOL    HW225636   0.405   2.735   7.916  0.8167  2.2419 -1.5851
 7092SOL     OW25637   6.386   6.329   3.222 -0.5628 -0.0502  0.5092
 7092SOL    HW125638   6.479   6.304   3.227 -0.1652  0.3509 -2.7724
 7092SOL    HW225639   6.340   6.245   3.214 -0.3760 -0.1931  0.8835
 7093SOL     OW25640   1.178   6.226   4.980  0.1630 -0.2802 -0.3567
 7093SOL    HW125641   1.256   6.225   4.925  0.4451  0.4118  0.0131
 7093SOL    HW225642   1.169   6.318   5.007 -2.0045  0.0949 -2.1023
 7094SOL     OW25643   9.697   1.579   2.804 -0.1260 -0.1169  0.0792
 7094SOL    HW125644   9.652   1.638   2.743 -2.0776 -0.9305  0.6401
 7094SOL    HW225645   9.639   1.503   2.810  0.3651 -0.3747  2.3709
 7095SOL     OW25646   0.580   5.489   8.438  0.0549 -0.2407  0.3021
 7095SOL    HW125647   0.577   5.581   8.410  2.6668 -0.1375  0.0992
 7095SOL    HW225648   0.592   5.440   8.357 -1.9544 -0.8908  0.3372
 7096SOL     OW25649   5.549   9.825   1.952  0.3077  0.4035 -0.4235
 7096SOL    HW125650   5.515   9.871   1.876 -0.2162  1.4801  0.4300
 7096SOL    HW225651   5.614   9.764   1.916  0.5930  1.3875 -1.6583
 7097SOL     OW25652   0.915   5.880   2.629  0.5476 -0.4875 -0.2319
 7097SOL    HW125653   0.906   5.862   2.722  0.0020  0.4742 -0.0839
 7097SOL    HW225654   0.903   5.796   2.586 -0.3978 -0.7294  0.4949
 7098SOL     OW25655   4.502   1.306   5.807  0.0645 -0.2457  0.0186
 7098SOL    HW125656   4.566   1.341   5.746 -0.8287 -0.2480 -0.9658
 7098SOL    HW225657   4.425   1.287   5.752 -0.0149 -2.2990  0.7635
 7099SOL     OW25658   8.919   7.638   1.724 -0.2528  0.1998 -0.0786
 7099SOL    HW125659   8.884   7.600   1.805 -0.1159 -0.1961 -0.2026
 7099SOL    HW225660   9.000   7.682   1.751  0.4490 -0.9806 -0.1952
 7100SOL     OW25661   0.843   0.909   7.276  0.1999 -0.1413  0.1792
 7100SOL    HW125662   0.874   0.997   7.299 -0.5697 -0.2068  1.5920
 7100SOL    HW225663   0.918   0.853   7.294  0.6518  0.1905 -0.6015
 7101SOL     OW25664   8.954   0.153   2.523 -0.1887  0.2639 -0.4093
 7101SOL    HW125665   8.973   0.231   2.576 -2.8308  1.0034 -0.4086
 7101SOL    HW225666   8.958   0.080   2.585 -2.0432  0.9683  0.6084
 7102SOL     OW25667   6.203   9.645   0.591 -0.2354 -0.3785 -0.6266
 7102SOL    HW125668   6.239   9.734   0.594  0.2224 -0.5727  1.2727
 7102SOL    HW225669   6.132   9.649   0.527  0.7858  0.9526 -1.7260
 7103SOL     OW25670   6.089   7.356   2.689  0.7168  0.0960 -0.0180
 7103SOL    HW125671   6.128   7.277   2.726  1.3011  0.5492  0.3672
 7103SOL    HW225672   6.124   7.361   2.600  1.5508  0.4855  0.3161
 7104SOL     OW25673   6.614   8.627   6.381  1.0796 -0.7982 -0.3964
 7104SOL    HW125674   6.585   8.611   6.471 -0.0033  0.1754 -0.5592
 7104SOL    HW225675   6.650   8.543   6.353 -0.9282 -1.8632  0.0736
 7105SOL     OW25676   5.479  10.613   3.014  0.1702 -0.0694  0.6470
 7105SOL    HW125677   5.548  10.547   3.014 -0.1022 -0.3527  0.8755
 7105SOL    HW225678   5.519  10.689   2.971 -0.1961 -1.0811 -1.5994
 7106SOL     OW25679   1.480   3.273   6.352 -0.0886 -0.7012 -0.8955
 7106SOL    HW125680   1.488   3.361   6.389 -0.6063 -0.3318 -1.6262
 7106SOL    HW225681   1.406   3.280   6.292 -3.0707 -2.7086  2.1836
 7107SOL     OW25682   5.851   7.514   1.097  0.1112  0.0254  0.0507
 7107SOL    HW125683   5.891   7.461   1.165  1.5271  2.1422  0.9844
 7107SOL    HW225684   5.778   7.558   1.142  0.9911  1.3533  0.2356
 7108SOL     OW25685   3.133   4.790   5.855 -0.1307 -0.1523 -0.0131
 7108SOL    HW125686   3.084   4.853   5.908  1.8793  1.4651  0.0471
 7108SOL    HW225687   3.143   4.832   5.770  0.3980 -0.8335 -0.3015
 7109SOL     OW25688   3.149   6.457   2.685  0.0241  0.4791  0.1309
 7109SOL    HW125689   3.242   6.465   2.709  1.1371 -1.3233 -2.9993
 7109SOL    HW225690   3.110   6.408   2.757  2.0926 -0.7892  0.4803
 7110SOL     OW25691  11.086   6.739   0.535 -0.1325  0.0660 -0.2072
 7110SOL    HW125692  11.100   6.833   0.522 -3.1492  0.5801 -0.3627
 7110SOL    HW225693  11.121   6.723   0.623 -2.6358  2.1858  1.3340
 7111SOL     OW25694   1.675   8.408   8.459 -0.3481  0.2236 -0.3360
 7111SOL    HW125695   1.634   8.353   8.392  0.6606  0.3814 -1.1069
 7111SOL    HW225696   1.769   8.401   8.442  0.1901 -1.6121  2.4989
 7112SOL     OW25697   2.493   7.013   9.080  0.4183  0.2144  0.1681
 7112SOL    HW125698   2.503   6.962   9.000  1.8936  0.3284  0.2407
 7112SOL    HW225699   2.558   6.976   9.140  0.7469  1.4400  0.5977
 7113SOL     OW25700  10.653   7.692   6.220 -0.3945  0.4623  0.4942
 7113SOL    HW125701  10.682   7.682   6.311  1.5828 -3.5765 -0.3532
 7113SOL    HW225702  10.698   7.771   6.189 -1.0979  1.9248  2.9296
 7114SOL     OW25703   1.421   3.912   0.042 -0.6357 -0.6841  0.0924
 7114SOL    HW125704   1.516   3.919   0.031 -0.6768  0.6418  0.4302
 7114SOL    HW225705   1.387   3.905  -0.047 -0.4557  2.6608 -0.3461
 7115SOL     OW25706   1.536  10.104   1.624  0.1224  0.4727  0.0562
 7115SOL    HW125707   1.535  10.185   1.573 -1.4302  0.0287 -0.6973
 7115SOL    HW225708   1.544  10.035   1.559 -0.5419 -0.0519  0.5166
 7116SOL     OW25709   0.532   7.194   9.896  0.3305  0.2976  0.7023
 7116SOL    HW125710   0.446   7.164   9.867  0.8413 -0.2935 -0.2672
 7116SOL    HW225711   0.572   7.232   9.818  0.7015  1.1854  1.3044
 7117SOL     OW25712   1.443   5.116   4.628  0.5176  0.2612 -0.1087
 7117SOL    HW125713   1.384   5.184   4.595 -0.5857 -0.6570 -0.1107
 7117SOL    HW225714   1.446   5.051   4.558 -0.6698 -0.9927  0.9398
 7118SOL     OW25715   4.548   6.219   2.339 -0.2319 -0.0799 -0.2109
 7118SOL    HW125716   4.613   6.150   2.353  0.3502  0.3318 -0.8438
 7118SOL    HW225717   4.479   6.176   2.288 -0.3511 -0.4519  0.2525
 7119SOL     OW25718   0.148   7.869   5.843 -0.3090 -0.1652 -0.0970
 7119SOL    HW125719   0.222   7.847   5.787  0.6140  0.4308  0.8473
 7119SOL    HW225720   0.188   7.898   5.925 -1.6064 -0.2770  0.5986
 7120SOL     OW25721   4.771   9.025   5.920  0.8244  0.0992 -0.2501
 7120SOL    HW125722   4.780   9.046   6.013 -0.7727  0.8746 -0.2397
 7120SOL    HW225723   4.819   8.943   5.909  1.6552  0.3796  1.0936
 7121SOL     OW25724   6.694   8.341   2.298 -0.7446 -0.7334  0.0609
 7121SOL    HW125725   6.688   8.422   2.349 -1.7082 -1.0844  0.5402
 7121SOL    HW225726   6.749   8.283   2.352 -0.4126 -0.5463 -0.0767
 7122SOL     OW25727   8.809  10.390   6.864  0.5620  0.0234 -0.3613
 7122SOL    HW125728   8.805  10.415   6.772  1.4246  1.6641  0.0064
 7122SOL    HW225729   8.877  10.446   6.901  0.8100 -1.1795  1.1081
 7123SOL     OW25730   8.910   8.180  11.114  0.4214  0.3341  0.0822
 7123SOL    HW125731   8.887   8.270  11.136  0.1642  0.0991  0.8271
 7123SOL    HW225732   8.858   8.127  11.175 -2.1676 -0.5054 -2.5965
 7124SOL     OW25733   2.401   5.933   9.105  0.4694  0.6857  0.4965
 7124SOL    HW125734   2.355   5.989   9.168  1.6753  2.0903  0.1768
 7124SOL    HW225735   2.362   5.956   9.021  0.4826  0.5250  0.4468
 7125SOL     OW25736   9.281   2.609   2.486  0.1529  0.2287  0.1298
 7125SOL    HW125737   9.269   2.687   2.432 -2.8561  1.7049  2.6237
 7125SOL    HW225738   9.327   2.641   2.564 -1.3872 -0.3173  1.3176
 7126SOL     OW25739   0.221   1.934   1.805 -0.1837 -0.3332  0.0078
 7126SOL    HW125740   0.236   1.904   1.716 -3.2770  1.2648 -1.2099
 7126SOL    HW225741   0.274   2.013   1.813 -0.7997  0.1889 -0.8932
 7127SOL     OW25742  10.567   4.154   8.684 -0.7503 -0.3299 -0.2265
 7127SOL    HW125743  10.474   4.155   8.706 -0.8005 -0.8210 -0.4018
 7127SOL    HW225744  10.570   4.145   8.589 -0.5278  0.1431 -0.2644
 7128SOL     OW25745   5.355  11.095   2.369  0.0500 -0.1135 -0.3878
 7128SOL    HW125746   5.356  11.022   2.431  0.9691 -1.7249 -2.1718
 7128SOL    HW225747   5.396  11.167   2.416 -1.2608 -0.5679  1.5855
 7129SOL     OW25748   0.922   0.823   3.046 -0.4173 -0.6169 -0.0596
 7129SOL    HW125749   0.978   0.781   2.981  0.2306 -1.0628  0.7518
 7129SOL    HW225750   0.957   0.912   3.055 -1.6803  0.0880 -1.6522
 7130SOL     OW25751   8.048   5.654  10.361  0.2326 -1.3071  0.0449
 7130SOL    HW125752   7.975   5.675  10.420  1.7428 -1.3397  2.0582
 7130SOL    HW225753   8.119   5.712  10.390  0.9805 -1.1659 -1.9534
 7131SOL     OW25754  10.243   6.747   8.313  0.1977  0.4297 -0.1752
 7131SOL    HW125755  10.171   6.765   8.251 -2.0129  0.8707  2.3528
 7131SOL    HW225756  10.253   6.652   8.310 -1.1104  0.2636  0.0334
 7132SOL     OW25757   3.780   2.578   5.022 -0.1806  0.2389  0.2610
 7132SOL    HW125758   3.749   2.497   5.062  0.8104 -0.2764  0.0205
 7132SOL    HW225759   3.832   2.550   4.947  0.8639  1.0598  0.6478
 7133SOL     OW25760   8.674   0.416   5.954 -0.1583  0.1644  1.2610
 7133SOL    HW125761   8.685   0.481   6.023 -0.4673  0.1928  1.2825
 7133SOL    HW225762   8.602   0.360   5.984 -2.0432  1.6807 -0.1911
 7134SOL     OW25763   4.227   8.149   6.125 -0.5858  0.4128 -0.6523
 7134SOL    HW125764   4.163   8.097   6.174 -3.2371  0.7141 -3.4458
 7134SOL    HW225765   4.250   8.093   6.051  2.3195  0.4433  0.1196
 7135SOL     OW25766   2.572   8.120   9.352 -0.8446  0.1899  0.1711
 7135SOL    HW125767   2.574   8.024   9.350 -0.7789  0.1489  1.3602
 7135SOL    HW225768   2.650   8.145   9.401 -1.5074  0.7974  0.9381
 7136SOL     OW25769   7.487   5.494   9.828  0.2286 -0.2097  0.7685
 7136SOL    HW125770   7.520   5.582   9.847 -0.1135 -0.1598  1.1634
 7136SOL    HW225771   7.492   5.486   9.733 -0.5843  0.5925  0.6388
 7137SOL     OW25772   3.088   4.077   2.998 -0.0953 -0.4881 -0.3183
 7137SOL    HW125773   3.073   4.166   3.030 -0.8984 -0.0351 -1.8560
 7137SOL    HW225774   3.000   4.041   2.984  0.2211 -1.2221 -0.4961
 7138SOL     OW25775   3.638   0.502   8.323  0.6692  0.9145 -0.2319
 7138SOL    HW125776   3.702   0.518   8.393 -1.7728  1.2125  2.1206
 7138SOL    HW225777   3.637   0.584   8.272  1.7493  1.0985  0.0160
 7139SOL     OW25778   2.251   1.071   4.384  0.0668 -0.4746  0.6324
 7139SOL    HW125779   2.213   0.999   4.333  1.9821  0.3142 -2.1543
 7139SOL    HW225780   2.185   1.140   4.380  0.6308  0.0354 -2.0835
 7140SOL     OW25781   1.888   4.215   2.040  0.4970  0.2179  0.2876
 7140SOL    HW125782   1.843   4.195   2.123  0.0806  1.6363  0.4309
 7140SOL    HW225783   1.818   4.245   1.982  1.1092  1.4704  0.1791
 7141SOL     OW25784   3.440   9.023   2.263 -0.9205  0.2529  0.0222
 7141SOL    HW125785   3.443   9.024   2.359 -2.3063  0.7063  0.0762
 7141SOL    HW225786   3.521   9.066   2.236 -0.9465  0.9470  1.0020
 7142SOL     OW25787   9.608   1.553   2.221  0.9988  0.6512  0.2377
 7142SOL    HW125788   9.515   1.529   2.222  1.1462  0.0703  0.6244
 7142SOL    HW225789   9.652   1.477   2.183  1.5780 -0.1355  2.3288
 7143SOL     OW25790   6.231  10.402   4.654  0.3170  0.7161 -0.1140
 7143SOL    HW125791   6.243  10.345   4.578  0.5238 -0.9299  1.0790
 7143SOL    HW225792   6.145  10.442   4.641  0.2100  0.2068 -1.0511
 7144SOL     OW25793   1.003   2.133   0.992  0.6154 -0.0745 -0.5166
 7144SOL    HW125794   0.997   2.038   1.002 -1.5811  0.0337 -0.3117
 7144SOL    HW225795   0.992   2.167   1.081  0.4219  0.3888 -0.7133
 7145SOL     OW25796   7.866  10.640   9.331  0.5882  0.0214 -0.6529
 7145SOL    HW125797   7.825  10.720   9.363  1.4330  0.6096 -0.9878
 7145SOL    HW225798   7.848  10.574   9.398 -2.1154 -0.1546 -1.4458
 7146SOL     OW25799   7.514  11.022   1.536 -0.3234 -0.3166  0.1475
 7146SOL    HW125800   7.540  11.104   1.492  2.4199 -2.1425 -1.9447
 7146SOL    HW225801   7.581  11.009   1.603 -1.7661 -0.0402  1.7068
 7147SOL     OW25802   3.566   9.589   2.736 -0.8838 -0.0224 -0.6576
 7147SOL    HW125803   3.544   9.550   2.820  0.4279 -1.4905 -0.9539
 7147SOL    HW225804   3.519   9.536   2.671 -1.3592  0.6873 -0.9048
 7148SOL     OW25805   9.080   2.067   9.321  0.1347 -0.2865 -0.0357
 7148SOL    HW125806   9.046   2.156   9.330 -0.4249 -0.5875  0.8593
 7148SOL    HW225807   9.009   2.010   9.349  1.0126 -0.9643  0.8761
 7149SOL     OW25808   1.457   5.554   1.964 -0.6772 -0.0779 -0.4519
 7149SOL    HW125809   1.451   5.558   2.059 -0.8619  1.3128 -0.4971
 7149SOL    HW225810   1.550   5.539   1.946 -0.5178  0.4438 -0.0638
 7150SOL     OW25811   0.251   9.005   7.585 -0.6601  0.2664  0.1528
 7150SOL    HW125812   0.201   9.086   7.582  0.8951  1.3456  1.3592
 7150SOL    HW225813   0.282   8.992   7.496  0.4069  1.9305  0.2445
 7151SOL     OW25814   9.062   4.436   0.924  0.0670 -0.3090  0.5029
 7151SOL    HW125815   9.008   4.359   0.910  1.8042 -1.2171 -1.7203
 7151SOL    HW225816   9.120   4.439   0.848 -0.5112  3.7054 -0.0176
 7152SOL     OW25817   9.803   5.194   4.220  0.4043 -0.0606  0.0997
 7152SOL    HW125818   9.834   5.107   4.194 -1.1047 -0.2260 -1.2935
 7152SOL    HW225819   9.827   5.202   4.313  0.0715 -2.1758  0.4006
 7153SOL     OW25820   8.366   0.453   7.106 -0.0040  0.1814  0.0782
 7153SOL    HW125821   8.408   0.476   7.188 -0.9760 -0.2052  0.7011
 7153SOL    HW225822   8.434   0.407   7.056  0.6401  0.5753  0.5811
 7154SOL     OW25823   8.320   8.374  10.026 -0.2562  0.4827  0.5792
 7154SOL    HW125824   8.400   8.381   9.974  0.5785  0.6739  1.8380
 7154SOL    HW225825   8.264   8.316   9.976  1.6568 -1.7115  0.8313
 7155SOL     OW25826   5.958   9.958   1.016 -0.6343  0.2938 -0.1787
 7155SOL    HW125827   5.965   9.875   0.971 -0.4966  0.3516 -0.2635
 7155SOL    HW225828   6.026   9.956   1.083  0.3017  0.8940 -1.0691
 7156SOL     OW25829  10.348   0.126   7.685  0.3605  0.5266 -0.1016
 7156SOL    HW125830  10.256   0.102   7.696  0.5562 -0.0511  0.3225
 7156SOL    HW225831  10.354   0.157   7.595 -0.2052  0.3488 -0.2038
 7157SOL     OW25832   3.585  10.606   7.354 -0.2781 -0.2211  0.3803
 7157SOL    HW125833   3.524  10.663   7.400 -0.0643 -0.0706  0.4828
 7157SOL    HW225834   3.656  10.665   7.327 -0.6419 -0.2088 -0.5843
 7158SOL     OW25835   1.190   5.464   9.025 -0.9317  0.2210 -0.0973
 7158SOL    HW125836   1.207   5.409   8.948  0.8284  1.3469 -0.5732
 7158SOL    HW225837   1.276   5.479   9.063 -1.4136  2.1893  0.3106
 7159SOL     OW25838   4.712   3.973   2.222  0.0220 -0.0953 -0.1346
 7159SOL    HW125839   4.683   3.940   2.137  0.6394 -0.2441 -0.2917
 7159SOL    HW225840   4.631   3.985   2.271 -0.2533 -1.3718 -0.2373
 7160SOL     OW25841   3.432   5.700   8.566  0.9252  0.3753 -0.5463
 7160SOL    HW125842   3.475   5.780   8.598  1.0281  0.5120 -1.0265
 7160SOL    HW225843   3.373   5.731   8.497  2.2740 -0.1685 -1.9855
 7161SOL     OW25844   3.550   3.965   1.476  0.0934  0.0514  0.2430
 7161SOL    HW125845   3.589   3.879   1.459 -0.9566 -0.1650 -1.1977
 7161SOL    HW225846   3.557   4.012   1.393 -1.6793  0.3971  0.2439
 7162SOL     OW25847   4.037   3.731   3.500  0.1197  0.5233  0.3071
 7162SOL    HW125848   3.970   3.686   3.551 -0.1642  0.8841  0.2540
 7162SOL    HW225849   4.107   3.666   3.490 -1.3700 -0.8336 -2.0675
 7163SOL     OW25850   9.253   9.999   4.864  0.0052  0.5540  0.4787
 7163SOL    HW125851   9.311  10.075   4.857 -0.7469  0.9453 -3.7266
 7163SOL    HW225852   9.287   9.936   4.801 -1.2880 -1.3135  1.5319
 7164SOL     OW25853   0.783   2.769   2.479 -0.0209 -0.6923 -0.0678
 7164SOL    HW125854   0.838   2.845   2.502  0.9138 -0.4754 -2.6671
 7164SOL    HW225855   0.696   2.806   2.465  0.0167 -0.4034  0.4375
 7165SOL     OW25856   8.792   5.420   0.186 -0.9154  0.4667 -0.2878
 7165SOL    HW125857   8.741   5.493   0.219 -2.6118 -0.4199 -0.8190
 7165SOL    HW225858   8.780   5.423   0.091  0.4112  0.4949 -0.4725
 7166SOL     OW25859   7.273   5.547   7.922  0.9082 -0.3169 -0.6915
 7166SOL    HW125860   7.304   5.633   7.950  1.8739 -0.7107 -0.5086
 7166SOL    HW225861   7.181   5.545   7.949  1.3285 -0.0089  0.8915
 7167SOL     OW25862   8.895   0.576   2.754 -0.2797  0.2380 -0.1904
 7167SOL    HW125863   8.812   0.542   2.721  0.4354 -2.6904  0.7342
 7167SOL    HW225864   8.932   0.625   2.680 -1.7766 -0.3447 -1.3785
 7168SOL     OW25865   3.019   6.382   6.712 -0.4168  0.0472 -0.0248
 7168SOL    HW125866   2.932   6.351   6.688 -0.0755 -1.6747  0.7939
 7168SOL    HW225867   3.043   6.330   6.790  0.4625  2.0089  1.1016
 7169SOL     OW25868   6.877   8.105   6.209 -0.0249  0.2754  0.4338
 7169SOL    HW125869   6.922   8.186   6.184  2.1295 -0.8439  0.4644
 7169SOL    HW225870   6.861   8.060   6.126  0.0928  0.0853  0.5137
 7170SOL     OW25871  10.778   7.374  10.290  0.1793  0.2283 -0.4627
 7170SOL    HW125872  10.853   7.351  10.235  1.1731 -0.4186  1.1009
 7170SOL    HW225873  10.720   7.424  10.232  1.6096  0.3804 -1.8235
 7171SOL     OW25874   4.623   1.477   8.837  0.4690  0.3069 -0.0327
 7171SOL    HW125875   4.638   1.514   8.924 -0.9443  0.3874  0.2028
 7171SOL    HW225876   4.574   1.396   8.854 -1.4928  1.2670 -0.8106
 7172SOL     OW25877   8.806   2.623   0.086  0.7406  0.1501  0.4028
 7172SOL    HW125878   8.732   2.569   0.114 -0.6074  1.9276  0.4702
 7172SOL    HW225879   8.839   2.661   0.168 -0.2067  1.6848  0.1004
 7173SOL     OW25880   5.806   2.008   0.659  0.0374  0.1099 -0.7215
 7173SOL    HW125881   5.754   2.081   0.625  0.2147 -0.6270 -2.7306
 7173SOL    HW225882   5.823   1.953   0.582  0.1721 -1.8907  0.6558
 7174SOL     OW25883   7.910   5.131   0.733  0.3354  0.1340  0.1720
 7174SOL    HW125884   7.971   5.058   0.738  0.0279 -0.1325  0.0138
 7174SOL    HW225885   7.930   5.185   0.810  0.4013 -0.2368  0.4137
 7175SOL     OW25886   9.442  10.403   3.995  0.2450  0.7704  0.5059
 7175SOL    HW125887   9.496  10.478   4.022  0.3938  0.6622  0.5108
 7175SOL    HW225888   9.469  10.386   3.905  0.0944  0.8263  0.4511
 7176SOL     OW25889   6.654   5.235   3.589 -0.4912 -0.2526 -0.2258
 7176SOL    HW125890   6.595   5.247   3.514 -2.7217 -1.8431  1.1262
 7176SOL    HW225891   6.623   5.298   3.654  0.6823  0.3280 -0.2112
 7177SOL     OW25892   5.909   1.107   8.016 -0.0733  0.1476  0.1386
 7177SOL    HW125893   5.995   1.132   8.049 -0.2745 -2.0741  2.6919
 7177SOL    HW225894   5.914   1.012   8.006 -2.6181 -0.2436  1.7758
 7178SOL     OW25895   8.427   5.075   4.596  0.1603  0.0997  0.2489
 7178SOL    HW125896   8.458   5.136   4.663  1.7000  1.0291 -1.2148
 7178SOL    HW225897   8.494   5.006   4.594  0.2539  0.2002 -0.4447
 7179SOL     OW25898   4.294   5.684   2.080  0.3162 -0.6417  0.1468
 7179SOL    HW125899   4.291   5.592   2.052  0.3825 -0.7140  0.3825
 7179SOL    HW225900   4.387   5.704   2.086  0.3015 -0.6018  0.2364
 7180SOL     OW25901   3.574  10.703   6.420  0.5989  0.1406 -0.0133
 7180SOL    HW125902   3.527  10.628   6.383 -0.2674 -0.2414  1.7574
 7180SOL    HW225903   3.540  10.779   6.371 -1.8379 -0.1445  1.0661
 7181SOL     OW25904  10.676   0.339   0.870 -0.3717  0.0085 -0.5392
 7181SOL    HW125905  10.670   0.340   0.965 -0.0529 -0.3222 -0.5103
 7181SOL    HW225906  10.622   0.412   0.841  1.7700  1.9437  0.0298
 7182SOL     OW25907   3.746   0.116   7.004 -0.4078  0.0379 -0.3370
 7182SOL    HW125908   3.759   0.211   7.006  1.9885 -0.2363 -0.7161
 7182SOL    HW225909   3.739   0.095   6.911  1.2491 -0.3748 -0.3939
 7183SOL     OW25910   6.517   9.456   6.647  0.3713 -0.0137  0.2446
 7183SOL    HW125911   6.608   9.451   6.619  0.9181 -1.8045  2.1225
 7183SOL    HW225912   6.467   9.412   6.578  1.3252 -1.7624  0.6318
 7184SOL     OW25913   1.667   7.008   0.572  0.2033  0.2738 -0.0175
 7184SOL    HW125914   1.623   7.013   0.487  2.7235  0.7827 -1.4093
 7184SOL    HW225915   1.680   6.914   0.587  1.0292  0.2153 -0.9682
 7185SOL     OW25916   9.772   0.100   9.047 -0.0601 -0.0665  0.7317
 7185SOL    HW125917   9.762   0.049   9.127 -0.0766  0.0828  0.8265
 7185SOL    HW225918   9.736   0.186   9.070  1.4789  0.5122  1.1070
 7186SOL     OW25919  10.858   6.261   1.738  0.1689 -0.2903 -0.0673
 7186SOL    HW125920  10.767   6.245   1.714  0.5259 -0.5139 -1.4047
 7186SOL    HW225921  10.857   6.279   1.832 -0.9961 -2.3421  0.3594
 7187SOL     OW25922   8.691   7.167   0.364  0.1883  0.1512  0.4198
 7187SOL    HW125923   8.730   7.205   0.442  2.4132 -1.7389  0.3420
 7187SOL    HW225924   8.645   7.089   0.395 -2.4403  1.5423  0.2967
 7188SOL     OW25925   0.764   1.840   8.232  0.2141  0.1329  0.4537
 7188SOL    HW125926   0.693   1.777   8.218  0.0495  0.6591 -1.2661
 7188SOL    HW225927   0.842   1.786   8.245  0.0098 -0.4520 -0.6400
 7189SOL     OW25928   0.593   4.757   7.835  0.1140 -0.2616  0.2171
 7189SOL    HW125929   0.500   4.757   7.813  0.4176  1.6472 -1.2454
 7189SOL    HW225930   0.596   4.785   7.927 -0.6908  0.9883 -0.1235
 7190SOL     OW25931  10.972   3.139   9.119  0.2589 -0.2144  0.6837
 7190SOL    HW125932  10.988   3.229   9.093  0.3038  0.0849  1.7221
 7190SOL    HW225933  10.926   3.145   9.203 -0.9498 -1.1389  0.1343
 7191SOL     OW25934   0.198   8.127   5.383  0.2356  0.3196  0.2774
 7191SOL    HW125935   0.183   8.061   5.451 -0.7972  0.7405  0.4890
 7191SOL    HW225936   0.131   8.194   5.400  1.3420  1.4936  0.1570
 7192SOL     OW25937   8.302   1.626  10.102  0.4115  0.3956  0.4787
 7192SOL    HW125938   8.267   1.589  10.021  0.1869  0.3547  0.5961
 7192SOL    HW225939   8.269   1.569  10.172  0.7584  0.3192  0.5848
 7193SOL     OW25940   6.559   0.309   7.792 -0.4672  0.0918 -0.0098
 7193SOL    HW125941   6.484   0.293   7.849 -1.1929  0.3137 -0.8766
 7193SOL    HW225942   6.581   0.223   7.756 -0.2079  0.0016  0.3671
 7194SOL     OW25943   1.246   5.064   0.151  0.6800  0.0286  0.4240
 7194SOL    HW125944   1.262   5.092   0.061  0.4845 -2.8870 -0.6556
 7194SOL    HW225945   1.333   5.060   0.191  0.8601  0.5581  0.0903
 7195SOL     OW25946  11.040  10.171  11.054  0.3589 -0.1318  0.2204
 7195SOL    HW125947  11.081  10.110  11.116  0.0492  0.4583  1.0147
 7195SOL    HW225948  11.112  10.226  11.023  0.5337 -0.5007 -0.0508
 7196SOL     OW25949   4.380   2.832   6.815 -0.7597  0.1333 -0.2265
 7196SOL    HW125950   4.355   2.755   6.764 -0.7299 -0.3788  0.5101
 7196SOL    HW225951   4.297   2.864   6.851 -0.6412 -0.2397  0.3957
 7197SOL     OW25952   4.248  10.855   6.401  0.4077  0.8543 -0.3053
 7197SOL    HW125953   4.294  10.840   6.483  0.4257  1.3148 -0.2295
 7197SOL    HW225954   4.260  10.774   6.351 -0.4338  0.1893  0.5359
 7198SOL     OW25955   7.649   7.804   1.190  0.7158  0.3209 -0.1710
 7198SOL    HW125956   7.678   7.713   1.178 -1.8854 -0.5468 -0.7420
 7198SOL    HW225957   7.621   7.808   1.281  1.4943  0.7881  0.0535
 7199SOL     OW25958   0.501   3.719   7.715  0.1745  0.1100 -0.4662
 7199SOL    HW125959   0.526   3.724   7.807  1.9919 -4.3644 -0.4836
 7199SOL    HW225960   0.566   3.772   7.669 -1.0337  2.7968  0.6860
 7200SOL     OW25961   7.275   6.057   5.986 -0.2287  0.6741  0.4810
 7200SOL    HW125962   7.264   6.150   5.968 -1.6425  0.2596 -0.9365
 7200SOL    HW225963   7.266   6.050   6.082 -0.5750  1.9185  0.5536
 7201SOL     OW25964  10.289   5.161   6.433 -0.4426 -0.0291 -0.6709
 7201SOL    HW125965  10.270   5.255   6.435 -0.1627  0.1191  2.9130
 7201SOL    HW225966  10.208   5.119   6.463  0.2462 -0.6599  0.3785
 7202SOL     OW25967   7.234   5.256   8.610  0.2434 -0.6832  0.0761
 7202SOL    HW125968   7.250   5.178   8.556  2.5352 -0.9433  1.0351
 7202SOL    HW225969   7.320   5.281   8.643 -0.5738  1.7258  0.5792
 7203SOL     OW25970   5.795   1.831   7.433  0.0623  0.1545  0.3614
 7203SOL    HW125971   5.709   1.804   7.465 -0.1753  0.3330 -0.1161
 7203SOL    HW225972   5.854   1.813   7.506 -0.3548 -0.1100  0.6399
 7204SOL     OW25973   3.364   7.666   2.813 -0.2475 -0.7257  0.0520
 7204SOL    HW125974   3.269   7.674   2.815 -0.1552  0.4609  0.3578
 7204SOL    HW225975   3.381   7.571   2.811 -1.4443 -0.9385 -1.1757
 7205SOL     OW25976   2.572   1.894   5.288  0.1241  0.0814  0.2325
 7205SOL    HW125977   2.544   1.972   5.336 -1.4593 -0.4592  0.2413
 7205SOL    HW225978   2.491   1.847   5.270  0.5935  0.3036 -3.0980
 7206SOL     OW25979   9.757   7.476   1.194  0.1559 -0.7175  0.1662
 7206SOL    HW125980   9.828   7.434   1.145  0.7072  1.5449 -1.1024
 7206SOL    HW225981   9.796   7.557   1.227 -1.8490  0.6746 -0.7093
 7207SOL     OW25982   9.152   2.003   2.163  0.7686  0.2562 -0.4563
 7207SOL    HW125983   9.066   1.976   2.196  0.1724  0.4608 -1.7705
 7207SOL    HW225984   9.214   1.954   2.215 -0.1109  0.6761  1.0606
 7208SOL     OW25985   8.224  10.313   4.825  0.2966 -0.1491 -0.0682
 7208SOL    HW125986   8.280  10.245   4.863  0.5125 -0.5544 -1.0706
 7208SOL    HW225987   8.280  10.390   4.818 -0.3087  0.5886  2.3022
 7209SOL     OW25988   5.911   9.167   2.557  0.7759 -0.2693 -0.0198
 7209SOL    HW125989   5.964   9.088   2.547  1.8260  0.3292  0.5995
 7209SOL    HW225990   5.938   9.203   2.641  0.1480  0.6356 -0.1958
 7210SOL     OW25991   3.364   0.070   3.334 -0.2065  0.5028 -0.5578
 7210SOL    HW125992   3.335   0.155   3.302  0.9337  0.5483 -1.5354
 7210SOL    HW225993   3.419   0.090   3.410 -1.3561  0.5044  0.3112
 7211SOL     OW25994   9.118   9.307   4.627 -0.0338 -0.3390 -0.2039
 7211SOL    HW125995   9.023   9.302   4.635 -0.0077 -0.1334  0.2913
 7211SOL    HW225996   9.143   9.225   4.585 -0.5113 -0.0111 -1.1591
 7212SOL     OW25997   1.113   1.008  10.862  0.6785  0.0713  0.1028
 7212SOL    HW125998   1.139   1.040  10.948  1.2482 -2.6168  1.0191
 7212SOL    HW225999   1.136   1.079  10.802  0.3270  1.9881  2.1042
 7213SOL     OW26000   6.707   2.260   9.190 -0.3311  0.2704 -0.2529
 7213SOL    HW126001   6.695   2.316   9.114  0.9933  1.7821  0.5949
 7213SOL    HW226002   6.651   2.298   9.257  1.6933  1.5866  0.7866
 7214SOL     OW26003   9.968   4.262   8.468 -0.3827  0.6682  0.5553
 7214SOL    HW126004  10.046   4.282   8.416 -1.5970  3.1050 -0.4714
 7214SOL    HW226005   9.906   4.224   8.406 -0.7428  0.6460  0.9181
 7215SOL     OW26006   2.713   7.359   4.802  0.2711  0.6979  0.1742
 7215SOL    HW126007   2.628   7.397   4.822  1.4409  2.5658  2.2217
 7215SOL    HW226008   2.740   7.317   4.884  1.2141 -0.0553 -0.5009
 7216SOL     OW26009   7.870   8.006   1.135  0.1790  0.1062 -0.1865
 7216SOL    HW126010   7.822   8.039   1.211  0.9322 -2.5099  1.5733
 7216SOL    HW226011   7.808   7.949   1.090  0.5904 -0.6927  0.2224
 7217SOL     OW26012   3.534   1.519   7.962  0.0208  0.0995 -0.6983
 7217SOL    HW126013   3.485   1.446   7.999  0.3716  0.8612  1.3964
 7217SOL    HW226014   3.581   1.557   8.036  2.9951  0.0487 -2.3808
 7218SOL     OW26015   5.572   5.042   2.351  0.2274 -0.3228 -0.6568
 7218SOL    HW126016   5.611   5.103   2.290 -0.1460  0.2824 -0.3027
 7218SOL    HW226017   5.483   5.029   2.319 -0.7093  1.6625  0.8776
 7219SOL     OW26018   0.488   9.890   8.727  0.5381 -0.4261 -0.0923
 7219SOL    HW126019   0.537   9.809   8.712  0.3898 -0.9176  1.7772
 7219SOL    HW226020   0.550   9.947   8.773  0.5871  0.4912 -1.2417
 7220SOL     OW26021   2.228  10.081   8.015 -0.7154 -0.0158  0.2443
 7220SOL    HW126022   2.218  10.172   7.986  2.3138  0.1920 -0.4983
 7220SOL    HW226023   2.293  10.085   8.084 -0.6025 -1.6205  0.2663
 7221SOL     OW26024  10.977   9.582   4.726  0.1217 -0.2802 -0.4434
 7221SOL    HW126025  11.035   9.650   4.693 -0.4686 -0.2831 -1.5462
 7221SOL    HW226026  10.999   9.505   4.675 -0.0487 -0.5914 -0.0485
 7222SOL     OW26027   7.415   0.883   9.340 -0.3622 -0.8138  0.3229
 7222SOL    HW126028   7.375   0.797   9.324 -0.7817 -0.0968 -3.0878
 7222SOL    HW226029   7.446   0.912   9.254  2.2735  1.2974  1.8209
 7223SOL     OW26030   9.222   7.252   2.184  0.0763 -0.4246 -0.0402
 7223SOL    HW126031   9.221   7.156   2.178  1.6171 -0.5688  1.2645
 7223SOL    HW226032   9.299   7.272   2.236 -0.1612  1.5604 -0.3585
 7224SOL     OW26033   5.642   7.154   5.919  0.2259 -0.6917  0.3076
 7224SOL    HW126034   5.614   7.222   5.858  1.2165  1.2054  1.8333
 7224SOL    HW226035   5.737   7.152   5.911  0.3293 -0.7858  1.3677
 7225SOL     OW26036   2.361   8.933   0.391 -1.0028 -0.4334  0.3037
 7225SOL    HW126037   2.346   8.941   0.485 -2.7376 -1.6353  0.1792
 7225SOL    HW226038   2.331   9.016   0.354  1.7116  0.9515  0.9339
 7226SOL     OW26039   2.308   9.006   2.734  0.6798 -0.1003 -0.2337
 7226SOL    HW126040   2.338   8.997   2.825  2.6857 -1.7028 -0.9607
 7226SOL    HW226041   2.375   8.960   2.683 -0.0205  1.3578 -2.6017
 7227SOL     OW26042   9.899   0.753   2.255  0.3390 -0.0541 -0.1120
 7227SOL    HW126043   9.894   0.661   2.280  1.0864  0.3360  1.5865
 7227SOL    HW226044   9.987   0.762   2.217  0.1311 -0.1031 -0.6171
 7228SOL     OW26045   7.539  10.886   2.415  0.2966  0.3127 -0.1683
 7228SOL    HW126046   7.596  10.828   2.364  0.0804  0.0078 -0.0695
 7228SOL    HW226047   7.598  10.952   2.450  0.7440 -0.4968  0.6590
 7229SOL     OW26048   8.546   1.250   5.805  0.3868  0.3370  0.5039
 7229SOL    HW126049   8.571   1.277   5.716  1.2715  0.3713  0.7561
 7229SOL    HW226050   8.476   1.311   5.828  0.5938  0.7558  0.0738
 7230SOL     OW26051   3.443   5.176   5.455  0.3639  0.2297 -0.4955
 7230SOL    HW126052   3.361   5.204   5.412 -0.2968  0.6738  0.9895
 7230SOL    HW226053   3.422   5.091   5.493  0.2390  0.8176  0.7932
 7231SOL     OW26054   2.875   1.039   3.300 -0.2233  0.2684  0.1389
 7231SOL    HW126055   2.815   1.006   3.233 -0.5484 -0.0666  0.5963
 7231SOL    HW226056   2.958   0.994   3.283 -0.3809 -0.0189  0.1302
 7232SOL     OW26057   2.224   1.662   7.331 -0.6181  0.2593  0.2189
 7232SOL    HW126058   2.131   1.654   7.355 -0.5283 -1.9616  0.0819
 7232SOL    HW226059   2.232   1.609   7.251  0.9889 -0.6522  0.9415
 7233SOL     OW26060   7.732   8.217   3.958  0.0761  0.4959 -0.2178
 7233SOL    HW126061   7.780   8.201   3.877  0.9828  0.3182  0.3336
 7233SOL    HW226062   7.650   8.169   3.947 -0.1826  1.1673 -1.3609
 7234SOL     OW26063   6.129  10.721   8.775  0.3709 -0.3717 -0.0981
 7234SOL    HW126064   6.082  10.798   8.745  0.6381 -0.2146 -0.1226
 7234SOL    HW226065   6.064  10.651   8.775 -0.0629  0.0228  0.6619
 7235SOL     OW26066   3.963   4.729  10.171 -0.2879 -0.1558 -0.4068
 7235SOL    HW126067   3.907   4.803  10.148  0.0682  0.6057  1.0193
 7235SOL    HW226068   4.031   4.728  10.104 -2.3883 -1.6447 -2.7085
 7236SOL     OW26069   0.982   4.185   0.834  0.2468  0.3577  0.4670
 7236SOL    HW126070   1.052   4.229   0.785  2.3910 -0.6429  2.4143
 7236SOL    HW226071   1.014   4.096   0.847 -1.1782 -0.0097  1.8504
 7237SOL     OW26072   9.727   6.602   9.870  0.5399 -0.3606 -0.6648
 7237SOL    HW126073   9.691   6.663   9.935 -1.0151 -3.0456  1.1757
 7237SOL    HW226074   9.741   6.521   9.919  0.4639 -2.1595 -3.4293
 7238SOL     OW26075   4.989   0.936   5.066  0.6258  0.0977  0.1132
 7238SOL    HW126076   4.974   0.887   5.147 -1.9984  2.2870  1.1313
 7238SOL    HW226077   5.048   1.007   5.092 -1.1578  1.5064  0.5216
 7239SOL     OW26078  11.046   1.313   1.216 -0.3052  0.3125 -0.9116
 7239SOL    HW126079  11.139   1.330   1.233 -0.4242 -0.2452  0.3963
 7239SOL    HW226080  11.040   1.310   1.121  0.9989  0.4961 -1.0228
 7240SOL     OW26081   7.503   6.324   0.311  0.1172  0.8435 -0.0907
 7240SOL    HW126082   7.495   6.412   0.273 -2.9138  1.1531  1.0387
 7240SOL    HW226083   7.437   6.272   0.265  0.1846 -0.2086  0.9705
 7241SOL     OW26084   3.836   8.497   5.200  0.2468  0.4441  0.0016
 7241SOL    HW126085   3.862   8.427   5.140  1.4181  0.2738  0.6751
 7241SOL    HW226086   3.850   8.577   5.151  2.1076  0.3612  0.3070
 7242SOL     OW26087   2.080   9.314   0.074 -0.4879 -0.1323  0.0669
 7242SOL    HW126088   2.171   9.317   0.044 -0.3508 -0.1552  0.4808
 7242SOL    HW226089   2.044   9.235   0.034 -0.7685  0.6619 -1.3461
 7243SOL     OW26090   7.998   6.503   5.672 -0.0224 -0.0021 -0.4592
 7243SOL    HW126091   7.984   6.538   5.585  2.1311  0.3243 -0.7342
 7243SOL    HW226092   8.071   6.441   5.662  0.2367  0.0065  1.0773
 7244SOL     OW26093   4.158   6.857  10.255 -0.4309  0.1665  0.3222
 7244SOL    HW126094   4.173   6.949  10.233 -1.0031 -0.0081 -0.8687
 7244SOL    HW226095   4.241   6.814  10.238 -0.1171  0.4687  1.0253
 7245SOL     OW26096   8.918   7.119   3.091  0.0663  0.6640 -0.2578
 7245SOL    HW126097   8.960   7.064   3.157  0.7249  0.0628 -1.1541
 7245SOL    HW226098   8.934   7.074   3.008 -1.0465  1.2236 -0.7969
 7246SOL     OW26099   2.213   2.802   7.614  0.2747  0.1363  0.5925
 7246SOL    HW126100   2.137   2.745   7.602  0.9776 -1.1824  2.0826
 7246SOL    HW226101   2.179   2.879   7.660 -0.4421  0.3870 -0.3104
 7247SOL     OW26102   1.775   0.259   2.666  1.1325 -0.2959  0.0582
 7247SOL    HW126103   1.740   0.252   2.577  2.9995  1.2158 -0.8642
 7247SOL    HW226104   1.839   0.330   2.661  1.5063 -0.3702  2.5596
 7248SOL     OW26105   8.322   0.239   3.331 -0.5911 -0.3501 -0.0075
 7248SOL    HW126106   8.286   0.158   3.368  0.1228 -1.5163 -1.7475
 7248SOL    HW226107   8.398   0.211   3.279 -0.0083  1.4996 -0.2509
 7249SOL     OW26108   6.964   0.593   5.162 -0.0123 -0.2080  0.2137
 7249SOL    HW126109   6.903   0.620   5.231  1.8652  0.2191  1.7901
 7249SOL    HW226110   6.972   0.670   5.106  0.4670  0.3900  1.0724
 7250SOL     OW26111   0.379   1.914   3.507  0.3672  0.0198 -0.0229
 7250SOL    HW126112   0.358   2.003   3.537  3.3290  0.4060  1.3060
 7250SOL    HW226113   0.422   1.927   3.422  1.9569  0.0646  0.7453
 7251SOL     OW26114   5.262   2.447   7.544  0.2899  0.1281  0.4831
 7251SOL    HW126115   5.328   2.444   7.476 -0.8443  1.7889 -0.7738
 7251SOL    HW226116   5.303   2.405   7.620  1.3937 -2.3085 -1.3281
 7252SOL     OW26117   2.496   4.048   9.134  0.1321  0.3116 -0.3226
 7252SOL    HW126118   2.421   3.989   9.145  1.8357 -1.8049  0.9013
 7252SOL    HW226119   2.537   4.049   9.221  2.1338  0.4621 -1.2249
 7253SOL     OW26120   0.798   7.278   8.520 -0.2285 -0.0999 -0.4900
 7253SOL    HW126121   0.725   7.240   8.569  0.3957 -0.4633  0.1822
 7253SOL    HW226122   0.799   7.231   8.437  0.3766 -1.4057  0.2249
 7254SOL     OW26123   6.674   5.636   6.521  0.5374  0.0847 -0.5926
 7254SOL    HW126124   6.662   5.731   6.524 -2.9709 -0.2594  0.0395
 7254SOL    HW226125   6.658   5.613   6.429 -0.8396 -0.0609 -0.3378
 7255SOL     OW26126   7.702   0.191   2.343 -0.3476 -0.0431  0.4701
 7255SOL    HW126127   7.771   0.238   2.391  0.0262  1.7580 -1.6978
 7255SOL    HW226128   7.627   0.251   2.344 -0.5721 -0.2939 -0.5257
 7256SOL     OW26129  10.593  11.001   3.881  0.0250  0.2378  0.5962
 7256SOL    HW126130  10.499  10.984   3.893 -0.0324  1.4320  2.0804
 7256SOL    HW226131  10.617  11.058   3.954  1.6397  1.0009 -0.4683
 7257SOL     OW26132   5.117   4.853   4.194 -0.6711 -0.1872  0.1127
 7257SOL    HW126133   5.061   4.835   4.118  1.4289  1.0678 -1.8923
 7257SOL    HW226134   5.136   4.768   4.231 -2.1709 -0.8022 -0.4380
 7258SOL     OW26135   4.483   1.017   0.249  0.5495 -0.0843 -0.1978
 7258SOL    HW126136   4.526   1.033   0.165  1.3571  1.6942  0.5041
 7258SOL    HW226137   4.525   0.939   0.284  0.0078 -1.0171 -1.5383
 7259SOL     OW26138   5.760   2.764  10.468  0.1174 -0.6598 -0.2742
 7259SOL    HW126139   5.758   2.673  10.499  0.6812 -1.0247 -1.2580
 7259SOL    HW226140   5.811   2.760  10.387 -0.7102  0.3787 -0.8647
 7260SOL     OW26141   7.081   3.269   7.301  0.0542 -0.2104 -0.2662
 7260SOL    HW126142   7.159   3.302   7.345  0.8891  0.4293 -2.1311
 7260SOL    HW226143   7.008   3.312   7.346  0.8199 -0.0784  0.8836
 7261SOL     OW26144   9.612   5.290   0.888  0.3566  0.3075  0.3502
 7261SOL    HW126145   9.663   5.248   0.958  0.3796 -0.2861 -0.0106
 7261SOL    HW226146   9.676   5.340   0.839  0.6728 -0.6995 -0.2981
 7262SOL     OW26147   7.930   1.527   2.859  0.1019  0.0886  0.0101
 7262SOL    HW126148   8.010   1.579   2.869  0.0598  0.0351  0.6833
 7262SOL    HW226149   7.945   1.450   2.914 -0.6692  0.3900  0.6591
 7263SOL     OW26150  11.040  11.073   7.254 -0.3488 -0.3260 -0.6098
 7263SOL    HW126151  11.020  11.015   7.181  0.8471 -1.2785 -0.2213
 7263SOL    HW226152  10.990  11.037   7.328 -0.5655 -0.1210 -0.6546
 7264SOL     OW26153  10.809   6.712   5.868 -0.0891  0.1673  0.5385
 7264SOL    HW126154  10.862   6.698   5.946  0.3603  2.2069  0.6450
 7264SOL    HW226155  10.867   6.757   5.807 -0.9456  0.1453 -0.3266
 7265SOL     OW26156   6.398   4.070   6.257 -0.1045  0.0054 -0.3705
 7265SOL    HW126157   6.487   4.034   6.254  0.2478  0.3532  2.9380
 7265SOL    HW226158   6.341   3.993   6.246  0.5667 -0.3902 -1.2434
 7266SOL     OW26159   3.273   1.894   7.283 -0.2576  0.0135 -0.2203
 7266SOL    HW126160   3.341   1.869   7.346 -0.4758 -0.2671 -0.0923
 7266SOL    HW226161   3.248   1.812   7.240 -1.1522 -0.0480  0.3749
 7267SOL     OW26162   9.324   2.190   9.940 -0.0868 -0.4430  0.1264
 7267SOL    HW126163   9.274   2.270   9.927  0.7693  0.2118  0.7448
 7267SOL    HW226164   9.363   2.199  10.027  1.8633 -0.4897 -0.6846
 7268SOL     OW26165   8.461   2.468   3.478 -0.0174  0.3086 -0.0086
 7268SOL    HW126166   8.417   2.463   3.394 -0.0736 -1.8019  0.0859
 7268SOL    HW226167   8.531   2.531   3.465 -2.0458  2.6029 -0.6024
 7269SOL     OW26168   1.584   0.295   3.594  0.0879 -0.0179  0.5630
 7269SOL    HW126169   1.670   0.287   3.552  0.7850  1.2660  1.6546
 7269SOL    HW226170   1.522   0.276   3.524  1.2487 -2.3493  0.0645
 7270SOL     OW26171   6.090  10.824   6.587 -0.4686 -0.1199 -0.1258
 7270SOL    HW126172   6.099  10.913   6.554  0.5439 -0.7696 -1.7944
 7270SOL    HW226173   5.998  10.816   6.612 -0.5959  1.3420 -0.0620
 7271SOL     OW26174   1.313   6.758   1.835  0.1655  0.1036  0.1734
 7271SOL    HW126175   1.283   6.672   1.862  1.3674 -0.9709 -1.6613
 7271SOL    HW226176   1.323   6.752   1.740 -0.2108  2.4457 -0.0929
 7272SOL     OW26177   5.721   4.303   0.218  0.2656  0.1976 -0.3724
 7272SOL    HW126178   5.710   4.281   0.126 -1.2824  0.2537 -0.2172
 7272SOL    HW226179   5.641   4.349   0.242  0.2552 -0.5923  1.2291
 7273SOL     OW26180   1.536   0.171   2.151 -0.1313  0.5243 -0.4737
 7273SOL    HW126181   1.447   0.141   2.134  0.2425  0.2610 -2.1644
 7273SOL    HW226182   1.553   0.236   2.084  1.1475  0.1383 -0.5503
 7274SOL     OW26183   2.939   2.949  10.265  0.2710  0.2654  0.4005
 7274SOL    HW126184   3.033   2.959  10.273  0.1585  1.1574  0.7900
 7274SOL    HW226185   2.927   2.889  10.191  1.1561 -0.9008  1.1589
 7275SOL     OW26186   6.540   2.405   4.865 -0.0557  0.0889 -0.3295
 7275SOL    HW126187   6.618   2.456   4.889 -0.4948  0.8324 -0.4323
 7275SOL    HW226188   6.553   2.320   4.906 -0.1599  0.8804  1.4392
 7276SOL     OW26189   2.795   9.144  10.078  0.0671 -0.3517 -0.0829
 7276SOL    HW126190   2.729   9.124  10.011  0.4903 -2.4237  0.0581
 7276SOL    HW226191   2.876   9.107  10.042  0.9267  1.1369  0.2676
 7277SOL     OW26192   6.457   2.072  10.889  0.7185 -0.2991  0.8683
 7277SOL    HW126193   6.468   2.166  10.878  0.6730 -0.3217  0.6318
 7277SOL    HW226194   6.542   2.041  10.921  1.2453 -0.4086 -0.5524
 7278SOL     OW26195   5.713   9.979   0.641  0.4566 -0.1634  0.5236
 7278SOL    HW126196   5.720   9.903   0.698 -1.1378  0.2465  1.3136
 7278SOL    HW226197   5.722  10.055   0.699  1.2017  0.2713 -0.1339
 7279SOL     OW26198   2.139  10.555   2.123  0.5019 -0.1364  0.6787
 7279SOL    HW126199   2.100  10.544   2.210 -1.1424 -1.4185 -0.1665
 7279SOL    HW226200   2.123  10.472   2.078 -1.2221  1.3747 -1.7916
 7280SOL     OW26201   1.564   8.255   8.262  0.2403 -0.7517  0.0419
 7280SOL    HW126202   1.479   8.292   8.238  1.2148  1.4730 -0.2402
 7280SOL    HW226203   1.592   8.208   8.183  0.2927  0.5130 -0.7137
 7281SOL     OW26204   1.349   0.173   4.264 -0.0669 -0.2719  0.0843
 7281SOL    HW126205   1.263   0.170   4.222  0.1081  0.5926 -0.3537
 7281SOL    HW226206   1.353   0.093   4.316 -1.6127  0.2273  1.0441
 7282SOL     OW26207   3.553   8.395   4.219 -0.7027 -0.3487 -0.4115
 7282SOL    HW126208   3.511   8.417   4.302 -0.2832  0.4222 -0.3902
 7282SOL    HW226209   3.594   8.310   4.235 -0.4022 -0.0901  0.2645
 7283SOL     OW26210   5.836   2.774   0.181  0.3333 -0.2906  0.0776
 7283SOL    HW126211   5.749   2.814   0.182 -0.0252 -0.9697 -1.4761
 7283SOL    HW226212   5.822   2.687   0.219  0.5788  0.0033  0.8739
 7284SOL     OW26213   3.988  10.659   3.742 -0.2876 -0.5678 -0.7579
 7284SOL    HW126214   4.047  10.586   3.762  0.1971 -0.1944 -0.8136
 7284SOL    HW226215   3.904  10.617   3.720 -0.6957 -1.0358  1.4706
 7285SOL     OW26216   2.256  10.536   6.278  0.2402 -0.6101  0.0213
 7285SOL    HW126217   2.264  10.615   6.332  0.3950 -1.0994  0.7347
 7285SOL    HW226218   2.346  10.516   6.252  0.3953 -1.3512  1.0450
 7286SOL     OW26219   3.098  10.463   5.210  0.1465 -0.0491  0.6486
 7286SOL    HW126220   3.080  10.486   5.302  1.1679  0.2759  0.7812
 7286SOL    HW226221   3.021  10.495   5.162 -0.6118 -0.6427  1.4441
 7287SOL     OW26222   9.951   6.208  11.096 -0.2850  0.5846  0.2337
 7287SOL    HW126223   9.870   6.159  11.087  0.9158 -1.9478  1.9800
 7287SOL    HW226224  10.003   6.183  11.019 -0.0284 -0.2654  0.6641
 7288SOL     OW26225   0.208   0.171   4.025  0.4366  0.0899 -0.2195
 7288SOL    HW126226   0.153   0.221   3.964  0.7084 -1.2756 -1.6413
 7288SOL    HW226227   0.146   0.129   4.085  0.0764  0.3711 -0.3921
 7289SOL     OW26228   7.434   0.958   3.009  0.1357  0.1491  0.9271
 7289SOL    HW126229   7.343   0.968   3.036  0.2549  1.1851  1.0167
 7289SOL    HW226230   7.433   0.970   2.914  0.3728  2.0721  1.1119
 7290SOL     OW26231   2.026   9.243   5.376 -0.3230 -0.1477 -0.3045
 7290SOL    HW126232   2.073   9.314   5.421 -0.7142  0.4231 -0.7808
 7290SOL    HW226233   1.936   9.275   5.370 -0.0801  0.2619 -2.4127
 7291SOL     OW26234   2.224   5.832   5.603  0.2402  0.0463 -0.1862
 7291SOL    HW126235   2.224   5.894   5.677  2.6222  1.4696 -1.2484
 7291SOL    HW226236   2.250   5.885   5.528  2.2002 -2.1622 -1.1983
 7292SOL     OW26237   8.872   1.053   8.609 -0.5817  0.1310 -0.0993
 7292SOL    HW126238   8.811   1.126   8.600 -1.2392 -0.6772 -3.3605
 7292SOL    HW226239   8.957   1.089   8.583 -0.5720  0.1396 -0.0554
 7293SOL     OW26240   4.448  10.177   2.181 -0.1797  0.0589  0.1402
 7293SOL    HW126241   4.473  10.189   2.090 -1.0305  1.3522  0.0475
 7293SOL    HW226242   4.496  10.244   2.229  0.3604 -0.6929  0.6752
 7294SOL     OW26243   7.553   8.204   4.239 -0.2979 -0.3443 -0.4378
 7294SOL    HW126244   7.634   8.164   4.207 -0.0216  0.5097 -0.8506
 7294SOL    HW226245   7.484   8.146   4.208  0.1353 -0.9206 -0.3473
 7295SOL     OW26246   0.905   6.819   2.329 -0.4834  0.2618 -0.0517
 7295SOL    HW126247   0.854   6.830   2.410 -1.5628 -0.1303 -0.6531
 7295SOL    HW226248   0.869   6.884   2.269  0.0083  0.2532 -0.3589
 7296SOL     OW26249   0.053   9.388   6.265  0.4549 -0.1816  0.3515
 7296SOL    HW126250   0.030   9.348   6.181  1.9920 -1.5061  0.5115
 7296SOL    HW226251   0.074   9.478   6.244  0.7515 -0.4814 -0.6808
 7297SOL     OW26252   4.030   7.900   4.641  0.5689 -0.4239 -0.0731
 7297SOL    HW126253   4.084   7.895   4.562 -1.0688  1.1360 -1.3911
 7297SOL    HW226254   4.093   7.894   4.713  2.3271 -0.1839 -1.4965
 7298SOL     OW26255   2.166  10.295   2.022 -0.4747  0.2005  0.2218
 7298SOL    HW126256   2.254  10.334   2.020 -0.3128 -0.1695  0.1765
 7298SOL    HW226257   2.145  10.279   1.930 -1.4360  2.1818  0.0424
 7299SOL     OW26258   5.188   6.565   0.144 -0.1635  0.1421 -0.6737
 7299SOL    HW126259   5.270   6.593   0.185 -0.0541  0.0111 -0.7983
 7299SOL    HW226260   5.216   6.508   0.072 -0.4038 -1.8026  0.6878
 7300SOL     OW26261   2.670   3.409   5.262  0.0901  0.3073  0.0159
 7300SOL    HW126262   2.641   3.494   5.295  3.1132  1.3308  0.4382
 7300SOL    HW226263   2.755   3.428   5.222  1.3176 -2.6373  0.9558
 7301SOL     OW26264   3.616   3.575   5.155  0.0622 -0.3870 -0.6420
 7301SOL    HW126265   3.646   3.576   5.065 -2.8995 -1.3784 -1.7595
 7301SOL    HW226266   3.639   3.487   5.187  1.1881 -0.0059 -0.3375
 7302SOL     OW26267   6.790   0.966   6.594  0.3271 -0.1732 -0.0962
 7302SOL    HW126268   6.826   1.003   6.513 -0.0396  0.0996 -0.1324
 7302SOL    HW226269   6.710   0.921   6.567  0.1341  0.0302  0.1337
 7303SOL     OW26270   4.607   0.397   1.522 -0.4887  0.3523  0.2377
 7303SOL    HW126271   4.608   0.489   1.550 -0.0013 -0.1457  1.9786
 7303SOL    HW226272   4.648   0.399   1.436  0.9393  1.6092  0.8802
 7304SOL     OW26273   8.500   8.397  10.854 -0.3137 -0.9880 -0.4260
 7304SOL    HW126274   8.571   8.391  10.790  1.4328 -3.6018  1.4781
 7304SOL    HW226275   8.423   8.423  10.804  1.8770  1.8234 -2.6510
 7305SOL     OW26276   1.465   6.615   1.312  0.4941  0.4017  0.6277
 7305SOL    HW126277   1.509   6.548   1.260 -1.3358 -0.5499  0.2109
 7305SOL    HW226278   1.430   6.677   1.247 -0.5754 -0.0168  0.7799
 7306SOL     OW26279   7.659   8.927   4.161  0.2943  0.5148  0.1277
 7306SOL    HW126280   7.590   8.956   4.101 -1.1269  2.5451  2.5645
 7306SOL    HW226281   7.630   8.841   4.191 -1.4040  1.4243  1.2713
 7307SOL     OW26282   1.072   4.180   6.224  0.1885 -0.0983  0.3118
 7307SOL    HW126283   1.009   4.185   6.296  0.6508 -1.2394  0.8161
 7307SOL    HW226284   1.115   4.265   6.224 -2.3556  1.2964 -1.0202
 7308SOL     OW26285   5.439   6.299   0.825  0.5149 -0.3909  0.0610
 7308SOL    HW126286   5.406   6.273   0.911 -1.4455  0.3248 -0.4293
 7308SOL    HW226287   5.524   6.339   0.843  0.1537 -0.2746  1.6594
 7309SOL     OW26288   1.782   6.564   7.856  0.0792  0.4757 -0.0104
 7309SOL    HW126289   1.702   6.512   7.845  0.0415  0.1680  1.5480
 7309SOL    HW226290   1.853   6.504   7.834 -0.0781  0.4966 -0.5840
 7310SOL     OW26291  10.953   8.636   8.722  0.2419  0.3498 -0.4191
 7310SOL    HW126292  10.921   8.696   8.654 -0.4552  0.4890  0.0137
 7310SOL    HW226293  10.925   8.550   8.693 -1.9672  0.6168  0.6976
 7311SOL     OW26294   0.445   6.655  10.930 -0.3481  0.3331  0.2974
 7311SOL    HW126295   0.470   6.656  11.023 -1.8385  2.0291  0.7404
 7311SOL    HW226296   0.505   6.718  10.889 -2.1371  2.5679  0.9096
 7312SOL     OW26297   2.889   6.784   0.294 -0.3583  0.5971  0.3730
 7312SOL    HW126298   2.820   6.738   0.247 -0.1306  0.2475  0.3740
 7312SOL    HW226299   2.845   6.826   0.367 -0.7524  1.3296 -0.2736
 7313SOL     OW26300  11.112   1.561   2.123 -0.5657  0.1745  0.2132
 7313SOL    HW126301  11.041   1.574   2.186 -0.2773 -1.3930  0.9065
 7313SOL    HW226302  11.190   1.593   2.168 -0.7764  1.8281 -0.5210
 7314SOL     OW26303   3.590   3.255   2.685 -0.7165 -0.2563 -0.2188
 7314SOL    HW126304   3.679   3.263   2.720 -0.8046 -0.9780  0.2003
 7314SOL    HW226305   3.545   3.334   2.715  0.0988  0.6791 -1.4236
 7315SOL     OW26306   3.950   6.086  10.373 -0.3451  0.2220 -0.1390
 7315SOL    HW126307   3.998   6.164  10.400 -1.0172 -0.0485  2.0665
 7315SOL    HW226308   3.874   6.119  10.325  0.3070  0.8111 -0.7729
 7316SOL     OW26309   1.674   1.712   3.495  0.0611 -0.4472  0.4749
 7316SOL    HW126310   1.719   1.713   3.580  3.4912  0.7525 -1.1658
 7316SOL    HW226311   1.699   1.628   3.456  0.8250  0.1485 -0.3750
 7317SOL     OW26312  10.696   9.720   1.881  0.0049  0.1933  0.2739
 7317SOL    HW126313  10.776   9.669   1.895  0.5309  0.6711 -0.8476
 7317SOL    HW226314  10.694   9.735   1.786 -1.2078  0.5379  0.3370
 7318SOL     OW26315   7.447   6.769   7.403 -0.1037  0.4832  0.2843
 7318SOL    HW126316   7.405   6.683   7.402 -2.1341  1.3985  1.4410
 7318SOL    HW226317   7.468   6.787   7.311  0.2554 -1.1687  0.0190
 7319SOL     OW26318   3.819   1.919   3.577 -0.0861  0.1887 -0.4325
 7319SOL    HW126319   3.819   1.891   3.486  0.7643 -2.6378  0.3357
 7319SOL    HW226320   3.761   1.995   3.579 -2.6998 -1.5558 -2.7811
 7320SOL     OW26321   0.535   9.204   2.356  0.5146 -0.2490  0.2802
 7320SOL    HW126322   0.580   9.200   2.440 -0.7640 -2.2382  0.9453
 7320SOL    HW226323   0.458   9.260   2.372  2.0833  2.3714 -0.6106
 7321SOL     OW26324   9.977   0.200   1.063  0.2688  0.4433 -0.0036
 7321SOL    HW126325  10.061   0.244   1.071  0.3679 -0.0322  2.2889
 7321SOL    HW226326   9.955   0.206   0.970  2.6193  0.9378 -0.5885
 7322SOL     OW26327   4.679   5.251   7.871  0.0221  0.1288  0.1777
 7322SOL    HW126328   4.605   5.229   7.815  0.8811 -0.2614 -0.8273
 7322SOL    HW226329   4.698   5.343   7.851  1.3317 -0.4370 -1.4106
 7323SOL     OW26330   8.541   7.620   0.729  0.3443  0.2632 -0.6313
 7323SOL    HW126331   8.551   7.714   0.744 -2.1326  0.2071  2.3050
 7323SOL    HW226332   8.466   7.612   0.670  0.9466  0.1054 -1.3929
 7324SOL     OW26333   2.619   4.763   6.855  0.4365  0.3320 -0.4505
 7324SOL    HW126334   2.647   4.839   6.907 -0.0059  0.0332  0.2470
 7324SOL    HW226335   2.541   4.793   6.809  0.6579  0.5111 -0.7056
 7325SOL     OW26336  10.942   1.405   7.861 -0.4581 -0.0724  0.3491
 7325SOL    HW126337  11.022   1.388   7.910  1.3567  2.4101 -1.5149
 7325SOL    HW226338  10.943   1.342   7.789 -0.8131 -0.7874  0.9567
 7326SOL     OW26339   8.201   2.098   8.422 -0.3924 -0.0966 -0.3955
 7326SOL    HW126340   8.273   2.144   8.379  0.4394 -1.3524 -0.3723
 7326SOL    HW226341   8.148   2.063   8.350 -1.8280  1.9992 -0.4559
 7327SOL     OW26342   3.659   3.274   8.023  0.7316  0.1976 -0.0949
 7327SOL    HW126343   3.696   3.189   8.046  0.4913 -0.2782 -1.3685
 7327SOL    HW226344   3.565   3.265   8.040  0.9799  1.0517  2.1072
 7328SOL     OW26345   4.148   9.981   4.836  0.2081  0.0758  0.0645
 7328SOL    HW126346   4.085  10.052   4.850  1.2776  0.9185  0.7640
 7328SOL    HW226347   4.167   9.948   4.924 -1.0354 -1.7938 -0.3179
 7329SOL     OW26348   2.944   2.055   8.062  0.6893  0.2447  0.2785
 7329SOL    HW126349   2.852   2.069   8.082  0.7827  0.4008  0.6160
 7329SOL    HW226350   2.965   2.120   7.995  0.7950  0.8647  0.9009
 7330SOL     OW26351  10.466  11.095   7.310 -0.0433  0.0933  0.3579
 7330SOL    HW126352  10.557  11.084   7.284  0.8574  0.8445  2.8665
 7330SOL    HW226353  10.450  11.025   7.374 -0.2461  1.6289  2.0978
 7331SOL     OW26354  10.141  10.099   4.973  0.3983  0.1540  0.2133
 7331SOL    HW126355  10.203  10.112   4.901 -1.2447  3.1966 -0.8796
 7331SOL    HW226356  10.060  10.070   4.930  0.2151 -0.8710  1.2239
 7332SOL     OW26357  10.152   1.730   9.983 -0.4775  0.7936  0.0167
 7332SOL    HW126358  10.135   1.690   9.898 -0.3260  0.5612  0.0952
 7332SOL    HW226359  10.072   1.780  10.001 -1.8903 -1.6256  1.1380
 7333SOL     OW26360   3.284   5.199   1.370  0.6539  0.2237 -0.4511
 7333SOL    HW126361   3.299   5.148   1.290  0.5252 -1.4773  0.5576
 7333SOL    HW226362   3.362   5.253   1.380  1.2219 -0.4631 -1.0685
 7334SOL     OW26363   7.794   0.632   3.017  0.0833  0.1987 -0.3158
 7334SOL    HW126364   7.860   0.685   3.061  1.5890 -1.8165  0.0341
 7334SOL    HW226365   7.746   0.589   3.088  0.6809 -0.9306 -0.5667
 7335SOL     OW26366   1.405   8.762   6.399 -0.3525  0.1241  0.2913
 7335SOL    HW126367   1.494   8.793   6.383  0.1177 -0.9784  0.6228
 7335SOL    HW226368   1.402   8.676   6.357 -1.0420 -0.1526  0.8800
 7336SOL     OW26369  10.463   8.225   1.159  0.1730 -0.1899 -0.2803
 7336SOL    HW126370  10.528   8.266   1.103  0.0807 -0.8572 -0.8950
 7336SOL    HW226371  10.464   8.133   1.133 -0.3484 -0.3828  0.3547
 7337SOL     OW26372   3.141   4.856   1.075 -0.3615  0.2216 -0.2048
 7337SOL    HW126373   3.193   4.780   1.103  0.9283  0.4355 -1.8408
 7337SOL    HW226374   3.189   4.932   1.108 -0.3340  0.3876 -0.6231
 7338SOL     OW26375   0.185   2.968   7.885 -0.0394  0.3030  0.1734
 7338SOL    HW126376   0.116   2.957   7.950  0.6200  0.4505  0.9088
 7338SOL    HW226377   0.260   2.920   7.921  0.1881 -0.0333 -0.7113
 7339SOL     OW26378   8.502   4.281   6.264  0.3827 -0.0101 -0.0133
 7339SOL    HW126379   8.427   4.330   6.299  0.1315  0.2836 -0.9238
 7339SOL    HW226380   8.579   4.331   6.291  0.2694 -0.3518  0.9928
 7340SOL     OW26381   9.658   2.523   9.348 -0.0018 -0.5107 -0.2561
 7340SOL    HW126382   9.736   2.525   9.293 -0.0103 -0.2188 -0.2603
 7340SOL    HW226383   9.624   2.613   9.345 -1.2722 -1.0009 -1.5997
 7341SOL     OW26384   8.921   2.964  10.678 -0.1068  0.3328 -0.2422
 7341SOL    HW126385   8.882   3.014  10.750 -0.0801  1.5380 -1.0353
 7341SOL    HW226386   8.937   2.877  10.715 -3.2093 -0.1401  0.2347
 7342SOL     OW26387  11.050   4.665   6.846  0.0494  0.0781  0.4883
 7342SOL    HW126388  10.969   4.697   6.807  1.2119  1.0756 -1.2579
 7342SOL    HW226389  11.072   4.587   6.795  0.2651 -0.1286  0.8866
 7343SOL     OW26390   7.388   3.019  10.055 -0.5615 -0.0590 -0.2385
 7343SOL    HW126391   7.390   3.088  10.121  1.4838  0.6550 -0.9714
 7343SOL    HW226392   7.305   2.974  10.069 -0.2478  0.1104  2.7843
 7344SOL     OW26393   8.994   0.186   7.229  0.0250 -0.3671  0.2755
 7344SOL    HW126394   8.954   0.226   7.306  0.9190 -1.3132  1.2932
 7344SOL    HW226395   9.069   0.137   7.265  1.1806  0.1383 -1.3516
 7345SOL     OW26396   3.061   1.417   4.318 -0.1027 -0.2921 -0.2013
 7345SOL    HW126397   3.126   1.415   4.247  1.1031 -1.6084  0.8710
 7345SOL    HW226398   3.045   1.324   4.338 -0.4814  0.0569  1.1841
 7346SOL     OW26399   8.092  10.402  10.733 -0.0968  0.0515  0.1174
 7346SOL    HW126400   8.138  10.327  10.769 -0.5883 -0.3132 -0.0003
 7346SOL    HW226401   8.156  10.445  10.675  0.3705  0.0702  0.6472
 7347SOL     OW26402   2.614   6.725   3.959  0.3689 -0.1046  0.0190
 7347SOL    HW126403   2.694   6.673   3.960  0.8651  0.6502  0.6286
 7347SOL    HW226404   2.641   6.812   3.990 -0.4795  0.4677 -0.7844
 7348SOL     OW26405   1.125   9.423   9.197 -0.3852  0.0179 -0.3112
 7348SOL    HW126406   1.113   9.468   9.113  0.7254 -0.0233 -0.5068
 7348SOL    HW226407   1.157   9.491   9.256  0.2644 -0.2731 -0.3214
 7349SOL     OW26408   5.381   0.076   6.053  0.2272 -0.3616  0.3884
 7349SOL    HW126409   5.474   0.071   6.030  0.5262 -1.1681  1.6890
 7349SOL    HW226410   5.347  -0.011   6.035 -0.3447  0.0066 -0.3253
 7350SOL     OW26411   7.179   0.965   8.324  0.3672 -0.1688  0.1509
 7350SOL    HW126412   7.186   1.038   8.386  2.1847  0.0358 -0.2422
 7350SOL    HW226413   7.119   0.998   8.256  1.1457  0.9789 -0.0121
 7351SOL     OW26414  10.561   5.042   9.105 -0.1637 -0.3823  0.1949
 7351SOL    HW126415  10.590   5.034   9.195 -0.7149 -0.6974  0.3530
 7351SOL    HW226416  10.640   5.031   9.053  0.2819  0.5486  0.6514
 7352SOL     OW26417   5.865   8.149   5.291 -0.0746  0.1601 -0.3877
 7352SOL    HW126418   5.946   8.116   5.253  0.7043  0.8730  0.6186
 7352SOL    HW226419   5.890   8.186   5.375 -1.4900  0.1730  0.0583
 7353SOL     OW26420   3.512  10.344   2.570 -1.0273 -0.0974  0.5290
 7353SOL    HW126421   3.499  10.389   2.486  0.2007 -1.1413 -0.2615
 7353SOL    HW226422   3.545  10.257   2.545 -0.2585 -0.2805  2.1068
 7354SOL     OW26423   4.450   2.835   9.780  0.1390  0.0522  0.4951
 7354SOL    HW126424   4.492   2.898   9.721 -2.4453  0.3199 -1.2313
 7354SOL    HW226425   4.360   2.868   9.790  0.4173  0.0426  4.7307
 7355SOL     OW26426   4.653   4.890   6.627  0.0973  0.3211 -0.0054
 7355SOL    HW126427   4.559   4.900   6.644 -1.5349 -0.2356 -6.0762
 7355SOL    HW226428   4.689   4.978   6.634 -1.2575  0.8288  0.8403
 7356SOL     OW26429   3.898   0.630   0.735 -0.2431 -0.1214  0.3500
 7356SOL    HW126430   3.852   0.598   0.812  0.7732  0.0277  1.0341
 7356SOL    HW226431   3.910   0.724   0.751  1.7086 -0.4249  0.9650
 7357SOL     OW26432   6.048   7.810   7.706 -0.2254  0.2203  0.7392
 7357SOL    HW126433   5.988   7.738   7.726 -1.2686  1.7108  3.5055
 7357SOL    HW226434   6.044   7.867   7.783  3.7757  1.1033  0.4941
 7358SOL     OW26435   9.283   5.246   5.791  0.2261 -0.4474 -0.3832
 7358SOL    HW126436   9.319   5.329   5.822 -0.3541 -0.6966  1.0366
 7358SOL    HW226437   9.190   5.262   5.781  0.0635 -0.9818  0.1684
 7359SOL     OW26438   9.311   4.813   4.066  0.5455  0.2214 -0.5068
 7359SOL    HW126439   9.347   4.851   4.146  0.4201 -0.2280 -0.2326
 7359SOL    HW226440   9.257   4.883   4.028  0.3527  0.3297 -0.0343
 7360SOL     OW26441   5.818   7.410  10.207  0.9120 -0.6877 -0.4112
 7360SOL    HW126442   5.775   7.330  10.177 -1.8835  1.2750 -2.0585
 7360SOL    HW226443   5.752   7.454  10.260  0.7780  2.3449 -2.8402
 7361SOL     OW26444   5.990   3.561   9.175 -0.1279 -0.7278  0.0832
 7361SOL    HW126445   5.915   3.503   9.161 -0.2537 -1.0091  1.7720
 7361SOL    HW226446   5.967   3.641   9.129 -0.2125 -1.7618 -1.7982
 7362SOL     OW26447   7.982   9.113  10.552  0.3528 -0.0600  0.3051
 7362SOL    HW126448   8.010   9.063  10.629  1.2837  0.4687  0.3260
 7362SOL    HW226449   7.980   9.204  10.582  0.7499  0.1522 -0.2964
 7363SOL     OW26450   4.563   3.855   9.466  0.5766 -0.0430  0.0025
 7363SOL    HW126451   4.483   3.813   9.498  0.2316  1.0027  0.5683
 7363SOL    HW226452   4.628   3.784   9.464 -0.0963 -0.6961  0.5106
 7364SOL     OW26453   1.161   9.040   5.245  0.1783 -0.3507 -0.0696
 7364SOL    HW126454   1.190   9.012   5.158  2.4007  1.2584  0.0607
 7364SOL    HW226455   1.108   8.967   5.278  0.3117 -1.5047 -2.2613
 7365SOL     OW26456   6.419   7.871   2.070 -0.4507 -0.0383  0.2299
 7365SOL    HW126457   6.393   7.955   2.033 -0.5288 -0.4747 -0.7407
 7365SOL    HW226458   6.512   7.881   2.088 -0.4615  0.2657  0.1251
 7366SOL     OW26459   6.176   4.827   3.231 -0.4137  0.3891 -0.3838
 7366SOL    HW126460   6.101   4.885   3.219 -2.7188 -2.0251  1.0860
 7366SOL    HW226461   6.202   4.839   3.322  3.0548  3.2588 -1.5305
 7367SOL     OW26462   4.460   5.217   4.826  0.5342 -0.9445 -0.4044
 7367SOL    HW126463   4.513   5.297   4.823  1.4672 -1.5519 -0.3822
 7367SOL    HW226464   4.463   5.189   4.918 -0.3845 -0.6301 -0.2646
 7368SOL     OW26465   6.960   7.486   3.204 -0.2366  0.2066  0.4902
 7368SOL    HW126466   6.934   7.436   3.126 -0.9148 -0.1370  0.9286
 7368SOL    HW226467   7.034   7.538   3.174  0.7419 -1.3300  0.1178
 7369SOL     OW26468   1.470   1.892   1.054  0.1928 -0.1354 -0.1394
 7369SOL    HW126469   1.528   1.833   1.102  0.1081  0.2542  0.4520
 7369SOL    HW226470   1.387   1.888   1.101  0.6569  1.7158  0.9437
 7370SOL     OW26471   8.290   9.625   2.609 -0.2737 -0.8723  0.6736
 7370SOL    HW126472   8.281   9.546   2.662 -1.8575 -0.5694  0.8948
 7370SOL    HW226473   8.270   9.697   2.669  0.6331 -0.3169  0.3389
 7371SOL     OW26474   6.098   9.843   5.450  0.0216 -0.1695 -0.1451
 7371SOL    HW126475   6.108   9.931   5.485 -0.8646  0.2412 -0.8773
 7371SOL    HW226476   6.142   9.846   5.365 -0.3570 -0.3181 -0.3476
 7372SOL     OW26477   1.706  10.351  10.085 -0.0387 -0.0077 -0.5832
 7372SOL    HW126478   1.647  10.425  10.098  1.6928  1.2053  1.0000
 7372SOL    HW226479   1.757  10.346  10.167  1.0970 -1.8513 -1.3230
 7373SOL     OW26480   9.151   6.772   6.932 -0.0158 -0.4441 -0.5815
 7373SOL    HW126481   9.194   6.810   6.855 -0.4141  0.1125 -0.5354
 7373SOL    HW226482   9.057   6.787   6.917 -0.0838 -0.1798  0.0900
 7374SOL     OW26483   8.740   4.692   4.721  0.1148  0.1422 -0.3386
 7374SOL    HW126484   8.741   4.603   4.755  0.9520  0.0864 -0.5017
 7374SOL    HW226485   8.831   4.712   4.702 -0.0039  1.2131  0.1567
 7375SOL     OW26486   5.310   0.696   3.086  0.4365  0.1945  0.0447
 7375SOL    HW126487   5.279   0.688   2.996 -1.8123  2.7883  0.4764
 7375SOL    HW226488   5.405   0.701   3.078  0.4255 -1.3383 -1.9714
 7376SOL     OW26489   7.283   6.914   0.114  0.0215  0.1111 -0.4847
 7376SOL    HW126490   7.270   6.834   0.164 -0.2360  1.1171  1.1464
 7376SOL    HW226491   7.377   6.919   0.099 -0.0081 -0.6914 -0.9504
 7377SOL     OW26492  10.292   1.618   8.525 -0.3499 -0.0558  0.1217
 7377SOL    HW126493  10.351   1.542   8.523 -0.8034 -0.4059 -0.6149
 7377SOL    HW226494  10.223   1.596   8.462 -0.0823  1.3052 -0.6936
 7378SOL     OW26495   1.229   6.970  10.027 -0.1861 -0.5394  0.7130
 7378SOL    HW126496   1.298   6.990  10.090 -1.7677  0.0343  2.3390
 7378SOL    HW226497   1.272   6.915   9.961  1.8489 -0.0414  1.5496
 7379SOL     OW26498   5.031   6.208   9.702  0.2943 -0.3122 -0.0146
 7379SOL    HW126499   5.040   6.131   9.759 -3.1543  0.0308  1.2068
 7379SOL    HW226500   5.059   6.281   9.757  1.0271 -0.4022 -0.2597
 7380SOL     OW26501   1.788   4.955   4.582  0.4734  0.4104 -0.2367
 7380SOL    HW126502   1.747   5.026   4.631  0.2980  0.3214 -0.2565
 7380SOL    HW226503   1.735   4.878   4.601  1.1709  0.0979  0.4709
 7381SOL     OW26504   5.344   2.537   6.939 -0.3073 -0.1008  0.2521
 7381SOL    HW126505   5.438   2.553   6.951 -0.3112 -0.0517  0.2171
 7381SOL    HW226506   5.334   2.521   6.845 -0.5078  1.0515  0.0662
 7382SOL     OW26507   7.668   7.460   6.568  0.5517  0.1411  0.2768
 7382SOL    HW126508   7.761   7.480   6.571  0.3749  1.1620 -0.4616
 7382SOL    HW226509   7.650   7.437   6.477 -0.0009  0.4504  0.2979
 7383SOL     OW26510   4.543   0.579   8.491 -0.3583  0.0288  0.0745
 7383SOL    HW126511   4.474   0.621   8.439 -0.4570  0.7388  0.7560
 7383SOL    HW226512   4.512   0.587   8.582  0.6184  0.3428  0.3848
 7384SOL     OW26513   2.226   8.522   7.441  0.0568 -0.0555 -0.8238
 7384SOL    HW126514   2.218   8.481   7.356 -1.2269  1.1529 -1.3269
 7384SOL    HW226515   2.137   8.525   7.475  0.4881 -0.1015  0.3726
 7385SOL     OW26516   8.842   3.383   6.304  0.2656  0.0617  0.1026
 7385SOL    HW126517   8.912   3.319   6.306 -0.6224 -0.9275  0.8022
 7385SOL    HW226518   8.838   3.412   6.213 -0.1274 -1.8122 -0.5179
 7386SOL     OW26519   8.767   4.564   6.662  0.2254 -0.2232 -0.1136
 7386SOL    HW126520   8.708   4.533   6.593  0.5978 -0.2472 -0.4185
 7386SOL    HW226521   8.711   4.570   6.739 -0.0003 -1.0117 -0.2119
 7387SOL     OW26522   2.906   1.650   7.140  0.2990  0.3185  0.2734
 7387SOL    HW126523   2.950   1.722   7.095  1.2537  0.2373  1.0481
 7387SOL    HW226524   2.844   1.615   7.075 -0.2979  1.9210 -0.0622
 7388SOL     OW26525   7.450   0.527   4.479  0.0346  0.1584 -0.3041
 7388SOL    HW126526   7.384   0.485   4.424  0.1685  0.1468 -0.4562
 7388SOL    HW226527   7.444   0.481   4.563  0.7015 -0.6746 -0.7031
 7389SOL     OW26528   2.626   9.842   3.471 -0.3835 -0.1442 -0.4252
 7389SOL    HW126529   2.579   9.844   3.555 -0.0506 -0.3654 -0.2323
 7389SOL    HW226530   2.697   9.906   3.482  0.8573 -1.5741  0.1785
 7390SOL     OW26531   4.914   9.115   5.432 -0.2439  0.3234 -0.0735
 7390SOL    HW126532   4.928   9.021   5.416 -0.0789  0.6337 -2.0341
 7390SOL    HW226533   5.001   9.149   5.452 -0.0407  0.3161 -0.9255
 7391SOL     OW26534  11.015   9.655   7.305 -0.2043  0.0274  0.5893
 7391SOL    HW126535  11.006   9.654   7.209  1.4257 -2.8482  0.3351
 7391SOL    HW226536  10.939   9.608   7.337  0.1669 -0.6182  0.5402
 7392SOL     OW26537   2.709   2.111   3.353 -0.1946 -0.4604  0.3583
 7392SOL    HW126538   2.750   2.067   3.427 -0.7883  0.1217  1.0512
 7392SOL    HW226539   2.617   2.120   3.378 -0.3664 -0.1033 -0.3777
 7393SOL     OW26540   3.265   5.890   0.536 -0.6121 -0.7075 -0.0783
 7393SOL    HW126541   3.264   5.902   0.441 -0.4108 -3.9014 -0.5727
 7393SOL    HW226542   3.174   5.871   0.559 -0.6026 -0.2542  0.3574
 7394SOL     OW26543   1.998   0.138   9.409 -0.0126 -0.1084 -0.4221
 7394SOL    HW126544   2.069   0.080   9.383 -0.0938 -0.4592  0.1228
 7394SOL    HW226545   2.042   0.213   9.450  0.2578  1.4667 -3.3102
 7395SOL     OW26546  10.388   6.062   7.297  0.1275  0.6928 -0.2718
 7395SOL    HW126547  10.338   6.062   7.379 -1.7922  2.8712 -1.3455
 7395SOL    HW226548  10.475   6.094   7.322  0.4249 -1.1479  1.2836
 7396SOL     OW26549   2.626   4.436   4.731  0.3487 -0.6778 -0.0386
 7396SOL    HW126550   2.618   4.508   4.668  1.1528 -0.1045  0.4987
 7396SOL    HW226551   2.703   4.388   4.701 -0.0173 -1.1523 -0.2250
 7397SOL     OW26552   4.869   2.675   7.979 -0.4805  0.5879 -0.0350
 7397SOL    HW126553   4.810   2.600   7.969  0.3262 -0.0397 -0.1805
 7397SOL    HW226554   4.850   2.731   7.903 -0.6970  0.2578 -0.2255
 7398SOL     OW26555   8.044   5.061   6.925  0.1126  1.0521  0.4102
 7398SOL    HW126556   7.999   5.133   6.880 -2.2630  0.7992  2.1788
 7398SOL    HW226557   8.069   5.097   7.010  1.4805  0.5550  0.2443
 7399SOL     OW26558  10.006   7.962   4.497 -0.4569  0.3799 -0.5632
 7399SOL    HW126559   9.936   7.994   4.441 -1.2273 -1.3350 -0.6249
 7399SOL    HW226560   9.967   7.890   4.547  1.6066 -1.6462 -1.6975
 7400SOL     OW26561   6.185   9.426   3.029  0.4339  0.1244 -0.6871
 7400SOL    HW126562   6.198   9.457   2.939  0.5353 -0.3064 -0.8254
 7400SOL    HW226563   6.114   9.362   3.022 -0.7579  1.3563 -0.1727
 7401SOL     OW26564   0.449   9.463  10.330 -0.8583 -0.8492 -0.4084
 7401SOL    HW126565   0.430   9.520  10.256  1.1733 -0.3448 -0.6073
 7401SOL    HW226566   0.451   9.523  10.406 -0.8307 -1.0040 -0.2873
 7402SOL     OW26567   0.499   4.436   5.912 -0.0675 -0.7557  0.1084
 7402SOL    HW126568   0.496   4.502   5.842 -2.1511 -0.3771  0.4889
 7402SOL    HW226569   0.540   4.481   5.985  0.4329 -0.5589 -0.2846
 7403SOL     OW26570  10.973   1.780   0.177  0.2974  0.0347 -0.5380
 7403SOL    HW126571  10.994   1.690   0.153 -0.8260 -0.6355  0.8970
 7403SOL    HW226572  11.042   1.832   0.134  3.1180 -1.7609  1.4373
 7404SOL     OW26573   8.102   5.614   8.326 -0.1031 -0.1193  0.1531
 7404SOL    HW126574   8.187   5.657   8.333 -0.0319 -0.2315 -0.0081
 7404SOL    HW226575   8.124   5.522   8.307 -0.2189 -0.5038  1.7478
 7405SOL     OW26576   6.421   8.807   1.972  0.3680  0.2371 -0.0279
 7405SOL    HW126577   6.473   8.756   2.034  0.1872  0.2895  0.1665
 7405SOL    HW226578   6.454   8.897   1.983 -0.5943  0.4901  0.9766
 7406SOL     OW26579   2.977   7.647   9.673  0.2694 -0.0062 -0.5754
 7406SOL    HW126580   3.062   7.662   9.632  0.4419  1.4667  0.2409
 7406SOL    HW226581   2.995   7.587   9.746  0.7347  0.7356 -0.0647
 7407SOL     OW26582   0.450   0.856  10.271  0.0801 -0.1261 -0.0389
 7407SOL    HW126583   0.463   0.843  10.365  0.5543 -0.0497 -0.0938
 7407SOL    HW226584   0.374   0.914  10.266 -0.1520 -0.3940  0.2865
 7408SOL     OW26585   7.306   6.692   2.332  0.1417  0.4920 -0.3038
 7408SOL    HW126586   7.338   6.632   2.400  1.2016  0.1024 -1.1204
 7408SOL    HW226587   7.212   6.695   2.346  0.3027  0.1804  0.9939
 7409SOL     OW26588   7.454   9.108   1.551  0.0662  0.0666 -0.3184
 7409SOL    HW126589   7.524   9.160   1.591  1.5267 -0.9794 -1.4189
 7409SOL    HW226590   7.473   9.018   1.576 -1.0690 -0.2174 -0.4055
 7410SOL     OW26591   4.360   3.954   6.379 -0.2161 -0.2692  0.0575
 7410SOL    HW126592   4.375   4.001   6.297 -0.6889  0.0718  0.1674
 7410SOL    HW226593   4.277   3.988   6.413  0.2069 -0.0621  0.9188
 7411SOL     OW26594   1.615   4.553   7.967 -0.5715 -0.0399  0.1641
 7411SOL    HW126595   1.631   4.527   7.877  1.9846 -0.6325  0.7075
 7411SOL    HW226596   1.581   4.474   8.009  0.1045 -0.3572  0.1337
 7412SOL     OW26597   2.673   2.525   2.358  0.1456 -0.0349  0.0991
 7412SOL    HW126598   2.728   2.521   2.279 -0.5641  1.8792 -0.5764
 7412SOL    HW226599   2.694   2.610   2.397 -3.2294  1.5196 -1.0036
 7413SOL     OW26600   1.508   5.880   4.763 -0.1425  0.0487  0.6486
 7413SOL    HW126601   1.444   5.948   4.746  0.2880  0.5664  1.0817
 7413SOL    HW226602   1.567   5.917   4.829 -0.1245 -0.8822  1.1749
 7414SOL     OW26603  10.076   1.270   0.307 -0.1556  0.0648  0.0504
 7414SOL    HW126604  10.024   1.248   0.385 -1.0805 -1.2603 -0.8856
 7414SOL    HW226605  10.140   1.199   0.301 -0.8024 -0.4598 -0.9793
 7415SOL     OW26606   7.087   0.212  10.948  0.2746 -0.3525  0.3321
 7415SOL    HW126607   7.013   0.166  10.908 -0.6309  0.4429  1.0526
 7415SOL    HW226608   7.048   0.288  10.991  1.5134  0.0783  0.7460
 7416SOL     OW26609   0.220   8.837   2.745  0.0743 -0.0659  0.0004
 7416SOL    HW126610   0.297   8.827   2.802 -0.8528 -0.3260  1.2491
 7416SOL    HW226611   0.250   8.895   2.676  1.6879 -0.9328 -0.0952
 7417SOL     OW26612   8.663  10.386   2.260 -0.2696  0.0364 -0.2307
 7417SOL    HW126613   8.683  10.434   2.340 -0.7452  1.3760 -0.8876
 7417SOL    HW226614   8.638  10.299   2.290 -1.9452  0.9569  1.2254
 7418SOL     OW26615   5.328   4.092   6.640  0.2043 -0.3601 -0.2895
 7418SOL    HW126616   5.394   4.161   6.643 -0.8215  0.6452 -0.3668
 7418SOL    HW226617   5.278   4.103   6.721 -0.8951 -0.0724 -0.9943
 7419SOL     OW26618   1.162  10.699   3.895 -0.0585 -0.3560  0.0521
 7419SOL    HW126619   1.075  10.661   3.904  0.4268 -1.2103  1.2633
 7419SOL    HW226620   1.220  10.625   3.879  0.7855 -0.0918  1.6637
 7420SOL     OW26621   5.552   9.116   4.409  0.6347  0.0537  0.0745
 7420SOL    HW126622   5.579   9.026   4.394 -0.0119 -0.0329 -0.6329
 7420SOL    HW226623   5.578   9.163   4.329  1.8404  0.7164  0.8186
 7421SOL     OW26624   7.186   0.984  10.583 -0.2395  0.4470 -0.0630
 7421SOL    HW126625   7.173   1.012  10.493 -0.2495 -1.9480 -0.8667
 7421SOL    HW226626   7.114   1.024  10.631 -0.4407  1.4692 -1.1676
 7422SOL     OW26627   0.546   4.163   5.441  0.2691  0.3175 -0.3678
 7422SOL    HW126628   0.537   4.090   5.380  1.4034  0.3471 -0.5971
 7422SOL    HW226629   0.597   4.127   5.514  1.4539  1.0401 -0.8092
 7423SOL     OW26630   0.362   2.493   3.605 -0.4560  0.2912 -0.7189
 7423SOL    HW126631   0.285   2.501   3.549 -2.2347 -1.2788  1.2945
 7423SOL    HW226632   0.383   2.582   3.631 -1.7955  0.7285 -1.0707
 7424SOL     OW26633   2.359   1.362   5.393 -0.2787 -0.4467  0.2303
 7424SOL    HW126634   2.371   1.419   5.470  1.6980 -0.2547 -0.1521
 7424SOL    HW226635   2.276   1.389   5.355  1.0672  3.1229 -0.6024
 7425SOL     OW26636   1.739   7.957   6.730 -0.2759  0.2250 -0.3256
 7425SOL    HW126637   1.773   8.031   6.680  1.9206 -0.6786 -0.2794
 7425SOL    HW226638   1.766   7.975   6.820  2.5991 -1.7093 -0.6405
 7426SOL     OW26639  10.845   1.274   3.385 -0.2748  0.2631 -0.3870
 7426SOL    HW126640  10.876   1.192   3.347  1.4281  1.3128 -1.3899
 7426SOL    HW226641  10.896   1.342   3.341 -1.4054  1.8587  0.6386
 7427SOL     OW26642   2.259   2.202   5.180  0.7156 -0.3476 -0.3477
 7427SOL    HW126643   2.302   2.201   5.265  0.9234 -2.1002 -0.4286
 7427SOL    HW226644   2.169   2.176   5.198  0.0895  1.5980 -0.4055
 7428SOL     OW26645   6.079   3.171   3.999  0.2881 -0.0183  0.3672
 7428SOL    HW126646   6.114   3.104   4.058  1.9206 -0.1516 -0.6744
 7428SOL    HW226647   6.147   3.238   3.995 -0.5500  0.8367  0.0010
 7429SOL     OW26648   0.958  10.860   9.083  0.1402 -0.8902  0.0986
 7429SOL    HW126649   0.863  10.848   9.081 -0.1212  0.2090  2.5197
 7429SOL    HW226650   0.973  10.942   9.038  0.3935 -2.6194 -3.2800
 7430SOL     OW26651   8.579   1.091   8.340 -0.5503 -0.2639 -0.6205
 7430SOL    HW126652   8.565   1.141   8.259  1.1764  0.6716 -0.3822
 7430SOL    HW226653   8.663   1.047   8.327 -0.0068  0.2738  0.8234
 7431SOL     OW26654   8.349   4.929  10.716  0.1174 -0.0973  0.5573
 7431SOL    HW126655   8.424   4.920  10.775 -2.2334 -0.6976  3.7314
 7431SOL    HW226656   8.287   4.983  10.764 -2.0847 -0.8388 -1.2763
 7432SOL     OW26657   1.919   8.979   1.635  0.7753  0.1929 -0.1426
 7432SOL    HW126658   2.002   9.019   1.663 -0.2726  1.5001  1.2918
 7432SOL    HW226659   1.916   8.895   1.682  1.5603 -0.1685 -0.7152
 7433SOL     OW26660   0.247   5.977   5.532 -0.0449 -0.3305  0.9372
 7433SOL    HW126661   0.305   5.951   5.603  2.7750  0.1293 -1.0380
 7433SOL    HW226662   0.260   6.071   5.524 -0.5598 -0.3293  0.0228
 7434SOL     OW26663   4.397   8.133   4.844  0.5541  0.1871 -0.4387
 7434SOL    HW126664   4.484   8.169   4.865  0.4645  0.2384 -0.1459
 7434SOL    HW226665   4.348   8.207   4.810  0.1526  0.5225  0.7999
 7435SOL     OW26666   7.694   9.952  10.867  0.2473 -0.7804 -0.3829
 7435SOL    HW126667   7.702  10.020  10.800 -1.7566 -0.1325 -0.0521
 7435SOL    HW226668   7.730   9.874  10.826  3.5753  0.6257 -0.4188
 7436SOL     OW26669   0.184   0.462   9.743 -0.1272  0.5252 -0.6113
 7436SOL    HW126670   0.212   0.475   9.833 -0.5593 -0.6852 -0.2762
 7436SOL    HW226671   0.243   0.395   9.708 -1.3985 -0.7471 -0.4486
 7437SOL     OW26672   7.630   6.379   3.554  0.6576 -0.3046 -0.2240
 7437SOL    HW126673   7.548   6.386   3.603  0.7894 -2.0808  0.2938
 7437SOL    HW226674   7.629   6.291   3.516  2.3295 -0.3678 -0.2078
 7438SOL     OW26675   9.200   0.935   5.996 -0.1794  0.2235  0.5001
 7438SOL    HW126676   9.123   0.968   6.042 -1.8918 -0.1389 -1.9063
 7438SOL    HW226677   9.166   0.866   5.940  1.8799  0.1883 -0.7871
 7439SOL     OW26678   0.310   3.080   4.753  0.1468 -0.0470 -0.6339
 7439SOL    HW126679   0.266   3.155   4.713  1.0607  0.9237  0.1160
 7439SOL    HW226680   0.337   3.112   4.839  0.9973 -1.0853 -0.5006
 7440SOL     OW26681   3.226   8.877   6.276 -0.0438  0.2440  0.4955
 7440SOL    HW126682   3.148   8.878   6.219  0.4564 -2.7283 -0.3711
 7440SOL    HW226683   3.298   8.901   6.218  0.3828 -2.2226 -0.0829
 7441SOL     OW26684   3.949   4.337   8.348  0.3127  0.0254  0.5727
 7441SOL    HW126685   3.917   4.251   8.374 -2.9294  0.2321 -2.0236
 7441SOL    HW226686   4.010   4.319   8.275 -0.4770 -0.1126 -0.0687
 7442SOL     OW26687  10.554  10.770   1.786 -0.1941 -0.5313 -0.4573
 7442SOL    HW126688  10.531  10.814   1.703  0.0241  1.9123  0.6906
 7442SOL    HW226689  10.640  10.805   1.809 -1.0573  0.3157  1.7236
 7443SOL     OW26690   2.969   9.070  11.025  0.2890  0.0591  0.2287
 7443SOL    HW126691   3.030   9.099  10.957 -0.6151  0.4937 -0.4335
 7443SOL    HW226692   3.018   9.007  11.077  0.6110 -1.4050 -1.7044
 7444SOL     OW26693   3.445   1.817   7.729 -0.0033 -0.3385 -0.7062
 7444SOL    HW126694   3.400   1.778   7.804 -1.1122 -1.0765 -1.7229
 7444SOL    HW226695   3.510   1.875   7.768 -0.6217 -0.6233  0.8269
 7445SOL     OW26696   9.918  10.346  10.373 -0.0111  0.0629  0.0112
 7445SOL    HW126697   9.921  10.288  10.450 -1.1645 -0.9781 -0.6970
 7445SOL    HW226698   9.992  10.318  10.319 -0.7634 -1.0185 -0.4895
 7446SOL     OW26699   3.180   6.520   8.076 -0.2495 -0.3746  0.2101
 7446SOL    HW126700   3.205   6.432   8.049  0.9673  0.7809 -2.8959
 7446SOL    HW226701   3.262   6.561   8.103 -0.3241  0.6291 -1.0351
 7447SOL     OW26702  10.648   3.385   5.086 -0.1550  0.2183  0.2613
 7447SOL    HW126703  10.562   3.407   5.050  0.5956 -0.4693 -2.1656
 7447SOL    HW226704  10.688   3.470   5.106 -0.8233  0.6128 -0.0318
 7448SOL     OW26705   0.519   7.744  10.074  0.2547 -0.1878 -0.0246
 7448SOL    HW126706   0.475   7.676  10.024  0.4927  1.0750 -2.0481
 7448SOL    HW226707   0.573   7.790  10.010 -0.7150  2.6035  1.0149
 7449SOL     OW26708   9.188   1.118   4.877 -0.0714 -0.3882  0.3094
 7449SOL    HW126709   9.162   1.026   4.869 -0.6701 -0.1956 -0.1093
 7449SOL    HW226710   9.139   1.151   4.952  0.3766 -0.4883  0.6466
 7450SOL     OW26711   2.584   1.148   4.051 -0.5559  0.2321  0.5442
 7450SOL    HW126712   2.509   1.197   4.016 -0.4737 -0.4608 -0.6726
 7450SOL    HW226713   2.646   1.215   4.080 -1.0469  0.8273  0.2394
 7451SOL     OW26714  10.613  10.168  10.438  0.1512 -0.4110  0.2273
 7451SOL    HW126715  10.662  10.191  10.517 -0.2698  1.2237  0.0571
 7451SOL    HW226716  10.536  10.225  10.440 -0.4648 -1.1740 -0.7640
 7452SOL     OW26717  10.105   8.659   6.011  0.1940  0.4819  0.5054
 7452SOL    HW126718  10.031   8.718   5.999  1.0048  0.9506 -2.9635
 7452SOL    HW226719  10.065   8.572   6.014 -0.5738  0.7146 -1.4626
 7453SOL     OW26720   5.085   8.899   8.975  0.3344 -0.0846  0.1424
 7453SOL    HW126721   5.132   8.933   8.899  0.9541 -0.8535  0.1695
 7453SOL    HW226722   5.015   8.845   8.938  1.0401 -1.0011  0.0969
 7454SOL     OW26723   4.470   7.036   6.772 -0.1724  0.0927  0.5687
 7454SOL    HW126724   4.502   7.043   6.682  0.7300  0.2469  0.8907
 7454SOL    HW226725   4.476   6.943   6.792 -0.5960  0.0244  0.3998
 7455SOL     OW26726   9.914   5.326   6.826 -0.3824  0.8584 -0.0766
 7455SOL    HW126727   9.944   5.411   6.857  1.4236  0.1473  0.2532
 7455SOL    HW226728   9.922   5.269   6.903  0.2840 -0.0197 -0.7849
 7456SOL     OW26729   1.356   7.331  10.694  0.4667  0.1533  0.0790
 7456SOL    HW126730   1.293   7.261  10.679 -0.2468  0.8837 -0.4239
 7456SOL    HW226731   1.442   7.288  10.689  0.0643 -0.5664 -0.8868
 7457SOL     OW26732   6.594   6.107   7.956 -0.5452 -0.6882 -0.7432
 7457SOL    HW126733   6.654   6.152   7.897 -4.0378  0.1883 -4.0412
 7457SOL    HW226734   6.565   6.175   8.017 -0.3450 -0.3463 -1.0241
 7458SOL     OW26735   7.620   5.438   8.008  0.2929  0.2985 -0.5088
 7458SOL    HW126736   7.624   5.345   8.033 -0.7940  0.3047 -0.2494
 7458SOL    HW226737   7.644   5.485   8.088 -2.0975  0.2866  0.3095
 7459SOL     OW26738   3.146   9.333   0.451 -0.2110 -0.3096 -0.3232
 7459SOL    HW126739   3.204   9.390   0.500 -0.8065  0.2605 -0.2650
 7459SOL    HW226740   3.108   9.274   0.516 -1.3089  0.7055  0.0079
 7460SOL     OW26741   6.036   2.386   3.328  0.2366 -0.0909 -0.3993
 7460SOL    HW126742   5.970   2.405   3.395 -0.9655 -0.5246 -1.4252
 7460SOL    HW226743   6.094   2.322   3.369 -1.8433 -2.1738 -0.4985
 7461SOL     OW26744   1.375   0.221   7.061  0.4673 -0.4138 -0.4782
 7461SOL    HW126745   1.370   0.125   7.058  0.2014 -0.3935 -0.7004
 7461SOL    HW226746   1.453   0.243   7.010  1.4251 -0.5926  0.8578
 7462SOL     OW26747   3.458   5.276   2.954 -0.1384  0.5804 -0.3630
 7462SOL    HW126748   3.442   5.298   3.046 -1.1558  0.5352 -0.5201
 7462SOL    HW226749   3.553   5.268   2.948 -0.1101 -0.4062  0.9227
 7463SOL     OW26750  10.458   2.352   8.689  0.0718  0.1875  0.3676
 7463SOL    HW126751  10.528   2.295   8.719  2.2575  2.5486  0.1578
 7463SOL    HW226752  10.434   2.317   8.603  0.0589 -1.4075  0.9918
 7464SOL     OW26753   3.064   1.202   8.892  0.0945 -0.3540 -0.4786
 7464SOL    HW126754   3.085   1.214   8.800  0.8569 -1.4312 -0.4664
 7464SOL    HW226755   3.131   1.252   8.939  0.2706 -0.5605 -0.5051
 7465SOL     OW26756   1.147   3.471   1.084 -0.3948  0.5547  0.2415
 7465SOL    HW126757   1.094   3.393   1.103 -0.1604  0.0051 -1.2200
 7465SOL    HW226758   1.185   3.495   1.168 -1.1033 -0.4327  0.8694
 7466SOL     OW26759   5.922   5.888   7.175 -0.2725 -0.1103  0.5075
 7466SOL    HW126760   5.889   5.978   7.169  0.4223  0.1815  0.9710
 7466SOL    HW226761   5.999   5.887   7.118 -1.6709 -1.0979 -1.4983
 7467SOL     OW26762  10.504  11.011   2.511  0.2205 -0.0443  0.3132
 7467SOL    HW126763  10.421  11.047   2.479  0.0943  0.0977  0.7897
 7467SOL    HW226764  10.556  10.999   2.433 -0.6941 -1.2876 -0.1353
 7468SOL     OW26765   0.637   8.401   8.279  0.0524  0.1145 -0.3371
 7468SOL    HW126766   0.720   8.354   8.283 -1.2019 -2.4722 -1.5047
 7468SOL    HW226767   0.590   8.374   8.357  0.1804  1.4150  0.2190
 7469SOL     OW26768   8.535   3.696   6.435 -0.4776 -0.0071  0.5893
 7469SOL    HW126769   8.497   3.672   6.350 -1.1381 -2.6213  1.5234
 7469SOL    HW226770   8.464   3.739   6.482 -0.6202 -0.0328  0.3965
 7470SOL     OW26771   1.831   5.395   0.446  0.7321 -0.0574 -0.6631
 7470SOL    HW126772   1.759   5.434   0.496  1.4085  0.2535  0.0973
 7470SOL    HW226773   1.892   5.467   0.432  2.0623 -0.8352  0.8712
 7471SOL     OW26774   2.042   2.610   5.390  0.1298  0.4928  0.1683
 7471SOL    HW126775   2.007   2.661   5.317 -2.8883  0.8469  1.6975
 7471SOL    HW226776   2.039   2.670   5.465  0.5975 -0.6602  1.1478
 7472SOL     OW26777   3.924   3.516   0.558  0.5586  0.0079 -0.1484
 7472SOL    HW126778   3.980   3.585   0.595  0.9078 -0.3512  0.0011
 7472SOL    HW226779   3.854   3.505   0.623  0.7024 -0.0309  0.0006
 7473SOL     OW26780   4.968   7.982   6.844 -0.1012  0.4167 -0.4156
 7473SOL    HW126781   4.988   7.924   6.917 -2.2029 -0.9779 -0.8554
 7473SOL    HW226782   5.001   8.067   6.871  1.5610 -0.6029  0.9820
 7474SOL     OW26783   9.400   9.116   4.397 -0.0236  0.1025 -0.0529
 7474SOL    HW126784   9.421   9.023   4.404  0.6350  0.0464 -2.2679
 7474SOL    HW226785   9.416   9.138   4.306 -3.2747  1.6619 -0.4047
 7475SOL     OW26786   0.614   7.718   5.649 -0.3150 -0.3003  0.3146
 7475SOL    HW126787   0.702   7.712   5.686 -0.2598  0.0294  0.2347
 7475SOL    HW226788   0.609   7.805   5.611 -1.1246  0.1727  1.4507
 7476SOL     OW26789   5.188   6.687   4.323  0.4570  0.5388 -0.0851
 7476SOL    HW126790   5.236   6.606   4.308  0.1050  0.4188 -0.5728
 7476SOL    HW226791   5.137   6.700   4.243  0.5279  1.2504 -0.0242
 7477SOL     OW26792   9.783  10.374   5.587  0.3388  0.2659  0.1339
 7477SOL    HW126793   9.722  10.448   5.588  0.0976  0.0738  1.4605
 7477SOL    HW226794   9.820  10.372   5.675  2.7210  0.7165 -0.7827
 7478SOL     OW26795  10.592   5.398   3.138 -0.1380 -0.1087  0.0352
 7478SOL    HW126796  10.630   5.424   3.222 -0.6450 -2.1893  0.9983
 7478SOL    HW226797  10.666   5.368   3.086 -0.0686 -1.4301  0.8305
 7479SOL     OW26798   1.571   6.728   7.036 -0.1458  0.2673 -0.0209
 7479SOL    HW126799   1.536   6.677   6.963 -0.0372 -1.2722  0.9502
 7479SOL    HW226800   1.495   6.752   7.088 -0.0129 -1.0711  0.8389
 7480SOL     OW26801   8.992  10.792   3.634 -0.5303 -0.0095  0.2834
 7480SOL    HW126802   8.942  10.735   3.575 -0.4309  0.5613 -0.3731
 7480SOL    HW226803   8.938  10.870   3.644 -0.2896  0.1315  0.4886
 7481SOL     OW26804   9.849   5.094   8.660  0.4631  0.2169 -0.5857
 7481SOL    HW126805   9.793   5.091   8.582  0.4717  0.4355 -0.6000
 7481SOL    HW226806   9.938   5.096   8.626  0.5271 -1.0418 -0.5559
 7482SOL     OW26807   9.893   7.255   0.031  0.2564 -0.2555  0.3935
 7482SOL    HW126808   9.897   7.347   0.003 -0.6551 -0.5362 -0.7287
 7482SOL    HW226809   9.889   7.260   0.126 -1.2572  0.9508  0.3092
 7483SOL     OW26810   0.225   0.567   0.374 -0.2780 -0.8404  0.5534
 7483SOL    HW126811   0.193   0.606   0.293  0.5503  0.9457  1.0473
 7483SOL    HW226812   0.229   0.473   0.355 -1.2570 -0.5945 -1.0536
 7484SOL     OW26813   6.900   0.757   6.300  0.8775 -0.1558  0.3081
 7484SOL    HW126814   6.896   0.786   6.209  0.9726 -2.0840 -0.3564
 7484SOL    HW226815   6.821   0.793   6.340  2.1624  3.0417  0.2643
 7485SOL     OW26816   3.346   9.349   9.845 -0.8482 -0.1565 -0.3760
 7485SOL    HW126817   3.436   9.350   9.813 -0.1716 -0.0602  1.4496
 7485SOL    HW226818   3.320   9.441   9.846 -1.7650 -0.3133 -2.9096
 7486SOL     OW26819   9.856   7.082   4.551  0.0814 -0.1569  0.1636
 7486SOL    HW126820   9.941   7.041   4.569 -0.0915 -0.4270  0.3862
 7486SOL    HW226821   9.798   7.047   4.620 -0.5943 -1.1931 -0.8925
 7487SOL     OW26822   1.560   6.921   3.222 -0.1057  0.2077  0.1902
 7487SOL    HW126823   1.501   6.953   3.154 -0.3413  2.1007  1.2050
 7487SOL    HW226824   1.605   6.999   3.253  1.2192 -0.8561  1.0676
 7488SOL     OW26825   2.222   8.558   6.606  0.1724 -0.0529  1.0468
 7488SOL    HW126826   2.149   8.524   6.553  0.5352  0.1466  0.4004
 7488SOL    HW226827   2.189   8.640   6.643  0.3054  0.4186  0.1536
 7489SOL     OW26828   5.923   3.055   8.251 -0.7627  0.2834  0.0850
 7489SOL    HW126829   5.916   3.065   8.156  1.8095  2.2626 -0.0114
 7489SOL    HW226830   5.880   3.132   8.287  1.7660  1.7522  0.2401
 7490SOL     OW26831   7.126   9.170  10.467 -0.2500  0.8110  0.0129
 7490SOL    HW126832   7.066   9.177  10.541 -0.6574 -0.4370 -0.1632
 7490SOL    HW226833   7.098   9.090  10.421  0.9938  0.6852 -0.5742
 7491SOL     OW26834   5.667  10.005   1.614  0.5560 -0.1171 -0.2059
 7491SOL    HW126835   5.705   9.919   1.595  1.6610  0.3932 -0.4141
 7491SOL    HW226836   5.742  10.059   1.639  0.0645  1.0941 -1.2046
 7492SOL     OW26837   8.639   6.703   7.958  0.0163 -0.4982  0.6105
 7492SOL    HW126838   8.551   6.736   7.979  0.1195  0.5895 -0.5478
 7492SOL    HW226839   8.672   6.671   8.041 -1.9016 -1.9936  0.8764
 7493SOL     OW26840   9.691   6.665   0.996 -0.2247 -0.3901  0.1065
 7493SOL    HW126841   9.637   6.719   0.938  1.3805  1.6236  0.3793
 7493SOL    HW226842   9.683   6.706   1.082  1.9990  0.2694  0.0763
 7494SOL     OW26843   0.809   5.840   0.347  0.1622  0.3038  0.2483
 7494SOL    HW126844   0.734   5.803   0.301 -0.4081  2.6153 -0.8230
 7494SOL    HW226845   0.784   5.839   0.440  0.3024 -2.1187  0.3174
 7495SOL     OW26846   7.271  10.027  11.018 -0.3012  0.4446  0.2795
 7495SOL    HW126847   7.225   9.965  11.073 -2.5114  2.1126  0.4561
 7495SOL    HW226848   7.263  10.111  11.064 -3.5624  2.2806 -3.0129
 7496SOL     OW26849  10.842   7.808   8.850 -0.2424  0.2563 -0.7251
 7496SOL    HW126850  10.813   7.857   8.773 -0.3829  2.3266  0.5534
 7496SOL    HW226851  10.786   7.730   8.851 -1.0992  0.8200 -2.0036
 7497SOL     OW26852   8.891   0.911   6.851 -0.2375 -0.3777  0.2319
 7497SOL    HW126853   8.858   0.835   6.898 -0.9002  1.1232  2.3553
 7497SOL    HW226854   8.813   0.962   6.829  0.2569  0.1980 -0.2468
 7498SOL     OW26855   1.688   3.125   2.301 -0.3123 -0.0204 -0.5927
 7498SOL    HW126856   1.596   3.125   2.276 -1.2504 -0.0828  2.4361
 7498SOL    HW226857   1.723   3.043   2.265 -2.3923 -1.7672  1.0752
 7499SOL     OW26858   0.393   0.471   8.405  0.3420 -0.2833  0.5812
 7499SOL    HW126859   0.352   0.554   8.379  1.6903  0.3518  0.4389
 7499SOL    HW226860   0.321   0.407   8.400 -0.4954  0.6775 -0.2414
 7500SOL     OW26861   8.747   2.754   2.936 -0.1931 -0.8387  0.2629
 7500SOL    HW126862   8.757   2.795   3.022  1.6582 -0.8939  0.1225
 7500SOL    HW226863   8.690   2.813   2.888 -2.0298 -1.2724  1.7881
 7501SOL     OW26864   4.605   1.064   0.030 -0.2687 -0.0215  0.6509
 7501SOL    HW126865   4.688   1.025   0.001 -2.5610 -2.4626 -3.6148
 7501SOL    HW226866   4.588   1.134  -0.033 -0.2523  2.5238  3.2464
 7502SOL     OW26867   4.200   9.179  10.502  0.2432 -0.1158 -0.2147
 7502SOL    HW126868   4.242   9.156  10.585  0.0775 -0.8998 -0.3460
 7502SOL    HW226869   4.273   9.208  10.446  0.1914  1.9511  0.6782
 7503SOL     OW26870   7.330   4.730   4.368 -0.6006 -0.0187  0.1663
 7503SOL    HW126871   7.297   4.817   4.345 -1.8615 -0.5658 -0.1955
 7503SOL    HW226872   7.307   4.675   4.293 -1.3957 -1.0330  1.1148
 7504SOL     OW26873   2.952   7.383  10.332 -0.5261  0.2775 -0.1381
 7504SOL    HW126874   3.042   7.363  10.306 -0.1796  0.1656  1.0800
 7504SOL    HW226875   2.906   7.299  10.324  0.0871 -0.2689  1.5688
 7505SOL     OW26876   3.289   6.501   5.071 -0.1361 -0.1977  0.0756
 7505SOL    HW126877   3.222   6.525   5.006  0.4611  0.2042 -0.4012
 7505SOL    HW226878   3.240   6.456   5.140 -0.9378  0.3225 -0.1388
 7506SOL     OW26879   8.690   4.357   2.671 -0.1427 -0.4451 -0.1392
 7506SOL    HW126880   8.706   4.314   2.587 -1.0246  0.7227 -0.9410
 7506SOL    HW226881   8.777   4.386   2.700 -0.0384  1.0345 -1.7484
 7507SOL     OW26882   2.550   9.296   4.439  0.4077 -0.8335 -0.3752
 7507SOL    HW126883   2.640   9.265   4.429  0.4335 -2.4881  3.1545
 7507SOL    HW226884   2.542   9.316   4.533 -2.7626 -0.2627 -0.6519
 7508SOL     OW26885   9.633   3.311   9.680  0.2728  0.0147  0.0278
 7508SOL    HW126886   9.569   3.241   9.690  1.5232 -1.0199  1.2201
 7508SOL    HW226887   9.659   3.307   9.588 -0.0956 -0.7214 -0.0504
 7509SOL     OW26888   3.072  10.608  10.428  0.4870 -0.7309  0.6157
 7509SOL    HW126889   3.115  10.599  10.343 -2.4184 -2.0085 -0.8809
 7509SOL    HW226890   3.015  10.531  10.434 -0.5633  0.1393  2.9919
 7510SOL     OW26891   0.281  10.984   6.565 -0.2225 -0.5079  0.2781
 7510SOL    HW126892   0.339  10.976   6.489  0.1901  1.2790  0.3508
 7510SOL    HW226893   0.340  10.982   6.640 -0.2672  0.7546  0.3772
 7511SOL     OW26894   9.460   0.104   5.688  0.3781 -0.0850 -0.0383
 7511SOL    HW126895   9.499   0.090   5.601 -0.8350 -1.4804 -0.4119
 7511SOL    HW226896   9.491   0.029   5.740  0.4023  0.2796  0.4740
 7512SOL     OW26897   4.674   7.513   9.682  0.2805  0.3435  0.0418
 7512SOL    HW126898   4.605   7.448   9.672 -0.6378  1.2599  0.1519
 7512SOL    HW226899   4.701   7.507   9.774  0.6187 -0.2800 -0.0988
 7513SOL     OW26900   1.468   4.225   3.856  0.4670 -0.4895  0.4227
 7513SOL    HW126901   1.480   4.320   3.857 -0.3784 -0.3606  1.7183
 7513SOL    HW226902   1.552   4.190   3.827  0.6843  0.6565 -0.4108
 7514SOL     OW26903   2.023   9.042   3.000  0.2551  0.4598  0.1427
 7514SOL    HW126904   1.986   8.954   3.002 -0.4650  0.6722 -1.4389
 7514SOL    HW226905   2.033   9.067   3.091 -0.7413 -0.7706  0.6135
 7515SOL     OW26906   0.859   8.022   1.947  0.7796  0.4829  0.2490
 7515SOL    HW126907   0.767   8.002   1.932  1.0942 -1.2334  0.3706
 7515SOL    HW226908   0.891   8.054   1.863  0.5685 -1.0392 -0.4459
 7516SOL     OW26909   5.386  10.916   4.409 -0.1133 -0.3543  0.0262
 7516SOL    HW126910   5.346  10.887   4.327 -0.9478 -1.1861  0.7055
 7516SOL    HW226911   5.439  10.992   4.384 -1.0074 -0.0823 -1.1385
 7517SOL     OW26912   5.665   5.170   3.951  0.3459 -0.8399 -0.2164
 7517SOL    HW126913   5.721   5.098   3.923  0.8107 -0.4325 -0.3461
 7517SOL    HW226914   5.667   5.232   3.879 -2.0908 -1.8079 -1.2036
 7518SOL     OW26915   1.526  10.668   2.601 -0.4368 -0.1238  0.2530
 7518SOL    HW126916   1.448  10.632   2.643 -1.9812  1.2392 -1.2612
 7518SOL    HW226917   1.557  10.597   2.544 -0.7426 -0.5722  0.6384
 7519SOL     OW26918   1.018   0.873   0.696 -0.5774 -0.5793  0.3053
 7519SOL    HW126919   0.974   0.843   0.617 -0.2795  2.1544 -1.0398
 7519SOL    HW226920   1.104   0.831   0.693 -0.4378 -0.2661 -1.0842
 7520SOL     OW26921   7.654   2.677   1.252 -0.0788  0.3622 -0.4867
 7520SOL    HW126922   7.649   2.752   1.312  0.1393 -1.0051  1.3094
 7520SOL    HW226923   7.733   2.630   1.279 -0.1634 -0.4965 -1.6452
 7521SOL     OW26924   4.753   2.654   1.556 -0.0755 -0.3490 -0.2373
 7521SOL    HW126925   4.791   2.568   1.573  1.7033  0.7366  1.7306
 7521SOL    HW226926   4.821   2.701   1.507 -0.2666  0.5100  0.2999
 7522SOL     OW26927   9.900   5.025   3.573 -0.0409 -0.1409  0.5239
 7522SOL    HW126928   9.927   4.961   3.638 -3.8846 -1.7731  0.7365
 7522SOL    HW226929   9.892   4.975   3.492  0.0411  0.8173 -0.0879
 7523SOL     OW26930   6.514   9.261   5.660 -0.0685 -0.5215 -0.3396
 7523SOL    HW126931   6.491   9.306   5.741 -0.0874 -0.9680 -0.0968
 7523SOL    HW226932   6.473   9.313   5.591 -1.5167 -1.1084  0.0631
 7524SOL     OW26933   1.595   1.099   6.077  0.2938  0.6895 -0.2061
 7524SOL    HW126934   1.574   1.059   5.993  1.8660 -1.7399  0.4610
 7524SOL    HW226935   1.683   1.134   6.066  0.8853 -0.4497  0.6278
 7525SOL     OW26936   7.069   9.275   7.026 -0.1877  0.2716  0.0672
 7525SOL    HW126937   6.991   9.249   6.978  0.0804  1.1376 -0.8551
 7525SOL    HW226938   7.132   9.300   6.959  0.1291  1.7121  0.8498
 7526SOL     OW26939   8.747   3.584  10.106  0.5803  0.2456 -0.4474
 7526SOL    HW126940   8.753   3.680  10.099 -0.3106  0.2434 -1.5176
 7526SOL    HW226941   8.658   3.568  10.137  0.3254 -0.2695 -1.4078
 7527SOL     OW26942   9.153   9.524   2.081  0.5922 -0.6972  0.3882
 7527SOL    HW126943   9.238   9.508   2.041  0.7875  1.3770 -0.1517
 7527SOL    HW226944   9.123   9.438   2.109  1.7174 -1.8319 -1.6887
 7528SOL     OW26945   3.021   5.533   4.734 -0.0678  0.2493 -0.4894
 7528SOL    HW126946   2.950   5.583   4.693  0.3553 -0.3068 -2.0024
 7528SOL    HW226947   3.020   5.559   4.826 -1.8519  0.6813 -0.5979
 7529SOL     OW26948   5.676   1.839  11.051 -0.6022  0.5100 -0.1835
 7529SOL    HW126949   5.647   1.798  11.133  0.3942  1.7819  0.8602
 7529SOL    HW226950   5.610   1.907  11.034 -0.5820  0.5269 -0.1948
 7530SOL     OW26951   4.854  10.950   1.237 -0.1865 -0.2572 -0.2592
 7530SOL    HW126952   4.871  10.897   1.314  0.9037  0.8437  0.2834
 7530SOL    HW226953   4.818  11.032   1.272  2.8340  1.3704 -0.6008
 7531SOL     OW26954   9.122   0.203   6.627  0.6483  0.5238  0.1648
 7531SOL    HW126955   9.152   0.294   6.622 -1.3839  1.2677  0.3241
 7531SOL    HW226956   9.088   0.184   6.540  1.0011 -0.0749  0.1508
 7532SOL     OW26957   8.769   7.004   3.753  0.2770  0.2866  0.3553
 7532SOL    HW126958   8.798   6.953   3.677 -1.4403 -0.0156 -0.1495
 7532SOL    HW226959   8.719   6.942   3.806  1.2045  0.5726  1.6027
 7533SOL     OW26960   7.052  10.622   8.555 -0.4955 -0.4843  0.5022
 7533SOL    HW126961   7.121  10.654   8.613  0.2086 -1.3199  0.1564
 7533SOL    HW226962   6.974  10.672   8.580  0.7802  2.4115 -0.8606
 7534SOL     OW26963   6.373   9.560  10.420  0.0481  0.2716 -0.3063
 7534SOL    HW126964   6.329   9.526  10.342 -0.3850 -1.0269  0.4734
 7534SOL    HW226965   6.318   9.533  10.493  1.9158 -1.0940  0.6827
 7535SOL     OW26966   8.469   7.155   2.530  0.0511  0.2942 -0.0300
 7535SOL    HW126967   8.504   7.186   2.447 -1.6948 -0.7355 -1.2269
 7535SOL    HW226968   8.374   7.148   2.515 -0.2722 -0.2519  1.9422
 7536SOL     OW26969   3.755   3.339   4.516  0.2052 -0.4258 -0.3526
 7536SOL    HW126970   3.720   3.258   4.552 -0.6638 -0.7237 -1.8062
 7536SOL    HW226971   3.730   3.338   4.424  1.0505  1.0220 -0.6348
 7537SOL     OW26972   8.239   5.076   3.029  0.0545 -0.3909  0.1099
 7537SOL    HW126973   8.246   4.981   3.034 -1.1811 -0.4534  1.0990
 7537SOL    HW226974   8.324   5.108   3.058  0.3535 -1.1941  0.1336
 7538SOL     OW26975   7.166   6.035   0.790 -0.0712  0.5860 -0.3858
 7538SOL    HW126976   7.209   6.098   0.732  1.5675  0.2926  0.4589
 7538SOL    HW226977   7.191   6.062   0.878 -0.9812 -0.0969  0.1016
 7539SOL     OW26978   8.752   1.367  10.728 -0.5576 -0.3634  0.2842
 7539SOL    HW126979   8.816   1.336  10.664 -1.4539  1.3788 -1.5387
 7539SOL    HW226980   8.777   1.457  10.746 -0.6561 -0.6471  2.0310
 7540SOL     OW26981  10.734   4.970   0.514 -0.2603 -0.8406 -0.4838
 7540SOL    HW126982  10.825   4.978   0.542 -0.2644 -2.8323  0.3047
 7540SOL    HW226983  10.687   5.037   0.564  0.6016 -0.5937  0.0060
 7541SOL     OW26984   5.814   8.262   4.963 -0.3559  0.3096  0.9169
 7541SOL    HW126985   5.813   8.292   5.054 -2.7635 -0.6892  1.3068
 7541SOL    HW226986   5.828   8.341   4.912 -0.3856  1.1200  2.1143
 7542SOL     OW26987  10.756   2.817   8.903 -0.3032 -0.1556 -0.2662
 7542SOL    HW126988  10.828   2.861   8.946 -0.9519  2.1404 -1.3564
 7542SOL    HW226989  10.700   2.786   8.974  1.4981 -1.6352  0.5772
 7543SOL     OW26990   7.202   2.548   5.580 -0.0483 -0.0775  0.0770
 7543SOL    HW126991   7.282   2.538   5.530  0.2121 -1.5022  0.7325
 7543SOL    HW226992   7.203   2.475   5.643 -1.0671  0.7956  1.1641
 7544SOL     OW26993   8.119   1.428   9.242 -0.7898  0.6051 -0.6305
 7544SOL    HW126994   8.072   1.499   9.285 -0.3043  1.5516 -1.5956
 7544SOL    HW226995   8.111   1.448   9.149 -0.6099 -0.6015 -0.9143
 7545SOL     OW26996  10.582  10.295   9.168  0.0887 -0.2875  0.9098
 7545SOL    HW126997  10.659  10.280   9.223  1.2378 -0.0168 -0.5796
 7545SOL    HW226998  10.602  10.251   9.085 -0.7863  0.9043  0.0347
 7546SOL     OW26999   5.152  10.549  10.463 -0.6283  1.2371 -0.1905
 7546SOL    HW127000   5.072  10.576  10.417 -1.4044 -1.5884 -0.6671
 7546SOL    HW227001   5.223  10.575  10.404 -1.3281  1.7862 -0.8161
 7547SOL     OW27002  11.037   0.147   9.784  0.5823  0.6101 -0.4122
 7547SOL    HW127003  11.121   0.102   9.774  0.6294  0.9696 -1.8139
 7547SOL    HW227004  11.060   0.239   9.794  0.4534  0.4724  1.9373
 7548SOL     OW27005   2.755   5.459   8.619  0.2197 -0.5341  0.0176
 7548SOL    HW127006   2.811   5.528   8.653  0.3452  0.0456 -1.3203
 7548SOL    HW227007   2.672   5.470   8.666  0.2915  0.4102 -0.0664
 7549SOL     OW27008   5.496   5.943   2.300 -0.1352 -0.2290  0.5293
 7549SOL    HW127009   5.569   5.946   2.238  0.0148  1.4212  0.7430
 7549SOL    HW227010   5.428   5.894   2.254 -0.0606  1.0422 -1.0238
 7550SOL     OW27011   7.765   4.040   2.676 -0.3255  0.4369 -0.1468
 7550SOL    HW127012   7.803   4.066   2.760  2.0345  1.0216 -1.3083
 7550SOL    HW227013   7.760   4.121   2.626  2.5400 -0.4467 -2.0965
 7551SOL     OW27014   6.652   3.379   5.168 -0.0707 -0.0452 -0.0617
 7551SOL    HW127015   6.707   3.456   5.154  0.5998 -0.8333 -2.0740
 7551SOL    HW227016   6.565   3.406   5.140 -0.1698  0.4274  0.6812
 7552SOL     OW27017   6.213   5.949   1.215 -0.0655  0.6345 -0.4907
 7552SOL    HW127018   6.201   6.035   1.255  0.3419  1.1969 -1.5436
 7552SOL    HW227019   6.285   5.961   1.154 -0.3994 -0.3045 -1.0832
 7553SOL     OW27020  10.352   8.717   6.632  0.2961  0.1461 -0.2557
 7553SOL    HW127021  10.380   8.629   6.604  1.4241  0.1951  0.6719
 7553SOL    HW227022  10.295   8.747   6.561 -0.0997 -1.3182 -0.6105
 7554SOL     OW27023   4.110   3.334   5.062  0.4355 -0.5119 -0.7350
 7554SOL    HW127024   4.094   3.243   5.038  0.7575 -0.9886  0.7393
 7554SOL    HW227025   4.081   3.385   4.986 -1.1890 -1.7459 -0.9882
 7555SOL     OW27026   6.575   4.296   3.858  0.0213  0.0507  0.2639
 7555SOL    HW127027   6.514   4.368   3.876  0.0527  0.6917 -1.9230
 7555SOL    HW227028   6.537   4.221   3.905 -1.9550  0.6622 -0.2323
 7556SOL     OW27029   8.878   3.556   8.544  0.6251  0.3650  0.4777
 7556SOL    HW127030   8.907   3.464   8.547 -0.9951 -0.1426  2.0238
 7556SOL    HW227031   8.957   3.606   8.565  0.9259 -0.8603  2.5330
 7557SOL     OW27032   9.757  10.523   6.975  0.2463  0.3081  0.0896
 7557SOL    HW127033   9.713  10.607   6.987  0.6327  0.4464  0.5689
 7557SOL    HW227034   9.697  10.472   6.921 -0.8557  0.2346  1.3265
 7558SOL     OW27035   0.090   2.379   9.516  0.6388 -0.0782  0.3449
 7558SOL    HW127036   0.118   2.366   9.607  1.8593  1.2177  0.1778
 7558SOL    HW227037   0.146   2.448   9.483 -0.5203  0.2241 -1.0846
 7559SOL     OW27038   6.752   2.131   9.541  0.1410  0.2241  0.6462
 7559SOL    HW127039   6.766   2.206   9.482  1.3391 -0.5848 -0.1466
 7559SOL    HW227040   6.663   2.101   9.521  0.6083 -0.1953 -0.9997
 7560SOL     OW27041   6.988  10.352   4.839  0.1835 -0.0193  0.5442
 7560SOL    HW127042   6.916  10.413   4.823  1.4551  1.6550  0.9428
 7560SOL    HW227043   7.040  10.355   4.759  0.7287  0.0977  0.8996
 7561SOL     OW27044   9.504   2.482   1.569  0.5617 -0.0726  0.1108
 7561SOL    HW127045   9.447   2.430   1.624  0.3390  0.2913  0.2306
 7561SOL    HW227046   9.574   2.511   1.627  0.5083  0.0319  0.1235
 7562SOL     OW27047   1.215   2.056   4.039 -0.4656 -0.0436 -0.2440
 7562SOL    HW127048   1.125   2.032   4.020 -0.8838  0.9591  0.4072
 7562SOL    HW227049   1.265   1.976   4.021 -1.8509 -1.6590  2.4058
 7563SOL     OW27050   6.287   3.618   8.897  0.2687  0.8023 -0.3542
 7563SOL    HW127051   6.232   3.696   8.899 -0.1711  0.4920 -0.1791
 7563SOL    HW227052   6.286   3.586   8.987  1.0641  1.0135 -0.2628
 7564SOL     OW27053  10.722   8.889   5.625  0.3417  0.4944 -0.0748
 7564SOL    HW127054  10.640   8.910   5.669  0.9016  2.7678 -0.0171
 7564SOL    HW227055  10.737   8.797   5.646 -0.9559  0.6784  1.9396
 7565SOL     OW27056  10.959   4.812   7.405 -0.1677 -0.6500  0.0240
 7565SOL    HW127057  11.008   4.874   7.459 -0.0838 -0.7114  0.0185
 7565SOL    HW227058  11.003   4.728   7.418  0.1824 -0.5622 -0.5554
 7566SOL     OW27059   7.727   1.455   8.211  0.6183 -0.1154 -0.4390
 7566SOL    HW127060   7.646   1.407   8.192  0.8910 -1.2145  1.0644
 7566SOL    HW227061   7.795   1.388   8.216  0.8787  0.2499  2.4382
 7567SOL     OW27062   7.971   3.233   2.601  0.5726 -0.2825  0.1995
 7567SOL    HW127063   7.996   3.280   2.522  0.5636 -0.2657  0.2064
 7567SOL    HW227064   8.017   3.278   2.672  1.1871 -0.7689  0.1194
 7568SOL     OW27065   8.837  10.167   5.621 -0.5597  0.4604  0.0823
 7568SOL    HW127066   8.829  10.092   5.562  1.3177  0.3075 -0.0379
 7568SOL    HW227067   8.932  10.178   5.633 -0.6244  3.8733 -1.3352
 7569SOL     OW27068   4.510   4.935   8.846 -0.2951 -0.2993  0.2671
 7569SOL    HW127069   4.438   4.914   8.786  0.2613 -0.6787 -0.2753
 7569SOL    HW227070   4.495   5.027   8.869 -0.1049  0.0858 -1.0408
 7570SOL     OW27071   4.164   7.407   8.601  0.2358  0.2692  0.3217
 7570SOL    HW127072   4.108   7.465   8.652 -0.2969 -0.7617  0.9425
 7570SOL    HW227073   4.201   7.463   8.533 -2.4940  0.7498 -0.8906
 7571SOL     OW27074   8.096   2.698   7.148  0.0124  0.0397 -1.1842
 7571SOL    HW127075   8.171   2.696   7.088  0.3306 -0.3415 -0.7798
 7571SOL    HW227076   8.068   2.607   7.154  1.9259 -0.4953  1.6404
 7572SOL     OW27077   3.828   7.263   7.745  0.1943  0.3313  0.0935
 7572SOL    HW127078   3.759   7.309   7.696 -0.6736 -3.0967 -2.2127
 7572SOL    HW227079   3.782   7.193   7.791  1.8996 -0.8074  0.1360
 7573SOL     OW27080   0.345   8.884  11.037  0.2409  0.4467  0.0640
 7573SOL    HW127081   0.272   8.867  11.097  1.8838 -0.2812  1.9593
 7573SOL    HW227082   0.373   8.796  11.009  2.2691  0.4427  1.8084
 7574SOL     OW27083   3.973   6.466   2.373 -0.0222  0.7357 -0.3048
 7574SOL    HW127084   3.938   6.542   2.420  1.1446  1.3277 -0.3439
 7574SOL    HW227085   3.931   6.390   2.414 -1.5118  1.4045 -0.5255
 7575SOL     OW27086   8.923   2.757   7.677  0.0019  0.5292 -0.0417
 7575SOL    HW127087   9.017   2.765   7.695 -0.2422  0.8614  1.1555
 7575SOL    HW227088   8.918   2.738   7.583  1.3110 -0.5923  0.0850
 7576SOL     OW27089   1.312   6.623   4.315 -0.4120 -0.4296 -0.7015
 7576SOL    HW127090   1.320   6.657   4.404  0.0692 -1.6578 -0.2489
 7576SOL    HW227091   1.385   6.561   4.307 -0.4940 -0.3847 -1.9264
 7577SOL     OW27092   9.977   6.470   7.979  0.6706 -0.1959  0.1439
 7577SOL    HW127093   9.940   6.483   7.892  0.6105 -2.6673 -0.2774
 7577SOL    HW227094  10.070   6.490   7.968  0.4931  0.4768 -0.2165
 7578SOL     OW27095   3.338   0.282   8.720  0.6693 -0.0878 -0.2000
 7578SOL    HW127096   3.261   0.322   8.680  0.8190 -1.4932 -2.0084
 7578SOL    HW227097   3.411   0.339   8.696  0.4571  0.2314 -0.0858
 7579SOL     OW27098  10.463   6.883   6.287 -0.3665  0.1695  0.0671
 7579SOL    HW127099  10.522   6.863   6.359  0.5665  0.4385 -0.6052
 7579SOL    HW227100  10.437   6.798   6.253 -1.2047  0.0266  1.0097
 7580SOL     OW27101   2.585   2.218   9.889  0.1610  0.3867 -0.4916
 7580SOL    HW127102   2.495   2.187   9.878 -0.3811  1.6027  0.3463
 7580SOL    HW227103   2.631   2.143   9.928 -0.7652  0.1246  0.1502
 7581SOL     OW27104   0.770   2.748   9.015 -0.7252 -0.0849 -0.1294
 7581SOL    HW127105   0.727   2.807   9.077 -2.6550 -1.5757  0.0505
 7581SOL    HW227106   0.823   2.690   9.070 -0.2147  0.3642 -0.1444
 7582SOL     OW27107   3.243   9.883   8.704 -0.3779  0.1135  0.6856
 7582SOL    HW127108   3.181   9.955   8.709 -0.0818  0.4331 -0.1089
 7582SOL    HW227109   3.200   9.811   8.749 -1.0704  0.5099  0.6637
 7583SOL     OW27110   9.355   7.548   2.206 -0.0639 -0.6642 -0.1282
 7583SOL    HW127111   9.356   7.617   2.272  0.4540  0.9633 -1.7339
 7583SOL    HW227112   9.266   7.550   2.171 -0.2574 -1.3359  0.2971
 7584SOL     OW27113   6.231   9.598   5.863  0.1309 -0.5055 -0.5109
 7584SOL    HW127114   6.214   9.691   5.882  1.1607 -0.3259 -0.4259
 7584SOL    HW227115   6.244   9.595   5.768 -0.8784 -0.7409 -0.6622
 7585SOL     OW27116   0.882   7.524   3.935 -0.6134  0.0200  0.5034
 7585SOL    HW127117   0.947   7.554   3.998  0.4102 -0.8332 -0.1206
 7585SOL    HW227118   0.930   7.469   3.874 -1.6356  0.5851 -0.8780
 7586SOL     OW27119  10.843   4.773   3.808  0.3230  0.1720  0.2612
 7586SOL    HW127120  10.858   4.803   3.718  0.2028 -0.9080 -0.1331
 7586SOL    HW227121  10.913   4.710   3.825 -1.0365 -1.4971  0.0109
 7587SOL     OW27122   3.951   3.960   4.052  0.2939 -0.2618  0.7520
 7587SOL    HW127123   3.998   3.890   4.097  0.5807  1.1886  2.8546
 7587SOL    HW227124   4.015   3.996   3.991 -0.3258 -2.7398 -1.5873
 7588SOL     OW27125   8.866   2.361   8.701 -0.0513 -0.0749  0.2956
 7588SOL    HW127126   8.867   2.456   8.691 -0.9544  0.1020  1.5808
 7588SOL    HW227127   8.957   2.334   8.692  0.1296  0.8263 -0.7315
 7589SOL     OW27128   8.772   6.908   2.583  0.1102  0.1350  0.5799
 7589SOL    HW127129   8.798   6.968   2.513  2.0293 -2.3864 -1.0758
 7589SOL    HW227130   8.677   6.906   2.579  0.1223  1.1556 -1.0006
 7590SOL     OW27131   8.903   3.449   9.937  0.6162 -0.9374 -0.1138
 7590SOL    HW127132   8.839   3.424   9.870 -0.7806  0.0600  0.7958
 7590SOL    HW227133   8.854   3.505   9.997  2.2994 -0.3448  0.7657
 7591SOL     OW27134   9.143   7.439   6.803 -0.1341 -0.4031 -0.7436
 7591SOL    HW127135   9.134   7.516   6.859  0.2008 -2.1450  1.8776
 7591SOL    HW227136   9.236   7.437   6.780  0.2185 -0.8754  0.6049
 7592SOL     OW27137   8.839  10.429   7.793  0.4670  0.0913 -0.4187
 7592SOL    HW127138   8.761  10.485   7.789  0.0355 -0.3353  1.3908
 7592SOL    HW227139   8.873  10.430   7.703 -1.4225  0.5545 -1.1878
 7593SOL     OW27140   9.113   2.067  10.163  0.2416 -0.2361 -0.2181
 7593SOL    HW127141   9.103   2.020  10.080  2.3797  1.5899 -1.6701
 7593SOL    HW227142   9.072   2.011  10.228 -2.5079 -1.2859 -2.6199
 7594SOL     OW27143   3.106   5.640   4.986  0.2031 -0.2585 -0.2961
 7594SOL    HW127144   3.134   5.549   4.992 -0.7071 -0.5690 -0.5101
 7594SOL    HW227145   3.154   5.685   5.055  0.2150 -1.0204  0.2017
 7595SOL     OW27146  10.032   6.911   1.013 -0.6226 -0.2746 -0.2557
 7595SOL    HW127147   9.953   6.951   0.979 -0.3061  0.3966 -0.2092
 7595SOL    HW227148  10.002   6.830   1.055 -1.3845  0.3655  0.4692
 7596SOL     OW27149   5.062   5.829   7.094 -0.1210 -0.1633  0.9408
 7596SOL    HW127150   5.088   5.921   7.100 -0.8764  0.1129  0.2432
 7596SOL    HW227151   5.143   5.780   7.101  0.8693  0.6822 -2.6116
 7597SOL     OW27152   7.879   4.042   3.065 -0.4167 -0.2413  0.2548
 7597SOL    HW127153   7.920   3.957   3.047 -1.6596 -0.7563 -0.2587
 7597SOL    HW227154   7.949   4.105   3.053 -0.2130 -0.8810 -2.7173
 7598SOL     OW27155   0.510  10.134   5.593 -0.3036  0.0657  0.1784
 7598SOL    HW127156   0.532  10.226   5.578 -2.1316  0.7404  1.2842
 7598SOL    HW227157   0.423  10.124   5.555  0.5895 -1.7458 -1.5590
 7599SOL     OW27158   4.228   5.853   3.679 -0.5593 -0.1779 -0.3613
 7599SOL    HW127159   4.139   5.831   3.704 -1.0383  1.0366 -0.8935
 7599SOL    HW227160   4.226   5.948   3.668  1.1715  0.0849  1.0769
 7600SOL     OW27161   5.900   3.324   1.113 -0.1354 -0.0862 -0.2253
 7600SOL    HW127162   5.872   3.272   1.037  2.2730 -0.5379 -0.8856
 7600SOL    HW227163   5.901   3.415   1.080 -1.0936 -0.0229 -0.0933
 7601SOL     OW27164   0.682   9.694   8.280  0.1149 -0.4216 -0.3021
 7601SOL    HW127165   0.728   9.707   8.197 -0.1892  0.6215 -0.3270
 7601SOL    HW227166   0.741   9.730   8.346 -0.0942 -0.2639 -0.1974
 7602SOL     OW27167   6.016   4.534   2.642  0.2430 -0.2386 -0.0998
 7602SOL    HW127168   6.038   4.575   2.559 -0.8941 -1.0597 -0.8342
 7602SOL    HW227169   6.025   4.440   2.626  0.3835 -0.3955  0.8184
 7603SOL     OW27170   7.670   6.313   8.227  0.0842 -0.4555 -0.2343
 7603SOL    HW127171   7.744   6.337   8.283 -2.2487  0.5585  2.7403
 7603SOL    HW227172   7.663   6.218   8.236  1.0882 -0.5958 -0.7306
 7604SOL     OW27173   3.435   0.376   4.386 -0.0450 -0.0512  0.5868
 7604SOL    HW127174   3.429   0.301   4.327 -0.5494  0.2340  0.2658
 7604SOL    HW227175   3.492   0.346   4.457  1.4996 -0.0440 -0.5857
 7605SOL     OW27176   3.710   8.898   0.065  0.0399  0.3335 -0.2086
 7605SOL    HW127177   3.781   8.889   0.001 -0.8877 -0.5743 -1.1510
 7605SOL    HW227178   3.664   8.978   0.039  0.8021  1.0275  0.5172
 7606SOL     OW27179   9.733   7.623   8.949  0.0525 -0.0584 -0.6088
 7606SOL    HW127180   9.804   7.651   9.007  1.1671 -1.3707 -1.2916
 7606SOL    HW227181   9.676   7.569   9.004 -0.0151  0.3700 -0.2518
 7607SOL     OW27182   8.922   3.016   4.425 -0.2289 -0.4465  0.6491
 7607SOL    HW127183   8.928   2.976   4.512 -0.8885 -0.3954  0.7234
 7607SOL    HW227184   8.942   3.109   4.440  3.1952 -0.9741  0.1988
 7608SOL     OW27185   3.502  10.166   5.185  0.2100 -0.0633  0.3532
 7608SOL    HW127186   3.552  10.143   5.263 -0.3148  0.4735  0.8653
 7608SOL    HW227187   3.415  10.188   5.218 -0.5907 -1.6270 -0.5881
 7609SOL     OW27188  10.154   5.766   0.418  0.0260 -0.3987 -0.2770
 7609SOL    HW127189  10.195   5.734   0.498 -2.0927 -0.1344  0.9913
 7609SOL    HW227190  10.204   5.845   0.396  0.9758 -0.7708  0.4603
 7610SOL     OW27191  10.674   2.425   5.257 -0.2248  0.1919 -0.3596
 7610SOL    HW127192  10.682   2.513   5.293 -0.8781 -0.8175  2.4875
 7610SOL    HW227193  10.586   2.422   5.220 -0.6350  0.3838  0.5920
 7611SOL     OW27194   6.647   0.370   9.006 -0.0536  0.2702 -0.4437
 7611SOL    HW127195   6.556   0.392   9.025 -0.3588 -1.9575  0.9735
 7611SOL    HW227196   6.643   0.293   8.950  0.9254 -0.4600  0.4385
 7612SOL     OW27197   9.978   6.841   8.909  0.3259  0.2743 -0.1770
 7612SOL    HW127198   9.892   6.804   8.926 -0.1453  0.1338 -2.4706
 7612SOL    HW227199   9.978   6.925   8.955 -0.4210 -0.3933  1.0918
 7613SOL     OW27200   6.349   5.985  10.595  0.1819 -0.0959 -0.1026
 7613SOL    HW127201   6.361   6.072  10.633  0.7051 -1.4386  3.1198
 7613SOL    HW227202   6.420   5.932  10.632 -1.1935 -2.3444 -0.4616
 7614SOL     OW27203  11.015  10.529   9.279 -0.2185  0.0619 -0.5825
 7614SOL    HW127204  11.053  10.508   9.194 -0.0879  0.1756 -0.5547
 7614SOL    HW227205  10.927  10.560   9.260 -0.3428 -0.3253 -0.6399
 7615SOL     OW27206   5.435   0.700   5.389 -0.0146 -0.2802 -0.4268
 7615SOL    HW127207   5.501   0.631   5.402 -1.1811 -1.3823 -0.1137
 7615SOL    HW227208   5.481   0.781   5.411  1.0035 -1.1047  0.6614
 7616SOL     OW27209   3.586   4.964   2.530  0.0457 -0.3408  0.2273
 7616SOL    HW127210   3.549   5.048   2.503  0.4152  0.0280  0.8364
 7616SOL    HW227211   3.647   4.986   2.600 -0.9618 -1.2507  1.4543
 7617SOL     OW27212   5.739   0.113   4.426 -0.1456 -0.4307 -0.3198
 7617SOL    HW127213   5.777   0.198   4.406 -1.8021  0.3167 -0.4811
 7617SOL    HW227214   5.763   0.096   4.517 -0.9559  0.8856  0.1649
 7618SOL     OW27215  10.208   5.823   6.621  0.3168  0.1020 -0.4707
 7618SOL    HW127216  10.281   5.879   6.645  0.6612 -0.1112 -0.9906
 7618SOL    HW227217  10.143   5.835   6.690 -0.0215  1.8540 -1.0492
 7619SOL     OW27218   8.660   3.191   4.030 -0.0236 -0.2451  0.6042
 7619SOL    HW127219   8.743   3.239   4.038  1.2197 -1.3944 -3.2200
 7619SOL    HW227220   8.673   3.113   4.084  0.9102  0.1356  0.9626
 7620SOL     OW27221   9.532  10.982   5.831 -0.2883  0.0816  0.0982
 7620SOL    HW127222   9.488  10.902   5.801  0.4909  0.6189 -2.8707
 7620SOL    HW227223   9.613  10.951   5.871  0.4446 -0.6913 -1.8398
 7621SOL     OW27224  10.036  10.020   2.844  0.7185 -0.4996  0.3192
 7621SOL    HW127225   9.976  10.076   2.795 -0.7933 -2.4508 -0.1609
 7621SOL    HW227226  10.121  10.063   2.833  0.2794 -0.1432 -3.0387
 7622SOL     OW27227   0.095   3.245   7.486 -0.2417  1.0569 -0.6493
 7622SOL    HW127228   0.010   3.202   7.490 -0.5245  1.6124 -0.6206
 7622SOL    HW227229   0.139   3.219   7.567 -0.4671  0.9346 -0.5663
 7623SOL     OW27230   1.344   7.478   7.109  0.5247 -0.0839  0.4629
 7623SOL    HW127231   1.371   7.410   7.047 -0.8564  0.0517 -0.3373
 7623SOL    HW227232   1.406   7.471   7.181  1.5867 -0.9046 -0.4846
 7624SOL     OW27233   9.334  10.182  11.011 -0.2940  0.0261 -0.3271
 7624SOL    HW127234   9.429  10.189  11.006 -0.0619 -0.0147  2.2826
 7624SOL    HW227235   9.320  10.107  11.070 -1.8782  1.0480  0.6497
 7625SOL     OW27236   4.093   8.845   8.559  0.4779 -0.2993 -0.6148
 7625SOL    HW127237   4.021   8.811   8.506 -0.9190  0.5389  0.6707
 7625SOL    HW227238   4.050   8.886   8.634  2.3341 -0.1524  0.4142
 7626SOL     OW27239   7.738   2.330   4.382  0.4201  0.0208  0.4690
 7626SOL    HW127240   7.791   2.335   4.462  1.7050 -0.3448 -0.3383
 7626SOL    HW227241   7.738   2.236   4.360 -1.5030 -0.1540  1.0534
 7627SOL     OW27242   1.881   2.069   6.777 -0.1931 -0.1568 -0.0426
 7627SOL    HW127243   1.865   2.044   6.686  1.8404 -0.9822 -0.2333
 7627SOL    HW227244   1.828   2.147   6.790  0.4212  0.7363 -2.3426
 7628SOL     OW27245  10.036   2.337   8.089 -0.5517  0.2092 -0.0978
 7628SOL    HW127246   9.961   2.335   8.147 -0.9691  1.4001 -0.5728
 7628SOL    HW227247  10.097   2.399   8.129 -0.6475  0.6926 -0.6912
 7629SOL     OW27248   8.969   8.746   3.340  0.3010  0.7298  0.1236
 7629SOL    HW127249   8.986   8.727   3.432  1.1759  0.5952 -0.0518
 7629SOL    HW227250   9.054   8.774   3.306  0.0533  0.4662 -0.7209
 7630SOL     OW27251  10.750   8.025   1.126  0.0396  0.0205  0.3903
 7630SOL    HW127252  10.791   8.056   1.207 -2.2456  1.7188  1.0021
 7630SOL    HW227253  10.670   7.982   1.155 -0.5832  0.2494 -0.9256
 7631SOL     OW27254   8.340  11.081   8.492 -0.5140 -0.2224 -0.0043
 7631SOL    HW127255   8.436  11.088   8.490 -0.3586 -2.0033 -0.4322
 7631SOL    HW227256   8.318  11.079   8.585  0.0001 -1.1097  0.1117
 7632SOL     OW27257   7.979   0.932   3.332  0.1143 -0.6019  0.0191
 7632SOL    HW127258   7.907   0.877   3.365  1.3789 -2.8510 -0.7501
 7632SOL    HW227259   8.055   0.906   3.383  0.5886  1.1951  0.2949
 7633SOL     OW27260   4.700   4.259   1.440  0.2065 -0.0892 -0.2271
 7633SOL    HW127261   4.726   4.201   1.369  0.5648 -0.4539  0.1971
 7633SOL    HW227262   4.777   4.267   1.495  0.8387  2.4403 -1.3364
 7634SOL     OW27263   3.532   9.489   6.409 -0.4101 -0.5962  0.0169
 7634SOL    HW127264   3.449   9.443   6.420 -0.3659 -0.3293  1.6820
 7634SOL    HW227265   3.588   9.456   6.479 -0.1689  1.5178  0.8813
 7635SOL     OW27266  10.182   2.401   9.713 -0.6308  0.0831  0.3360
 7635SOL    HW127267  10.147   2.465   9.775 -0.1947  0.9255 -0.2633
 7635SOL    HW227268  10.155   2.434   9.627 -0.2322 -0.4281  0.0104
 7636SOL     OW27269   2.253   0.837   6.461 -0.0255  0.0441  0.1530
 7636SOL    HW127270   2.230   0.912   6.514 -1.7026  0.5380 -1.1735
 7636SOL    HW227271   2.317   0.870   6.398 -0.6237  0.3353 -0.3110
 7637SOL     OW27272  10.966   0.185   8.219  0.3931  0.0005 -0.0529
 7637SOL    HW127273  11.032   0.117   8.211  0.6068  0.0938  0.8000
 7637SOL    HW227274  10.883   0.138   8.222  0.6004 -0.3251  1.6054
 7638SOL     OW27275  10.096   2.304   9.180 -0.0007  0.2852  0.2153
 7638SOL    HW127276  10.045   2.267   9.109  0.0710 -2.5889  1.5448
 7638SOL    HW227277  10.051   2.386   9.201 -1.5858 -0.1225 -1.3639
 7639SOL     OW27278  11.109   4.879  10.765 -0.1079  0.0676  0.1935
 7639SOL    HW127279  11.046   4.882  10.837 -1.5557 -2.8018 -0.8061
 7639SOL    HW227280  11.061   4.838  10.693  2.7568 -1.8678 -0.7671
 7640SOL     OW27281   1.671   2.064   8.331  0.0593 -0.3591 -0.0094
 7640SOL    HW127282   1.680   2.154   8.299 -1.3989 -0.0850  0.2757
 7640SOL    HW227283   1.625   2.018   8.261  0.4064 -0.7687  0.0298
 7641SOL     OW27284   6.643   1.911   1.037 -0.2689 -0.1570 -0.6575
 7641SOL    HW127285   6.559   1.928   0.996 -0.7933  0.0378  0.4753
 7641SOL    HW227286   6.678   1.835   0.989 -1.0505 -0.2017 -1.1743
 7642SOL     OW27287   4.140   6.570   7.618  0.4609  0.0299 -0.1068
 7642SOL    HW127288   4.143   6.665   7.613 -1.9145  0.2322  0.8551
 7642SOL    HW227289   4.203   6.547   7.687  0.3033  0.9993  0.3733
 7643SOL     OW27290   5.967  11.040   5.392  0.1174 -0.1562  0.2746
 7643SOL    HW127291   6.008  10.969   5.441 -0.1565 -1.6088 -1.5054
 7643SOL    HW227292   6.038  11.077   5.339  0.1436  0.5682  0.8031
 7644SOL     OW27293   4.374  10.939   5.490 -0.2231  0.5319  0.6132
 7644SOL    HW127294   4.409  10.879   5.555 -0.3160 -0.3143 -0.1057
 7644SOL    HW227295   4.450  10.989   5.459  0.6736 -2.0585 -1.7633
 7645SOL     OW27296   9.333   6.240   6.602 -0.3719  0.2771  0.1926
 7645SOL    HW127297   9.422   6.245   6.567 -0.8645 -1.1577 -1.4009
 7645SOL    HW227298   9.336   6.167   6.664 -0.3999  0.3469  0.2756
 7646SOL     OW27299   7.069   7.535   5.053 -0.4626  0.3290  0.3335
 7646SOL    HW127300   7.089   7.581   5.135 -1.8023 -0.6399  1.2557
 7646SOL    HW227301   7.034   7.451   5.081  0.6112 -0.7080 -1.2929
 7647SOL     OW27302   6.136   7.583   4.006 -0.2249 -0.6549 -0.2625
 7647SOL    HW127303   6.089   7.653   3.960 -1.6799 -1.0173  0.6275
 7647SOL    HW227304   6.121   7.505   3.952 -1.9181 -1.0763  0.7481
 7648SOL     OW27305   7.483   4.439   7.235 -0.4065 -0.2188  0.6864
 7648SOL    HW127306   7.549   4.390   7.284 -1.0270 -0.0413  1.7323
 7648SOL    HW227307   7.481   4.525   7.278 -0.7671  0.0404  0.1587
 7649SOL     OW27308   9.641   7.717   1.884 -0.2142 -0.2058 -0.6953
 7649SOL    HW127309   9.730   7.683   1.877 -0.4918 -0.5937 -3.6887
 7649SOL    HW227310   9.651   7.810   1.900  0.6486 -0.5054  0.7210
 7650SOL     OW27311   1.453   4.993   5.117  0.1587  0.3634 -0.2783
 7650SOL    HW127312   1.503   4.938   5.057 -0.2245  0.8380 -1.0553
 7650SOL    HW227313   1.364   4.958   5.112  0.0610  0.6062 -0.2178
 7651SOL     OW27314   9.831   0.556   1.492 -0.1854 -0.3591 -0.4171
 7651SOL    HW127315   9.899   0.488   1.502  0.1614  0.3165  2.7519
 7651SOL    HW227316   9.874   0.625   1.441  1.1621 -0.4513  0.5297
 7652SOL     OW27317   3.145   0.876   4.813 -0.0933  0.3845 -0.7869
 7652SOL    HW127318   3.138   0.782   4.833  1.0508  0.5550  0.5697
 7652SOL    HW227319   3.206   0.880   4.739  0.1758  0.0769 -0.5871
 7653SOL     OW27320   6.153   6.713  10.309  0.4934 -0.1055  0.3040
 7653SOL    HW127321   6.205   6.706  10.228  0.0535 -1.4657  0.1181
 7653SOL    HW227322   6.218   6.722  10.378  0.9990 -1.5895  0.0531
 7654SOL     OW27323   8.099   2.919   5.340 -0.0637 -0.0159  0.1563
 7654SOL    HW127324   8.116   2.843   5.396  0.1364 -0.4650 -0.5006
 7654SOL    HW227325   8.104   2.884   5.251  2.4310  1.2229 -0.2818
 7655SOL     OW27326  10.374   0.235  11.066  0.9500  0.4798  0.0851
 7655SOL    HW127327  10.298   0.252  11.121 -0.5934 -0.0571 -1.7529
 7655SOL    HW227328  10.450   0.255  11.121 -0.5050  0.6682  2.1022
 7656SOL     OW27329  10.805   3.104   3.904  0.2036 -0.1313 -0.4723
 7656SOL    HW127330  10.876   3.098   3.840  1.1031  0.7332  0.4014
 7656SOL    HW227331  10.729   3.066   3.860  0.9070  0.0462 -1.8890
 7657SOL     OW27332   5.365   2.624   9.228  0.2657 -0.1752 -0.0316
 7657SOL    HW127333   5.432   2.668   9.281  1.7427  0.9729 -2.6745
 7657SOL    HW227334   5.403   2.539   9.206  1.7548  1.1123 -2.9193
 7658SOL     OW27335  10.561   4.293   5.765 -0.4879  0.1332 -0.0111
 7658SOL    HW127336  10.594   4.382   5.775  2.0216 -0.7758  0.7018
 7658SOL    HW227337  10.549   4.282   5.670 -0.6262  1.1549 -0.1195
 7659SOL     OW27338  10.215   8.115   2.948 -0.1854 -0.3321 -0.0250
 7659SOL    HW127339  10.179   8.027   2.962  0.0871 -0.2977  0.9717
 7659SOL    HW227340  10.257   8.137   3.031 -0.8616  1.0305 -0.0149
 7660SOL     OW27341   2.289  10.790   6.563  0.2671 -0.3533 -0.3860
 7660SOL    HW127342   2.378  10.801   6.529  0.2924  0.3614 -0.0960
 7660SOL    HW227343   2.284  10.847   6.639  0.4448 -2.4997  1.3238
 7661SOL     OW27344   3.856   2.210   7.708 -0.1471 -0.4774 -0.0946
 7661SOL    HW127345   3.918   2.265   7.661 -0.1497  1.1807  1.7277
 7661SOL    HW227346   3.773   2.220   7.661 -0.1491  1.1436  0.2027
 7662SOL     OW27347   4.247   7.424   6.311  0.3488 -0.1468 -0.6418
 7662SOL    HW127348   4.151   7.432   6.311  0.3737  0.1587  0.0603
 7662SOL    HW227349   4.263   7.337   6.273 -0.2657 -0.7927  0.5148
 7663SOL     OW27350   8.688   3.098   8.569 -0.1169 -0.4618  0.3616
 7663SOL    HW127351   8.750   3.091   8.642  0.4411 -1.5410 -0.1975
 7663SOL    HW227352   8.737   3.066   8.493 -0.7915  0.3434 -0.4397
 7664SOL     OW27353   6.872   1.132   7.206 -0.6013  0.0939 -0.1569
 7664SOL    HW127354   6.895   1.099   7.293 -1.4858  0.3771  0.1964
 7664SOL    HW227355   6.886   1.057   7.148 -1.2959 -0.5130  0.4387
 7665SOL     OW27356  10.660   0.797   8.229 -0.3523 -1.0124  0.5934
 7665SOL    HW127357  10.694   0.887   8.225  0.3835 -1.3359 -1.2479
 7665SOL    HW227358  10.569   0.807   8.258  0.0606  0.2157  1.5616
 7666SOL     OW27359  10.023   6.886   0.145 -0.5985  0.3904  0.0008
 7666SOL    HW127360   9.947   6.934   0.179 -1.1299 -0.2712 -0.2390
 7666SOL    HW227361  10.016   6.894   0.050  0.6685  1.8973 -0.0016
 7667SOL     OW27362   6.654   9.681   1.132  0.1730  0.0514  0.4723
 7667SOL    HW127363   6.616   9.594   1.118  1.9555 -0.3380 -2.6555
 7667SOL    HW227364   6.598   9.740   1.082 -0.4630  0.6304  1.8080
 7668SOL     OW27365   3.752   6.339  10.527  0.2659  0.0525 -0.0119
 7668SOL    HW127366   3.747   6.329  10.432  0.2138 -1.1083  0.1043
 7668SOL    HW227367   3.769   6.433  10.540  2.4092 -0.0909 -1.2585
 7669SOL     OW27368   0.685   8.195   5.703  0.0651 -0.3836  0.0709
 7669SOL    HW127369   0.702   8.108   5.739  0.7776 -0.1061  0.4266
 7669SOL    HW227370   0.663   8.179   5.611 -0.6226 -1.0038  0.3368
 7670SOL     OW27371   7.000   0.667   8.413  0.7406  0.0783 -0.4189
 7670SOL    HW127372   6.912   0.677   8.450  0.3905 -2.4420 -0.3877
 7670SOL    HW227373   7.002   0.728   8.339 -0.4587  1.3075  0.5083
 7671SOL     OW27374   7.957   8.313   4.089  0.0831 -0.4071 -0.1521
 7671SOL    HW127375   7.986   8.373   4.021  0.0808 -1.0743 -0.7560
 7671SOL    HW227376   7.878   8.272   4.053 -0.4872 -0.0553  0.6625
 7672SOL     OW27377   7.589   6.691   6.472  0.2077 -0.3307  0.2492
 7672SOL    HW127378   7.582   6.596   6.468  1.1977 -0.4373  0.7867
 7672SOL    HW227379   7.513   6.719   6.523 -0.8326 -0.7051 -1.0649
 7673SOL     OW27380   1.639   4.059   1.976 -0.0114  0.6735  0.0600
 7673SOL    HW127381   1.549   4.082   2.003  0.0618  0.1629  0.7710
 7673SOL    HW227382   1.669   4.136   1.927 -0.5321  1.2151  0.5628
 7674SOL     OW27383   6.392   7.175   4.684  0.2279 -0.1657 -0.3645
 7674SOL    HW127384   6.460   7.154   4.748 -0.5944  1.3463  1.0933
 7674SOL    HW227385   6.417   7.260   4.649 -1.8652  1.4469  1.7274
 7675SOL     OW27386  10.132   9.805   4.136  0.1321 -0.4523  0.4310
 7675SOL    HW127387  10.075   9.831   4.208 -0.4182 -1.3249  0.3248
 7675SOL    HW227388  10.213   9.853   4.151 -0.6881  0.9572  0.4818
 7676SOL     OW27389   9.465   4.501   7.020 -0.5362 -0.1138  0.0182
 7676SOL    HW127390   9.465   4.595   7.034  1.4922 -0.1274  0.4046
 7676SOL    HW227391   9.389   4.485   6.964  0.4252  2.0860 -2.1136
 7677SOL     OW27392   6.605  10.134   4.354  0.5956  0.0090 -0.6538
 7677SOL    HW127393   6.675  10.158   4.415 -0.8010 -0.5817  1.2749
 7677SOL    HW227394   6.524  10.145   4.404 -0.4958 -2.6418 -1.6491
 7678SOL     OW27395   0.794   8.460   2.153  0.2213 -0.3180  0.5892
 7678SOL    HW127396   0.710   8.484   2.114  0.0700  0.1062  1.1618
 7678SOL    HW227397   0.804   8.367   2.135 -0.2487 -0.3114  0.2927
 7679SOL     OW27398   7.536   7.539  10.892 -0.1515  0.4526  0.2534
 7679SOL    HW127399   7.468   7.606  10.895 -0.2424  0.3353  1.3828
 7679SOL    HW227400   7.501   7.471  10.834 -1.0895  0.3041  0.9723
 7680SOL     OW27401  10.168   2.865   9.904 -0.0701  0.0294 -0.4915
 7680SOL    HW127402  10.123   2.919   9.839 -0.4569 -1.7700 -1.8087
 7680SOL    HW227403  10.190   2.784   9.857  0.1707 -1.1111  1.4683
 7681SOL     OW27404   9.653   4.470   4.225 -0.4125  0.2425  0.0944
 7681SOL    HW127405   9.620   4.414   4.154 -0.5048  0.6080 -0.1521
 7681SOL    HW227406   9.747   4.452   4.228 -0.2454  0.9091 -0.7473
 7682SOL     OW27407   5.142   5.241   7.976  0.2865 -0.4224  0.5348
 7682SOL    HW127408   5.063   5.186   7.985 -0.3339  0.0192 -1.5929
 7682SOL    HW227409   5.213   5.178   7.964 -0.2422 -0.8325 -0.6711
 7683SOL     OW27410   7.619   1.841   6.127  0.3079  0.0932 -0.0677
 7683SOL    HW127411   7.575   1.900   6.066  1.7918 -0.0634 -1.3529
 7683SOL    HW227412   7.617   1.756   6.083 -0.2475 -0.4492  0.9693
 7684SOL     OW27413   3.260   5.169   5.950 -0.0943  0.6967  0.1644
 7684SOL    HW127414   3.338   5.121   5.924  0.1600  1.1470  0.0901
 7684SOL    HW227415   3.267   5.177   6.045 -1.0774 -1.0431  0.4408
 7685SOL     OW27416   6.275   3.394   4.037  0.1623  0.1305 -0.0841
 7685SOL    HW127417   6.335   3.342   4.091 -0.9854 -0.4501  0.6778
 7685SOL    HW227418   6.211   3.429   4.099 -1.1833 -0.5431 -1.0408
 7686SOL     OW27419  10.226   1.261   5.364  0.5579 -0.0765  0.1161
 7686SOL    HW127420  10.316   1.234   5.346  1.0299 -0.1406  2.3431
 7686SOL    HW227421  10.204   1.218   5.446 -0.7701  1.5901  0.6866
 7687SOL     OW27422   7.687   4.720   5.554 -0.4269  0.4589 -0.2472
 7687SOL    HW127423   7.605   4.755   5.520 -1.4232 -0.3454  1.2087
 7687SOL    HW227424   7.711   4.779   5.625 -0.3421  0.0864  0.0425
 7688SOL     OW27425   4.476   0.046   2.903  0.7260  0.0217 -0.5982
 7688SOL    HW127426   4.411   0.091   2.849 -0.6627  1.0800  1.7654
 7688SOL    HW227427   4.532   0.116   2.937 -0.5880 -0.0313  2.0004
 7689SOL     OW27428   4.468   8.814   3.896 -0.1675  0.0143 -0.0605
 7689SOL    HW127429   4.556   8.849   3.882  0.5745 -1.6676  0.1712
 7689SOL    HW227430   4.458   8.810   3.991 -0.7040  0.6623 -0.0813
 7690SOL     OW27431   1.926   1.910   8.347 -0.0650  0.0295 -0.0567
 7690SOL    HW127432   1.871   1.987   8.329  0.5590  0.6603  0.6708
 7690SOL    HW227433   1.864   1.838   8.357 -0.7057  0.5768 -0.0361
 7691SOL     OW27434   4.037   8.481  10.926 -0.5203  0.2405 -0.1260
 7691SOL    HW127435   4.115   8.446  10.883  0.5693  1.7690  0.4882
 7691SOL    HW227436   4.069   8.557  10.975 -1.7098 -1.1242  3.0756
 7692SOL     OW27437   4.776   4.614   3.933  0.6364 -0.4617 -0.2483
 7692SOL    HW127438   4.736   4.542   3.982 -2.6761  0.6743 -1.0522
 7692SOL    HW227439   4.844   4.572   3.880  0.8406 -2.4790  1.4847
 7693SOL     OW27440   7.368   0.001   7.302 -0.1769 -0.2408 -0.4145
 7693SOL    HW127441   7.384  -0.068   7.366  0.1930  2.0504  2.1209
 7693SOL    HW227442   7.451   0.011   7.255  1.0663  0.9363  1.8409
 7694SOL     OW27443   8.884   2.989   7.222  0.6825 -0.3633  0.1359
 7694SOL    HW127444   8.867   2.900   7.251  0.5830 -0.0249  1.1637
 7694SOL    HW227445   8.976   3.005   7.246  0.4044  0.1484  0.9211
 7695SOL     OW27446   9.441   4.164   5.637 -0.1274  0.5296 -0.3743
 7695SOL    HW127447   9.471   4.228   5.701  0.6830  0.4701 -0.6891
 7695SOL    HW227448   9.502   4.091   5.646  0.4617  0.8318 -1.7382
 7696SOL     OW27449   9.593   1.162   0.723  0.1226 -0.2934  0.5388
 7696SOL    HW127450   9.616   1.131   0.810 -0.0935  0.2696  0.7965
 7696SOL    HW227451   9.644   1.106   0.664  2.0718  0.8034  1.0960
 7697SOL     OW27452   8.202   5.833   7.054 -0.2381  0.6756 -0.0400
 7697SOL    HW127453   8.177   5.749   7.017  1.3617  1.1895 -2.5347
 7697SOL    HW227454   8.131   5.855   7.114 -1.0740 -2.0494  0.0985
 7698SOL     OW27455   4.895   1.916   0.363  0.4064  0.2228 -0.2042
 7698SOL    HW127456   4.965   1.893   0.423  0.5750  0.0850 -0.4502
 7698SOL    HW227457   4.918   1.870   0.281 -0.7119 -0.9893  0.1352
 7699SOL     OW27458   9.853   9.129   0.244 -0.2831  0.1961 -0.2359
 7699SOL    HW127459   9.810   9.214   0.251 -0.7460 -0.1396  1.3293
 7699SOL    HW227460   9.795   9.068   0.290  1.4958 -0.4005  1.3411
 7700SOL     OW27461   8.993  10.357   9.022 -0.2608  0.0293 -0.4177
 7700SOL    HW127462   9.071  10.390   8.977 -0.0546  0.0006 -0.0827
 7700SOL    HW227463   8.920  10.400   8.977 -0.0084  0.7390 -0.1729
 7701SOL     OW27464   8.909   6.810   7.165 -0.6277 -0.1589  0.3203
 7701SOL    HW127465   8.924   6.904   7.149  1.3921 -0.3958  0.6264
 7701SOL    HW227466   8.888   6.775   7.078  0.1432  0.3227 -0.0713
 7702SOL     OW27467  10.327  10.749   3.622  0.3739  0.4699  0.6563
 7702SOL    HW127468  10.282  10.696   3.688 -0.8437  0.1455 -0.3750
 7702SOL    HW227469  10.398  10.693   3.591 -0.6469 -0.4368 -0.1236
 7703SOL     OW27470   0.790   4.088   9.910  0.1057 -0.4444 -0.3163
 7703SOL    HW127471   0.802   4.114  10.001  0.3469  1.5553 -0.8507
 7703SOL    HW227472   0.733   4.011   9.913  1.3342 -1.3399  1.5677
 7704SOL     OW27473   9.384   4.658   8.933  0.2378 -0.9402 -0.4002
 7704SOL    HW127474   9.446   4.706   8.878 -0.5511 -1.6459 -1.9792
 7704SOL    HW227475   9.310   4.718   8.943  1.0381 -0.1848  1.2965
 7705SOL     OW27476   9.169   2.709   9.852  0.1054 -0.6215  0.0053
 7705SOL    HW127477   9.097   2.764   9.822  0.9665  1.4001  1.3975
 7705SOL    HW227478   9.133   2.661   9.927  0.8028  2.6512  2.7214
 7706SOL     OW27479   8.296   9.268   5.564 -0.2996  0.2315 -0.4260
 7706SOL    HW127480   8.248   9.280   5.646  0.7253 -0.5509  0.3156
 7706SOL    HW227481   8.230   9.276   5.496 -1.4599 -0.6619  0.5575
 7707SOL     OW27482   3.130  11.069   1.516 -0.0933 -0.1616 -0.2306
 7707SOL    HW127483   3.124  11.032   1.427  1.3427  0.3914 -0.5894
 7707SOL    HW227484   3.188  11.010   1.563 -0.5615 -0.2527  0.2405
 7708SOL     OW27485   1.871   7.114   9.507  0.4635  0.0488 -0.2230
 7708SOL    HW127486   1.859   7.147   9.596  2.5302 -2.0070  0.9266
 7708SOL    HW227487   1.951   7.157   9.477  0.4017 -0.1357 -0.6563
 7709SOL     OW27488   8.185  11.040   1.058  0.3842 -0.0623 -1.2224
 7709SOL    HW127489   8.247  11.060   1.128 -0.6107 -2.1033  0.3360
 7709SOL    HW227490   8.240  11.022   0.982  1.4977  2.1050 -1.0017
 7710SOL     OW27491   7.428   1.186   6.779  0.0624  0.4310 -0.6482
 7710SOL    HW127492   7.368   1.122   6.742  0.8352 -0.0326 -1.1397
 7710SOL    HW227493   7.487   1.135   6.834 -0.3163  0.9524  0.2497
 7711SOL     OW27494   4.739   4.357   1.843 -0.3545 -0.0164 -0.2022
 7711SOL    HW127495   4.673   4.288   1.851  1.2846 -1.4953  1.6485
 7711SOL    HW227496   4.817   4.312   1.809  0.2091  1.3247 -0.7490
 7712SOL     OW27497   0.306   1.396   7.768 -0.1652 -0.1609  0.3408
 7712SOL    HW127498   0.361   1.331   7.813 -0.1843 -0.2280  0.2665
 7712SOL    HW227499   0.333   1.480   7.806 -0.2891 -0.2334  0.5891
 7713SOL     OW27500   3.338   0.958   1.669 -0.1430  0.1437 -0.3879
 7713SOL    HW127501   3.395   1.017   1.719 -1.1020  1.7155 -1.0396
 7713SOL    HW227502   3.289   0.910   1.736 -0.5795  1.3793  0.2244
 7714SOL     OW27503   1.508   7.755   9.802 -0.4694 -0.3347  0.7102
 7714SOL    HW127504   1.534   7.794   9.719 -1.1386  4.4717  2.4366
 7714SOL    HW227505   1.413   7.742   9.795 -0.6574  0.8390  0.9426
 7715SOL     OW27506   6.238   5.795   0.474  0.7308 -0.0636  0.0031
 7715SOL    HW127507   6.238   5.704   0.503  1.1752  0.1261  0.6166
 7715SOL    HW227508   6.229   5.846   0.555  0.5128  0.4360 -0.3341
 7716SOL     OW27509   6.076   8.039   7.296  0.1819  0.4670 -0.4130
 7716SOL    HW127510   6.078   8.045   7.391 -0.1704  0.4650 -0.4031
 7716SOL    HW227511   6.153   7.987   7.273  0.4942  0.8126 -0.1558
 7717SOL     OW27512   5.752   7.126   6.954  0.1218  0.1830  0.3101
 7717SOL    HW127513   5.830   7.124   7.010 -0.1542 -1.7829  0.7122
 7717SOL    HW227514   5.679   7.124   7.015 -0.2162  0.1026 -0.0935
 7718SOL     OW27515   3.906   6.425   1.414  0.1889  0.1418 -0.3073
 7718SOL    HW127516   3.885   6.394   1.502 -1.7815 -0.9372 -1.1114
 7718SOL    HW227517   3.991   6.469   1.424 -0.8289  1.6716  2.4587
 7719SOL     OW27518   7.395   6.765   8.202  0.3332  0.1511 -0.1629
 7719SOL    HW127519   7.483   6.735   8.223  0.2105  0.0298  0.1801
 7719SOL    HW227520   7.349   6.687   8.172 -0.1374 -0.1317  1.2163
 7720SOL     OW27521   6.807   4.301   2.761 -0.3001 -0.3357  0.1008
 7720SOL    HW127522   6.717   4.297   2.729  0.0258  0.3452 -0.9118
 7720SOL    HW227523   6.807   4.244   2.838 -1.2430 -1.5295 -0.7439
 7721SOL     OW27524   5.304   6.615   8.229 -0.0674  0.4445  0.2223
 7721SOL    HW127525   5.306   6.702   8.268 -1.1464  0.0950  1.1094
 7721SOL    HW227526   5.215   6.584   8.245 -0.3537  0.0015 -1.9481
 7722SOL     OW27527  10.724   4.184   0.462  0.0834  0.6039  0.3445
 7722SOL    HW127528  10.660   4.243   0.504  0.6971 -0.0664  2.3675
 7722SOL    HW227529  10.786   4.242   0.419 -0.8070  1.3310  0.0080
 7723SOL     OW27530   6.873  10.904  11.096 -0.4259  0.3014 -0.0475
 7723SOL    HW127531   6.937  10.835  11.117 -0.6785  0.3615  0.9409
 7723SOL    HW227532   6.925  10.971  11.051  0.6743  1.2627  2.4853
 7724SOL     OW27533   2.033  10.759   0.434 -0.0384  0.1055  0.6486
 7724SOL    HW127534   2.077  10.806   0.504  0.0814  0.3990  0.3779
 7724SOL    HW227535   2.033  10.820   0.360  0.5874 -0.5067  0.1315
 7725SOL     OW27536   7.069   8.089   8.860  0.9805 -0.0328 -0.2456
 7725SOL    HW127537   7.004   8.121   8.798 -0.1755 -1.0899  0.3566
 7725SOL    HW227538   7.063   7.993   8.855 -0.1086 -0.2081  2.3437
 7726SOL     OW27539  10.535   2.613   9.367 -0.0422 -0.2168 -0.3520
 7726SOL    HW127540  10.558   2.520   9.369 -0.9480 -0.4323  0.6776
 7726SOL    HW227541  10.449   2.616   9.323  0.8820  0.3656 -2.2445
 7727SOL     OW27542   6.640   6.551   3.474  0.0098 -0.6017  0.4731
 7727SOL    HW127543   6.616   6.610   3.403  0.8527 -0.3810  0.3561
 7727SOL    HW227544   6.601   6.590   3.552 -0.3471 -0.4767  0.2337
 7728SOL     OW27545   6.727   5.003   8.635 -0.0953  0.2481 -0.1185
 7728SOL    HW127546   6.784   4.929   8.617 -0.4914  0.3087 -1.7889
 7728SOL    HW227547   6.739   5.061   8.559 -1.8050  0.6000 -0.1597
 7729SOL     OW27548   3.834   9.854   8.289 -0.3403  0.4440  0.3283
 7729SOL    HW127549   3.779   9.887   8.360 -3.2360 -0.9194 -1.1043
 7729SOL    HW227550   3.857   9.932   8.238 -1.5570  0.9918  0.5906
 7730SOL     OW27551   7.385   9.797   3.332 -0.7344 -0.3301  0.8645
 7730SOL    HW127552   7.480   9.798   3.343 -0.7129  1.5949  0.8947
 7730SOL    HW227553   7.351   9.775   3.419 -0.3195  1.4269  1.5249
 7731SOL     OW27554   5.988   8.452   1.258 -0.7020 -0.2210  0.5721
 7731SOL    HW127555   5.909   8.440   1.206 -0.0280  0.5785 -0.6678
 7731SOL    HW227556   5.990   8.376   1.316 -2.1663 -0.4479  0.3641
 7732SOL     OW27557  10.408   6.304   9.503  0.1368  0.3181 -0.2515
 7732SOL    HW127558  10.467   6.229   9.506  1.1547  1.0923 -0.4522
 7732SOL    HW227559  10.334   6.278   9.559  0.7915 -0.5622  0.2362
 7733SOL     OW27560   7.037   4.670   9.513  0.1145 -0.3275  0.1087
 7733SOL    HW127561   7.040   4.617   9.592  2.1003  0.6108  0.7220
 7733SOL    HW227562   7.037   4.606   9.441 -1.2958 -1.1703  0.8157
 7734SOL     OW27563   8.318   5.232   8.953  0.0628  0.0320 -0.1385
 7734SOL    HW127564   8.361   5.257   9.035 -0.9037  3.3306 -0.5046
 7734SOL    HW227565   8.240   5.184   8.981 -0.5551  1.5947  0.9643
 7735SOL     OW27566   7.636   8.544   6.361 -0.4417 -0.0596 -0.3469
 7735SOL    HW127567   7.674   8.630   6.378  0.6458 -0.9516  2.3933
 7735SOL    HW227568   7.657   8.526   6.269 -0.0238  2.2510 -0.7686
 7736SOL     OW27569   8.137   8.068  11.081  0.4689 -1.0738 -0.1030
 7736SOL    HW127570   8.142   8.156  11.118  1.3948 -0.9411 -0.5154
 7736SOL    HW227571   8.228   8.037  11.083  0.4025 -1.3805 -1.4719
 7737SOL     OW27572  10.548   1.310   4.658 -0.0669  0.0421  0.0470
 7737SOL    HW127573  10.642   1.311   4.639 -0.2602  1.3862 -0.9965
 7737SOL    HW227574  10.541   1.338   4.749  0.5666 -0.8397  0.3846
 7738SOL     OW27575   5.586   0.725   4.069  0.2141  0.5076 -0.5328
 7738SOL    HW127576   5.598   0.800   4.127 -0.8469  0.7833 -0.6504
 7738SOL    HW227577   5.491   0.712   4.066  0.3904 -0.9372 -0.4002
 7739SOL     OW27578   0.302   6.342  10.020  0.0203 -0.8256  0.2387
 7739SOL    HW127579   0.304   6.270  10.083  2.6600 -0.1983  0.9757
 7739SOL    HW227580   0.343   6.415  10.065 -0.6451  0.5374 -1.2429
 7740SOL     OW27581   2.453   1.393   8.440 -1.1230  0.0979 -0.2048
 7740SOL    HW127582   2.413   1.349   8.365 -0.6704 -0.2976 -0.2199
 7740SOL    HW227583   2.380   1.438   8.483 -1.1774  1.5259 -1.6773
 7741SOL     OW27584   6.360   3.472  10.609 -0.2206  0.1765 -0.6725
 7741SOL    HW127585   6.380   3.410  10.539 -1.8157 -2.0530  0.7315
 7741SOL    HW227586   6.265   3.472  10.616 -0.1386  0.9033  0.9987
 7742SOL     OW27587   4.003   4.516  10.772  0.2930  0.3742  0.3806
 7742SOL    HW127588   4.042   4.547  10.853  0.9144 -1.0940  0.6809
 7742SOL    HW227589   4.058   4.442  10.746 -2.0101 -1.5308  0.6084
 7743SOL     OW27590   4.089   7.565   5.496 -0.3414  0.4108 -0.1091
 7743SOL    HW127591   4.113   7.587   5.586 -0.1789  1.4330 -0.3837
 7743SOL    HW227592   4.037   7.640   5.466 -1.0170 -0.2417 -0.6336
 7744SOL     OW27593   7.095   0.496   9.596  0.0376 -0.0951 -0.0959
 7744SOL    HW127594   7.154   0.539   9.658 -3.1178  0.8162  2.5434
 7744SOL    HW227595   7.085   0.407   9.630 -1.3114  0.2553  0.4875
 7745SOL     OW27596   3.013   2.297   4.441 -0.2208  0.7260 -0.2013
 7745SOL    HW127597   2.997   2.261   4.354 -0.9350 -1.4678  0.7640
 7745SOL    HW227598   3.109   2.293   4.451 -0.2866 -2.3877  0.3357
 7746SOL     OW27599   4.728   0.652   3.885  0.6317 -0.3947  0.0416
 7746SOL    HW127600   4.804   0.637   3.941  0.4298 -1.6206  0.0228
 7746SOL    HW227601   4.698   0.740   3.906  1.0898 -0.5113  1.2174
 7747SOL     OW27602  10.100   4.241   5.422 -0.3955 -0.5382 -0.1495
 7747SOL    HW127603  10.189   4.207   5.411 -0.1579  0.0738 -0.1791
 7747SOL    HW227604  10.091   4.254   5.516 -0.1552  0.1653 -0.2179
 7748SOL     OW27605   0.956   6.164   0.673 -0.6097  0.1376 -0.0838
 7748SOL    HW127606   0.934   6.121   0.756 -2.8276  0.2507 -0.5712
 7748SOL    HW227607   0.973   6.092   0.612  1.2978  0.0538  0.4748
 7749SOL     OW27608   2.551   8.092   4.425  0.3185  0.2398  0.9392
 7749SOL    HW127609   2.572   8.183   4.447  0.5413 -0.0890  2.1785
 7749SOL    HW227610   2.634   8.045   4.436  0.4519  0.0337 -0.6895
 7750SOL     OW27611   0.176   8.585   4.868 -0.3382 -0.6209  0.3638
 7750SOL    HW127612   0.229   8.551   4.940 -0.2826 -1.6966 -0.1727
 7750SOL    HW227613   0.093   8.538   4.874  0.1537 -1.7568 -1.0812
 7751SOL     OW27614   0.331   3.428   3.328  0.1195  0.3212  0.5080
 7751SOL    HW127615   0.267   3.467   3.269 -0.4938 -0.4627  0.6224
 7751SOL    HW227616   0.301   3.337   3.339  0.1518  0.4624  2.0833
 7752SOL     OW27617   8.485   1.005   9.916  0.7105 -0.5020  0.0521
 7752SOL    HW127618   8.448   1.081   9.871  1.6102 -1.1895 -1.9601
 7752SOL    HW227619   8.444   0.930   9.873  2.3965 -1.2098 -0.3852
 7753SOL     OW27620   8.185   7.920   6.541  0.3743 -0.1349 -0.3654
 7753SOL    HW127621   8.139   7.847   6.499 -0.8674 -0.5678  1.6028
 7753SOL    HW227622   8.257   7.878   6.588 -0.0232 -0.0386  0.3365
 7754SOL     OW27623   1.887   0.346   3.087  0.1505 -0.0079 -0.0080
 7754SOL    HW127624   1.862   0.285   3.018 -0.9268 -0.3543  0.6604
 7754SOL    HW227625   1.971   0.381   3.059  0.2470 -0.9501 -0.9587
 7755SOL     OW27626   7.890   9.192  10.835 -0.1369 -0.0240  0.4699
 7755SOL    HW127627   7.966   9.210  10.889 -0.7836  0.4739  1.2297
 7755SOL    HW227628   7.887   9.265  10.773  0.9550 -0.9002 -0.6942
 7756SOL     OW27629   6.466   0.185   9.235 -0.6135  0.6231  0.1106
 7756SOL    HW127630   6.459   0.278   9.210 -0.3431  0.7322  0.4346
 7756SOL    HW227631   6.558   0.163   9.217 -0.6189  0.4824  0.2587
 7757SOL     OW27632   5.638   3.965   7.842 -0.0041 -0.4643 -0.1408
 7757SOL    HW127633   5.583   3.895   7.807  0.9138 -0.3891 -1.8193
 7757SOL    HW227634   5.727   3.940   7.818  0.2684  1.8112 -1.8113
 7758SOL     OW27635   8.617   7.984  10.084  0.2368  0.2347 -0.0107
 7758SOL    HW127636   8.539   7.934  10.108 -0.4436  2.0405  1.9038
 7758SOL    HW227637   8.584   8.059  10.035  0.6362  1.3124  1.2863
 7759SOL     OW27638   7.677   0.578   0.170  0.1586  0.7583 -0.2093
 7759SOL    HW127639   7.632   0.560   0.252  0.8985  3.1805  0.8137
 7759SOL    HW227640   7.770   0.567   0.190  0.2740 -1.2133 -1.4920
 7760SOL     OW27641   4.207   9.978   4.137  0.0588 -0.2779 -0.5940
 7760SOL    HW127642   4.262   9.904   4.111  0.1407 -0.2749 -0.4329
 7760SOL    HW227643   4.198  10.030   4.058 -1.4695 -1.3805 -1.1990
 7761SOL     OW27644   2.940   2.751   6.725 -0.3415 -0.2034  0.2146
 7761SOL    HW127645   3.032   2.725   6.732 -0.2277 -0.1115 -0.7421
 7761SOL    HW227646   2.896   2.673   6.692 -0.4025  0.0912 -0.4200
 7762SOL     OW27647  10.513   1.946   3.792  0.1094 -0.5815 -0.1610
 7762SOL    HW127648  10.470   2.003   3.729  1.5566 -0.3704 -1.0065
 7762SOL    HW227649  10.486   1.857   3.766 -0.5789 -0.4053 -0.0618
 7763SOL     OW27650   1.373   6.240   6.432 -0.7049 -0.1835  0.4209
 7763SOL    HW127651   1.352   6.174   6.367  0.3886 -1.6602  1.4947
 7763SOL    HW227652   1.466   6.258   6.419 -1.2650  2.3162 -0.8166
 7764SOL     OW27653   9.752   1.008  10.841 -0.2255 -0.2109 -0.3545
 7764SOL    HW127654   9.701   1.043  10.767 -1.0695 -0.3087  0.1635
 7764SOL    HW227655   9.700   0.935  10.873  1.3740 -1.8018 -1.2294
 7765SOL     OW27656   1.151   3.259   0.163  0.2219  0.3063  0.2539
 7765SOL    HW127657   1.159   3.337   0.217  1.2263  0.0350  0.5162
 7765SOL    HW227658   1.170   3.186   0.222 -0.6810 -0.1557  0.0094
 7766SOL     OW27659   4.318   8.852   0.773 -0.1125  0.0860  0.2461
 7766SOL    HW127660   4.267   8.803   0.836 -0.9936 -1.0711 -1.3007
 7766SOL    HW227661   4.255   8.881   0.707  0.9188  0.2982 -0.6971
 7767SOL     OW27662   1.101   3.321   7.033 -0.0001  0.1301 -0.1852
 7767SOL    HW127663   1.173   3.378   7.005  1.1800 -0.4841  1.4471
 7767SOL    HW227664   1.044   3.315   6.957  0.5039  2.4517 -0.8264
 7768SOL     OW27665   9.373   8.306   8.222 -0.0354  0.3476 -0.3745
 7768SOL    HW127666   9.402   8.226   8.265 -0.1916 -0.0874 -1.0522
 7768SOL    HW227667   9.398   8.376   8.282 -0.9265 -0.2806  0.7681
 7769SOL     OW27668   2.329   4.252   5.426 -0.1537 -0.0442  0.3049
 7769SOL    HW127669   2.382   4.183   5.464  0.8513  0.7004  0.3012
 7769SOL    HW227670   2.251   4.257   5.483 -0.6766 -1.7330 -0.2024
 7770SOL     OW27671   0.967   5.624   0.952  0.6107 -0.2916 -0.0174
 7770SOL    HW127672   0.898   5.614   0.886  0.0349 -0.9580  0.6629
 7770SOL    HW227673   0.943   5.704   0.998  0.1851 -0.6126  0.3282
 7771SOL     OW27674   4.685   8.069   5.824  0.2469 -0.3500  0.0074
 7771SOL    HW127675   4.759   8.094   5.768  0.2637 -0.7070 -0.1333
 7771SOL    HW227676   4.690   8.129   5.898 -0.1802  0.5698 -0.7016
 7772SOL     OW27677   5.298   2.950   5.362  0.4911  0.1898 -0.4615
 7772SOL    HW127678   5.240   3.024   5.347  1.7771  1.6557  1.2661
 7772SOL    HW227679   5.326   2.960   5.453  3.3288 -0.4542 -1.1669
 7773SOL     OW27680   0.670  10.773   3.922 -0.4732  0.0293  0.1760
 7773SOL    HW127681   0.622  10.813   3.994  0.4695  1.2118  0.1767
 7773SOL    HW227682   0.653  10.679   3.930 -2.5244  0.3670  0.3494
 7774SOL     OW27683   3.536   4.185  10.709  0.1357 -0.6689  0.4461
 7774SOL    HW127684   3.529   4.198  10.614  0.6331  1.9963  0.7023
 7774SOL    HW227685   3.582   4.262  10.741 -2.6283  0.0378  3.2318
 7775SOL     OW27686   3.503   0.966   8.354  0.5831 -0.3650  0.7414
 7775SOL    HW127687   3.442   0.898   8.381  0.6380 -0.4707  0.6029
 7775SOL    HW227688   3.576   0.960   8.416  0.3073 -0.0306  1.0966
 7776SOL     OW27689   5.856   4.439   5.413  0.5169  0.0883  0.2794
 7776SOL    HW127690   5.777   4.410   5.459  0.7813 -0.5418  0.3435
 7776SOL    HW227691   5.844   4.534   5.402 -0.7121 -0.1452 -0.6046
 7777SOL     OW27692   3.672   0.762   8.167 -0.3719 -0.4490 -0.7119
 7777SOL    HW127693   3.709   0.830   8.111  2.0953 -1.1906 -0.1297
 7777SOL    HW227694   3.737   0.751   8.237 -2.3370 -1.0151  1.1530
 7778SOL     OW27695   4.238   1.575   8.763 -0.1676  0.6232 -0.1904
 7778SOL    HW127696   4.327   1.572   8.726  0.7008  1.1556  1.7244
 7778SOL    HW227697   4.205   1.662   8.738  0.0694  0.6566 -0.4003
 7779SOL     OW27698   5.349   3.790   6.981  0.7210 -0.2248 -0.5008
 7779SOL    HW127699   5.386   3.735   6.912  0.9110 -2.5788  1.3136
 7779SOL    HW227700   5.397   3.764   7.060 -1.7086 -0.1329  1.1294
 7780SOL     OW27701   9.589   8.860   1.902 -0.4671  0.3979  0.2148
 7780SOL    HW127702   9.601   8.872   1.807  0.1319 -0.8310  0.1207
 7780SOL    HW227703   9.609   8.946   1.939 -0.5865  0.8661 -0.7647
 7781SOL     OW27704   3.343  10.692   9.757  0.1030 -0.0569  0.1722
 7781SOL    HW127705   3.431  10.675   9.791  0.4612 -0.1093 -0.7546
 7781SOL    HW227706   3.296  10.729   9.832  1.4243  1.6551  0.2317
 7782SOL     OW27707   9.144   7.967   8.803  0.0915 -0.0605  0.1412
 7782SOL    HW127708   9.118   7.923   8.722  1.3168 -2.0737  0.7670
 7782SOL    HW227709   9.071   7.951   8.863  0.0508 -0.2933  0.0317
 7783SOL     OW27710   8.932   8.859   8.340 -0.0269 -0.1763  0.1999
 7783SOL    HW127711   8.991   8.808   8.285 -0.0170  1.6068 -1.5403
 7783SOL    HW227712   8.991   8.911   8.395 -0.0009  0.1823 -0.1671
 7784SOL     OW27713   1.271   2.668   4.862  0.2856  0.1836 -0.1497
 7784SOL    HW127714   1.214   2.630   4.929 -0.4236 -0.0655 -0.8745
 7784SOL    HW227715   1.325   2.731   4.909 -0.1183 -0.0720  0.6748
 7785SOL     OW27716   8.404   3.018   9.888 -0.2785 -0.0562  0.0749
 7785SOL    HW127717   8.359   3.102   9.890 -1.3582 -0.6240  0.3984
 7785SOL    HW227718   8.341   2.956   9.925  1.5883 -0.4926  2.9118
 7786SOL     OW27719   3.676   6.724   6.027  0.1808  0.7093  0.1109
 7786SOL    HW127720   3.582   6.731   6.045  0.4948  0.5465  2.1121
 7786SOL    HW227721   3.695   6.797   5.968 -1.3237  0.2465 -1.0204
 7787SOL     OW27722  10.237   7.139   4.965 -0.6741  0.1178 -0.0463
 7787SOL    HW127723  10.285   7.089   5.031 -1.9958 -0.2156  0.6856
 7787SOL    HW227724  10.170   7.186   5.014 -0.6764  1.1209 -0.9652
 7788SOL     OW27725   8.936   4.741   2.010  0.0053  0.1928  0.2836
 7788SOL    HW127726   8.964   4.684   2.081 -1.1125  1.0394  1.4563
 7788SOL    HW227727   9.002   4.729   1.941  1.3457 -0.3409  1.6152
 7789SOL     OW27728   0.189   6.999   6.120  0.0406  0.4197  0.1450
 7789SOL    HW127729   0.173   7.093   6.106 -1.4675 -0.0982 -2.3650
 7789SOL    HW227730   0.111   6.969   6.166 -0.3294  0.1184 -0.6580
 7790SOL     OW27731  10.452  10.157   7.177  0.0575 -0.7296 -0.1803
 7790SOL    HW127732  10.544  10.132   7.179 -0.0382 -1.1215 -0.5272
 7790SOL    HW227733  10.416  10.123   7.259  0.2788 -0.3374  0.0818
 7791SOL     OW27734   7.434   0.210   1.708 -0.3652  0.0483 -0.2156
 7791SOL    HW127735   7.360   0.194   1.650  0.0876 -1.8234 -0.3469
 7791SOL    HW227736   7.511   0.194   1.653  0.0814 -0.5458  0.5668
 7792SOL     OW27737   2.382   9.526   6.373  0.2090 -0.2478  0.2093
 7792SOL    HW127738   2.457   9.520   6.313  0.0375  0.1516 -0.0531
 7792SOL    HW227739   2.409   9.476   6.450  0.5942 -0.4293 -0.0363
 7793SOL     OW27740   3.799   2.310   4.322 -0.0122  0.3720 -0.3406
 7793SOL    HW127741   3.834   2.399   4.313 -1.2924  1.1927  1.9390
 7793SOL    HW227742   3.797   2.295   4.417  0.4711 -2.2594 -0.6593
 7794SOL     OW27743   5.301   4.645   2.425  0.0119 -0.7635  0.3394
 7794SOL    HW127744   5.265   4.727   2.460 -0.6813 -0.6123 -0.6850
 7794SOL    HW227745   5.303   4.586   2.501  1.1144  0.3701  1.2439
 7795SOL     OW27746   0.724   2.178   2.461  0.4618  0.0055  0.5121
 7795SOL    HW127747   0.729   2.269   2.491  0.8797 -0.0397  0.5864
 7795SOL    HW227748   0.660   2.180   2.391  2.5551  0.9380 -1.5103
 7796SOL     OW27749   3.998   4.483   2.233  0.3518  0.1356  0.0055
 7796SOL    HW127750   4.065   4.432   2.187  1.4407  0.1893  1.4577
 7796SOL    HW227751   3.979   4.556   2.174  1.0197 -0.2781 -0.7530
 7797SOL     OW27752   8.899   9.575   0.796  0.0222 -0.3780 -0.1083
 7797SOL    HW127753   8.943   9.559   0.713 -0.9707 -2.1374 -0.3465
 7797SOL    HW227754   8.955   9.534   0.862 -0.2758 -0.9230 -0.1864
 7798SOL     OW27755   5.686   9.582   4.268 -0.0604 -0.0326 -0.8406
 7798SOL    HW127756   5.765   9.631   4.248 -0.2556 -0.0050 -1.5709
 7798SOL    HW227757   5.670   9.599   4.361  1.2506 -0.7174 -0.4618
 7799SOL     OW27758   5.300   6.240   1.158  0.0765 -0.4101 -0.2035
 7799SOL    HW127759   5.388   6.252   1.195 -0.4395 -0.9750  1.2631
 7799SOL    HW227760   5.260   6.174   1.213 -1.2363 -0.2743 -0.9624
 7800SOL     OW27761   7.332   5.010   2.620  0.1703  0.3683  0.6954
 7800SOL    HW127762   7.288   4.928   2.599 -0.4191  0.1874  2.5140
 7800SOL    HW227763   7.304   5.031   2.709  0.8804  2.1730  0.5370
 7801SOL     OW27764   4.760   0.910   6.598 -0.1922 -0.7176 -0.1964
 7801SOL    HW127765   4.722   0.896   6.512  2.1097  1.3766 -1.6981
 7801SOL    HW227766   4.848   0.871   6.592  0.0328 -0.4812  1.1907
 7802SOL     OW27767   6.243   5.730   7.520 -0.2636 -0.1493 -0.2689
 7802SOL    HW127768   6.285   5.754   7.603 -0.1024 -0.7696 -0.1682
 7802SOL    HW227769   6.283   5.788   7.455  1.6193 -1.4868 -0.3815
 7803SOL     OW27770   7.232   4.540   5.943  0.2487 -0.0420 -0.1629
 7803SOL    HW127771   7.313   4.518   5.989  0.9710 -0.3128 -1.5171
 7803SOL    HW227772   7.201   4.620   5.986  1.5414  0.3902 -0.0193
 7804SOL     OW27773   2.978  10.659   4.032  0.6031  0.0592  0.4561
 7804SOL    HW127774   2.989  10.752   4.053  0.5869 -0.1858  1.6051
 7804SOL    HW227775   2.916  10.626   4.097  1.2650 -0.9491  0.5985
 7805SOL     OW27776   1.878   3.808   4.854  0.3782 -0.5939  0.4923
 7805SOL    HW127777   1.921   3.891   4.874 -2.4849  0.9335  0.8968
 7805SOL    HW227778   1.918   3.745   4.915  0.9915  1.0289  1.8596
 7806SOL     OW27779   6.117  10.534   9.335  0.6045 -0.2747  0.0463
 7806SOL    HW127780   6.068  10.616   9.337  0.0522 -0.5642 -0.8393
 7806SOL    HW227781   6.050  10.466   9.337  0.9884 -0.6862 -0.6832
 7807SOL     OW27782   5.215   3.177   8.204  0.0141  0.5385  0.3211
 7807SOL    HW127783   5.211   3.157   8.298  0.3155  0.2625  0.2761
 7807SOL    HW227784   5.187   3.097   8.161  0.1343  0.5781  0.1681
 7808SOL     OW27785   0.491   8.180   8.728 -0.4641 -0.6130  0.5645
 7808SOL    HW127786   0.405   8.210   8.758  0.0112 -0.4141  1.7936
 7808SOL    HW227787   0.511   8.105   8.784  0.0529 -0.8072  0.1239
 7809SOL     OW27788   3.142   5.090   0.154 -0.2978  0.3279  0.3832
 7809SOL    HW127789   3.080   5.018   0.144 -1.5042  1.4232 -0.3153
 7809SOL    HW227790   3.097   5.153   0.212  0.6288  0.6416  0.7854
 7810SOL     OW27791   3.962   2.161   6.741  0.3591 -0.3638 -0.1855
 7810SOL    HW127792   3.898   2.219   6.700  0.3850  0.1150  0.4375
 7810SOL    HW227793   4.040   2.168   6.685  0.6787  0.9300  0.3783
 7811SOL     OW27794  10.001   9.782  10.415  0.1360  0.0065  0.4939
 7811SOL    HW127795  10.038   9.780  10.327  1.4915 -0.0587  1.0436
 7811SOL    HW227796   9.907   9.794  10.401  0.3172 -0.0823 -0.9553
 7812SOL     OW27797   1.953   8.779   2.768  0.2355 -0.1132 -0.7915
 7812SOL    HW127798   1.893   8.774   2.693 -2.3341  1.7897  0.9434
 7812SOL    HW227799   1.960   8.873   2.786  1.3465 -0.4988  0.9069
 7813SOL     OW27800  11.105  10.924   2.398 -0.1590  0.2080  0.7758
 7813SOL    HW127801  11.125  10.986   2.469  1.2039 -0.8472  1.3520
 7813SOL    HW227802  11.184  10.921   2.345 -0.9620  0.5306 -0.4930
 7814SOL     OW27803   5.650   7.474   9.160 -0.1491  0.4029  0.2869
 7814SOL    HW127804   5.623   7.395   9.114  1.2799  1.7374 -3.2839
 7814SOL    HW227805   5.569   7.523   9.175 -1.0166 -1.5123  2.3514
 7815SOL     OW27806   7.494   9.012   6.589 -0.2289  0.1756 -0.5365
 7815SOL    HW127807   7.468   9.085   6.534 -0.7954  0.7326  0.4530
 7815SOL    HW227808   7.517   8.942   6.527 -1.0728  0.7067 -1.4660
 7816SOL     OW27809   5.114   5.986   0.685  0.1488 -0.0380 -0.6546
 7816SOL    HW127810   5.090   5.895   0.705 -2.6493  0.6548 -0.3943
 7816SOL    HW227811   5.199   5.980   0.642  1.9578 -2.4296  2.8206
 7817SOL     OW27812   5.665   9.333   1.377 -0.1832  0.1403  0.9301
 7817SOL    HW127813   5.661   9.246   1.337 -1.0177 -0.1058  1.5192
 7817SOL    HW227814   5.576   9.348   1.410  0.4385  0.3993  2.5628
 7818SOL     OW27815  10.777   7.859   8.549  0.1905 -0.1225  0.3740
 7818SOL    HW127816  10.843   7.882   8.483 -1.0587  0.8812 -0.5769
 7818SOL    HW227817  10.757   7.767   8.531  0.3990 -0.0664 -0.1814
 7819SOL     OW27818   0.924   2.229   2.946 -0.1638  0.0646 -0.2382
 7819SOL    HW127819   0.956   2.306   2.993 -0.2380 -0.6304  0.9717
 7819SOL    HW227820   0.986   2.160   2.967 -0.0025 -0.1815 -1.4558
 7820SOL     OW27821  10.828   4.500   0.368  0.1163  0.1235  0.6748
 7820SOL    HW127822  10.756   4.562   0.359 -0.8969 -1.0119  0.6446
 7820SOL    HW227823  10.876   4.507   0.285 -1.8810 -1.3958 -0.7153
 7821SOL     OW27824   9.575   9.462  11.045  0.5498  0.4935  0.1270
 7821SOL    HW127825   9.481   9.476  11.036  0.6425  1.8671  0.8177
 7821SOL    HW227826   9.606   9.440  10.957 -0.5852 -1.3072  0.1400
 7822SOL     OW27827   3.758   8.113   6.001  0.0978 -0.2629 -1.0268
 7822SOL    HW127828   3.697   8.055   5.955  0.7580 -0.6041 -1.4845
 7822SOL    HW227829   3.797   8.167   5.932 -0.5502  0.7937 -0.6025
 7823SOL     OW27830   6.395   2.702   0.490 -0.8470  0.0063 -0.3839
 7823SOL    HW127831   6.449   2.781   0.485 -2.1605  0.9087 -1.4967
 7823SOL    HW227832   6.370   2.696   0.582 -1.4829  1.4712 -0.4255
 7824SOL     OW27833   6.175   3.688   5.023 -0.0160 -0.2284 -0.3520
 7824SOL    HW127834   6.252   3.634   5.039 -0.6963 -0.7428  1.3414
 7824SOL    HW227835   6.195   3.734   4.941  2.4474  0.3033  0.4613
 7825SOL     OW27836   6.240   4.031   1.097 -0.0320  0.1190 -0.1836
 7825SOL    HW127837   6.284   3.981   1.166 -1.4973 -0.4403  0.3947
 7825SOL    HW227838   6.197   4.103   1.144 -0.2894  0.2534 -0.6229
 7826SOL     OW27839   5.243   4.811   3.473  0.1196 -0.4198 -0.2246
 7826SOL    HW127840   5.207   4.723   3.475 -2.1184  0.1825 -3.8996
 7826SOL    HW227841   5.336   4.799   3.453 -0.0614 -1.9438 -0.2282
 7827SOL     OW27842   8.100   3.091   6.419 -0.4852  0.1570  0.0926
 7827SOL    HW127843   8.043   3.052   6.352 -0.5688  0.2586  0.1037
 7827SOL    HW227844   8.164   3.142   6.369  0.8791 -1.5935 -0.0420
 7828SOL     OW27845   5.424   3.194   9.538 -0.2608  0.1005  0.2457
 7828SOL    HW127846   5.505   3.142   9.540  0.0130  0.5256  0.4023
 7828SOL    HW227847   5.357   3.132   9.510  0.1895 -0.1659 -0.2822
 7829SOL     OW27848  10.257   0.962   9.759  0.2484  0.3459 -0.1092
 7829SOL    HW127849  10.199   0.993   9.828  0.5307  0.7774 -0.0641
 7829SOL    HW227850  10.223   0.875   9.735  2.1245 -1.3892  2.8952
 7830SOL     OW27851   3.789   0.934   1.360  0.0090 -0.1896  0.3836
 7830SOL    HW127852   3.854   1.004   1.363 -1.3293  1.3011 -2.2945
 7830SOL    HW227853   3.706   0.978   1.376 -0.8480 -1.1735 -1.1627
 7831SOL     OW27854   3.406  11.041   4.246 -0.0157 -1.0481 -0.5107
 7831SOL    HW127855   3.360  11.016   4.326 -0.7069  1.1311 -0.1695
 7831SOL    HW227856   3.499  11.044   4.272 -0.1051 -1.5437 -0.1236
 7832SOL     OW27857   6.508   1.035   3.130 -0.0920  0.4837  0.1907
 7832SOL    HW127858   6.523   1.066   3.219  0.3102  1.0187 -0.0587
 7832SOL    HW227859   6.433   1.087   3.099  0.4887  1.1226 -0.1750
 7833SOL     OW27860   3.468   6.010   8.437  0.5967 -0.4207  0.1812
 7833SOL    HW127861   3.460   5.994   8.531  1.9894 -1.3972  0.1628
 7833SOL    HW227862   3.378   6.012   8.405  0.1425 -1.7461  1.2779
 7834SOL     OW27863   8.435   6.058   3.532 -0.1343  0.6719 -0.0611
 7834SOL    HW127864   8.485   6.110   3.469 -0.1235  0.4732 -0.2213
 7834SOL    HW227865   8.344   6.066   3.502  0.0413 -0.7169 -1.0702
 7835SOL     OW27866   2.333   2.375   3.447  0.0325 -0.3474  1.0355
 7835SOL    HW127867   2.422   2.348   3.472  1.1994  2.8340  0.6944
 7835SOL    HW227868   2.285   2.378   3.530  0.4989 -1.1228  1.3487
 7836SOL     OW27869   7.505   2.694   5.691  0.0243  0.3247  0.8706
 7836SOL    HW127870   7.436   2.749   5.727  1.6491  2.7893  0.4760
 7836SOL    HW227871   7.567   2.684   5.763 -0.9461 -2.3944  1.4219
 7837SOL     OW27872   4.929   2.250   1.049  0.4606 -0.6239 -0.3728
 7837SOL    HW127873   4.895   2.338   1.066  0.7654 -0.6708  0.5637
 7837SOL    HW227874   4.887   2.195   1.115 -0.7269 -1.4370 -1.7824
 7838SOL     OW27875   5.026   8.261   8.437  0.1104  0.2963 -0.0466
 7838SOL    HW127876   4.985   8.200   8.375 -0.6506  1.5843 -0.8594
 7838SOL    HW227877   5.119   8.258   8.414  0.8169 -3.3393  2.4126
 7839SOL     OW27878   5.553   6.029   0.805 -0.8982  0.5769 -0.1797
 7839SOL    HW127879   5.532   6.122   0.796  1.6466  1.5930  2.5864
 7839SOL    HW227880   5.521   6.006   0.892 -1.1747 -1.0620 -0.6939
 7840SOL     OW27881   3.888  10.194   1.554 -0.1133  0.1554 -0.5142
 7840SOL    HW127882   3.828  10.122   1.539  1.7517 -1.1008 -2.5018
 7840SOL    HW227883   3.974  10.160   1.528  1.0671  2.6330 -0.1620
 7841SOL     OW27884   4.560   1.697   1.987  0.1704 -0.3862 -0.5010
 7841SOL    HW127885   4.592   1.785   1.968  0.6832 -0.7294 -1.2845
 7841SOL    HW227886   4.632   1.655   2.034 -0.1901 -0.2948  0.1374
 7842SOL     OW27887   4.384   9.882   8.596 -0.2357 -0.4703 -0.7301
 7842SOL    HW127888   4.391   9.895   8.690 -0.3331  1.2651 -0.9369
 7842SOL    HW227889   4.456   9.933   8.559  0.2747 -1.7467 -1.5806
 7843SOL     OW27890   4.724   6.501   8.838 -0.5488 -0.0074  0.0623
 7843SOL    HW127891   4.699   6.593   8.853 -1.4641 -0.2821  0.3233
 7843SOL    HW227892   4.767   6.475   8.919 -2.8007 -0.6036  1.1446
 7844SOL     OW27893   7.103  10.788   0.065 -0.2970 -0.2019 -0.3307
 7844SOL    HW127894   7.156  10.842   0.005 -0.8967 -0.5924 -1.2268
 7844SOL    HW227895   7.167  10.750   0.125  0.2224  0.8931 -0.1609
 7845SOL     OW27896   3.883   8.684   2.033  0.5480 -0.5135 -0.0297
 7845SOL    HW127897   3.866   8.665   1.941  2.1512 -0.2544 -0.4144
 7845SOL    HW227898   3.938   8.611   2.062 -0.1690 -0.7356  0.8199
 7846SOL     OW27899   6.693   4.278  10.726  0.2744 -0.0924 -0.2646
 7846SOL    HW127900   6.784   4.305  10.736  0.5692 -1.1969  0.2181
 7846SOL    HW227901   6.692   4.225  10.646 -0.0462  0.2672 -0.5088
 7847SOL     OW27902   6.881   8.498   2.112  0.0503  0.2807 -0.5791
 7847SOL    HW127903   6.860   8.565   2.177 -3.0940 -1.0500 -0.0124
 7847SOL    HW227904   6.890   8.546   2.030  1.2892  1.6888  0.3232
 7848SOL     OW27905   7.452   2.501   1.190 -0.1323 -0.0039  0.1060
 7848SOL    HW127906   7.392   2.576   1.196  1.2782  1.0284  2.5406
 7848SOL    HW227907   7.538   2.540   1.177  0.7441 -1.0981  2.1723
 7849SOL     OW27908   3.871   4.745   6.559 -0.0221  0.0629  0.0720
 7849SOL    HW127909   3.850   4.838   6.566 -0.7452 -0.1509  1.0112
 7849SOL    HW227910   3.939   4.731   6.625 -0.1918 -0.1440  0.2052
 7850SOL     OW27911   8.797   5.148   9.794 -0.1345  0.3374  0.4919
 7850SOL    HW127912   8.864   5.090   9.759  0.9470  2.4782 -1.2820
 7850SOL    HW227913   8.742   5.170   9.718  0.1059  2.3466  0.8355
 7851SOL     OW27914   7.992   0.268   6.004 -0.2442 -0.3415 -0.1781
 7851SOL    HW127915   7.989   0.263   5.909 -2.8145  2.2861 -0.3672
 7851SOL    HW227916   7.902   0.249   6.032 -0.3317  1.9912  1.4217
 7852SOL     OW27917   5.505   6.833   6.197 -0.2167 -0.2928 -0.0878
 7852SOL    HW127918   5.583   6.783   6.219  0.4049  1.0316  0.8207
 7852SOL    HW227919   5.440   6.805   6.263 -0.2152 -0.6900 -0.2522
 7853SOL     OW27920   3.922   6.504   1.162  0.2782  0.4390 -0.8081
 7853SOL    HW127921   3.875   6.462   1.233  1.2178 -0.9352 -0.9506
 7853SOL    HW227922   3.975   6.572   1.204  1.1627 -0.6557 -0.1079
 7854SOL     OW27923   4.771   0.930   1.668 -0.2946 -0.6587 -0.8690
 7854SOL    HW127924   4.811   0.953   1.752  2.0308  0.1278 -2.1202
 7854SOL    HW227925   4.703   0.996   1.655  0.1600 -0.0416 -0.1629
 7855SOL     OW27926   7.052   9.678   1.675  0.3351  0.7053 -0.1134
 7855SOL    HW127927   7.057   9.661   1.581 -0.6762  0.2743 -0.1040
 7855SOL    HW227928   7.064   9.773   1.683  2.4363  0.5185 -0.4795
 7856SOL     OW27929   4.675   2.967   8.308  0.3164  0.7452 -0.1941
 7856SOL    HW127930   4.754   2.935   8.264 -1.4073 -0.6174 -2.5061
 7856SOL    HW227931   4.603   2.925   8.261 -1.8642  2.8936  1.0305
 7857SOL     OW27932   0.434   8.686   0.826 -0.3611 -0.0020  0.2196
 7857SOL    HW127933   0.410   8.769   0.783 -0.9858  0.0391  0.6391
 7857SOL    HW227934   0.362   8.669   0.886 -0.3765 -1.0035 -0.0728
 7858SOL     OW27935   3.517  10.972   1.372 -0.8231  0.3691 -0.0328
 7858SOL    HW127936   3.461  10.898   1.395 -0.1330  0.1860  1.1595
 7858SOL    HW227937   3.508  11.032   1.447  0.9833  0.0789  0.4552
 7859SOL     OW27938   1.632   4.500   4.840  0.3378 -0.8451 -0.3285
 7859SOL    HW127939   1.699   4.499   4.771  0.8362 -0.5074  0.1403
 7859SOL    HW227940   1.652   4.423   4.894  0.3604 -0.7359 -0.1801
 7860SOL     OW27941   9.794   5.858   1.377  0.1862 -0.1690 -0.1522
 7860SOL    HW127942   9.802   5.893   1.289 -0.6626  0.5599  0.0420
 7860SOL    HW227943   9.722   5.795   1.372  1.0696 -1.1874 -0.2830
 7861SOL     OW27944   2.085   4.538   5.679 -0.1304  0.7357  0.0155
 7861SOL    HW127945   2.126   4.600   5.740 -1.6495  0.8587  0.9480
 7861SOL    HW227946   2.096   4.579   5.593  0.5168  1.4042  0.4002
 7862SOL     OW27947   9.910   1.911   1.908  0.1562 -0.6608 -0.6595
 7862SOL    HW127948   9.831   1.910   1.961  0.1579  2.5775 -0.3913
 7862SOL    HW227949   9.879   1.905   1.818 -0.2722 -0.7001 -0.5089
 7863SOL     OW27950   2.427   4.619   1.847 -0.1369 -0.4242  0.2599
 7863SOL    HW127951   2.493   4.566   1.891 -1.4563 -1.8986  0.5899
 7863SOL    HW227952   2.347   4.566   1.853 -0.9036  0.3950 -1.8439
 7864SOL     OW27953   8.022   6.134   7.103 -0.2073 -0.2718 -0.1945
 7864SOL    HW127954   8.099   6.191   7.098 -0.3310 -0.0121  0.6548
 7864SOL    HW227955   8.042   6.075   7.176 -1.6931  1.1574  1.4467
 7865SOL     OW27956   9.938  10.387   1.264 -0.3577 -0.2229 -0.1913
 7865SOL    HW127957   9.854  10.346   1.242 -0.1431 -0.3588 -0.7609
 7865SOL    HW227958   9.970  10.423   1.182 -0.6511  1.3208  0.3277
 7866SOL     OW27959  10.598   9.835   3.316 -0.3169  0.2862  0.3401
 7866SOL    HW127960  10.693   9.835   3.323 -0.1088 -0.8497 -1.6359
 7866SOL    HW227961  10.581   9.839   3.222 -2.1863 -1.0020  0.5710
 7867SOL     OW27962   7.200   7.980   8.177  0.0909  0.3942  0.2979
 7867SOL    HW127963   7.212   8.072   8.152 -1.2765  0.4960 -0.0705
 7867SOL    HW227964   7.251   7.931   8.113 -1.7417  0.7620 -1.5218
 7868SOL     OW27965  10.257   2.659   8.886 -0.6523  0.2588  0.0839
 7868SOL    HW127966  10.163   2.677   8.894 -0.9607 -1.0442 -0.3234
 7868SOL    HW227967  10.261   2.579   8.833  0.7278  0.8158 -0.6942
 7869SOL     OW27968   1.550   6.739  10.589  0.1369  0.4218  0.3911
 7869SOL    HW127969   1.546   6.672  10.520 -1.0553  1.0360 -0.1527
 7869SOL    HW227970   1.533   6.690  10.670  1.0891 -0.2279  0.2157
 7870SOL     OW27971   9.192   1.597   9.110  0.8342  0.0866  0.0318
 7870SOL    HW127972   9.270   1.621   9.060  0.5651  0.2255 -0.3260
 7870SOL    HW227973   9.140   1.677   9.113 -0.8197 -0.7368 -2.5250
 7871SOL     OW27974   9.831   2.802   7.085  0.0267 -0.1504 -0.2593
 7871SOL    HW127975   9.924   2.783   7.096 -0.2967 -1.0363  1.2857
 7871SOL    HW227976   9.816   2.883   7.135 -0.0514 -0.0849 -0.3883
 7872SOL     OW27977   7.473   6.599   3.775  0.2617 -0.3477 -0.3199
 7872SOL    HW127978   7.447   6.652   3.700 -0.8219  2.8606  2.1029
 7872SOL    HW227979   7.547   6.646   3.813 -0.8690 -0.3268  2.0460
 7873SOL     OW27980   0.737   3.541   0.157  0.1678 -0.6138  0.5009
 7873SOL    HW127981   0.644   3.533   0.137  0.0916 -0.6908  0.8848
 7873SOL    HW227982   0.742   3.603   0.230  0.3782 -0.9602  0.7873
 7874SOL     OW27983   9.511   9.389  10.169 -0.1934 -0.1148 -0.6760
 7874SOL    HW127984   9.600   9.367  10.195  0.1049  0.8689 -0.8273
 7874SOL    HW227985   9.456   9.348  10.236  0.6037  3.4917  2.5166
 7875SOL     OW27986   5.409  10.435  10.047 -0.0756 -0.1846 -0.5321
 7875SOL    HW127987   5.495  10.435  10.006 -0.2701 -0.0719 -0.9373
 7875SOL    HW227988   5.347  10.442   9.975 -0.3722  2.5102 -0.1464
 7876SOL     OW27989   8.636   5.876   0.598 -0.0907 -0.0598 -0.4577
 7876SOL    HW127990   8.690   5.797   0.597  0.6507  0.4306 -0.3300
 7876SOL    HW227991   8.602   5.881   0.687  2.1013  1.2145  0.3838
 7877SOL     OW27992   4.903   3.873   6.825 -0.0206 -0.3910  0.2192
 7877SOL    HW127993   4.972   3.910   6.880  0.5824 -0.5435 -0.4290
 7877SOL    HW227994   4.934   3.886   6.736 -0.5883 -0.9387 -0.0618
 7878SOL     OW27995   5.667   8.949   6.344 -0.3712  0.0534 -0.2419
 7878SOL    HW127996   5.601   8.952   6.274  0.4894  1.7771 -1.0510
 7878SOL    HW227997   5.671   9.039   6.376 -0.3128 -0.5887  1.6633
 7879SOL     OW27998   0.316   0.504   7.012  0.1641 -0.0388  0.0935
 7879SOL    HW127999   0.222   0.502   6.992  0.2382 -1.4254 -0.2169
 7879SOL    HW228000   0.357   0.453   6.942  1.3348  1.6802 -0.5538
 7880SOL     OW28001   4.143   6.166   6.298 -0.3072  0.3618 -0.0191
 7880SOL    HW128002   4.105   6.079   6.307  0.1428  0.0404 -1.0885
 7880SOL    HW228003   4.172   6.189   6.386  1.8739 -1.6288 -0.1312
 7881SOL     OW28004   4.310   4.113   3.927  0.3650 -0.0868 -0.2196
 7881SOL    HW128005   4.308   4.042   3.863 -1.2141 -1.1908  0.9760
 7881SOL    HW228006   4.237   4.170   3.903 -2.5627 -2.3517  2.4322
 7882SOL     OW28007   9.018   6.538   9.997  0.1698 -0.3435 -0.4105
 7882SOL    HW128008   9.070   6.618  10.005  1.8658 -1.1372 -2.3157
 7882SOL    HW228009   8.929   6.564  10.021  0.8678  1.8343  0.0579
 7883SOL     OW28010   9.136   2.035   5.177 -0.1539 -0.4421  0.0289
 7883SOL    HW128011   9.216   1.986   5.159  0.5091  0.7691 -0.4512
 7883SOL    HW228012   9.123   2.027   5.271 -0.7620 -2.5264 -0.1697
 7884SOL     OW28013   2.111   9.490   5.477 -0.0148 -0.1747 -0.5124
 7884SOL    HW128014   2.136   9.579   5.502  0.8526  0.1493 -2.3372
 7884SOL    HW228015   2.015   9.490   5.483 -0.2677  1.6989 -2.7191
 7885SOL     OW28016   9.889   9.607   0.377 -0.2716 -0.4179 -0.9341
 7885SOL    HW128017   9.967   9.645   0.336  0.4193 -0.3499  0.4035
 7885SOL    HW228018   9.921   9.530   0.424 -1.1649 -0.9023 -1.0979
 7886SOL     OW28019   4.457   6.764   1.839  0.2283  0.1202 -0.7322
 7886SOL    HW128020   4.543   6.724   1.852  0.9305  1.9865  0.8879
 7886SOL    HW228021   4.398   6.713   1.894  0.9868  0.8379  0.8147
 7887SOL     OW28022   8.039   8.399   6.161 -0.2477 -0.0179  0.1747
 7887SOL    HW128023   8.069   8.368   6.247 -0.5964  0.4830  0.4832
 7887SOL    HW228024   7.999   8.322   6.120 -0.6630 -0.1090  0.7313
 7888SOL     OW28025  10.550   4.922   3.392  0.1647  0.2092 -0.4554
 7888SOL    HW128026  10.603   4.988   3.347  0.1242  2.1299  2.0623
 7888SOL    HW228027  10.471   4.969   3.419 -0.4542 -1.2149  0.3506
 7889SOL     OW28028   7.313   0.920   8.700 -0.2764 -0.1093  0.6912
 7889SOL    HW128029   7.307   0.985   8.631 -0.0577  1.5025  2.1281
 7889SOL    HW228030   7.390   0.868   8.678 -0.7538 -0.2374 -0.7484
 7890SOL     OW28031   9.027   4.835   2.550  0.6956 -0.4886 -0.0392
 7890SOL    HW128032   9.121   4.849   2.534  0.2164  0.9073 -1.8669
 7890SOL    HW228033   8.983   4.883   2.480 -1.4843  1.3232  2.3967
 7891SOL     OW28034   6.434   9.954   8.488 -0.0795 -0.2090 -0.6461
 7891SOL    HW128035   6.466   9.875   8.533  0.2803  0.6970  0.7624
 7891SOL    HW228036   6.498  10.021   8.511  0.3361  0.2207 -2.9006
 7892SOL     OW28037   4.905   4.195   2.201 -0.6425 -0.1410  0.4296
 7892SOL    HW128038   4.870   4.282   2.219 -0.6843  0.0192 -0.4150
 7892SOL    HW228039   4.839   4.135   2.237 -0.8534  0.1681  0.5645
 7893SOL     OW28040   9.483   6.323   2.782 -0.2106  0.1556 -0.1836
 7893SOL    HW128041   9.464   6.247   2.837  1.4078 -0.2014 -0.0512
 7893SOL    HW228042   9.421   6.317   2.709 -1.9981  0.3138  1.2668
 7894SOL     OW28043   1.809   9.707   1.138 -0.9587 -0.1530 -0.0386
 7894SOL    HW128044   1.882   9.768   1.152 -0.6013 -0.6427  0.2596
 7894SOL    HW228045   1.799   9.702   1.043 -2.6261  2.2973 -0.0922
 7895SOL     OW28046   9.688   9.183   7.532 -0.2922  0.2426  0.5727
 7895SOL    HW128047   9.614   9.235   7.498 -1.7419 -2.0112  0.0381
 7895SOL    HW228048   9.724   9.140   7.455  2.0804  1.7990  0.7363
 7896SOL     OW28049   9.387   0.534  10.603 -0.2039 -0.2471  0.0243
 7896SOL    HW128050   9.394   0.457  10.547  1.9447 -0.3912  0.4053
 7896SOL    HW228051   9.399   0.608  10.544  1.6364 -0.3840  0.1690
 7897SOL     OW28052   6.759   0.211   7.037  0.1383  1.1396 -0.1865
 7897SOL    HW128053   6.832   0.152   7.054  0.3729  1.3606 -0.4228
 7897SOL    HW228054   6.683   0.153   7.027 -0.2423  1.0178  2.5995
 7898SOL     OW28055   8.141   5.659   2.829 -0.6398 -0.1167 -0.3691
 7898SOL    HW128056   8.143   5.751   2.855 -0.9267  0.2633 -1.6194
 7898SOL    HW228057   8.059   5.650   2.779 -0.8009 -1.1435  0.0607
 7899SOL     OW28058   6.232   9.878   1.729 -0.1633  0.2578 -0.7901
 7899SOL    HW128059   6.296   9.809   1.707  0.7034  1.3343 -1.7480
 7899SOL    HW228060   6.274   9.959   1.702 -1.2345  1.1735  0.1881
 7900SOL     OW28061   9.259   6.169   1.599  0.8421  0.1239 -0.1536
 7900SOL    HW128062   9.250   6.261   1.624 -0.0062  0.0351 -0.0883
 7900SOL    HW228063   9.204   6.122   1.662 -1.6707 -0.0702 -2.3327
 7901SOL     OW28064   6.622   9.302  10.043  0.2337  0.0392  0.3322
 7901SOL    HW128065   6.642   9.351   9.963  4.4930 -0.5822  0.7715
 7901SOL    HW228066   6.607   9.213  10.013 -3.3543  0.6201 -0.0662
 7902SOL     OW28067   7.033   9.251   9.416 -0.0899 -0.0801 -0.3263
 7902SOL    HW128068   7.006   9.234   9.325  0.7238  1.5495 -0.9163
 7902SOL    HW228069   6.955   9.230   9.468 -0.7315 -0.5823 -1.4492
 7903SOL     OW28070   2.673  11.043   6.050  0.1954 -0.2078  0.8181
 7903SOL    HW128071   2.589  11.089   6.056  0.4071  0.2059  0.6301
 7903SOL    HW228072   2.694  11.044   5.956  0.7318  0.2672  0.9448
 7904SOL     OW28073   5.799  10.095   6.531 -0.0032 -0.3581 -0.1625
 7904SOL    HW128074   5.717  10.051   6.553 -0.9268  2.4067  2.6174
 7904SOL    HW228075   5.856  10.076   6.605  0.4176  1.0108 -0.1140
 7905SOL     OW28076   2.032   9.072  11.097  0.5224 -0.0991 -0.0867
 7905SOL    HW128077   2.021   9.053  11.004 -1.8987  1.2781 -0.1681
 7905SOL    HW228078   2.068   8.991  11.134 -0.0831 -1.2837 -1.9392
 7906SOL     OW28079  10.571   9.363   9.072  0.2424 -0.4240  0.8749
 7906SOL    HW128080  10.538   9.364   9.162 -0.1441  1.1710  0.7537
 7906SOL    HW228081  10.660   9.399   9.079 -0.2598  0.9546  0.4898
 7907SOL     OW28082   3.047  11.113   4.542 -0.2727  0.6064 -0.6344
 7907SOL    HW128083   3.064  11.155   4.626 -0.5929 -0.2289 -0.1422
 7907SOL    HW228084   3.057  11.184   4.478  1.1434  1.0061 -0.0259
 7908SOL     OW28085   7.916   6.350   5.192  0.1618 -0.5237  0.6056
 7908SOL    HW128086   7.937   6.439   5.219  0.1407 -0.8121  1.6284
 7908SOL    HW228087   7.989   6.297   5.224 -0.4795 -1.0597  1.2233
 7909SOL     OW28088   1.254  10.419   9.498 -0.0157  0.1888 -0.4967
 7909SOL    HW128089   1.221  10.367   9.571  1.3337 -1.1710 -0.8189
 7909SOL    HW228090   1.222  10.374   9.420  0.3269  0.4245 -0.7721
 7910SOL     OW28091   9.054   9.732   6.999  0.3981 -0.0268 -0.4407
 7910SOL    HW128092   9.066   9.655   6.943  0.7051 -2.2904  2.4400
 7910SOL    HW228093   8.973   9.772   6.967  0.2816 -1.4825 -2.1524
 7911SOL     OW28094   2.331   2.967  10.505  0.5164  0.8077  1.0706
 7911SOL    HW128095   2.252   3.019  10.488  0.9127  1.1816  0.3113
 7911SOL    HW228096   2.298   2.883  10.536 -0.1791  0.9863  0.8387
 7912SOL     OW28097   5.555   2.870   1.189 -0.4805 -0.2544  0.0741
 7912SOL    HW128098   5.567   2.905   1.277 -0.7332  1.6548 -0.5955
 7912SOL    HW228099   5.634   2.898   1.141 -0.4230 -1.1212 -0.3511
 7913SOL     OW28100   9.113   8.237   5.232  0.1915  0.1526 -0.0003
 7913SOL    HW128101   9.149   8.211   5.147  1.2746  0.3124  0.3900
 7913SOL    HW228102   9.190   8.257   5.285 -0.4643 -0.0720  1.0642
 7914SOL     OW28103   6.434   2.975   1.613 -0.0461  0.2489 -0.4280
 7914SOL    HW128104   6.430   2.955   1.519 -0.2085 -0.8996 -0.1896
 7914SOL    HW228105   6.509   2.925   1.644 -1.1045 -0.8792  0.3943
 7915SOL     OW28106   8.622   3.497   8.636 -0.2488 -0.6008 -0.8484
 7915SOL    HW128107   8.694   3.561   8.632 -0.6613 -0.1295 -0.7837
 7915SOL    HW228108   8.640   3.447   8.715 -1.0470  0.8045  0.2775
 7916SOL     OW28109  10.011   4.891   9.090  0.1123  0.3605 -0.0813
 7916SOL    HW128110  10.005   4.945   9.169 -0.4206  1.0240 -0.5735
 7916SOL    HW228111   9.921   4.865   9.071  0.2067  0.4081 -0.6099
 7917SOL     OW28112   1.995   7.253   2.115  0.1921 -0.7869 -0.5278
 7917SOL    HW128113   1.953   7.317   2.057  0.0747 -0.6231 -0.2626
 7917SOL    HW228114   1.928   7.232   2.180  0.3634 -0.8807 -0.3801
 7918SOL     OW28115   8.472   3.875   3.923 -0.2441  0.0528  0.1897
 7918SOL    HW128116   8.531   3.900   3.853  0.5742 -0.0202  0.8435
 7918SOL    HW228117   8.528   3.859   3.999 -1.1092  0.1882  0.8863
 7919SOL     OW28118   7.095   7.749   9.364 -0.0436 -0.0834  0.2544
 7919SOL    HW128119   7.116   7.782   9.277  1.0085  1.2204  0.9699
 7919SOL    HW228120   7.003   7.770   9.377 -1.0143 -2.6709 -1.5352
 7920SOL     OW28121   2.753   9.851   8.353  0.2007  0.1287  0.4545
 7920SOL    HW128122   2.846   9.869   8.344  0.2729  0.4087  1.6159
 7920SOL    HW228123   2.710   9.936   8.345  0.0658  0.0444  0.2558
 7921SOL     OW28124  10.746   5.767   1.249  0.0996 -0.2437  0.5353
 7921SOL    HW128125  10.807   5.820   1.198 -0.0632 -0.2905  0.2881
 7921SOL    HW228126  10.801   5.713   1.305  0.2716  0.0428  0.6414
 7922SOL     OW28127   1.965   7.904   9.165 -0.8538 -0.5643  0.1193
 7922SOL    HW128128   1.902   7.970   9.135 -1.0543 -1.8344 -2.5119
 7922SOL    HW228129   2.047   7.928   9.121  0.0976 -0.0002  2.0651
 7923SOL     OW28130   9.998   5.333   2.195 -0.4079 -0.3076  0.0354
 7923SOL    HW128131  10.027   5.371   2.113 -0.0659  0.0531  0.3185
 7923SOL    HW228132  10.078   5.326   2.248 -0.4174 -1.6377 -0.0918
 7924SOL     OW28133   3.555   6.072   0.906  0.0832 -0.1085  0.1374
 7924SOL    HW128134   3.500   6.075   0.827  0.2731 -0.9568 -0.0325
 7924SOL    HW228135   3.493   6.053   0.977 -0.7147  4.0819  0.8294
 7925SOL     OW28136  10.339   5.153   0.359 -0.0444 -0.5707 -0.1463
 7925SOL    HW128137  10.429   5.160   0.327 -0.3381  0.0814 -0.8833
 7925SOL    HW228138  10.338   5.206   0.439 -0.0970  0.6176 -0.9019
 7926SOL     OW28139   2.309   1.803   3.403  0.4753  0.6849 -0.3812
 7926SOL    HW128140   2.402   1.810   3.424  0.5788 -0.1306 -0.5354
 7926SOL    HW228141   2.292   1.878   3.346  1.2931  0.2618 -1.2126
 7927SOL     OW28142   6.928   7.442   7.569  0.1879 -0.2397 -0.1273
 7927SOL    HW128143   6.844   7.398   7.559  0.6492 -0.9378 -1.1623
 7927SOL    HW228144   6.907   7.536   7.567 -0.6775 -0.4034  0.8851
 7928SOL     OW28145   4.640   5.095   9.456  0.2811 -0.6056  0.3425
 7928SOL    HW128146   4.645   5.187   9.482  0.8984 -0.2683 -0.9081
 7928SOL    HW228147   4.674   5.093   9.367  0.3349 -2.0610  0.3692
 7929SOL     OW28148   7.633   1.328   3.817 -0.4395 -0.1324  0.2546
 7929SOL    HW128149   7.562   1.349   3.878 -2.1574 -0.6293 -1.4821
 7929SOL    HW228150   7.646   1.408   3.767  1.0960  0.3330  1.3331
 7930SOL     OW28151   3.174   9.230   7.705  0.1980 -0.5414 -0.6025
 7930SOL    HW128152   3.209   9.144   7.729 -1.2534 -0.6235  1.4834
 7930SOL    HW228153   3.200   9.288   7.776  0.2519  0.5098 -1.4537
 7931SOL     OW28154   7.197   3.043   0.551  0.0527  0.1670  0.4060
 7931SOL    HW128155   7.287   3.069   0.567  0.4158 -1.0846  0.4673
 7931SOL    HW228156   7.147   3.082   0.623  0.5247  0.9500  0.3101
 7932SOL     OW28157   8.428   2.398   8.713 -0.6036 -0.4262 -0.6495
 7932SOL    HW128158   8.446   2.314   8.671 -3.9128 -1.3692 -0.5106
 7932SOL    HW228159   8.500   2.455   8.687  1.4248 -3.1009 -1.2821
 7933SOL     OW28160   1.502   6.108   4.243  0.0642 -0.4925  0.2364
 7933SOL    HW128161   1.567   6.095   4.174  0.0293 -0.9013  0.2834
 7933SOL    HW228162   1.454   6.026   4.248  0.4845 -0.6938  1.1906
 7934SOL     OW28163   5.368   6.338  10.363  0.3918  0.0449 -0.4349
 7934SOL    HW128164   5.402   6.334  10.274  0.8516 -2.2043 -0.2125
 7934SOL    HW228165   5.393   6.425  10.394  0.0514  0.9529 -2.5350
 7935SOL     OW28166   1.135   7.512   1.848  0.0778 -0.3493 -0.0145
 7935SOL    HW128167   1.055   7.564   1.862  0.2443  0.3156 -1.4489
 7935SOL    HW228168   1.118   7.464   1.767  1.2147 -0.0633 -0.4272
 7936SOL     OW28169   6.684  10.317   9.299 -0.3383 -0.0227 -0.1079
 7936SOL    HW128170   6.703  10.240   9.354 -0.5334  0.5511  0.7735
 7936SOL    HW228171   6.762  10.372   9.308 -0.8229  0.5888  0.5046
 7937SOL     OW28172   8.257   6.637   4.504  0.0330 -0.0310  0.2858
 7937SOL    HW128173   8.270   6.633   4.599  0.2255 -1.6551  0.2148
 7937SOL    HW228174   8.170   6.600   4.489  0.0756  0.0523 -0.1909
 7938SOL     OW28175  10.591   8.542   5.013 -0.6213 -0.4708 -0.1806
 7938SOL    HW128176  10.672   8.525   4.966 -0.6309  0.7795 -0.6879
 7938SOL    HW228177  10.587   8.637   5.022 -1.6407 -0.5564  0.5378
 7939SOL     OW28178   5.249   8.946   4.543 -0.2613  0.1635 -0.9697
 7939SOL    HW128179   5.160   8.919   4.521 -0.8250  0.3646  0.9428
 7939SOL    HW228180   5.273   8.891   4.617  0.2525  1.7838  0.1242
 7940SOL     OW28181   0.405   4.317   8.261 -0.0509  0.2179 -0.4338
 7940SOL    HW128182   0.331   4.337   8.318  1.0952 -0.2681  1.3435
 7940SOL    HW228183   0.435   4.402   8.230 -0.7594  0.4955 -0.3651
 7941SOL     OW28184   7.473   2.986   5.158  0.9731  0.6323  0.0914
 7941SOL    HW128185   7.539   2.973   5.090  0.7245  1.1749 -0.2570
 7941SOL    HW228186   7.510   3.055   5.214  1.5276 -0.3376  0.9664
 7942SOL     OW28187  10.065   9.449   2.138  0.3309 -0.0863 -0.0554
 7942SOL    HW128188   9.976   9.422   2.119 -0.0831  0.3233  1.2356
 7942SOL    HW228189  10.058   9.505   2.215  1.6067  0.6189 -0.4155
 7943SOL     OW28190   1.998   5.480   0.989  0.2606  0.5102 -0.6491
 7943SOL    HW128191   1.923   5.464   1.046 -0.0070  1.4065 -0.7456
 7943SOL    HW228192   2.031   5.392   0.968 -1.4357  0.0486 -1.5194
 7944SOL     OW28193   6.700   1.496   1.561 -0.1948 -0.0983 -0.3916
 7944SOL    HW128194   6.753   1.418   1.546 -1.7024 -1.2068 -0.1400
 7944SOL    HW228195   6.703   1.543   1.477 -0.2628 -1.0508 -0.9453
 7945SOL     OW28196   0.008   2.333  10.446 -0.5991 -0.3040 -0.3549
 7945SOL    HW128197   0.078   2.398  10.457 -0.1200 -0.9115  0.3670
 7945SOL    HW228198  -0.073   2.383  10.446 -0.1508  0.4798 -1.8056
 7946SOL     OW28199   5.301   6.459   4.823 -0.1345 -0.0294 -0.1453
 7946SOL    HW128200   5.248   6.539   4.815 -0.9549 -0.5342  0.1075
 7946SOL    HW228201   5.306   6.424   4.734 -2.9635 -1.6735  0.2254
 7947SOL     OW28202   1.346   8.597   0.804  0.1055  0.2520  0.5327
 7947SOL    HW128203   1.326   8.663   0.738 -0.2293  2.2116  2.4757
 7947SOL    HW228204   1.442   8.594   0.808  0.1751 -1.1489 -1.1726
 7948SOL     OW28205  10.882   9.129   7.175  0.3101  0.0150  0.1555
 7948SOL    HW128206  10.963   9.087   7.204  1.1547  1.0531 -0.6506
 7948SOL    HW228207  10.856   9.081   7.097  0.5702  0.1751 -0.0288
 7949SOL     OW28208   0.391   9.474   9.565 -0.1947 -0.1610  0.3948
 7949SOL    HW128209   0.328   9.507   9.629 -0.9238  1.7767 -1.2390
 7949SOL    HW228210   0.338   9.426   9.501  0.4582 -1.5777  0.8714
 7950SOL     OW28211   9.827   6.564   1.640  0.2306 -0.7324  0.2773
 7950SOL    HW128212   9.844   6.580   1.733 -0.4021  2.0341  0.0135
 7950SOL    HW228213   9.914   6.559   1.600  0.5048  0.2948  0.7253
 7951SOL     OW28214   9.070   0.658   4.126 -0.0658 -0.3354 -0.0349
 7951SOL    HW128215   9.037   0.574   4.095  1.0819 -0.5499 -0.7647
 7951SOL    HW228216   9.111   0.638   4.210 -0.4693 -0.3590  0.1554
 7952SOL     OW28217   4.326   9.999  11.001 -0.2531  0.1969 -0.3618
 7952SOL    HW128218   4.336   9.923  10.944 -2.3721 -0.8615  0.6019
 7952SOL    HW228219   4.301  10.070  10.942 -0.2635 -0.3380 -1.0115
 7953SOL     OW28220   8.966   1.733   5.820 -0.5706 -0.1244  0.0761
 7953SOL    HW128221   8.923   1.666   5.874 -0.0443 -0.2865  0.2960
 7953SOL    HW228222   9.060   1.717   5.831 -0.4249  0.8903  0.4417
 7954SOL     OW28223  10.726   3.726   5.863 -0.2356  1.2859 -0.1470
 7954SOL    HW128224  10.774   3.777   5.798  0.6049 -1.6767 -2.0425
 7954SOL    HW228225  10.639   3.766   5.865 -0.2625  1.5811 -3.1138
 7955SOL     OW28226   9.675   1.467   7.583 -0.0745  0.4172  0.0942
 7955SOL    HW128227   9.761   1.426   7.573 -0.0255  0.3596  0.6992
 7955SOL    HW228228   9.692   1.561   7.577 -0.5033  0.4083 -3.8367
 7956SOL     OW28229  10.178   4.969   8.864  0.0814 -0.2455  0.2641
 7956SOL    HW128230  10.185   5.062   8.884 -0.9397 -0.2132  0.5179
 7956SOL    HW228231  10.117   4.935   8.930 -2.4992 -0.3592 -2.0141
 7957SOL     OW28232   6.861   3.443   3.124 -0.5669  0.1967  1.0545
 7957SOL    HW128233   6.848   3.364   3.072 -2.0854  0.8472  0.3904
 7957SOL    HW228234   6.775   3.486   3.125  0.3239  2.0877  0.9644
 7958SOL     OW28235   9.855   3.344   0.353 -0.1240 -0.2591 -0.2082
 7958SOL    HW128236   9.911   3.286   0.302 -0.8258  0.1823 -1.5456
 7958SOL    HW228237   9.772   3.297   0.359  0.4019 -0.9910  1.9119
 7959SOL     OW28238   2.810   6.880  11.034  0.6675 -0.0667 -0.1258
 7959SOL    HW128239   2.737   6.820  11.048  0.3811  0.1650 -0.6101
 7959SOL    HW228240   2.887   6.824  11.026  0.5560 -0.3091  0.4579
 7960SOL     OW28241   3.593   3.480   5.932  0.1345 -0.5232 -0.3234
 7960SOL    HW128242   3.525   3.534   5.972  1.1707  0.3246  0.3425
 7960SOL    HW228243   3.561   3.390   5.942 -1.3013 -0.0956 -0.8533
 7961SOL     OW28244   1.410   9.108   4.133  0.6890  0.1267  0.0127
 7961SOL    HW128245   1.505   9.104   4.142  0.7892 -2.0457 -1.2301
 7961SOL    HW228246   1.381   9.165   4.204  2.6924 -1.5326  2.3065
 7962SOL     OW28247   6.870   3.101   3.605 -0.2673 -0.2304  0.2712
 7962SOL    HW128248   6.870   3.100   3.509  0.6663  2.7396  0.1340
 7962SOL    HW228249   6.827   3.183   3.628  2.4395  0.7981  2.2148
 7963SOL     OW28250   4.865   7.446   8.693 -0.3653 -0.0965  0.0709
 7963SOL    HW128251   4.880   7.472   8.602  0.7761  2.4678  0.9121
 7963SOL    HW228252   4.917   7.367   8.704  1.3163  0.8103 -0.9396
 7964SOL     OW28253   0.581   1.625   0.843  0.1813 -0.2507  0.0528
 7964SOL    HW128254   0.538   1.585   0.767 -2.8054 -0.2687  1.6097
 7964SOL    HW228255   0.552   1.573   0.918  0.4453  1.6618  1.5679
 7965SOL     OW28256   7.723   3.863   5.615 -0.3229  0.0146  0.7531
 7965SOL    HW128257   7.763   3.942   5.651 -0.2072 -0.3191  1.3802
 7965SOL    HW228258   7.667   3.830   5.686 -1.2057  0.1173  0.1234
 7966SOL     OW28259   4.526   4.114   9.593 -0.0704  0.2351  0.1213
 7966SOL    HW128260   4.551   4.023   9.578 -1.0319 -0.3018  1.5478
 7966SOL    HW228261   4.461   4.132   9.525 -1.1321 -0.7155  0.8481
 7967SOL     OW28262   6.330   5.696   2.851  0.3461  0.0958 -0.8475
 7967SOL    HW128263   6.349   5.617   2.800  0.4664  0.2417 -1.0308
 7967SOL    HW228264   6.329   5.766   2.786 -1.1640  0.0494 -0.9086
 7968SOL     OW28265   9.495   6.566   3.615 -0.6941 -0.1363 -0.2169
 7968SOL    HW128266   9.580   6.591   3.650 -1.3042 -1.7060  2.6823
 7968SOL    HW228267   9.437   6.565   3.691 -2.5042 -2.3930 -1.5038
 7969SOL     OW28268  10.309   7.261   1.338 -0.0452 -0.1485 -0.0170
 7969SOL    HW128269  10.372   7.240   1.407 -0.5498 -0.7093  0.2783
 7969SOL    HW228270  10.302   7.180   1.287 -1.4840 -0.5175  0.7153
 7970SOL     OW28271   8.246   3.085   5.679  0.2151 -0.2614 -0.6357
 7970SOL    HW128272   8.285   3.034   5.608 -0.0131  0.4436 -1.2800
 7970SOL    HW228273   8.198   3.021   5.731 -0.1438 -0.6949 -1.4853
 7971SOL     OW28274   6.940   0.810   6.791 -0.3274 -0.0104 -0.3811
 7971SOL    HW128275   7.019   0.765   6.759  1.6749  2.4109  0.8102
 7971SOL    HW228276   6.902   0.850   6.713  0.3145 -0.2198 -0.8148
 7972SOL     OW28277   4.297   6.673   1.073 -0.2362  0.0849  0.6250
 7972SOL    HW128278   4.255   6.587   1.070  0.0359 -0.0201 -0.6756
 7972SOL    HW228279   4.253   6.723   1.004 -0.8341  1.2136  1.7800
 7973SOL     OW28280   4.829   8.441   6.850  0.2127 -0.3232 -0.3044
 7973SOL    HW128281   4.892   8.395   6.794  1.5358  1.2141 -0.1855
 7973SOL    HW228282   4.785   8.502   6.791 -0.6514 -0.8667 -0.2365
 7974SOL     OW28283   0.059   7.246   6.834 -0.1422  0.4885  0.3803
 7974SOL    HW128284   0.080   7.255   6.927 -1.2329  0.3180  0.6573
 7974SOL    HW228285   0.022   7.158   6.826 -2.0279  1.2551  0.1920
 7975SOL     OW28286   6.308   9.091   2.514 -0.0363  0.4246 -0.1735
 7975SOL    HW128287   6.274   9.015   2.467 -1.1474  1.2698 -0.8025
 7975SOL    HW228288   6.364   9.055   2.583 -1.2708 -0.9813  0.1215
 7976SOL     OW28289   5.888   8.385   1.719  0.4625 -0.0726  0.1075
 7976SOL    HW128290   5.885   8.294   1.688 -1.4528 -0.6644  1.7698
 7976SOL    HW228291   5.959   8.425   1.669  1.8392 -2.6521 -0.1930
 7977SOL     OW28292   2.497   7.170   2.154  0.3870 -0.2945  0.1995
 7977SOL    HW128293   2.523   7.232   2.086 -0.4812  0.1806  0.2794
 7977SOL    HW228294   2.401   7.170   2.151  0.3634 -1.9860 -0.1055
 7978SOL     OW28295   6.338   1.566   3.528  0.1675  0.2268  0.1116
 7978SOL    HW128296   6.302   1.490   3.483  0.5048  0.3322 -0.3472
 7978SOL    HW228297   6.314   1.641   3.473  1.0364  0.3029 -0.1878
 7979SOL     OW28298   9.460   1.568   0.382  0.0833  0.1348 -0.0242
 7979SOL    HW128299   9.397   1.576   0.453 -0.2330  2.8726 -0.4850
 7979SOL    HW228300   9.498   1.656   0.374 -1.5146  0.6827 -4.5924
 7980SOL     OW28301   2.316   9.172   4.770 -0.2812 -0.2620  0.1080
 7980SOL    HW128302   2.231   9.140   4.736 -0.2459  1.1673 -1.4281
 7980SOL    HW228303   2.380   9.111   4.733 -0.5090 -0.4953  0.0899
 7981SOL     OW28304  10.330  10.832   5.002 -0.4152  0.3019 -0.3825
 7981SOL    HW128305  10.307  10.894   5.072 -1.3232 -1.7325  1.2337
 7981SOL    HW228306  10.421  10.809   5.019 -0.5501  0.0230 -0.0282
 7982SOL     OW28307   4.141   7.374   5.119 -0.4582  0.0803 -0.6961
 7982SOL    HW128308   4.058   7.384   5.166 -0.2615  0.4888 -0.4367
 7982SOL    HW228309   4.126   7.415   5.034 -0.7396 -0.4568 -0.9142
 7983SOL     OW28310   7.882   0.801   2.563 -0.1448  0.3737 -0.0696
 7983SOL    HW128311   7.816   0.839   2.621 -0.0231  0.1469  0.2260
 7983SOL    HW228312   7.891   0.710   2.594 -1.0272 -0.1520 -1.2843
 7984SOL     OW28313   5.319   2.829   2.934  0.1389  0.2912 -0.3342
 7984SOL    HW128314   5.296   2.792   2.849  1.5530  0.0883 -0.6580
 7984SOL    HW228315   5.365   2.758   2.980 -1.4650  0.0645  1.0174
 7985SOL     OW28316  10.044   6.311   4.536 -0.5482 -0.2191 -0.2155
 7985SOL    HW128317  10.015   6.368   4.608 -0.4633  0.3075 -0.5856
 7985SOL    HW228318  10.018   6.223   4.563 -1.1004  0.0491  0.1648
 7986SOL     OW28319   1.737   2.278   5.662  0.5600  0.1703  0.2084
 7986SOL    HW128320   1.740   2.289   5.757  0.0807  1.4590  0.0974
 7986SOL    HW228321   1.700   2.190   5.649  2.3295 -0.7877  1.1937
 7987SOL     OW28322   6.757  10.473   6.298 -0.8065  0.3352 -0.5173
 7987SOL    HW128323   6.724  10.385   6.280  0.9435 -1.0494  2.3310
 7987SOL    HW228324   6.849  10.471   6.270  0.0489  0.2436  2.0213
 7988SOL     OW28325   6.541   5.629   7.245  0.1985 -0.0157 -0.5504
 7988SOL    HW128326   6.472   5.679   7.202 -1.4055 -1.0089  0.7638
 7988SOL    HW228327   6.600   5.696   7.281 -0.5799  0.8798 -0.8943
 7989SOL     OW28328   2.836   5.684   9.243  0.2929 -0.1866  0.2743
 7989SOL    HW128329   2.927   5.664   9.268 -0.3227 -1.0373  2.0360
 7989SOL    HW228330   2.785   5.664   9.322 -1.2925  1.4605 -0.2613
 7990SOL     OW28331   1.418   4.960   3.647 -0.1425  0.1564  0.0796
 7990SOL    HW128332   1.439   4.981   3.738  1.1352  1.3649 -0.4446
 7990SOL    HW228333   1.456   5.033   3.597  0.3335 -1.1335 -1.5149
 7991SOL     OW28334   4.832   5.263   6.392 -0.2844  0.2215  0.7929
 7991SOL    HW128335   4.777   5.210   6.450 -2.9660 -0.4862 -2.0943
 7991SOL    HW228336   4.904   5.205   6.368 -2.3367 -1.7450 -1.0924
 7992SOL     OW28337   9.062   7.448   8.256  0.7957  0.7665 -0.4798
 7992SOL    HW128338   8.990   7.394   8.289 -0.1302  1.2176 -1.6753
 7992SOL    HW228339   9.105   7.481   8.334  0.2340 -0.2186  0.2625
 7993SOL     OW28340  10.956   4.256  10.503 -0.1916  0.2739  0.0412
 7993SOL    HW128341  11.021   4.202  10.458  0.5768  0.6717  0.6389
 7993SOL    HW228342  10.971   4.239  10.596  1.7539  3.2685  0.4314
 7994SOL     OW28343   7.193   7.592   0.301 -1.0801 -0.0090  0.1784
 7994SOL    HW128344   7.141   7.566   0.225 -0.3264 -1.8420  0.2239
 7994SOL    HW228345   7.227   7.509   0.336  0.7853  1.0115  0.9260
 7995SOL     OW28346   5.202   8.037   6.269  0.0809 -0.5359  0.5336
 7995SOL    HW128347   5.145   7.971   6.309 -0.0734 -1.4295 -1.0679
 7995SOL    HW228348   5.142   8.105   6.238 -0.1456 -1.2854 -0.7922
 7996SOL     OW28349   4.071   2.835   7.503 -0.0031  0.5480 -0.0969
 7996SOL    HW128350   4.067   2.747   7.542  0.7911  1.1640  1.4203
 7996SOL    HW228351   4.152   2.873   7.536 -0.8187  2.2289  0.0655
 7997SOL     OW28352   6.488   1.547   4.969 -0.1898 -0.4601  0.3428
 7997SOL    HW128353   6.403   1.519   4.935 -0.5418 -0.5462  1.2601
 7997SOL    HW228354   6.487   1.521   5.061  0.6706 -0.0940  0.4714
 7998SOL     OW28355   7.806   3.782   5.232 -0.3150  0.1559  0.2850
 7998SOL    HW128356   7.881   3.836   5.258 -0.4364  0.8183 -0.6582
 7998SOL    HW228357   7.790   3.807   5.141 -1.1539 -0.6013  0.2121
 7999SOL     OW28358   2.617  10.976   4.954 -0.1175 -0.0629 -0.0512
 7999SOL    HW128359   2.677  10.901   4.960  1.1669  0.9601  0.3330
 7999SOL    HW228360   2.674  11.053   4.958 -1.5843  1.0118  2.5093
 8000SOL     OW28361   6.116   9.934   3.230  0.0674  0.0253  0.0545
 8000SOL    HW128362   6.106   9.984   3.148 -0.6975  1.6389  1.0865
 8000SOL    HW228363   6.183   9.982   3.279  1.1436 -1.4129  0.0741
 8001SOL     OW28364   5.268   4.670   7.461 -0.1855  0.1620 -0.0402
 8001SOL    HW128365   5.344   4.722   7.486  0.5910 -0.8443 -0.2689
 8001SOL    HW228366   5.294   4.627   7.380 -1.7495  1.3933 -1.2693
 8002SOL     OW28367   5.480   6.275   8.947 -0.1432 -0.2912 -0.0995
 8002SOL    HW128368   5.500   6.268   8.853 -0.3927  1.4992 -0.3060
 8002SOL    HW228369   5.564   6.255   8.990  0.4299  0.6144 -0.7650
 8003SOL     OW28370   5.967   5.163   3.305 -0.0577  0.1223  0.3329
 8003SOL    HW128371   5.933   5.078   3.333 -0.2034  0.5324  1.4673
 8003SOL    HW228372   5.890   5.214   3.281 -0.3755  1.0886  3.0085
 8004SOL     OW28373   9.193   9.474   0.288  0.0482 -0.1313 -0.0342
 8004SOL    HW128374   9.122   9.425   0.247  0.1613 -0.7562  0.4910
 8004SOL    HW228375   9.266   9.412   0.291  0.4793  0.3625 -0.1788
 8005SOL     OW28376   8.527   4.537   2.551  0.4766  0.3837 -0.2720
 8005SOL    HW128377   8.591   4.482   2.596 -0.9859  0.4552  2.0746
 8005SOL    HW228378   8.557   4.627   2.567  0.5924  0.3899 -0.5073
 8006SOL     OW28379   9.829   7.937   3.794 -0.1036 -0.0783  0.3099
 8006SOL    HW128380   9.849   7.979   3.877 -0.0099 -1.1576  0.8497
 8006SOL    HW228381   9.766   7.996   3.752 -0.1155  0.5002  1.1219
 8007SOL     OW28382   3.682   2.876   3.202  0.1039  0.2802 -0.0643
 8007SOL    HW128383   3.678   2.916   3.115 -1.0641  0.8281  0.2196
 8007SOL    HW228384   3.634   2.936   3.259  0.2215 -0.4313  0.8203
 8008SOL     OW28385   4.284  11.087   6.052  0.0535  0.0671 -0.0305
 8008SOL    HW128386   4.201  11.119   6.089 -0.4745  0.2540 -1.3375
 8008SOL    HW228387   4.278  10.992   6.059 -0.9340 -0.0026 -1.4438
 8009SOL     OW28388   5.891   9.571   9.172  0.1155  0.1430  0.1028
 8009SOL    HW128389   5.926   9.482   9.176  1.1488  0.5452  0.2511
 8009SOL    HW228390   5.797   9.560   9.189  0.4595 -0.7645  1.6198
 8010SOL     OW28391  10.235  10.736   2.440 -0.2019  0.1570 -0.3937
 8010SOL    HW128392  10.173  10.757   2.510  0.0495  2.6775 -0.8288
 8010SOL    HW228393  10.320  10.763   2.474  0.2044 -0.3138 -0.9997
 8011SOL     OW28394   9.303   8.841   3.891  0.7158  0.2690 -0.3742
 8011SOL    HW128395   9.241   8.905   3.927  1.8238  1.2787 -0.1881
 8011SOL    HW228396   9.346   8.804   3.969  0.4139 -0.3838 -0.5066
 8012SOL     OW28397   2.784   8.398   2.806 -0.1485 -0.2990  0.0293
 8012SOL    HW128398   2.693   8.426   2.804 -0.1471 -0.1759  1.1633
 8012SOL    HW228399   2.832   8.474   2.839  0.4097 -0.2739 -0.8036
 8013SOL     OW28400   5.205   4.544   0.072 -0.3966 -0.1409 -0.3415
 8013SOL    HW128401   5.259   4.480   0.025 -0.1856 -0.5265  0.4045
 8013SOL    HW228402   5.117   4.532   0.036 -0.1975 -0.2618 -0.8003
 8014SOL     OW28403   0.543   6.960   3.265 -0.0193  0.0360 -0.2701
 8014SOL    HW128404   0.579   7.030   3.211 -1.1326  0.2290 -0.7932
 8014SOL    HW228405   0.578   6.879   3.228 -0.5083  0.1908 -1.0878
 8015SOL     OW28406   5.256   0.827   5.204 -0.3588 -0.2316 -0.3727
 8015SOL    HW128407   5.315   0.882   5.153 -0.5538 -1.4917 -2.0425
 8015SOL    HW228408   5.313   0.781   5.265  0.2829 -0.6555 -1.2585
 8016SOL     OW28409   9.883   4.741   5.005  0.0615  0.1347 -0.5379
 8016SOL    HW128410   9.875   4.823   4.955 -1.6372 -0.1610 -0.8208
 8016SOL    HW228411   9.805   4.691   4.981  0.8534 -1.3976 -0.0334
 8017SOL     OW28412   3.628   5.685   9.274  0.0698  0.2118 -0.1149
 8017SOL    HW128413   3.577   5.642   9.206  1.7211 -3.2641  0.6161
 8017SOL    HW228414   3.569   5.691   9.349 -0.5209  0.2037 -0.5757
 8018SOL     OW28415   3.449  10.179   7.635  0.0308  0.7905  0.5880
 8018SOL    HW128416   3.391  10.106   7.615 -0.2278  0.9656  0.6983
 8018SOL    HW228417   3.532  10.138   7.658  0.2652  0.5726 -0.5880
 8019SOL     OW28418   9.894   8.338   1.848  0.3486  0.5952  0.3579
 8019SOL    HW128419   9.913   8.279   1.776 -2.6042  1.1544 -1.0099
 8019SOL    HW228420   9.848   8.285   1.913  0.8481  0.6385  0.7601
 8020SOL     OW28421   9.699   8.963   4.938 -0.1411 -0.2019 -0.6019
 8020SOL    HW128422   9.785   8.921   4.945  0.4614  0.8972 -1.2423
 8020SOL    HW228423   9.642   8.893   4.905  0.2773 -1.1986  0.6843
 8021SOL     OW28424  10.134   0.388   1.371  0.0627  0.2104  0.5191
 8021SOL    HW128425  10.147   0.294   1.361 -1.2548  0.0252  0.3511
 8021SOL    HW228426  10.138   0.404   1.465  1.3249  0.1721  0.4917
 8022SOL     OW28427   2.119   8.305  10.829 -0.1033 -0.4428  0.2380
 8022SOL    HW128428   2.105   8.268  10.742 -0.3015 -0.9418  0.4794
 8022SOL    HW228429   2.110   8.399  10.816  0.4320 -0.4695 -0.3844
 8023SOL     OW28430   6.836   5.288   6.841  0.3948 -0.1381 -0.4637
 8023SOL    HW128431   6.831   5.194   6.857  0.2349 -0.6765 -3.1477
 8023SOL    HW228432   6.748   5.321   6.858 -0.0160 -0.8293 -1.1839
 8024SOL     OW28433   6.357   6.382   1.878 -0.0494 -0.1585  0.9650
 8024SOL    HW128434   6.364   6.394   1.973  2.0118 -2.5219  1.1926
 8024SOL    HW228435   6.429   6.324   1.855 -0.6080  0.1686 -2.0617
 8025SOL     OW28436   5.196   5.660   4.249 -0.2904 -0.1965  0.2756
 8025SOL    HW128437   5.267   5.725   4.245 -0.3461  0.0619  2.2962
 8025SOL    HW228438   5.145   5.675   4.169 -0.3553  2.3510  0.7157
 8026SOL     OW28439   5.539   0.007   4.277  0.0911 -0.2319  0.3485
 8026SOL    HW128440   5.491   0.079   4.237  1.4397  0.4531 -0.1201
 8026SOL    HW228441   5.596   0.049   4.341  2.2438 -0.6145 -1.2126
 8027SOL     OW28442   3.514   6.905   1.014 -0.0642  0.3303 -0.0169
 8027SOL    HW128443   3.527   6.820   1.055  2.2826  0.6148 -0.0450
 8027SOL    HW228444   3.529   6.888   0.920  0.9753  0.8579  0.0460
 8028SOL     OW28445   5.456   7.354   3.248 -0.1428  0.0779  0.1672
 8028SOL    HW128446   5.514   7.347   3.323 -0.3814 -1.9830  0.2202
 8028SOL    HW228447   5.380   7.401   3.281  0.6256  1.0395  0.6251
 8029SOL     OW28448   0.474   4.020   6.334  0.1063 -0.2178 -0.3549
 8029SOL    HW128449   0.446   4.008   6.243 -0.3381  1.7931 -0.5371
 8029SOL    HW228450   0.514   3.937   6.358  1.3921 -0.3999 -2.8093
 8030SOL     OW28451   8.334  10.097   5.393  0.5045 -0.5881  0.4851
 8030SOL    HW128452   8.375  10.183   5.378  1.4281 -1.1205 -0.1455
 8030SOL    HW228453   8.331  10.088   5.488  0.4222  0.1304  0.5590
 8031SOL     OW28454   4.021   7.478   4.566  0.3056  0.4511  0.1933
 8031SOL    HW128455   4.100   7.531   4.573  0.3017  0.3522  1.1621
 8031SOL    HW228456   4.020   7.427   4.647 -0.0805 -0.4824 -0.3937
 8032SOL     OW28457   8.127   0.326   9.131 -0.0322 -0.4752 -0.4574
 8032SOL    HW128458   8.053   0.324   9.191 -0.1586 -1.2062 -0.6264
 8032SOL    HW228459   8.118   0.410   9.085 -0.9563 -0.6988 -0.7160
 8033SOL     OW28460   7.195   7.967   9.737  0.1706  0.3264  0.4568
 8033SOL    HW128461   7.146   7.908   9.679 -1.0828  0.1308  1.6725
 8033SOL    HW228462   7.260   8.007   9.680  0.0372 -1.0636 -0.7434
 8034SOL     OW28463   6.313  10.409   8.028 -0.0230  0.0845 -0.8699
 8034SOL    HW128464   6.279  10.499   8.032  1.4955  0.6843 -0.8206
 8034SOL    HW228465   6.236  10.355   8.014 -0.7926  1.5450 -2.6932
 8035SOL     OW28466  10.332   8.679   0.325  0.2364 -0.9348 -0.1461
 8035SOL    HW128467  10.354   8.672   0.232 -0.5443 -2.5354 -0.2398
 8035SOL    HW228468  10.416   8.700   0.368  0.0608  3.5494 -1.4698
 8036SOL     OW28469   1.432   6.572  10.387  0.2174 -0.5340 -0.1761
 8036SOL    HW128470   1.497   6.516  10.344  2.3984  0.6923  1.3128
 8036SOL    HW228471   1.405   6.634  10.319 -0.7676 -2.1257 -1.2923
 8037SOL     OW28472   2.208   9.907   0.928 -0.4326  0.3541  0.2050
 8037SOL    HW128473   2.182   9.990   0.967 -1.6757  0.1507 -0.1343
 8037SOL    HW228474   2.135   9.884   0.870 -0.8700 -1.7380  1.4702
 8038SOL     OW28475   0.310   8.328   4.258  0.4582  0.3692 -0.2823
 8038SOL    HW128476   0.234   8.304   4.310  0.9101 -1.4815 -0.4126
 8038SOL    HW228477   0.381   8.340   4.322  0.1909  1.6634 -0.1991
 8039SOL     OW28478   4.102   8.324   7.876 -0.3081  0.6302 -0.1250
 8039SOL    HW128479   4.055   8.250   7.914  2.8933 -3.2366 -2.8531
 8039SOL    HW228480   4.154   8.359   7.948  0.7210 -2.1878  0.6494
 8040SOL     OW28481   3.424   7.972   1.022  0.1856 -0.0585  0.2758
 8040SOL    HW128482   3.496   7.920   0.988 -0.3068 -0.3364 -0.3757
 8040SOL    HW228483   3.436   8.058   0.983  0.1044 -0.1357  0.0784
 8041SOL     OW28484   2.519   9.468   9.588  0.1075 -0.9648  0.8266
 8041SOL    HW128485   2.562   9.527   9.526  0.5322 -0.6376  1.4274
 8041SOL    HW228486   2.442   9.518   9.618 -0.2023 -1.1965  0.4343
 8042SOL     OW28487   5.759   4.040   7.160  0.6191  0.7039 -0.1854
 8042SOL    HW128488   5.780   3.949   7.140 -0.1509  0.4527  0.0734
 8042SOL    HW228489   5.843   4.081   7.177  1.0450  0.2281 -1.0573
 8043SOL     OW28490   8.345   0.292   4.067  0.3730  0.5128  0.3199
 8043SOL    HW128491   8.412   0.346   4.025  0.0677 -1.2421 -2.7646
 8043SOL    HW228492   8.391   0.210   4.088 -0.7307 -0.8986 -2.2668
 8044SOL     OW28493   0.214   4.627   6.237  0.4194  0.3721  0.4680
 8044SOL    HW128494   0.205   4.636   6.332  0.2336 -0.1223  0.5020
 8044SOL    HW228495   0.124   4.626   6.204  0.4740  0.2471  0.3185
 8045SOL     OW28496   9.264   6.906   4.873  0.5670  0.0168 -0.4104
 8045SOL    HW128497   9.355   6.881   4.860  1.2631  1.4550  1.2324
 8045SOL    HW228498   9.237   6.946   4.791  1.4939 -0.2028 -0.8281
 8046SOL     OW28499   5.592  10.289   8.158  0.4000 -0.1484 -0.1587
 8046SOL    HW128500   5.668  10.234   8.140 -1.2294 -1.9677 -2.0053
 8046SOL    HW228501   5.532  10.272   8.086 -1.5234  1.7211  0.8658
 8047SOL     OW28502   5.095   7.087   3.787  0.0218  0.1088  0.4097
 8047SOL    HW128503   5.063   7.177   3.791  2.0157  0.9000 -0.5603
 8047SOL    HW228504   5.068   7.049   3.870 -2.4169  1.0180  0.1251
 8048SOL     OW28505  10.333   2.735   5.970 -0.0445 -0.0505 -0.5153
 8048SOL    HW128506  10.260   2.754   5.911 -1.4965 -1.5583  0.6804
 8048SOL    HW228507  10.357   2.820   6.006 -1.3108  0.4921 -0.8733
 8049SOL     OW28508   4.522   7.366   4.103  0.1554  0.5062 -0.0393
 8049SOL    HW128509   4.508   7.311   4.181 -0.0989  2.2807  1.2175
 8049SOL    HW228510   4.441   7.358   4.053  0.7940 -1.6617 -0.8364
 8050SOL     OW28511   5.510   5.959   7.009  0.4287 -0.0742  0.2087
 8050SOL    HW128512   5.564   6.010   6.949  0.0164  0.2710  0.1340
 8050SOL    HW228513   5.476   6.022   7.072 -0.5876 -0.1410 -0.2494
 8051SOL     OW28514   0.346   5.317   1.398  0.8819  0.6436 -0.7478
 8051SOL    HW128515   0.344   5.412   1.409 -0.7016  0.5853 -0.3083
 8051SOL    HW228516   0.395   5.285   1.474  0.3327  1.0364 -0.2199
 8052SOL     OW28517   2.732   7.684   4.998 -0.2237 -0.1718 -0.6272
 8052SOL    HW128518   2.691   7.627   5.063  1.1027  0.1499  0.5416
 8052SOL    HW228519   2.789   7.627   4.948 -1.1720 -0.4017 -1.4677
 8053SOL     OW28520   9.666   1.615   3.274  0.4797  0.2214 -0.2535
 8053SOL    HW128521   9.647   1.688   3.334  0.5597  0.3029 -0.3275
 8053SOL    HW228522   9.698   1.657   3.194 -1.9488  0.2611 -1.2801
 8054SOL     OW28523   3.607   6.146   1.461  0.2081  0.0892  0.3129
 8054SOL    HW128524   3.600   6.230   1.507 -2.0861  0.5698 -0.7648
 8054SOL    HW228525   3.653   6.166   1.380 -1.0635  0.5298 -0.3270
 8055SOL     OW28526   4.957   7.763  10.799 -0.2247 -0.4164 -0.7239
 8055SOL    HW128527   5.022   7.699  10.825  1.1623  0.4246 -1.9882
 8055SOL    HW228528   4.914   7.789  10.881  2.2647  0.3217  0.4317
 8056SOL     OW28529   4.388   2.976   3.025  0.5864  0.0944 -0.0159
 8056SOL    HW128530   4.437   2.947   3.102 -0.1320  0.3406  0.5417
 8056SOL    HW228531   4.301   2.938   3.035 -0.1676  1.7966  0.3743
 8057SOL     OW28532   3.908   3.717   1.613  0.2738 -0.5842 -0.7258
 8057SOL    HW128533   3.881   3.792   1.666 -0.1554 -1.7740  0.8134
 8057SOL    HW228534   3.952   3.756   1.537 -0.0290  1.2157 -0.0308
 8058SOL     OW28535   7.116  10.749   5.373 -0.2302  0.0730 -0.1997
 8058SOL    HW128536   7.121  10.833   5.329 -2.7856  0.7274  0.5896
 8058SOL    HW228537   7.096  10.686   5.304  1.2430  0.1604 -0.7236
 8059SOL     OW28538   8.807   2.207   1.329 -0.1218  0.1639 -0.4817
 8059SOL    HW128539   8.802   2.251   1.244  0.4632  0.5235 -0.3347
 8059SOL    HW228540   8.877   2.252   1.376 -0.0931 -0.3640  0.0029
 8060SOL     OW28541   5.794   3.780   6.374 -0.1307 -0.0764  0.0132
 8060SOL    HW128542   5.737   3.772   6.297  1.7101  0.4426 -1.4682
 8060SOL    HW228543   5.783   3.696   6.420 -0.2824 -0.9607 -1.5532
 8061SOL     OW28544   1.804  11.078   9.712  0.2387  0.3800 -0.1689
 8061SOL    HW128545   1.861  11.077   9.788  1.7114 -0.6645 -1.2316
 8061SOL    HW228546   1.716  11.091   9.748  0.8500 -0.3682  1.7122
 8062SOL     OW28547   7.165   6.053   8.632  0.1664  0.2841 -0.1724
 8062SOL    HW128548   7.105   5.996   8.584 -0.5234  0.8962 -0.0716
 8062SOL    HW228549   7.192   6.118   8.567  1.3057 -0.4130 -0.4077
 8063SOL     OW28550   1.987   6.741   6.174  0.2909 -0.1044  0.1041
 8063SOL    HW128551   2.020   6.652   6.159 -0.3141 -0.8844  2.7031
 8063SOL    HW228552   2.052   6.781   6.231  0.2674  0.9434 -0.5882
 8064SOL     OW28553   1.063   8.727  10.902  0.3145 -0.0371  0.1358
 8064SOL    HW128554   1.052   8.700  10.993  3.3461  1.2010  1.0075
 8064SOL    HW228555   1.122   8.661  10.865 -1.2087 -0.7561 -1.1166
 8065SOL     OW28556  10.761   5.536   2.560  0.3249  0.5442  0.3513
 8065SOL    HW128557  10.834   5.475   2.574 -0.3904 -0.6455 -0.8410
 8065SOL    HW228558  10.785   5.614   2.611  1.5006 -0.5356  1.5390
 8066SOL     OW28559   2.715   1.179   5.634 -0.3966 -0.4712 -0.4177
 8066SOL    HW128560   2.742   1.126   5.559 -0.4791  1.3580 -1.8167
 8066SOL    HW228561   2.624   1.154   5.649 -0.9059  0.2359 -2.0194
 8067SOL     OW28562   7.458   6.224   8.441  0.4328  0.0689  0.0019
 8067SOL    HW128563   7.496   6.137   8.427 -0.7494 -0.4964  0.1758
 8067SOL    HW228564   7.464   6.267   8.356  0.3273 -0.4750 -0.2866
 8068SOL     OW28565   1.236   0.957   7.290 -0.4080  0.1290  0.1855
 8068SOL    HW128566   1.326   0.925   7.299 -0.6455 -0.6710 -0.1872
 8068SOL    HW228567   1.182   0.889   7.330 -0.9568 -0.2327 -1.1153
 8069SOL     OW28568   2.959   8.865   8.753 -0.3521 -0.3217 -0.2705
 8069SOL    HW128569   3.013   8.932   8.710  0.7909 -0.8074  0.3580
 8069SOL    HW228570   2.978   8.875   8.846  0.0106 -1.6519 -0.1808
 8070SOL     OW28571   4.245   4.808   1.856 -0.1667  0.3520 -0.2666
 8070SOL    HW128572   4.247   4.812   1.761  0.0926 -0.2577 -0.2886
 8070SOL    HW228573   4.326   4.849   1.884 -1.2222  2.5499 -0.2216
 8071SOL     OW28574   9.458  10.942   5.052 -0.2320 -0.2513  0.0281
 8071SOL    HW128575   9.513  10.878   5.007 -1.1293 -0.3319 -0.9714
 8071SOL    HW228576   9.425  10.999   4.983 -0.1925  0.7326  0.7959
 8072SOL     OW28577   0.575   2.867   4.108  0.0943  0.3034 -0.1023
 8072SOL    HW128578   0.619   2.855   4.024 -0.2577 -0.2139 -0.2156
 8072SOL    HW228579   0.646   2.885   4.169  0.3968  0.1857 -0.4152
 8073SOL     OW28580   4.459   7.632   3.214  0.3573 -0.3218  0.6277
 8073SOL    HW128581   4.384   7.573   3.223  1.2186 -1.6198 -0.3948
 8073SOL    HW228582   4.426   7.704   3.160  0.1594 -1.5326 -0.9393
 8074SOL     OW28583   8.316   4.826   6.757 -0.2595 -0.1147 -0.3223
 8074SOL    HW128584   8.230   4.860   6.730 -0.7504  0.1341  1.4481
 8074SOL    HW228585   8.328   4.748   6.703 -1.5204 -0.0706 -0.7153
 8075SOL     OW28586   9.574   2.599   3.882  0.0137 -0.4285 -0.7993
 8075SOL    HW128587   9.593   2.603   3.788 -0.5957  0.8047 -0.8986
 8075SOL    HW228588   9.479   2.610   3.887 -0.0710 -1.3510 -0.0687
 8076SOL     OW28589   8.280   2.118   1.231 -0.4327  0.1963 -0.4599
 8076SOL    HW128590   8.246   2.139   1.144  0.5864  2.5252 -0.3662
 8076SOL    HW228591   8.355   2.062   1.215 -1.6658 -1.4091 -0.8975
 8077SOL     OW28592   0.838   2.708   0.961 -0.8642 -0.0085  0.2289
 8077SOL    HW128593   0.769   2.641   0.953 -1.5126  0.8503 -2.0577
 8077SOL    HW228594   0.920   2.660   0.950 -1.2968 -0.5334 -0.8455
 8078SOL     OW28595   2.567   9.575   5.586 -0.5356 -0.1935 -0.4720
 8078SOL    HW128596   2.601   9.658   5.622  0.6117 -0.3649 -1.1198
 8078SOL    HW228597   2.535   9.527   5.663  1.0829 -0.1907  0.2446
 8079SOL     OW28598   3.915   5.916   7.159  0.5588 -0.3405  0.6834
 8079SOL    HW128599   3.911   5.922   7.063 -0.9934  0.9310  0.7883
 8079SOL    HW228600   4.009   5.914   7.179  0.9461 -2.5047 -0.9281
 8080SOL     OW28601   7.830   2.910   8.353  0.5456  0.1302 -0.0614
 8080SOL    HW128602   7.825   2.927   8.447 -1.4707  0.4494 -0.1839
 8080SOL    HW228603   7.877   2.827   8.347  1.7157  0.6593  1.1312
 8081SOL     OW28604   9.119   3.748   2.832 -0.8253  0.2200  0.3271
 8081SOL    HW128605   9.078   3.680   2.886  1.4259 -1.3641  0.1914
 8081SOL    HW228606   9.107   3.718   2.742 -1.8814  1.2703  0.0956
 8082SOL     OW28607   4.406   5.672   3.839  0.3126 -0.5112  0.2834
 8082SOL    HW128608   4.468   5.719   3.894 -0.2775 -0.4627  0.9293
 8082SOL    HW228609   4.349   5.740   3.803  0.1175 -0.6255  0.3710
 8083SOL     OW28610   5.368   4.346  10.576  0.0722 -0.1649 -0.4597
 8083SOL    HW128611   5.324   4.410  10.632 -1.0246 -0.0247 -1.4453
 8083SOL    HW228612   5.408   4.399  10.506  0.0450 -0.4647 -0.7045
 8084SOL     OW28613   0.376   9.944   9.478 -0.0734  0.1678  0.1369
 8084SOL    HW128614   0.394   9.941   9.572  0.1319  0.0600  0.0936
 8084SOL    HW228615   0.316  10.018   9.468 -0.4943 -0.1341  0.4179
 8085SOL     OW28616   2.675   4.475   0.522  0.2244 -0.5101  0.8844
 8085SOL    HW128617   2.588   4.515   0.531 -0.2086 -1.2855  0.3324
 8085SOL    HW228618   2.692   4.433   0.606  0.1668 -0.1483  1.0746
 8086SOL     OW28619   1.768   0.924   5.549  0.5171 -0.4110 -0.6321
 8086SOL    HW128620   1.859   0.930   5.580  0.6891  0.5478 -1.2937
 8086SOL    HW228621   1.753   0.830   5.537  0.8657 -0.7277  1.0731
 8087SOL     OW28622   1.741   9.309  10.029  0.7197  0.1280 -0.1108
 8087SOL    HW128623   1.663   9.296   9.975  0.5416  1.5839 -0.2532
 8087SOL    HW228624   1.767   9.221  10.056 -2.0279 -0.3478  1.4136
 8088SOL     OW28625   7.338   9.414   2.387 -0.2792  0.2624 -0.3915
 8088SOL    HW128626   7.432   9.425   2.372 -0.2132 -0.6368 -0.7354
 8088SOL    HW228627   7.301   9.501   2.373  0.8329  1.3776  2.7141
 8089SOL     OW28628   9.091   5.331  10.124  0.3488 -0.0193  0.1876
 8089SOL    HW128629   9.050   5.299  10.205 -0.4537  1.2144  0.2989
 8089SOL    HW228630   9.017   5.355  10.068  0.9071  0.3752 -0.3924
 8090SOL     OW28631   4.889   9.018   2.402 -0.0164 -0.3181 -0.4712
 8090SOL    HW128632   4.971   9.051   2.437 -1.3248  1.3286  1.2081
 8090SOL    HW228633   4.843   8.981   2.478 -0.9770 -0.9273 -1.3090
 8091SOL     OW28634   0.138   0.629   8.599 -0.0675 -0.1111  0.5720
 8091SOL    HW128635   0.166   0.710   8.642 -0.4219 -0.5032  1.5773
 8091SOL    HW228636   0.219   0.580   8.585  0.4804  1.3759 -2.2244
 8092SOL     OW28637   4.498   9.924   2.540  0.4123 -0.3053 -0.6354
 8092SOL    HW128638   4.580   9.967   2.514 -0.3957  1.4956 -0.3249
 8092SOL    HW228639   4.431   9.967   2.488 -0.8363  1.1336  1.9513
 8093SOL     OW28640   7.618   9.278   5.481 -0.1530  0.2363 -0.7453
 8093SOL    HW128641   7.593   9.276   5.389 -1.1836 -0.8825 -0.4604
 8093SOL    HW228642   7.637   9.187   5.503 -0.8206  0.3481  0.3880
 8094SOL     OW28643   6.362   7.535  10.311 -0.6354  0.0363 -0.2253
 8094SOL    HW128644   6.304   7.542  10.235 -0.9601 -1.2548 -0.1209
 8094SOL    HW228645   6.378   7.441  10.320  1.7355  0.3455 -0.4448
 8095SOL     OW28646   1.992   4.897   6.155 -0.0438  0.0025 -0.5616
 8095SOL    HW128647   1.931   4.950   6.206 -0.0772  1.6558 -2.2234
 8095SOL    HW228648   2.077   4.941   6.168  0.2825 -0.6346 -0.5094
 8096SOL     OW28649   5.134  10.591   5.539 -0.0008  0.2094 -0.2193
 8096SOL    HW128650   5.054  10.539   5.528 -0.4492  0.6383  0.8808
 8096SOL    HW228651   5.103  10.678   5.563  0.7770  0.7539 -1.1035
 8097SOL     OW28652  10.279   6.748   6.591  0.0357 -0.5721  0.7829
 8097SOL    HW128653  10.366   6.786   6.594  0.0407 -0.6129  1.3607
 8097SOL    HW228654  10.290   6.659   6.623 -0.1914 -0.6349  0.6960
 8098SOL     OW28655   7.096   1.350   3.179  0.0619  0.2028  1.0322
 8098SOL    HW128656   7.104   1.347   3.274 -0.5242  0.5336  1.0919
 8098SOL    HW228657   7.109   1.259   3.152  0.7209  0.1847  1.3845
 8099SOL     OW28658   5.474   1.068   1.753 -0.2809 -0.1876  0.2276
 8099SOL    HW128659   5.383   1.098   1.749 -0.6753 -1.3627 -0.0516
 8099SOL    HW228660   5.487   1.023   1.669  0.3831 -0.4944  0.4935
 8100SOL     OW28661   6.204   7.797   8.592 -0.1182 -0.3675  0.2527
 8100SOL    HW128662   6.158   7.733   8.647 -0.6632  0.4105  0.7379
 8100SOL    HW228663   6.249   7.853   8.655  0.9239 -0.6908 -0.1967
 8101SOL     OW28664   8.489   4.780   0.833 -0.3185  0.0775 -0.0773
 8101SOL    HW128665   8.433   4.830   0.893  0.3680 -0.3374  0.9276
 8101SOL    HW228666   8.434   4.706   0.806 -1.2520  1.1814 -1.3771
 8102SOL     OW28667   7.089   5.877   0.497 -0.1775 -0.4209 -0.4770
 8102SOL    HW128668   7.149   5.815   0.456 -1.4504 -2.5155  0.6703
 8102SOL    HW228669   7.132   5.901   0.580 -1.1203 -2.4282  0.6571
 8103SOL     OW28670   1.877   8.910   6.574 -0.0419  0.6872  0.1612
 8103SOL    HW128671   1.879   8.991   6.523  1.2635  0.6218  0.0701
 8103SOL    HW228672   1.960   8.911   6.622 -0.8040  0.2542  1.5172
 8104SOL     OW28673   5.324   6.193   9.775  0.0092  0.0642 -0.0765
 8104SOL    HW128674   5.266   6.247   9.828 -0.8614 -0.4597 -0.4768
 8104SOL    HW228675   5.401   6.178   9.831 -0.7227 -0.1628  0.8989
 8105SOL     OW28676   9.681   3.009   3.345  0.7699  0.3917 -0.2954
 8105SOL    HW128677   9.655   3.100   3.363  1.2863  0.6652 -0.9168
 8105SOL    HW228678   9.599   2.960   3.351  0.5526  0.8196  0.4966
 8106SOL     OW28679   7.346   7.873   3.874  0.1420  0.1336 -0.0405
 8106SOL    HW128680   7.273   7.921   3.835  0.9114 -0.4667 -2.3879
 8106SOL    HW228681   7.335   7.783   3.844  1.5009 -0.0895  0.0482
 8107SOL     OW28682   3.018   5.509   1.920 -0.1001 -0.3214 -0.6668
 8107SOL    HW128683   3.021   5.427   1.871 -0.4410  0.1499 -1.5043
 8107SOL    HW228684   3.086   5.501   1.986  1.2770 -0.4685 -2.0588
 8108SOL     OW28685   9.130   6.775  10.002 -0.2833  0.0249  0.2575
 8108SOL    HW128686   9.081   6.847  10.042  0.5312  1.0636 -0.5394
 8108SOL    HW228687   9.162   6.811   9.920  0.3835 -1.1800 -0.0333
 8109SOL     OW28688   0.517   3.542   5.807  0.2243 -0.0162 -0.0606
 8109SOL    HW128689   0.427   3.515   5.791  0.4377 -0.3642 -0.7157
 8109SOL    HW228690   0.570   3.481   5.756  0.7865  0.7963 -0.4793
 8110SOL     OW28691  10.937   8.602   2.909  0.0876  0.7153  0.2061
 8110SOL    HW128692  10.866   8.663   2.929  0.0444  0.3241  1.3779
 8110SOL    HW228693  11.014   8.657   2.896  0.2272  1.0240  2.0427
 8111SOL     OW28694   3.255   4.185   0.772  0.2015 -0.5878 -0.1822
 8111SOL    HW128695   3.331   4.229   0.733  0.5926  0.2759  1.4680
 8111SOL    HW228696   3.254   4.215   0.863 -1.8027 -1.0016 -0.0176
 8112SOL     OW28697   2.380   9.387   4.130 -0.7048  0.5488  0.2331
 8112SOL    HW128698   2.438   9.463   4.136 -0.1516  0.1088  0.6291
 8112SOL    HW228699   2.322   9.396   4.206 -1.5389  1.2885 -0.4759
 8113SOL     OW28700   5.070   6.281   2.283 -0.3131  0.5272 -0.5077
 8113SOL    HW128701   4.977   6.292   2.301 -0.6490  0.9945 -2.2911
 8113SOL    HW228702   5.104   6.371   2.278 -0.0285  0.3938 -1.0358
 8114SOL     OW28703  10.771   0.786   5.215  0.8682 -0.4058  0.0820
 8114SOL    HW128704  10.735   0.846   5.280  0.2793 -1.0704  0.3825
 8114SOL    HW228705  10.704   0.781   5.147  0.6791 -1.0982  0.3041
 8115SOL     OW28706   2.777   7.158   7.062 -0.0051  0.5255  0.5729
 8115SOL    HW128707   2.847   7.095   7.079  0.8819  1.7982  1.9058
 8115SOL    HW228708   2.719   7.151   7.138  0.2641  1.4947  0.8844
 8116SOL     OW28709  10.644   2.923  10.761  0.0910  0.3524  0.5534
 8116SOL    HW128710  10.718   2.881  10.806  0.2148 -0.3027 -0.2396
 8116SOL    HW228711  10.582   2.853  10.745 -0.6149  0.8603  1.0042
 8117SOL     OW28712   8.196   7.461   7.631 -0.3326  0.5973 -0.3580
 8117SOL    HW128713   8.150   7.379   7.617  0.0617  0.4584 -0.8874
 8117SOL    HW228714   8.288   7.440   7.613  0.1131  0.6062  1.6954
 8118SOL     OW28715   5.140   5.946   3.177  0.0761 -0.1732  0.2486
 8118SOL    HW128716   5.194   6.022   3.156  0.0253 -0.3533 -0.5972
 8118SOL    HW228717   5.166   5.879   3.113 -0.8167 -0.4117  0.1165
 8119SOL     OW28718   0.918   3.603  10.284  0.1246 -0.0249  0.2817
 8119SOL    HW128719   0.846   3.600  10.221  0.3020 -0.3550  0.0919
 8119SOL    HW228720   0.942   3.696  10.288 -0.4848  0.1267  0.5513
 8120SOL     OW28721   7.640  10.237   1.102  0.4101 -0.8260 -0.0998
 8120SOL    HW128722   7.685  10.230   1.186 -0.8533  1.7083  0.8922
 8120SOL    HW228723   7.571  10.170   1.106  0.7542 -1.1442  0.6227
 8121SOL     OW28724   4.014   0.884   7.660  0.3117  0.5664 -0.0240
 8121SOL    HW128725   4.107   0.883   7.636  0.7899  0.2036  1.6971
 8121SOL    HW228726   3.995   0.976   7.676  0.6711  0.5413  0.6004
 8122SOL     OW28727   5.010   7.328   6.484 -0.5839 -0.2146 -0.0535
 8122SOL    HW128728   5.022   7.419   6.508 -1.6924 -0.3219  1.0543
 8122SOL    HW228729   5.092   7.285   6.508 -0.6365  0.2158  0.9513
 8123SOL     OW28730   0.453   9.654   0.216  0.6610  0.5341 -0.2143
 8123SOL    HW128731   0.483   9.649   0.125 -0.0532  0.4349 -0.4554
 8123SOL    HW228732   0.532   9.668   0.267  1.0561  0.7406 -0.8706
 8124SOL     OW28733   7.663   1.464   3.526  0.2657 -0.4577  0.2856
 8124SOL    HW128734   7.615   1.387   3.555  1.6051 -1.0290  1.0892
 8124SOL    HW228735   7.740   1.430   3.481  0.3200  0.4229 -0.3285
 8125SOL     OW28736   9.772   5.652   7.907 -0.4429  0.0241 -0.2675
 8125SOL    HW128737   9.727   5.722   7.954  1.0245  0.4143  0.6238
 8125SOL    HW228738   9.788   5.687   7.820 -0.6148  0.4155 -0.1432
 8126SOL     OW28739   7.624   7.456   8.254 -0.1422 -0.0775  0.3373
 8126SOL    HW128740   7.638   7.453   8.159  0.9185  0.6400  0.4584
 8126SOL    HW228741   7.540   7.502   8.263  0.9697  2.2578 -0.2224
 8127SOL     OW28742   4.703   0.849   0.552  0.3661 -0.0406 -0.0548
 8127SOL    HW128743   4.743   0.934   0.572  0.5958  0.4963 -2.4270
 8127SOL    HW228744   4.756   0.786   0.599  0.3040  1.0913  1.6259
 8128SOL     OW28745   9.420   6.371  10.618  0.1433 -0.5546  0.8139
 8128SOL    HW128746   9.438   6.402  10.707 -1.7119  0.5708  0.8418
 8128SOL    HW228747   9.340   6.320  10.626  0.4521 -1.2011 -0.0772
 8129SOL     OW28748   2.496   8.898   7.366 -0.0671 -0.3840  0.0137
 8129SOL    HW128749   2.532   8.885   7.279 -0.9605  0.5096 -0.5104
 8129SOL    HW228750   2.446   8.980   7.359 -0.0730 -0.2480  1.3835
 8130SOL     OW28751   4.451   6.363   0.600 -0.2785 -0.1609 -1.0498
 8130SOL    HW128752   4.526   6.338   0.546  1.4662  0.0149  1.1898
 8130SOL    HW228753   4.409   6.280   0.622  0.4744 -0.4284 -0.6197
 8131SOL     OW28754  10.727   3.409   4.539  0.4755  0.1779  0.7332
 8131SOL    HW128755  10.770   3.403   4.454  0.8579  1.1456  0.8513
 8131SOL    HW228756  10.659   3.475   4.527 -0.4651 -0.7477  0.7797
 8132SOL     OW28757   7.272   1.406   2.647 -0.0195 -0.6428 -0.1900
 8132SOL    HW128758   7.293   1.465   2.575  0.0488 -0.6436 -0.1706
 8132SOL    HW228759   7.356   1.371   2.675 -0.0054 -0.3478  0.1445
 8133SOL     OW28760   1.485   6.736   7.996  0.1850 -0.3470  0.3603
 8133SOL    HW128761   1.550   6.702   8.057 -1.3240  1.5895  3.2872
 8133SOL    HW228762   1.407   6.682   8.013 -0.5178  0.8027  0.8731
 8134SOL     OW28763   9.733   3.011   1.933  0.0782  0.0932 -0.4012
 8134SOL    HW128764   9.810   2.993   1.878 -0.9288  0.8436 -2.1608
 8134SOL    HW228765   9.679   2.932   1.925 -0.1472  0.2697 -0.6462
 8135SOL     OW28766   6.482   7.164   3.377  0.4923  0.4652  0.3995
 8135SOL    HW128767   6.415   7.217   3.420 -0.8767 -0.5959 -0.3416
 8135SOL    HW228768   6.553   7.225   3.357 -0.3942  1.6782  0.9102
 8136SOL     OW28769   2.491   9.064   7.678 -0.5564 -0.4000 -0.4819
 8136SOL    HW128770   2.469   9.032   7.590 -2.3724 -3.7916  1.0104
 8136SOL    HW228771   2.406   9.083   7.718  0.1415 -0.1919  0.9554
 8137SOL     OW28772   0.915   4.923   2.770  0.1637  0.5267 -0.3000
 8137SOL    HW128773   0.883   5.000   2.722  0.7855  1.4800  0.7521
 8137SOL    HW228774   0.921   4.953   2.861  0.1087 -0.8810  0.1896
 8138SOL     OW28775   7.835   5.183   0.483 -0.0124 -0.4716  0.2185
 8138SOL    HW128776   7.750   5.226   0.478 -1.1606 -2.6527 -0.5007
 8138SOL    HW228777   7.855   5.181   0.577  0.1371  1.6057  0.2705
 8139SOL     OW28778   8.240   8.066   7.121 -0.0853 -0.1593  0.2308
 8139SOL    HW128779   8.159   8.083   7.170 -0.1470  0.1669  0.0227
 8139SOL    HW228780   8.211   8.028   7.039 -0.1836  1.7760 -0.6814
 8140SOL     OW28781   1.122   6.246   8.872  0.7272 -0.0363  0.2881
 8140SOL    HW128782   1.160   6.281   8.952  2.0936 -0.1190 -0.2905
 8140SOL    HW228783   1.139   6.151   8.878  0.6911 -0.0621 -0.0176
 8141SOL     OW28784   7.234   1.678   8.014  0.5626 -0.0088  0.2873
 8141SOL    HW128785   7.184   1.699   7.935 -0.2835  1.5333  1.1939
 8141SOL    HW228786   7.167   1.662   8.081  1.2532 -1.9894  0.5718
 8142SOL     OW28787   4.607   5.480  11.068  0.6796  0.8295  0.1770
 8142SOL    HW128788   4.543   5.409  11.068  1.0726  0.4034  2.0059
 8142SOL    HW228789   4.556   5.559  11.054  0.2924  0.1865 -2.4000
 8143SOL     OW28790   4.159   3.593   9.359 -0.3323 -0.0354 -0.0125
 8143SOL    HW128791   4.217   3.613   9.432 -0.1366 -0.1149 -0.1429
 8143SOL    HW228792   4.215   3.602   9.281 -0.1283 -1.4293 -0.0548
 8144SOL     OW28793   6.556  10.477   8.865 -0.0455 -0.1991 -0.2560
 8144SOL    HW128794   6.558  10.439   8.778  0.4925  1.1179 -0.8418
 8144SOL    HW228795   6.638  10.525   8.873 -0.1657 -0.1355  0.9088
 8145SOL     OW28796   5.573   2.437   5.691 -0.0620  0.0429 -0.1449
 8145SOL    HW128797   5.544   2.357   5.734  0.4071 -0.9292 -1.5792
 8145SOL    HW228798   5.669   2.433   5.695 -0.0324  0.4953 -0.2910
 8146SOL     OW28799   4.167   5.894   2.180  0.3202  0.3143 -0.3581
 8146SOL    HW128800   4.118   5.853   2.251  0.5114  0.9939  0.1719
 8146SOL    HW228801   4.214   5.821   2.138  0.5491 -0.0239  0.4806
 8147SOL     OW28802   5.647   7.339   3.790 -0.2247  0.7103 -0.3316
 8147SOL    HW128803   5.583   7.328   3.861  0.3968 -0.2647  0.1017
 8147SOL    HW228804   5.635   7.429   3.761  0.1668  1.4656  1.6841
 8148SOL     OW28805   7.892   4.529   8.177 -0.6712 -0.1793  0.0769
 8148SOL    HW128806   7.842   4.608   8.159 -1.6565 -0.7394  0.2814
 8148SOL    HW228807   7.970   4.536   8.122 -0.4045  1.2411  0.5952
 8149SOL     OW28808   3.162   8.043   0.842 -0.9739 -0.2102 -0.2601
 8149SOL    HW128809   3.246   8.007   0.868 -0.1268  1.0309 -1.1723
 8149SOL    HW228810   3.108   7.966   0.823 -0.1770 -1.0238  0.6668
 8150SOL     OW28811   9.617   7.393   3.765  0.0999  0.5493  0.4598
 8150SOL    HW128812   9.631   7.439   3.847  0.4125 -0.5740  1.0539
 8150SOL    HW228813   9.567   7.455   3.711  0.1528  1.4099  1.3727
 8151SOL     OW28814   9.514   1.280   4.701  0.1156  0.1547  0.0610
 8151SOL    HW128815   9.506   1.215   4.771  0.4488 -0.7087 -0.6873
 8151SOL    HW228816   9.428   1.322   4.697 -0.2364 -0.5281  0.2858
 8152SOL     OW28817   6.857   9.261   3.793 -0.4006 -0.0825  0.1734
 8152SOL    HW128818   6.864   9.199   3.721 -1.5766  1.6973 -1.5889
 8152SOL    HW228819   6.782   9.230   3.844 -1.8292  0.4923 -1.4385
 8153SOL     OW28820   6.104   6.225   7.675 -0.7715  1.0144  0.3469
 8153SOL    HW128821   6.094   6.223   7.771  0.2564  2.9420  0.5401
 8153SOL    HW228822   6.152   6.306   7.658 -1.3039  0.9138 -1.8521
 8154SOL     OW28823   7.789   5.681   1.586 -0.0774  0.2244 -0.2770
 8154SOL    HW128824   7.748   5.730   1.515 -0.4344 -1.1543 -1.0499
 8154SOL    HW228825   7.717   5.638   1.631  0.3968 -2.1692 -1.6039
 8155SOL     OW28826   3.591   1.662   7.153 -0.5044  0.0653 -0.3870
 8155SOL    HW128827   3.554   1.740   7.194  2.2644  1.8219 -0.9531
 8155SOL    HW228828   3.649   1.695   7.084  3.8356 -2.0708  1.7659
 8156SOL     OW28829   1.992   4.196   0.333 -0.3129  0.3668 -0.3165
 8156SOL    HW128830   1.965   4.198   0.241  2.0480 -0.5157 -1.1039
 8156SOL    HW228831   2.024   4.284   0.351  0.4700  0.1834 -0.7761
 8157SOL     OW28832   0.764   5.101  10.296 -0.1401 -0.0787  0.4224
 8157SOL    HW128833   0.682   5.052  10.303 -1.4054  1.8821  0.0340
 8157SOL    HW228834   0.739   5.192  10.311  1.7640  0.7254 -0.8833
 8158SOL     OW28835   4.956   2.067   5.702 -0.0962 -0.0103 -0.0619
 8158SOL    HW128836   5.031   2.119   5.731 -0.4013  0.0638  0.6111
 8158SOL    HW228837   4.888   2.085   5.766 -0.9345  0.4583 -1.0517
 8159SOL     OW28838   6.878   5.551   5.281  0.4397 -0.3286 -0.2005
 8159SOL    HW128839   6.842   5.561   5.193 -2.0165  2.6994  0.9556
 8159SOL    HW228840   6.863   5.460   5.303 -0.6721 -0.6961 -2.2014
 8160SOL     OW28841   0.506   4.144   7.049 -0.5991  0.1095  0.2543
 8160SOL    HW128842   0.501   4.053   7.022  1.9469  0.7472 -3.1325
 8160SOL    HW228843   0.444   4.190   6.992 -3.5427  0.4529  3.4116
 8161SOL     OW28844   9.664   2.096   3.437  0.0388 -0.1515 -0.2701
 8161SOL    HW128845   9.722   2.111   3.511 -1.6667 -1.0919  1.3348
 8161SOL    HW228846   9.577   2.121   3.469 -0.7587 -0.6478 -1.9344
 8162SOL     OW28847   0.648   6.009   5.764  0.2193  0.2696 -0.1496
 8162SOL    HW128848   0.723   6.004   5.705  1.3807  0.9635  1.2077
 8162SOL    HW228849   0.682   5.981   5.849 -0.6669  1.9084  0.8089
 8163SOL     OW28850   7.127   7.377   6.496  0.1039 -0.3568 -0.1211
 8163SOL    HW128851   7.048   7.418   6.461 -0.7640 -0.1561  1.9436
 8163SOL    HW228852   7.190   7.380   6.423 -1.6225 -0.1355 -1.6781
 8164SOL     OW28853   8.224   4.296   5.244  0.2674 -0.2851  0.4786
 8164SOL    HW128854   8.234   4.384   5.280  1.3333 -0.7300  1.3185
 8164SOL    HW228855   8.139   4.298   5.200 -0.1473  0.8971  1.2687
 8165SOL     OW28856   5.856   5.703   3.849 -0.2261  0.2534 -0.0129
 8165SOL    HW128857   5.848   5.764   3.923  3.0276  0.3224  0.4068
 8165SOL    HW228858   5.942   5.721   3.812  0.5034 -3.4079 -0.4738
 8166SOL     OW28859   9.228   3.860   9.947 -0.5797  0.5734 -0.0273
 8166SOL    HW128860   9.145   3.815   9.961 -0.6522  0.3316 -1.1320
 8166SOL    HW228861   9.231   3.876   9.853  1.3255 -0.8280 -0.2721
 8167SOL     OW28862   4.214   7.226   1.490 -0.2859  0.0385  0.7823
 8167SOL    HW128863   4.208   7.269   1.405 -0.7670 -1.4299  0.0419
 8167SOL    HW228864   4.177   7.139   1.476  0.5045 -0.5773  2.2646
 8168SOL     OW28865   0.819   4.386  10.764  0.5097 -0.4152  0.4819
 8168SOL    HW128866   0.865   4.354  10.687 -0.1553  0.6518 -0.3879
 8168SOL    HW228867   0.729   4.356  10.752  0.6400 -1.2681  1.4655
 8169SOL     OW28868  10.877   7.508   7.094 -0.0857 -0.4733  0.5886
 8169SOL    HW128869  10.924   7.513   7.011 -0.3128  1.0031  0.5148
 8169SOL    HW228870  10.792   7.548   7.075  0.2996  0.9931  1.8183
 8170SOL     OW28871  10.186   8.746  10.539  0.3347 -0.1609  0.3886
 8170SOL    HW128872  10.207   8.759  10.447 -0.9066  0.2134  0.1396
 8170SOL    HW228873  10.244   8.806  10.586  1.8327 -1.2287 -0.0324
 8171SOL     OW28874   2.169   8.008   4.949 -0.0096 -0.2091 -0.0124
 8171SOL    HW128875   2.223   7.933   4.925  0.1720  0.3269 -1.3918
 8171SOL    HW228876   2.215   8.048   5.023  0.8265 -0.4766 -0.3711
 8172SOL     OW28877   9.794   4.387   9.903  0.4128  0.2257  0.6882
 8172SOL    HW128878   9.818   4.471   9.942  1.7498 -0.3374  1.1424
 8172SOL    HW228879   9.727   4.409   9.839 -0.1815  1.4753  1.6861
 8173SOL     OW28880   5.497  10.345   1.337  0.4517 -0.5500  0.2215
 8173SOL    HW128881   5.500  10.269   1.395 -0.4243 -2.4642 -2.0759
 8173SOL    HW228882   5.436  10.406   1.381  1.7412 -0.7563  2.4705
 8174SOL     OW28883   0.284   8.642   6.223  0.5218  0.1235 -0.4829
 8174SOL    HW128884   0.238   8.600   6.296 -0.2810  1.0835 -0.3987
 8174SOL    HW228885   0.357   8.584   6.203  0.3566 -0.4974  0.6405
 8175SOL     OW28886   1.286   5.955   9.463  0.1613  0.2323 -0.5331
 8175SOL    HW128887   1.359   5.895   9.477 -0.3390  0.1391  2.1763
 8175SOL    HW228888   1.270   5.995   9.549 -0.7291  2.8900 -1.8222
 8176SOL     OW28889   9.820   3.545   8.095  0.2084  0.2162 -0.0763
 8176SOL    HW128890   9.769   3.616   8.135  0.4089  0.6116 -0.5170
 8176SOL    HW228891   9.792   3.544   8.003 -0.0956 -0.5520  0.0192
 8177SOL     OW28892   5.927   3.945   4.165 -0.3700  0.0238  0.4444
 8177SOL    HW128893   5.885   3.970   4.083 -1.4692  1.2087  1.3349
 8177SOL    HW228894   5.950   4.028   4.207 -0.7614 -0.5357  1.8088
 8178SOL     OW28895   9.935   3.902   9.566 -0.5491  0.2338  0.0472
 8178SOL    HW128896   9.881   3.970   9.607 -0.2026  0.4179  0.2033
 8178SOL    HW228897  10.022   3.915   9.603 -0.2886  0.2397 -0.5607
 8179SOL     OW28898   2.321   0.354   5.855  0.0702  0.0254 -0.2573
 8179SOL    HW128899   2.327   0.340   5.950  0.4068 -1.6389 -0.4872
 8179SOL    HW228900   2.393   0.302   5.819 -0.3776  0.2196 -1.4739
 8180SOL     OW28901   3.072   7.593   5.994 -0.4751  0.3238  0.2609
 8180SOL    HW128902   2.977   7.579   6.001  0.0387 -3.8206  1.1123
 8180SOL    HW228903   3.100   7.615   6.082 -0.3379 -1.3889  0.6718
 8181SOL     OW28904   5.059   8.163   4.562 -0.3872  0.3198 -0.2138
 8181SOL    HW128905   5.013   8.169   4.478  0.0044  0.1603 -0.4453
 8181SOL    HW228906   5.149   8.187   4.541 -0.0139 -0.8572 -0.0815
 8182SOL     OW28907   5.328   2.678   4.889  0.1428 -0.1063  0.0674
 8182SOL    HW128908   5.276   2.663   4.810  1.2004 -0.2297 -0.6214
 8182SOL    HW228909   5.346   2.590   4.922 -0.9526 -0.0378  0.9053
 8183SOL     OW28910   6.218   0.630   6.160 -0.3843  0.1744 -0.0452
 8183SOL    HW128911   6.178   0.697   6.105 -0.0967  1.2370  1.0033
 8183SOL    HW228912   6.291   0.674   6.203  1.6572 -1.5812 -1.5210
 8184SOL     OW28913   6.440  10.069   7.029 -0.6834  0.0978  0.0197
 8184SOL    HW128914   6.385  10.068   7.107 -0.7276  0.9042  0.0076
 8184SOL    HW228915   6.427  10.157   6.992 -0.3009 -0.1151 -0.6319
 8185SOL     OW28916   8.507   6.276   9.830 -0.3572  0.0958 -0.4304
 8185SOL    HW128917   8.502   6.251   9.922 -0.4552 -1.1239 -0.7449
 8185SOL    HW228918   8.600   6.269   9.809 -0.3505  0.2535 -0.4506
 8186SOL     OW28919   3.293   4.400   0.942  0.4339  0.5455 -0.3118
 8186SOL    HW128920   3.290   4.471   0.877  0.0116  0.7903 -0.0286
 8186SOL    HW228921   3.382   4.402   0.975  1.2988 -0.9413 -2.3798
 8187SOL     OW28922   9.559   5.688   6.408 -0.0728 -0.3068  0.5946
 8187SOL    HW128923   9.494   5.740   6.361 -1.6494 -1.7913  1.0307
 8187SOL    HW228924   9.573   5.736   6.490 -0.7290 -0.0386  0.5529
 8188SOL     OW28925   5.514   7.976   1.856  0.0340 -0.2554  0.0349
 8188SOL    HW128926   5.600   8.013   1.878  0.1712 -0.9776  0.7894
 8188SOL    HW228927   5.515   7.889   1.896 -1.4153  0.0857  0.8887
 8189SOL     OW28928  11.018   1.186   3.798 -0.6777 -0.1340 -0.2511
 8189SOL    HW128929  11.013   1.279   3.774 -2.4266 -0.2140 -0.2927
 8189SOL    HW228930  10.960   1.142   3.737 -0.3495 -1.1879  0.1758
 8190SOL     OW28931   1.239   3.245   4.176 -0.3925  0.2524 -0.4567
 8190SOL    HW128932   1.145   3.262   4.183 -0.1826  1.2162  0.2991
 8190SOL    HW228933   1.278   3.332   4.161  0.5148  0.0990  0.8527
 8191SOL     OW28934   8.485   6.275  10.111 -0.0834 -0.2517  0.0781
 8191SOL    HW128935   8.488   6.243  10.201 -2.3034  0.5849  0.5112
 8191SOL    HW228936   8.423   6.347  10.113 -0.6375 -0.5774 -2.2325
 8192SOL     OW28937   1.437   1.983   9.009 -0.6218  0.0436 -0.3401
 8192SOL    HW128938   1.360   2.031   8.978 -0.7525 -0.1020 -0.2389
 8192SOL    HW228939   1.477   1.948   8.930 -0.3883  0.5252 -0.4395
 8193SOL     OW28940   5.495   4.616   9.039  0.0014  0.0756  0.1543
 8193SOL    HW128941   5.404   4.593   9.056 -0.5304 -0.2974 -2.6034
 8193SOL    HW228942   5.545   4.541   9.071 -0.6595  0.1214  1.3522
 8194SOL     OW28943   4.976   5.906   8.269  0.0511  0.3819 -0.1663
 8194SOL    HW128944   4.922   5.842   8.223  1.8734 -0.3243 -1.4211
 8194SOL    HW228945   5.021   5.954   8.199  1.0608  0.9359  0.8303
 8195SOL     OW28946   7.079   3.841   1.252 -0.1240 -0.1119 -0.0291
 8195SOL    HW128947   7.055   3.873   1.165  1.3591 -0.7210 -0.6988
 8195SOL    HW228948   7.175   3.832   1.248  0.4477  2.8276  2.6753
 8196SOL     OW28949   3.990   0.523   5.480 -0.3092 -0.0982  0.2481
 8196SOL    HW128950   3.939   0.601   5.500 -0.7377 -0.4371  0.4893
 8196SOL    HW228951   3.962   0.458   5.545  0.5209 -0.2512  0.4663
 8197SOL     OW28952   5.118   3.155   5.315  0.4550  0.5438  0.0097
 8197SOL    HW128953   5.130   3.226   5.253 -0.6575  0.7898  0.0615
 8197SOL    HW228954   5.041   3.107   5.284 -0.5993  1.1236  1.5931
 8198SOL     OW28955   0.239   7.495   7.818 -0.7405 -0.2249 -0.1523
 8198SOL    HW128956   0.224   7.414   7.868 -0.8678 -1.3199 -1.8766
 8198SOL    HW228957   0.333   7.509   7.823 -0.9736  0.9679  2.2280
 8199SOL     OW28958   0.229   5.368  10.917  0.1792  0.3115 -0.1707
 8199SOL    HW128959   0.173   5.290  10.919  0.1187  0.3789  1.0206
 8199SOL    HW228960   0.190   5.422  10.848  0.0605 -0.5730 -0.8281
 8200SOL     OW28961   6.368   1.898   7.650 -0.8779  0.2277 -0.4561
 8200SOL    HW128962   6.402   1.915   7.738 -0.4819 -0.7440 -0.4092
 8200SOL    HW228963   6.446   1.899   7.594 -1.1538  1.0716 -0.8431
 8201SOL     OW28964  10.803  10.003   0.258  0.4810  0.1101 -0.4771
 8201SOL    HW128965  10.750   9.993   0.178 -1.5323  0.4653  0.7452
 8201SOL    HW228966  10.893  10.001   0.227 -0.2435  1.0819 -2.8763
 8202SOL     OW28967   7.902   0.071   0.903 -0.2959 -0.6390 -0.3694
 8202SOL    HW128968   7.969   0.139   0.898  0.0901 -1.0549 -1.1906
 8202SOL    HW228969   7.820   0.119   0.909  0.0970 -0.1208  1.6104
 8203SOL     OW28970   5.714   7.803   6.558  0.6586  0.6053  0.3654
 8203SOL    HW128971   5.789   7.860   6.571  0.8977  0.9815 -2.0965
 8203SOL    HW228972   5.671   7.799   6.643  2.5872  1.6390  1.4383
 8204SOL     OW28973   9.408   2.895   5.509  0.6883 -0.3511  0.1515
 8204SOL    HW128974   9.430   2.966   5.449 -0.6686  0.3088  0.4004
 8204SOL    HW228975   9.340   2.845   5.465  2.4559 -2.3038 -0.5649
 8205SOL     OW28976   7.356   2.433   8.190  0.8378  0.2393 -0.3675
 8205SOL    HW128977   7.365   2.338   8.185 -0.6771 -0.0762  1.5654
 8205SOL    HW228978   7.341   2.451   8.283 -3.1295  1.8734 -1.1110
 8206SOL     OW28979   7.686   0.279   8.886 -0.0089  0.4757 -0.5639
 8206SOL    HW128980   7.771   0.234   8.885 -0.0741  0.3505 -1.1097
 8206SOL    HW228981   7.625   0.216   8.848 -0.3637  0.5339 -0.0860
 8207SOL     OW28982   4.158   5.331   3.684 -0.0285 -0.0539 -0.3146
 8207SOL    HW128983   4.095   5.372   3.743  0.3174  0.2829 -0.1747
 8207SOL    HW228984   4.105   5.300   3.610 -0.6844 -1.8333  0.8418
 8208SOL     OW28985   5.418   2.949  10.935 -0.2624  0.4329 -0.0301
 8208SOL    HW128986   5.423   2.867  10.985 -2.5739 -0.3800 -0.9772
 8208SOL    HW228987   5.509   2.970  10.914  0.5001 -1.0970  1.4792
 8209SOL     OW28988   7.165   6.320   9.118 -0.2370  0.3496  0.2928
 8209SOL    HW128989   7.137   6.410   9.134  0.8940  0.7208  0.2908
 8209SOL    HW228990   7.086   6.267   9.129 -1.1525  1.4489 -0.7263
 8210SOL     OW28991   2.846   4.259  10.820 -0.2444 -0.5498  0.5954
 8210SOL    HW128992   2.926   4.279  10.773 -0.7991 -0.0188 -0.1480
 8210SOL    HW228993   2.798   4.199  10.763 -1.0250  0.2785  0.3473
 8211SOL     OW28994   3.804   2.031   5.779 -0.1178 -0.3182 -0.7229
 8211SOL    HW128995   3.809   1.995   5.867  0.3788  1.6864  0.1325
 8211SOL    HW228996   3.873   1.986   5.730 -2.9250 -4.4148 -1.3649
 8212SOL     OW28997   7.325   1.327   3.814 -0.3969  0.1660  0.3793
 8212SOL    HW128998   7.285   1.405   3.777 -1.2274 -0.3040  0.2549
 8212SOL    HW228999   7.252   1.281   3.857 -0.3075 -1.4546 -1.1018
 8213SOL     OW29000   7.009   5.767   2.570  0.2604 -0.3436  0.2137
 8213SOL    HW129001   7.010   5.742   2.478 -0.1311  0.5801 -0.0520
 8213SOL    HW229002   6.988   5.861   2.569  0.3604 -0.3041  1.2338
 8214SOL     OW29003   4.537   6.986   3.715 -0.3939 -0.0970 -0.1909
 8214SOL    HW129004   4.629   6.958   3.718 -0.6654 -1.0501 -0.5356
 8214SOL    HW229005   4.542   7.080   3.696  0.4872 -0.3418 -1.2460
 8215SOL     OW29006   5.075   5.414   4.633  0.1549 -0.2312 -0.5591
 8215SOL    HW129007   5.080   5.510   4.629 -0.3450 -0.2446 -2.4235
 8215SOL    HW229008   5.167   5.386   4.642  0.3052  0.4135 -0.0306
 8216SOL     OW29009   2.285   1.083   9.936 -0.0910 -0.3855 -0.5491
 8216SOL    HW129010   2.294   1.014  10.002  1.2045 -0.0567 -0.3532
 8216SOL    HW229011   2.211   1.136   9.966  2.9329  2.3181  3.1315
 8217SOL     OW29012   4.948   6.290   7.976  0.7014 -0.0274  0.4670
 8217SOL    HW129013   4.899   6.371   7.986  2.1533  1.0370 -0.4427
 8217SOL    HW229014   5.018   6.296   8.041  2.1170  0.5451 -1.0300
 8218SOL     OW29015   3.036   2.875   8.747  0.1585 -0.0659 -0.0989
 8218SOL    HW129016   3.034   2.783   8.722  1.4239 -0.3361  0.7023
 8218SOL    HW229017   3.050   2.874   8.842 -3.7566  0.9379  0.6537
 8219SOL     OW29018   7.986   3.539   4.383  0.1888  0.0715 -0.3218
 8219SOL    HW129019   8.002   3.541   4.289  0.2810  0.3733 -0.3001
 8219SOL    HW229020   8.026   3.620   4.416 -0.5485  0.3606 -0.1329
 8220SOL     OW29021   5.456   4.307   5.025  0.6384 -0.6629 -0.0352
 8220SOL    HW129022   5.495   4.283   4.941 -0.0864 -1.9264 -0.0448
 8220SOL    HW229023   5.362   4.305   5.009  0.5179  0.4522  0.4659
 8221SOL     OW29024   6.864  10.247   1.405 -0.7171  0.3151  0.6345
 8221SOL    HW129025   6.806  10.275   1.335 -1.0353 -2.0184 -0.1157
 8221SOL    HW229026   6.952  10.258   1.369 -0.8231  0.5128  0.4321
 8222SOL     OW29027   8.027   0.048   8.500 -0.4897 -0.2087 -0.4909
 8222SOL    HW129028   8.000   0.130   8.541  0.8771  0.0594 -0.1001
 8222SOL    HW229029   7.945   0.000   8.486 -1.4545  1.6961 -1.8225
 8223SOL     OW29030   1.349   2.830   5.763  0.1283  0.0476 -0.1943
 8223SOL    HW129031   1.310   2.914   5.738  0.3685  0.6058  1.1665
 8223SOL    HW229032   1.348   2.832   5.859  0.8962 -1.1568 -0.1448
 8224SOL     OW29033   1.226   9.448   8.302  0.1880 -0.1275  0.0633
 8224SOL    HW129034   1.295   9.386   8.281  1.0978  1.1090 -0.7911
 8224SOL    HW229035   1.251   9.484   8.387  1.1678  0.9951 -0.6564
 8225SOL     OW29036   0.847   9.475   3.686 -0.3792  0.1211  0.0108
 8225SOL    HW129037   0.938   9.449   3.673 -0.5603  0.1135 -1.3508
 8225SOL    HW229038   0.796   9.398   3.660 -0.7991  0.3821  0.0454
 8226SOL     OW29039   7.014   6.229   6.582  0.3914 -0.2767 -0.5210
 8226SOL    HW129040   7.108   6.237   6.567  0.5463 -1.0979 -0.0357
 8226SOL    HW229041   6.981   6.319   6.577  1.0463 -0.0826 -1.6517
 8227SOL     OW29042  10.819   8.503   1.559 -0.1561  0.2745  0.1843
 8227SOL    HW129043  10.749   8.537   1.615 -1.0633  1.3140 -1.5164
 8227SOL    HW229044  10.776   8.440   1.502  0.8992 -1.3341  1.0771
 8228SOL     OW29045   2.719   8.254   6.309 -0.2229 -0.1211  0.3008
 8228SOL    HW129046   2.701   8.161   6.291 -1.4904  0.1224  0.2198
 8228SOL    HW229047   2.753   8.254   6.398  1.4629 -0.8244 -0.2951
 8229SOL     OW29048   7.771   7.354   7.273  0.3221 -0.2008 -0.0263
 8229SOL    HW129049   7.804   7.353   7.363  0.8019  0.3948 -0.1834
 8229SOL    HW229050   7.808   7.435   7.235 -1.9815  0.9409  0.0216
 8230SOL     OW29051   2.011   1.525   3.508  0.2333 -0.3210  0.1050
 8230SOL    HW129052   1.986   1.517   3.416  0.6496 -2.3074  0.1050
 8230SOL    HW229053   1.955   1.461   3.553  0.0985  0.5546  1.2360
 8231SOL     OW29054  11.089  10.326   0.703  0.5275  0.0245 -0.3386
 8231SOL    HW129055  11.074  10.339   0.796 -0.4814 -0.5346 -0.4123
 8231SOL    HW229056  11.043  10.245   0.682  0.3874  0.3671 -1.4096
 8232SOL     OW29057  10.073  10.301   5.125 -0.2355  0.5847  0.0892
 8232SOL    HW129058  10.070  10.223   5.069 -2.0568  0.3760  0.4358
 8232SOL    HW229059  10.089  10.373   5.064 -0.2864  0.1499 -0.4501
 8233SOL     OW29060   4.460   4.430   6.761 -0.0906  0.2349  0.0266
 8233SOL    HW129061   4.394   4.361   6.763 -0.4402  0.5647 -0.1164
 8233SOL    HW229062   4.444   4.481   6.840 -1.3041  1.5078 -0.9901
 8234SOL     OW29063   2.441   9.083   9.469 -0.2313  0.6130 -0.8510
 8234SOL    HW129064   2.510   9.074   9.404 -1.0799 -0.8449 -1.5979
 8234SOL    HW229065   2.363   9.045   9.427 -0.8208 -0.3297  0.9760
 8235SOL     OW29066   1.870   9.312   1.520  0.8574  0.1464 -0.5558
 8235SOL    HW129067   1.935   9.242   1.515 -0.8088 -1.4289 -1.4712
 8235SOL    HW229068   1.831   9.315   1.433  0.4639  1.8291 -0.3560
 8236SOL     OW29069   5.290   1.098   6.219  0.4685  0.1080  0.2314
 8236SOL    HW129070   5.309   1.096   6.126  0.4321  0.6832  0.2136
 8236SOL    HW229071   5.365   1.143   6.258 -0.3769  1.5532  0.2661
 8237SOL     OW29072   8.106   6.622   1.495  0.0080  0.6675 -0.2295
 8237SOL    HW129073   8.101   6.535   1.533 -0.8852  0.9956  0.4355
 8237SOL    HW229074   8.020   6.635   1.454  0.3979  0.9455 -0.9862
 8238SOL     OW29075   1.350   3.475   5.101  0.0287 -0.2010 -0.8338
 8238SOL    HW129076   1.304   3.476   5.017 -1.2086  1.1376 -0.1844
 8238SOL    HW229077   1.282   3.497   5.166  1.3346  0.6801  0.2890
 8239SOL     OW29078   2.748   0.077   2.857 -0.0719 -0.2279 -0.2284
 8239SOL    HW129079   2.750   0.098   2.763 -0.6912  0.3523 -0.1220
 8239SOL    HW229080   2.794  -0.006   2.864  0.8357  0.1995 -0.9251
 8240SOL     OW29081   6.525   4.568   5.536 -0.5478 -0.1742  0.0161
 8240SOL    HW129082   6.454   4.622   5.502 -0.9641 -0.7570 -0.0599
 8240SOL    HW229083   6.582   4.552   5.462  0.1853  1.0806  0.2829
 8241SOL     OW29084   6.502   5.117   8.141  0.5131 -0.0881 -0.2924
 8241SOL    HW129085   6.549   5.052   8.194  0.9426  0.4183 -0.0512
 8241SOL    HW229086   6.414   5.119   8.179  1.2233  1.3817  1.4205
 8242SOL     OW29087   8.750   8.007   5.006  0.0761 -0.3815  0.0524
 8242SOL    HW129088   8.810   8.082   5.008 -2.5051  1.8364  0.6655
 8242SOL    HW229089   8.693   8.024   4.931 -1.3325 -1.0473  0.9189
 8243SOL     OW29090   5.635   3.038   3.847 -0.6581  0.1894  0.0581
 8243SOL    HW129091   5.596   2.968   3.794 -0.3692 -0.9041  1.2463
 8243SOL    HW229092   5.647   3.111   3.785 -1.5905 -0.5626 -1.0531
 8244SOL     OW29093  10.233   2.489   2.358  0.2645 -0.3026  0.0072
 8244SOL    HW129094  10.219   2.569   2.408 -1.1096 -0.2481 -0.3977
 8244SOL    HW229095  10.320   2.498   2.321  0.4670  0.6128  0.6707
 8245SOL     OW29096   5.036   9.349   0.785 -0.2047 -0.7062 -0.4444
 8245SOL    HW129097   5.124   9.323   0.759 -0.1043 -0.2886 -0.5221
 8245SOL    HW229098   5.026   9.438   0.752  0.6740  0.6849  2.6291
 8246SOL     OW29099   0.552   2.806   8.258 -0.0504  0.2562  0.2057
 8246SOL    HW129100   0.645   2.796   8.274  0.2561  0.9081 -1.0633
 8246SOL    HW229101   0.510   2.751   8.325  1.2314 -0.2628  0.6089
 8247SOL     OW29102   6.692   2.547   2.170 -0.1344 -0.0183  0.1270
 8247SOL    HW129103   6.615   2.601   2.188 -0.5132 -0.5751  0.2055
 8247SOL    HW229104   6.766   2.599   2.201 -0.5622  0.0867  1.0047
 8248SOL     OW29105   6.460   3.152   5.820 -0.0525 -0.6524 -0.0191
 8248SOL    HW129106   6.442   3.110   5.905  1.1709 -0.8360  0.1578
 8248SOL    HW229107   6.548   3.124   5.797  0.5790  1.3438 -0.1885
 8249SOL     OW29108   7.650   7.423   5.196 -0.0055 -0.0858  0.0325
 8249SOL    HW129109   7.650   7.336   5.235 -0.8826 -1.1200 -2.1185
 8249SOL    HW229110   7.563   7.431   5.156  0.8516  0.8668 -1.7207
 8250SOL     OW29111   3.855   3.005   9.140  0.3343  0.2077  0.4283
 8250SOL    HW129112   3.815   2.966   9.218  1.1689  0.7744  1.1550
 8250SOL    HW229113   3.929   3.055   9.173  0.9020  0.2006 -0.7710
 8251SOL     OW29114   0.863   2.998   3.615  0.0382 -0.4830 -0.0844
 8251SOL    HW129115   0.797   3.065   3.599 -1.2148 -1.5676  0.4064
 8251SOL    HW229116   0.887   3.009   3.707 -2.1374 -2.3300  0.7999
 8252SOL     OW29117   5.014   7.887   6.411  0.0893  0.3152  0.0059
 8252SOL    HW129118   4.971   7.856   6.332 -0.1613  0.8823 -0.0854
 8252SOL    HW229119   4.971   7.840   6.482  0.4026 -0.2884 -0.2027
 8253SOL     OW29120   8.387   1.420   3.287 -0.6254 -0.1723  0.6581
 8253SOL    HW129121   8.463   1.406   3.344 -0.8836 -0.5081  0.9203
 8253SOL    HW229122   8.313   1.384   3.336 -1.3319  2.0284  1.3456
 8254SOL     OW29123   3.283   6.761   1.183 -0.6741 -0.1398 -0.3020
 8254SOL    HW129124   3.300   6.773   1.276 -0.1124 -1.1217 -0.2621
 8254SOL    HW229125   3.340   6.688   1.157 -0.9172  0.0301 -1.3817
 8255SOL     OW29126   9.188   1.290   9.072 -0.3849  0.7767 -0.0942
 8255SOL    HW129127   9.097   1.298   9.098 -0.2187  1.4688  0.3064
 8255SOL    HW229128   9.220   1.381   9.069 -0.1809  0.6978 -1.9198
 8256SOL     OW29129   4.317   4.099   0.758  0.5633  0.4947  0.7903
 8256SOL    HW129130   4.409   4.079   0.772  0.5736 -0.2968 -0.3009
 8256SOL    HW229131   4.303   4.181   0.805  1.7497  0.4749  1.2108
 8257SOL     OW29132   0.668   1.990   4.640  0.1706 -0.2278  0.1523
 8257SOL    HW129133   0.673   2.058   4.573 -3.9108  0.0451 -0.1078
 8257SOL    HW229134   0.611   2.026   4.708  0.6934 -2.1416  1.7213
 8258SOL     OW29135   3.869   8.659   5.861  0.2203  0.2893 -0.5300
 8258SOL    HW129136   3.928   8.653   5.785  0.8893  0.8180 -0.0657
 8258SOL    HW229137   3.811   8.584   5.852  0.9501 -0.2339 -1.0218
 8259SOL     OW29138  10.662   4.785   2.699  0.0915  0.1170 -0.0711
 8259SOL    HW129139  10.651   4.808   2.607 -1.6486  1.5543  0.4457
 8259SOL    HW229140  10.650   4.690   2.701 -3.1114  0.3754 -1.0016
 8260SOL     OW29141   7.365   9.855  10.485 -0.2869 -0.2280  0.1417
 8260SOL    HW129142   7.307   9.884  10.414  0.1554  0.8038  0.1847
 8260SOL    HW229143   7.440   9.816  10.441 -0.5995 -0.7492  0.0687
 8261SOL     OW29144   8.489   7.191   3.557  0.1616  0.4535 -0.0275
 8261SOL    HW129145   8.532   7.113   3.523  0.3720  0.5090  0.1063
 8261SOL    HW229146   8.423   7.213   3.491  1.7012  1.5575 -1.2952
 8262SOL     OW29147   4.860   4.291   5.288 -0.5506  0.3686 -0.0750
 8262SOL    HW129148   4.838   4.382   5.268 -0.5135  0.5276  0.5739
 8262SOL    HW229149   4.915   4.297   5.367 -0.5383 -0.2151 -0.0383
 8263SOL     OW29150   4.053   8.386   7.624 -0.0367  0.0217  0.0120
 8263SOL    HW129151   4.070   8.350   7.711 -0.6573 -0.6318 -0.1308
 8263SOL    HW229152   4.019   8.312   7.573  0.4562  0.3581 -0.8320
 8264SOL     OW29153   9.314   7.395   1.698  0.2077 -0.1015  0.2702
 8264SOL    HW129154   9.404   7.364   1.700 -0.1410 -1.1292  0.8581
 8264SOL    HW229155   9.285   7.391   1.789 -1.3133 -2.5618 -0.2322
 8265SOL     OW29156   8.121   7.730   2.685 -0.1342 -0.4656 -0.6528
 8265SOL    HW129157   8.128   7.677   2.764  1.5100  0.4829 -0.1023
 8265SOL    HW229158   8.125   7.667   2.613  1.0760 -1.1703  0.0001
 8266SOL     OW29159   7.832   2.599   6.642  0.1245  0.3131 -0.2194
 8266SOL    HW129160   7.789   2.644   6.569 -1.2316  0.6793  0.7703
 8266SOL    HW229161   7.872   2.669   6.693 -3.3049  0.7349  2.1941
 8267SOL     OW29162   8.483   9.159   3.985  0.9262 -0.1798  0.8599
 8267SOL    HW129163   8.480   9.145   3.891 -0.3893  2.5847  0.3898
 8267SOL    HW229164   8.490   9.071   4.022 -0.1064 -1.4710 -1.7563
 8268SOL     OW29165   3.029   3.188   9.658 -0.4486  0.0115 -0.0393
 8268SOL    HW129166   3.117   3.223   9.644 -1.1090  1.7713 -0.0453
 8268SOL    HW229167   2.974   3.238   9.598 -1.7514  0.3569  1.3858
 8269SOL     OW29168   6.586   9.721   7.420 -0.3868  0.5679 -0.4111
 8269SOL    HW129169   6.586   9.667   7.341 -0.7639 -0.4913  0.2837
 8269SOL    HW229170   6.508   9.776   7.412  0.7610  2.1085 -1.8065
 8270SOL     OW29171   8.450   6.201   3.768 -0.3204 -0.0667  0.4567
 8270SOL    HW129172   8.470   6.175   3.678  2.2226 -0.6518  1.0855
 8270SOL    HW229173   8.382   6.141   3.796 -1.9350  0.8208 -1.3707
 8271SOL     OW29174   7.333   6.479   8.342 -0.0093 -0.3328  0.6325
 8271SOL    HW129175   7.242   6.476   8.369 -0.7395  0.1789 -1.6092
 8271SOL    HW229176   7.379   6.515   8.418 -1.4271 -1.8052  2.2780
 8272SOL     OW29177   4.452   6.137  10.620  0.3395  0.0851 -0.7325
 8272SOL    HW129178   4.372   6.149  10.568 -0.4162 -0.1920  0.3264
 8272SOL    HW229179   4.438   6.055  10.668  0.3023  1.1006  1.0981
 8273SOL     OW29180   6.281   8.054   6.878 -0.7657  0.1376  0.2725
 8273SOL    HW129181   6.258   7.967   6.912 -0.1184  0.1330  0.7225
 8273SOL    HW229182   6.264   8.113   6.951  0.0281  0.2104  0.4142
 8274SOL     OW29183   3.161   5.482   5.830  0.1632  0.0577  0.5949
 8274SOL    HW129184   3.218   5.483   5.753  0.7691  0.3268  1.0399
 8274SOL    HW229185   3.103   5.407   5.816  0.6954 -0.2829  0.1819
 8275SOL     OW29186   0.974   1.536   4.631 -0.1752  0.1140 -0.7757
 8275SOL    HW129187   0.928   1.619   4.635 -0.7617 -0.1257 -2.0856
 8275SOL    HW229188   1.064   1.558   4.656 -0.3498  1.1143 -0.9666
 8276SOL     OW29189   2.250   3.519   7.807 -0.0826  0.7966 -0.0205
 8276SOL    HW129190   2.268   3.551   7.895 -0.5965 -0.3358  0.5201
 8276SOL    HW229191   2.164   3.557   7.785 -0.0242  0.9541  0.0192
 8277SOL     OW29192   3.076   6.885  10.173  0.2057 -0.1784 -0.3980
 8277SOL    HW129193   2.984   6.878  10.145 -0.5748  3.3830  0.7147
 8277SOL    HW229194   3.114   6.950  10.114  1.5978 -0.5158  0.0976
 8278SOL     OW29195   7.142   0.143   7.335  0.2417  0.0585 -0.1303
 8278SOL    HW129196   7.152   0.237   7.322  0.3479  0.0049 -0.4365
 8278SOL    HW229197   7.230   0.108   7.323  0.5300  0.1119  1.6522
 8279SOL     OW29198   3.315  11.091   6.055 -0.0894  0.0805  0.2060
 8279SOL    HW129199   3.339  11.139   6.134 -0.0468  0.2936  0.0656
 8279SOL    HW229200   3.374  11.125   5.988  0.5055 -0.7592  0.2864
 8280SOL     OW29201   0.786  10.074   5.570 -0.5411 -0.0858  0.0218
 8280SOL    HW129202   0.815  10.165   5.582 -0.1120  0.1551 -2.3325
 8280SOL    HW229203   0.690  10.080   5.568 -0.5205  0.2874  0.0197
 8281SOL     OW29204   1.120   2.948   3.499  0.2220 -0.0090 -0.5295
 8281SOL    HW129205   1.108   2.853   3.499  0.4772 -0.0413 -0.3248
 8281SOL    HW229206   1.034   2.983   3.524  0.3782 -0.2174  0.2927
 8282SOL     OW29207   9.685   3.155   4.164 -0.1681  0.0710  0.7510
 8282SOL    HW129208   9.638   3.159   4.081 -0.0030  0.8862  0.6874
 8282SOL    HW229209   9.617   3.152   4.230 -0.3043 -0.0136  0.6079
 8283SOL     OW29210   2.071   1.650   5.408 -0.6213  0.8533 -0.1948
 8283SOL    HW129211   2.090   1.735   5.450 -1.2248  1.2722 -0.7494
 8283SOL    HW229212   2.084   1.666   5.315  0.1994  0.0669 -0.2216
 8284SOL     OW29213   6.195   1.504   7.311 -0.5635  0.5880  0.4138
 8284SOL    HW129214   6.111   1.550   7.317  0.6263  2.8711  0.7356
 8284SOL    HW229215   6.188   1.452   7.232 -3.0575 -1.0384  1.5737
 8285SOL     OW29216   7.601   2.865   7.408 -0.9940 -0.0349 -0.2109
 8285SOL    HW129217   7.554   2.944   7.437  1.1478  1.0804  0.3927
 8285SOL    HW229218   7.673   2.898   7.354  1.5268 -1.2823  2.1470
 8286SOL     OW29219   2.025   9.176   9.507  0.3233  0.2168  0.4273
 8286SOL    HW129220   2.005   9.128   9.588 -1.2461  0.2500  0.1058
 8286SOL    HW229221   1.942   9.218   9.484  0.4382 -0.6190 -1.7468
 8287SOL     OW29222  10.097  10.703  10.390 -0.8274 -0.2385 -0.2146
 8287SOL    HW129223  10.045  10.689  10.312 -0.6239  0.3121 -0.4565
 8287SOL    HW229224  10.124  10.615  10.418 -2.4675 -0.5883  0.3335
 8288SOL     OW29225   2.485   3.014   6.863 -0.2408 -0.2440  0.1927
 8288SOL    HW129226   2.486   3.101   6.824 -0.1547 -0.2507  0.1812
 8288SOL    HW229227   2.561   2.970   6.826  0.2204 -0.0294  0.8757
 8289SOL     OW29228   7.290   4.354   5.313  0.0966  0.1859  0.3043
 8289SOL    HW129229   7.235   4.424   5.349 -0.1108  0.3555 -0.3307
 8289SOL    HW229230   7.313   4.300   5.389  0.9246  1.3798  0.9462
 8290SOL     OW29231   0.208   7.985   4.518  0.4814 -0.0322  0.3911
 8290SOL    HW129232   0.187   8.069   4.477 -1.3335 -0.3924  0.5197
 8290SOL    HW229233   0.140   7.925   4.487  0.6868 -1.0077  1.7429
 8291SOL     OW29234   7.676   4.580   8.561  0.5696 -0.3723  0.3251
 8291SOL    HW129235   7.755   4.630   8.579  0.4986 -0.7369  1.7082
 8291SOL    HW229236   7.705   4.505   8.509  0.9062  0.2333 -0.3814
 8292SOL     OW29237   1.263   5.840   6.373  0.1670 -0.2025 -0.4080
 8292SOL    HW129238   1.247   5.753   6.407  1.3963  0.1188  1.0702
 8292SOL    HW229239   1.340   5.831   6.317 -0.2598 -0.2253 -1.0034
 8293SOL     OW29240   8.091   8.559   4.606  0.1297  0.7399  0.1274
 8293SOL    HW129241   8.163   8.622   4.607  0.3120  0.5306  0.5225
 8293SOL    HW229242   8.126   8.482   4.652 -0.5051  0.8256  0.7704
 8294SOL     OW29243   9.887   8.453   0.491  0.0231  0.5986 -0.0692
 8294SOL    HW129244   9.888   8.534   0.542 -0.5325  1.2061 -0.9813
 8294SOL    HW229245   9.944   8.471   0.416  0.7403 -0.2371  0.2590
 8295SOL     OW29246   8.369   1.757   1.984  0.9311 -0.3231  0.0520
 8295SOL    HW129247   8.406   1.737   1.898  1.8798 -0.8010  0.5536
 8295SOL    HW229248   8.310   1.684   2.002 -0.2547  0.4157 -0.7286
 8296SOL     OW29249   1.510   4.835   0.085  0.0070 -0.5293 -0.5337
 8296SOL    HW129250   1.591   4.869   0.124  0.0712 -0.0926 -1.0393
 8296SOL    HW229251   1.509   4.871  -0.004 -0.6761 -0.6414 -0.5762
 8297SOL     OW29252   2.854   7.082   8.253 -0.3097 -0.4546 -0.0696
 8297SOL    HW129253   2.770   7.120   8.280 -0.2053 -0.3561  0.1160
 8297SOL    HW229254   2.837   6.988   8.247  0.0745 -0.6869  1.8994
 8298SOL     OW29255   0.559   1.376  10.728  0.7700  0.0258  0.4841
 8298SOL    HW129256   0.499   1.434  10.681  0.0845 -1.0371 -0.0030
 8298SOL    HW229257   0.604   1.328  10.659  0.4736 -0.8439  0.8840
 8299SOL     OW29258   7.175   3.728   6.690  0.2812  0.4765  0.1714
 8299SOL    HW129259   7.270   3.714   6.695  0.3739  0.9419 -0.2923
 8299SOL    HW229260   7.140   3.643   6.661  0.7006  0.7089 -1.0785
 8300SOL     OW29261   5.231   1.530   0.938 -0.1446 -0.1333  0.1292
 8300SOL    HW129262   5.172   1.462   0.972 -0.2602  0.1404  0.4776
 8300SOL    HW229263   5.289   1.550   1.011 -1.4196  1.6144  0.7382
 8301SOL     OW29264   3.905   1.886   4.851  0.1133 -0.4950  0.3927
 8301SOL    HW129265   3.840   1.847   4.910 -0.9322 -0.6762 -0.8283
 8301SOL    HW229266   3.882   1.979   4.849  0.5236 -0.3854  0.7292
 8302SOL     OW29267   7.972   3.085   0.062  0.1267 -0.0202  0.0971
 8302SOL    HW129268   7.941   3.173   0.045 -0.7601 -0.3469 -0.0076
 8302SOL    HW229269   8.049   3.075   0.005  0.3385  0.7383  0.2464
 8303SOL     OW29270   4.426   9.453   2.970 -0.2519 -0.3475  0.3340
 8303SOL    HW129271   4.444   9.380   3.029  1.3546 -1.1844 -1.0849
 8303SOL    HW229272   4.366   9.418   2.905  1.5072 -0.8749 -1.0868
 8304SOL     OW29273   0.657   7.322   2.006 -0.0653  0.0757  0.0040
 8304SOL    HW129274   0.595   7.251   1.990 -0.9672  0.7811  0.2555
 8304SOL    HW229275   0.614   7.377   2.072  1.4827 -0.2090  1.3100
 8305SOL     OW29276   3.640   8.781   2.570  0.1814 -0.1405  0.5169
 8305SOL    HW129277   3.665   8.838   2.642  0.9642 -1.2147  1.1187
 8305SOL    HW229278   3.637   8.693   2.609 -1.8217 -0.4319 -0.1764
 8306SOL     OW29279   7.657   1.498   2.271  0.8209 -0.3759 -0.0954
 8306SOL    HW129280   7.572   1.496   2.228  0.5336 -3.4177  0.3339
 8306SOL    HW229281   7.701   1.575   2.235 -1.6738  0.6654 -1.1411
 8307SOL     OW29282   5.893   3.810   9.044  0.2007 -0.1361 -0.2241
 8307SOL    HW129283   5.944   3.775   8.970  1.5197 -0.1976  0.6682
 8307SOL    HW229284   5.947   3.882   9.078  0.1999 -0.8311  1.3582
 8308SOL     OW29285   2.395   8.546   2.205  0.0206  0.0362 -0.0038
 8308SOL    HW129286   2.377   8.483   2.135  1.7904 -1.1420  0.5282
 8308SOL    HW229287   2.357   8.628   2.174 -0.2743 -0.7356 -1.7982
 8309SOL     OW29288   0.099   7.518   6.287 -0.3680  0.5071 -0.4498
 8309SOL    HW129289   0.068   7.608   6.284 -0.9151  0.3597  0.3110
 8309SOL    HW229290   0.193   7.523   6.271 -0.3199  1.2563  0.0530
 8310SOL     OW29291  10.679   9.199   9.566 -0.6790 -0.1589 -0.2335
 8310SOL    HW129292  10.719   9.120   9.530  1.3723  1.8880 -2.8970
 8310SOL    HW229293  10.712   9.204   9.656  0.2779 -1.6000 -0.4645
 8311SOL     OW29294   4.452   8.228   1.018 -0.4632  0.1358 -0.2266
 8311SOL    HW129295   4.502   8.253   1.095 -0.2216 -1.6033  0.2062
 8311SOL    HW229296   4.424   8.312   0.980 -1.0119  1.0270  2.0034
 8312SOL     OW29297   7.846   5.198  10.905  0.1219  0.1591  0.3841
 8312SOL    HW129298   7.906   5.178  10.834 -1.3570 -0.0057 -0.8842
 8312SOL    HW229299   7.801   5.278  10.877 -0.6862 -0.0652  0.9835
 8313SOL     OW29300   7.476   5.533   4.304  0.8710 -0.1755 -0.1457
 8313SOL    HW129301   7.471   5.620   4.344  2.4561 -0.5003  0.8663
 8313SOL    HW229302   7.533   5.545   4.228 -0.3287 -0.0148 -1.0553
 8314SOL     OW29303  10.708   3.947   7.062 -0.1561  0.1826 -0.0559
 8314SOL    HW129304  10.646   3.986   7.001 -1.1854 -0.4680  0.5497
 8314SOL    HW229305  10.660   3.938   7.144  0.8013 -0.1337  0.4965
 8315SOL     OW29306   3.244   8.238   9.789 -0.3812 -0.5464  0.1292
 8315SOL    HW129307   3.242   8.159   9.733 -1.1973  1.5533 -3.0834
 8315SOL    HW229308   3.152   8.255   9.810 -0.1682 -0.6789  1.2038
 8316SOL     OW29309   8.311   0.589   1.716 -0.2590 -0.6047 -0.0905
 8316SOL    HW129310   8.250   0.662   1.705 -0.8769 -1.2769 -1.3486
 8316SOL    HW229311   8.322   0.582   1.811 -1.3882  0.1412  0.1239
 8317SOL     OW29312   7.029  10.461   3.623 -0.1945  0.0065 -0.0206
 8317SOL    HW129313   7.051  10.547   3.659 -0.1674  0.2062 -0.5074
 8317SOL    HW229314   6.955  10.431   3.676 -1.9306  1.4810 -1.4749
 8318SOL     OW29315   2.012   9.480   9.187 -0.1060 -0.1428 -0.7874
 8318SOL    HW129316   2.017   9.431   9.269  0.3603 -0.6444 -1.1071
 8318SOL    HW229317   1.937   9.443   9.142 -2.6249  2.5078  0.8940
 8319SOL     OW29318  10.288   2.496   6.421  0.2475 -0.1882 -0.1614
 8319SOL    HW129319  10.361   2.466   6.367 -0.7877 -0.3418 -1.5267
 8319SOL    HW229320  10.215   2.507   6.360 -1.2793 -1.3745  1.3468
 8320SOL     OW29321   5.319   4.986   8.480  0.2502  0.8585 -0.0370
 8320SOL    HW129322   5.224   5.001   8.479  0.1486  0.2997  0.3733
 8320SOL    HW229323   5.329   4.895   8.453  0.4716  0.0789  2.3512
 8321SOL     OW29324   9.903   4.814   6.689  0.2486  0.1605  0.2603
 8321SOL    HW129325   9.891   4.745   6.624 -1.7523 -0.0076  0.7503
 8321SOL    HW229326   9.925   4.892   6.638 -0.1950 -0.2164 -0.5216
 8322SOL     OW29327   4.160   9.639   2.719 -0.1221  0.0444  0.0087
 8322SOL    HW129328   4.209   9.720   2.702 -0.2996  0.0115 -0.6821
 8322SOL    HW229329   4.072   9.657   2.687 -1.0874  0.6999  2.7673
 8323SOL     OW29330   9.949   6.111   9.752  0.3174 -0.0550 -0.2398
 8323SOL    HW129331   9.898   6.030   9.745  0.3901 -0.0025 -1.7718
 8323SOL    HW229332   9.884   6.180   9.767  0.0081 -0.1002 -1.3354
 8324SOL     OW29333   6.002   4.775   1.035 -0.5294  0.2816  0.3247
 8324SOL    HW129334   5.913   4.747   1.056 -0.3791 -2.0034 -1.5932
 8324SOL    HW229335   5.992   4.839   0.965 -0.6966  0.0481  0.1306
 8325SOL     OW29336   0.385   1.309   3.958 -0.3631  0.1161  0.0332
 8325SOL    HW129337   0.397   1.403   3.966 -1.7149  0.4929 -1.7300
 8325SOL    HW229338   0.302   1.299   3.913  1.3949 -1.7810 -3.1899
 8326SOL     OW29339   2.045   2.218   7.836 -0.1687  0.3116  0.4745
 8326SOL    HW129340   2.039   2.135   7.790  2.9666  0.6473 -0.8165
 8326SOL    HW229341   2.051   2.194   7.929  1.0891 -0.9782  0.0924
 8327SOL     OW29342   3.205   8.811   9.872  0.1406  0.1335  0.1325
 8327SOL    HW129343   3.157   8.792   9.792  0.3630  1.3184 -0.2986
 8327SOL    HW229344   3.245   8.896   9.857  2.1037 -0.6445  0.6166
 8328SOL     OW29345   6.495   6.190   0.307  0.3005 -0.4105 -0.1820
 8328SOL    HW129346   6.462   6.137   0.379 -0.0653 -0.5591 -0.4542
 8328SOL    HW229347   6.483   6.280   0.336  0.1412 -0.4698 -0.0614
 8329SOL     OW29348   1.134   6.352   7.170 -0.7614 -0.1820 -0.1007
 8329SOL    HW129349   1.173   6.286   7.113 -1.2030 -0.1596 -0.4420
 8329SOL    HW229350   1.041   6.328   7.174 -0.9186  0.3840 -0.1892
 8330SOL     OW29351   8.845   7.452   1.916 -0.2161 -0.5225  0.1594
 8330SOL    HW129352   8.930   7.427   1.879 -0.6602 -2.3889  0.2828
 8330SOL    HW229353   8.824   7.382   1.977 -1.0176  0.8481  1.5215
 8331SOL     OW29354   0.445   4.936   9.583 -0.5672  0.1886  0.1975
 8331SOL    HW129355   0.448   5.031   9.595  1.7988  0.5851 -2.4009
 8331SOL    HW229356   0.537   4.910   9.579 -1.1661 -2.1039  0.0188
 8332SOL     OW29357   8.493  10.613   7.800  0.0680  0.1209 -0.2032
 8332SOL    HW129358   8.414  10.559   7.804  0.0158  0.2218  0.2169
 8332SOL    HW229359   8.461  10.702   7.796  0.1386  0.1033 -1.7932
 8333SOL     OW29360   5.627   4.816  10.783  0.1772  0.3409  0.6755
 8333SOL    HW129361   5.710   4.768  10.788  0.2975  0.5884  1.0358
 8333SOL    HW229362   5.608   4.820  10.689 -0.8112 -2.0777  0.7119
 8334SOL     OW29363   5.383   7.560   2.962 -0.1876  0.3191  0.6788
 8334SOL    HW129364   5.346   7.617   2.894  3.4104  0.7463 -1.1185
 8334SOL    HW229365   5.309   7.507   2.991 -1.9453 -0.0499 -3.7304
 8335SOL     OW29366   9.450   3.388   0.190  0.0838  0.0441  0.1873
 8335SOL    HW129367   9.391   3.452   0.149 -0.5291 -0.3779  0.3991
 8335SOL    HW229368   9.438   3.402   0.284  0.9687  0.5370  0.2370
 8336SOL     OW29369   0.349  10.664   2.033 -0.3060  0.1855  0.1598
 8336SOL    HW129370   0.320  10.682   1.943 -0.0907 -0.1668  0.0191
 8336SOL    HW229371   0.302  10.584   2.057 -0.6472  0.4839  0.4964
 8337SOL     OW29372  10.357   0.249   9.160 -0.4952  0.0862 -0.1348
 8337SOL    HW129373  10.272   0.218   9.128 -0.8038 -0.2726  0.9708
 8337SOL    HW229374  10.420   0.217   9.095 -0.7295 -3.3685  1.0962
 8338SOL     OW29375   2.691  10.276   0.213  1.5098 -0.2398  0.0808
 8338SOL    HW129376   2.605  10.260   0.173  1.2412  1.6348 -0.1889
 8338SOL    HW229377   2.727  10.189   0.229  0.2533 -1.0657 -1.3222
 8339SOL     OW29378   9.420   6.424   5.372 -0.4067 -0.2649  0.3303
 8339SOL    HW129379   9.371   6.468   5.302  1.4397  0.7022 -0.4026
 8339SOL    HW229380   9.357   6.362   5.409 -1.9871  0.4726 -0.9821
 8340SOL     OW29381   6.612   0.898   2.888 -0.4064  0.0927  0.0661
 8340SOL    HW129382   6.580   0.954   2.959 -0.4711  1.3968 -0.9439
 8340SOL    HW229383   6.633   0.815   2.931 -0.0531  0.9609  1.6815
 8341SOL     OW29384   4.142   5.044  10.806  0.2133  0.0176 -0.3148
 8341SOL    HW129385   4.076   5.038  10.737  0.2584  1.1569 -0.4747
 8341SOL    HW229386   4.099   5.007  10.883  0.3349 -1.7282 -1.0442
 8342SOL     OW29387   7.085   8.556   9.427  0.7486 -0.0110  0.2382
 8342SOL    HW129388   7.145   8.610   9.478 -1.0263  1.4820  0.8769
 8342SOL    HW229389   7.074   8.604   9.345 -0.0140  0.0656  0.3737
 8343SOL     OW29390   7.497   1.428   3.190 -0.4010  0.5779 -0.4333
 8343SOL    HW129391   7.588   1.458   3.192 -0.3332  0.3594  0.6062
 8343SOL    HW229392   7.458   1.474   3.116  0.3457  1.3135 -0.3849
 8344SOL     OW29393   2.044   5.041  10.581 -0.1934  0.0154 -0.2622
 8344SOL    HW129394   1.975   5.007  10.524  1.0954  0.2598 -2.0653
 8344SOL    HW229395   2.006   5.119  10.622 -1.0483  0.0527 -1.1022
 8345SOL     OW29396   1.899   2.911   4.610 -0.1034  0.5121 -0.2880
 8345SOL    HW129397   1.853   2.903   4.527  2.0421  2.2841 -1.7493
 8345SOL    HW229398   1.916   3.005   4.619 -1.4328  0.5908  2.8835
 8346SOL     OW29399   0.645   4.151   2.895  0.2645  0.2855  0.0894
 8346SOL    HW129400   0.667   4.243   2.879 -0.3323  0.4602  0.2653
 8346SOL    HW229401   0.634   4.114   2.807 -1.3823  0.8509  0.0273
 8347SOL     OW29402   4.966   7.615   4.430 -0.6263  0.4349 -0.0253
 8347SOL    HW129403   5.005   7.530   4.449 -1.1113  0.3619  0.6731
 8347SOL    HW229404   4.876   7.596   4.406 -0.8577  0.7805  0.5479
 8348SOL     OW29405   4.516   2.457   9.444 -0.2969  0.6114 -0.6680
 8348SOL    HW129406   4.492   2.493   9.530  1.0252  0.1377 -0.0683
 8348SOL    HW229407   4.547   2.532   9.394  0.4717  0.6666 -0.1438
 8349SOL     OW29408  10.740   3.719   9.221  0.2948 -0.3517  0.3373
 8349SOL    HW129409  10.745   3.624   9.228  0.9616 -0.3411  0.0356
 8349SOL    HW229410  10.646   3.738   9.225  0.1388 -1.0452  0.0898
 8350SOL     OW29411   9.343   2.625   3.168 -0.1163  0.5819 -0.1762
 8350SOL    HW129412   9.272   2.562   3.158  0.9671 -0.4402 -1.8204
 8350SOL    HW229413   9.356   2.660   3.080 -1.1400  3.7102  0.7641
 8351SOL     OW29414   1.921   0.293   4.524 -0.4447 -0.0050 -0.1170
 8351SOL    HW129415   1.828   0.275   4.510 -0.5973  0.1756  0.6611
 8351SOL    HW229416   1.959   0.209   4.549 -0.7888  0.3043  1.5591
 8352SOL     OW29417   7.718   8.101   8.582  0.0915  0.0258 -0.1627
 8352SOL    HW129418   7.765   8.070   8.660 -0.2007  0.4113  0.1771
 8352SOL    HW229419   7.630   8.120   8.615  0.1500  0.8092 -0.4516
 8353SOL     OW29420   9.165   2.478   5.721 -0.1369 -0.2119  0.0323
 8353SOL    HW129421   9.109   2.432   5.784 -0.6561 -2.8519 -2.1885
 8353SOL    HW229422   9.249   2.485   5.766 -0.9839 -0.2085  1.7329
 8354SOL     OW29423   3.778   2.723   4.341 -0.0395  0.4992 -0.2543
 8354SOL    HW129424   3.746   2.711   4.252 -1.3934  1.0936  0.1303
 8354SOL    HW229425   3.699   2.723   4.395  0.8897 -2.5113  1.3031
 8355SOL     OW29426   7.896  10.002   8.192 -0.0126  0.5325 -0.3557
 8355SOL    HW129427   7.954  10.055   8.138  0.3380  0.3713 -0.1412
 8355SOL    HW229428   7.834  10.064   8.229 -0.4612  0.6008 -1.2035
 8356SOL     OW29429   7.808   4.248   9.192  0.2771  0.0468  0.0324
 8356SOL    HW129430   7.768   4.313   9.134 -0.0236  0.5030  0.7380
 8356SOL    HW229431   7.737   4.220   9.250  0.3079 -1.2138 -0.5142
 8357SOL     OW29432   9.524   6.725   7.919  0.1368  0.2262  0.5762
 8357SOL    HW129433   9.463   6.650   7.920 -0.7776  0.9242 -0.2690
 8357SOL    HW229434   9.546   6.739   8.011 -1.4370  0.2856  0.9853
 8358SOL     OW29435  10.430   1.354   3.924  0.1131 -0.0921 -0.0062
 8358SOL    HW129436  10.504   1.325   3.870  0.0419  0.2936 -0.3130
 8358SOL    HW229437  10.466   1.424   3.978  0.2409 -0.6210  0.6161
 8359SOL     OW29438   3.769   0.056   8.025 -0.0150 -0.5185  0.4178
 8359SOL    HW129439   3.730  -0.031   8.015  0.2596 -0.7522  1.2725
 8359SOL    HW229440   3.773   0.069   8.120  4.1365 -1.4907  0.5448
 8360SOL     OW29441   8.246   4.338   2.245  0.3590  0.4192 -0.0634
 8360SOL    HW129442   8.159   4.310   2.215  0.2490  0.8095 -0.1247
 8360SOL    HW229443   8.230   4.423   2.287  0.4867 -0.1441  1.1932
 8361SOL     OW29444   8.390   5.909   4.382  0.4112  0.4867  0.2507
 8361SOL    HW129445   8.334   5.839   4.347  0.9213 -0.0593  0.5201
 8361SOL    HW229446   8.340   5.989   4.367 -0.3404  0.0285  0.2624
 8362SOL     OW29447   9.189   5.395   7.091  0.1188 -0.0117  1.0588
 8362SOL    HW129448   9.278   5.419   7.118  0.7726 -2.2445  1.1186
 8362SOL    HW229449   9.188   5.299   7.095 -1.4022 -0.2248 -1.7090
 8363SOL     OW29450   7.609   9.724  10.729  0.2299 -0.1238 -0.0478
 8363SOL    HW129451   7.516   9.714  10.749  0.1574 -0.6785 -0.6156
 8363SOL    HW229452   7.611   9.740  10.634  0.7807 -1.3875 -0.2702
 8364SOL     OW29453   8.073   6.341   2.155 -0.0652 -0.0284 -0.1758
 8364SOL    HW129454   8.168   6.330   2.156  0.2210  1.9134  1.1761
 8364SOL    HW229455   8.060   6.434   2.176 -2.2668 -0.2705 -0.2340
 8365SOL     OW29456   3.442   2.773   6.569 -0.2215 -0.4728 -0.0726
 8365SOL    HW129457   3.403   2.846   6.521  1.9456  0.1789 -0.9688
 8365SOL    HW229458   3.418   2.695   6.518 -0.8465 -0.1661 -0.2543
 8366SOL     OW29459   5.793  10.864   3.434  0.0631  0.1151  0.7267
 8366SOL    HW129460   5.819  10.898   3.519  0.9168 -1.9629  1.3703
 8366SOL    HW229461   5.830  10.925   3.371  2.1945 -0.0165  1.7858
 8367SOL     OW29462   1.448   9.856   2.062  0.0849  0.2741  0.3562
 8367SOL    HW129463   1.476   9.856   1.970  0.1145 -0.5115  0.3571
 8367SOL    HW229464   1.520   9.898   2.109 -0.6847  2.2974 -0.1826
 8368SOL     OW29465   6.994   3.567   6.939 -0.1950 -0.2143  0.4638
 8368SOL    HW129466   7.087   3.586   6.954 -0.1619  0.7759 -0.7471
 8368SOL    HW229467   6.955   3.653   6.923 -1.3389 -0.6155  1.0148
 8369SOL     OW29468   2.774   7.101   1.275 -0.2479 -0.2124 -0.2186
 8369SOL    HW129469   2.784   7.040   1.202  1.0832  0.0945 -0.3111
 8369SOL    HW229470   2.863   7.115   1.308 -0.2998  2.7371 -1.0646
 8370SOL     OW29471   7.425   2.599  10.214 -0.4653  0.0641 -0.3891
 8370SOL    HW129472   7.425   2.635  10.302  0.3289 -0.6313 -0.0878
 8370SOL    HW229473   7.426   2.504  10.227  3.2728 -0.1664 -1.0198
 8371SOL     OW29474   5.148   9.800   3.695  0.4387 -0.6545 -0.6259
 8371SOL    HW129475   5.095   9.722   3.717  0.0282  0.2919  2.1047
 8371SOL    HW229476   5.166   9.790   3.601 -3.3307 -1.8141 -1.4415
 8372SOL     OW29477  10.892   2.484   0.514 -0.0267 -0.0483  0.2496
 8372SOL    HW129478  10.817   2.470   0.572 -0.3605  0.8347  0.0595
 8372SOL    HW229479  10.967   2.452   0.563 -0.5584 -1.2061  0.3342
 8373SOL     OW29480   3.869   3.179   5.371 -0.3797 -0.1405 -0.4047
 8373SOL    HW129481   3.782   3.140   5.385 -0.7465  1.2065  1.3450
 8373SOL    HW229482   3.927   3.127   5.426 -0.0430 -0.9943 -1.5205
 8374SOL     OW29483   3.878   7.261   8.622 -0.3933 -0.6960 -0.5390
 8374SOL    HW129484   3.852   7.353   8.614  2.1233  0.0670 -0.8486
 8374SOL    HW229485   3.890   7.247   8.716 -2.1407 -1.1859 -0.3462
 8375SOL     OW29486  10.863   0.779   8.754 -0.1368  0.7668  0.0231
 8375SOL    HW129487  10.923   0.817   8.691  0.4190  1.6194  1.0346
 8375SOL    HW229488  10.894   0.689   8.766 -0.2020  0.6231 -0.8280
 8376SOL     OW29489  10.304   0.898   7.243  0.0100  0.3960 -0.0785
 8376SOL    HW129490  10.355   0.868   7.318 -0.7722 -1.7339 -0.3270
 8376SOL    HW229491  10.355   0.869   7.167  0.3569  1.7624 -0.3996
 8377SOL     OW29492   6.003   3.726   0.492  0.2453 -0.5698 -0.3447
 8377SOL    HW129493   6.001   3.804   0.437 -1.0091 -0.5480 -0.2917
 8377SOL    HW229494   6.019   3.654   0.432  1.9421 -0.2384 -0.3288
 8378SOL     OW29495   3.379   6.556   8.628  0.2216  0.3041 -0.3342
 8378SOL    HW129496   3.415   6.644   8.636 -1.6903  1.0143  1.0783
 8378SOL    HW229497   3.372   6.525   8.719 -2.0460 -0.0275 -0.5744
 8379SOL     OW29498   2.849   7.558   7.049 -0.6486 -0.4900 -0.3726
 8379SOL    HW129499   2.881   7.606   7.125  0.3159 -0.2812 -0.8881
 8379SOL    HW229500   2.787   7.617   7.007  0.4799  0.3142 -0.9652
 8380SOL     OW29501   6.956   2.995   0.339 -0.1426  0.0171 -0.4706
 8380SOL    HW129502   7.014   2.923   0.314 -0.2502 -0.4023  0.4582
 8380SOL    HW229503   7.001   3.037   0.412 -0.6522  0.1501 -0.2317
 8381SOL     OW29504  10.044   0.398   6.619  0.4741 -0.6129 -0.3963
 8381SOL    HW129505  10.009   0.354   6.541 -1.3126  0.0134  0.0175
 8381SOL    HW229506  10.011   0.487   6.614 -0.6102 -0.8429  1.6170
 8382SOL     OW29507   6.750   9.169   0.209  0.0040 -0.1917  0.0594
 8382SOL    HW129508   6.811   9.096   0.196 -1.7751 -1.5101 -1.4024
 8382SOL    HW229509   6.709   9.181   0.123 -0.7575  1.6178  0.6438
 8383SOL     OW29510   9.460   9.570   7.439  0.1813 -0.2872 -0.3593
 8383SOL    HW129511   9.375   9.544   7.474  0.4496 -2.3643 -1.1168
 8383SOL    HW229512   9.439   9.641   7.377 -1.5763 -3.0074 -3.1855
 8384SOL     OW29513   0.190   1.748   2.906 -0.8564  0.1432 -0.5243
 8384SOL    HW129514   0.211   1.751   2.813 -1.3982 -1.0283 -0.7062
 8384SOL    HW229515   0.162   1.658   2.921  2.5686 -0.7545  1.5193
 8385SOL     OW29516   4.745   0.172   3.608 -0.4226  0.1879 -0.1280
 8385SOL    HW129517   4.838   0.192   3.601 -0.5137  0.9131  0.6004
 8385SOL    HW229518   4.715   0.221   3.685 -1.4197  0.0205 -0.3885
 8386SOL     OW29519   4.457   1.827   6.401 -0.3493  0.0884 -0.2891
 8386SOL    HW129520   4.542   1.808   6.443 -1.2458  0.4731  1.8349
 8386SOL    HW229521   4.427   1.742   6.368  0.9407 -0.0118 -1.2928
 8387SOL     OW29522   4.117   7.649   8.325 -0.0365  0.0810 -0.3925
 8387SOL    HW129523   4.077   7.666   8.240  0.8236 -1.1729 -1.0947
 8387SOL    HW229524   4.141   7.735   8.359  1.5083  0.5195 -2.3938
 8388SOL     OW29525   8.051   7.639   7.742  0.0618 -0.2640 -0.2730
 8388SOL    HW129526   8.016   7.582   7.811  1.0667 -1.7771 -0.9744
 8388SOL    HW229527   8.097   7.580   7.683  1.7307  1.3632 -0.6886
 8389SOL     OW29528   4.408   5.330   8.082  0.4827 -0.1002 -0.5465
 8389SOL    HW129529   4.453   5.298   8.004 -0.0108 -1.3045 -0.3580
 8389SOL    HW229530   4.461   5.297   8.155 -0.6538 -1.5524 -0.3217
 8390SOL     OW29531   8.723   1.542   6.297 -0.3740  0.1813  0.5107
 8390SOL    HW129532   8.746   1.598   6.224 -1.2206  0.0257  0.1181
 8390SOL    HW229533   8.678   1.599   6.359 -2.2170 -0.2359 -0.3675
 8391SOL     OW29534   3.281   9.852   4.148 -0.4531 -0.0906 -0.8349
 8391SOL    HW129535   3.362   9.808   4.176 -0.6612 -0.4821 -0.8514
 8391SOL    HW229536   3.226   9.782   4.113 -0.9003  0.1396 -0.6002
 8392SOL     OW29537   9.327  10.246  10.494 -0.2111  0.0427  0.3458
 8392SOL    HW129538   9.414  10.274  10.523  0.9482 -3.2596  0.5250
 8392SOL    HW229539   9.344  10.170  10.438 -2.8894  1.0336 -2.0417
 8393SOL     OW29540   9.727  10.154   6.274 -0.0858  0.3141 -0.1277
 8393SOL    HW129541   9.696  10.211   6.204 -3.3883 -1.5522 -0.4122
 8393SOL    HW229542   9.797  10.102   6.233  1.4005  2.4814 -0.4917
 8394SOL     OW29543  10.933   1.985  10.392 -0.2352 -0.1950 -0.5520
 8394SOL    HW129544  10.959   1.974  10.483  0.3767 -0.5917 -0.7667
 8394SOL    HW229545  10.976   1.913  10.346 -0.9650 -0.3101 -1.0720
 8395SOL     OW29546   7.627   0.494   5.359 -0.2974  0.4392 -0.3285
 8395SOL    HW129547   7.540   0.502   5.319 -0.8171  0.4119  0.7651
 8395SOL    HW229548   7.664   0.415   5.319 -0.0208  1.4277 -2.1354
 8396SOL     OW29549   6.112   9.542   4.073 -0.7184 -0.0739 -0.0949
 8396SOL    HW129550   6.054   9.613   4.045  0.4074  0.2195 -1.8348
 8396SOL    HW229551   6.059   9.463   4.062 -1.5067  0.3530  0.4777
 8397SOL     OW29552   5.927   8.608   5.750  0.4151 -0.4177  0.1920
 8397SOL    HW129553   5.966   8.552   5.817  2.3228  1.0683  0.4065
 8397SOL    HW229554   5.985   8.599   5.675  1.3389  1.9358  0.5461
 8398SOL     OW29555  10.602   6.282  10.253  0.3652  0.1758  0.1398
 8398SOL    HW129556  10.616   6.225  10.328  1.8613  1.3409  0.8044
 8398SOL    HW229557  10.528   6.243  10.207  1.8656 -2.8231  0.0294
 8399SOL     OW29558  10.532  10.540   3.569  0.4065 -0.3631 -0.3664
 8399SOL    HW129559  10.618  10.537   3.611  0.9767  0.0154 -1.4449
 8399SOL    HW229560  10.543  10.488   3.490  0.1503  1.0075 -1.3456
 8400SOL     OW29561   9.361   4.772   4.842  0.0783 -0.3305  0.5169
 8400SOL    HW129562   9.345   4.679   4.826 -1.7920  0.2395 -1.3367
 8400SOL    HW229563   9.280   4.804   4.882  0.2127  0.7174 -0.0074
 8401SOL     OW29564   2.663   3.593  10.739 -0.1835 -0.0134 -0.0017
 8401SOL    HW129565   2.701   3.680  10.750 -1.2683  0.5736 -0.6545
 8401SOL    HW229566   2.735   3.532  10.756  0.0465  0.9288  2.7429
 8402SOL     OW29567   9.023   2.733   5.798  0.0433 -0.1073 -0.1886
 8402SOL    HW129568   9.069   2.650   5.813  0.7737 -0.1281 -2.2285
 8402SOL    HW229569   8.935   2.707   5.773  0.3539 -0.3134 -1.1143
 8403SOL     OW29570   9.494   1.774   4.901  0.2980  0.0010  0.1127
 8403SOL    HW129571   9.469   1.762   4.809 -1.2082 -0.8935  0.6067
 8403SOL    HW229572   9.588   1.756   4.902  0.2749 -0.3256 -1.1955
 8404SOL     OW29573   9.082   0.410   0.150 -0.3192  0.6258 -0.0147
 8404SOL    HW129574   9.022   0.453   0.089 -0.1947  0.0966 -0.5195
 8404SOL    HW229575   9.034   0.407   0.233 -0.7666  0.7251 -0.2689
 8405SOL     OW29576   7.112   3.646   5.138  0.5269 -0.1030  0.5977
 8405SOL    HW129577   7.203   3.632   5.111  0.1588  0.4006 -1.0120
 8405SOL    HW229578   7.101   3.741   5.137 -0.1091 -0.1746  0.4816
 8406SOL     OW29579   7.030   2.394   6.829  0.3057 -0.2433  0.2948
 8406SOL    HW129580   6.961   2.364   6.888  0.1147 -0.5495 -0.0826
 8406SOL    HW229581   7.018   2.343   6.749 -0.7176  1.5649 -0.7716
 8407SOL     OW29582   1.619   1.876   9.793  0.3703 -0.5422 -0.5865
 8407SOL    HW129583   1.635   1.943   9.860  0.0780 -0.0965 -0.9604
 8407SOL    HW229584   1.642   1.918   9.711  2.6791 -1.7060 -0.6414
 8408SOL     OW29585   5.070   9.443   7.174  0.2265  0.3204 -0.4363
 8408SOL    HW129586   5.123   9.462   7.097 -0.4960 -0.3918 -1.1362
 8408SOL    HW229587   5.012   9.372   7.146  1.6250 -1.6976  1.5106
 8409SOL     OW29588   5.121   3.214   1.786 -0.4540 -0.0729  0.3267
 8409SOL    HW129589   5.164   3.181   1.864 -0.7966  0.7007  0.8517
 8409SOL    HW229590   5.030   3.186   1.794 -0.1716 -1.3198 -0.5611
 8410SOL     OW29591   8.709  11.068   0.630 -0.5742 -0.1808  0.5179
 8410SOL    HW129592   8.674  11.150   0.665 -0.3887 -0.5704  1.6386
 8410SOL    HW229593   8.798  11.063   0.665 -0.8349 -1.2117  1.0418
 8411SOL     OW29594   8.118   4.299   6.722 -0.2400  0.0726  0.4835
 8411SOL    HW129595   8.200   4.282   6.768 -0.4962 -0.5313  0.7397
 8411SOL    HW229596   8.054   4.244   6.768 -0.4932 -0.5876 -0.6248
 8412SOL     OW29597   0.535   2.047   8.207  0.5823  0.2095 -0.1582
 8412SOL    HW129598   0.481   1.989   8.262 -0.9450 -1.5396 -3.2508
 8412SOL    HW229599   0.513   2.135   8.238  0.3302 -0.6678  2.4282
 8413SOL     OW29600   2.571   1.332   2.810  0.0024 -0.1882 -0.4364
 8413SOL    HW129601   2.627   1.289   2.874  0.9688  0.2554 -0.9555
 8413SOL    HW229602   2.621   1.328   2.728 -0.1914  1.2590 -0.6506
 8414SOL     OW29603   1.418   9.111   7.473  0.0575  0.2315  0.1965
 8414SOL    HW129604   1.414   9.067   7.558  1.4180 -2.1940 -0.8669
 8414SOL    HW229605   1.343   9.078   7.425  0.8698 -0.6937 -0.4792
 8415SOL     OW29606   5.578   7.661   7.347 -0.2335 -0.1678 -0.0727
 8415SOL    HW129607   5.606   7.638   7.435 -1.9436 -1.8356  0.0875
 8415SOL    HW229608   5.623   7.743   7.328  0.2150  0.1970  2.3179
 8416SOL     OW29609   6.329   3.153  10.023 -0.1182 -0.1721 -0.6553
 8416SOL    HW129610   6.262   3.151  10.092 -0.8713  2.3514 -1.1882
 8416SOL    HW229611   6.370   3.067  10.027 -0.7294 -0.4561  2.3253
 8417SOL     OW29612   7.839   9.914   5.416  0.3158 -0.0508  0.4474
 8417SOL    HW129613   7.909   9.970   5.382 -0.9197  0.3166 -1.6532
 8417SOL    HW229614   7.768   9.974   5.438 -0.5057 -0.6431 -0.5000
 8418SOL     OW29615   5.399   4.757   8.352 -0.5579  0.3126 -0.2284
 8418SOL    HW129616   5.470   4.745   8.415 -0.9686  0.2962  0.2413
 8418SOL    HW229617   5.443   4.767   8.268 -0.0370 -0.9065 -0.1351
 8419SOL     OW29618   5.347   2.905   8.405 -0.2758 -0.2280 -0.2041
 8419SOL    HW129619   5.387   2.951   8.478  0.4375  0.4206 -0.9879
 8419SOL    HW229620   5.421   2.877   8.351 -0.7551 -1.3035 -0.3294
 8420SOL     OW29621   8.980   8.656   6.394 -0.0878  0.0839  0.0560
 8420SOL    HW129622   8.986   8.661   6.298  0.3555  2.1874  0.1434
 8420SOL    HW229623   8.890   8.627   6.411  0.0062 -0.8832 -0.9903
 8421SOL     OW29624   8.595  10.084   9.520  0.3434 -0.1678  0.2803
 8421SOL    HW129625   8.631  10.109   9.606  0.8435  0.5175 -0.1202
 8421SOL    HW229626   8.579   9.990   9.528  1.0498 -0.2484  0.8929
 8422SOL     OW29627  10.612   6.509   6.944 -0.3600  0.1653 -0.0931
 8422SOL    HW129628  10.644   6.489   7.032 -0.1678  0.9882  0.0347
 8422SOL    HW229629  10.547   6.442   6.926  0.1796 -0.4936  0.3482
 8423SOL     OW29630  10.616   3.546   7.912 -0.1924 -0.4092 -0.4947
 8423SOL    HW129631  10.645   3.457   7.892  1.5761 -0.0776  0.4372
 8423SOL    HW229632  10.660   3.601   7.848  0.1156 -0.0410  0.0236
 8424SOL     OW29633   5.226   1.365   5.437 -0.0983 -0.3184  0.1351
 8424SOL    HW129634   5.213   1.435   5.502 -1.3774 -0.4488  0.0505
 8424SOL    HW229635   5.307   1.322   5.464  0.9834  1.4907 -0.0976
 8425SOL     OW29636   6.890   5.580   8.420 -0.4474  0.1915  0.5494
 8425SOL    HW129637   6.922   5.493   8.440  2.6533  1.7104  2.9057
 8425SOL    HW229638   6.852   5.612   8.502 -0.8831  1.3246 -0.0656
 8426SOL     OW29639   2.413   8.078   1.361 -0.3472  0.2500  0.2317
 8426SOL    HW129640   2.422   8.173   1.358  1.2990  0.0960 -0.4284
 8426SOL    HW229641   2.494   8.047   1.402 -0.8311 -0.8838  0.3681
 8427SOL     OW29642   7.337   2.158   8.200 -0.1372 -0.0144  0.5606
 8427SOL    HW129643   7.341   2.110   8.283 -0.2445 -3.3404 -1.1986
 8427SOL    HW229644   7.277   2.108   8.146  1.1852  1.0711 -2.1082
 8428SOL     OW29645   9.684  10.584   8.326  0.3671 -0.2941 -0.1551
 8428SOL    HW129646   9.688  10.606   8.233 -1.9934  2.9552  0.3462
 8428SOL    HW229647   9.594  10.557   8.341  0.3301  0.5553  1.3915
 8429SOL     OW29648   4.667   8.960   1.657  0.7824 -0.6059  1.2031
 8429SOL    HW129649   4.719   8.937   1.580  2.0604  0.6924  1.6316
 8429SOL    HW229650   4.664   9.056   1.656 -3.1225 -0.5911  0.2666
 8430SOL     OW29651   1.781  10.774   0.592 -0.2097 -0.4542 -0.8762
 8430SOL    HW129652   1.852  10.822   0.635  0.8128 -0.6436 -2.2429
 8430SOL    HW229653   1.826  10.705   0.543 -1.6557 -3.2502  1.4508
 8431SOL     OW29654   2.297   9.486   8.141  0.7450 -0.2938 -0.1899
 8431SOL    HW129655   2.338   9.473   8.227 -0.0158  1.8295  0.5507
 8431SOL    HW229656   2.308   9.579   8.123 -1.2376 -0.2160 -1.2718
 8432SOL     OW29657   9.485   0.559   5.421  0.0621  0.0765  0.6085
 8432SOL    HW129658   9.426   0.609   5.477  0.6032 -1.2776  2.5022
 8432SOL    HW229659   9.431   0.489   5.386 -0.4039  1.2273 -1.0565
 8433SOL     OW29660   9.041   2.663   4.446  0.2146 -0.3982  0.1636
 8433SOL    HW129661   9.045   2.722   4.370 -0.3757 -0.4662  0.0713
 8433SOL    HW229662   8.993   2.587   4.413 -0.6074 -0.1579  0.7783
 8434SOL     OW29663   9.908   4.296   4.751  0.3041 -0.6803 -0.0459
 8434SOL    HW129664   9.844   4.284   4.821 -2.0175 -1.7664 -2.1686
 8434SOL    HW229665   9.967   4.221   4.760  0.1214 -0.7348  0.8130
 8435SOL     OW29666   2.143   2.062   5.881 -0.0506 -0.9850  0.3684
 8435SOL    HW129667   2.081   2.037   5.949 -0.6440  0.2018  0.2907
 8435SOL    HW229668   2.091   2.063   5.801 -0.7523  2.6893  0.6731
 8436SOL     OW29669   0.441  10.253   2.543 -0.4647  0.4085  0.3453
 8436SOL    HW129670   0.399  10.197   2.608 -1.4488 -0.4402 -0.9555
 8436SOL    HW229671   0.529  10.218   2.535 -0.1892  0.7963  1.5064
 8437SOL     OW29672   6.523   3.176   6.713 -0.3509 -0.0328 -0.1621
 8437SOL    HW129673   6.581   3.155   6.640  0.0454 -0.0699  0.1561
 8437SOL    HW229674   6.473   3.251   6.683  0.8049  0.8469  0.0409
 8438SOL     OW29675   0.733   5.113   3.001 -0.2523 -0.1494  0.7827
 8438SOL    HW129676   0.719   5.186   2.940 -0.6632 -1.2498 -0.5005
 8438SOL    HW229677   0.817   5.132   3.043  1.5740 -0.7238 -2.2952
 8439SOL     OW29678   7.147   1.860   4.083  0.5723  0.5690 -0.6736
 8439SOL    HW129679   7.100   1.882   4.002  0.7837 -0.1296 -0.9972
 8439SOL    HW229680   7.111   1.919   4.149 -0.5915  0.2122 -0.9642
 8440SOL     OW29681   6.670  10.516   7.186  0.3094  0.1583 -0.1181
 8440SOL    HW129682   6.760  10.523   7.153  0.2037 -0.6630 -0.6155
 8440SOL    HW229683   6.616  10.512   7.107 -0.0837 -0.2351  0.1690
 8441SOL     OW29684   7.618   6.684   4.028 -0.1039  0.1208 -0.0771
 8441SOL    HW129685   7.687   6.704   4.091 -0.8817  1.6646  0.3486
 8441SOL    HW229686   7.633   6.593   4.003  1.7430  0.2566  0.4084
 8442SOL     OW29687  10.491   5.353   7.203  0.1353  0.1762  0.1482
 8442SOL    HW129688  10.437   5.430   7.218  0.1796  0.1735  0.3186
 8442SOL    HW229689  10.452   5.284   7.257  0.2860  0.1642  0.2429
 8443SOL     OW29690   8.516   7.475   1.862  0.2127 -0.2067  0.8154
 8443SOL    HW129691   8.463   7.548   1.891  1.4091  0.8337  0.4805
 8443SOL    HW229692   8.606   7.499   1.887  0.8729 -0.6969 -0.9244
 8444SOL     OW29693   3.797   9.039   7.328  0.1832 -0.2081  0.4135
 8444SOL    HW129694   3.792   9.050   7.423 -3.0714 -1.9715  0.5974
 8444SOL    HW229695   3.814   9.127   7.295  0.2991  0.6478  2.5699
 8445SOL     OW29696   5.043   7.178   0.040 -0.1014  0.0388 -0.2578
 8445SOL    HW129697   4.950   7.156   0.051 -0.0862  0.0844 -0.0421
 8445SOL    HW229698   5.048   7.216  -0.047 -0.6703  2.1021  0.5429
 8446SOL     OW29699   5.471   8.222   1.617  0.1756 -0.0993  0.1370
 8446SOL    HW129700   5.538   8.263   1.563 -1.0932 -0.4986 -1.8193
 8446SOL    HW229701   5.515   8.206   1.701  1.8074  1.7691 -0.2812
 8447SOL     OW29702   3.208   5.517   7.362 -0.0827 -0.3853 -0.0283
 8447SOL    HW129703   3.122   5.477   7.354  0.0234 -0.5530 -0.3488
 8447SOL    HW229704   3.205   5.565   7.445 -1.1216  1.1801 -0.9246
 8448SOL     OW29705   6.504   8.377   7.715 -0.2477 -0.1667  0.3645
 8448SOL    HW129706   6.586   8.336   7.744 -0.4458 -1.0741 -0.2939
 8448SOL    HW229707   6.458   8.307   7.668  0.0373  1.1744 -2.1153
 8449SOL     OW29708   0.461   1.488   7.057  0.3918 -0.4428  0.2466
 8449SOL    HW129709   0.390   1.550   7.075  1.5605  0.4672  2.0577
 8449SOL    HW229710   0.422   1.402   7.070 -0.0967  0.0640  2.8098
 8450SOL     OW29711   2.279   3.032   9.872  0.4891 -0.2540  0.5516
 8450SOL    HW129712   2.326   3.091   9.931 -0.7921  2.7375 -1.1722
 8450SOL    HW229713   2.286   3.074   9.786 -3.3289 -0.7773 -0.1932
 8451SOL     OW29714   1.078   6.257   3.829  0.5397  0.0102 -0.0642
 8451SOL    HW129715   1.051   6.333   3.881 -1.5912  0.9905 -2.4180
 8451SOL    HW229716   1.149   6.291   3.773  0.4510 -0.0746 -0.2289
 8452SOL     OW29717   7.072   9.378   6.445 -0.0992  0.0273 -0.1948
 8452SOL    HW129718   7.109   9.453   6.492 -1.4089 -0.0153  0.9733
 8452SOL    HW229719   7.054   9.411   6.358 -1.2061  1.2765  0.4733
 8453SOL     OW29720   4.935   7.731   9.717 -0.8382 -0.2767 -0.3818
 8453SOL    HW129721   4.901   7.802   9.772  0.9045  2.1440 -2.1602
 8453SOL    HW229722   5.025   7.719   9.748 -0.5075 -0.3328 -1.3404
 8454SOL     OW29723   0.899   6.428   5.781  0.0607 -0.2352 -0.3403
 8454SOL    HW129724   0.850   6.457   5.858 -1.0432 -1.6228 -0.4762
 8454SOL    HW229725   0.975   6.382   5.817 -0.6628 -1.2324 -0.0484
 8455SOL     OW29726   1.671   0.196   2.379  0.9945  0.4178  0.0336
 8455SOL    HW129727   1.619   0.184   2.300  1.7428  0.1063 -0.4247
 8455SOL    HW229728   1.762   0.189   2.349  1.2801 -0.0664  0.9801
 8456SOL     OW29729   7.005   1.773   5.221 -0.1275 -0.3588 -0.4614
 8456SOL    HW129730   7.039   1.720   5.149  0.5066  1.0975 -1.2824
 8456SOL    HW229731   6.912   1.782   5.203  0.0449  0.0654 -1.1478
 8457SOL     OW29732  10.225   8.343   6.997  0.1303 -0.3374  0.1557
 8457SOL    HW129733  10.190   8.380   6.916 -0.6867 -2.1739 -0.3949
 8457SOL    HW229734  10.320   8.345   6.986  0.1992  2.3802  0.5829
 8458SOL     OW29735   1.393  10.670   0.759  0.0325  0.6688  0.2065
 8458SOL    HW129736   1.303  10.669   0.728 -0.6750 -3.1774  1.7679
 8458SOL    HW229737   1.399  10.748   0.814 -2.2051  1.2240 -0.2492
 8459SOL     OW29738  10.408   3.332   0.856  0.1378 -0.2440  0.0797
 8459SOL    HW129739  10.449   3.393   0.918 -0.8687 -0.2836  0.8146
 8459SOL    HW229740  10.337   3.292   0.906  0.6653 -1.9049 -0.4500
 8460SOL     OW29741   8.861   5.386   7.124  0.0664  0.0136  0.2177
 8460SOL    HW129742   8.916   5.327   7.175  0.1622 -0.4534 -0.4175
 8460SOL    HW229743   8.879   5.473   7.160 -1.6018 -0.5056  2.5949
 8461SOL     OW29744  10.600  10.820   0.328  0.0946  0.0932  0.1425
 8461SOL    HW129745  10.674  10.845   0.384 -0.1356 -1.5271  1.2340
 8461SOL    HW229746  10.618  10.729   0.303 -1.4838 -0.3186  0.3868
 8462SOL     OW29747   1.626   3.193   8.355  0.0966  0.4309  0.4179
 8462SOL    HW129748   1.592   3.110   8.389  1.8383 -1.4799 -2.1095
 8462SOL    HW229749   1.717   3.174   8.332  0.2124  2.6908 -1.3363
 8463SOL     OW29750   0.261   5.293   4.278  0.4779 -0.3463  0.3093
 8463SOL    HW129751   0.271   5.356   4.207  0.0077 -0.3925  0.1987
 8463SOL    HW229752   0.321   5.324   4.346 -1.8843  2.0331  1.5233
 8464SOL     OW29753   2.062   3.652   7.270  0.1496 -0.1345  0.0639
 8464SOL    HW129754   2.050   3.574   7.214  0.0318 -1.4525  1.8268
 8464SOL    HW229755   2.157   3.661   7.278  0.1633 -0.4486  0.2959
 8465SOL     OW29756   3.016   6.060   4.272  0.2072 -0.8274  0.2110
 8465SOL    HW129757   2.974   6.101   4.348  0.4406  0.5241 -0.3709
 8465SOL    HW229758   3.006   5.966   4.288  0.0858 -0.5804  1.8227
 8466SOL     OW29759   6.092   1.681   6.071  0.7710 -0.5839 -0.3018
 8466SOL    HW129760   5.997   1.687   6.066  0.8796  1.0060 -1.1915
 8466SOL    HW229761   6.116   1.735   6.146  1.0422  0.1890 -0.9305
 8467SOL     OW29762   9.083   0.582   0.873  0.4427  0.1364  0.3714
 8467SOL    HW129763   9.171   0.608   0.900  0.1180  0.1887  1.4366
 8467SOL    HW229764   9.033   0.664   0.873  0.2683  0.0322  0.2694
 8468SOL     OW29765   7.474   4.099   5.387  0.0876 -0.0058  0.1269
 8468SOL    HW129766   7.405   4.115   5.451 -0.8328  0.0782 -0.8492
 8468SOL    HW229767   7.495   4.006   5.397 -0.4723 -0.1315  0.1517
 8469SOL     OW29768   6.523   4.692   2.675  0.4792 -0.4011 -0.3192
 8469SOL    HW129769   6.495   4.675   2.765 -2.3077  1.2598 -0.7601
 8469SOL    HW229770   6.598   4.752   2.683  0.0466 -0.0094  0.8806
 8470SOL     OW29771   7.002  10.208   0.949 -0.2759  0.3214  0.0079
 8470SOL    HW129772   7.035  10.221   0.860 -1.8424  0.3439 -0.6076
 8470SOL    HW229773   7.009  10.294   0.990  0.4215  0.3198 -0.0943
 8471SOL     OW29774   2.188   5.475   2.109  0.0181 -0.3002  0.1425
 8471SOL    HW129775   2.270   5.429   2.124 -0.1808 -1.0066 -0.8594
 8471SOL    HW229776   2.196   5.555   2.161  1.0113 -0.7171  0.6664
 8472SOL     OW29777   2.465   2.905   7.812 -0.6790  0.5964  0.4248
 8472SOL    HW129778   2.380   2.921   7.772 -0.1999  0.8398 -0.5480
 8472SOL    HW229779   2.450   2.834   7.874 -1.0296 -1.6028 -1.9955
 8473SOL     OW29780   4.983   6.196  11.075  0.4625 -0.2621  0.1032
 8473SOL    HW129781   4.905   6.220  11.025  0.2141  1.1033  1.0842
 8473SOL    HW229782   4.952   6.185  11.165  1.4541  0.9313  0.6348
 8474SOL     OW29783  11.036   9.599   3.394  0.2408  0.4756 -0.0235
 8474SOL    HW129784  10.973   9.542   3.439 -0.7460  1.2674 -0.3585
 8474SOL    HW229785  11.001   9.606   3.305  0.0623  1.9968  0.1475
 8475SOL     OW29786   0.435   7.545   9.902 -0.1102  0.2078  0.2736
 8475SOL    HW129787   0.358   7.528   9.848  1.4132 -0.6581 -1.7613
 8475SOL    HW229788   0.470   7.458   9.923  2.1971  0.5125 -1.8195
 8476SOL     OW29789   4.220   0.613   7.369 -0.1086  0.3019  0.3066
 8476SOL    HW129790   4.239   0.607   7.276 -1.7977 -0.9386 -0.0152
 8476SOL    HW229791   4.171   0.695   7.378 -0.2594  0.2414  0.0440
 8477SOL     OW29792  10.602   0.336   3.295 -0.0595  0.1629  0.1065
 8477SOL    HW129793  10.539   0.263   3.303  0.1445 -0.2223 -1.3938
 8477SOL    HW229794  10.636   0.348   3.383 -0.4281 -1.2840  0.4818
 8478SOL     OW29795   9.858   7.786   8.003  0.0593  0.1616 -0.5285
 8478SOL    HW129796   9.948   7.755   7.993  1.2033  2.7873  0.7407
 8478SOL    HW229797   9.815   7.718   8.054  0.9476 -1.6567 -2.0579
 8479SOL     OW29798   1.859   2.524   5.059 -0.0339  0.7806  0.7016
 8479SOL    HW129799   1.878   2.561   4.973  2.4326 -0.0239  0.8189
 8479SOL    HW229800   1.944   2.493   5.091 -1.3002 -1.3075  2.3097
 8480SOL     OW29801   4.213   9.444   5.349  0.3090 -0.2836  0.2731
 8480SOL    HW129802   4.159   9.422   5.425 -1.7339 -1.6835 -1.4502
 8480SOL    HW229803   4.280   9.502   5.383 -0.7963 -0.4797  3.0432
 8481SOL     OW29804   2.918  10.384  10.456  0.5948  0.2287 -0.7404
 8481SOL    HW129805   2.934  10.298  10.415  0.5612 -0.5379  0.7925
 8481SOL    HW229806   2.840  10.371  10.509  0.9250  1.0441 -0.0397
 8482SOL     OW29807   9.482   6.152   7.394 -0.4414  0.0649 -0.1131
 8482SOL    HW129808   9.567   6.147   7.437  0.6268 -1.9959 -2.2510
 8482SOL    HW229809   9.480   6.240   7.356  1.0601 -0.0855 -0.5996
 8483SOL     OW29810  10.503   6.227  10.520 -0.1309 -0.3413  0.5650
 8483SOL    HW129811  10.477   6.137  10.498 -1.2596  0.0241  0.3566
 8483SOL    HW229812  10.421   6.273  10.532  0.4403  0.7361  0.4150
 8484SOL     OW29813   6.467   4.379   7.718 -0.4114 -0.4615  0.1501
 8484SOL    HW129814   6.498   4.463   7.683 -1.4316  0.2455  0.9043
 8484SOL    HW229815   6.530   4.315   7.684 -0.1549  0.4701 -1.2168
 8485SOL     OW29816  10.892   5.718  10.342  0.1363 -0.6758 -0.4501
 8485SOL    HW129817  10.825   5.650  10.333 -0.0545 -0.9534  2.1250
 8485SOL    HW229818  10.856   5.779  10.407  2.6183 -1.2888  1.7146
 8486SOL     OW29819   8.963   3.075   6.708 -0.1065 -0.1387 -0.7339
 8486SOL    HW129820   8.998   3.065   6.619  0.1801 -0.3571 -0.5984
 8486SOL    HW229821   9.039   3.100   6.761 -0.7079  2.5131 -0.9784
 8487SOL     OW29822   8.865   6.588   4.217  0.1584  0.8252  0.6945
 8487SOL    HW129823   8.862   6.668   4.165  1.2545  0.5846  0.2363
 8487SOL    HW229824   8.958   6.575   4.235 -0.1549  0.6310  2.3042
 8488SOL     OW29825   4.947   7.317   5.529  0.7766  0.1022  0.3891
 8488SOL    HW129826   4.977   7.264   5.602 -0.4760  1.9909  2.4228
 8488SOL    HW229827   4.950   7.407   5.563 -1.4320  0.8913 -1.3090
 8489SOL     OW29828   4.003   4.174   5.811 -0.1296  0.0777 -0.1605
 8489SOL    HW129829   3.968   4.164   5.723 -4.5469 -1.9764  1.5184
 8489SOL    HW229830   3.983   4.264   5.836  0.9209  0.5902 -1.1090
 8490SOL     OW29831   0.986  10.278   6.509 -0.2531 -0.3377 -0.0920
 8490SOL    HW129832   0.993  10.209   6.574 -0.0028 -0.8370 -0.6420
 8490SOL    HW229833   0.919  10.248   6.448 -0.5439  0.1623 -0.0242
 8491SOL     OW29834   7.831   1.846   5.878 -0.0826  0.5057  0.4333
 8491SOL    HW129835   7.807   1.928   5.836  2.2119  0.5136 -1.0415
 8491SOL    HW229836   7.899   1.869   5.941 -2.2373  0.2245  3.1018
 8492SOL     OW29837  10.024   0.127   5.466 -0.7093 -0.0101  0.0897
 8492SOL    HW129838   9.965   0.052   5.455  1.1638 -1.4234 -0.8548
 8492SOL    HW229839   9.992   0.192   5.402 -0.4213 -1.3232 -1.4675
 8493SOL     OW29840   7.548  10.535   6.608  0.0057 -0.0260  0.3060
 8493SOL    HW129841   7.455  10.528   6.588 -0.2067  0.1084  1.2128
 8493SOL    HW229842   7.551  10.553   6.702  0.9286  0.4938  0.1863
 8494SOL     OW29843   6.711  10.484   1.570 -0.3365  0.3776  0.0662
 8494SOL    HW129844   6.783  10.474   1.507 -0.8726 -0.0130 -0.5052
 8494SOL    HW229845   6.750  10.466   1.655  0.0296 -0.8230 -0.3413
 8495SOL     OW29846   0.967   4.994  10.124 -0.2827 -0.2616  0.3763
 8495SOL    HW129847   1.015   5.071  10.093  1.8789 -2.4435 -2.2302
 8495SOL    HW229848   0.885   5.030  10.159 -1.0362  3.0970 -3.8900
 8496SOL     OW29849   7.557   2.682   9.445 -0.0738 -0.2419  0.0938
 8496SOL    HW129850   7.631   2.622   9.453  0.2004  0.1200  0.2446
 8496SOL    HW229851   7.596   2.767   9.425 -0.4357 -0.0154  0.3360
 8497SOL     OW29852   7.996   7.187  10.436 -0.0698 -0.1684 -0.3848
 8497SOL    HW129853   8.066   7.130  10.404 -1.0467 -1.2474 -0.7053
 8497SOL    HW229854   7.916   7.134  10.426 -0.8230  0.7096  0.7570
 8498SOL     OW29855   5.551   6.716   1.875  0.0784  0.2841 -0.7473
 8498SOL    HW129856   5.608   6.673   1.811  0.8744 -0.7313  0.5834
 8498SOL    HW229857   5.599   6.710   1.957 -0.7899  1.8035 -0.0826
 8499SOL     OW29858   6.172   5.419   9.491 -0.7004 -0.3926  0.0477
 8499SOL    HW129859   6.078   5.430   9.500 -0.5757 -0.6689  1.9078
 8499SOL    HW229860   6.197   5.360   9.561  1.0559  0.8192  0.5171
 8500SOL     OW29861  10.551   0.987   9.724  0.3204  0.2634  0.0147
 8500SOL    HW129862  10.458   0.982   9.705  0.7786 -0.2642 -2.3587
 8500SOL    HW229863  10.594   0.959   9.643  2.5398 -0.3288  1.3123
 8501SOL     OW29864  10.885   6.775   4.882 -0.4418 -0.1961 -0.3425
 8501SOL    HW129865  10.863   6.723   4.960 -0.7994 -1.0152 -0.9761
 8501SOL    HW229866  10.801   6.814   4.856 -0.3642 -0.1071 -0.4600
 8502SOL     OW29867  11.008   2.860   4.558  0.3507  0.3297  0.2349
 8502SOL    HW129868  10.994   2.837   4.650  0.9109 -0.9332  0.0190
 8502SOL    HW229869  10.955   2.939   4.546  0.3190  0.5621  1.6502
 8503SOL     OW29870   7.912   0.507   8.208  0.3231 -0.4040 -0.0250
 8503SOL    HW129871   7.963   0.567   8.152  1.6656 -1.6207 -0.1646
 8503SOL    HW229872   7.902   0.428   8.155 -1.8136 -0.2082 -0.0118
 8504SOL     OW29873  11.101   4.124   0.652 -0.2271  0.5876 -0.6083
 8504SOL    HW129874  11.044   4.128   0.729 -2.1142 -1.4237 -1.8024
 8504SOL    HW229875  11.089   4.209   0.609 -3.4342 -0.1734 -1.4858
 8505SOL     OW29876   0.655   6.331   2.240  0.3143  0.3716  0.4668
 8505SOL    HW129877   0.612   6.365   2.319 -0.4576 -3.1141  1.7020
 8505SOL    HW229878   0.585   6.320   2.177  0.5781  1.0185  0.0426
 8506SOL     OW29879   5.219   6.247   8.701 -0.2683  0.0913  0.8209
 8506SOL    HW129880   5.212   6.199   8.619  1.1171  1.1107  0.0715
 8506SOL    HW229881   5.162   6.199   8.761 -0.8875 -0.9965 -0.5660
 8507SOL     OW29882   6.363   0.285   4.210  0.0427 -0.2037 -0.2348
 8507SOL    HW129883   6.376   0.329   4.294 -0.7626 -0.7836  0.1987
 8507SOL    HW229884   6.331   0.198   4.233  0.9229 -0.7850 -1.1081
 8508SOL     OW29885   0.370   5.534   3.281 -0.5169 -0.1205  0.1517
 8508SOL    HW129886   0.414   5.476   3.342  0.6972  1.5346  0.9448
 8508SOL    HW229887   0.438   5.557   3.217 -1.2592 -0.3714 -0.7448
 8509SOL     OW29888   1.922   5.973   4.892  0.7533  0.4397  0.1891
 8509SOL    HW129889   1.957   5.885   4.908  1.6246  0.7337 -0.0512
 8509SOL    HW229890   1.829   5.958   4.874  1.1300 -0.5729 -1.0805
 8510SOL     OW29891   8.740   8.202   9.016 -0.0756 -0.6352  0.3164
 8510SOL    HW129892   8.773   8.183   8.929 -1.2239  0.9588 -0.5229
 8510SOL    HW229893   8.818   8.227   9.067  0.5842 -1.4608 -0.2703
 8511SOL     OW29894   0.690   4.081   8.156 -0.4847  0.0755 -0.6335
 8511SOL    HW129895   0.784   4.086   8.145 -0.3731 -2.2228 -1.2241
 8511SOL    HW229896   0.669   4.152   8.217  1.7296  0.0938  0.1948
 8512SOL     OW29897   8.446   3.147   5.269  0.0362 -0.4150 -0.2981
 8512SOL    HW129898   8.483   3.210   5.330 -0.4035  1.2700 -1.7046
 8512SOL    HW229899   8.380   3.196   5.221  0.6947 -1.5345 -2.4532
 8513SOL     OW29900   9.075   2.972   3.964 -1.1081 -0.0732  0.2307
 8513SOL    HW129901   9.116   3.048   4.004  0.0712 -1.2682  1.4062
 8513SOL    HW229902   9.061   2.998   3.873  4.6798 -0.2408 -1.1538
 8514SOL     OW29903   8.037   8.774   5.017  0.7446  0.7142 -0.1823
 8514SOL    HW129904   8.117   8.793   4.968 -0.0127 -1.6989 -2.5730
 8514SOL    HW229905   7.968   8.772   4.950 -0.9872  0.7964  1.5275
 8515SOL     OW29906   9.024   8.628   8.680 -0.7487 -0.4090  0.2425
 8515SOL    HW129907   9.113   8.661   8.692 -1.1150  1.4518 -1.5162
 8515SOL    HW229908   9.019   8.550   8.736  2.6172 -1.8194 -1.1503
 8516SOL     OW29909   6.306   4.623   3.087 -0.6732 -0.2876 -0.2693
 8516SOL    HW129910   6.274   4.635   2.998 -0.6183 -0.2301 -0.2822
 8516SOL    HW229911   6.269   4.697   3.136  1.2308  1.1044 -0.7736
 8517SOL     OW29912   2.253   2.298   2.849  0.1337  0.3484 -0.2257
 8517SOL    HW129913   2.160   2.285   2.865 -0.1497 -0.2989 -2.1835
 8517SOL    HW229914   2.283   2.350   2.924 -2.0431  1.6090 -0.1415
 8518SOL     OW29915   9.939   4.864   3.098  0.4081 -0.3966  0.3652
 8518SOL    HW129916   9.871   4.910   3.048 -0.5256 -1.5799  0.4880
 8518SOL    HW229917  10.008   4.846   3.035  0.7307  1.0298  0.2875
 8519SOL     OW29918   5.189   8.580   4.956  0.0527  0.1675 -0.7760
 8519SOL    HW129919   5.263   8.539   5.000  0.3632 -0.8161 -2.1540
 8519SOL    HW229920   5.114   8.526   4.980 -0.3632  1.4244  0.9905
 8520SOL     OW29921  10.004   8.301  11.083  0.3734  0.3934 -0.3578
 8520SOL    HW129922  10.048   8.382  11.106  0.5633 -0.2668  1.8372
 8520SOL    HW229923  10.041   8.277  10.998  3.9285  0.1642  1.0830
 8521SOL     OW29924   3.592   2.431   4.668 -0.0763 -0.0450  0.4674
 8521SOL    HW129925   3.529   2.444   4.738  0.7745  0.7354  1.1235
 8521SOL    HW229926   3.579   2.340   4.640 -2.1872  0.3963 -0.1614
 8522SOL     OW29927   6.881   3.036   4.053 -0.1750  1.0818 -0.3195
 8522SOL    HW129928   6.940   3.018   3.980  1.3207  1.7380  0.6896
 8522SOL    HW229929   6.807   3.082   4.013 -0.0003  0.3066 -1.5954
 8523SOL     OW29930   3.930   2.925   1.390 -0.2412 -0.5150 -0.0604
 8523SOL    HW129931   3.835   2.923   1.398 -0.2895  0.1263 -0.4419
 8523SOL    HW229932   3.956   3.012   1.421  0.2552 -0.7865  0.3240
 8524SOL     OW29933   4.368   7.773   8.869 -0.3202  0.3383  0.1990
 8524SOL    HW129934   4.300   7.717   8.830 -1.4542  2.4907 -1.1699
 8524SOL    HW229935   4.318   7.837   8.921  0.4983  2.4068 -1.4057
 8525SOL     OW29936   8.043   7.944   8.714  0.2545  0.0718  0.3269
 8525SOL    HW129937   8.003   7.873   8.664 -1.6900  1.5545 -0.3827
 8525SOL    HW229938   8.009   7.934   8.803 -0.7839  0.5922  0.0135
 8526SOL     OW29939   8.253   3.488   5.332  0.0828  0.1225  0.1626
 8526SOL    HW129940   8.216   3.435   5.402 -1.9707  0.0528 -0.9090
 8526SOL    HW229941   8.282   3.569   5.375 -0.6313 -0.1392  1.1700
 8527SOL     OW29942   8.906   1.456   9.384  0.1825 -0.2943 -0.5511
 8527SOL    HW129943   8.871   1.442   9.471 -0.6294 -0.0378 -0.8276
 8527SOL    HW229944   9.001   1.448   9.394  0.0315 -1.2724  0.1587
 8528SOL     OW29945   0.363   3.034   3.957  0.5963 -0.1960  0.1057
 8528SOL    HW129946   0.454   3.008   3.942  0.2409 -1.4328  0.0038
 8528SOL    HW229947   0.345   3.006   4.047  0.3291  0.0891  0.1418
 8529SOL     OW29948   8.073   7.147   7.396 -0.1773  0.0190  0.2422
 8529SOL    HW129949   8.131   7.222   7.409  0.2725 -0.1976 -0.4555
 8529SOL    HW229950   8.028   7.138   7.479  0.1721  0.7188  0.5224
 8530SOL     OW29951   3.131   6.957   1.034 -0.4905  0.0935  0.1419
 8530SOL    HW129952   3.093   6.915   0.957  1.8726 -0.3573 -0.8781
 8530SOL    HW229953   3.180   6.888   1.078 -1.8973  0.3136  2.1894
 8531SOL     OW29954   3.548  10.140   9.050 -0.1802  0.3966 -0.1894
 8531SOL    HW129955   3.457  10.140   9.018 -0.2199 -2.5920 -0.3020
 8531SOL    HW229956   3.549  10.074   9.119  1.8535  0.6814  0.1012
 8532SOL     OW29957  10.483   8.635   9.992  0.2997 -0.4305 -0.2261
 8532SOL    HW129958  10.566   8.670  10.023  0.9135 -2.3575  0.4548
 8532SOL    HW229959  10.502   8.600   9.905  0.3198 -1.2109  0.0812
 8533SOL     OW29960   4.424   5.954   5.592  0.6661 -0.5149 -0.1725
 8533SOL    HW129961   4.458   5.974   5.679 -3.1558  0.7726  1.2484
 8533SOL    HW229962   4.394   6.038   5.558  1.1088 -1.1664 -2.3360
 8534SOL     OW29963   1.227   6.889   9.539  0.2015 -0.1163  0.0606
 8534SOL    HW129964   1.153   6.936   9.578 -0.6284 -1.1037 -0.2900
 8534SOL    HW229965   1.257   6.946   9.469 -0.2527  0.2772  0.1781
 8535SOL     OW29966   0.565   1.742   7.364 -0.6184 -0.3531  0.2354
 8535SOL    HW129967   0.549   1.728   7.271 -0.0851 -2.2687  0.4037
 8535SOL    HW229968   0.498   1.805   7.390 -2.1285 -1.3731 -0.9915
 8536SOL     OW29969  10.613  10.770   4.382 -0.3553  0.8169  0.1327
 8536SOL    HW129970  10.553  10.733   4.447 -0.1241 -0.8621 -0.5622
 8536SOL    HW229971  10.558  10.828   4.330 -0.7590  1.4038  1.1791
 8537SOL     OW29972   8.893   3.026   0.220  0.3972 -0.2798 -0.2045
 8537SOL    HW129973   8.967   3.086   0.211  1.5364 -1.5439  0.3358
 8537SOL    HW229974   8.926   2.956   0.277 -0.6582 -1.7595 -1.3355
 8538SOL     OW29975   4.043   4.441   1.815  0.2770 -0.7762 -0.7066
 8538SOL    HW129976   4.063   4.423   1.907  0.6703  1.1432 -0.3892
 8538SOL    HW229977   3.947   4.446   1.811  0.2527 -1.0145 -0.4435
 8539SOL     OW29978   6.621  10.939   9.037  0.3604  0.2251 -0.5418
 8539SOL    HW129979   6.709  10.931   9.002  0.6309 -1.7869  0.4782
 8539SOL    HW229980   6.626  10.899   9.124 -1.3554  0.8910 -0.0995
 8540SOL     OW29981   9.342   0.515   2.208 -0.1686 -0.0316 -0.4224
 8540SOL    HW129982   9.421   0.510   2.155 -0.3446  2.1285 -0.9646
 8540SOL    HW229983   9.374   0.526   2.298  0.1452  0.0616 -0.5452
 8541SOL     OW29984   8.049   8.917   2.731  0.1890  0.0692 -0.6638
 8541SOL    HW129985   8.079   8.878   2.814  0.2686  0.2463 -0.6082
 8541SOL    HW229986   7.956   8.897   2.727  0.1937  0.0241 -0.5525
 8542SOL     OW29987   1.780   1.797   4.870  0.2739  0.1360  0.1900
 8542SOL    HW129988   1.730   1.765   4.946 -0.0319  0.7294  0.2470
 8542SOL    HW229989   1.763   1.732   4.802  0.4839 -0.3598  0.6009
 8543SOL     OW29990   0.109   8.946   3.138  0.4996  0.1142 -0.0758
 8543SOL    HW129991   0.155   9.026   3.114  0.3841  0.3544  0.4813
 8543SOL    HW229992   0.171   8.899   3.194 -0.3045  0.9710  1.6308
 8544SOL     OW29993   3.071   1.602   6.272 -0.2680 -0.0138 -0.2618
 8544SOL    HW129994   2.992   1.651   6.295  0.5188  0.2129  2.2301
 8544SOL    HW229995   3.046   1.510   6.283 -0.3802  0.0231 -0.2040
 8545SOL     OW29996   1.840   6.122   4.479  0.3431 -0.4280 -0.2705
 8545SOL    HW129997   1.837   6.189   4.410  0.5176 -1.0111 -0.8460
 8545SOL    HW229998   1.836   6.039   4.432 -0.5901 -0.8250  0.4769
 8546SOL     OW29999   9.794   8.052   4.352 -0.2574 -0.3571 -0.3993
 8546SOL    HW130000   9.754   8.108   4.286  1.7005  0.8397 -0.6648
 8546SOL    HW230001   9.724   8.037   4.416 -1.3966  0.8061 -1.3035
 8547SOL     OW30002   8.142   2.029   1.924  0.7254  0.3447  0.3304
 8547SOL    HW130003   8.231   2.010   1.893  0.8609  0.1366  0.8489
 8547SOL    HW230004   8.086   1.976   1.868  0.9921 -0.2719  0.6404
 8548SOL     OW30005   1.860   0.676   8.047  0.0721  0.2377 -0.2820
 8548SOL    HW130006   1.800   0.632   8.107  1.2786  1.0943  1.6801
 8548SOL    HW230007   1.893   0.607   7.990 -0.2774 -0.8660  0.8117
 8549SOL     OW30008   5.567   3.929   3.252  0.7232 -0.4345 -0.0616
 8549SOL    HW130009   5.597   3.951   3.164 -0.6198 -2.0229 -0.9524
 8549SOL    HW230010   5.554   3.835   3.251 -0.3198 -0.3460  1.5238
 8550SOL     OW30011   1.494   2.187   8.540 -0.1523 -0.4703  0.5146
 8550SOL    HW130012   1.496   2.214   8.449 -0.0220  1.1928  0.9767
 8550SOL    HW230013   1.408   2.217   8.572 -0.3659 -1.3938  0.8453
 8551SOL     OW30014   6.645   8.876   7.319 -1.0760 -0.9763 -0.6221
 8551SOL    HW130015   6.735   8.849   7.332 -0.1734  2.1672  0.6347
 8551SOL    HW230016   6.617   8.832   7.239  2.1427 -0.7695 -1.9756
 8552SOL     OW30017   3.149   1.878   8.751 -0.1896  0.0401 -0.1040
 8552SOL    HW130018   3.238   1.848   8.732 -0.4211 -0.4240 -0.4983
 8552SOL    HW230019   3.122   1.924   8.671 -0.3386  0.0864 -0.0269
 8553SOL     OW30020   7.570   0.045   7.115 -0.0084 -0.1424  0.0045
 8553SOL    HW130021   7.619   0.118   7.078  0.1881  0.8103  1.9893
 8553SOL    HW230022   7.586  -0.028   7.055  2.9316  0.4271 -0.0466
 8554SOL     OW30023  10.505   4.662   0.650  0.5314 -0.2733 -0.2879
 8554SOL    HW130024  10.550   4.744   0.671  1.1067 -0.2135 -1.6723
 8554SOL    HW230025  10.508   4.656   0.555 -0.7300 -1.2256 -0.2988
 8555SOL     OW30026  10.657   9.497   0.161  0.4521  0.2677  0.4954
 8555SOL    HW130027  10.647   9.506   0.256 -1.5418  1.1016  0.2536
 8555SOL    HW230028  10.623   9.410   0.141  0.6445  0.1881  0.5135
 8556SOL     OW30029   8.472   4.971   8.286 -0.1620 -0.2616 -0.4642
 8556SOL    HW130030   8.491   4.969   8.192 -1.5906  0.9386 -0.8145
 8556SOL    HW230031   8.506   4.888   8.319  0.8330 -0.4904 -1.9332
 8557SOL     OW30032   9.742   3.006   9.106  0.3370  0.2744  0.0387
 8557SOL    HW130033   9.831   3.040   9.116 -0.5237  2.5922  0.3130
 8557SOL    HW230034   9.697   3.034   9.185 -0.6037 -1.0785  0.0110
 8558SOL     OW30035   9.877   3.079  10.129  0.4889  0.7145 -0.4420
 8558SOL    HW130036   9.891   3.173  10.119  1.0528  0.5801 -0.9455
 8558SOL    HW230037   9.818   3.056  10.057 -1.8381  1.1374  1.2112
 8559SOL     OW30038   2.504   6.597   2.687 -0.5407  0.5567  0.0102
 8559SOL    HW130039   2.581   6.555   2.647 -0.3446 -0.5576  1.4533
 8559SOL    HW230040   2.448   6.620   2.613  0.8857  0.8108 -1.0354
 8560SOL     OW30041   6.331   8.638   0.361  1.0313  0.0782  0.1783
 8560SOL    HW130042   6.342   8.576   0.288 -1.1977  0.7047 -0.7600
 8560SOL    HW230043   6.291   8.715   0.321 -0.2169  0.4579  2.0620
 8561SOL     OW30044   6.819   0.958   7.008  0.1176  0.7603  0.2804
 8561SOL    HW130045   6.774   1.007   6.939 -0.0977  0.1657 -0.0137
 8561SOL    HW230046   6.882   0.903   6.961 -1.2916 -1.0269  0.3467
 8562SOL     OW30047   3.199   8.709   4.853  0.1200 -0.6673  0.6158
 8562SOL    HW130048   3.283   8.686   4.814  0.3948  1.8207 -0.4924
 8562SOL    HW230049   3.144   8.632   4.840  1.7008 -1.6792 -0.3055
 8563SOL     OW30050   9.698   1.102   0.963  0.4327  0.7153  0.1245
 8563SOL    HW130051   9.766   1.038   0.943 -2.4061 -2.3028 -0.7363
 8563SOL    HW230052   9.717   1.130   1.053  2.9177  0.2736 -0.1919
 8564SOL     OW30053   1.399   2.563   0.716 -0.7426 -0.3307  0.9906
 8564SOL    HW130054   1.476   2.612   0.746 -0.4844 -1.4150  2.1752
 8564SOL    HW230055   1.326   2.624   0.729 -0.2639  0.2088  1.1954
 8565SOL     OW30056   7.547   7.327   4.408 -0.4034 -0.6434  0.4126
 8565SOL    HW130057   7.500   7.287   4.335 -0.3580 -0.8009  0.4706
 8565SOL    HW230058   7.482   7.330   4.479 -0.9153  0.8556 -0.0744
 8566SOL     OW30059   8.725   3.225   6.547  0.1073  0.1869 -0.4142
 8566SOL    HW130060   8.637   3.260   6.538  0.3739  1.7095  1.8964
 8566SOL    HW230061   8.782   3.294   6.512  0.4438 -0.4779 -1.2209
 8567SOL     OW30062   1.504   4.964  10.969  0.1185  0.5091 -0.4268
 8567SOL    HW130063   1.571   4.957  10.901  1.3272 -0.0471  0.7987
 8567SOL    HW230064   1.447   4.888  10.953  1.0342 -0.2543 -0.1583
 8568SOL     OW30065   0.204  10.148   9.375 -0.8375  0.6992 -0.1908
 8568SOL    HW130066   0.252  10.231   9.378  2.7207 -1.1820 -0.3756
 8568SOL    HW230067   0.247  10.098   9.306 -3.6660 -0.9334 -0.9182
 8569SOL     OW30068   7.888   2.993   9.290 -0.1473 -0.0752  0.0049
 8569SOL    HW130069   7.911   3.046   9.366  0.4564 -1.6602  0.9718
 8569SOL    HW230070   7.928   2.908   9.307 -1.6356 -1.0641 -1.1699
 8570SOL     OW30071   6.041   3.848   1.779  0.6100  0.0721 -0.3486
 8570SOL    HW130072   6.008   3.921   1.727  0.1789  0.6223  0.6786
 8570SOL    HW230073   5.976   3.836   1.848  2.1862  0.7403  1.3282
 8571SOL     OW30074  10.482   9.937   6.749  0.0152 -0.8611  0.3726
 8571SOL    HW130075  10.440   9.870   6.802  0.0463 -0.6542  0.6623
 8571SOL    HW230076  10.576   9.921   6.760  0.0834  0.2997  1.8779
 8572SOL     OW30077   5.942   5.242   4.931  0.0540 -0.0123  0.2400
 8572SOL    HW130078   5.882   5.317   4.928  0.6793  0.4610 -0.8333
 8572SOL    HW230079   5.893   5.175   4.979 -1.8293 -0.0418 -1.5580
 8573SOL     OW30080   8.816  10.287   9.686 -0.3718 -0.6056  0.0901
 8573SOL    HW130081   8.897  10.278   9.637  0.2956 -0.4176  1.1333
 8573SOL    HW230082   8.765  10.352   9.637  0.5620  0.0743  0.0053
 8574SOL     OW30083   5.519  10.910   9.089 -0.2278  0.1640 -0.0416
 8574SOL    HW130084   5.575  10.949   9.156 -2.0533  0.3010  1.4900
 8574SOL    HW230085   5.508  10.819   9.116 -0.4808  0.0461 -0.5174
 8575SOL     OW30086   7.066   9.161   8.097 -0.3089  0.1200  0.6874
 8575SOL    HW130087   6.973   9.174   8.079 -0.5397 -0.2474  1.5467
 8575SOL    HW230088   7.111   9.219   8.036 -0.9947 -1.4289 -1.4119
 8576SOL     OW30089   9.321   5.003   8.057  0.3334 -0.0731 -0.2200
 8576SOL    HW130090   9.311   4.919   8.103 -0.4155  0.6154  0.9052
 8576SOL    HW230091   9.364   5.060   8.121 -1.2390  1.0710 -0.1445
 8577SOL     OW30092  10.085   5.299   7.070 -0.7850  0.8311 -0.1994
 8577SOL    HW130093  10.113   5.375   7.122  0.6749 -0.7356  1.4533
 8577SOL    HW230094  10.056   5.235   7.135  2.2672 -1.6796 -1.0233
 8578SOL     OW30095   7.746   3.515   7.899 -0.2339  0.4462  0.2624
 8578SOL    HW130096   7.669   3.520   7.841 -0.5728 -0.3344  0.6251
 8578SOL    HW230097   7.814   3.477   7.844 -1.3291 -3.0125  1.0492
 8579SOL     OW30098   3.360   5.472   3.891 -0.0030 -0.6226  0.3783
 8579SOL    HW130099   3.296   5.539   3.868 -0.4637 -1.0093  0.5174
 8579SOL    HW230100   3.384   5.492   3.982  0.7631  0.0667  0.0269
 8580SOL     OW30101   4.322  10.634   0.243 -0.1781 -0.6438 -0.0828
 8580SOL    HW130102   4.373  10.709   0.213  0.7909 -1.5682 -0.8162
 8580SOL    HW230103   4.353  10.619   0.332 -0.9459  0.2879  0.3663
 8581SOL     OW30104  10.229   0.880   3.844  0.2337 -0.0062 -0.1253
 8581SOL    HW130105  10.192   0.859   3.758  0.7035  1.3935 -0.6970
 8581SOL    HW230106  10.288   0.954   3.828  1.9816 -1.0637  1.0532
 8582SOL     OW30107   8.906   6.738  10.950  0.4370 -0.3952  0.5103
 8582SOL    HW130108   8.953   6.746  10.867 -0.4538 -1.0540 -0.0727
 8582SOL    HW230109   8.881   6.646  10.955 -2.2078  0.2098 -0.0063
 8583SOL     OW30110   3.653  10.103   6.960 -0.1968  0.0631  0.2803
 8583SOL    HW130111   3.658  10.195   6.985 -1.0999  0.3978 -0.7082
 8583SOL    HW230112   3.593  10.102   6.885 -0.0661 -1.3067  0.1792
 8584SOL     OW30113  10.702  10.377   1.965  0.4104  0.5926  0.0239
 8584SOL    HW130114  10.659  10.292   1.973 -0.2405  1.0935  2.8275
 8584SOL    HW230115  10.631  10.440   1.969  1.0731  1.3233  0.7030
 8585SOL     OW30116   4.065   3.605   4.447  0.5823  0.6383 -0.3103
 8585SOL    HW130117   4.145   3.648   4.478 -0.6477  2.9855 -0.2284
 8585SOL    HW230118   4.046   3.646   4.363  0.4969 -1.3255 -1.3195
 8586SOL     OW30119  10.648   7.154  10.636 -0.6151 -0.8126 -0.5009
 8586SOL    HW130120  10.612   7.126  10.720 -3.1359 -1.4122 -1.6977
 8586SOL    HW230121  10.743   7.144  10.646 -0.8865 -1.3885  2.0614
 8587SOL     OW30122   7.145   4.479   3.100 -0.7794  0.7542 -0.2139
 8587SOL    HW130123   7.210   4.506   3.165  2.6798 -0.9771 -2.6430
 8587SOL    HW230124   7.096   4.559   3.081 -0.0393  1.9391  2.4625
 8588SOL     OW30125   1.673   1.659   8.026  0.4070 -0.1316  0.3169
 8588SOL    HW130126   1.650   1.585   7.971  0.3044 -0.3741  0.6854
 8588SOL    HW230127   1.712   1.723   7.966  0.0731 -0.2956 -0.0738
 8589SOL     OW30128  10.225   2.084   7.182 -0.1376  0.8919  0.8763
 8589SOL    HW130129  10.221   1.991   7.206 -0.6032  1.0719  1.5338
 8589SOL    HW230130  10.302   2.117   7.228  0.1370  0.7938  0.4918
 8590SOL     OW30131   2.049   7.377   4.103 -0.1602  0.3171 -0.0161
 8590SOL    HW130132   2.063   7.294   4.059  0.5156 -0.8433  2.2066
 8590SOL    HW230133   2.137   7.411   4.119 -0.4273  1.4138 -0.7868
 8591SOL     OW30134   1.033   0.971   3.331 -0.0529 -0.5194  0.6220
 8591SOL    HW130135   1.124   0.986   3.355  0.2909  0.1191 -0.9528
 8591SOL    HW230136   0.983   0.995   3.410  1.1775 -2.3147  2.0162
 8592SOL     OW30137  10.075   5.567   4.536 -0.0412 -0.6109  0.0471
 8592SOL    HW130138   9.984   5.597   4.536  0.1979  0.1267 -0.2016
 8592SOL    HW230139  10.068   5.471   4.535 -0.8226 -0.5745 -1.6296
 8593SOL     OW30140   8.021   9.061   0.853 -0.4797 -0.0997 -0.4420
 8593SOL    HW130141   7.983   9.143   0.822 -2.5934 -1.1003 -0.6745
 8593SOL    HW230142   8.111   9.062   0.820  0.0244  2.7279  0.7406
 8594SOL     OW30143   5.303   8.144   2.621 -0.2762  0.2686  0.0767
 8594SOL    HW130144   5.269   8.227   2.587  0.1227  0.9576  1.2882
 8594SOL    HW230145   5.395   8.162   2.640 -0.3463 -0.2500  0.9594
 8595SOL     OW30146   8.284   0.164   6.292  0.6731 -0.0503 -0.1716
 8595SOL    HW130147   8.280   0.075   6.257  1.4763  0.0997 -0.6693
 8595SOL    HW230148   8.256   0.155   6.383 -0.3452 -0.6284 -0.5240
 8596SOL     OW30149   6.144   0.863   8.838 -0.1982 -0.0997  0.6762
 8596SOL    HW130150   6.147   0.958   8.822  0.8687 -0.2712 -0.2840
 8596SOL    HW230151   6.207   0.848   8.908  0.4199 -0.2248  0.0974
 8597SOL     OW30152   6.372   5.808   7.111  0.0198 -0.4299  0.4013
 8597SOL    HW130153   6.304   5.773   7.054  1.6220 -2.7403 -0.2381
 8597SOL    HW230154   6.420   5.869   7.056 -0.0855 -0.6097  0.1056
 8598SOL     OW30155   2.582   7.144  10.464  0.6795  0.0855 -0.1453
 8598SOL    HW130156   2.573   7.115  10.373 -2.9655  0.6881 -0.1427
 8598SOL    HW230157   2.554   7.068  10.515  0.5702  0.4573  0.3465
 8599SOL     OW30158   7.487   6.178   4.798  0.6881 -0.0993 -0.4255
 8599SOL    HW130159   7.463   6.270   4.787  0.5464  0.5797  3.7241
 8599SOL    HW230160   7.415   6.130   4.758 -0.1538  1.6198 -1.0939
 8600SOL     OW30161   6.139   8.615  10.936  0.7034  0.8065  0.3687
 8600SOL    HW130162   6.072   8.581  10.876  1.2025 -1.0179  0.7922
 8600SOL    HW230163   6.216   8.562  10.918  1.9560  2.6263  0.1660
 8601SOL     OW30164   3.371   6.664   5.778 -0.5381  0.8920 -0.2417
 8601SOL    HW130165   3.402   6.603   5.711  2.4025  0.7549  1.0698
 8601SOL    HW230166   3.361   6.611   5.857 -4.6204  0.9053 -0.5198
 8602SOL     OW30167   0.007   7.276   9.294 -0.0167 -0.3619 -0.1351
 8602SOL    HW130168   0.070   7.205   9.285  1.5464  0.9255  0.1663
 8602SOL    HW230169  -0.015   7.278   9.387  0.6318  0.0780  0.0200
 8603SOL     OW30170   8.085   9.812   8.956  0.2360 -0.4842 -0.2893
 8603SOL    HW130171   8.076   9.729   9.004  0.5116 -0.8746 -0.8904
 8603SOL    HW230172   8.039   9.876   9.010  1.3312 -0.7178  0.9809
 8604SOL     OW30173  10.528   5.110   2.905  0.1013  0.2084  0.3136
 8604SOL    HW130174  10.544   5.099   2.812 -0.8192 -1.8793  0.3385
 8604SOL    HW230175  10.611   5.142   2.940  0.2132  1.8344 -1.2959
 8605SOL     OW30176   7.058   6.191   2.914 -0.2966 -0.0324 -0.0639
 8605SOL    HW130177   7.022   6.103   2.928  1.1255 -0.5744  0.2985
 8605SOL    HW230178   7.053   6.203   2.819 -0.3844 -0.5571 -0.1297
 8606SOL     OW30179   7.242   6.432  10.101  0.6761  0.0709 -0.0055
 8606SOL    HW130180   7.332   6.444  10.068  0.7962  0.5385  0.4780
 8606SOL    HW230181   7.253   6.422  10.195  0.2502 -0.2991  0.0042
 8607SOL     OW30182   3.940   2.904   6.652 -0.0012 -0.4102  0.0703
 8607SOL    HW130183   3.970   2.837   6.591  0.9003  1.4708 -1.6807
 8607SOL    HW230184   3.845   2.906   6.641 -0.1337 -1.8813  0.7217
 8608SOL     OW30185   0.707   3.198   3.555 -0.3871 -0.2934 -0.1275
 8608SOL    HW130186   0.654   3.243   3.488  2.0638  0.2202 -1.8579
 8608SOL    HW230187   0.776   3.261   3.576  0.5488 -1.5685  0.7361
 8609SOL     OW30188   4.336   3.030   4.767 -0.2621 -0.3372  0.8435
 8609SOL    HW130189   4.275   3.102   4.754 -1.0907 -1.1698  0.0101
 8609SOL    HW230190   4.419   3.062   4.731 -0.5007  0.3659  0.9118
 8610SOL     OW30191   8.239   0.118  11.011  0.4561  0.0013 -0.3588
 8610SOL    HW130192   8.311   0.110  11.074 -0.3321  0.8402  0.7070
 8610SOL    HW230193   8.274   0.085  10.929  1.1769 -2.2218  0.7596
 8611SOL     OW30194   2.307   7.592   4.485  0.5621 -0.4367  0.4309
 8611SOL    HW130195   2.274   7.646   4.413  1.1076 -0.4087  0.1962
 8611SOL    HW230196   2.402   7.602   4.481  0.5546  0.6132  1.9710
 8612SOL     OW30197   6.750   3.277   5.899  0.1473  0.2778  0.0410
 8612SOL    HW130198   6.821   3.213   5.897  0.4067  0.5333  0.8742
 8612SOL    HW230199   6.763   3.329   5.819 -0.2929 -0.9283 -0.8372
 8613SOL     OW30200   6.355   8.371   5.882  0.2600  0.1118  0.2490
 8613SOL    HW130201   6.386   8.283   5.905  1.0163  0.8795  2.4409
 8613SOL    HW230202   6.422   8.405   5.823  0.6019 -0.3315  0.3768
 8614SOL     OW30203  10.837   5.151  10.948  0.2960 -0.6054  0.3869
 8614SOL    HW130204  10.923   5.122  10.979  0.7359  0.9731  0.7116
 8614SOL    HW230205  10.825   5.237  10.988 -0.2560  0.3764 -1.7435
 8615SOL     OW30206  10.697  10.414  10.203 -0.5048 -0.2260 -0.1889
 8615SOL    HW130207  10.759  10.468  10.153  1.1198 -0.3409  1.5486
 8615SOL    HW230208  10.631  10.476  10.233 -0.3412  0.2250 -0.7434
 8616SOL     OW30209   8.825   4.913   1.597 -0.3434 -0.0420  0.3654
 8616SOL    HW130210   8.906   4.960   1.583 -0.7722  0.3767 -0.7856
 8616SOL    HW230211   8.777   4.965   1.662 -0.0582  0.1590  0.4128
 8617SOL     OW30212   3.144   2.525   7.187  0.5493 -0.0552 -0.8995
 8617SOL    HW130213   3.135   2.443   7.235 -0.0224  1.0962  1.0859
 8617SOL    HW230214   3.059   2.539   7.147 -0.8104  1.4590  2.1381
 8618SOL     OW30215   9.451   0.900  10.931  0.3016  0.5878  0.1274
 8618SOL    HW130216   9.438   0.873  11.022  3.6475  0.2396  0.6313
 8618SOL    HW230217   9.465   0.818  10.883  4.7042  0.8286  0.5978
 8619SOL     OW30218   6.212   0.504   4.719  0.1166  0.1156  0.5778
 8619SOL    HW130219   6.196   0.595   4.694 -2.5382 -0.3011  0.4487
 8619SOL    HW230220   6.281   0.508   4.785  0.7245  2.1027 -0.1239
 8620SOL     OW30221   6.384   4.515   4.552  0.3441  0.1322 -0.0566
 8620SOL    HW130222   6.298   4.501   4.512 -0.4538  0.7580  1.3828
 8620SOL    HW230223   6.446   4.480   4.488 -1.0995 -3.1878  0.1473
 8621SOL     OW30224   7.105   5.821   9.288 -0.0398 -0.5366 -0.6172
 8621SOL    HW130225   7.064   5.747   9.332  1.0071 -0.5839  0.3192
 8621SOL    HW230226   7.135   5.785   9.204 -0.9834 -0.7505 -0.8674
 8622SOL     OW30227   1.546   2.971   6.846 -0.0279  0.4290 -0.0184
 8622SOL    HW130228   1.492   2.939   6.773 -0.3939  0.2951  0.3066
 8622SOL    HW230229   1.567   3.061   6.823 -0.0952  0.3690 -0.3184
 8623SOL     OW30230   9.354  11.088  10.894 -0.4031  0.0802 -0.5355
 8623SOL    HW130231   9.375  11.111  10.984 -1.2398  1.2963 -0.6216
 8623SOL    HW230232   9.428  11.034  10.865  0.4008  0.5639  0.5283
 8624SOL     OW30233   3.853   4.111   8.497 -0.2077 -0.3777 -0.1304
 8624SOL    HW130234   3.763   4.145   8.497  0.0912  0.5110  1.2003
 8624SOL    HW230235   3.842   4.015   8.499 -1.1109 -0.2937 -0.5290
 8625SOL     OW30236  10.289   1.668  10.339 -0.1591 -0.1193 -0.0584
 8625SOL    HW130237  10.323   1.758  10.343  0.8374 -0.4939  0.2264
 8625SOL    HW230238  10.203   1.674  10.381 -0.7840  0.9793 -1.4011
 8626SOL     OW30239   7.949   8.611   3.984 -0.5680 -0.7237  0.4834
 8626SOL    HW130240   7.882   8.545   4.001 -2.3163  0.4748 -1.2431
 8626SOL    HW230241   7.907   8.673   3.924  1.5138  1.1001  0.7700
 8627SOL     OW30242   4.282   2.505   9.080  0.1274  0.3072 -0.0064
 8627SOL    HW130243   4.336   2.581   9.059  0.2551  0.6077  1.2908
 8627SOL    HW230244   4.208   2.541   9.129  0.9439 -0.5085  1.9379
 8628SOL     OW30245   6.360   4.775   0.857  0.0600 -0.4514  0.3715
 8628SOL    HW130246   6.443   4.817   0.881  0.3835 -1.4175  1.0416
 8628SOL    HW230247   6.337   4.723   0.934 -1.5457  0.3457  0.4638
 8629SOL     OW30248   6.723   1.263   6.072  0.3559  0.5180 -0.0566
 8629SOL    HW130249   6.683   1.350   6.068  0.1272  0.4453  0.5279
 8629SOL    HW230250   6.812   1.279   6.104 -0.1203  0.4259  1.4021
 8630SOL     OW30251  10.198   3.522   6.371 -0.3904 -0.1584  0.2300
 8630SOL    HW130252  10.279   3.477   6.394  0.6379  0.3168 -2.1808
 8630SOL    HW230253  10.134   3.452   6.358  0.4335 -0.7559 -0.7045
 8631SOL     OW30254   8.941   6.243   1.419  0.3702 -0.5273 -0.1658
 8631SOL    HW130255   8.937   6.159   1.465 -0.6244 -0.7986 -0.7197
 8631SOL    HW230256   8.996   6.226   1.342 -0.9801 -1.0653 -1.0363
 8632SOL     OW30257   8.881   7.190   4.113 -0.2455  0.6164  0.3705
 8632SOL    HW130258   8.813   7.204   4.048  0.8837  1.3484 -0.6934
 8632SOL    HW230259   8.963   7.189   4.063  0.3744 -4.4556  0.9280
 8633SOL     OW30260   1.937  10.649   6.325 -0.3065  0.3422  0.2983
 8633SOL    HW130261   1.953  10.723   6.266  0.7345  0.8148  1.1428
 8633SOL    HW230262   1.843  10.653   6.343 -0.2535  1.5303  0.3882
 8634SOL     OW30263   3.015   7.458   2.864 -0.5778 -0.7015 -0.0962
 8634SOL    HW130264   3.034   7.469   2.958 -0.0788 -1.5246 -0.0919
 8634SOL    HW230265   2.931   7.501   2.851 -0.1494  0.3771  0.5133
 8635SOL     OW30266   8.086   9.639   8.204  0.4512 -0.2289  0.2246
 8635SOL    HW130267   8.004   9.681   8.229  1.0948  0.9229  0.4729
 8635SOL    HW230268   8.140   9.644   8.283  0.3733 -1.9982  0.4175
 8636SOL     OW30269   0.512   6.943   2.383 -0.7359 -0.2435 -0.3943
 8636SOL    HW130270   0.469   6.875   2.331 -2.2882  0.1754  0.2757
 8636SOL    HW230271   0.582   6.898   2.430  0.1225 -0.7968 -2.1374
 8637SOL     OW30272   5.968   6.903   8.034  0.2169  0.0504  0.2434
 8637SOL    HW130273   5.967   6.841   8.107  1.1406  1.3342  1.3846
 8637SOL    HW230274   5.925   6.856   7.962  0.6500 -1.8077  1.1425
 8638SOL     OW30275   6.318   9.236   3.451  0.6388  0.0771 -0.0186
 8638SOL    HW130276   6.260   9.160   3.451  1.7308 -0.7966 -1.2093
 8638SOL    HW230277   6.263   9.307   3.417 -0.9121  0.3146  2.7218
 8639SOL     OW30278   1.851   7.971   3.168 -0.3004  0.2716 -0.3830
 8639SOL    HW130279   1.811   7.893   3.130 -0.3094 -0.0107  0.1871
 8639SOL    HW230280   1.796   7.992   3.243 -0.2514  0.7819 -0.4878
 8640SOL     OW30281   9.784   8.303   3.436  0.5088 -0.1072  0.5965
 8640SOL    HW130282   9.867   8.302   3.483  1.4094 -0.4542 -0.9204
 8640SOL    HW230283   9.723   8.349   3.494  1.9279  0.7524  1.4566
 8641SOL     OW30284   0.354   4.519   3.984 -0.1681 -0.1764  0.0528
 8641SOL    HW130285   0.380   4.434   4.020 -3.1546 -0.7009  1.3173
 8641SOL    HW230286   0.425   4.578   4.009  1.0665 -1.9012  0.8731
 8642SOL     OW30287  10.346   2.046   1.536 -0.7337 -0.0610  0.1772
 8642SOL    HW130288  10.318   2.035   1.627 -0.2878  0.3467  0.3688
 8642SOL    HW230289  10.348   1.958   1.500  1.6812 -0.5627  1.3299
 8643SOL     OW30290  11.097   5.959   5.289  0.2986 -0.0604 -0.1521
 8643SOL    HW130291  11.159   6.029   5.308 -0.6485  1.2045 -1.5419
 8643SOL    HW230292  11.068   5.976   5.200 -2.1370 -0.5342  0.4926
 8644SOL     OW30293   8.954   5.868   6.059  0.1070 -0.2596  0.3701
 8644SOL    HW130294   8.919   5.781   6.078 -2.1086  0.5021 -0.0291
 8644SOL    HW230295   8.901   5.928   6.111  2.4292  0.8138  1.6481
 8645SOL     OW30296   0.804   8.522   0.741 -0.6433  0.2071 -0.1276
 8645SOL    HW130297   0.770   8.433   0.752 -1.2449  0.4642  0.1777
 8645SOL    HW230298   0.736   8.567   0.691  0.1252  0.2304 -1.1751
 8646SOL     OW30299   5.258   6.604   1.947  0.7667 -0.0786 -0.0184
 8646SOL    HW130300   5.234   6.541   1.879  0.7485 -0.7921  0.6406
 8646SOL    HW230301   5.216   6.686   1.919  1.7510 -0.0394 -1.4903
 8647SOL     OW30302   7.585   6.744   7.104  0.3022 -0.5619 -0.2332
 8647SOL    HW130303   7.587   6.784   7.017  0.7743 -1.5050 -0.6630
 8647SOL    HW230304   7.595   6.650   7.088  0.2696 -0.7560  0.8309
 8648SOL     OW30305   5.018  10.602   6.808 -0.4959  0.6320 -0.2689
 8648SOL    HW130306   4.981  10.516   6.830  1.1801 -0.2865 -0.8173
 8648SOL    HW230307   4.973  10.663   6.866 -1.4905 -0.6596  0.3808
 8649SOL     OW30308   9.821   7.437   1.759 -0.0368  0.1658 -0.0029
 8649SOL    HW130309   9.732   7.402   1.765  0.1575 -0.1212  1.9808
 8649SOL    HW230310   9.812   7.516   1.706 -1.2202 -0.6207 -1.0237
 8650SOL     OW30311   7.368   8.462   9.894  0.2068 -0.5430 -0.2916
 8650SOL    HW130312   7.364   8.547   9.850  0.0989 -1.2654 -1.7516
 8650SOL    HW230313   7.356   8.399   9.823 -2.4962 -1.7541  1.0984
 8651SOL     OW30314   4.333   4.618   2.668  0.2495 -0.5746 -0.1813
 8651SOL    HW130315   4.285   4.663   2.599 -0.7977 -0.3947  0.6382
 8651SOL    HW230316   4.266   4.593   2.731  1.1068 -1.2909  0.4671
 8652SOL     OW30317   1.349   5.717   3.254  0.2322  0.2133  0.5890
 8652SOL    HW130318   1.409   5.707   3.328  0.3611  0.3285  0.4997
 8652SOL    HW230319   1.384   5.791   3.204  1.1618 -0.9559 -0.5511
 8653SOL     OW30320   8.232   1.906   0.766  0.6147 -0.0605 -0.0235
 8653SOL    HW130321   8.308   1.850   0.754 -0.0622 -0.6099 -2.1412
 8653SOL    HW230322   8.264   1.994   0.745  1.2168  0.0890  1.4412
 8654SOL     OW30323   1.405  10.445  10.776  0.2659  0.2616 -0.1650
 8654SOL    HW130324   1.366  10.361  10.803 -0.6892  0.6361 -0.3268
 8654SOL    HW230325   1.382  10.452  10.683  0.5168  0.6044 -0.2007
 8655SOL     OW30326   9.980   2.991   3.934 -0.2002 -0.5195 -0.1263
 8655SOL    HW130327  10.069   2.974   3.904  0.5471  1.2745  0.9061
 8655SOL    HW230328   9.953   2.910   3.976  0.7772 -1.2366 -0.8333
 8656SOL     OW30329   8.245   8.603   5.975 -0.2064 -0.4758 -0.0718
 8656SOL    HW130330   8.154   8.631   5.989  0.3283  1.2846  0.1257
 8656SOL    HW230331   8.248   8.579   5.883 -0.2415  2.2855 -0.9010
 8657SOL     OW30332   5.309   9.150   4.101 -0.4178 -0.3656  0.4173
 8657SOL    HW130333   5.324   9.244   4.092  0.2485 -0.5010  0.0163
 8657SOL    HW230334   5.322   9.115   4.013  1.0175 -1.0405  0.8478
 8658SOL     OW30335   7.699   4.638   7.037 -0.5780  0.1857  0.2003
 8658SOL    HW130336   7.742   4.678   6.962 -0.1486  1.2235  0.9693
 8658SOL    HW230337   7.757   4.656   7.111 -1.5657  0.2383  0.9926
 8659SOL     OW30338   1.689   0.174  11.012  0.5691  0.2684 -0.3133
 8659SOL    HW130339   1.684   0.106  11.080 -0.8668  0.0311 -0.6391
 8659SOL    HW230340   1.766   0.149  10.960  1.0460 -0.1563  0.5659
 8660SOL     OW30341   8.189   6.722   8.254  0.4625 -0.0452 -0.0805
 8660SOL    HW130342   8.141   6.681   8.182 -0.5163 -0.0778  0.5685
 8660SOL    HW230343   8.192   6.815   8.230  0.0289 -0.0353 -0.0987
 8661SOL     OW30344   8.430   9.466   7.338 -0.1591  0.0366 -0.1970
 8661SOL    HW130345   8.452   9.523   7.265  1.4530  0.2773  0.4384
 8661SOL    HW230346   8.439   9.522   7.416 -1.2611 -0.3719  0.2503
 8662SOL     OW30347   1.666   0.257   4.737  0.1101 -0.0082  0.1671
 8662SOL    HW130348   1.593   0.207   4.774  3.1057 -3.6290  1.8234
 8662SOL    HW230349   1.684   0.324   4.802 -0.1960 -0.7170  1.0107
 8663SOL     OW30350   2.382   8.836   1.482  0.0757 -0.3321  0.1059
 8663SOL    HW130351   2.395   8.754   1.436 -0.0620  0.6680 -1.8356
 8663SOL    HW230352   2.400   8.904   1.417 -2.0262  1.1834  0.9706
 8664SOL     OW30353   5.785   0.212   8.654  0.6078 -0.1252  0.1453
 8664SOL    HW130354   5.870   0.232   8.614  0.2643 -2.1290 -1.7237
 8664SOL    HW230355   5.790   0.120   8.677 -1.3151 -0.4828 -0.7006
 8665SOL     OW30356   1.518   3.220   2.009 -0.1557 -0.3953 -0.0725
 8665SOL    HW130357   1.456   3.203   2.080 -0.1311 -0.2781 -0.0236
 8665SOL    HW230358   1.499   3.151   1.945 -0.2953 -0.3979 -0.0300
 8666SOL     OW30359  10.627  11.108   6.738 -0.9680  0.2828  0.2350
 8666SOL    HW130360  10.564  11.169   6.701 -1.3458  0.6349  1.4052
 8666SOL    HW230361  10.619  11.029   6.684 -2.0137  0.5193  0.0253
 8667SOL     OW30362   1.923   5.345  10.228 -0.7677 -0.3196 -0.0588
 8667SOL    HW130363   2.015   5.351  10.252 -1.4032  1.1684  2.3700
 8667SOL    HW230364   1.878   5.316  10.307 -2.4232 -1.0283 -1.1769
 8668SOL     OW30365   8.856  11.105   5.207  0.0855 -0.0043  0.5402
 8668SOL    HW130366   8.861  11.181   5.148  1.7668 -1.0578 -0.7582
 8668SOL    HW230367   8.948  11.084   5.226 -0.3580  0.6958  4.1638
 8669SOL     OW30368  10.311   2.862   8.298  0.1169  0.1588 -0.3491
 8669SOL    HW130369  10.367   2.918   8.352  0.0676  1.2312 -1.3610
 8669SOL    HW230370  10.355   2.859   8.213  1.4992 -3.4760  0.2994
 8670SOL     OW30371  10.748   5.641   2.915  0.8986 -0.4446  0.2019
 8670SOL    HW130372  10.811   5.587   2.867  1.2581 -1.0257  1.2871
 8670SOL    HW230373  10.795   5.722   2.933  0.7502 -0.2121 -0.4528
 8671SOL     OW30374   5.845   5.291  10.143  0.0506  0.2988 -0.2353
 8671SOL    HW130375   5.844   5.276  10.048 -1.1441 -2.2622  0.1025
 8671SOL    HW230376   5.762   5.335  10.161  0.6212  1.4895 -0.4401
 8672SOL     OW30377   7.160   7.232   3.102  0.4171  0.2459 -0.1586
 8672SOL    HW130378   7.244   7.188   3.086  1.0930  1.0055  1.1226
 8672SOL    HW230379   7.110   7.171   3.156  0.3468  0.0120 -0.4847
 8673SOL     OW30380   3.641   6.159   5.916 -0.0139  0.2391  0.0832
 8673SOL    HW130381   3.682   6.183   5.833  0.8505  2.6530  1.0971
 8673SOL    HW230382   3.675   6.224   5.978 -2.7484  0.2120  1.7356
 8674SOL     OW30383   0.791   7.605   9.661 -0.4644 -0.1451  0.6142
 8674SOL    HW130384   0.787   7.691   9.702 -0.4433  1.1287 -1.8789
 8674SOL    HW230385   0.735   7.612   9.584 -0.1632 -2.2556  0.1356
 8675SOL     OW30386   0.808   6.972   7.980  0.9256  1.0845  0.9129
 8675SOL    HW130387   0.844   7.053   8.017 -0.3528  2.3425 -0.3988
 8675SOL    HW230388   0.876   6.940   7.921  1.5187  1.0825  1.5867
 8676SOL     OW30389   6.337   0.464   4.487 -0.3886  0.0106 -0.3584
 8676SOL    HW130390   6.263   0.466   4.548 -0.6045  0.1065 -0.6216
 8676SOL    HW230391   6.404   0.414   4.532 -0.7755 -0.4627 -0.2994
 8677SOL     OW30392   8.662   1.199   7.396 -0.4528  0.1875  0.3805
 8677SOL    HW130393   8.752   1.190   7.364  0.0924  0.6789  1.7028
 8677SOL    HW230394   8.608   1.195   7.318  0.6707 -0.8844 -0.3665
 8678SOL     OW30395   6.920   2.035   4.568  0.2068  0.5259  0.4101
 8678SOL    HW130396   6.994   2.028   4.629  0.9275  1.8753 -0.2783
 8678SOL    HW230397   6.862   2.099   4.609 -0.7712 -0.7307  1.0859
 8679SOL     OW30398   3.362  10.268   0.267  0.3540 -0.1539  0.1207
 8679SOL    HW130399   3.390  10.267   0.175  0.8022  1.0298  0.2303
 8679SOL    HW230400   3.441  10.292   0.316 -0.2953  0.9659  0.6487
 8680SOL     OW30401   9.260   1.154   4.031 -0.0920 -0.0478 -0.4223
 8680SOL    HW130402   9.316   1.228   4.055 -0.3748  0.4208 -1.1613
 8680SOL    HW230403   9.310   1.108   3.964 -0.1368 -0.2313 -0.3287
 8681SOL     OW30404   7.917   9.634   5.357 -0.1708  0.6564 -0.2134
 8681SOL    HW130405   7.826   9.655   5.376 -1.0531 -1.8717 -1.1507
 8681SOL    HW230406   7.946   9.701   5.296 -1.5190  1.3169 -0.1458
 8682SOL     OW30407   9.722   9.193   4.782 -0.0090  0.3702  0.2855
 8682SOL    HW130408   9.700   9.120   4.840 -0.5839  1.3877  1.3880
 8682SOL    HW230409   9.738   9.151   4.697 -0.8006 -0.9928  0.7646
 8683SOL     OW30410   9.640  10.229   3.540  0.2283  0.2340 -0.3644
 8683SOL    HW130411   9.567  10.167   3.532  0.7798 -0.5422  0.4433
 8683SOL    HW230412   9.697  10.207   3.467 -0.2937  0.8074 -0.9674
 8684SOL     OW30413   0.833   0.843   0.886  0.6396  0.8989 -0.9751
 8684SOL    HW130414   0.808   0.751   0.873  0.9003  0.7796 -0.6588
 8684SOL    HW230415   0.909   0.855   0.830  0.2952  1.0705 -1.4133
 8685SOL     OW30416   3.118   9.864   9.984  0.3313  0.4796 -0.0051
 8685SOL    HW130417   3.054   9.798  10.012  0.0407  1.2209  1.1284
 8685SOL    HW230418   3.150   9.902  10.065  0.1809  2.0379 -0.6487
 8686SOL     OW30419   9.634   7.176   1.961  0.0989 -0.1737 -0.0807
 8686SOL    HW130420   9.630   7.208   1.871  1.6508  0.7584  0.1501
 8686SOL    HW230421   9.587   7.242   2.012 -0.4615 -0.5131 -0.1525
 8687SOL     OW30422   6.642   9.802   0.063  0.3392  0.8653 -0.2416
 8687SOL    HW130423   6.570   9.790   0.001  1.2912 -0.9842 -1.0719
 8687SOL    HW230424   6.710   9.846   0.012  0.1039  1.9431  0.3373
 8688SOL     OW30425   2.457   5.792   3.166  0.3056  0.3237  0.6605
 8688SOL    HW130426   2.514   5.838   3.228 -1.1061  0.1223  2.1966
 8688SOL    HW230427   2.370   5.827   3.183 -0.3225 -0.6868 -0.3181
 8689SOL     OW30428   8.265   2.726   6.741  0.1276 -0.4129  0.1599
 8689SOL    HW130429   8.176   2.758   6.756  0.5508  1.7669 -1.4136
 8689SOL    HW230430   8.322   2.794   6.778  1.1172 -0.6779 -0.8059
 8690SOL     OW30431   1.017   0.567   5.645  0.2318  0.0016 -0.0342
 8690SOL    HW130432   0.954   0.639   5.634  0.4092  0.2183  0.3620
 8690SOL    HW230433   1.078   0.599   5.712  2.7780  1.1988 -2.7206
 8691SOL     OW30434   4.412   7.460   8.730  0.5704  0.6098  0.2339
 8691SOL    HW130435   4.317   7.449   8.727  0.5330  1.0622 -0.2907
 8691SOL    HW230436   4.438   7.473   8.639  1.2498 -0.3944  0.2617
 8692SOL     OW30437   5.362   9.366   2.600 -0.1289 -0.4912  0.1956
 8692SOL    HW130438   5.397   9.281   2.624  0.0345 -0.2106  0.9911
 8692SOL    HW230439   5.438   9.421   2.585 -0.2180 -0.7561 -1.4252
 8693SOL     OW30440   8.194   6.798   9.293 -0.1134 -0.3770  0.2547
 8693SOL    HW130441   8.233   6.862   9.233 -0.8911  0.8372  0.9870
 8693SOL    HW230442   8.259   6.728   9.300  0.4881  0.0263 -1.0727
 8694SOL     OW30443   6.785   6.246  10.986  0.0336  0.0647  0.4183
 8694SOL    HW130444   6.764   6.244  10.893  1.5099  1.1604  0.0366
 8694SOL    HW230445   6.699   6.239  11.030 -0.6012 -1.5036 -0.9677
 8695SOL     OW30446   9.379   0.320   1.676 -0.2610  0.2739 -0.0250
 8695SOL    HW130447   9.356   0.260   1.747  0.3601 -0.6461 -0.5977
 8695SOL    HW230448   9.316   0.300   1.607 -1.3790  1.7106  0.5203
 8696SOL     OW30449   1.405   7.927   0.885 -0.7396 -0.2699  0.1746
 8696SOL    HW130450   1.476   7.888   0.935  0.3179  0.7735 -0.4647
 8696SOL    HW230451   1.412   7.887   0.798 -0.1963  0.6720 -0.2267
 8697SOL     OW30452   5.512   4.279   8.340  0.6513 -0.1841 -0.3367
 8697SOL    HW130453   5.561   4.211   8.294  0.6392  0.4295 -1.2845
 8697SOL    HW230454   5.577   4.321   8.396  0.4772 -1.5115  0.9079
 8698SOL     OW30455   9.281  10.787   3.439 -0.3024  0.2653 -0.1410
 8698SOL    HW130456   9.345  10.859   3.442 -0.4125  0.3582  3.5133
 8698SOL    HW230457   9.328  10.711   3.471 -1.0240 -0.6270 -1.1244
 8699SOL     OW30458   1.645   5.956   3.831  0.1307  0.1905 -0.8708
 8699SOL    HW130459   1.667   6.038   3.788  0.8589 -0.3119 -1.4732
 8699SOL    HW230460   1.595   5.907   3.766 -1.3594  0.6185 -0.1058
 8700SOL     OW30461   7.823   6.207   2.149  0.4266  0.1093  0.3513
 8700SOL    HW130462   7.823   6.123   2.103  0.6599  0.6978 -0.7381
 8700SOL    HW230463   7.909   6.244   2.133 -0.0272  1.0229 -0.0390
 8701SOL     OW30464   2.620   5.757   1.534  0.2645  0.3497  0.8267
 8701SOL    HW130465   2.598   5.816   1.607  0.0316 -0.2190  1.2218
 8701SOL    HW230466   2.541   5.752   1.482  1.0842  2.5315 -0.7446
 8702SOL     OW30467   8.868   4.241   8.879 -0.2811  0.7057  0.4019
 8702SOL    HW130468   8.857   4.330   8.913  1.7185  1.4389 -0.7063
 8702SOL    HW230469   8.961   4.235   8.857 -0.8991 -0.6778 -2.2443
 8703SOL     OW30470   2.690   3.964   0.169  0.0711  0.2022 -0.2203
 8703SOL    HW130471   2.762   3.934   0.114  1.9482  2.3326  0.8857
 8703SOL    HW230472   2.695   4.060   0.165 -2.7174  0.4488 -0.0398
 8704SOL     OW30473   0.848   0.579  10.820  0.8028  0.2848  0.2759
 8704SOL    HW130474   0.924   0.637  10.820  1.9579 -1.1184  1.7879
 8704SOL    HW230475   0.782   0.626  10.870  1.5539  0.5393  1.0651
 8705SOL     OW30476   1.532   2.153   1.171 -0.1936 -0.1907  0.7838
 8705SOL    HW130477   1.581   2.077   1.140 -1.0722 -0.3747 -0.2032
 8705SOL    HW230478   1.446   2.145   1.130 -0.5774  0.8990  1.3297
 8706SOL     OW30479   7.001   9.815   3.302  0.0360 -0.1529 -0.1269
 8706SOL    HW130480   6.991   9.750   3.233  0.2746 -1.3790  0.9353
 8706SOL    HW230481   6.929   9.876   3.290 -0.1070 -0.5334 -1.2471
 8707SOL     OW30482  10.198   7.116   3.870  0.3085  0.0110 -0.7699
 8707SOL    HW130483  10.205   7.146   3.961  0.0609  0.8454 -1.0186
 8707SOL    HW230484  10.269   7.162   3.825  0.2107 -0.1382 -1.0722
 8708SOL     OW30485   9.251  10.785   9.550 -0.2464 -0.6619  0.4287
 8708SOL    HW130486   9.189  10.737   9.606  0.4093 -0.3624  1.4393
 8708SOL    HW230487   9.202  10.861   9.520 -0.7958 -1.1353  0.1085
 8709SOL     OW30488   8.984   0.985   6.167  0.1131 -0.4087 -0.3877
 8709SOL    HW130489   8.950   1.072   6.151 -0.2562 -0.8753 -2.4382
 8709SOL    HW230490   8.920   0.944   6.225 -0.6154  0.1410 -0.7850
 8710SOL     OW30491   7.100   8.337   1.518  0.0295 -0.1244  0.1987
 8710SOL    HW130492   7.138   8.250   1.524  0.1978 -0.0192  0.7218
 8710SOL    HW230493   7.027   8.336   1.579  0.1475  0.1555  0.3484
 8711SOL     OW30494   7.812   7.767   1.878 -0.1805  0.0441  0.2623
 8711SOL    HW130495   7.756   7.775   1.801  1.8103 -0.5312 -1.3174
 8711SOL    HW230496   7.843   7.856   1.894 -0.1526  0.0758  0.0384
 8712SOL     OW30497  10.498   2.820   6.515  0.5634 -0.1033 -0.2329
 8712SOL    HW130498  10.570   2.762   6.493  1.7886  2.1227 -2.7925
 8712SOL    HW230499  10.431   2.801   6.450  1.6887  2.3111 -2.3070
 8713SOL     OW30500   3.176   4.808   4.526 -0.1305  0.2155  0.3219
 8713SOL    HW130501   3.250   4.868   4.519  2.3140 -2.7248 -1.7245
 8713SOL    HW230502   3.212   4.731   4.569 -2.1004 -1.1786 -0.3896
 8714SOL     OW30503   2.071   6.380   8.020  0.0778 -0.0515  0.1338
 8714SOL    HW130504   2.166   6.367   8.010  0.5766  2.2053  1.0855
 8714SOL    HW230505   2.064   6.454   8.080 -2.2929  0.4394 -0.6409
 8715SOL     OW30506   9.887   0.554   0.433  0.2602 -0.5921 -0.0137
 8715SOL    HW130507   9.934   0.546   0.349  0.4762 -1.7482  0.1977
 8715SOL    HW230508   9.797   0.572   0.408  0.4006 -0.5077 -0.4837
 8716SOL     OW30509   2.189   3.943   2.818 -0.2618 -0.3108 -0.6127
 8716SOL    HW130510   2.263   3.884   2.807 -1.0475 -1.8454  1.6809
 8716SOL    HW230511   2.112   3.886   2.812 -1.1267  0.7715 -0.1439
 8717SOL     OW30512   9.866   6.771   1.891 -0.3239 -0.0692 -0.0450
 8717SOL    HW130513   9.835   6.839   1.832 -1.1357  0.5044  1.0038
 8717SOL    HW230514   9.961   6.771   1.880 -0.5214 -1.0014 -2.3925
 8718SOL     OW30515   2.966   8.056   2.648  0.5788  0.0469 -0.5195
 8718SOL    HW130516   2.894   8.099   2.602  0.0088 -1.2531 -0.8999
 8718SOL    HW230517   2.954   8.081   2.739  0.6252  1.1595 -0.8004
 8719SOL     OW30518   9.835   5.468   4.131  0.7904  0.0733 -0.1111
 8719SOL    HW130519   9.814   5.528   4.202  1.0937  0.4907 -0.3705
 8719SOL    HW230520   9.791   5.386   4.155  0.2553  0.4385  0.1754
 8720SOL     OW30521   3.943   3.523   6.501 -0.2446  0.2651 -0.6926
 8720SOL    HW130522   3.998   3.469   6.558 -0.4382  0.7288 -0.0501
 8720SOL    HW230523   3.909   3.462   6.436 -0.8674 -0.5173  0.3157
 8721SOL     OW30524  10.993   6.390   8.444 -0.1070  0.2982 -0.0250
 8721SOL    HW130525  10.914   6.383   8.390 -1.2667  1.8661  1.3807
 8721SOL    HW230526  11.060   6.423   8.384 -1.5050  2.5830 -0.4516
 8722SOL     OW30527   2.787   3.528   5.827 -0.1423  0.3053  0.1952
 8722SOL    HW130528   2.859   3.588   5.813  1.9680 -1.6963  1.7531
 8722SOL    HW230529   2.763   3.499   5.738  0.9945  0.9719 -0.3534
 8723SOL     OW30530   8.252   2.441  10.459 -0.2798  0.3190  0.0004
 8723SOL    HW130531   8.344   2.463  10.444 -0.1195 -1.0680 -1.3430
 8723SOL    HW230532   8.225   2.397  10.378 -1.7142 -0.6009  0.9430
 8724SOL     OW30533   7.894   5.697   2.167  0.5126 -0.0424  0.4946
 8724SOL    HW130534   7.927   5.607   2.166  0.1136 -0.1923  0.6966
 8724SOL    HW230535   7.804   5.689   2.198  0.1916  0.3340 -0.3088
 8725SOL     OW30536  10.102   6.471   0.511  0.5862  0.3358  0.1915
 8725SOL    HW130537  10.133   6.439   0.596  1.8957  0.3906 -0.2471
 8725SOL    HW230538  10.041   6.404   0.482  0.9857 -0.2532  0.6677
 8726SOL     OW30539   4.189   1.824   1.746  0.1032 -0.4705 -0.6464
 8726SOL    HW130540   4.130   1.751   1.764 -2.1177  1.0510 -1.3649
 8726SOL    HW230541   4.276   1.790   1.768 -0.9011 -3.0867 -0.3329
 8727SOL     OW30542   1.840   5.995   8.086 -0.1411  0.3816 -0.5991
 8727SOL    HW130543   1.761   5.947   8.109 -0.1965 -0.4728 -2.3297
 8727SOL    HW230544   1.825   6.084   8.117 -1.3222 -0.0161  0.0331
 8728SOL     OW30545   8.022   0.355  10.859 -0.2115 -0.0289 -0.5000
 8728SOL    HW130546   8.035   0.280  10.917  1.0997 -0.4736 -1.3115
 8728SOL    HW230547   7.952   0.328  10.799 -2.5007  0.9150  1.5615
 8729SOL     OW30548   3.559   8.017   7.758 -0.6614  0.3955  0.3316
 8729SOL    HW130549   3.562   7.946   7.823  0.2605  0.4716  0.3838
 8729SOL    HW230550   3.626   8.078   7.787 -0.6263  0.7011 -0.3960
 8730SOL     OW30551   5.467   1.666   3.219  0.3740  0.1215  0.3075
 8730SOL    HW130552   5.468   1.589   3.162 -0.1593  0.3642 -0.0251
 8730SOL    HW230553   5.470   1.629   3.308  0.2327 -0.2803  0.1469
 8731SOL     OW30554   0.469   2.570   8.425  0.0698 -0.1219 -0.6873
 8731SOL    HW130555   0.510   2.490   8.457 -1.3427  0.0027  1.6746
 8731SOL    HW230556   0.500   2.639   8.484 -1.5762  0.3934 -0.3671
 8732SOL     OW30557   7.425   5.327   1.640 -0.0148  0.6973  0.2483
 8732SOL    HW130558   7.342   5.324   1.687 -0.7207 -0.8104 -0.9980
 8732SOL    HW230559   7.482   5.268   1.690  0.1243  1.2670  0.7683
 8733SOL     OW30560   3.028   8.792   2.345  0.0886 -0.5036 -0.1711
 8733SOL    HW130561   3.000   8.701   2.350  3.4249 -1.5921  1.9169
 8733SOL    HW230562   3.122   8.788   2.330  0.4327  2.6077  0.3508
 8734SOL     OW30563   7.906   0.639  11.018  0.1710 -0.5750 -0.3542
 8734SOL    HW130564   7.881   0.711  10.960 -1.4604 -1.4286 -0.7645
 8734SOL    HW230565   7.934   0.570  10.959  0.5130 -0.7230 -0.0196
 8735SOL     OW30566   0.713   2.978   4.425 -0.2636  0.6162  0.1564
 8735SOL    HW130567   0.772   2.906   4.402  0.7473  1.6181 -0.4991
 8735SOL    HW230568   0.625   2.941   4.415  0.2220 -1.0179  1.5212
 8736SOL     OW30569   8.763   2.672   2.114  0.0861  0.6367  0.2094
 8736SOL    HW130570   8.673   2.673   2.082  0.4839 -0.9285 -1.0528
 8736SOL    HW230571   8.815   2.710   2.043  0.5104  0.9121  0.6544
 8737SOL     OW30572   5.019   3.253   0.826  0.2475 -0.7601  0.0048
 8737SOL    HW130573   5.078   3.252   0.751 -0.0620  0.6361 -0.2834
 8737SOL    HW230574   4.993   3.345   0.835 -1.7762 -1.2958  0.1769
 8738SOL     OW30575   7.188  10.173   7.956  0.2102 -0.5258 -0.3071
 8738SOL    HW130576   7.253  10.222   7.906  0.3694 -0.1654  0.2493
 8738SOL    HW230577   7.206  10.081   7.936  1.8831 -0.5197  1.0312
 8739SOL     OW30578   5.383   2.204   3.148  0.2797 -0.0074 -0.8335
 8739SOL    HW130579   5.355   2.251   3.226  0.5359  0.9032 -1.2819
 8739SOL    HW230580   5.362   2.262   3.075 -0.6223 -1.1377 -1.5165
 8740SOL     OW30581   5.607   6.633   8.681  0.5742  0.0246 -0.3368
 8740SOL    HW130582   5.557   6.551   8.672  0.1453  0.1020  1.0864
 8740SOL    HW230583   5.577   6.687   8.609 -0.6353 -0.3341 -0.1249
 8741SOL     OW30584   5.392   4.634   1.962 -0.7126 -0.2908  0.3417
 8741SOL    HW130585   5.365   4.566   1.901  0.3308  0.0701 -0.5536
 8741SOL    HW230586   5.322   4.637   2.028 -1.4696 -1.2225 -0.4008
 8742SOL     OW30587   8.430   5.242   5.094  0.2384  0.3420  0.2727
 8742SOL    HW130588   8.387   5.306   5.037  1.6815  0.7575 -0.3723
 8742SOL    HW230589   8.438   5.286   5.179  0.9581  0.9078 -0.0881
 8743SOL     OW30590   7.020  10.011  10.850 -0.1065 -0.0521 -0.5023
 8743SOL    HW130591   7.102  10.026  10.897  0.0068 -0.2139 -0.6523
 8743SOL    HW230592   6.978  10.097  10.849 -0.4134 -0.1732  0.4722
 8744SOL     OW30593   4.166   2.013   8.899 -0.0635  0.4932 -0.0875
 8744SOL    HW130594   4.135   2.059   8.976 -1.2793 -0.7408  0.1905
 8744SOL    HW230595   4.136   2.066   8.825 -2.1595 -0.2094  0.1973
 8745SOL     OW30596   4.434  10.725   3.541  0.0205  0.1359 -0.4509
 8745SOL    HW130597   4.472  10.637   3.541  0.1636  0.1902 -1.0568
 8745SOL    HW230598   4.340  10.712   3.554  0.2974  0.0447  1.9770
 8746SOL     OW30599  10.392   9.290   1.566 -0.2944  0.0098 -0.0503
 8746SOL    HW130600  10.367   9.377   1.537 -2.2446 -0.1045  1.0842
 8746SOL    HW230601  10.395   9.297   1.662  2.0501 -0.5786 -0.0059
 8747SOL     OW30602   2.116   4.010   1.308  0.0148  0.4364 -0.7428
 8747SOL    HW130603   2.183   4.058   1.260  0.7301  0.5348  0.3343
 8747SOL    HW230604   2.118   4.047   1.396 -0.1060 -0.8828 -0.1630
 8748SOL     OW30605  10.265   3.723   3.413  0.6187 -0.2169 -0.0042
 8748SOL    HW130606  10.318   3.712   3.492 -0.1520 -2.4831  0.2649
 8748SOL    HW230607  10.303   3.663   3.350 -1.0252 -1.1979 -0.1098
 8749SOL     OW30608   9.019   7.686   3.133  0.1516  0.0538 -0.1701
 8749SOL    HW130609   8.949   7.629   3.166  1.1428 -1.2197 -0.2137
 8749SOL    HW230610   9.018   7.761   3.193  0.6896 -1.3518  1.6849
 8750SOL     OW30611   5.312   2.856   7.493  0.3967 -0.1142 -0.4513
 8750SOL    HW130612   5.229   2.896   7.521  0.6084  1.5280 -2.0102
 8750SOL    HW230613   5.290   2.764   7.481 -1.4787  0.4196 -1.6608
 8751SOL     OW30614   6.950   4.392   7.163 -0.7723 -0.9005 -0.1138
 8751SOL    HW130615   6.937   4.445   7.085  1.6224  1.3351  0.8383
 8751SOL    HW230616   6.952   4.302   7.131  2.1242  0.0112 -3.0439
 8752SOL     OW30617   7.621   5.306   4.879 -0.2530  0.6638 -0.8037
 8752SOL    HW130618   7.558   5.377   4.862  0.9469  1.8065 -0.6309
 8752SOL    HW230619   7.592   5.235   4.821 -1.8239  1.0573 -0.5676
 8753SOL     OW30620   2.938  10.343   4.871 -0.2777 -0.2529 -0.1641
 8753SOL    HW130621   2.924  10.364   4.964 -0.0843 -0.2911 -0.1273
 8753SOL    HW230622   2.852  10.355   4.831 -0.8091 -2.0489  0.3692
 8754SOL     OW30623   2.918   7.743   7.240 -0.8543  0.0614  0.4088
 8754SOL    HW130624   3.013   7.740   7.231 -0.8801 -0.2994  0.2544
 8754SOL    HW230625   2.898   7.836   7.247 -0.5824  0.2097 -0.6281
 8755SOL     OW30626   0.398   5.943  10.383 -0.3711  1.0110 -0.4455
 8755SOL    HW130627   0.400   5.858  10.341  1.4709  1.5625 -1.5716
 8755SOL    HW230628   0.308   5.952  10.414 -0.5123 -1.4731  0.0478
 8756SOL     OW30629   0.299   6.430  10.526  0.1073 -0.2077  0.5161
 8756SOL    HW130630   0.226   6.377  10.494 -0.1037  0.5300 -0.2650
 8756SOL    HW230631   0.377   6.379  10.505 -0.0923 -0.1950 -0.2889
 8757SOL     OW30632   2.557   1.522   3.712  0.0548 -0.2523 -0.2843
 8757SOL    HW130633   2.632   1.468   3.686 -0.5433 -0.4365 -1.7219
 8757SOL    HW230634   2.491   1.505   3.645  0.0871  2.8016 -1.2519
 8758SOL     OW30635   1.088   9.027   5.698  0.0162 -0.5261 -0.4388
 8758SOL    HW130636   1.181   9.042   5.682 -0.5717  1.5040 -2.6754
 8758SOL    HW230637   1.083   8.994   5.788  2.8385 -0.2834 -0.1163
 8759SOL     OW30638   5.621   9.053   7.898 -0.5490 -0.1973  0.5556
 8759SOL    HW130639   5.702   9.104   7.896  0.1381 -1.1585  2.0395
 8759SOL    HW230640   5.618   9.009   7.813 -0.8950  1.8511 -0.5414
 8760SOL     OW30641   3.392   4.659   3.902 -0.4056 -0.1081 -0.2775
 8760SOL    HW130642   3.407   4.568   3.878 -0.1106  0.2762 -1.6309
 8760SOL    HW230643   3.473   4.704   3.878 -1.3574  0.8959 -1.7975
 8761SOL     OW30644   3.219   3.353   7.042 -0.2321 -0.0098 -0.0727
 8761SOL    HW130645   3.166   3.417   6.995  0.9529  0.1345 -1.2651
 8761SOL    HW230646   3.300   3.399   7.064  0.1142 -0.7211  0.1756
 8762SOL     OW30647   3.560   6.540   2.560 -0.6845  1.0593 -0.1579
 8762SOL    HW130648   3.609   6.605   2.509 -2.1667  0.4668 -2.4881
 8762SOL    HW230649   3.472   6.543   2.523 -0.4508 -3.4001 -1.5752
 8763SOL     OW30650   0.368   1.554   8.599  0.1327 -0.3649  0.4899
 8763SOL    HW130651   0.429   1.483   8.621  0.4837 -0.4062 -0.5490
 8763SOL    HW230652   0.300   1.511   8.548  0.5489  0.0973 -0.4731
 8764SOL     OW30653   8.018   1.966   6.256  0.0800 -0.4868  0.2024
 8764SOL    HW130654   7.998   1.936   6.345  0.3636 -1.6519 -0.1066
 8764SOL    HW230655   8.049   2.056   6.267  0.1624 -0.6363  1.2926
 8765SOL     OW30656   8.291   9.704   9.823 -0.0915  0.2141  0.0109
 8765SOL    HW130657   8.207   9.679   9.860  0.8192 -2.7187  0.3692
 8765SOL    HW230658   8.304   9.643   9.750 -0.6707  4.1345 -3.7745
 8766SOL     OW30659   7.627   6.619   1.572  0.5258  0.3982  0.4795
 8766SOL    HW130660   7.558   6.636   1.637 -0.0519  1.8032 -0.4587
 8766SOL    HW230661   7.697   6.679   1.596 -0.5574  2.5673 -1.4146
 8767SOL     OW30662   7.070   9.909   2.649 -0.5978  0.5758  0.1150
 8767SOL    HW130663   7.031   9.996   2.658  0.1657  0.8458  0.9501
 8767SOL    HW230664   7.097   9.885   2.738  0.1208 -0.0728 -0.2638
 8768SOL     OW30665  11.009   1.258   3.003 -0.3738 -0.1215  0.4156
 8768SOL    HW130666  10.929   1.250   2.951 -0.1269  1.7861 -0.3125
 8768SOL    HW230667  11.042   1.168   3.010 -1.4921 -0.6704 -0.9973
 8769SOL     OW30668   6.050   6.072   5.127 -0.2525 -0.2515  0.4700
 8769SOL    HW130669   6.038   5.977   5.134  0.2703 -0.3470  0.1531
 8769SOL    HW230670   6.120   6.082   5.062  0.9254  0.2897  1.7698
 8770SOL     OW30671   7.925   5.078   3.448  0.4800  0.3655  0.3830
 8770SOL    HW130672   7.901   5.042   3.534 -0.9191 -2.1475 -0.9510
 8770SOL    HW230673   7.922   5.003   3.389 -1.4771  2.4693 -2.4347
 8771SOL     OW30674   6.130   8.301   4.576  0.1635 -0.1432  0.9600
 8771SOL    HW130675   6.151   8.216   4.615 -1.9759 -0.9153  0.5277
 8771SOL    HW230676   6.083   8.349   4.644  0.1795  0.1901  0.7429
 8772SOL     OW30677  10.553   4.928   4.482 -0.1185  1.2037 -0.2063
 8772SOL    HW130678  10.508   4.888   4.408 -0.5491  0.9631  0.1865
 8772SOL    HW230679  10.485   4.975   4.530 -0.1847 -0.0175  0.9728
 8773SOL     OW30680   3.382   0.228   1.807 -0.3068  0.8654 -0.0940
 8773SOL    HW130681   3.463   0.276   1.821  0.7680 -1.0024  0.3837
 8773SOL    HW230682   3.373   0.172   1.884 -1.2631 -0.0416 -0.8323
 8774SOL     OW30683   1.566   9.756   0.138 -0.0857 -0.4032 -0.4332
 8774SOL    HW130684   1.500   9.763   0.070 -0.0609 -1.3996 -0.5830
 8774SOL    HW230685   1.646   9.789   0.098  0.2408 -2.2062 -1.3695
 8775SOL     OW30686   5.902   7.674   9.918  0.1911 -0.3007  0.3827
 8775SOL    HW130687   5.921   7.755   9.964  1.4740 -0.9201  0.9976
 8775SOL    HW230688   5.977   7.660   9.861  0.0919 -1.1407  0.4406
 8776SOL     OW30689   9.942  10.847   4.131 -0.1826  0.1927  0.2828
 8776SOL    HW130690  10.035  10.845   4.153 -0.1038 -2.4375  0.0582
 8776SOL    HW230691   9.900  10.882   4.209  0.9460  0.7867  0.6429
 8777SOL     OW30692  10.039   0.045   4.858 -0.4090 -0.4185 -0.4703
 8777SOL    HW130693  10.079   0.098   4.789 -1.4042  0.5371 -0.3418
 8777SOL    HW230694  10.066   0.087   4.940  0.6715 -1.4795 -0.2619
 8778SOL     OW30695   0.006   3.070   2.275  0.1417 -0.3464 -0.2950
 8778SOL    HW130696   0.058   3.080   2.196 -1.0309 -0.0187 -1.0642
 8778SOL    HW230697   0.004   3.158   2.314  1.7455 -0.7538  0.8163
 8779SOL     OW30698   8.909   2.089   0.998  0.0984 -0.1743 -0.0853
 8779SOL    HW130699   8.869   2.168   1.034 -0.4370 -0.4034 -0.1752
 8779SOL    HW230700   8.895   2.023   1.066  1.8209  0.1403  0.6396
 8780SOL     OW30701   6.275   6.444   7.509 -0.0131  0.2630 -0.8333
 8780SOL    HW130702   6.340   6.483   7.566  0.8476 -1.8806 -0.2480
 8780SOL    HW230703   6.191   6.461   7.553  0.4990 -0.0389  0.3023
 8781SOL     OW30704   5.351   5.050   9.475 -0.2940 -0.1247  0.4257
 8781SOL    HW130705   5.333   4.956   9.479 -0.4355 -0.0673  1.3710
 8781SOL    HW230706   5.330   5.082   9.563 -1.3695  0.9935 -0.2174
 8782SOL     OW30707   2.413   1.182   9.713 -0.3331 -0.7239  0.7091
 8782SOL    HW130708   2.375   1.156   9.796  1.0592 -2.3389  0.8677
 8782SOL    HW230709   2.409   1.104   9.658  0.4035 -0.1885 -0.1467
 8783SOL     OW30710   2.039   4.160   2.757  0.1825 -0.0251  0.0232
 8783SOL    HW130711   1.996   4.185   2.838 -0.3234  0.2661 -0.3301
 8783SOL    HW230712   2.090   4.082   2.780 -0.1934 -0.1195  0.5489
 8784SOL     OW30713   6.191   9.821  10.927 -0.0322 -0.0123 -0.0161
 8784SOL    HW130714   6.271   9.873  10.924  0.1106 -0.2179  0.1682
 8784SOL    HW230715   6.129   9.875  10.975 -0.1534  0.3506 -0.5823
 8785SOL     OW30716   3.889   6.406   6.603  0.3204  0.2656  0.0634
 8785SOL    HW130717   3.983   6.418   6.611  0.2847  0.7144 -0.1926
 8785SOL    HW230718   3.861   6.469   6.536 -0.5918  2.2238  2.1582
 8786SOL     OW30719   2.860   9.982   3.509  0.1916 -0.4635  0.0508
 8786SOL    HW130720   2.852  10.048   3.440  2.6720 -0.0403  0.0817
 8786SOL    HW230721   2.847  10.031   3.590 -0.7441 -0.5909 -0.0038
 8787SOL     OW30722  10.127   6.772  10.302 -0.4023  0.6476 -0.0859
 8787SOL    HW130723  10.143   6.849  10.247  0.0222  0.6553  0.0451
 8787SOL    HW230724  10.203   6.768  10.360 -1.8675  1.9318  2.0330
 8788SOL     OW30725   5.950  11.026   5.777  0.6986 -0.5499  0.6540
 8788SOL    HW130726   5.942  11.042   5.871  2.9140 -0.3528  0.8542
 8788SOL    HW230727   5.862  11.001   5.750 -0.0928 -0.1896  2.6876
 8789SOL     OW30728   1.563   8.933   7.129 -0.4357 -0.3198 -0.1259
 8789SOL    HW130729   1.628   8.903   7.065  0.6078 -0.5955  1.0329
 8789SOL    HW230730   1.482   8.889   7.103 -0.0799 -0.2887 -1.3562
 8790SOL     OW30731   9.458   9.151  11.045 -0.0786  0.5117 -0.3544
 8790SOL    HW130732   9.474   9.143  10.951 -1.0802  0.4467 -0.5239
 8790SOL    HW230733   9.383   9.210  11.052 -0.6497 -0.2872  0.3624
 8791SOL     OW30734   8.945  10.978   9.843  0.2475  0.1429 -0.0003
 8791SOL    HW130735   8.940  11.037   9.768  0.6475  1.5266  1.0311
 8791SOL    HW230736   8.938  11.035   9.919 -1.5938 -1.3665  1.0426
 8792SOL     OW30737   7.027   7.260   1.430  0.3612 -0.1014 -1.1200
 8792SOL    HW130738   7.057   7.344   1.395 -0.2361  0.8423  0.5063
 8792SOL    HW230739   7.105   7.221   1.469  0.4186  0.2442 -0.8802
 8793SOL     OW30740   8.995   7.587   2.706 -0.1682  0.3196 -1.0980
 8793SOL    HW130741   8.952   7.519   2.759  0.7663 -0.8988 -1.8600
 8793SOL    HW230742   9.005   7.661   2.766  0.0107 -0.6878  0.1599
 8794SOL     OW30743   3.120   6.923   5.778  0.0280 -0.4420 -0.7423
 8794SOL    HW130744   3.106   6.839   5.734  1.7157  0.1938 -2.6151
 8794SOL    HW230745   3.140   6.985   5.708  0.8020  1.0976  0.7462
 8795SOL     OW30746   7.363   3.681   8.594 -0.3846 -0.0872 -0.3514
 8795SOL    HW130747   7.280   3.681   8.640 -0.0990  1.9323  0.2753
 8795SOL    HW230748   7.344   3.724   8.510 -0.0774 -0.0388 -0.3990
 8796SOL     OW30749   6.728   9.733   8.355 -0.3284 -0.0228  0.3120
 8796SOL    HW130750   6.757   9.722   8.445  1.0109 -2.9586 -0.3578
 8796SOL    HW230751   6.769   9.815   8.326 -0.5557  0.8218  2.2216
 8797SOL     OW30752   4.404   6.464  11.048  0.1011 -0.1267 -0.6755
 8797SOL    HW130753   4.450   6.422  10.975  0.0160 -0.4689 -0.5344
 8797SOL    HW230754   4.314   6.474  11.015  0.2971  0.6393 -0.9911
 8798SOL     OW30755   6.927   4.554  10.322 -0.0803 -0.0689  0.3389
 8798SOL    HW130756   6.898   4.581  10.236 -0.9385 -0.0489  0.6294
 8798SOL    HW230757   6.999   4.614  10.344  1.2331 -1.0564 -1.0099
 8799SOL     OW30758   0.462   3.258   2.093  0.1041 -0.1743 -0.9675
 8799SOL    HW130759   0.552   3.224   2.089 -0.0544 -0.5181 -1.7705
 8799SOL    HW230760   0.458   3.304   2.177  1.1986  0.3122 -1.1598
 8800SOL     OW30761   3.051   8.171   5.453  0.1067  0.3631 -0.1761
 8800SOL    HW130762   3.036   8.265   5.455  1.1282  0.6602 -2.9490
 8800SOL    HW230763   2.995   8.136   5.523  1.9386  3.2466  3.0137
 8801SOL     OW30764   0.549   5.573   4.274 -0.2038 -0.4960 -0.4773
 8801SOL    HW130765   0.496   5.621   4.337  0.6562  3.0221 -2.1605
 8801SOL    HW230766   0.485   5.536   4.212 -0.8718 -0.3657  0.1251
 8802SOL     OW30767   4.506   5.568   1.270  0.3614  0.2305  0.2041
 8802SOL    HW130768   4.589   5.546   1.227  0.4682 -1.4244  1.1749
 8802SOL    HW230769   4.529   5.636   1.333  0.8283  0.3436 -0.0871
 8803SOL     OW30770   0.679   2.256   4.486  0.1993 -0.1449 -0.1230
 8803SOL    HW130771   0.697   2.305   4.566  0.1565 -1.3879  0.6654
 8803SOL    HW230772   0.587   2.272   4.469  0.4525  1.0096 -0.5692
 8804SOL     OW30773   3.425   4.878   1.990 -0.0642 -0.3500 -0.4238
 8804SOL    HW130774   3.339   4.913   1.966  0.0382 -0.3237 -0.7698
 8804SOL    HW230775   3.461   4.846   1.907  0.2107 -0.4659 -0.2607
 8805SOL     OW30776   5.575   3.192   3.623 -0.4091 -0.4211  0.0903
 8805SOL    HW130777   5.593   3.212   3.532 -0.4580 -0.6431  0.0318
 8805SOL    HW230778   5.620   3.261   3.672 -2.5112  1.2352 -0.1873
 8806SOL     OW30779   0.780   0.372   6.896  0.0009  0.3206 -0.5887
 8806SOL    HW130780   0.710   0.436   6.909  0.3260  0.7611 -0.9800
 8806SOL    HW230781   0.740   0.303   6.843 -0.1188  0.6088 -0.8783
 8807SOL     OW30782   8.119   4.371   1.464 -0.0056  0.2303 -0.0615
 8807SOL    HW130783   8.196   4.331   1.505 -1.2463 -0.4205  1.7734
 8807SOL    HW230784   8.049   4.361   1.529 -1.3087  2.0837 -1.0600
 8808SOL     OW30785  10.786   1.535  10.009 -0.0424 -0.5118 -0.0502
 8808SOL    HW130786  10.700   1.521  10.048 -0.1985 -1.2639 -0.6347
 8808SOL    HW230787  10.832   1.452  10.023  0.2009 -0.4907 -0.7035
 8809SOL     OW30788   7.853  10.190   2.297 -0.2036 -0.1757 -0.7491
 8809SOL    HW130789   7.947  10.206   2.296  0.1485 -1.5724  1.7182
 8809SOL    HW230790   7.814  10.276   2.284  1.3981  0.5288 -1.1653
 8810SOL     OW30791  10.457   7.920   4.798  0.3375 -0.1119 -0.0883
 8810SOL    HW130792  10.366   7.940   4.775  0.1490 -0.5021  0.2831
 8810SOL    HW230793  10.510   7.967   4.734 -0.1710 -1.7346 -1.7820
 8811SOL     OW30794   3.749  10.221   4.451 -0.2898  0.1002 -0.2904
 8811SOL    HW130795   3.765  10.127   4.459  0.0476  0.1905  0.1420
 8811SOL    HW230796   3.728  10.235   4.359  1.4494 -0.1327 -0.7531
 8812SOL     OW30797   2.866   7.220   8.747 -0.3689 -0.0022 -0.0791
 8812SOL    HW130798   2.774   7.245   8.750 -0.2894  1.1145 -3.2461
 8812SOL    HW230799   2.864   7.126   8.731 -0.9413 -0.0116  0.0061
 8813SOL     OW30800   1.577  10.912   9.583 -0.6479 -0.2074 -0.0053
 8813SOL    HW130801   1.505  10.881   9.529  0.4098 -1.8087 -0.5605
 8813SOL    HW230802   1.553  10.887   9.672 -1.3930  0.5081  0.0092
 8814SOL     OW30803   6.563   1.674  10.568 -0.1884  0.0061  0.0957
 8814SOL    HW130804   6.474   1.638  10.567  0.1759 -0.9243  0.4347
 8814SOL    HW230805   6.594   1.657  10.657  0.6544 -0.5064 -0.2905
 8815SOL     OW30806   1.453   6.369   8.595  0.1607 -0.2432  0.2624
 8815SOL    HW130807   1.424   6.400   8.508 -0.1290  0.6305  0.6554
 8815SOL    HW230808   1.488   6.448   8.637  0.4053 -0.6907  0.9003
 8816SOL     OW30809   5.730   9.459   5.436  0.1096  0.8084  0.7543
 8816SOL    HW130810   5.784   9.538   5.439  0.3521  0.7600 -1.0498
 8816SOL    HW230811   5.640   9.491   5.440  0.2192  1.1071  0.8295
 8817SOL     OW30812  10.307  10.660  10.689 -0.2691 -0.2067 -0.1218
 8817SOL    HW130813  10.286  10.730  10.751 -1.4423 -1.9117  1.5221
 8817SOL    HW230814  10.402  10.661  10.682 -0.2768  1.9578 -0.7036
 8818SOL     OW30815   6.543   6.445   1.181 -0.1316 -0.5290 -0.0078
 8818SOL    HW130816   6.577   6.356   1.187  0.7959 -0.1695  0.3036
 8818SOL    HW230817   6.610   6.499   1.223 -0.5609  0.3446 -0.4125
 8819SOL     OW30818   3.318   6.296   0.808  0.2878  0.3942  0.0447
 8819SOL    HW130819   3.390   6.332   0.758  0.3807 -1.5115 -1.2854
 8819SOL    HW230820   3.249   6.281   0.744 -0.5367  0.2667  0.9359
 8820SOL     OW30821   3.292   7.822   6.415  0.1487 -0.0049  0.4004
 8820SOL    HW130822   3.320   7.809   6.506  1.0542  0.7568  0.2385
 8820SOL    HW230823   3.218   7.882   6.420 -0.2550 -0.5110  0.6750
 8821SOL     OW30824  10.616   5.160   0.301 -0.4390  0.0413  0.2888
 8821SOL    HW130825  10.658   5.101   0.363  1.2027  1.4893  0.6297
 8821SOL    HW230826  10.688   5.201   0.253 -1.6097  0.1518 -1.4815
 8822SOL     OW30827   6.820   0.801   4.000 -0.0882  0.2256 -0.4107
 8822SOL    HW130828   6.883   0.733   4.022  3.3165  3.2636  0.0534
 8822SOL    HW230829   6.811   0.796   3.905 -0.3219 -1.1294 -0.3397
 8823SOL     OW30830   9.915  10.888   2.191  0.0772 -0.0772  0.4582
 8823SOL    HW130831   9.910  10.924   2.102  0.6521  0.1221  0.5059
 8823SOL    HW230832   9.989  10.828   2.189  2.9872  3.0821  1.8717
 8824SOL     OW30833   5.107   4.768   5.171 -0.0305 -0.0720  0.2346
 8824SOL    HW130834   5.014   4.756   5.189 -0.0723 -1.4150 -0.7221
 8824SOL    HW230835   5.111   4.790   5.078  0.6605 -1.0393  0.0186
 8825SOL     OW30836   6.498  10.099   2.582 -0.1463 -0.3195 -0.8465
 8825SOL    HW130837   6.525  10.052   2.661  1.3576 -0.4986 -1.4176
 8825SOL    HW230838   6.546  10.182   2.586 -1.7282  0.6175 -0.5274
 8826SOL     OW30839   1.097   8.556   3.818 -0.4805  0.1411 -0.0201
 8826SOL    HW130840   1.072   8.464   3.834 -1.8440  0.1017 -1.9752
 8826SOL    HW230841   1.022   8.606   3.849  0.3573  0.6701  1.2523
 8827SOL     OW30842   1.279   7.041   9.290  0.1496  0.6104 -0.4839
 8827SOL    HW130843   1.247   7.114   9.342  0.2839 -0.5844  1.3428
 8827SOL    HW230844   1.201   7.006   9.247 -0.6043 -0.4851  1.6505
 8828SOL     OW30845   9.753   5.655   3.339  0.9770 -0.5552 -0.6995
 8828SOL    HW130846   9.842   5.646   3.305  1.4040 -0.8830  0.4521
 8828SOL    HW230847   9.761   5.635   3.432 -0.5568 -2.0072 -0.8370
 8829SOL     OW30848   3.638   4.934  10.930  0.3937 -0.4581 -0.1075
 8829SOL    HW130849   3.699   4.882  10.879  0.5966 -0.2172 -0.1131
 8829SOL    HW230850   3.621   5.011  10.876 -0.0978 -0.6386 -0.2083
 8830SOL     OW30851  10.646   6.870   7.252 -0.1972  0.1262 -0.3064
 8830SOL    HW130852  10.722   6.909   7.296 -1.0033 -0.1335  1.4210
 8830SOL    HW230853  10.652   6.900   7.162  1.0180  1.5381  0.2031
 8831SOL     OW30854   2.922   2.899   7.576 -0.5766 -0.3172  0.3555
 8831SOL    HW130855   2.830   2.883   7.555 -1.1455  1.9104  0.8808
 8831SOL    HW230856   2.971   2.843   7.516 -2.2570 -0.6024 -0.8039
 8832SOL     OW30857   9.349  10.245   7.989  0.1530  0.2298  0.0476
 8832SOL    HW130858   9.360  10.291   8.072 -0.6560 -0.5497  0.6044
 8832SOL    HW230859   9.259  10.264   7.963  0.5090  0.7591 -0.8493
 8833SOL     OW30860   2.595   5.890   5.468  0.5493  1.2667 -0.2276
 8833SOL    HW130861   2.579   5.796   5.479 -1.9713  1.7036  0.6383
 8833SOL    HW230862   2.688   5.897   5.446  1.4227 -1.2379  2.1579
 8834SOL     OW30863   4.809   0.533   4.760  0.6775 -1.0034  0.0223
 8834SOL    HW130864   4.888   0.565   4.716  0.3435 -0.8910 -0.5136
 8834SOL    HW230865   4.821   0.555   4.852 -0.0315  1.7603 -0.4418
 8835SOL     OW30866   6.683   2.667   0.773 -0.3345  0.0434  0.0401
 8835SOL    HW130867   6.705   2.629   0.688 -1.3583 -1.8152  0.5530
 8835SOL    HW230868   6.761   2.653   0.827 -0.4883 -0.8403  0.0456
 8836SOL     OW30869  10.621   5.735   3.228  0.1300 -0.1356  0.3292
 8836SOL    HW130870  10.590   5.808   3.174 -1.6178 -1.6823 -0.8671
 8836SOL    HW230871  10.702   5.706   3.185 -0.3392 -0.2626 -0.4863
 8837SOL     OW30872   2.339   6.960   9.575  0.5641  0.6237 -0.1471
 8837SOL    HW130873   2.309   6.896   9.640 -1.8177  1.3342 -0.4660
 8837SOL    HW230874   2.433   6.967   9.591  0.3983 -0.7576  1.8462
 8838SOL     OW30875   2.130   5.856   9.143 -0.1756 -0.2413 -0.9071
 8838SOL    HW130876   2.072   5.785   9.116  0.9018 -1.9885  1.0633
 8838SOL    HW230877   2.215   5.814   9.158  0.3259  1.2878  1.0061
 8839SOL     OW30878   1.446   1.748   8.379 -0.1669  0.2441  0.2783
 8839SOL    HW130879   1.459   1.811   8.308  0.2761  0.8110  0.8530
 8839SOL    HW230880   1.422   1.667   8.334 -0.4083  0.7230 -0.4945
 8840SOL     OW30881   0.448   8.902   6.906  0.9092 -0.2294 -0.4379
 8840SOL    HW130882   0.369   8.853   6.928  1.6599 -1.4239 -0.3459
 8840SOL    HW230883   0.435   8.988   6.947  0.2275 -0.8418  0.6767
 8841SOL     OW30884   0.263   6.749   5.130  0.0187  0.2154 -0.2107
 8841SOL    HW130885   0.181   6.717   5.091 -1.1759  0.3003  2.0220
 8841SOL    HW230886   0.332   6.708   5.079 -1.4376 -1.8142 -0.6713
 8842SOL     OW30887   8.041   4.994   5.268 -0.0801 -0.5021  0.4776
 8842SOL    HW130888   7.947   4.985   5.282  0.0491 -0.3845  1.5281
 8842SOL    HW230889   8.060   5.084   5.294  0.5651 -1.0085  1.8933
 8843SOL     OW30890   5.268  10.919   3.529  0.1067 -0.7812  0.1511
 8843SOL    HW130891   5.228  10.860   3.466 -0.6027 -0.6865  0.4972
 8843SOL    HW230892   5.362  10.909   3.516 -0.0178  0.5298 -2.1137
 8844SOL     OW30893   1.238   8.047   8.855 -0.6939  0.1214  0.0021
 8844SOL    HW130894   1.285   8.069   8.774  0.1192 -0.4495  0.3097
 8844SOL    HW230895   1.274   8.106   8.921  0.6731 -1.2752  0.5676
 8845SOL     OW30896   2.699   6.752   1.944 -0.4796 -0.2486 -0.5913
 8845SOL    HW130897   2.640   6.810   1.896 -1.0985  0.4325  0.9403
 8845SOL    HW230898   2.778   6.804   1.959 -1.6217  0.8362  2.1454
 8846SOL     OW30899   5.747   5.758   1.548  0.6169  0.2382 -0.1936
 8846SOL    HW130900   5.824   5.815   1.548 -0.7136  2.1501  0.9136
 8846SOL    HW230901   5.760   5.701   1.623  1.5175 -0.3095 -0.7466
 8847SOL     OW30902   1.656   4.410   9.011  0.1359 -0.1878  0.1128
 8847SOL    HW130903   1.601   4.483   9.039  0.5434 -0.1206  0.7688
 8847SOL    HW230904   1.705   4.445   8.937 -2.5220 -1.0345 -2.2009
 8848SOL     OW30905   8.684   0.990  10.990 -0.0509 -0.3644  0.1710
 8848SOL    HW130906   8.671   1.084  10.978 -0.3422 -0.5505 -1.1742
 8848SOL    HW230907   8.627   0.966  11.063  0.6841  0.6463  1.0891
 8849SOL     OW30908   3.604  10.780   6.061  0.3467 -0.5689 -0.0923
 8849SOL    HW130909   3.620  10.848   5.995 -0.1672 -1.2079 -0.8906
 8849SOL    HW230910   3.517  10.800   6.096 -0.8319 -2.0801 -1.9569
 8850SOL     OW30911   2.316   5.981   5.404  0.1101  0.2502 -0.1109
 8850SOL    HW130912   2.332   6.061   5.354  0.0574  0.6599  0.5170
 8850SOL    HW230913   2.400   5.936   5.406 -0.2181 -0.5254 -1.8402
 8851SOL     OW30914   5.635   4.519   6.231  0.1006  0.5513  0.2587
 8851SOL    HW130915   5.643   4.591   6.168 -0.4707  0.2607 -0.1557
 8851SOL    HW230916   5.612   4.443   6.178  0.4958  0.1010  0.7186
 8852SOL     OW30917   1.247   1.539   6.507 -0.3676 -0.5551 -0.1195
 8852SOL    HW130918   1.288   1.626   6.512 -1.3968  0.0284 -1.3357
 8852SOL    HW230919   1.290   1.497   6.432  1.7332 -2.0265  1.7772
 8853SOL     OW30920   4.127   5.425   7.587  0.1283 -0.1297 -0.0764
 8853SOL    HW130921   4.156   5.353   7.532  1.6704  0.1698  0.2814
 8853SOL    HW230922   4.066   5.475   7.533 -1.6871 -2.1765 -0.0162
 8854SOL     OW30923   9.300  10.625   2.981  0.0816 -0.6284 -0.3118
 8854SOL    HW130924   9.252  10.555   3.025 -2.3380 -0.3296 -2.2649
 8854SOL    HW230925   9.260  10.705   3.015 -0.3925 -0.3576 -1.4758
 8855SOL     OW30926   1.504   7.836   6.828 -0.4330  0.0221 -0.4105
 8855SOL    HW130927   1.540   7.799   6.909 -0.0873 -0.1104 -0.6178
 8855SOL    HW230928   1.581   7.868   6.781 -0.8220  2.0632  0.2742
 8856SOL     OW30929   1.507   1.221   8.782 -0.3168 -0.6256 -0.1287
 8856SOL    HW130930   1.517   1.293   8.845  0.5679 -2.0250  1.4171
 8856SOL    HW230931   1.498   1.143   8.837  1.7653 -2.0851 -1.7109
 8857SOL     OW30932   6.128   3.080   6.697 -0.4116  0.1240 -0.2671
 8857SOL    HW130933   6.081   3.119   6.769  0.8503  2.1140 -0.4446
 8857SOL    HW230934   6.123   2.986   6.713 -1.5911  0.4375  1.4559
 8858SOL     OW30935  10.740   3.328   8.761  0.4466  0.4861 -0.1599
 8858SOL    HW130936  10.663   3.306   8.708  0.9930 -1.2595 -0.3022
 8858SOL    HW230937  10.792   3.247   8.763  1.3151  1.0305  1.5757
 8859SOL     OW30938  11.074   8.971   4.679  0.2414 -0.0664  0.3636
 8859SOL    HW130939  11.145   8.999   4.621 -0.3413 -0.9300 -0.8118
 8859SOL    HW230940  11.057   9.047   4.734  0.2445  1.1035 -1.1803
 8860SOL     OW30941   4.249  10.372   3.032  0.9845 -0.4999  0.0657
 8860SOL    HW130942   4.215  10.452   2.992  0.8608 -0.7068 -0.2443
 8860SOL    HW230943   4.285  10.401   3.116 -0.2899 -0.3203  0.5731
 8861SOL     OW30944   3.970   0.863   3.550 -0.7411  0.6136 -0.4937
 8861SOL    HW130945   3.929   0.781   3.522 -1.7205  1.2827 -1.0925
 8861SOL    HW230946   3.896   0.921   3.570 -0.0661  1.2414  0.2657
 8862SOL     OW30947   5.850   2.390   5.751 -0.1638 -0.5973 -0.0268
 8862SOL    HW130948   5.912   2.424   5.816  0.1280  0.8116 -0.9999
 8862SOL    HW230949   5.852   2.295   5.763  0.8003 -0.4488  1.1869
 8863SOL     OW30950   8.123   2.438   0.293  0.0396 -0.4389 -0.0068
 8863SOL    HW130951   8.110   2.517   0.345  0.2473  0.6087 -1.4695
 8863SOL    HW230952   8.160   2.469   0.210  1.7674 -2.2460 -0.0030
 8864SOL     OW30953   6.122   8.832   9.258 -0.3718 -0.3272  0.0550
 8864SOL    HW130954   6.190   8.765   9.270 -0.6670 -0.3696  1.6675
 8864SOL    HW230955   6.103   8.863   9.346 -0.1816  1.9943 -0.6535
 8865SOL     OW30956   1.154  10.855   4.745 -0.0505  0.1559  0.0920
 8865SOL    HW130957   1.241  10.893   4.738 -0.4839  1.3038  0.6520
 8865SOL    HW230958   1.162  10.768   4.706  0.6434  1.3479 -2.6474
 8866SOL     OW30959   4.184  10.365  10.586 -0.0338 -0.1664 -0.1660
 8866SOL    HW130960   4.140  10.448  10.602  2.1101  0.8906  0.6464
 8866SOL    HW230961   4.199  10.363  10.492  1.2590  1.1392 -0.0175
 8867SOL     OW30962   1.898   7.535   4.264 -0.4664  0.6343  0.4000
 8867SOL    HW130963   1.826   7.569   4.211  0.3117 -0.2077 -1.2790
 8867SOL    HW230964   1.941   7.470   4.207 -0.4587 -1.3832  2.5881
 8868SOL     OW30965   1.536   6.407   7.763 -0.4313  0.1047 -0.8711
 8868SOL    HW130966   1.453   6.421   7.808 -0.2034 -0.5252 -0.2165
 8868SOL    HW230967   1.526   6.322   7.719 -0.1346  0.0080 -0.7605
 8869SOL     OW30968   7.842   6.362   4.406  0.9521  0.1288  0.0768
 8869SOL    HW130969   7.854   6.344   4.313 -2.1455  1.1789 -0.6338
 8869SOL    HW230970   7.776   6.299   4.435  0.6341  0.9256  1.1446
 8870SOL     OW30971   3.078   6.148   0.693 -0.0974  0.0739 -0.1888
 8870SOL    HW130972   3.110   6.150   0.603 -1.0986 -0.4603 -0.5679
 8870SOL    HW230973   3.055   6.057   0.709 -1.1615  0.3804  0.1494
 8871SOL     OW30974   4.468   7.993   4.591  0.3372  0.1768  0.6156
 8871SOL    HW130975   4.547   7.993   4.537 -0.1558  1.3526 -0.1346
 8871SOL    HW230976   4.499   8.007   4.680  0.8962  2.2832  0.1414
 8872SOL     OW30977   2.659   5.405   4.709  0.6357  0.3277 -0.2628
 8872SOL    HW130978   2.693   5.429   4.623  2.5717  0.6221  0.5441
 8872SOL    HW230979   2.693   5.318   4.726  0.4610  0.3656  0.3086
 8873SOL     OW30980   9.648   2.249   9.260  0.1703  0.7790  0.4078
 8873SOL    HW130981   9.556   2.226   9.248  0.9952 -2.1114 -1.2027
 8873SOL    HW230982   9.646   2.342   9.283 -3.0492  1.1976 -1.0097
 8874SOL     OW30983   0.286  10.979   9.062 -0.3352 -0.3025  0.3926
 8874SOL    HW130984   0.256  10.896   9.025  1.0223  0.1767 -1.9363
 8874SOL    HW230985   0.372  10.959   9.098 -0.9373 -0.3668  1.8750
 8875SOL     OW30986   9.784   2.120   9.452  0.5948 -0.0074  0.1371
 8875SOL    HW130987   9.747   2.188   9.395  0.8701 -0.6715 -0.8451
 8875SOL    HW230988   9.813   2.168   9.529 -0.7348  0.7684  0.1898
 8876SOL     OW30989   2.326  11.096   0.843  0.3621  0.6610 -0.3864
 8876SOL    HW130990   2.383  11.052   0.905 -0.4314  0.5832  0.3090
 8876SOL    HW230991   2.381  11.111   0.766  1.2394  0.3804  0.1713
 8877SOL     OW30992   3.049  10.823   1.762  0.2285  0.1178  0.7845
 8877SOL    HW130993   3.072  10.797   1.851  0.3781  1.1964  1.0752
 8877SOL    HW230994   3.101  10.765   1.706  1.7409  0.7778  1.4270
 8878SOL     OW30995   3.785  10.651   6.876 -0.0504 -0.3282 -0.2107
 8878SOL    HW130996   3.773  10.646   6.781  0.2061 -0.6875 -0.2258
 8878SOL    HW230997   3.768  10.743   6.898 -1.6342 -0.5563 -0.3908
 8879SOL     OW30998   1.942   2.671   4.770  0.4704  0.0832  0.2835
 8879SOL    HW130999   1.913   2.732   4.702  0.1802  0.2874  0.5889
 8879SOL    HW231000   1.982   2.728   4.837 -1.0999  0.0989  1.2599
 8880SOL     OW31001   6.336   5.836   2.605 -0.0696  0.3850  0.1244
 8880SOL    HW131002   6.314   5.763   2.548 -0.7782  0.4650  0.2946
 8880SOL    HW231003   6.253   5.879   2.624  0.4773  2.1159 -1.1402
 8881SOL     OW31004   8.802   4.744  10.571  0.4403  0.2701  0.2372
 8881SOL    HW131005   8.855   4.801  10.626  0.8159 -0.0539  0.2115
 8881SOL    HW231006   8.808   4.782  10.484  0.9763 -0.0020  0.1505
 8882SOL     OW31007   4.118   6.262   2.924 -0.4874  0.0891  0.2219
 8882SOL    HW131008   4.035   6.304   2.947 -1.6344 -1.8101 -0.3084
 8882SOL    HW231009   4.146   6.306   2.844  0.7803  2.9952  2.0692
 8883SOL     OW31010   1.167   9.260   9.775 -0.1436  0.3676 -0.0257
 8883SOL    HW131011   1.110   9.331   9.807  2.3331  2.1802  0.6709
 8883SOL    HW231012   1.195   9.214   9.854  0.6177  0.5514 -0.1764
 8884SOL     OW31013   1.172  10.120   0.174 -0.4871  0.3315  0.0431
 8884SOL    HW131014   1.089  10.120   0.127 -0.3398 -0.5091 -0.2192
 8884SOL    HW231015   1.147  10.120   0.267 -0.7904  2.8413  0.0472
 8885SOL     OW31016   1.754   1.680   7.300 -0.0434 -0.3470  0.5035
 8885SOL    HW131017   1.661   1.662   7.290 -0.1306 -0.4254  1.3576
 8885SOL    HW231018   1.797   1.619   7.240 -0.5383 -0.3036  0.0996
 8886SOL     OW31019   1.044   7.908   0.355  0.2920  0.0328 -0.0067
 8886SOL    HW131020   0.986   7.835   0.335  0.0853 -0.1968  1.3265
 8886SOL    HW231021   0.987   7.976   0.389  0.4233  1.0293 -1.6709
 8887SOL     OW31022   4.854   0.556   2.560 -0.1935 -0.4190  0.6840
 8887SOL    HW131023   4.823   0.645   2.579 -1.2537 -0.4746 -0.6529
 8887SOL    HW231024   4.826   0.505   2.636  0.2475  0.3336  1.3747
 8888SOL     OW31025   0.741   2.380   5.560  0.1230 -1.2793  0.1530
 8888SOL    HW131026   0.695   2.377   5.476  0.6682  1.8796 -0.3738
 8888SOL    HW231027   0.691   2.443   5.612  1.5894 -0.7401  0.9738
 8889SOL     OW31028   2.842   0.391   3.022  0.6396 -0.3188  0.7687
 8889SOL    HW131029   2.830   0.365   2.931 -1.2150  1.3869  0.4513
 8889SOL    HW231030   2.794   0.326   3.073 -0.4300  0.0955  0.3123
 8890SOL     OW31031   2.258   8.856  10.490 -0.2377 -0.4538  0.2971
 8890SOL    HW131032   2.321   8.928  10.487 -1.9451  1.1124 -0.1226
 8890SOL    HW231033   2.249   8.829  10.399 -2.0800  1.1558 -0.0599
 8891SOL     OW31034   4.607   4.898   2.996 -0.3776  0.1173  0.2086
 8891SOL    HW131035   4.593   4.808   3.025  0.5719  0.1339  0.7441
 8891SOL    HW231036   4.677   4.931   3.052 -0.0779  0.8934 -0.5964
 8892SOL     OW31037   3.132   6.231   1.229 -0.1720 -0.6615  0.0719
 8892SOL    HW131038   3.202   6.274   1.179 -0.9185  0.2968 -0.1721
 8892SOL    HW231039   3.079   6.187   1.163 -0.9254  0.2673  0.0347
 8893SOL     OW31040   1.977   6.517   2.876  0.1238 -0.0926 -0.1380
 8893SOL    HW131041   1.986   6.468   2.794 -2.9905  0.7385 -1.1195
 8893SOL    HW231042   1.902   6.476   2.920  0.7909  0.4603  1.6066
 8894SOL     OW31043   6.275   5.062   7.363 -0.1592 -0.4744 -0.3565
 8894SOL    HW131044   6.235   4.998   7.304  0.6868 -0.8561 -0.5457
 8894SOL    HW231045   6.350   5.015   7.401  0.4926  0.4143 -0.5196
 8895SOL     OW31046   1.409   6.744  10.169 -0.2967  0.2062  0.6269
 8895SOL    HW131047   1.463   6.819  10.143 -0.0809  0.0539  0.6345
 8895SOL    HW231048   1.342   6.738  10.100  0.5358 -0.4668 -0.1523
 8896SOL     OW31049   5.780  10.003   8.187  0.1114  0.1651  0.5246
 8896SOL    HW131050   5.823   9.930   8.232 -0.2127  0.3263  1.1154
 8896SOL    HW231051   5.690   9.973   8.174  0.0948  0.2851  0.3724
 8897SOL     OW31052   5.796   6.142   7.096  0.8935 -0.4061 -0.7276
 8897SOL    HW131053   5.840   6.174   7.017  2.2642 -0.3231  0.0375
 8897SOL    HW231054   5.768   6.221   7.142  0.7426 -0.4344 -0.7690
 8898SOL     OW31055   9.741   4.611   0.281  0.2684  0.7544 -0.3848
 8898SOL    HW131056   9.723   4.518   0.299  0.5879  0.7337 -0.1473
 8898SOL    HW231057   9.655   4.652   0.275  0.1208  0.3958 -0.7333
 8899SOL     OW31058   5.914   7.337   8.455  0.5095  0.4860  0.0195
 8899SOL    HW131059   5.831   7.342   8.408  1.2843  1.4709 -1.3091
 8899SOL    HW231060   5.977   7.378   8.397  1.8260  0.3265  1.2754
 8900SOL     OW31061  10.667   7.995   4.196 -0.1058 -0.4421  0.1045
 8900SOL    HW131062  10.637   8.085   4.210 -1.8977 -0.9068 -0.4997
 8900SOL    HW231063  10.639   7.948   4.274 -1.6484 -1.0316 -0.7716
 8901SOL     OW31064   5.934   2.994   1.285  0.0605  0.1804 -0.1941
 8901SOL    HW131065   5.995   3.061   1.317  0.7190  0.0745 -1.1809
 8901SOL    HW231066   5.864   2.992   1.350  1.7668 -0.6670  1.7223
 8902SOL     OW31067   5.443   6.866   7.422 -0.4855  0.3155  0.2444
 8902SOL    HW131068   5.397   6.877   7.339 -1.0707  0.6057  0.5966
 8902SOL    HW231069   5.375   6.839   7.483  0.3653 -2.4937  0.0841
 8903SOL     OW31070   0.732  10.489   5.767  0.1082  0.0959  0.3424
 8903SOL    HW131071   0.691  10.463   5.684  2.2664  0.7860 -1.0486
 8903SOL    HW231072   0.715  10.584   5.772 -1.1507 -0.1619  1.4234
 8904SOL     OW31073   5.569   4.262   6.679 -0.0648  0.6594 -0.1562
 8904SOL    HW131074   5.516   4.340   6.663 -2.3816 -0.4564  1.6059
 8904SOL    HW231075   5.657   4.296   6.695 -0.8881  2.8611 -0.0304
 8905SOL     OW31076   3.019   9.885  10.998 -1.0409 -0.3031  0.2060
 8905SOL    HW131077   3.074   9.826  11.050  2.2434  1.4166 -1.0390
 8905SOL    HW231078   3.011   9.964  11.052 -0.1307  0.3807 -0.6323
 8906SOL     OW31079   1.688   5.852   8.245  0.4467  0.0295  0.1528
 8906SOL    HW131080   1.653   5.938   8.269  0.0586 -0.4642  1.4224
 8906SOL    HW231081   1.614   5.792   8.259  1.0454 -0.6690  0.3427
 8907SOL     OW31082   2.258   8.938  10.866  0.4613  0.2681 -0.1698
 8907SOL    HW131083   2.314   8.906  10.796 -0.4350 -1.9977  0.0601
 8907SOL    HW231084   2.234   8.860  10.916 -1.5438  1.3539  0.7277
 8908SOL     OW31085   3.157  10.790   7.470  0.1440  0.0738 -0.0904
 8908SOL    HW131086   3.167  10.710   7.418  0.1973 -0.3034  0.4922
 8908SOL    HW231087   3.178  10.860   7.409  1.2418 -0.4121 -0.2990
 8909SOL     OW31088   2.984  10.513   0.749 -0.0390 -0.2154 -0.1808
 8909SOL    HW131089   3.040  10.446   0.710  0.1900  1.5000 -3.1174
 8909SOL    HW231090   3.039  10.591   0.752 -0.8230  0.3109  1.5035
 8910SOL     OW31091   1.451   3.566   3.729  0.0598  0.0985  0.0679
 8910SOL    HW131092   1.546   3.558   3.740  0.0356 -0.1881  0.0692
 8910SOL    HW231093   1.434   3.535   3.640  0.1670  1.7450 -0.5487
 8911SOL     OW31094   6.618   2.246   8.276 -0.4194 -0.3538 -0.6609
 8911SOL    HW131095   6.534   2.237   8.321 -0.9886 -0.0597 -1.6520
 8911SOL    HW231096   6.647   2.335   8.298 -0.0482 -0.6755  0.1990
 8912SOL     OW31097   9.795   8.812   1.058  0.1553 -0.1780  0.3283
 8912SOL    HW131098   9.761   8.894   1.023  1.8289  0.2934 -0.2764
 8912SOL    HW231099   9.869   8.838   1.113 -1.0632 -1.0710  2.5270
 8913SOL     OW31100  10.411   1.119   6.502 -0.2353 -0.2705  0.4725
 8913SOL    HW131101  10.489   1.090   6.454  0.0886  0.7698  0.3461
 8913SOL    HW231102  10.422   1.214   6.511 -0.9926 -0.2522  1.3534
 8914SOL     OW31103   7.836   6.348   9.000 -0.0437  0.0207  0.0511
 8914SOL    HW131104   7.830   6.253   9.008 -0.1210  0.0920  1.1035
 8914SOL    HW231105   7.745   6.378   8.997 -0.0169  0.0466 -0.5088
 8915SOL     OW31106   7.812   0.471   5.883  0.2415 -0.6028  0.1260
 8915SOL    HW131107   7.896   0.461   5.839 -0.3477  0.1945 -1.2272
 8915SOL    HW231108   7.801   0.389   5.931  0.7434 -1.6841 -1.5105
 8916SOL     OW31109   5.596   0.205   3.819  0.0591  0.2723  0.5184
 8916SOL    HW131110   5.579   0.295   3.791 -2.2340 -0.2175  0.2141
 8916SOL    HW231111   5.687   0.208   3.851  0.6738  2.2476 -1.1526
 8917SOL     OW31112   0.107   8.649   6.020  0.0008 -0.2634 -0.6083
 8917SOL    HW131113   0.148   8.678   6.101 -3.1486 -1.3983  1.5793
 8917SOL    HW231114   0.070   8.729   5.982 -1.0065 -0.0859  0.6749
 8918SOL     OW31115   3.328   7.006  10.265  0.6442  0.6610  0.0542
 8918SOL    HW131116   3.281   6.944  10.320  1.1345  0.2951  0.0726
 8918SOL    HW231117   3.369   7.067  10.326  0.9278  0.4436  0.0844
 8919SOL     OW31118  10.185   1.403   5.991  0.7262 -0.1113  0.5829
 8919SOL    HW131119  10.218   1.371   6.075  0.7096 -2.0551 -0.0882
 8919SOL    HW231120  10.098   1.437   6.010  0.5670 -0.8899  1.3031
 8920SOL     OW31121   0.087   4.612   9.137 -0.2149 -0.1895 -0.1144
 8920SOL    HW131122   0.033   4.593   9.213 -0.1351  1.1266  0.3129
 8920SOL    HW231123   0.165   4.557   9.148 -0.8773 -1.1280 -0.0540
 8921SOL     OW31124   8.614   4.247   7.826  0.4864  0.0260 -0.1227
 8921SOL    HW131125   8.620   4.267   7.732  0.4929  0.4588 -0.0338
 8921SOL    HW231126   8.649   4.325   7.869 -0.7437  0.3769  0.2721
 8922SOL     OW31127   6.680   4.596   2.097  0.3513 -0.1568 -0.1915
 8922SOL    HW131128   6.591   4.579   2.129 -0.2430  0.2396 -1.5618
 8922SOL    HW231129   6.686   4.544   2.016  0.5116  1.6424 -1.3860
 8923SOL     OW31130   9.068   5.712   6.602 -0.3194 -0.3714  0.3884
 8923SOL    HW131131   9.019   5.660   6.666 -0.0011  0.0706  1.0096
 8923SOL    HW231132   9.030   5.799   6.607 -0.4726 -0.3993 -0.2329
 8924SOL     OW31133   7.920   0.781   0.379 -0.1463  0.4951 -0.5729
 8924SOL    HW131134   7.931   0.810   0.470 -0.2688  0.1687 -0.4522
 8924SOL    HW231135   7.950   0.855   0.327 -0.1285  0.7085 -0.2659
 8925SOL     OW31136   4.196   7.051  10.955 -0.3011  0.3802 -0.3169
 8925SOL    HW131137   4.254   7.104  11.009 -0.1735 -0.0781  0.0064
 8925SOL    HW231138   4.249   7.027  10.878 -0.0869  0.0345 -0.0642
 8926SOL     OW31139   1.515  10.227   5.488 -0.5620 -0.0004 -0.4186
 8926SOL    HW131140   1.488  10.163   5.554  0.5823 -1.5981 -1.4352
 8926SOL    HW231141   1.585  10.277   5.530 -0.3553 -0.4991 -0.1567
 8927SOL     OW31142   7.367   1.641   8.830 -0.3261  0.3427 -0.5011
 8927SOL    HW131143   7.357   1.573   8.896 -2.4628  1.0540 -0.0170
 8927SOL    HW231144   7.295   1.626   8.768  0.2573  1.0813 -1.3926
 8928SOL     OW31145   1.786  10.132   6.439 -0.6501 -0.1003 -0.4122
 8928SOL    HW131146   1.722  10.075   6.397 -0.4705  0.0154 -0.8447
 8928SOL    HW231147   1.861  10.132   6.380  0.3390 -1.3891  0.7844
 8929SOL     OW31148   3.631   4.520   3.716 -0.6786  0.1424 -0.3681
 8929SOL    HW131149   3.661   4.511   3.806 -1.6588 -0.7920 -0.1129
 8929SOL    HW231150   3.621   4.614   3.703 -1.8500  0.2304  0.9581
 8930SOL     OW31151   7.852  10.181   9.291 -0.5559  0.0326 -0.1988
 8930SOL    HW131152   7.823  10.136   9.370 -1.9238 -2.1596 -1.8565
 8930SOL    HW231153   7.772  10.210   9.249  0.1347  0.8866 -0.9755
 8931SOL     OW31154   4.598   8.756   1.329  0.2007  0.5840  0.0575
 8931SOL    HW131155   4.637   8.781   1.246 -0.7952  2.4637  0.1082
 8931SOL    HW231156   4.538   8.685   1.307  0.9170  0.1530 -0.5786
 8932SOL     OW31157   3.004   6.534   0.502  0.6692 -0.1323 -0.8135
 8932SOL    HW131158   2.967   6.622   0.494  0.9146  0.1391  0.7232
 8932SOL    HW231159   2.930   6.476   0.483  0.0259  0.4110 -0.0600
 8933SOL     OW31160   4.793   7.654   1.914  0.2429  0.6445  0.6691
 8933SOL    HW131161   4.733   7.608   1.855  1.7538 -1.1968  0.4783
 8933SOL    HW231162   4.746   7.656   1.998  0.4568 -2.2241  0.9628
 8934SOL     OW31163   3.074   8.653   3.576  0.1949  0.4676  1.0507
 8934SOL    HW131164   3.066   8.684   3.486  0.6286 -0.0766  0.8247
 8934SOL    HW231165   3.167   8.662   3.597  0.3398 -0.7096  0.9664
 8935SOL     OW31166   8.622   2.715   4.293  0.0269  0.0286  0.2481
 8935SOL    HW131167   8.622   2.667   4.375  1.8621 -0.1287  0.1959
 8935SOL    HW231168   8.532   2.745   4.283 -0.0823  0.6999  2.6792
 8936SOL     OW31169  11.040   5.397   4.923 -0.0538 -0.1871 -0.2082
 8936SOL    HW131170  11.109   5.453   4.959 -0.6438  0.2918  0.1755
 8936SOL    HW231171  10.966   5.455   4.907 -0.1727 -0.5809 -1.2112
 8937SOL     OW31172   0.332   4.168   3.345  0.2093  0.3120 -0.7677
 8937SOL    HW131173   0.353   4.165   3.439  0.8693 -0.1882 -0.9216
 8937SOL    HW231174   0.238   4.149   3.341  0.5714 -1.7975 -0.3317
 8938SOL     OW31175   6.327   2.018   4.684 -0.3172 -0.1486 -0.0174
 8938SOL    HW131176   6.304   2.023   4.776 -0.3296 -1.5598  0.0668
 8938SOL    HW231177   6.283   2.094   4.645 -0.0530  0.6367  1.1688
 8939SOL     OW31178   1.595   8.753   4.857  0.5945 -0.4613 -0.0386
 8939SOL    HW131179   1.562   8.774   4.770  0.8702 -1.9257 -0.5195
 8939SOL    HW231180   1.547   8.675   4.883 -0.4248  0.6709  1.7013
 8940SOL     OW31181   7.063   0.227   3.523 -0.5240 -0.3157  0.1674
 8940SOL    HW131182   7.114   0.302   3.556 -2.2789  0.9425  0.1436
 8940SOL    HW231183   7.086   0.156   3.582 -1.4384  1.1554  2.4560
 8941SOL     OW31184  10.494   7.186   7.274 -0.0735  0.2303  0.0992
 8941SOL    HW131185  10.413   7.193   7.326 -0.3437  0.3814 -0.3352
 8941SOL    HW231186  10.492   7.096   7.240  0.3027  0.0051  0.6694
 8942SOL     OW31187   0.225   2.266   1.588 -0.0925  0.0437 -0.0931
 8942SOL    HW131188   0.220   2.247   1.495 -0.6149 -0.9874  0.1330
 8942SOL    HW231189   0.311   2.234   1.615  0.7850  1.9122 -0.5402
 8943SOL     OW31190   3.173   1.370   5.339  0.1364  0.0651  0.8965
 8943SOL    HW131191   3.169   1.463   5.361 -1.4266  0.3709 -0.4585
 8943SOL    HW231192   3.096   1.332   5.380  1.4470 -0.9642  2.5683
 8944SOL     OW31193   5.005   8.896   4.202  0.4342 -0.6149  0.6705
 8944SOL    HW131194   4.910   8.886   4.193  0.5199 -2.4936  1.3202
 8944SOL    HW231195   5.020   8.894   4.297  1.1023 -0.0645  0.5795
 8945SOL     OW31196   1.347   9.947  10.241  0.1384  0.6096  0.4701
 8945SOL    HW131197   1.287   9.906  10.304  1.2580  1.7665  2.3823
 8945SOL    HW231198   1.420   9.886  10.234 -0.6138 -0.1853 -0.8614
 8946SOL     OW31199   3.635   9.289   5.578  0.1984 -0.1416  0.4489
 8946SOL    HW131200   3.649   9.338   5.659  0.4525 -0.0725  0.3649
 8946SOL    HW231201   3.609   9.356   5.514  0.3393 -0.1441  0.3868
 8947SOL     OW31202   2.642   2.490   8.481 -0.1446  0.1962 -0.2283
 8947SOL    HW131203   2.586   2.519   8.554 -0.8479  0.1282 -0.7319
 8947SOL    HW231204   2.711   2.440   8.523 -0.5441  0.1569  0.4022
 8948SOL     OW31205   5.763   6.289   5.734 -0.0137 -0.1500 -0.5561
 8948SOL    HW131206   5.842   6.343   5.733  0.7773 -1.2353  0.2837
 8948SOL    HW231207   5.795   6.201   5.756 -1.6723 -0.2104  2.0150
 8949SOL     OW31208   7.391  10.343   0.419  0.5878  0.0527  0.4951
 8949SOL    HW131209   7.416  10.341   0.511 -0.2122  1.0253  0.7538
 8949SOL    HW231210   7.297  10.325   0.419  0.8204 -1.2509 -0.2542
 8950SOL     OW31211   3.025   8.497   4.788 -0.0659 -0.3829  0.3032
 8950SOL    HW131212   3.065   8.423   4.742  1.1967 -0.2209  1.0982
 8950SOL    HW231213   2.995   8.461   4.871  2.1351  0.3032  1.4582
 8951SOL     OW31214   2.136   8.613   2.659  0.3156 -0.3222  0.3264
 8951SOL    HW131215   2.227   8.622   2.686  0.3944 -1.4158  0.4739
 8951SOL    HW231216   2.090   8.684   2.704  1.3596  1.3626 -1.1373
 8952SOL     OW31217  10.586   1.158  10.435  0.6948 -0.1837 -0.1273
 8952SOL    HW131218  10.575   1.223  10.366  1.1178 -0.8200 -0.8172
 8952SOL    HW231219  10.627   1.083  10.391  3.8286  0.4928  1.3683
 8953SOL     OW31220   5.357   7.608   6.387  0.1168  0.2325 -0.3284
 8953SOL    HW131221   5.450   7.594   6.372  0.1804  0.9569 -0.6490
 8953SOL    HW231222   5.348   7.610   6.483 -0.3051 -4.4607 -0.0579
 8954SOL     OW31223   1.378   3.913   2.815 -0.3341  0.2185  0.2302
 8954SOL    HW131224   1.469   3.884   2.810 -0.8576 -1.2890 -3.6430
 8954SOL    HW231225   1.329   3.835   2.841 -0.7286  0.5416  0.4724
 8955SOL     OW31226   1.075   0.734   1.605  0.2530  0.5007  0.0625
 8955SOL    HW131227   1.041   0.646   1.587  0.9668  0.4750 -1.2755
 8955SOL    HW231228   1.001   0.792   1.592  0.0716  0.2057 -0.2354
 8956SOL     OW31229   0.695  10.077   1.078  0.2122 -0.4897 -0.0960
 8956SOL    HW131230   0.670  10.141   1.145 -0.7482 -1.7262  0.7679
 8956SOL    HW231231   0.638  10.096   1.004  0.2889 -0.0248 -0.0409
 8957SOL     OW31232   9.899   3.215   6.338  0.1977  0.5914 -0.2236
 8957SOL    HW131233   9.840   3.266   6.394  0.3204  0.6738 -0.1689
 8957SOL    HW231234   9.982   3.214   6.386  0.6126  1.5675 -0.9054
 8958SOL     OW31235   2.327   2.572   2.178  0.3693 -0.2519  0.4167
 8958SOL    HW131236   2.243   2.617   2.182  0.1774 -0.6244  0.6388
 8958SOL    HW231237   2.389   2.639   2.151 -0.3109 -0.3912 -1.6935
 8959SOL     OW31238   0.417   6.408   8.549 -0.7472  0.1752  0.0224
 8959SOL    HW131239   0.359   6.483   8.533 -0.7749  0.1030 -0.2249
 8959SOL    HW231240   0.502   6.437   8.516 -0.6190  0.3140  0.4668
 8960SOL     OW31241   9.455   7.875   0.237 -0.5219  0.2572 -0.6759
 8960SOL    HW131242   9.418   7.891   0.324 -0.5286  0.0865 -0.6469
 8960SOL    HW231243   9.428   7.951   0.185 -0.0718  0.6174 -0.3882
 8961SOL     OW31244   7.056   3.262   5.679  0.3023  0.2871 -0.4702
 8961SOL    HW131245   7.024   3.349   5.701 -0.6482 -0.2615  0.4603
 8961SOL    HW231246   6.992   3.227   5.617 -0.5535 -0.5419  0.8327
 8962SOL     OW31247   7.415   5.851   5.908 -0.0285 -0.0115  0.9605
 8962SOL    HW131248   7.465   5.832   5.987  2.1534  0.7278 -0.1664
 8962SOL    HW231249   7.357   5.922   5.932  0.4629  0.0651  1.9578
 8963SOL     OW31250   6.893   2.054   2.598 -0.4422 -0.4121 -0.1516
 8963SOL    HW131251   6.834   2.041   2.523 -0.2506 -1.9362 -0.0657
 8963SOL    HW231252   6.865   1.990   2.662  2.1715 -2.2176 -0.6559
 8964SOL     OW31253   5.185   1.337   0.700 -1.0107 -0.4564  0.2451
 8964SOL    HW131254   5.213   1.419   0.742 -3.5481  0.4450  0.3389
 8964SOL    HW231255   5.121   1.300   0.761 -0.0673 -2.4832  0.1083
 8965SOL     OW31256   2.841   9.962  10.617 -0.2470 -0.4713 -0.1091
 8965SOL    HW131257   2.761   9.910  10.610  0.5718 -1.7403 -0.3383
 8965SOL    HW231258   2.905   9.904  10.657  0.0141  1.2133  2.1431
 8966SOL     OW31259   9.983   2.525   8.348  0.3240  0.2722 -0.4398
 8966SOL    HW131260   9.915   2.458   8.351  0.3940  0.1186 -1.8401
 8966SOL    HW231261  10.061   2.481   8.383 -0.4670  0.7540  2.1893
 8967SOL     OW31262   0.350   2.352   3.817 -0.5242 -0.0493 -0.0282
 8967SOL    HW131263   0.360   2.407   3.895 -1.4993 -0.1934  0.2090
 8967SOL    HW231264   0.342   2.414   3.744  2.0913  0.0871 -0.2812
 8968SOL     OW31265   9.256   5.799   6.883  0.2048  0.9395  0.0976
 8968SOL    HW131266   9.212   5.787   6.967  0.1664  2.2899  0.3048
 8968SOL    HW231267   9.190   5.773   6.818 -0.4122  1.5671  0.4478
 8969SOL     OW31268   5.445   8.029  11.102  0.2407  0.0125 -0.4669
 8969SOL    HW131269   5.415   8.119  11.113  0.9762  0.0162  2.3226
 8969SOL    HW231270   5.382   7.976  11.150  0.6773 -0.7813 -0.7420
 8970SOL     OW31271  10.225   3.697   7.889  0.2699 -0.1181  0.4071
 8970SOL    HW131272  10.166   3.726   7.959  1.2552  1.2661  0.7048
 8970SOL    HW231273  10.281   3.632   7.931 -0.5482 -0.9044  0.3107
 8971SOL     OW31274  10.396   5.391   8.452 -0.1357  0.2360  0.6917
 8971SOL    HW131275  10.365   5.481   8.462 -0.0472  0.4757 -0.8631
 8971SOL    HW231276  10.335   5.352   8.390 -0.3474 -0.8800  1.5785
 8972SOL     OW31277   2.537   0.665   4.310 -0.0360 -0.0250 -0.7983
 8972SOL    HW131278   2.547   0.734   4.244 -1.2272  0.6187 -0.3339
 8972SOL    HW231279   2.442   0.649   4.314 -0.3250  1.6415  2.4083
 8973SOL     OW31280   0.792   6.323   1.623  0.3407  0.0770 -0.3826
 8973SOL    HW131281   0.745   6.405   1.637  0.3444  0.1813 -0.9617
 8973SOL    HW231282   0.724   6.259   1.603  0.4054  0.1373 -0.8101
 8974SOL     OW31283   4.001  10.377   8.392  0.4675  0.0386 -0.3456
 8974SOL    HW131284   3.964  10.416   8.313  0.1860 -1.0017 -0.7427
 8974SOL    HW231285   4.095  10.398   8.387  0.5329 -0.4066 -1.1942
 8975SOL     OW31286   2.109   2.667   5.748 -0.4584 -0.1045  0.3026
 8975SOL    HW131287   2.070   2.621   5.822  0.3424  0.7921  1.3188
 8975SOL    HW231288   2.104   2.759   5.771 -1.5462  0.3238 -1.4524
 8976SOL     OW31289   2.480   5.660   9.153 -0.4914  0.3528 -0.0803
 8976SOL    HW131290   2.496   5.751   9.127 -1.5393  0.4151 -0.5281
 8976SOL    HW231291   2.445   5.618   9.075  0.2051 -0.5152  0.0487
 8977SOL     OW31292  11.028   6.289   8.836 -0.2149  0.1514 -0.0399
 8977SOL    HW131293  10.966   6.361   8.834 -1.3123 -0.7704 -2.7740
 8977SOL    HW231294  11.093   6.310   8.769 -1.0641 -1.7482 -1.5586
 8978SOL     OW31295   0.560  10.118  10.588 -0.5976 -0.0199 -0.8743
 8978SOL    HW131296   0.466  10.103  10.579 -0.5722 -1.1813  0.5067
 8978SOL    HW231297   0.600  10.034  10.567 -0.0516 -0.2924  1.0898
 8979SOL     OW31298   9.109   7.779   3.901 -0.3837 -0.1898 -0.0487
 8979SOL    HW131299   9.202   7.786   3.882 -0.7752 -1.1647 -2.7578
 8979SOL    HW231300   9.066   7.827   3.831 -1.9644 -0.8149  0.4369
 8980SOL     OW31301   7.787   0.011   6.340  0.2580  0.1691  0.3337
 8980SOL    HW131302   7.765  -0.038   6.261  2.0712 -0.7422  0.3527
 8980SOL    HW231303   7.773  -0.052   6.411 -1.4743  1.0156  0.8086
 8981SOL     OW31304   7.030   9.800   3.577 -0.2643 -0.3619 -0.3513
 8981SOL    HW131305   7.005   9.889   3.603 -1.3686 -0.1176 -2.0909
 8981SOL    HW231306   7.037   9.804   3.482  0.9592 -1.8431 -0.3617
 8982SOL     OW31307   6.425  10.047   3.846  0.2160  0.2267 -0.1754
 8982SOL    HW131308   6.350  10.107   3.849  1.1948  1.4535  1.7550
 8982SOL    HW231309   6.430  10.010   3.934  2.1990  0.6355 -0.0582
 8983SOL     OW31310   6.347   1.648   1.419 -0.8031 -0.2008  0.7211
 8983SOL    HW131311   6.404   1.721   1.393 -0.0287 -2.0273 -3.3799
 8983SOL    HW231312   6.261   1.688   1.431 -0.2806  1.5039 -0.8026
 8984SOL     OW31313   2.715   2.101   7.676 -0.1415 -0.9720 -0.3410
 8984SOL    HW131314   2.733   2.024   7.621  2.3059 -0.4714 -0.3707
 8984SOL    HW231315   2.739   2.175   7.621 -0.6157 -0.2797  0.3631
 8985SOL     OW31316   4.155   8.666   9.232 -0.7571  0.5591 -0.1595
 8985SOL    HW131317   4.079   8.683   9.287 -1.3720  1.8042 -1.3442
 8985SOL    HW231318   4.217   8.735   9.255  0.5058 -1.0216  1.5292
 8986SOL     OW31319   0.888   3.520   8.107  0.3074 -0.1003  0.2856
 8986SOL    HW131320   0.860   3.429   8.101  1.9888 -0.6546  0.2167
 8986SOL    HW231321   0.954   3.520   8.176 -0.0863  1.1897  0.6828
 8987SOL     OW31322   0.035   2.217   8.587 -0.7088 -0.0340  0.2229
 8987SOL    HW131323   0.042   2.236   8.680  0.7552 -0.2983  0.1937
 8987SOL    HW231324   0.108   2.265   8.547  0.2584 -1.9488 -0.4416
 8988SOL     OW31325  10.190   8.333   9.116  0.4668 -0.3116 -0.0712
 8988SOL    HW131326  10.163   8.396   9.050  1.3470 -0.4945 -0.6252
 8988SOL    HW231327  10.234   8.385   9.182 -0.2637 -0.1508  0.3024
 8989SOL     OW31328   0.981   0.902   5.372 -0.0972  0.6042 -0.3774
 8989SOL    HW131329   0.909   0.886   5.311  0.4352 -0.4997 -0.7568
 8989SOL    HW231330   1.040   0.828   5.358 -0.1968  0.0424  1.8358
 8990SOL     OW31331   7.554   4.909   9.157  0.8175 -0.5455  0.1959
 8990SOL    HW131332   7.523   4.835   9.209 -0.0699 -0.2588  0.1035
 8990SOL    HW231333   7.527   4.986   9.208 -1.5442 -0.2043 -1.4059
 8991SOL     OW31334   8.195   5.826  10.544 -0.2345  0.3744  0.3658
 8991SOL    HW131335   8.158   5.910  10.571  0.0851  1.1891 -1.6137
 8991SOL    HW231336   8.287   5.831  10.568  0.3095  1.5566 -1.7450
 8992SOL     OW31337   1.738   8.346   2.368 -0.5625  0.0860  0.2716
 8992SOL    HW131338   1.651   8.380   2.348 -0.8075 -0.9895 -0.5233
 8992SOL    HW231339   1.742   8.261   2.325  0.9821  0.2335  0.0697
 8993SOL     OW31340   2.782   7.647   2.123  0.1910  0.1620 -0.1543
 8993SOL    HW131341   2.734   7.649   2.040  0.4845 -0.4594 -0.3495
 8993SOL    HW231342   2.785   7.554   2.146 -0.1948  0.3662  0.7385
 8994SOL     OW31343   4.257   7.538   9.195  0.1540 -0.1573  0.1147
 8994SOL    HW131344   4.335   7.543   9.140 -1.0837 -1.0225 -1.8642
 8994SOL    HW231345   4.230   7.629   9.206  1.3310  0.1392  0.7083
 8995SOL     OW31346   6.060   7.989   1.824  0.6445  0.3920 -0.1476
 8995SOL    HW131347   5.977   7.967   1.782 -0.3748  1.0694  1.4126
 8995SOL    HW231348   6.125   7.984   1.754 -0.9726  1.5486 -1.7969
 8996SOL     OW31349   1.013   9.063   3.493  0.1851  0.1771 -0.2314
 8996SOL    HW131350   1.002   8.992   3.430 -0.7147  1.5875 -1.7323
 8996SOL    HW231351   1.061   9.130   3.444 -0.1742  1.1413  0.7217
 8997SOL     OW31352   8.186   1.585   9.856 -0.0024 -0.0562 -0.4681
 8997SOL    HW131353   8.251   1.627   9.801 -1.1874  1.0977 -1.0349
 8997SOL    HW231354   8.102   1.616   9.823 -0.7993 -0.2335  1.2455
 8998SOL     OW31355   9.484   5.034   1.463 -0.0466  0.2899  0.0219
 8998SOL    HW131356   9.454   5.023   1.373 -0.0343  1.2250 -0.1086
 8998SOL    HW231357   9.491   4.945   1.497 -1.3194 -0.0270 -0.4862
 8999SOL     OW31358   6.544   6.926   2.632 -0.4850 -0.0453 -0.0812
 8999SOL    HW131359   6.553   6.831   2.633 -2.6462 -0.2958  0.0632
 8999SOL    HW231360   6.566   6.952   2.542  0.3454 -0.6195 -0.0581
 9000SOL     OW31361   8.560   6.133   0.494  0.1122  0.1522 -0.2778
 9000SOL    HW131362   8.612   6.171   0.422 -2.5643  0.2993 -2.3086
 9000SOL    HW231363   8.611   6.058   0.523  1.8171  0.7090 -1.6055
 9001SOL     OW31364   3.059   5.526   9.950  0.2793 -0.0903 -0.1853
 9001SOL    HW131365   3.047   5.451  10.008 -0.1719 -0.7369 -1.0875
 9001SOL    HW231366   3.087   5.597  10.008 -0.4528 -0.6294  0.8665
 9002SOL     OW31367   6.633  10.503  10.506  0.3042  0.1771  0.7840
 9002SOL    HW131368   6.661  10.432  10.564  0.6883  1.1989  1.8786
 9002SOL    HW231369   6.539  10.512  10.523  0.2288 -0.1383  0.5513
 9003SOL     OW31370   7.431   9.394   3.924 -0.4532  0.7207 -0.5479
 9003SOL    HW131371   7.346   9.367   3.890  0.9104 -2.3651 -1.9182
 9003SOL    HW231372   7.495   9.348   3.869  2.0648  1.5434  1.4703
 9004SOL     OW31373  10.509   8.228   7.285  0.0023  0.0723 -0.1158
 9004SOL    HW131374  10.572   8.169   7.244  0.0073 -0.4631  0.6585
 9004SOL    HW231375  10.438   8.171   7.315 -1.5387  0.7869 -2.1415
 9005SOL     OW31376  10.039   5.868  10.298 -0.1495  0.0357 -0.1426
 9005SOL    HW131377  10.043   5.789  10.245  1.4508  0.0959 -0.1532
 9005SOL    HW231378  10.048   5.940  10.236 -0.9534  0.2147 -0.0625
 9006SOL     OW31379   5.837   7.275   4.367  0.2242 -0.2767 -0.2616
 9006SOL    HW131380   5.766   7.243   4.311  1.0706 -0.6600 -1.1549
 9006SOL    HW231381   5.853   7.203   4.428 -0.2130 -0.1567 -0.0064
 9007SOL     OW31382   8.705   6.473   6.043 -0.2631  0.3009 -0.4815
 9007SOL    HW131383   8.662   6.516   5.969 -0.9606 -0.4983 -0.5522
 9007SOL    HW231384   8.679   6.526   6.119  0.0112  0.8039 -0.7353
 9008SOL     OW31385  10.112   7.896   3.957 -0.3745  0.1655  0.1135
 9008SOL    HW131386  10.093   7.987   3.980 -2.3703 -0.4057  0.9627
 9008SOL    HW231387  10.054   7.844   4.014 -0.0724 -1.6028 -1.0944
 9009SOL     OW31388   2.715   1.181   5.072 -0.5409 -0.6527 -0.4463
 9009SOL    HW131389   2.721   1.260   5.125 -2.2550  0.2453 -1.4746
 9009SOL    HW231390   2.686   1.113   5.133  0.9004 -0.5036  0.4394
 9010SOL     OW31391  10.248   9.066   1.810  0.5445  0.3133 -0.0652
 9010SOL    HW131392  10.270   9.074   1.718 -1.2429 -0.5276 -0.6094
 9010SOL    HW231393  10.295   9.138   1.852  1.6352  0.5275 -1.5590
 9011SOL     OW31394   8.232   8.084   8.949 -0.3015 -0.4013 -0.6542
 9011SOL    HW131395   8.299   8.109   9.013 -0.4730  1.5664 -1.1886
 9011SOL    HW231396   8.278   8.086   8.865 -0.8363  0.2057 -0.9385
 9012SOL     OW31397   0.302   3.575   4.199 -0.1376 -0.1124  0.0873
 9012SOL    HW131398   0.366   3.512   4.234  0.8512 -0.2105 -1.8018
 9012SOL    HW231399   0.286   3.634   4.273  2.5283  0.2176  0.5348
 9013SOL     OW31400   7.619   8.514   3.037  0.3576 -0.0748  0.0180
 9013SOL    HW131401   7.665   8.437   3.003  1.4562  0.0828  1.0727
 9013SOL    HW231402   7.543   8.479   3.083 -0.3422 -0.3703 -1.3007
 9014SOL     OW31403   9.696   5.960   0.161 -0.0109  0.0118  0.4643
 9014SOL    HW131404   9.720   5.980   0.071 -1.0399  0.9615  0.3910
 9014SOL    HW231405   9.677   6.045   0.201 -0.0610 -0.4380  1.4427
 9015SOL     OW31406   3.993   0.484   5.204 -0.1094 -0.4752  0.0396
 9015SOL    HW131407   3.901   0.479   5.178  0.6682  1.3639 -3.6352
 9015SOL    HW231408   3.990   0.506   5.297 -3.5333  2.8503 -0.6251
 9016SOL     OW31409   7.008   3.798   3.677 -0.3929  0.2901 -0.3802
 9016SOL    HW131410   7.037   3.765   3.762  0.3824  2.2272  0.1625
 9016SOL    HW231411   6.917   3.769   3.670 -0.0809 -0.9991  0.5033
 9017SOL     OW31412   1.763   7.691  10.930 -0.0438 -0.1922  0.2953
 9017SOL    HW131413   1.762   7.658  11.020  0.0369 -2.6086 -0.5246
 9017SOL    HW231414   1.850   7.730  10.920  0.5400 -1.3280  0.8082
 9018SOL     OW31415   1.131   9.344  10.821  0.0214  0.1073 -0.3670
 9018SOL    HW131416   1.037   9.331  10.806 -0.0234  0.8339 -0.7713
 9018SOL    HW231417   1.135   9.414  10.886  0.2822  0.1918 -0.4736
 9019SOL     OW31418  10.084   3.389   8.049 -0.5858 -0.2145  0.0662
 9019SOL    HW131419  10.001   3.435   8.035 -0.8608  0.0443  2.1398
 9019SOL    HW231420  10.123   3.435   8.124 -0.1104 -2.3291  1.1801
 9020SOL     OW31421   3.375   3.965   0.331 -0.0145 -0.6774 -0.3321
 9020SOL    HW131422   3.299   3.990   0.279 -0.6658 -0.0325  0.8730
 9020SOL    HW231423   3.433   4.041   0.327 -1.0552  0.2975  1.6188
 9021SOL     OW31424   4.983   8.801  11.118  0.0895  0.4675  0.4291
 9021SOL    HW131425   5.062   8.762  11.080 -0.1902 -0.3379  0.6731
 9021SOL    HW231426   4.962   8.746  11.193  0.4426  1.8495  1.5883
 9022SOL     OW31427   2.614   1.807  10.939  0.2477  0.0849 -0.5635
 9022SOL    HW131428   2.624   1.867  11.013  0.8746  0.5861 -1.0394
 9022SOL    HW231429   2.521   1.785  10.938  0.6209 -2.4858  2.3341
 9023SOL     OW31430   8.161   6.350   1.622 -0.1667  0.1879  0.2323
 9023SOL    HW131431   8.131   6.291   1.691 -0.4415 -0.2784 -0.2799
 9023SOL    HW231432   8.214   6.415   1.668 -0.9775  0.3355  0.9836
 9024SOL     OW31433   8.897  10.831   2.821 -0.8656 -0.3451 -0.0218
 9024SOL    HW131434   8.935  10.918   2.819 -1.6860  0.0239 -1.4655
 9024SOL    HW231435   8.848  10.828   2.903  0.7327 -0.1743  0.9668
 9025SOL     OW31436   4.588   6.651   1.567 -0.4605 -0.8911 -0.0905
 9025SOL    HW131437   4.528   6.725   1.581  0.2902 -0.5319  1.4365
 9025SOL    HW231438   4.635   6.673   1.487 -0.1251  0.3909  0.4311
 9026SOL     OW31439   7.191   5.054   2.845  0.6442 -0.7809  0.5291
 9026SOL    HW131440   7.168   5.069   2.937 -0.1192 -0.1081  0.2388
 9026SOL    HW231441   7.110   5.071   2.797  1.9946  3.4168 -0.7124
 9027SOL     OW31442   2.125   4.546   0.014 -0.2110  0.3153  0.3165
 9027SOL    HW131443   2.178   4.479  -0.030 -1.7859 -1.1432  0.5360
 9027SOL    HW231444   2.187   4.617   0.032  1.8010 -1.4791  0.9958
 9028SOL     OW31445  10.627   6.887   4.837 -0.4339  0.1651  0.3957
 9028SOL    HW131446  10.560   6.867   4.902 -0.7742 -1.3660 -0.3698
 9028SOL    HW231447  10.585   6.868   4.753  0.1972  1.5126 -0.2519
 9029SOL     OW31448   4.785   9.743   9.528  0.1478 -0.2562  0.0479
 9029SOL    HW131449   4.853   9.717   9.591 -0.6418  1.9395  1.9540
 9029SOL    HW231450   4.824   9.726   9.442  2.5329 -0.4099  1.0730
 9030SOL     OW31451  10.175   6.143   1.366  0.3637 -0.2444 -0.4087
 9030SOL    HW131452  10.100   6.197   1.341 -0.9561 -1.1226  1.4513
 9030SOL    HW231453  10.165   6.063   1.313  0.5362  0.0065 -0.8314
 9031SOL     OW31454   4.630   7.346   0.447 -0.6888 -0.3532  0.0088
 9031SOL    HW131455   4.589   7.431   0.460 -1.0708 -0.1637 -2.0670
 9031SOL    HW231456   4.648   7.314   0.535 -2.7486  0.7912  0.9028
 9032SOL     OW31457   0.392   9.735   8.405  0.6788  0.5292 -0.4089
 9032SOL    HW131458   0.474   9.778   8.429  0.4662 -0.0063  1.3903
 9032SOL    HW231459   0.417   9.671   8.338  1.3078  2.0250 -1.6556
 9033SOL     OW31460   9.753   2.576   7.229 -0.0609 -0.2136 -0.1735
 9033SOL    HW131461   9.784   2.623   7.151 -0.2224 -1.7826 -1.2201
 9033SOL    HW231462   9.833   2.556   7.278  0.1034  0.2024 -0.2707
 9034SOL     OW31463   7.743   3.423   5.714 -0.5109  0.4665  0.5618
 9034SOL    HW131464   7.786   3.500   5.677  2.6714 -0.7234  1.4763
 9034SOL    HW231465   7.703   3.380   5.638  2.5073  0.1283 -0.9958
 9035SOL     OW31466   8.557   6.868   2.334  0.2627  0.4683 -0.1410
 9035SOL    HW131467   8.518   6.936   2.279 -0.7864 -0.3844 -0.5009
 9035SOL    HW231468   8.635   6.840   2.285 -0.7705 -0.4226 -1.3389
 9036SOL     OW31469   0.903   9.765   2.100 -0.0383 -0.4113  0.1711
 9036SOL    HW131470   0.981   9.818   2.085  0.0297 -0.1620  1.2820
 9036SOL    HW231471   0.905   9.698   2.032  0.8822 -0.1120 -0.1005
 9037SOL     OW31472  10.535   9.308   9.330  0.0272 -0.5112 -0.2410
 9037SOL    HW131473  10.456   9.361   9.327  0.4348  0.1634  0.3808
 9037SOL    HW231474  10.589   9.350   9.397  0.4362 -1.6199  0.1473
 9038SOL     OW31475   5.299   6.580   7.617 -0.5096 -0.3446  0.3804
 9038SOL    HW131476   5.394   6.569   7.611 -0.3396  0.9352  0.3628
 9038SOL    HW231477   5.282   6.661   7.569 -1.6446 -0.6926  0.1760
 9039SOL     OW31478   5.526   4.977   0.687 -0.4430 -0.4030  0.0570
 9039SOL    HW131479   5.555   4.886   0.680  0.7304  0.0786 -2.6922
 9039SOL    HW231480   5.607   5.026   0.707 -0.7642  0.2087 -0.1250
 9040SOL     OW31481   7.666   9.076   5.977 -0.0516  0.2041 -0.2970
 9040SOL    HW131482   7.755   9.043   5.972 -0.6738 -1.6426  0.0685
 9040SOL    HW231483   7.624   9.046   5.896 -0.2164  1.5193 -0.7241
 9041SOL     OW31484   3.384   7.610   7.360 -0.7192 -0.1147  0.1105
 9041SOL    HW131485   3.411   7.566   7.280  1.7209  1.4918 -0.0597
 9041SOL    HW231486   3.423   7.559   7.431 -1.0337 -0.2948  0.1577
 9042SOL     OW31487   1.301   9.116   2.582 -0.2711  0.1508 -0.4476
 9042SOL    HW131488   1.386   9.103   2.539  0.1724  1.4627 -0.0340
 9042SOL    HW231489   1.243   9.148   2.513  0.0776  0.9879 -0.3622
 9043SOL     OW31490   5.368   9.413   4.049 -0.1325 -0.2396 -0.1224
 9043SOL    HW131491   5.340   9.505   4.046  1.9634  0.4307 -0.9876
 9043SOL    HW231492   5.463   9.417   4.062 -0.1415 -2.3357  0.9696
 9044SOL     OW31493   1.793   8.139   5.712 -0.0361 -0.8257  0.6129
 9044SOL    HW131494   1.872   8.093   5.685 -0.7082 -1.6584  0.0220
 9044SOL    HW231495   1.811   8.231   5.691  0.6167 -1.0605  0.0973
 9045SOL     OW31496   4.602   2.899   4.045 -0.5906 -0.7630  0.6532
 9045SOL    HW131497   4.604   2.995   4.050 -0.4635 -0.7189 -0.0443
 9045SOL    HW231498   4.672   2.870   4.103  0.1684 -0.3802 -0.0511
 9046SOL     OW31499   9.124   0.198   8.310  0.0351 -0.7122 -0.5668
 9046SOL    HW131500   9.196   0.250   8.273  0.6207 -1.3061 -0.2940
 9046SOL    HW231501   9.056   0.200   8.242  0.0019  0.4623 -0.5305
 9047SOL     OW31502   9.318   1.438   1.012 -0.1319 -0.2889  0.3558
 9047SOL    HW131503   9.342   1.529   0.993  1.1883 -0.4589  1.0415
 9047SOL    HW231504   9.276   1.407   0.932 -0.0158  0.7298 -0.1248
 9048SOL     OW31505   0.835  10.374   0.180 -0.3066  0.0785 -0.0739
 9048SOL    HW131506   0.768  10.307   0.166  1.6703 -1.8151 -0.9442
 9048SOL    HW231507   0.827  10.432   0.104 -1.2409  0.1603  0.0711
 9049SOL     OW31508   0.452   4.889   4.965 -0.2510  0.7534 -0.5768
 9049SOL    HW131509   0.409   4.836   5.032  0.1113  0.1784 -0.7973
 9049SOL    HW231510   0.545   4.875   4.980 -0.0355  3.1807  0.8789
 9050SOL     OW31511   7.096   7.451  10.646  0.1115 -0.4758  0.9502
 9050SOL    HW131512   7.162   7.479  10.583  1.9153 -1.4852  2.2976
 9050SOL    HW231513   7.058   7.532  10.680 -0.1381  0.0930 -0.6004
 9051SOL     OW31514   0.827   7.986  10.239 -0.0327 -0.3826 -0.0013
 9051SOL    HW131515   0.748   7.936  10.258  0.7299 -0.9226  2.0329
 9051SOL    HW231516   0.826   8.058  10.302  0.6000  0.1894 -0.6193
 9052SOL     OW31517   0.745   6.235   2.893  0.0095  0.2042 -0.4191
 9052SOL    HW131518   0.821   6.178   2.908  0.1239  0.7138  1.0693
 9052SOL    HW231519   0.729   6.228   2.799  0.2652 -1.9888 -0.3632
 9053SOL     OW31520   4.518   0.582   0.646 -0.2175 -0.0442  0.2591
 9053SOL    HW131521   4.528   0.519   0.718  1.9849 -0.6304 -0.4707
 9053SOL    HW231522   4.591   0.642   0.658  0.1859 -0.1509 -1.4587
 9054SOL     OW31523   2.215   0.151   3.023  0.0050  0.1336 -0.1732
 9054SOL    HW131524   2.199   0.243   3.003  0.0661  0.0808 -0.4703
 9054SOL    HW231525   2.297   0.131   2.978  0.6275  0.2603  0.8891
 9055SOL     OW31526   4.411   1.332   1.645 -0.3025 -0.3291  0.2946
 9055SOL    HW131527   4.327   1.339   1.690 -0.5868 -1.0644 -0.1016
 9055SOL    HW231528   4.435   1.422   1.624 -0.8018 -0.0843  0.7458
 9056SOL     OW31529   5.733   9.697   7.488  0.2168 -0.6162 -0.3285
 9056SOL    HW131530   5.683   9.770   7.452  1.2943  0.5676  0.4747
 9056SOL    HW231531   5.816   9.699   7.441  0.7564 -0.4798  0.6060
 9057SOL     OW31532   7.970   3.424   3.927  0.3671 -0.0555 -0.3524
 9057SOL    HW131533   7.982   3.329   3.927 -0.5067 -0.2077  1.6709
 9057SOL    HW231534   7.877   3.436   3.906  0.9587  0.5092 -2.9531
 9058SOL     OW31535  10.524  10.065   8.303  0.5554  0.3157 -0.4076
 9058SOL    HW131536  10.436  10.070   8.265 -0.3046  3.0862  1.6004
 9058SOL    HW231537  10.511  10.013   8.383  0.6418  0.9734  0.0419
 9059SOL     OW31538   5.371  10.935   7.348  0.1003 -0.0922 -0.3405
 9059SOL    HW131539   5.443  10.880   7.316 -2.2261 -1.4289 -3.9316
 9059SOL    HW231540   5.329  10.883   7.416  0.5170 -0.8707 -0.6660
 9060SOL     OW31541   2.952   5.051   3.375 -0.4005  0.3113  0.1167
 9060SOL    HW131542   2.875   5.006   3.408  0.4212 -2.5754 -1.5373
 9060SOL    HW231543   2.945   5.044   3.279  1.7626  0.1506 -0.0880
 9061SOL     OW31544   7.660   5.694   6.065  0.3809  0.4338  0.6678
 9061SOL    HW131545   7.630   5.752   6.134  3.2856  1.9759  0.8039
 9061SOL    HW231546   7.756   5.698   6.071  0.7070 -1.1184 -2.0462
 9062SOL     OW31547   9.341   6.534   9.503  0.4195 -0.9051 -0.3025
 9062SOL    HW131548   9.407   6.545   9.571 -1.6674 -1.2631  1.9554
 9062SOL    HW231549   9.276   6.601   9.523 -1.0084 -2.0464 -0.9330
 9063SOL     OW31550   0.717   9.163   8.417 -0.5633  0.3171  0.1459
 9063SOL    HW131551   0.682   9.196   8.334 -2.6537 -0.3164  0.7264
 9063SOL    HW231552   0.647   9.176   8.480  0.8406  0.4303  1.7673
 9064SOL     OW31553   4.053   1.502   3.317  0.5976  0.4700  0.4095
 9064SOL    HW131554   4.038   1.576   3.257  2.2380  0.8062  0.3794
 9064SOL    HW231555   4.147   1.490   3.317  0.3365 -2.0183 -0.0151
 9065SOL     OW31556   8.504   2.507  10.424 -0.7618 -0.0421  0.4042
 9065SOL    HW131557   8.543   2.493  10.338 -0.6476  0.2287  0.4112
 9065SOL    HW231558   8.569   2.475  10.485 -1.1046 -0.8250  0.3722
 9066SOL     OW31559   1.587   7.715   6.408  0.7243 -0.2347  0.0360
 9066SOL    HW131560   1.622   7.680   6.326 -2.0191 -0.2765 -1.2632
 9066SOL    HW231561   1.525   7.783   6.379 -1.3728 -1.2104  1.9490
 9067SOL     OW31562   6.361  10.092   0.059  0.2044  0.0096 -0.2174
 9067SOL    HW131563   6.416  10.070  -0.016 -0.3472  0.4322 -0.7422
 9067SOL    HW231564   6.316  10.172   0.034  0.1550  0.2577  0.6360
 9068SOL     OW31565   5.865  10.131   1.756  0.1537  0.4635 -0.0980
 9068SOL    HW131566   5.810  10.170   1.824  1.0950  1.0675  0.3270
 9068SOL    HW231567   5.937  10.090   1.803  0.3182  0.0540 -0.6842
 9069SOL     OW31568   5.738   6.258   6.126 -0.0742  0.1322 -0.6560
 9069SOL    HW131569   5.787   6.320   6.073  0.9607 -0.1283 -0.0321
 9069SOL    HW231570   5.729   6.180   6.071 -0.2291  0.3594 -0.9519
 9070SOL     OW31571   3.756   6.683   2.395  0.2042 -0.2298 -0.1863
 9070SOL    HW131572   3.737   6.753   2.333 -0.4747 -0.5318 -0.3238
 9070SOL    HW231573   3.774   6.607   2.341  1.5533 -0.0318 -0.0558
 9071SOL     OW31574  10.513   5.453   3.637  0.1030 -0.8455 -0.2785
 9071SOL    HW131575  10.569   5.448   3.715 -1.6731  0.6256  1.2173
 9071SOL    HW231576  10.482   5.364   3.624  0.6770 -1.1789  0.5306
 9072SOL     OW31577   6.763   7.049   0.354  1.0871 -0.0571  0.2370
 9072SOL    HW131578   6.752   7.098   0.272  1.0127  0.5244  0.5875
 9072SOL    HW231579   6.857   7.050   0.370  1.2219 -1.0927 -0.3857
 9073SOL     OW31580   7.268   8.854   9.151 -0.0036 -0.0627  0.6746
 9073SOL    HW131581   7.304   8.896   9.073 -0.2167 -0.3124  0.4392
 9073SOL    HW231582   7.345   8.819   9.197  0.0699 -0.5524  0.1973
 9074SOL     OW31583   7.839   5.140  10.184  0.3290 -0.1606  0.0189
 9074SOL    HW131584   7.919   5.088  10.196 -0.0251 -0.8884 -0.7058
 9074SOL    HW231585   7.871   5.228  10.163  0.9337 -0.2703  0.4421
 9075SOL     OW31586  10.368   1.554   0.632  0.2617 -0.4151 -0.3197
 9075SOL    HW131587  10.405   1.637   0.602 -0.7913  0.5060  0.8175
 9075SOL    HW231588  10.273   1.567   0.627  0.0758 -1.2051  0.7470
 9076SOL     OW31589  10.505   1.007   1.512  0.2530 -0.2767 -0.5813
 9076SOL    HW131590  10.594   0.973   1.506  0.1372 -0.7351  0.1377
 9076SOL    HW231591  10.489   1.048   1.427  1.0638 -0.3964 -0.7999
 9077SOL     OW31592   7.377   5.646   3.301 -0.0939 -0.2679  0.4699
 9077SOL    HW131593   7.351   5.704   3.229  0.4429 -0.8808 -0.2347
 9077SOL    HW231594   7.312   5.662   3.369 -1.7909 -1.1112 -0.8723
 9078SOL     OW31595   6.788   9.192   9.589  0.4772 -0.0946 -0.0962
 9078SOL    HW131596   6.769   9.117   9.646  1.6979 -0.2225  0.1822
 9078SOL    HW231597   6.740   9.175   9.509 -2.1284  0.5755  1.1968
 9079SOL     OW31598   1.640   4.751   0.879  0.2354  0.9847 -0.1974
 9079SOL    HW131599   1.667   4.698   0.804 -1.0332  0.9338 -0.6364
 9079SOL    HW231600   1.645   4.841   0.848  0.5180  1.0194 -0.0618
 9080SOL     OW31601  11.054   4.177   3.627 -0.6253  0.1460 -0.9321
 9080SOL    HW131602  11.100   4.094   3.642 -1.0917 -0.0930 -0.7927
 9080SOL    HW231603  11.123   4.238   3.602  0.1108  0.3330  1.2766
 9081SOL     OW31604   6.320   4.654   9.306 -0.0538  0.1147  0.8143
 9081SOL    HW131605   6.399   4.707   9.309  1.1865 -1.3500 -2.0441
 9081SOL    HW231606   6.256   4.708   9.259  0.4507 -0.0113 -0.0383
 9082SOL     OW31607   6.217   9.827   5.197  0.2762 -0.0617  0.1807
 9082SOL    HW131608   6.299   9.865   5.228 -1.0008  0.3278  3.4348
 9082SOL    HW231609   6.239   9.737   5.176  1.3685 -0.2783  2.0490
 9083SOL     OW31610   9.892   3.769   8.794 -0.2333 -0.0589 -0.0258
 9083SOL    HW131611   9.921   3.854   8.826  0.4715 -0.6178  0.8567
 9083SOL    HW231612   9.797   3.770   8.805 -0.0782 -0.0135  1.6090
 9084SOL     OW31613   3.180   3.568   7.638  0.2651 -0.5128  0.2980
 9084SOL    HW131614   3.186   3.614   7.554  0.9956  1.6335  1.4454
 9084SOL    HW231615   3.198   3.477   7.617  1.3156  0.1059 -1.7558
 9085SOL     OW31616   4.782   8.326   1.355 -0.6059 -0.5005  0.4803
 9085SOL    HW131617   4.849   8.372   1.407  0.4746 -2.9634  1.4450
 9085SOL    HW231618   4.802   8.350   1.265  1.4090 -0.8366  0.7682
 9086SOL     OW31619   9.403   4.133   0.021  0.1702 -0.2135 -0.2027
 9086SOL    HW131620   9.431   4.197   0.086 -1.9623 -0.1929  0.7948
 9086SOL    HW231621   9.308   4.146   0.014 -0.4098 -3.3990  0.2356
 9087SOL     OW31622   0.664   3.069   3.121 -0.1871 -0.1874 -0.0715
 9087SOL    HW131623   0.713   2.996   3.159  1.6140  0.3925 -1.1688
 9087SOL    HW231624   0.574   3.038   3.118  0.3929 -2.0195  0.3205
 9088SOL     OW31625   0.989   3.796   4.281  0.0459  0.1309 -0.3169
 9088SOL    HW131626   1.083   3.811   4.292  0.0199  1.3966 -1.5088
 9088SOL    HW231627   0.981   3.759   4.193 -0.4673 -1.4356  0.3563
 9089SOL     OW31628   5.424   1.542   5.942 -0.5080  0.1508  0.1077
 9089SOL    HW131629   5.378   1.479   5.887 -0.7204  0.4046 -0.0061
 9089SOL    HW231630   5.410   1.627   5.899  1.4453  0.0362 -0.8333
 9090SOL     OW31631   5.822   2.377   0.778  0.2629  0.3760 -0.4066
 9090SOL    HW131632   5.891   2.397   0.715 -1.3699  2.8429 -1.5477
 9090SOL    HW231633   5.832   2.444   0.846 -0.4152  0.1656 -0.0898
 9091SOL     OW31634   7.280   1.564   5.467 -0.8814  1.0969 -0.3271
 9091SOL    HW131635   7.327   1.563   5.550  1.0094 -1.6357 -1.3139
 9091SOL    HW231636   7.331   1.622   5.410 -0.0105  0.0313 -0.6632
 9092SOL     OW31637   1.663   5.424   8.304 -0.3752 -0.1262  0.1154
 9092SOL    HW131638   1.720   5.480   8.250 -0.0202 -0.4596  0.1361
 9092SOL    HW231639   1.664   5.340   8.258  0.4080 -0.5948  0.9492
 9093SOL     OW31640   3.940   1.888   7.603  0.0505  0.0690  0.8748
 9093SOL    HW131641   3.909   1.800   7.623  0.2138  0.1003  1.2913
 9093SOL    HW231642   3.863   1.935   7.572  0.1037 -0.4143 -0.0196
 9094SOL     OW31643  10.121   5.858   9.214  0.4032  0.3595  0.3756
 9094SOL    HW131644  10.146   5.839   9.304 -0.6872  0.9697  0.8279
 9094SOL    HW231645  10.198   5.837   9.162  0.7223 -0.9691  1.3337
 9095SOL     OW31646   0.077   7.545   4.140  0.7112 -0.4348 -0.0767
 9095SOL    HW131647   0.065   7.505   4.227 -0.2314 -1.0690 -0.4876
 9095SOL    HW231648   0.168   7.524   4.117  1.5866  1.2613  1.4943
 9096SOL     OW31649  10.417   7.994   0.901 -0.2109  0.2259  0.3398
 9096SOL    HW131650  10.383   7.937   0.832 -0.2213  0.8798 -0.2047
 9096SOL    HW231651  10.510   8.006   0.879  0.1231 -0.6710  1.2117
 9097SOL     OW31652   5.219   7.016   1.419 -0.2844  0.1520  0.2555
 9097SOL    HW131653   5.132   7.048   1.444  0.3126  0.9255  1.4885
 9097SOL    HW231654   5.257   7.087   1.367  0.6073  1.0381  2.0253
 9098SOL     OW31655   6.734   6.941   5.023  0.5283 -0.1873  0.1922
 9098SOL    HW131656   6.711   6.897   4.942  1.5189 -3.2750  1.4347
 9098SOL    HW231657   6.696   6.886   5.092 -0.5008  2.4531  1.8966
 9099SOL     OW31658   5.608   4.217   5.310  0.8096  0.5850  0.1152
 9099SOL    HW131659   5.684   4.160   5.305  0.2774 -0.0222 -2.3275
 9099SOL    HW231660   5.590   4.241   5.220 -2.2162  0.2588  0.5197
 9100SOL     OW31661   3.531   4.792   3.364  0.7920  0.1268  0.1487
 9100SOL    HW131662   3.445   4.804   3.404  1.0886  1.4113  0.4189
 9100SOL    HW231663   3.563   4.880   3.346  1.8980 -0.3401 -0.3043
 9101SOL     OW31664   3.325   6.481  10.702  0.0026  0.0222  0.0887
 9101SOL    HW131665   3.265   6.524  10.641  0.4922  1.0015  0.2771
 9101SOL    HW231666   3.321   6.533  10.782 -0.7370 -1.3330  0.9848
 9102SOL     OW31667   6.967   6.156   0.425  0.5627 -0.8175  0.0931
 9102SOL    HW131668   6.893   6.153   0.365  1.0105  1.3606 -0.6704
 9102SOL    HW231669   6.999   6.066   0.430 -0.8570 -1.4242 -1.1620
 9103SOL     OW31670  10.375   0.972   8.599 -0.4466  0.2872  0.1051
 9103SOL    HW131671  10.350   0.997   8.510  0.9635  0.4987 -0.2484
 9103SOL    HW231672  10.454   0.918   8.587 -0.0417  0.6061  1.2490
 9104SOL     OW31673   2.436   7.356   3.392  0.4971 -0.1721  0.1294
 9104SOL    HW131674   2.417   7.349   3.298 -0.0872  2.7960 -0.0660
 9104SOL    HW231675   2.431   7.266   3.424  0.2483 -1.2135 -2.5860
 9105SOL     OW31676   5.655   1.364   4.823  0.2961 -0.1819 -0.2676
 9105SOL    HW131677   5.644   1.271   4.801  3.1594 -0.1643 -2.3332
 9105SOL    HW231678   5.749   1.377   4.827 -0.0231  2.3246  1.7707
 9106SOL     OW31679   5.405   5.292   4.906  0.0120 -1.1714 -0.5331
 9106SOL    HW131680   5.487   5.285   4.953  0.3178  0.5405 -0.7239
 9106SOL    HW231681   5.357   5.212   4.927  0.2768 -0.6632  2.3717
 9107SOL     OW31682  10.944   4.251   6.810  0.2248  0.4138 -0.9801
 9107SOL    HW131683  10.934   4.205   6.727  0.9372 -0.4908 -0.5939
 9107SOL    HW231684  10.870   4.222   6.863  0.6078 -0.2391 -0.7794
 9108SOL     OW31685   6.405   3.241   8.768  0.1087  0.1178 -0.1557
 9108SOL    HW131686   6.442   3.235   8.680 -2.0257 -0.0407 -1.0858
 9108SOL    HW231687   6.332   3.302   8.760 -0.2224 -0.0280  1.4680
 9109SOL     OW31688   1.594  10.469   6.816  0.7877  0.1814  0.1134
 9109SOL    HW131689   1.563  10.560   6.823 -1.2838 -0.5843  1.9271
 9109SOL    HW231690   1.557  10.438   6.733 -0.0707  0.4479  0.3893
 9110SOL     OW31691   8.316  10.913  10.707  0.2567 -0.1926 -0.6774
 9110SOL    HW131692   8.233  10.872  10.733 -0.4533  1.0635 -0.8994
 9110SOL    HW231693   8.371  10.839  10.679  0.3702 -1.4419  2.3891
 9111SOL     OW31694   8.110   1.736   0.063 -0.1563 -0.1283  0.2303
 9111SOL    HW131695   8.201   1.747   0.092 -0.4167  2.5810  0.2316
 9111SOL    HW231696   8.107   1.780  -0.022 -1.1825 -1.4117 -0.4263
 9112SOL     OW31697   4.656   6.539   5.249 -0.3089  0.2162 -0.2448
 9112SOL    HW131698   4.603   6.473   5.203  0.5808 -0.8993  0.2845
 9112SOL    HW231699   4.617   6.545   5.336 -1.1367  1.3033 -0.6766
 9113SOL     OW31700   9.805   4.166   2.665  0.1384  0.4109 -0.1970
 9113SOL    HW131701   9.840   4.077   2.670 -2.2742 -0.5409  1.1557
 9113SOL    HW231702   9.864   4.218   2.720 -0.4711 -1.1377  2.0372
 9114SOL     OW31703   8.806  10.820   7.024 -0.1358 -0.2151 -0.0936
 9114SOL    HW131704   8.827  10.806   6.932  1.0220  0.2557  0.0764
 9114SOL    HW231705   8.734  10.760   7.042 -0.5436 -0.1382 -1.3600
 9115SOL     OW31706   3.528   3.309  10.748  0.3579  0.1987  0.3887
 9115SOL    HW131707   3.494   3.221  10.766 -0.7496  0.5852  0.3002
 9115SOL    HW231708   3.558   3.341  10.832  2.5921 -0.9732  0.1082
 9116SOL     OW31709   5.624   3.604  10.910 -0.2358  0.6236 -0.0822
 9116SOL    HW131710   5.701   3.632  10.860 -0.3782  2.2599  0.5318
 9116SOL    HW231711   5.633   3.509  10.918  2.3822  0.8702  0.9869
 9117SOL     OW31712   7.887   1.430   6.472  0.4326  0.2766  0.3230
 9117SOL    HW131713   7.881   1.410   6.566  0.7728 -3.0535 -0.2428
 9117SOL    HW231714   7.971   1.475   6.463  1.7581 -1.7655  1.3906
 9118SOL     OW31715   2.217   4.307   7.102 -0.5975 -0.2761  0.2424
 9118SOL    HW131716   2.272   4.229   7.091 -0.0011  0.3791 -1.9741
 9118SOL    HW231717   2.130   4.273   7.120 -0.2347 -1.4554 -0.1507
 9119SOL     OW31718   3.356   0.566   2.906 -0.0856  0.0856  0.3258
 9119SOL    HW131719   3.382   0.619   2.981 -0.7341 -0.0852  0.6741
 9119SOL    HW231720   3.270   0.599   2.881  0.4032  0.5879 -0.7634
 9120SOL     OW31721   4.807   0.878   7.914 -0.1738 -0.0711  0.3225
 9120SOL    HW131722   4.761   0.877   7.831 -1.1245  1.2425  0.8024
 9120SOL    HW231723   4.900   0.882   7.890 -0.4061 -0.4717 -0.6609
 9121SOL     OW31724   8.654   8.696   8.252 -0.5797 -0.4162  0.2487
 9121SOL    HW131725   8.738   8.717   8.292  0.0278 -0.8595 -0.7473
 9121SOL    HW231726   8.632   8.609   8.286 -1.0190  0.0091  1.0869
 9122SOL     OW31727   5.642   3.572   2.017 -0.1973  0.1485  0.6146
 9122SOL    HW131728   5.572   3.625   1.978 -0.3909 -0.8784 -0.5085
 9122SOL    HW231729   5.664   3.617   2.099 -0.8360  1.5472  0.0474
 9123SOL     OW31730  10.759   4.289   6.416  0.0770  0.1643 -0.0246
 9123SOL    HW131731  10.755   4.371   6.465 -0.5148 -0.0598  0.3070
 9123SOL    HW231732  10.765   4.221   6.483  0.5599 -0.0705 -0.3003
 9124SOL     OW31733   4.965   7.629   0.102 -0.1969 -0.6885  0.1976
 9124SOL    HW131734   4.883   7.590   0.132 -0.1000 -1.2990 -0.3046
 9124SOL    HW231735   5.025   7.554   0.094  0.5491 -0.1844  1.0276
 9125SOL     OW31736   4.811   7.850   0.825 -0.0066 -0.0231  0.3256
 9125SOL    HW131737   4.733   7.872   0.774  0.3957 -0.3274 -0.4334
 9125SOL    HW231738   4.853   7.780   0.775  0.5345 -0.1510  0.9470
 9126SOL     OW31739   6.649   6.439   2.553  0.6591  0.3061 -0.5354
 9126SOL    HW131740   6.683   6.444   2.643 -1.8545 -3.5015  0.9106
 9126SOL    HW231741   6.691   6.361   2.516 -0.7541 -0.0553 -1.4429
 9127SOL     OW31742   3.237   4.181  10.429  0.4862  0.4149 -0.5556
 9127SOL    HW131743   3.332   4.185  10.443  0.3864 -0.5605  0.5531
 9127SOL    HW231744   3.204   4.134  10.505 -0.8851  0.6400 -0.9939
 9128SOL     OW31745   2.854   8.575   6.613 -0.1585 -0.0594 -0.4674
 9128SOL    HW131746   2.861   8.629   6.691  1.7491  1.3635 -1.5254
 9128SOL    HW231747   2.765   8.590   6.581 -0.3504  0.7947  0.4280
 9129SOL     OW31748   1.573   9.555   1.095  0.3068  0.3373  0.7855
 9129SOL    HW131749   1.538   9.469   1.121  0.9723 -0.5171 -0.9938
 9129SOL    HW231750   1.656   9.562   1.143 -0.8962  1.1611  2.8882
 9130SOL     OW31751   7.786   8.964   9.530 -0.2434  0.5550  0.2480
 9130SOL    HW131752   7.711   9.022   9.540  0.5766  1.7379 -0.2488
 9130SOL    HW231753   7.852   8.998   9.591  0.4705  0.5330 -0.4929
 9131SOL     OW31754   3.359   7.401   6.027  0.1916  0.0193 -0.4880
 9131SOL    HW131755   3.295   7.460   6.067 -0.7180 -0.6017 -0.9838
 9131SOL    HW231756   3.432   7.457   6.003  0.8524  0.4127  2.1223
 9132SOL     OW31757   1.189  11.092   8.291  0.2542 -0.4270  0.1020
 9132SOL    HW131758   1.117  11.030   8.302  1.0362 -1.4768 -0.4218
 9132SOL    HW231759   1.164  11.168   8.342 -0.9961 -0.9663  0.3286
 9133SOL     OW31760   9.214   4.198  10.379  0.2897  0.3383  0.3122
 9133SOL    HW131761   9.309   4.200  10.390  0.3714 -0.6724 -0.1147
 9133SOL    HW231762   9.200   4.149  10.298 -0.6041  0.3504  0.4517
 9134SOL     OW31763   0.787   4.405   0.527 -0.0930 -0.1283 -0.1641
 9134SOL    HW131764   0.774   4.497   0.549  0.1884  0.1246 -1.0224
 9134SOL    HW231765   0.786   4.360   0.612 -0.4425  0.6306  0.2465
 9135SOL     OW31766  10.354   2.637   2.944 -0.3159  0.0541 -0.2326
 9135SOL    HW131767  10.444   2.617   2.972 -0.3517 -0.1178 -0.2398
 9135SOL    HW231768  10.355   2.731   2.925  0.1402 -0.1587 -1.2961
 9136SOL     OW31769   8.950   3.678   3.795  0.2466 -0.6191 -0.3867
 9136SOL    HW131770   8.892   3.701   3.867  0.4099  1.3284 -0.8132
 9136SOL    HW231771   8.892   3.666   3.720  0.1739 -1.5450 -0.1949
 9137SOL     OW31772  10.610   4.542   1.215 -0.1738 -0.3892 -0.5136
 9137SOL    HW131773  10.572   4.630   1.211  0.2472 -0.0632  1.4458
 9137SOL    HW231774  10.565   4.499   1.287  1.2434 -0.9441  0.0809
 9138SOL     OW31775   8.883   1.461   8.134  0.1782  0.1612 -0.5371
 9138SOL    HW131776   8.969   1.504   8.128  0.4836 -0.3594  0.0248
 9138SOL    HW231777   8.884   1.396   8.064  0.2194  0.1903 -0.5638
 9139SOL     OW31778   8.231   9.841   7.212 -0.5427  0.0187 -0.2277
 9139SOL    HW131779   8.312   9.892   7.202 -0.5749  0.5166  1.6734
 9139SOL    HW231780   8.257   9.751   7.196  0.4651  0.1414  0.5899
 9140SOL     OW31781   0.910   3.428   1.762 -0.1705 -0.1471  0.0799
 9140SOL    HW131782   0.924   3.435   1.667 -0.9582  0.8200  0.0288
 9140SOL    HW231783   0.963   3.499   1.799  0.6756 -0.9414  0.4308
 9141SOL     OW31784   2.507   4.201   3.822 -0.2001  0.2518 -0.2663
 9141SOL    HW131785   2.446   4.132   3.848 -0.8587  0.5211 -1.0608
 9141SOL    HW231786   2.453   4.267   3.781  0.5668  0.7502 -0.4984
 9142SOL     OW31787   4.954   5.873  11.042  0.4113  0.0908 -0.5294
 9142SOL    HW131788   4.952   5.852  10.948 -2.6873  2.3551 -1.1190
 9142SOL    HW231789   4.965   5.968  11.045  1.1469 -0.0152  1.4835
 9143SOL     OW31790   8.269   5.485   0.541 -0.7130 -0.9863  0.0532
 9143SOL    HW131791   8.202   5.430   0.498 -2.1482  1.6714 -1.3840
 9143SOL    HW231792   8.233   5.503   0.628 -1.0462 -0.9698 -0.0859
 9144SOL     OW31793   3.158   4.393   5.923  0.0884 -0.1263  0.1599
 9144SOL    HW131794   3.080   4.350   5.960  0.1966  0.7442  1.4591
 9144SOL    HW231795   3.184   4.456   5.990  3.0943 -1.7305  0.6515
 9145SOL     OW31796   8.416   0.746  10.654 -0.4230 -0.1849 -0.5861
 9145SOL    HW131797   8.338   0.746  10.709 -1.0890  0.8055 -1.4805
 9145SOL    HW231798   8.383   0.755  10.565  0.7274  1.1506 -0.9256
 9146SOL     OW31799   5.574   5.365   1.954 -0.5761 -0.2210 -0.3056
 9146SOL    HW131800   5.583   5.369   1.859  0.0996  0.1231 -0.2327
 9146SOL    HW231801   5.579   5.457   1.982 -1.5660 -0.2478 -0.0012
 9147SOL     OW31802   8.582   1.662  10.353 -0.1458  0.5136 -0.3617
 9147SOL    HW131803   8.605   1.619  10.271  0.4859  1.0729 -0.4964
 9147SOL    HW231804   8.488   1.679  10.346 -0.4366 -0.9539 -0.2330
 9148SOL     OW31805   6.733   9.177   5.797  0.0495 -0.0317  0.1517
 9148SOL    HW131806   6.798   9.210   5.736  1.1630 -0.7185  0.9292
 9148SOL    HW231807   6.649   9.196   5.755  0.7184  1.3282 -0.6332
 9149SOL     OW31808   9.087  10.511   1.708 -0.4983 -0.0336  0.1406
 9149SOL    HW131809   9.045  10.466   1.634 -1.1025 -2.3176  1.7579
 9149SOL    HW231810   9.032  10.588   1.723 -1.3267 -0.4184 -0.7632
 9150SOL     OW31811   5.271   9.902   8.957 -0.1804  0.6509 -0.2306
 9150SOL    HW131812   5.241   9.979   9.004 -4.1387 -1.0788  0.5751
 9150SOL    HW231813   5.331   9.858   9.017 -0.9440  1.1829  0.9475
 9151SOL     OW31814   8.809  10.431   0.090  0.2178  0.3180 -0.1580
 9151SOL    HW131815   8.903  10.447   0.076  0.3372 -0.1027  0.1351
 9151SOL    HW231816   8.806  10.350   0.141 -0.3511 -0.2849 -1.1173
 9152SOL     OW31817   1.580   2.955   4.227 -0.2454 -0.2801  0.7605
 9152SOL    HW131818   1.534   3.018   4.283  0.6185  1.5609 -0.5094
 9152SOL    HW231819   1.516   2.931   4.160 -0.1991  0.2041  0.5405
 9153SOL     OW31820   2.291   6.760   9.746 -0.3708 -0.1254  0.0111
 9153SOL    HW131821   2.267   6.703   9.673 -0.3961  0.7127 -0.6529
 9153SOL    HW231822   2.257   6.716   9.823 -0.9602 -0.6823 -0.5548
 9154SOL     OW31823   0.111   3.836   2.887  0.3113 -0.5765 -0.3062
 9154SOL    HW131824   0.081   3.873   2.803 -0.3441  2.4320  1.1163
 9154SOL    HW231825   0.047   3.768   2.907  0.8868 -1.8685 -2.5221
 9155SOL     OW31826   7.913   9.242   0.542 -0.3775  0.3582  0.1806
 9155SOL    HW131827   7.857   9.198   0.479  0.0323  2.1001 -1.5004
 9155SOL    HW231828   7.856   9.261   0.616 -1.3717 -0.0841 -0.4479
 9156SOL     OW31829   8.837   0.951   4.504  0.4584  0.4885 -0.3089
 9156SOL    HW131830   8.836   1.045   4.488 -0.1984  0.3659 -1.0675
 9156SOL    HW231831   8.925   0.933   4.538  1.1370  1.1417 -1.6487
 9157SOL     OW31832   2.326   6.235   4.848 -0.2113 -0.3074  0.3443
 9157SOL    HW131833   2.291   6.279   4.771  0.2533 -0.3423  0.1102
 9157SOL    HW231834   2.339   6.306   4.912 -0.3731 -0.2437  0.3073
 9158SOL     OW31835   2.589   7.186   7.266 -0.5360  0.1951 -0.1237
 9158SOL    HW131836   2.605   7.280   7.254  0.8264 -0.1692 -1.5790
 9158SOL    HW231837   2.595   7.172   7.361  2.6787  1.0961 -0.0709
 9159SOL     OW31838   0.392   5.706   6.267 -0.4562 -0.7514 -0.0832
 9159SOL    HW131839   0.379   5.633   6.328 -2.1946 -0.2488  0.2119
 9159SOL    HW231840   0.412   5.664   6.183  1.7770 -1.4558  0.7130
 9160SOL     OW31841   3.837   8.701   5.017  0.4111  0.2498  0.0973
 9160SOL    HW131842   3.779   8.634   4.981  1.8689 -0.9095 -0.2053
 9160SOL    HW231843   3.896   8.723   4.945  0.3040  1.4833  0.3633
 9161SOL     OW31844   0.058   0.254   7.454  0.2989 -0.1454  0.1120
 9161SOL    HW131845  -0.014   0.204   7.492  0.2777 -0.2475 -0.0589
 9161SOL    HW231846   0.137   0.220   7.496  0.1600  0.7306  1.1171
 9162SOL     OW31847   5.585   0.546   5.609  0.2138 -0.8145 -0.1290
 9162SOL    HW131848   5.651   0.554   5.677 -1.3281  0.1305  1.3160
 9162SOL    HW231849   5.635   0.526   5.529  2.5402  2.5064  0.2963
 9163SOL     OW31850   0.747   8.466   3.005 -0.9613  0.2777 -0.0428
 9163SOL    HW131851   0.717   8.391   2.954 -0.0296  0.2429 -0.5572
 9163SOL    HW231852   0.733   8.541   2.948 -0.7092  0.3422 -0.0189
 9164SOL     OW31853  10.915   4.890   7.147  0.5593 -0.7902 -0.1105
 9164SOL    HW131854  10.823   4.870   7.134  0.9333 -1.8074 -1.3736
 9164SOL    HW231855  10.921   4.914   7.239 -1.0991  0.1297 -0.2073
 9165SOL     OW31856   6.845   5.344   1.234 -0.2355  0.5168  0.0559
 9165SOL    HW131857   6.930   5.379   1.205  0.5954 -0.9003  0.6841
 9165SOL    HW231858   6.817   5.404   1.303  0.8911  0.3014  0.7292
 9166SOL     OW31859   0.390   4.226   7.869 -0.1755 -0.2164 -0.0107
 9166SOL    HW131860   0.452   4.153   7.881 -0.1843 -0.5550 -1.7836
 9166SOL    HW231861   0.446   4.300   7.846 -0.2682  0.0350  0.5655
 9167SOL     OW31862   7.229   7.210   6.133  0.1373  0.5595  0.1257
 9167SOL    HW131863   7.151   7.155   6.144  1.2377 -1.2393 -0.5612
 9167SOL    HW231864   7.213   7.258   6.052  0.5817 -1.3802 -1.1707
 9168SOL     OW31865   0.036   7.555   5.680 -0.2508  0.3177 -0.1096
 9168SOL    HW131866   0.024   7.578   5.772 -1.5830 -1.3146  0.1802
 9168SOL    HW231867  -0.053   7.539   5.648  0.3460 -1.2426 -1.0820
 9169SOL     OW31868  10.326   5.150   9.497  0.6899 -0.3888  0.3208
 9169SOL    HW131869  10.258   5.177   9.436  0.2499 -2.5653 -0.2297
 9169SOL    HW231870  10.408   5.169   9.452  0.4617  1.0119  0.4425
 9170SOL     OW31871   7.303   8.477   3.389  0.0155  0.4130  0.1835
 9170SOL    HW131872   7.360   8.468   3.466 -3.5999  1.0122  3.2004
 9170SOL    HW231873   7.237   8.409   3.401  0.8738 -1.5303 -4.1819
 9171SOL     OW31874  10.672   8.077  10.814  0.2436  0.2163  0.0922
 9171SOL    HW131875  10.617   8.094  10.890 -0.9343 -1.3083 -0.3601
 9171SOL    HW231876  10.697   7.985  10.822  0.8483  0.2788 -0.8793
 9172SOL     OW31877  10.233   8.418   8.288 -0.2520 -0.7651  0.1804
 9172SOL    HW131878  10.319   8.386   8.314  0.1047  1.1804  1.6009
 9172SOL    HW231879  10.172   8.371   8.346 -0.1188 -1.6362 -0.3603
 9173SOL     OW31880   6.590   3.771   5.122  0.0718 -0.7826  0.6206
 9173SOL    HW131881   6.622   3.861   5.121 -0.4815 -0.5851  0.4064
 9173SOL    HW231882   6.665   3.718   5.095 -0.1147 -0.2220 -1.0974
 9174SOL     OW31883   1.063   9.388   2.775 -0.5698  0.8627 -0.5860
 9174SOL    HW131884   1.121   9.384   2.699  0.1901 -0.5967  0.0171
 9174SOL    HW231885   1.112   9.342   2.844 -2.5428 -0.7004 -0.1327
 9175SOL     OW31886   5.490   7.357   4.037 -0.0744 -0.5150  0.3654
 9175SOL    HW131887   5.414   7.299   4.035 -0.4699 -0.1151  2.1226
 9175SOL    HW231888   5.462   7.431   4.092  1.0546  0.4228 -0.2826
 9176SOL     OW31889   6.228   1.846   8.011 -0.2887  0.1415 -0.5002
 9176SOL    HW131890   6.321   1.858   8.034 -0.6359  0.9242  0.6083
 9176SOL    HW231891   6.219   1.752   7.997  0.6976  0.0660 -0.7132
 9177SOL     OW31892   2.497   7.457   7.798 -0.2170  0.7673 -0.2012
 9177SOL    HW131893   2.529   7.368   7.785 -2.9932 -0.1272 -1.4945
 9177SOL    HW231894   2.534   7.507   7.725 -0.9814 -0.0125 -1.1349
 9178SOL     OW31895   4.870   6.254  10.362  0.3339  0.0493 -0.0047
 9178SOL    HW131896   4.906   6.343  10.359  0.3919  0.0263  0.0110
 9178SOL    HW231897   4.928   6.207  10.422 -1.4582  0.8036  2.4595
 9179SOL     OW31898   9.183   4.968   1.489  0.0111  0.0504 -0.7775
 9179SOL    HW131899   9.273   5.002   1.495  0.2632 -0.6720 -0.2762
 9179SOL    HW231900   9.193   4.878   1.459 -0.5918  0.1267 -1.2343
 9180SOL     OW31901  10.416   9.650  10.022 -0.4680  0.1772  0.1648
 9180SOL    HW131902  10.502   9.643  10.065 -0.2281 -0.0847 -0.3498
 9180SOL    HW231903  10.398   9.744  10.021  1.0432  0.5141 -2.0786
 9181SOL     OW31904   2.529   7.860   1.510 -0.4802 -0.4832 -0.3056
 9181SOL    HW131905   2.463   7.891   1.571 -0.2280  0.1790 -0.3586
 9181SOL    HW231906   2.486   7.790   1.461 -1.3344  0.3292 -0.7461
 9182SOL     OW31907   3.830  10.141   3.486 -0.0668  0.5121 -0.2505
 9182SOL    HW131908   3.765  10.203   3.452 -0.8233 -0.5495 -0.8114
 9182SOL    HW231909   3.779  10.079   3.538  0.5707 -0.0083 -0.2316
 9183SOL     OW31910   7.768  11.074   2.096  0.0417  0.0720 -0.3641
 9183SOL    HW131911   7.788  11.043   2.185  0.7496 -0.7021 -0.7734
 9183SOL    HW231912   7.776  11.169   2.102  0.7695 -0.0125  0.2496
 9184SOL     OW31913   2.361   3.528   3.381 -0.2192 -0.3016  0.0342
 9184SOL    HW131914   2.273   3.502   3.410  0.5564 -1.5509  1.3295
 9184SOL    HW231915   2.394   3.452   3.333  0.0578  0.2830 -0.7219
 9185SOL     OW31916   1.973   7.009  10.512  0.6351  0.0225  0.0076
 9185SOL    HW131917   1.901   7.068  10.491  0.5730  0.2028  0.7117
 9185SOL    HW231918   2.049   7.066  10.524  1.3221 -0.2912 -2.4381
 9186SOL     OW31919   4.198  10.075   1.096  0.1984 -0.2070 -0.3699
 9186SOL    HW131920   4.218  10.168   1.106  2.4560 -0.4767 -1.7950
 9186SOL    HW231921   4.262  10.030   1.151 -0.8070 -0.9671  0.2344
 9187SOL     OW31922   1.146   3.926   3.919 -0.0519  0.3155  0.0701
 9187SOL    HW131923   1.171   3.893   3.833  0.8408  1.9650 -0.3441
 9187SOL    HW231924   1.152   3.850   3.977 -1.0557 -0.9175 -1.3599
 9188SOL     OW31925   7.638   0.662   1.287  0.2417  0.5359 -0.1457
 9188SOL    HW131926   7.697   0.587   1.276 -0.0979  0.2861 -0.3261
 9188SOL    HW231927   7.688   0.727   1.335 -0.1470 -0.6334  1.9393
 9189SOL     OW31928   3.324   8.429   0.502 -0.0745 -0.3902  0.1641
 9189SOL    HW131929   3.386   8.499   0.482  1.3039 -1.2772  1.1740
 9189SOL    HW231930   3.264   8.428   0.427 -0.0259  1.7258  0.0484
 9190SOL     OW31931   7.818   7.095   6.090 -0.4658  0.3711 -0.5575
 9190SOL    HW131932   7.882   7.165   6.083 -1.3632  1.4117  0.8791
 9190SOL    HW231933   7.737   7.139   6.116 -1.2871 -1.1083 -0.4520
 9191SOL     OW31934   1.315   3.249   8.804 -0.3098 -0.0406  0.0414
 9191SOL    HW131935   1.327   3.305   8.881  1.3076 -2.5531  1.7750
 9191SOL    HW231936   1.350   3.301   8.732 -1.8151  2.3801  0.9171
 9192SOL     OW31937   1.521   0.001   5.247 -0.3797  0.0791  0.1909
 9192SOL    HW131938   1.567   0.048   5.317 -0.6911  0.5424  0.0922
 9192SOL    HW231939   1.441  -0.030   5.288 -0.3898  0.0313  0.1353
 9193SOL     OW31940  10.868   5.210   2.535 -0.2696 -0.4065  0.4548
 9193SOL    HW131941  10.859   5.230   2.442 -2.1608 -1.1833  0.4305
 9193SOL    HW231942  10.945   5.153   2.540 -0.0025 -0.1526 -0.6006
 9194SOL     OW31943   8.002   5.296   3.309 -0.2770  0.0797  0.5032
 9194SOL    HW131944   7.968   5.222   3.359 -0.3183  0.5837  1.2372
 9194SOL    HW231945   8.082   5.263   3.269 -0.4694 -0.4598  0.5506
 9195SOL     OW31946   2.889   5.358   5.553  0.3977 -0.5296  0.0581
 9195SOL    HW131947   2.920   5.367   5.463  2.9889  0.8165  0.9813
 9195SOL    HW231948   2.916   5.439   5.596 -0.1777 -1.4129  2.2194
 9196SOL     OW31949   1.307  11.056   0.956 -0.3490 -0.1879  0.3505
 9196SOL    HW131950   1.303  11.047   0.861  0.2207  1.3836  0.1398
 9196SOL    HW231951   1.265  11.140   0.974  4.1072  2.2697  0.8745
 9197SOL     OW31952   2.681   8.665   4.426 -0.1041 -0.1159  0.1107
 9197SOL    HW131953   2.721   8.661   4.513  0.3427 -0.1865 -0.0961
 9197SOL    HW231954   2.587   8.657   4.443 -0.0705  0.4940  0.6375
 9198SOL     OW31955   8.935   5.840   9.014 -0.7137  0.1735  0.3274
 9198SOL    HW131956   8.971   5.754   8.994 -1.4435  0.2068 -1.2918
 9198SOL    HW231957   8.965   5.896   8.943 -1.4945  0.8963  0.5526
 9199SOL     OW31958   6.332   1.599   0.657 -0.4123  0.4688 -0.2829
 9199SOL    HW131959   6.279   1.669   0.619  0.9918  1.9082  0.2761
 9199SOL    HW231960   6.405   1.589   0.596 -1.3160 -1.5720 -1.1111
 9200SOL     OW31961   9.115   9.957   7.965  0.0112 -0.0037 -0.3515
 9200SOL    HW131962   9.110  10.030   7.903 -0.2220  1.1651  0.9968
 9200SOL    HW231963   9.209   9.943   7.977  0.0632 -0.3612 -1.0739
 9201SOL     OW31964   0.290   6.276   0.388  0.7218 -0.4599 -0.4066
 9201SOL    HW131965   0.315   6.343   0.324  2.1429  0.6609  1.2430
 9201SOL    HW231966   0.267   6.325   0.467  0.2120 -1.8531  0.3455
 9202SOL     OW31967   6.457   8.738   2.833 -0.1519  0.5682  0.6335
 9202SOL    HW131968   6.521   8.784   2.887  1.4671 -1.5012  0.6519
 9202SOL    HW231969   6.456   8.649   2.869 -1.4945  0.0011 -0.7126
 9203SOL     OW31970   6.154   2.235   4.018  0.1357  0.5922 -0.0007
 9203SOL    HW131971   6.113   2.149   4.032  1.2512 -0.1536 -1.1584
 9203SOL    HW231972   6.228   2.217   3.960 -0.0350  2.4463 -0.8487
 9204SOL     OW31973  11.023   3.347   5.915 -0.6618  0.5114 -0.2869
 9204SOL    HW131974  10.958   3.282   5.942 -1.2967  0.6999 -1.3038
 9204SOL    HW231975  11.074   3.302   5.846  0.8924  0.0500  1.0971
 9205SOL     OW31976   7.967   7.194   6.796 -0.2603 -0.5511  0.3018
 9205SOL    HW131977   7.889   7.144   6.776 -0.4132 -1.4273  2.7851
 9205SOL    HW231978   7.972   7.196   6.892  0.8839  2.4269  0.3225
 9206SOL     OW31979   8.214   1.711   3.287 -0.3859 -0.3775  0.2408
 9206SOL    HW131980   8.289   1.678   3.338  0.9868  0.3213 -1.2528
 9206SOL    HW231981   8.253   1.757   3.213 -2.3226 -0.9100 -1.1869
 9207SOL     OW31982   0.636   7.813   0.431 -0.0605 -0.0684 -0.0092
 9207SOL    HW131983   0.698   7.786   0.362 -0.2174  1.1383 -0.6510
 9207SOL    HW231984   0.617   7.904   0.411 -0.1950  0.2800  1.6043
 9208SOL     OW31985  10.127  11.077   9.568  0.4619  0.6204  0.4074
 9208SOL    HW131986  10.210  11.049   9.607  0.3139 -0.2961  0.0899
 9208SOL    HW231987  10.110  11.013   9.498  0.3847  1.8221 -0.7278
 9209SOL     OW31988   7.589   2.923   1.650 -0.2878 -0.1136 -0.6206
 9209SOL    HW131989   7.629   2.840   1.674 -2.3369 -0.6963  1.0288
 9209SOL    HW231990   7.519   2.899   1.589 -2.5160  0.0084  1.7386
 9210SOL     OW31991   8.903   3.607   7.882  0.5018 -0.1189 -0.1121
 9210SOL    HW131992   8.949   3.525   7.865  1.1606  0.2360 -0.0539
 9210SOL    HW231993   8.900   3.652   7.798  3.5328  1.5188  0.5056
 9211SOL     OW31994   8.378   8.243   0.341 -0.0339  0.3325  0.5661
 9211SOL    HW131995   8.408   8.275   0.256 -1.2486  0.3308  0.1084
 9211SOL    HW231996   8.457   8.241   0.396  0.9428 -0.5558 -0.8152
 9212SOL     OW31997   6.477   2.786   4.939  0.2234  0.2529 -0.4984
 9212SOL    HW131998   6.402   2.739   4.903  0.0679  1.1852 -1.4284
 9212SOL    HW231999   6.488   2.749   5.026 -0.6132 -0.6866 -0.7687
 9213SOL     OW32000   0.082   8.215  10.464  0.0418 -0.0766  0.5222
 9213SOL    HW132001   0.088   8.150  10.394  0.4800 -1.1040  1.5064
 9213SOL    HW232002   0.135   8.180  10.535  0.5614  1.5120  0.9617
 9214SOL     OW32003  10.487   3.681   6.730  0.0501 -0.0225  0.2215
 9214SOL    HW132004  10.532   3.765   6.728 -0.9889  0.5297 -0.9258
 9214SOL    HW232005  10.396   3.702   6.751 -0.1084 -0.9269  0.4997
 9215SOL     OW32006   9.678   6.286   0.247  0.4945 -0.7202 -0.5500
 9215SOL    HW132007   9.584   6.269   0.252  0.8316 -2.5899 -0.1337
 9215SOL    HW232008   9.690   6.330   0.162 -0.5683 -1.7936 -1.2872
 9216SOL     OW32009   1.872   7.394   1.599 -0.3633 -0.2111  0.2391
 9216SOL    HW132010   1.845   7.369   1.510  3.1672 -2.6159 -0.3909
 9216SOL    HW232011   1.913   7.480   1.588 -0.1242 -0.4033 -0.4551
 9217SOL     OW32012   2.933   7.845   4.826 -0.4116  0.4867 -0.1387
 9217SOL    HW132013   2.927   7.756   4.861  0.8433 -0.1063 -1.3245
 9217SOL    HW232014   2.850   7.886   4.851 -0.3052 -0.4346  1.9505
 9218SOL     OW32015   5.509   9.417   9.073 -0.2493 -0.1832  0.3954
 9218SOL    HW132016   5.545   9.337   9.036  1.0307 -0.8185  2.8438
 9218SOL    HW232017   5.425   9.390   9.110 -0.3228 -0.1439  0.2565
 9219SOL     OW32018   5.209   7.663   9.656 -0.1877  0.3473  0.3901
 9219SOL    HW132019   5.213   7.575   9.693 -0.9556 -0.3294 -1.0586
 9219SOL    HW232020   5.298   7.697   9.666  0.3258 -0.9061  0.2353
 9220SOL     OW32021   1.745   6.953   8.310 -0.4948 -0.1263  0.6575
 9220SOL    HW132022   1.778   6.963   8.399 -0.6725  2.2751  0.5266
 9220SOL    HW232023   1.650   6.965   8.317 -0.5372 -0.1367  0.1762
 9221SOL     OW32024   7.766   8.557   2.605 -0.1828  0.0806 -0.0329
 9221SOL    HW132025   7.854   8.593   2.601  0.1375 -0.6873 -0.1620
 9221SOL    HW232026   7.762   8.495   2.532 -0.4117 -0.7841  0.6919
 9222SOL     OW32027   3.424   6.978   3.085 -0.3880  0.0470  0.4654
 9222SOL    HW132028   3.496   6.955   3.143  0.3607  2.2704  0.5137
 9222SOL    HW232029   3.358   7.016   3.142 -1.7216 -2.0816  0.4391
 9223SOL     OW32030   8.622   4.413   5.584  0.3543  0.2123 -0.2233
 9223SOL    HW132031   8.697   4.408   5.525  0.8128  1.2483  0.2522
 9223SOL    HW232032   8.656   4.383   5.669 -0.4167 -1.7296 -0.5507
 9224SOL     OW32033  10.936   3.528   5.099  0.0137  0.0914  0.4484
 9224SOL    HW132034  10.954   3.451   5.153 -1.1036 -0.3032  0.2856
 9224SOL    HW232035  10.916   3.597   5.162 -1.6091 -0.4525  0.5696
 9225SOL     OW32036   8.233   2.310   1.528  0.3844  0.0321  0.1328
 9225SOL    HW132037   8.202   2.239   1.472 -4.0841  0.6932  1.4120
 9225SOL    HW232038   8.272   2.373   1.467  2.1770 -2.2849 -1.2750
 9226SOL     OW32039   2.771   3.228   2.577  0.1858 -0.6174  0.2551
 9226SOL    HW132040   2.807   3.178   2.504  0.9548 -1.8071  1.4103
 9226SOL    HW232041   2.679   3.243   2.553  0.7724  0.3399 -1.6091
 9227SOL     OW32042   0.395   1.991   7.487  0.2546  0.1582 -0.1393
 9227SOL    HW132043   0.373   2.066   7.432 -1.1582 -1.1228 -1.4337
 9227SOL    HW232044   0.384   2.022   7.577 -0.9226  1.3345 -0.6611
 9228SOL     OW32045   1.470  10.146   6.822 -0.2784 -0.2529 -0.4043
 9228SOL    HW132046   1.411  10.147   6.746 -0.8580  2.2485 -0.0080
 9228SOL    HW232047   1.557  10.163   6.785 -0.1332 -1.5435 -0.7227
 9229SOL     OW32048   5.304   4.217   3.237  0.5637  0.2594  0.2007
 9229SOL    HW132049   5.388   4.241   3.197  0.1591 -0.2397 -0.9883
 9229SOL    HW232050   5.327   4.146   3.298  0.6277 -2.4511 -2.7212
 9230SOL     OW32051   3.087   9.401   9.219  0.1006 -0.3925 -0.3417
 9230SOL    HW132052   3.018   9.466   9.202  0.1235 -0.4128 -0.5122
 9230SOL    HW232053   3.154   9.420   9.154  1.1920  0.9439  1.0856
 9231SOL     OW32054   7.227  10.619   1.806 -0.5786 -0.1643 -0.1879
 9231SOL    HW132055   7.255  10.537   1.846 -1.6977 -1.4710 -1.9367
 9231SOL    HW232056   7.298  10.680   1.824  1.1617 -2.0182 -0.4043
 9232SOL     OW32057   3.876   5.598   6.411  0.3255  0.2910  0.2694
 9232SOL    HW132058   3.845   5.642   6.490  1.0308  1.3508 -0.0397
 9232SOL    HW232059   3.964   5.567   6.432 -0.3574 -1.5011  0.6724
 9233SOL     OW32060  10.874   4.569   5.672 -0.1928  0.3299  0.1918
 9233SOL    HW132061  10.786   4.548   5.704  0.0630 -0.1283  0.6060
 9233SOL    HW232062  10.864   4.654   5.629 -0.9799 -0.0280 -0.3714
 9234SOL     OW32063   0.645   9.720   0.448 -0.4989  0.2366  0.0905
 9234SOL    HW132064   0.663   9.719   0.542  3.2098 -0.5007 -0.4402
 9234SOL    HW232065   0.688   9.801   0.417 -0.7733 -0.0511 -1.0798
 9235SOL     OW32066   9.040   3.215   7.108 -0.2496  0.1786 -0.1839
 9235SOL    HW132067   9.093   3.266   7.046  0.8608  0.4626  0.9522
 9235SOL    HW232068   9.006   3.142   7.056 -0.1390  0.9246 -1.3469
 9236SOL     OW32069   9.059   9.464   0.986  0.3036  0.3335  0.1396
 9236SOL    HW132070   9.060   9.444   1.079 -0.2602  1.4979  0.4143
 9236SOL    HW232071   9.035   9.382   0.943 -2.8197  0.5390  1.2490
 9237SOL     OW32072   7.980   1.015   7.598 -0.5651 -0.1967 -0.0279
 9237SOL    HW132073   8.037   1.092   7.605  0.3862 -1.0219  2.3869
 9237SOL    HW232074   8.017   0.965   7.525 -0.5322  1.0741 -0.9215
 9238SOL     OW32075  10.390   0.002   0.907 -0.0432  0.1837 -0.1920
 9238SOL    HW132076  10.311  -0.047   0.932  0.9048 -0.4396  1.7778
 9238SOL    HW232077  10.365   0.094   0.915 -1.0120  0.0357 -1.1689
 9239SOL     OW32078   9.837   4.957   2.588 -0.1465 -0.1244  0.3190
 9239SOL    HW132079   9.799   4.913   2.665  0.9556  0.3325  1.1524
 9239SOL    HW232080   9.801   5.046   2.591  0.5702  0.1621  0.8345
 9240SOL     OW32081   8.599   2.551   8.907  0.3586 -0.3749  0.0284
 9240SOL    HW132082   8.667   2.489   8.935 -0.4103 -0.7160  1.1972
 9240SOL    HW232083   8.598   2.543   8.812  1.1952 -1.1925  0.0738
 9241SOL     OW32084   3.239   4.098   4.045 -0.1035  0.3893  0.0624
 9241SOL    HW132085   3.315   4.086   3.989  1.5293 -1.2157  2.4509
 9241SOL    HW232086   3.259   4.176   4.097  0.3079 -0.4581  1.2153
 9242SOL     OW32087  10.867  10.461   2.919  0.0165 -0.0812  0.2457
 9242SOL    HW132088  10.796  10.524   2.909 -0.1242  0.1608  2.3166
 9242SOL    HW232089  10.837  10.401   2.988  0.4618 -2.0125 -1.1400
 9243SOL     OW32090   0.135   6.960   4.153 -0.2105  0.3091  0.7626
 9243SOL    HW132091   0.201   6.902   4.191  1.3030 -0.2960 -2.4794
 9243SOL    HW232092   0.186   7.029   4.109 -1.7029  0.1336 -1.3817
 9244SOL     OW32093   3.516   0.498   3.191  0.4013  0.4246  0.0897
 9244SOL    HW132094   3.602   0.491   3.231  0.1558 -1.2904  0.3667
 9244SOL    HW232095   3.498   0.592   3.190  1.8432  0.7343  0.9177
 9245SOL     OW32096   3.728   5.350   3.159  0.5418 -0.0235 -0.7429
 9245SOL    HW132097   3.705   5.266   3.121 -0.5004 -0.6346  1.1044
 9245SOL    HW232098   3.814   5.371   3.122  0.7366 -1.8069 -1.3708
 9246SOL     OW32099   1.398   8.399   0.236 -0.3046  0.5083  0.0147
 9246SOL    HW132100   1.396   8.308   0.267  0.8594 -0.9117 -3.5101
 9246SOL    HW232101   1.306   8.425   0.234 -0.6835 -0.6271  0.9430
 9247SOL     OW32102   3.308   1.425   7.641  0.1386 -0.6045  0.9844
 9247SOL    HW132103   3.274   1.416   7.730 -1.8062 -0.8823  0.2548
 9247SOL    HW232104   3.236   1.462   7.590  1.3486 -0.0168 -0.4122
 9248SOL     OW32105   9.080   9.988   5.960  0.3963 -0.0436 -0.0735
 9248SOL    HW132106   9.102   9.909   6.009  1.6062  1.9040  2.8354
 9248SOL    HW232107   8.984   9.992   5.962  0.3341 -1.2943 -0.0817
 9249SOL     OW32108   9.041   6.999  10.095 -0.0380 -1.1179  0.1322
 9249SOL    HW132109   9.093   7.021  10.172 -0.2799 -0.6171  0.1568
 9249SOL    HW232110   9.011   7.084  10.061  1.2449 -1.2035 -1.3466
 9250SOL     OW32111   9.665   1.144   6.857 -0.5324  0.4139  0.1383
 9250SOL    HW132112   9.581   1.155   6.902 -0.5068 -0.2110  0.3464
 9250SOL    HW232113   9.722   1.211   6.895 -0.9073  0.7866  0.0574
 9251SOL     OW32114  10.997   2.913   2.796  0.5523  0.0548 -0.4090
 9251SOL    HW132115  11.008   2.922   2.701  2.2069 -2.1056 -0.5092
 9251SOL    HW232116  10.939   2.837   2.806 -0.4180  0.8720  0.3272
 9252SOL     OW32117   6.498   9.016   2.684 -0.7907 -0.1740 -0.1917
 9252SOL    HW132118   6.520   8.939   2.736 -1.5484  0.5135  1.1878
 9252SOL    HW232119   6.569   9.079   2.701 -2.1622  0.9097  1.8860
 9253SOL     OW32120   7.969   4.277   9.409  0.1699 -0.0164 -0.1382
 9253SOL    HW132121   7.937   4.308   9.325 -0.4949  0.1112  0.1508
 9253SOL    HW232122   8.051   4.324   9.423  0.2562 -0.0032 -0.6905
 9254SOL     OW32123   6.929   8.030   5.415 -0.1286  0.7157  0.1929
 9254SOL    HW132124   6.940   8.106   5.358 -0.0119  1.0921  0.7162
 9254SOL    HW232125   6.887   7.964   5.359  1.4082  0.5150 -0.7799
 9255SOL     OW32126   1.240   2.670   5.983  0.4600 -0.0872 -0.0595
 9255SOL    HW132127   1.191   2.713   6.053  1.3893  1.3878 -0.2854
 9255SOL    HW232128   1.186   2.593   5.961 -1.7555  1.4392 -0.2916
 9256SOL     OW32129   8.673   1.517   8.809 -0.4202 -0.0968  0.4934
 9256SOL    HW132130   8.719   1.508   8.725  0.8370  1.7811  0.9074
 9256SOL    HW232131   8.580   1.519   8.785 -0.0546  2.2693 -1.1381
 9257SOL     OW32132  10.720   9.866   9.574 -0.2559 -0.0967  0.1945
 9257SOL    HW132133  10.714   9.814   9.654  0.6991 -0.0456  0.3150
 9257SOL    HW232134  10.670   9.946   9.593  2.0605  1.1126  1.7448
 9258SOL     OW32135   7.357   2.179   8.865  0.0849  0.3898 -0.0477
 9258SOL    HW132136   7.383   2.091   8.839 -1.4608 -0.3349  0.7404
 9258SOL    HW232137   7.404   2.195   8.947 -0.1215  0.0389  0.1405
 9259SOL     OW32138   4.384   2.174   1.913 -0.4130 -0.1594 -0.2622
 9259SOL    HW132139   4.403   2.110   1.981  1.1675 -0.5421 -1.0257
 9259SOL    HW232140   4.469   2.215   1.893 -1.1782  1.3621 -0.6084
 9260SOL     OW32141   0.482   5.511   5.040  0.2319  0.6154 -0.1552
 9260SOL    HW132142   0.452   5.529   5.129 -0.7499  0.1291 -0.3777
 9260SOL    HW232143   0.411   5.541   4.984  0.1075 -0.6045 -0.6872
 9261SOL     OW32144   1.117   8.216   0.104 -0.4807  0.1319  0.4226
 9261SOL    HW132145   1.060   8.227   0.180 -1.5149 -0.7009 -0.1960
 9261SOL    HW232146   1.146   8.125   0.110  0.2486  0.3610  0.3653
 9262SOL     OW32147   1.138  11.004   3.140 -0.2858  0.1115 -0.4454
 9262SOL    HW132148   1.129  11.069   3.071  2.9701 -0.5185 -1.6418
 9262SOL    HW232149   1.085  10.930   3.111 -1.0603  0.8337 -0.9020
 9263SOL     OW32150   6.035   2.690   1.859  0.3072  0.2253 -0.0307
 9263SOL    HW132151   6.113   2.710   1.808  1.2882  0.2951  1.4451
 9263SOL    HW232152   6.006   2.604   1.827  1.0120  0.1767 -0.5507
 9264SOL     OW32153   7.169   7.895   1.330 -0.7779  0.2137  0.8194
 9264SOL    HW132154   7.190   7.868   1.240  0.9025 -1.3319  1.6005
 9264SOL    HW232155   7.224   7.972   1.345 -1.2360  0.6177  0.4697
 9265SOL     OW32156   6.491   2.256   8.585  0.4941  0.6817  0.6025
 9265SOL    HW132157   6.412   2.306   8.606  0.0739  0.7492 -0.9582
 9265SOL    HW232158   6.498   2.191   8.654 -0.9732  0.6347  0.7411
 9266SOL     OW32159   2.955   9.707   2.098 -0.4173 -0.6020  0.4111
 9266SOL    HW132160   2.864   9.705   2.068 -0.8130 -1.7546  1.5474
 9266SOL    HW232161   2.949   9.688   2.192  1.1481 -3.6257  0.0366
 9267SOL     OW32162   8.064   0.939   6.539  0.1139 -0.5620 -0.8083
 9267SOL    HW132163   8.105   0.904   6.460 -0.7811  1.0088 -2.0195
 9267SOL    HW232164   8.137   0.956   6.599  0.8940 -0.9047 -1.6447
 9268SOL     OW32165   7.284   3.729   2.038  0.4440  0.4762 -0.5338
 9268SOL    HW132166   7.210   3.704   1.982  0.3417 -0.8707  0.1442
 9268SOL    HW232167   7.321   3.807   1.996 -0.0451 -0.0811 -2.0898
 9269SOL     OW32168   6.689   1.430   0.782 -0.1932  0.0054 -0.2342
 9269SOL    HW132169   6.734   1.350   0.754 -1.1718 -0.2950 -1.0570
 9269SOL    HW232170   6.649   1.407   0.866 -0.1938 -0.2690 -0.3082
 9270SOL     OW32171   9.868  10.824   7.086 -0.0719 -0.4309  0.4327
 9270SOL    HW132172   9.956  10.829   7.123  0.7760  0.9353 -1.6036
 9270SOL    HW232173   9.821  10.898   7.124 -0.1608 -0.7928  1.0383
 9271SOL     OW32174   5.266   4.587   3.806  0.6176 -0.1883  0.4586
 9271SOL    HW132175   5.313   4.565   3.726 -0.5822 -2.0051  0.1858
 9271SOL    HW232176   5.181   4.618   3.777 -0.3663 -2.2037  0.9679
 9272SOL     OW32177   3.974   7.547   6.336  0.2095  0.3599  0.0489
 9272SOL    HW132178   3.995   7.609   6.265 -0.3902  0.2887 -0.1928
 9272SOL    HW232179   3.890   7.509   6.311  0.4264 -0.3361  0.3462
 9273SOL     OW32180   6.856  10.662   9.085 -0.3720  0.0622  0.0558
 9273SOL    HW132181   6.767  10.634   9.106 -0.5084 -0.7685 -1.4809
 9273SOL    HW232182   6.886  10.708   9.164 -1.6322 -0.8764  1.1246
 9274SOL     OW32183   4.336  11.064   9.257  0.2566 -0.0214 -0.7331
 9274SOL    HW132184   4.285  10.992   9.219  0.2343 -1.5665  1.9575
 9274SOL    HW232185   4.272  11.133   9.274 -0.1758 -0.3301 -1.0968
 9275SOL     OW32186   2.635  10.681   8.639  0.2383 -0.0982 -0.3957
 9275SOL    HW132187   2.643  10.586   8.627 -0.9442 -0.3242  0.4462
 9275SOL    HW232188   2.706  10.704   8.699 -1.4680 -1.0538  2.1642
 9276SOL     OW32189   1.964   9.489   5.803  0.4435 -0.3775 -0.1238
 9276SOL    HW132190   2.018   9.567   5.786  0.4299 -0.4832 -0.6717
 9276SOL    HW232191   1.878   9.524   5.824  0.7296 -0.2029  0.8297
 9277SOL     OW32192  10.358   4.028  10.468 -0.1019  0.0076 -0.4203
 9277SOL    HW132193  10.387   4.075  10.390  1.9534  0.3921  0.5007
 9277SOL    HW232194  10.269   4.060  10.485  0.2925  1.6385 -1.2807
 9278SOL     OW32195   9.155   5.761   4.013 -0.0446  0.4096 -0.1655
 9278SOL    HW132196   9.086   5.732   4.072 -0.1990  1.0433 -0.0273
 9278SOL    HW232197   9.236   5.732   4.054 -0.2511 -0.9427 -0.6688
 9279SOL     OW32198   3.449   7.193  10.432  0.7972 -0.2158 -0.5090
 9279SOL    HW132199   3.530   7.169  10.477  0.8984  1.3874  0.2405
 9279SOL    HW232200   3.438   7.287  10.451 -2.0512 -0.6813  0.7787
 9280SOL     OW32201   3.940   1.949   3.886  0.2236  0.6080 -0.3916
 9280SOL    HW132202   3.857   1.988   3.858 -0.6039 -1.2991 -0.7425
 9280SOL    HW232203   4.007   2.008   3.851 -0.9527  2.3840  0.2037
 9281SOL     OW32204   5.829   9.033   2.980  0.4264  0.1397  0.1220
 9281SOL    HW132205   5.822   8.938   2.966 -2.5089  0.4959 -1.5351
 9281SOL    HW232206   5.753   9.070   2.935  1.4833  3.3237  0.7020
 9282SOL     OW32207   7.741   9.323   0.116  0.1245 -0.2499  0.0275
 9282SOL    HW132208   7.720   9.300   0.026  0.0707 -0.8358  0.1896
 9282SOL    HW232209   7.702   9.410   0.128 -0.0648 -0.2676 -0.4376
 9283SOL     OW32210   4.683   8.196   0.520 -0.4176  0.3102 -0.2962
 9283SOL    HW132211   4.778   8.185   0.522 -0.5654 -1.0239  0.2030
 9283SOL    HW232212   4.649   8.114   0.483 -1.3783  0.7959 -0.5452
 9284SOL     OW32213  11.017   9.253   8.036  0.4803 -0.0297 -0.8702
 9284SOL    HW132214  10.923   9.236   8.031  0.7259 -3.4306  1.9634
 9284SOL    HW232215  11.023   9.334   8.087 -0.8463  0.6895 -1.7798
 9285SOL     OW32216   6.655   3.142   3.941 -0.0818 -0.1646  0.1504
 9285SOL    HW132217   6.579   3.095   3.976  1.9017 -3.2456  0.6526
 9285SOL    HW232218   6.642   3.142   3.847 -0.8928 -0.2778  0.2519
 9286SOL     OW32219  10.722   2.359   1.770  0.5138  0.4814  0.4889
 9286SOL    HW132220  10.746   2.441   1.814  1.3241 -0.5130  1.9892
 9286SOL    HW232221  10.745   2.290   1.833  1.4818 -1.0265 -1.4064
 9287SOL     OW32222  10.567   0.618   0.376  0.0032 -0.5035 -0.3922
 9287SOL    HW132223  10.577   0.526   0.398  0.5236 -0.2608  0.4334
 9287SOL    HW232224  10.560   0.662   0.460  0.1941  0.2537 -0.7622
 9288SOL     OW32225  10.276  10.155   3.880  0.4507 -0.1151  0.5281
 9288SOL    HW132226  10.300  10.243   3.851  2.1847 -0.9195 -0.6506
 9288SOL    HW232227  10.302  10.152   3.972  0.0710  0.6912  0.6698
 9289SOL     OW32228  10.449   2.851   7.245  0.7152  0.2983  0.3641
 9289SOL    HW132229  10.538   2.884   7.256  0.3657  1.1067  0.8519
 9289SOL    HW232230  10.443   2.775   7.303  0.8635  0.6941  0.9047
 9290SOL     OW32231   0.027   6.265  10.004 -0.0871 -0.1468  0.1665
 9290SOL    HW132232   0.106   6.304   9.966  0.4866 -0.9011  0.5567
 9290SOL    HW232233   0.047   6.172  10.008 -0.6264 -0.2251  1.1781
 9291SOL     OW32234   9.477   2.726   7.250  0.1003 -0.1806  0.3043
 9291SOL    HW132235   9.567   2.752   7.267  0.6186 -0.6386 -1.4653
 9291SOL    HW232236   9.470   2.724   7.154 -1.5822 -0.8277  0.3947
 9292SOL     OW32237  10.735   4.574   9.841 -0.6008  0.0449 -0.5919
 9292SOL    HW132238  10.756   4.662   9.872 -1.0484 -0.1181  0.1986
 9292SOL    HW232239  10.694   4.587   9.756 -0.0233  0.5535 -0.7918
 9293SOL     OW32240   1.055  10.791   2.971 -0.7323 -0.0665  0.6940
 9293SOL    HW132241   0.988  10.733   2.935  0.9885 -2.0506  0.4715
 9293SOL    HW232242   1.116  10.804   2.898 -0.3202  0.8171  1.1856
 9294SOL     OW32243   0.496   6.157   7.204  0.6115 -0.1971  0.5187
 9294SOL    HW132244   0.560   6.088   7.220 -0.8771 -1.5368  0.9072
 9294SOL    HW232245   0.481   6.155   7.109  0.5869 -0.4012  0.5263
 9295SOL     OW32246   5.926   9.502   8.680 -0.6490  0.0422 -0.4042
 9295SOL    HW132247   5.955   9.593   8.684  0.7627 -0.3654 -0.7922
 9295SOL    HW232248   5.887   9.493   8.592  1.8034 -0.4124 -1.5273
 9296SOL     OW32249   5.976   0.964   4.133  0.1385  0.2162 -0.1836
 9296SOL    HW132250   5.913   0.907   4.089 -0.1433  1.1321 -1.0221
 9296SOL    HW232251   6.035   0.992   4.062  0.0686  1.2093  0.1300
 9297SOL     OW32252   8.298   7.674   4.257 -0.0535 -0.2634 -0.1876
 9297SOL    HW132253   8.286   7.744   4.193  2.0999  0.1556 -0.2149
 9297SOL    HW232254   8.272   7.712   4.341  1.1008  0.6125 -0.2026
 9298SOL     OW32255   8.833   5.465   9.140  0.3707 -0.6755  0.1817
 9298SOL    HW132256   8.779   5.485   9.064  0.7026 -1.8176 -0.3698
 9298SOL    HW232257   8.771   5.444   9.209  0.0471  0.8804  0.4171
 9299SOL     OW32258   3.489   0.037   6.816  0.4636  0.3308  0.2626
 9299SOL    HW132259   3.529  -0.025   6.755 -1.2039 -0.5922  0.0261
 9299SOL    HW232260   3.522   0.122   6.789 -1.7022  0.2440 -3.3307
 9300SOL     OW32261   1.802   3.840   5.439 -0.2068 -0.5087 -0.1769
 9300SOL    HW132262   1.831   3.764   5.388 -1.5562 -0.6515 -0.7844
 9300SOL    HW232263   1.750   3.891   5.377 -0.2792  0.3235  0.5531
 9301SOL     OW32264   7.779   3.032   9.800  0.0909  0.4618  0.2404
 9301SOL    HW132265   7.845   3.005   9.737 -0.3756  0.6803 -0.3486
 9301SOL    HW232266   7.754   2.950   9.844  1.3550  0.4961  1.0851
 9302SOL     OW32267   9.709   0.599   3.752 -0.8714  0.3721 -0.1821
 9302SOL    HW132268   9.741   0.569   3.837  0.2781  0.4147 -0.5922
 9302SOL    HW232269   9.642   0.664   3.774  0.9439  2.0238  0.7197
 9303SOL     OW32270   6.272   0.078   2.522 -0.2633  0.2807  0.3580
 9303SOL    HW132271   6.281   0.026   2.442  1.4337 -0.7981  1.2104
 9303SOL    HW232272   6.184   0.116   2.516  0.0248  0.7189 -2.2883
 9304SOL     OW32273   5.167   3.232   3.017 -0.1789 -0.3398  0.5448
 9304SOL    HW132274   5.238   3.276   2.969 -0.0552  0.1383  1.1468
 9304SOL    HW232275   5.124   3.177   2.952 -0.5466  0.9269 -0.3334
 9305SOL     OW32276   5.217   1.065   1.286  0.1578  0.0671  0.3607
 9305SOL    HW132277   5.250   1.112   1.363  1.1809 -0.3283  0.1775
 9305SOL    HW232278   5.287   1.073   1.221 -0.7809  0.5888 -0.6222
 9306SOL     OW32279   4.359   2.014   5.709 -0.8049  0.3134 -0.1258
 9306SOL    HW132280   4.271   2.026   5.673 -0.2850  0.9903 -1.2080
 9306SOL    HW232281   4.391   1.934   5.669 -0.7857  0.2615 -0.0074
 9307SOL     OW32282   3.484   8.440   6.597 -0.3159 -0.3391  0.2858
 9307SOL    HW132283   3.466   8.435   6.504 -0.2862 -2.2635  0.3404
 9307SOL    HW232284   3.510   8.351   6.621  2.4221  0.7099  1.5908
 9308SOL     OW32285   4.250   9.654   7.207  0.0817  0.1150  0.4726
 9308SOL    HW132286   4.338   9.674   7.175  0.2252 -1.1102  0.0455
 9308SOL    HW232287   4.203   9.621   7.130 -0.7593  0.7494  0.6966
 9309SOL     OW32288   2.280   9.041   1.142  0.9007 -0.3126  0.2850
 9309SOL    HW132289   2.328   8.960   1.153  2.1633  0.2535 -0.8357
 9309SOL    HW232290   2.278   9.056   1.048 -1.2500 -0.1537  0.3087
 9310SOL     OW32291   6.664   2.847   9.596 -0.3899  0.0571 -0.1843
 9310SOL    HW132292   6.737   2.821   9.652 -0.3211  0.7792  0.0732
 9310SOL    HW232293   6.664   2.784   9.525 -1.0887 -1.5089  1.1433
 9311SOL     OW32294   3.394   4.148   6.326  0.4054  0.4552 -0.2004
 9311SOL    HW132295   3.322   4.100   6.284 -0.3898  1.8942 -0.5541
 9311SOL    HW232296   3.369   4.153   6.418 -0.2671  1.4566 -0.4218
 9312SOL     OW32297   7.320   8.760   4.362 -0.4274 -0.2672 -0.6225
 9312SOL    HW132298   7.385   8.769   4.432 -2.5692  1.2207  1.3427
 9312SOL    HW232299   7.313   8.848   4.325 -1.2696 -0.4082 -0.8131
 9313SOL     OW32300   6.834   4.069  11.034  0.6129 -0.2896 -0.0264
 9313SOL    HW132301   6.812   3.993  11.088  0.4892  0.6042  1.2283
 9313SOL    HW232302   6.749   4.110  11.015  0.6935 -0.3628 -0.5420
 9314SOL     OW32303   6.751  11.015   0.214 -0.7113  0.1328  0.1430
 9314SOL    HW132304   6.817  10.989   0.151 -1.3248  0.2159 -0.5471
 9314SOL    HW232305   6.677  11.045   0.161 -1.0544  0.6720  0.8976
 9315SOL     OW32306  10.732   8.717  10.854 -0.0547 -0.5038  0.1902
 9315SOL    HW132307  10.783   8.776  10.909 -1.2591  2.4096 -1.5734
 9315SOL    HW232308  10.795   8.681  10.791  0.5402 -0.3926  0.7235
 9316SOL     OW32309   9.881   1.318   7.174  0.2101 -0.1293  0.3316
 9316SOL    HW132310   9.875   1.223   7.174  0.0498 -0.1272  1.0596
 9316SOL    HW232311   9.801   1.347   7.218 -1.1599  0.4763 -2.3274
 9317SOL     OW32312   8.825  10.247   6.344  0.1309  0.1955 -0.1471
 9317SOL    HW132313   8.886  10.321   6.353 -0.2356  0.4490  0.2764
 9317SOL    HW232314   8.751  10.283   6.296  1.4095 -0.7581 -3.1159
 9318SOL     OW32315   8.396   0.268   2.375 -0.3405  0.0478  1.0560
 9318SOL    HW132316   8.374   0.361   2.374 -1.1015 -0.1191 -0.0262
 9318SOL    HW232317   8.439   0.253   2.291  0.0198 -0.5257  1.3370
 9319SOL     OW32318   6.096   6.236   2.278 -0.7020  0.0203  0.2651
 9319SOL    HW132319   6.146   6.218   2.357 -2.9431  0.1754  1.8008
 9319SOL    HW232320   6.068   6.327   2.287  0.9181  0.8011 -1.8672
 9320SOL     OW32321   0.784   5.036   4.001 -0.1328 -0.2416 -0.2972
 9320SOL    HW132322   0.835   4.956   3.991  0.1249 -0.2441  0.9425
 9320SOL    HW232323   0.749   5.053   3.913 -0.6893 -2.0365 -0.4640
 9321SOL     OW32324   0.457   8.122   5.011  0.9334 -0.7333  0.2269
 9321SOL    HW132325   0.480   8.042   4.963 -0.8358 -0.2168 -1.6478
 9321SOL    HW232326   0.512   8.190   4.972 -0.2773 -0.3719 -0.9063
 9322SOL     OW32327  10.747  10.174   6.091  0.2403 -0.4103 -0.4167
 9322SOL    HW132328  10.825  10.152   6.040  0.4444 -1.8185  0.4381
 9322SOL    HW232329  10.767  10.258   6.132 -0.0781  0.9616 -2.8732
 9323SOL     OW32330  10.066   4.311   1.229 -0.0926  0.2139  0.1760
 9323SOL    HW132331   9.971   4.323   1.233 -0.3430 -1.1455 -1.1094
 9323SOL    HW232332  10.098   4.392   1.188 -0.6685  0.7224  0.7058
 9324SOL     OW32333   5.368   6.954   5.083  0.3036 -0.1483 -0.2462
 9324SOL    HW132334   5.303   6.905   5.133 -0.8016  0.9934 -0.5074
 9324SOL    HW232335   5.332   7.043   5.077  1.7712  0.4566 -0.6287
 9325SOL     OW32336   6.947   8.512   3.420  0.2573 -0.0283 -0.3209
 9325SOL    HW132337   6.882   8.457   3.376 -0.5495  0.4883  0.2008
 9325SOL    HW232338   7.015   8.451   3.448  0.0096 -0.5758 -0.9065
 9326SOL     OW32339   8.934   9.883   6.785 -0.0681  0.0373  0.2367
 9326SOL    HW132340   8.870   9.831   6.735 -0.7017  0.1690  0.9022
 9326SOL    HW232341   9.009   9.890   6.726 -1.3584  1.4720 -1.3518
 9327SOL     OW32342   6.702   2.475  10.885  0.5042  0.2318  0.7513
 9327SOL    HW132343   6.789   2.440  10.903  0.4625 -0.0040  0.5068
 9327SOL    HW232344   6.718   2.558  10.840  0.6191 -0.6853 -0.9723
 9328SOL     OW32345  10.080  10.248   8.398  0.1637 -0.3188  0.9899
 9328SOL    HW132346  10.131  10.173   8.431  0.4059 -1.4046 -1.5399
 9328SOL    HW232347  10.146  10.307   8.362 -0.1785 -0.1963  0.5580
 9329SOL     OW32348   0.617   9.975   8.063  0.6071 -0.2570 -0.4394
 9329SOL    HW132349   0.631   9.997   8.155  1.6716 -1.3747 -0.3201
 9329SOL    HW232350   0.598  10.060   8.022  1.7713  0.5020  0.5098
 9330SOL     OW32351   1.074   0.283   5.487  0.7560 -0.0018 -0.2752
 9330SOL    HW132352   0.982   0.283   5.513  0.8861 -1.3326  0.2607
 9330SOL    HW232353   1.088   0.368   5.447 -0.1522  1.0889  1.6049
 9331SOL     OW32354   6.364   2.348   5.517 -0.1689  0.0770 -0.3507
 9331SOL    HW132355   6.316   2.423   5.550  1.1757  0.4777  0.8169
 9331SOL    HW232356   6.409   2.380   5.439  0.0184  0.3432 -0.1322
 9332SOL     OW32357   9.183   0.965   2.708 -0.2337  0.3248  0.1556
 9332SOL    HW132358   9.267   0.957   2.753 -0.6266  0.7386  0.9869
 9332SOL    HW232359   9.176   1.058   2.686 -0.4462  0.2810  0.0359
 9333SOL     OW32360   3.817  11.055   3.751 -0.7526  0.3155 -0.1152
 9333SOL    HW132361   3.866  11.115   3.695  0.0234 -1.3450 -1.3016
 9333SOL    HW232362   3.882  11.017   3.808 -0.9546 -0.5705 -0.4642
 9334SOL     OW32363   0.532   1.820   4.205 -0.4657  0.0672 -0.1753
 9334SOL    HW132364   0.603   1.866   4.250 -1.1574  1.6391 -0.6168
 9334SOL    HW232365   0.490   1.768   4.273  0.6312 -0.3000  0.2459
 9335SOL     OW32366   8.952   3.585  10.870 -0.2650  0.3007 -0.4339
 9335SOL    HW132367   8.956   3.669  10.916  0.1041  0.6255 -1.0589
 9335SOL    HW232368   8.992   3.523  10.931 -0.2975  0.6241 -0.0776
 9336SOL     OW32369   7.469  10.763   5.816  0.0883  0.2367 -0.5064
 9336SOL    HW132370   7.495  10.824   5.748 -0.2327  0.2067 -0.6574
 9336SOL    HW232371   7.401  10.709   5.776 -0.3271  0.4243 -0.0663
 9337SOL     OW32372   3.864   7.731   1.153  0.1103 -0.1904  0.0484
 9337SOL    HW132373   3.897   7.683   1.228  0.8039  0.0194 -0.1225
 9337SOL    HW232374   3.940   7.776   1.116 -0.3870  0.4456 -0.2367
 9338SOL     OW32375   2.162   3.862   7.029  0.0978 -0.1151 -0.5206
 9338SOL    HW132376   2.197   3.796   7.088 -2.0079 -0.0716  0.8690
 9338SOL    HW232377   2.197   3.945   7.061 -1.7462  0.0172  1.3512
 9339SOL     OW32378   8.149   5.392   2.743  0.3831  0.0714  0.4732
 9339SOL    HW132379   8.186   5.382   2.655 -1.3912  1.5207 -0.5218
 9339SOL    HW232380   8.180   5.477   2.773  1.8237 -0.8561  1.7436
 9340SOL     OW32381   1.650   6.450   1.217 -0.5394 -0.2137 -0.2825
 9340SOL    HW132382   1.660   6.355   1.211  0.5751 -0.3669  2.6161
 9340SOL    HW232383   1.651   6.480   1.126 -1.9067 -3.0266 -1.3400
 9341SOL     OW32384   4.838   5.493   6.535 -0.0994 -0.1110 -0.1284
 9341SOL    HW132385   4.890   5.489   6.616  2.3788  2.2781 -1.4257
 9341SOL    HW232386   4.856   5.410   6.491 -1.4608 -1.4324  1.6752
 9342SOL     OW32387  10.798   8.475   3.710  0.3037 -0.3961 -0.8146
 9342SOL    HW132388  10.727   8.426   3.752  0.0765  0.4951 -0.1134
 9342SOL    HW232389  10.812   8.551   3.767  1.9024 -0.6012 -0.8812
 9343SOL     OW32390   5.225   3.079   5.598  0.5978 -1.1621 -0.2630
 9343SOL    HW132391   5.201   3.162   5.557  0.8304 -0.7765  0.3749
 9343SOL    HW232392   5.141   3.034   5.613  0.3443 -0.3939  0.7451
 9344SOL     OW32393   1.186   1.718   3.469 -0.1253  0.0454 -0.0815
 9344SOL    HW132394   1.195   1.638   3.520  0.9889  0.8463  1.0274
 9344SOL    HW232395   1.098   1.750   3.490 -0.1566 -0.2959  0.3223
 9345SOL     OW32396   9.011   2.010   9.621 -0.5048 -0.0475  0.3262
 9345SOL    HW132397   8.926   1.969   9.640 -0.3159 -1.3163 -1.3433
 9345SOL    HW232398   9.061   1.941   9.577  0.6377  1.3233 -0.5953
 9346SOL     OW32399   3.222  11.048   8.129 -0.2972  0.2518 -0.1968
 9346SOL    HW132400   3.219  11.130   8.178  1.6440  0.5368 -0.4773
 9346SOL    HW232401   3.231  10.980   8.196  0.2817  0.4730 -0.0404
 9347SOL     OW32402   3.118   4.918  10.279 -0.3491  0.1626  0.4628
 9347SOL    HW132403   3.110   4.852  10.348  1.6022  1.0954  1.6876
 9347SOL    HW232404   3.032   4.960  10.275 -1.1298 -1.3559  0.8029
 9348SOL     OW32405  10.765   1.390   7.447 -0.5954  0.2335  0.2228
 9348SOL    HW132406  10.746   1.479   7.475 -0.0612 -0.1600  1.9577
 9348SOL    HW232407  10.685   1.361   7.404 -1.4386  0.9362  1.2628
 9349SOL     OW32408   6.601   6.874   6.845  0.1175  0.1813 -0.1398
 9349SOL    HW132409   6.618   6.840   6.933 -0.0776 -1.0016 -0.5491
 9349SOL    HW232410   6.617   6.968   6.853 -1.5900  0.4013  1.6081
 9350SOL     OW32411   8.524   8.395   1.847 -0.2346  0.1852 -0.2199
 9350SOL    HW132412   8.447   8.448   1.825 -2.5983 -3.3786 -1.3904
 9350SOL    HW232413   8.536   8.408   1.941 -3.2253 -0.1709  0.3174
 9351SOL     OW32414   3.056  10.974   1.247 -0.2793  0.1214 -0.0981
 9351SOL    HW132415   3.095  11.025   1.176 -0.9639 -0.1673 -0.6883
 9351SOL    HW232416   3.073  10.883   1.223  1.4935  0.0213  1.2574
 9352SOL     OW32417   3.699   7.161   9.758  0.9246  0.6634 -0.0079
 9352SOL    HW132418   3.726   7.213   9.834  1.2305  1.3653 -0.5829
 9352SOL    HW232419   3.666   7.225   9.695 -1.5820 -0.1040  0.4213
 9353SOL     OW32420  10.035   9.119   0.490 -0.0129  0.0151 -0.2981
 9353SOL    HW132421  10.004   9.081   0.408  0.9619  0.9676 -1.1284
 9353SOL    HW232422  10.112   9.067   0.514 -0.1020 -0.0546 -0.1604
 9354SOL     OW32423   3.439   4.875   9.578  0.3118 -0.5538  0.6242
 9354SOL    HW132424   3.381   4.900   9.650 -1.3872 -1.0243 -0.5451
 9354SOL    HW232425   3.458   4.782   9.594  0.2954 -0.5464  0.6886
 9355SOL     OW32426   7.820   1.152   4.971 -0.3513 -0.3327 -0.0361
 9355SOL    HW132427   7.913   1.132   4.975  0.2152  0.2104 -4.7375
 9355SOL    HW232428   7.777   1.076   5.010  2.0020 -1.1939  1.0278
 9356SOL     OW32429  10.916   8.417   3.477 -0.1329  0.0496 -0.1593
 9356SOL    HW132430  11.009   8.434   3.490  0.0181 -1.1010  0.4115
 9356SOL    HW232431  10.877   8.425   3.565 -0.7288  1.2725 -0.5021
 9357SOL     OW32432   6.677   5.079   8.964  0.3639  0.8863  1.0412
 9357SOL    HW132433   6.645   5.013   9.027 -1.9134 -0.8045 -1.6333
 9357SOL    HW232434   6.751   5.037   8.921  0.0929  0.8142  0.6351
 9358SOL     OW32435   3.232   5.740   7.090  0.1526  0.3738  0.2528
 9358SOL    HW132436   3.310   5.767   7.137 -0.3528  2.9161 -0.2057
 9358SOL    HW232437   3.187   5.680   7.150  1.2466  0.7760  1.5232
 9359SOL     OW32438   2.757   7.002   6.385  0.6940  0.4392 -0.1782
 9359SOL    HW132439   2.668   6.967   6.385  0.4090  1.0836 -1.4728
 9359SOL    HW232440   2.769   7.037   6.473  0.1362 -0.7621  0.4027
 9360SOL     OW32441   4.165   9.844   8.448 -0.2915  0.4816  0.2700
 9360SOL    HW132442   4.103   9.865   8.518  0.5926  2.3476  0.5482
 9360SOL    HW232443   4.251   9.865   8.485  0.4610 -1.1494 -0.4307
 9361SOL     OW32444   6.740  10.671   0.749  0.1232  1.0554  0.3665
 9361SOL    HW132445   6.645  10.683   0.754 -0.1603  0.3358 -2.0382
 9361SOL    HW232446   6.775  10.760   0.753 -0.6464  1.3458  1.0467
 9362SOL     OW32447  10.227   6.667   0.325 -0.1659 -0.6951 -0.0010
 9362SOL    HW132448  10.233   6.704   0.237 -0.2645 -1.0424 -0.1564
 9362SOL    HW232449  10.163   6.596   0.316 -1.7677  0.5926  0.8104
 9363SOL     OW32450  10.303   6.967   1.835  0.1401 -0.1913 -0.7121
 9363SOL    HW132451  10.244   6.899   1.867  1.0743 -0.2371  1.0772
 9363SOL    HW232452  10.319   6.944   1.744 -0.6404 -1.5724 -0.5384
 9364SOL     OW32453   4.801   9.290   3.147 -0.4643  0.7383 -0.3213
 9364SOL    HW132454   4.806   9.385   3.161 -1.9365  0.8381 -0.3513
 9364SOL    HW232455   4.713   9.266   3.178 -0.0973 -0.6223 -0.2870
 9365SOL     OW32456   1.780   9.340   1.907 -0.5652  0.5328 -0.1107
 9365SOL    HW132457   1.781   9.392   1.987  1.5016 -0.7362  0.7643
 9365SOL    HW232458   1.872   9.327   1.885 -1.0687  0.0068 -2.1653
 9366SOL     OW32459   2.466   1.488   7.091  0.1148  0.3381 -0.1666
 9366SOL    HW132460   2.453   1.431   7.168 -1.3688  1.0078  0.1085
 9366SOL    HW232461   2.407   1.452   7.025  0.8683  0.1954 -0.7717
 9367SOL     OW32462   1.030   7.086   4.496  0.2269  0.2994 -0.2152
 9367SOL    HW132463   0.979   7.101   4.416 -1.0844 -0.4191  0.4546
 9367SOL    HW232464   1.040   7.173   4.534 -2.6635  0.2784  0.8767
 9368SOL     OW32465   0.176   3.529   3.593  0.5052 -0.4069 -0.0679
 9368SOL    HW132466   0.206   3.469   3.662  0.5536 -0.9972 -0.5909
 9368SOL    HW232467   0.203   3.487   3.511 -1.1979 -0.6591 -0.5320
 9369SOL     OW32468   4.427   5.346   5.153 -0.8221  0.3367  0.6624
 9369SOL    HW132469   4.454   5.257   5.132  2.7644  0.5541  3.3696
 9369SOL    HW232470   4.448   5.397   5.074  0.2790 -0.7015  0.2629
 9370SOL     OW32471  11.073   8.522   1.678 -0.2485  0.4724 -0.2304
 9370SOL    HW132472  10.982   8.514   1.649 -0.2657  0.7657 -0.2590
 9370SOL    HW232473  11.097   8.434   1.707 -0.8177  0.5776  0.5832
 9371SOL     OW32474   2.970   4.824   7.979  0.1146  0.5913  0.8007
 9371SOL    HW132475   2.892   4.769   7.979 -2.5309  3.7585 -3.1436
 9371SOL    HW232476   2.953   4.890   8.046 -0.3130  0.8916  0.4013
 9372SOL     OW32477   8.284   0.550   2.345 -0.2050 -0.0670 -0.6016
 9372SOL    HW132478   8.261   0.550   2.438  0.8449  1.3288 -0.3132
 9372SOL    HW232479   8.244   0.629   2.310  2.1851  1.2723 -0.5485
 9373SOL     OW32480   2.685   1.182   4.517 -0.0424  0.0676 -0.1947
 9373SOL    HW132481   2.623   1.109   4.509 -1.6020  1.2282  0.9154
 9373SOL    HW232482   2.697   1.194   4.611  0.4935  1.0114 -0.3707
 9374SOL     OW32483   2.130   0.588   3.149 -0.1377  0.2398 -0.4359
 9374SOL    HW132484   2.115   0.518   3.213  0.3188  0.8124  0.3172
 9374SOL    HW232485   2.135   0.543   3.065 -0.0803 -0.6097  0.0075
 9375SOL     OW32486   3.468   0.493   8.587  0.2782  0.3075 -0.1571
 9375SOL    HW132487   3.478   0.474   8.493 -2.6393  0.5485 -0.6281
 9375SOL    HW232488   3.511   0.577   8.599 -1.1240  1.3533 -1.8500
 9376SOL     OW32489   0.339  10.035   3.227  0.0921  0.2931  0.0700
 9376SOL    HW132490   0.261  10.067   3.181  0.6630  0.3673 -0.8686
 9376SOL    HW232491   0.411  10.050   3.166  0.9491  0.7948  1.1673
 9377SOL     OW32492  10.084   0.508   5.956 -0.1544  0.2046 -0.3422
 9377SOL    HW132493  10.079   0.529   5.863  1.6799  0.6773 -0.3685
 9377SOL    HW232494  10.078   0.413   5.960 -1.4635  0.2515 -0.8235
 9378SOL     OW32495   2.651   9.817   3.964 -0.0906 -0.0584  0.1591
 9378SOL    HW132496   2.609   9.828   3.879  0.9624 -2.4005 -0.7640
 9378SOL    HW232497   2.708   9.892   3.973 -2.0011  1.4956 -0.0352
 9379SOL     OW32498   6.380   2.616   8.124  0.2368  0.3043 -0.2977
 9379SOL    HW132499   6.454   2.668   8.092  0.4489  0.3064  0.1979
 9379SOL    HW232500   6.351   2.566   8.047  0.4705  0.6344 -0.6017
 9380SOL     OW32501   4.783   5.369   1.381  0.5870 -0.0828  0.7281
 9380SOL    HW132502   4.706   5.314   1.387  0.3185 -0.2760 -2.7364
 9380SOL    HW232503   4.769   5.437   1.447 -2.7100  0.0474  0.0788
 9381SOL     OW32504   9.482   1.195  10.944 -0.1846 -0.5378 -0.2101
 9381SOL    HW132505   9.491   1.100  10.956  0.6748 -0.3727  0.5002
 9381SOL    HW232506   9.391   1.206  10.915 -0.0204 -1.6584 -1.2340
 9382SOL     OW32507   8.943   4.915  10.996  1.1984 -0.2358  0.0625
 9382SOL    HW132508   8.942   4.940  10.903  0.9844  1.0194  0.3875
 9382SOL    HW232509   8.851   4.921  11.023  1.4193  0.6854  0.6669
 9383SOL     OW32510   4.005   2.015   5.291  0.2933  0.4381 -0.7114
 9383SOL    HW132511   4.021   1.921   5.284  3.4280  0.9568 -2.1684
 9383SOL    HW232512   4.060   2.042   5.364 -0.9974  1.1385  0.0459
 9384SOL     OW32513  10.231   2.506   5.490 -0.5680 -0.4109 -0.5572
 9384SOL    HW132514  10.253   2.476   5.402 -0.9704  0.4648 -0.9756
 9384SOL    HW232515  10.298   2.571   5.511 -0.5119 -0.5674 -0.2459
 9385SOL     OW32516   2.356  10.166   8.243  0.2591 -0.3814 -0.2765
 9385SOL    HW132517   2.306  10.147   8.322  0.8536  0.1878  0.2529
 9385SOL    HW232518   2.317  10.247   8.209  2.2610  1.4559  1.4680
 9386SOL     OW32519   7.972   8.621   9.870  0.4689 -0.6778 -0.0642
 9386SOL    HW132520   8.028   8.684   9.824  0.5192 -0.9488 -0.3813
 9386SOL    HW232521   7.982   8.643   9.963 -2.5924  2.3727 -0.2898
 9387SOL     OW32522   7.772   5.327   6.347  0.0104 -0.3510 -0.0626
 9387SOL    HW132523   7.687   5.344   6.306  0.5990  2.8791 -0.2154
 9387SOL    HW232524   7.750   5.298   6.435 -1.2602 -0.2132 -0.3048
 9388SOL     OW32525   7.835   7.812   9.259 -0.5524 -0.0939  0.4577
 9388SOL    HW132526   7.886   7.809   9.340 -1.2588  1.6630  1.0082
 9388SOL    HW232527   7.891   7.768   9.194  1.9810  2.1889  0.9017
 9389SOL     OW32528   4.873   6.559  10.355  0.9341  0.4692 -0.9056
 9389SOL    HW132529   4.826   6.608  10.287 -0.2170 -0.0359 -0.5035
 9389SOL    HW232530   4.820   6.571  10.434  1.1742 -0.5821 -0.5718
 9390SOL     OW32531   5.132   7.444   6.910  0.3065  0.1270 -0.8998
 9390SOL    HW132532   5.136   7.349   6.898 -1.0097 -0.1086  0.2159
 9390SOL    HW232533   5.189   7.480   6.842  2.0331 -1.5095 -0.3955
 9391SOL     OW32534   4.613  10.173   8.155 -0.4252  0.1199  0.5151
 9391SOL    HW132535   4.682  10.173   8.222  1.6645 -3.8691 -1.2903
 9391SOL    HW232536   4.632  10.249   8.101  0.0123  1.3901  2.3739
 9392SOL     OW32537   0.755   1.535   1.640 -0.3495 -0.2164 -0.2436
 9392SOL    HW132538   0.668   1.515   1.672 -0.0933  1.2545  1.4783
 9392SOL    HW232539   0.773   1.624   1.669  1.3794 -0.1412 -1.3417
 9393SOL     OW32540   4.997   7.022   8.656  0.5685  0.6627  0.1642
 9393SOL    HW132541   5.024   7.083   8.725  1.4492 -0.5526  0.9261
 9393SOL    HW232542   4.907   7.000   8.677  0.8784  0.1914  1.0135
 9394SOL     OW32543  10.928   1.825  10.619  0.0519  0.6329 -0.4226
 9394SOL    HW132544  10.971   1.750  10.577  0.8964  1.6278 -1.3891
 9394SOL    HW232545  10.952   1.817  10.712  0.8744  0.1974 -0.6610
 9395SOL     OW32546   6.266   9.609   5.539 -0.2783  0.0366  0.5602
 9395SOL    HW132547   6.204   9.679   5.516 -0.8946 -0.5149  0.5053
 9395SOL    HW232548   6.331   9.611   5.469 -1.1357 -0.4309 -0.2854
 9396SOL     OW32549   5.716  10.848  10.757  0.2648  0.0230  0.3176
 9396SOL    HW132550   5.623  10.858  10.737 -0.0217  1.0255  1.9590
 9396SOL    HW232551   5.721  10.765  10.803  0.2490 -0.2234 -0.1225
 9397SOL     OW32552   5.070   9.249   6.392  0.5745  0.1112  1.0651
 9397SOL    HW132553   5.102   9.287   6.310  0.4546  0.7312  1.2998
 9397SOL    HW232554   4.991   9.299   6.413 -0.2840 -1.0519  0.7684
 9398SOL     OW32555   2.448   2.280   0.529  0.4006 -0.2076 -0.6157
 9398SOL    HW132556   2.460   2.212   0.463 -0.4500 -0.3349 -0.6514
 9398SOL    HW232557   2.465   2.236   0.612 -1.8187 -0.9395 -0.4968
 9399SOL     OW32558   1.224   8.826   8.762  0.5401  0.5040  0.3018
 9399SOL    HW132559   1.275   8.760   8.715 -0.0941 -1.0149  1.6576
 9399SOL    HW232560   1.273   8.842   8.843 -0.3909  0.0675  0.9695
 9400SOL     OW32561  10.085   9.182   2.476  0.2443  0.1846 -0.1145
 9400SOL    HW132562  10.107   9.129   2.399  0.7631 -0.0987  0.2194
 9400SOL    HW232563   9.991   9.171   2.487 -0.0344  1.0882 -1.3362
 9401SOL     OW32564   0.454   3.296   8.393  0.5744 -0.8796 -0.3396
 9401SOL    HW132565   0.381   3.358   8.389  0.7726 -0.7112 -1.7979
 9401SOL    HW232566   0.431   3.237   8.465  0.5259  1.0391  1.3148
 9402SOL     OW32567   8.295   2.216   2.636 -0.4037 -0.1973 -0.1182
 9402SOL    HW132568   8.314   2.233   2.729 -2.7482  0.8909  0.2413
 9402SOL    HW232569   8.327   2.294   2.591  0.7222 -0.7194 -0.2458
 9403SOL     OW32570   1.394   7.404   3.914 -0.1019 -0.5982 -0.5466
 9403SOL    HW132571   1.422   7.491   3.887 -0.5491  0.3485  1.8628
 9403SOL    HW232572   1.475   7.356   3.931  0.2332  0.7292  2.1112
 9404SOL     OW32573   8.979   2.001  10.634  0.4858 -0.1529 -0.9920
 9404SOL    HW132574   9.049   2.061  10.610 -0.0993  0.9313 -0.1035
 9404SOL    HW232575   8.974   2.007  10.729 -0.0731 -1.0750 -0.9468
 9405SOL     OW32576   2.118  10.338   9.835  0.1030 -0.4415  0.2688
 9405SOL    HW132577   2.025  10.318   9.841  0.0227 -0.3766 -0.6681
 9405SOL    HW232578   2.138  10.336   9.741  0.3728  2.4553  0.1473
 9406SOL     OW32579   5.783   2.933   1.044  0.2632  0.2664 -0.1918
 9406SOL    HW132580   5.789   3.015   0.996  1.2267  0.5199  0.3217
 9406SOL    HW232581   5.872   2.919   1.077  0.1961 -1.1600 -0.5599
 9407SOL     OW32582   7.632  10.594   8.414 -0.1871 -0.5640 -0.1503
 9407SOL    HW132583   7.544  10.616   8.445 -0.0638 -0.3808  0.0743
 9407SOL    HW232584   7.642  10.501   8.434  0.2863 -0.2287  1.3638
 9408SOL     OW32585   2.038   8.202  10.341 -0.1907 -0.0616 -0.4164
 9408SOL    HW132586   2.118   8.219  10.291  0.8752 -0.1820  1.1865
 9408SOL    HW232587   1.996   8.129  10.295  0.8790 -0.3438 -0.9693
 9409SOL     OW32588  10.082   3.333   0.500  0.0308  0.1620 -0.9450
 9409SOL    HW132589  10.011   3.361   0.444  0.1170 -1.6275 -2.0363
 9409SOL    HW232590  10.075   3.237   0.502  1.8552 -0.0064 -0.3577
 9410SOL     OW32591   4.782  11.064   7.926  0.0050  0.5495 -0.6841
 9410SOL    HW132592   4.808  11.154   7.903  0.2845  0.8190  0.6171
 9410SOL    HW232593   4.705  11.074   7.981  0.6480  0.0670  0.3414
 9411SOL     OW32594   2.789  10.121   1.017  0.3554 -0.2075  0.0494
 9411SOL    HW132595   2.792  10.127   0.921 -1.6887  2.2369  0.0261
 9411SOL    HW232596   2.848  10.190   1.047  0.4452 -0.4994  0.5546
 9412SOL     OW32597   1.267  10.553   0.346  0.2334 -0.4412  0.3770
 9412SOL    HW132598   1.347  10.501   0.357  0.3560 -1.3294 -3.3166
 9412SOL    HW232599   1.197  10.488   0.342 -0.3986  0.1663  1.2621
 9413SOL     OW32600   9.166   9.992   1.585  0.4179  0.1020  0.5541
 9413SOL    HW132601   9.172  10.082   1.617  1.0803  0.3383 -0.2136
 9413SOL    HW232602   9.095   9.995   1.520 -0.4922 -0.2417  1.5001
 9414SOL     OW32603   6.940   7.310   6.892  0.5303  0.0747 -0.3171
 9414SOL    HW132604   6.886   7.331   6.816  0.2995  0.0627 -0.1608
 9414SOL    HW232605   6.914   7.221   6.916 -0.9622  0.7967  1.0411
 9415SOL     OW32606   5.506   7.617   3.452 -0.4673 -0.0381 -0.8657
 9415SOL    HW132607   5.470   7.648   3.369 -0.8181  0.6407 -0.4689
 9415SOL    HW232608   5.429   7.587   3.501 -0.5040  1.2974 -0.0625
 9416SOL     OW32609   5.126   8.171   2.261 -0.4884 -0.0034  0.1549
 9416SOL    HW132610   5.143   8.251   2.211 -0.9620 -0.1434 -0.2275
 9416SOL    HW232611   5.173   8.102   2.215 -0.7274 -0.0891  0.0368
 9417SOL     OW32612   9.476  10.933   4.205  0.2857 -0.2883  0.2982
 9417SOL    HW132613   9.528  11.004   4.243  0.6889 -0.5209  0.1752
 9417SOL    HW232614   9.388  10.947   4.241  0.3565  0.2940  0.2491
 9418SOL     OW32615   6.252   2.932   9.646 -0.4841  0.1682 -0.4629
 9418SOL    HW132616   6.256   2.871   9.719 -1.1952  0.4301 -0.1981
 9418SOL    HW232617   6.338   2.973   9.644 -0.7515  0.8189  0.7983
 9419SOL     OW32618   1.654   6.056   6.122 -0.4125  0.6004  0.8285
 9419SOL    HW132619   1.614   6.032   6.038  0.6471 -1.4323  0.8525
 9419SOL    HW232620   1.746   6.031   6.112  0.0366  1.6823  2.0992
 9420SOL     OW32621   1.477   1.073   6.344  0.1454 -0.3852 -0.4031
 9420SOL    HW132622   1.398   1.023   6.324 -0.2981 -0.5019  1.3831
 9420SOL    HW232623   1.512   1.100   6.259 -2.0610  0.0448 -1.2408
 9421SOL     OW32624  10.572   0.939   7.380  0.2998 -0.0201 -0.1351
 9421SOL    HW132625  10.496   0.892   7.413 -0.1685  0.3547 -0.6635
 9421SOL    HW232626  10.647   0.898   7.424  0.0140 -1.8964 -1.2483
 9422SOL     OW32627   5.806   3.757   7.102 -0.1424 -0.1383  0.0558
 9422SOL    HW132628   5.877   3.732   7.043 -0.0482 -0.2283  0.2062
 9422SOL    HW232629   5.815   3.697   7.177 -0.2765 -0.0433  0.1479
 9423SOL     OW32630   7.982   8.716   8.398 -0.0455  0.3579  0.2031
 9423SOL    HW132631   7.988   8.765   8.316  0.4716 -2.1533 -1.3643
 9423SOL    HW232632   8.069   8.722   8.436  0.7076 -1.1492 -1.1586
 9424SOL     OW32633  10.251   4.652   8.316  0.0728 -0.5431 -0.3192
 9424SOL    HW132634  10.228   4.602   8.394 -0.5064 -2.5964 -1.7090
 9424SOL    HW232635  10.336   4.690   8.336 -0.5601 -0.0507  1.7045
 9425SOL     OW32636   3.001   3.214   6.254 -0.3401 -0.1928  0.6423
 9425SOL    HW132637   3.031   3.131   6.216  1.6759  0.9757 -0.5319
 9425SOL    HW232638   2.972   3.192   6.342  1.6801 -1.9409  0.9569
 9426SOL     OW32639   8.010   1.225   1.776 -0.0202 -0.0572 -0.5367
 9426SOL    HW132640   8.029   1.170   1.852  0.2247  2.1278  1.0750
 9426SOL    HW232641   8.088   1.218   1.721  0.1077 -1.0895 -0.2539
 9427SOL     OW32642   8.440   4.472   0.165 -0.4494  0.7260 -0.2397
 9427SOL    HW132643   8.394   4.556   0.168 -0.8507  0.5400 -0.9850
 9427SOL    HW232644   8.373   4.409   0.136  0.5141  0.6346 -2.4328
 9428SOL     OW32645   2.106   9.840   0.110 -0.4706  0.3654  0.9266
 9428SOL    HW132646   2.172   9.909   0.096 -3.0096  2.9858  0.7830
 9428SOL    HW232647   2.109   9.823   0.204 -0.0396  0.9396  1.0245
 9429SOL     OW32648   2.609   4.077   6.270 -0.1741  0.4033 -0.8473
 9429SOL    HW132649   2.628   4.000   6.323 -1.6166 -0.4562 -1.4923
 9429SOL    HW232650   2.572   4.140   6.332 -0.0935  0.1243 -0.5118
 9430SOL     OW32651   9.636   8.646   5.597  0.2680 -0.2278  0.0638
 9430SOL    HW132652   9.601   8.632   5.509 -1.1025  0.7425  0.4034
 9430SOL    HW232653   9.725   8.613   5.594 -0.2247 -1.5276 -1.2798
 9431SOL     OW32654   4.756   2.102   4.068 -0.0731 -0.1447 -0.0394
 9431SOL    HW132655   4.843   2.071   4.045 -0.6751 -2.6427  0.8132
 9431SOL    HW232656   4.706   2.023   4.089 -2.4213  1.2409 -0.0237
 9432SOL     OW32657   4.508   3.595   4.070  1.0197  0.6012 -0.4131
 9432SOL    HW132658   4.493   3.655   3.997  0.0036  0.7686 -0.0859
 9432SOL    HW232659   4.425   3.547   4.080  1.4324 -0.0405  0.0703
 9433SOL     OW32660   4.075   8.670   7.154 -0.1066 -0.5057  0.3727
 9433SOL    HW132661   4.076   8.682   7.249  0.8897 -1.4011  0.4829
 9433SOL    HW232662   3.994   8.622   7.137 -0.1979 -0.5001  0.7792
 9434SOL     OW32663   0.210   8.246   6.479  0.6069  0.2714  0.3053
 9434SOL    HW132664   0.230   8.158   6.445  0.1962  0.3074 -0.0367
 9434SOL    HW232665   0.174   8.293   6.404 -2.5446 -0.3565  1.2740
 9435SOL     OW32666   0.158   5.652   2.265  0.3424 -0.3003 -0.4206
 9435SOL    HW132667   0.106   5.637   2.185 -0.3197 -0.9948  0.1275
 9435SOL    HW232668   0.249   5.646   2.235  0.1074 -1.1801 -1.0275
 9436SOL     OW32669   7.965   5.379  10.353 -0.4559 -0.6622  0.4044
 9436SOL    HW132670   8.027   5.418  10.292 -1.6046 -0.0869 -0.4331
 9436SOL    HW232671   8.008   5.386  10.439  0.6956 -0.4569 -0.1731
 9437SOL     OW32672   5.553   1.274   2.170 -0.0211  0.3749 -0.3214
 9437SOL    HW132673   5.516   1.231   2.247  0.2526 -0.4218 -0.6227
 9437SOL    HW232674   5.645   1.286   2.191  0.1480 -0.2400 -0.6861
 9438SOL     OW32675   3.437   5.078   0.519 -0.0160 -0.1386  0.4005
 9438SOL    HW132676   3.436   5.090   0.425  0.7083 -0.8514  0.2908
 9438SOL    HW232677   3.478   5.157   0.554  0.1209 -0.0720  0.0845
 9439SOL     OW32678   7.127   8.320   4.640 -0.6426  0.6391  0.3389
 9439SOL    HW132679   7.088   8.294   4.557  1.4688  1.2123 -0.9095
 9439SOL    HW232680   7.123   8.416   4.640  2.9032  0.9473 -1.0981
 9440SOL     OW32681   1.374   6.889   7.614  0.2682  0.0612  0.0792
 9440SOL    HW132682   1.458   6.909   7.573  0.4968 -0.0891  0.4665
 9440SOL    HW232683   1.391   6.809   7.665 -0.1900 -0.1470 -0.0944
 9441SOL     OW32684   9.256   5.325   8.004  0.6520 -0.0028  0.0075
 9441SOL    HW132685   9.202   5.274   7.944  2.6212 -3.9957  1.2428
 9441SOL    HW232686   9.345   5.313   7.970  1.5950 -0.7668  2.5830
 9442SOL     OW32687   5.249   9.843   9.649 -0.2380  0.5263 -0.2003
 9442SOL    HW132688   5.184   9.780   9.678  0.6201 -0.7934 -1.0243
 9442SOL    HW232689   5.313   9.848   9.720 -0.3243  0.5010 -0.1211
 9443SOL     OW32690   8.283   4.016   6.701 -0.2324 -0.1165 -0.1935
 9443SOL    HW132691   8.319   4.103   6.684 -0.4436  0.1315  0.5804
 9443SOL    HW232692   8.298   3.967   6.620  2.2935 -0.1809  0.2314
 9444SOL     OW32693   7.775   9.092   6.604  0.2639 -0.0905  0.2502
 9444SOL    HW132694   7.694   9.045   6.625  2.5168 -3.2560  3.0677
 9444SOL    HW232695   7.783   9.157   6.674  1.6710 -2.1596  2.1631
 9445SOL     OW32696   9.223   1.193   9.417  0.6868  0.0366  0.4451
 9445SOL    HW132697   9.145   1.154   9.377  0.9553 -1.5102  1.3371
 9445SOL    HW232698   9.193   1.278   9.449 -1.0723 -1.0814  2.0031
 9446SOL     OW32699   9.401   7.415   7.402  0.2553  0.2660  0.0335
 9446SOL    HW132700   9.491   7.447   7.407  1.0303 -1.6500 -0.6474
 9446SOL    HW232701   9.361   7.443   7.484  1.3324  1.4731  0.1903
 9447SOL     OW32702   9.041   6.758   3.884  0.2044 -0.5889  0.0734
 9447SOL    HW132703   9.037   6.670   3.846 -0.3367 -0.2213 -0.7717
 9447SOL    HW232704   8.995   6.750   3.967  1.7141 -1.4953  0.8640
 9448SOL     OW32705   2.594   7.941   2.027  0.5666 -0.0956  0.1388
 9448SOL    HW132706   2.519   8.001   2.031  1.7289  1.3589  1.2500
 9448SOL    HW232707   2.650   7.976   1.958  1.6634  0.6597  1.3648
 9449SOL     OW32708   9.066   0.987   5.303 -0.5419  0.3187 -0.4662
 9449SOL    HW132709   9.031   1.008   5.217 -1.1712  2.0323  0.1701
 9449SOL    HW232710   9.060   1.069   5.353  3.8149  0.6627 -0.0898
 9450SOL     OW32711   4.521   8.251   9.877  0.6414  0.3362  0.3934
 9450SOL    HW132712   4.508   8.231   9.970  2.1416 -0.5570  0.4461
 9450SOL    HW232713   4.487   8.174   9.831  0.8614  0.3096  0.2706
 9451SOL     OW32714   6.916   9.627   6.007 -0.3512 -0.4125 -0.1273
 9451SOL    HW132715   6.892   9.705   6.057  1.3490 -0.0952  0.2516
 9451SOL    HW232716   6.908   9.555   6.070 -1.1215 -0.4591 -0.2583
 9452SOL     OW32717   9.842  10.208   9.621  0.2022 -0.0269  0.4908
 9452SOL    HW132718   9.753  10.229   9.594  0.9703  1.8261 -0.8187
 9452SOL    HW232719   9.854  10.256   9.703  0.0880 -0.0493  0.5212
 9453SOL     OW32720   8.287   4.088   6.964 -0.9532 -0.3647  0.4180
 9453SOL    HW132721   8.340   4.135   6.899  0.7076 -0.6981  1.4464
 9453SOL    HW232722   8.293   3.996   6.939 -1.5959 -0.3383  0.1686
 9454SOL     OW32723   4.163   1.191   0.436 -0.1922  0.0848 -0.1513
 9454SOL    HW132724   4.253   1.171   0.463  0.5497  2.4956 -0.6102
 9454SOL    HW232725   4.157   1.158   0.347 -0.1689 -1.0791  0.2538
 9455SOL     OW32726   5.883   1.720   8.827  0.1998  0.0405  0.2311
 9455SOL    HW132727   5.805   1.678   8.863  0.5745  0.1667  1.2232
 9455SOL    HW232728   5.956   1.672   8.867  0.6340 -0.0363 -0.6390
 9456SOL     OW32729   2.248   1.564   3.135  0.0323  0.1203 -0.3589
 9456SOL    HW132730   2.274   1.656   3.138  2.2173 -0.4300  2.7611
 9456SOL    HW232731   2.329   1.517   3.119 -1.0430 -1.3422 -1.8170
 9457SOL     OW32732   1.331   8.165   0.686  0.3533 -0.0069  0.5411
 9457SOL    HW132733   1.377   8.236   0.732  0.9518  0.3377 -0.5667
 9457SOL    HW232734   1.240   8.194   0.681  0.2236 -0.1573  1.7058
 9458SOL     OW32735   8.725   8.903   3.426  0.1445  0.0090  0.7182
 9458SOL    HW132736   8.816   8.890   3.398 -0.5624 -0.4836 -1.5530
 9458SOL    HW232737   8.697   8.818   3.456  0.2435  0.0026  0.7926
 9459SOL     OW32738   4.066   4.704   9.678 -0.2057  0.1679  0.1673
 9459SOL    HW132739   4.052   4.786   9.727 -2.4571 -0.1376  0.1430
 9459SOL    HW232740   4.016   4.639   9.727  2.2275 -1.4427  0.6583
 9460SOL     OW32741  10.659   8.049   4.608 -0.4571  0.1115 -0.5779
 9460SOL    HW132742  10.724   8.092   4.662  0.8509  0.3016 -2.2398
 9460SOL    HW232743  10.705   7.976   4.568 -1.8053 -0.9481 -0.2748
 9461SOL     OW32744   7.843   5.802  10.807 -0.7463  0.0537  0.1551
 9461SOL    HW132745   7.922   5.848  10.834  0.6652 -1.2959 -1.4983
 9461SOL    HW232746   7.830   5.828  10.716 -1.4532 -0.7458  0.0148
 9462SOL     OW32747   3.104   9.577   3.457  0.1770  0.0114 -0.1862
 9462SOL    HW132748   3.128   9.662   3.422 -0.2460 -0.1304 -0.8269
 9462SOL    HW232749   3.188   9.533   3.471  0.3585  0.1221 -0.8974
 9463SOL     OW32750   7.428   0.089   2.862 -0.0948  0.7365 -0.0939
 9463SOL    HW132751   7.471   0.130   2.936 -1.9541  0.8963  0.9476
 9463SOL    HW232752   7.343   0.132   2.856 -1.2797 -1.4516 -0.2703
 9464SOL     OW32753   8.944   7.293   6.676 -0.1769  0.1000 -0.7250
 9464SOL    HW132754   8.984   7.344   6.746 -0.1998 -2.1511  1.0326
 9464SOL    HW232755   9.015   7.237   6.644 -1.2462 -2.3049  0.8753
 9465SOL     OW32756  10.514   6.816   2.542  0.1925  0.0128 -0.2206
 9465SOL    HW132757  10.485   6.840   2.630 -0.5224  1.7779 -0.8970
 9465SOL    HW232758  10.452   6.859   2.483  1.5080  0.0818 -1.6195
 9466SOL     OW32759   3.816   1.057   6.898  0.2928 -0.8002 -0.3190
 9466SOL    HW132760   3.905   1.047   6.865  0.2864  0.4868 -0.7790
 9466SOL    HW232761   3.827   1.089   6.987  0.2860 -1.5798 -0.0303
 9467SOL     OW32762   2.576   8.599   9.971 -0.2401  0.4450 -0.2090
 9467SOL    HW132763   2.594   8.512   9.933  1.7304  0.2034  1.1380
 9467SOL    HW232764   2.630   8.659   9.919  1.6752  0.2462  1.4330
 9468SOL     OW32765   3.478   0.517   7.644 -0.5263  0.7332  0.9330
 9468SOL    HW132766   3.471   0.588   7.708  0.4050  1.2384  0.4838
 9468SOL    HW232767   3.501   0.440   7.696  1.7747  1.4568  1.0587
 9469SOL     OW32768   4.159   9.293   9.815  0.7482 -0.0594  0.0017
 9469SOL    HW132769   4.179   9.309   9.908 -0.2347  2.1933 -0.1097
 9469SOL    HW232770   4.220   9.348   9.767  1.0155 -0.9460 -0.7186
 9470SOL     OW32771   5.983   8.957   6.387  0.0878 -0.0745 -0.1827
 9470SOL    HW132772   6.040   8.910   6.449 -0.7447  0.4034  0.9943
 9470SOL    HW232773   5.898   8.913   6.396  0.1839 -0.6275 -1.7372
 9471SOL     OW32774   1.667   5.009   0.814  0.0339 -0.5739 -0.2505
 9471SOL    HW132775   1.726   5.070   0.770 -1.1145 -1.2788 -2.9991
 9471SOL    HW232776   1.604   5.065   0.860 -0.4564  0.3768 -1.9636
 9472SOL     OW32777   0.740   3.645   1.236  0.4452  0.1359  0.2427
 9472SOL    HW132778   0.731   3.674   1.145  0.0946 -0.8653 -0.0497
 9472SOL    HW232779   0.751   3.727   1.286 -1.5158  0.8667 -0.4270
 9473SOL     OW32780   3.494   7.200   1.318  0.1834  0.0384  0.0585
 9473SOL    HW132781   3.411   7.223   1.277 -0.6798 -1.2171  0.9926
 9473SOL    HW232782   3.469   7.136   1.385  1.8234  0.2216  0.8698
 9474SOL     OW32783   0.456   1.008   3.227 -0.0058 -0.1217  0.1680
 9474SOL    HW132784   0.543   1.047   3.215  0.3573 -0.3639  1.7938
 9474SOL    HW232785   0.474   0.919   3.258 -0.8431 -0.7045 -0.9786
 9475SOL     OW32786   4.384   8.129  10.076  0.9057  0.5405 -0.4526
 9475SOL    HW132787   4.345   8.060  10.021  1.1485 -0.5805  0.7329
 9475SOL    HW232788   4.325   8.204  10.064 -0.5572 -0.5091 -0.2080
 9476SOL     OW32789   9.830   3.438   9.038  0.1313 -0.0191  0.3480
 9476SOL    HW132790   9.766   3.487   9.089  0.7005  0.0120  1.0641
 9476SOL    HW232791   9.912   3.486   9.051  0.5290 -0.6923  0.3852
 9477SOL     OW32792  10.552   8.644   1.667 -0.3841  0.1764 -0.3395
 9477SOL    HW132793  10.586   8.731   1.647  0.0781 -0.0396 -0.5252
 9477SOL    HW232794  10.547   8.641   1.763 -1.5137  0.8108 -0.3668
 9478SOL     OW32795   7.002   4.077  10.807 -0.1620  0.1850 -0.2462
 9478SOL    HW132796   6.958   4.047  10.886 -1.1696 -0.8640 -1.1674
 9478SOL    HW232797   7.008   3.999  10.752  1.3752  0.6717 -0.8421
 9479SOL     OW32798   9.061  10.195   2.229 -0.3408  0.1888 -0.2966
 9479SOL    HW132799   9.096  10.159   2.311  0.6258  0.7612 -0.4464
 9479SOL    HW232800   9.133  10.188   2.167 -0.9695  0.0389 -1.0293
 9480SOL     OW32801   7.496   5.640   8.184 -0.4625 -0.1718 -0.0172
 9480SOL    HW132802   7.514   5.651   8.091  1.2335  2.1428  0.5053
 9480SOL    HW232803   7.411   5.597   8.187 -0.6465 -0.1318 -2.6106
 9481SOL     OW32804   8.308   9.971   3.775  0.0627 -0.3168 -0.5705
 9481SOL    HW132805   8.234   9.995   3.830 -0.1908  0.9059 -1.4055
 9481SOL    HW232806   8.345   9.893   3.817  0.4120  1.0582  1.8048
 9482SOL     OW32807   2.152   9.935   9.738  0.4352  0.0460 -0.1563
 9482SOL    HW132808   2.152   9.969   9.648 -0.1872 -0.2081 -0.2572
 9482SOL    HW232809   2.126   9.843   9.729 -2.1112  0.6179  0.4861
 9483SOL     OW32810   2.626   9.081   9.229 -0.3705  0.0372  1.3573
 9483SOL    HW132811   2.691   9.151   9.225 -1.0441  0.6441 -2.0471
 9483SOL    HW232812   2.674   9.002   9.204 -0.6544  0.3401 -0.3081
 9484SOL     OW32813   8.151   2.283   3.972  1.1464 -0.4164  0.2811
 9484SOL    HW132814   8.109   2.203   3.941  1.5862 -0.6356  0.2368
 9484SOL    HW232815   8.245   2.266   3.961  1.2477  0.0349  0.4440
 9485SOL     OW32816   7.177   0.570   5.815 -0.1560  0.7817  0.3528
 9485SOL    HW132817   7.190   0.557   5.909  1.5723  1.6025  0.2565
 9485SOL    HW232818   7.219   0.493   5.775 -2.3809 -0.4649  0.2614
 9486SOL     OW32819   0.574   0.711   4.327  0.2821  0.2284  0.6261
 9486SOL    HW132820   0.582   0.645   4.396  0.6056 -0.2240  0.1642
 9486SOL    HW232821   0.639   0.685   4.261 -1.6440 -0.7604 -1.0031
 9487SOL     OW32822   0.570   0.945   2.875 -0.0349 -0.1528 -0.0996
 9487SOL    HW132823   0.613   0.865   2.903 -0.2324  0.0394  0.7772
 9487SOL    HW232824   0.540   0.986   2.956  0.6080  1.1191 -0.4907
 9488SOL     OW32825   0.398   5.812   6.577  0.0460 -0.5426  0.4719
 9488SOL    HW132826   0.458   5.737   6.585 -0.7468 -1.0153  2.7298
 9488SOL    HW232827   0.311   5.773   6.579 -0.3795  0.3356 -0.2155
 9489SOL     OW32828   8.797   5.123   3.211 -0.0284 -1.1656  0.3319
 9489SOL    HW132829   8.847   5.077   3.143  2.0148  1.1628  0.1101
 9489SOL    HW232830   8.859   5.129   3.285 -0.4912  0.5079  0.6097
 9490SOL     OW32831   8.812   4.934   6.052 -0.3437 -0.1059  0.6539
 9490SOL    HW132832   8.762   4.856   6.075 -0.2664 -0.6839 -0.9754
 9490SOL    HW232833   8.893   4.927   6.103  0.8911 -2.5869 -1.4407
 9491SOL     OW32834   9.981   8.181   6.460 -0.0878  0.0814 -0.1236
 9491SOL    HW132835   9.887   8.170   6.474  0.0687  1.5132  2.7027
 9491SOL    HW232836  10.005   8.106   6.405 -2.3091 -2.2617  1.8374
 9492SOL     OW32837   7.945   7.599   9.132  0.5119  0.0334 -0.4307
 9492SOL    HW132838   7.895   7.595   9.050  0.9644  2.0890 -0.8671
 9492SOL    HW232839   7.892   7.549   9.195 -0.6238 -0.2712 -1.5799
 9493SOL     OW32840   8.957   2.493   1.814 -0.1237  0.1415 -0.1329
 9493SOL    HW132841   8.908   2.573   1.831 -1.1353 -0.7636  1.4309
 9493SOL    HW232842   8.951   2.481   1.719 -1.7549  0.7991 -0.1365
 9494SOL     OW32843   3.251  10.554   3.496  0.0719 -0.3258 -0.6714
 9494SOL    HW132844   3.171  10.547   3.548  0.2437  0.9970 -0.1909
 9494SOL    HW232845   3.231  10.507   3.415 -0.6679 -1.2583  0.0352
 9495SOL     OW32846   8.880   2.014   6.319  0.0062  0.1468  0.6215
 9495SOL    HW132847   8.810   2.021   6.384  2.4323  2.4501  3.2670
 9495SOL    HW232848   8.955   1.980   6.368  1.6229  0.7530 -1.2890
 9496SOL     OW32849   0.806   7.375   7.203 -0.2781  0.4675 -0.2407
 9496SOL    HW132850   0.788   7.310   7.272 -0.2323 -0.7751 -1.3465
 9496SOL    HW232851   0.726   7.376   7.150 -0.4147  1.6095 -0.0350
 9497SOL     OW32852   6.863   8.323   4.088  0.2307  0.2077 -0.6418
 9497SOL    HW132853   6.778   8.327   4.044 -0.0270 -1.3062 -0.3398
 9497SOL    HW232854   6.842   8.311   4.180  0.7782  0.1948 -0.5151
 9498SOL     OW32855   5.123   9.584  10.311  0.1332 -0.1270 -0.4310
 9498SOL    HW132856   5.039   9.571  10.355 -0.0155  0.6385 -0.4609
 9498SOL    HW232857   5.134   9.507  10.256 -0.3470 -0.4358 -0.0972
 9499SOL     OW32858  10.961   4.785   2.574  0.1681 -0.8215 -0.5288
 9499SOL    HW132859  10.871   4.785   2.607  0.1397 -2.2220 -0.5278
 9499SOL    HW232860  10.989   4.876   2.580 -1.2715 -0.3442 -0.5946
 9500SOL     OW32861   6.522   0.977   6.112  0.2945 -0.2304 -0.2154
 9500SOL    HW132862   6.439   0.996   6.068  0.2661  1.0108  0.3282
 9500SOL    HW232863   6.559   0.905   6.061 -0.5004  0.0600 -1.2685
 9501SOL     OW32864   8.163   0.342   1.112 -0.0970 -0.1992 -0.1579
 9501SOL    HW132865   8.210   0.294   1.179  1.6431 -0.5502 -1.5625
 9501SOL    HW232866   8.184   0.434   1.128 -0.9807 -0.1221  0.6905
 9502SOL     OW32867   9.161   5.062   3.933 -0.1626 -0.1344 -0.0284
 9502SOL    HW132868   9.113   5.006   3.873 -1.5354 -0.7651  1.5907
 9502SOL    HW232869   9.094   5.104   3.987  1.0038  0.7000  0.8337
 9503SOL     OW32870   9.278   1.664   7.217 -0.3187 -0.2416  0.1941
 9503SOL    HW132871   9.297   1.746   7.262  2.3836 -1.2736  1.1468
 9503SOL    HW232872   9.334   1.666   7.139 -0.9592 -0.7888 -0.2964
 9504SOL     OW32873   8.262   0.314   6.058  0.5967 -0.0051 -0.3789
 9504SOL    HW132874   8.268   0.297   6.152  0.3998 -0.3396 -0.4251
 9504SOL    HW232875   8.170   0.302   6.037  0.5791  0.4214 -0.5496
 9505SOL     OW32876   4.815   9.906   8.916 -0.4605  0.6984 -0.3052
 9505SOL    HW132877   4.769   9.841   8.862  0.7308 -0.5322  0.1055
 9505SOL    HW232878   4.855   9.855   8.986 -1.0242  2.1315  1.1089
 9506SOL     OW32879   6.186   4.979   8.120 -0.3649 -0.4131 -0.0070
 9506SOL    HW132880   6.252   4.987   8.051  1.6448 -0.5856  1.7825
 9506SOL    HW232881   6.143   5.065   8.121 -0.4963 -0.4290 -1.4796
 9507SOL     OW32882   2.372   3.300   0.911  0.2420  0.5740  0.0094
 9507SOL    HW132883   2.387   3.302   0.816 -1.1610 -2.0129 -0.3444
 9507SOL    HW232884   2.292   3.249   0.922  1.1323 -0.4168  2.6719
 9508SOL     OW32885   9.171   4.494   8.035 -0.1726  0.4816  0.2524
 9508SOL    HW132886   9.202   4.406   8.058  0.0434  0.9295  1.7478
 9508SOL    HW232887   9.107   4.516   8.103 -0.0301  1.5888  0.0500
 9509SOL     OW32888   5.868   3.967   1.058 -0.2188  0.0358 -0.5400
 9509SOL    HW132889   5.948   3.916   1.071 -0.6571 -0.2581  1.1306
 9509SOL    HW232890   5.800   3.919   1.104 -1.3335  0.4190 -1.7263
 9510SOL     OW32891   3.606   8.197  10.554  0.4686 -0.0809  0.5497
 9510SOL    HW132892   3.682   8.176  10.609  0.3416 -1.2425  0.3088
 9510SOL    HW232893   3.559   8.265  10.603  1.0717 -0.1479  1.2351
 9511SOL     OW32894   9.860   3.828   9.317  0.2500  0.1419 -0.1635
 9511SOL    HW132895   9.824   3.916   9.301  0.9524  0.4524 -0.0361
 9511SOL    HW232896   9.910   3.836   9.398  0.6465 -0.2829 -0.3623
 9512SOL     OW32897   3.053   5.373   6.748  0.1066  0.1968  0.2077
 9512SOL    HW132898   3.065   5.442   6.682 -0.2950  0.4722  0.4207
 9512SOL    HW232899   2.993   5.411   6.812 -0.1975 -0.3892  0.2737
 9513SOL     OW32900   9.101   2.189   8.270 -0.2178  0.0290  0.7314
 9513SOL    HW132901   9.067   2.124   8.331 -0.8479 -0.4972 -0.1594
 9513SOL    HW232902   9.178   2.148   8.231 -0.1291  0.1515  0.7782
 9514SOL     OW32903   4.112   6.973   2.480  0.1488 -0.2321 -0.3957
 9514SOL    HW132904   4.173   6.916   2.434  2.0618  0.4737  1.1419
 9514SOL    HW232905   4.041   6.914   2.508  1.9806 -1.9053  1.0329
 9515SOL     OW32906  10.374   2.502   9.957 -0.1698  0.5962  0.0618
 9515SOL    HW132907  10.279   2.497   9.964 -0.2901  1.1843 -0.9710
 9515SOL    HW232908  10.403   2.411   9.948 -0.8344  0.5281 -1.8091
 9516SOL     OW32909   1.974   7.621   2.976  0.0948 -0.1607 -0.0298
 9516SOL    HW132910   1.932   7.706   2.963  0.5024 -0.1073 -1.0769
 9516SOL    HW232911   2.050   7.641   3.032  1.9112  0.7386 -2.6151
 9517SOL     OW32912   3.153   6.807   0.790 -0.0021  0.0715 -0.4440
 9517SOL    HW132913   3.194   6.739   0.843 -1.2247 -2.6491 -2.7109
 9517SOL    HW232914   3.217   6.826   0.721 -0.7935 -1.0504 -1.5276
 9518SOL     OW32915   5.166   8.391   3.294 -0.4852  0.3444 -0.1482
 9518SOL    HW132916   5.168   8.461   3.229 -0.7385 -0.9629 -1.6211
 9518SOL    HW232917   5.137   8.313   3.246  1.6295 -1.2512  0.9309
 9519SOL     OW32918  10.632   2.168  10.836  0.0158  0.2405 -0.8735
 9519SOL    HW132919  10.591   2.083  10.824 -1.0250  0.4538  0.9149
 9519SOL    HW232920  10.719   2.159  10.796  0.9982 -2.5101  1.6029
 9520SOL     OW32921   1.933   7.155   7.147  0.4459  0.7717 -0.0584
 9520SOL    HW132922   1.950   7.237   7.100 -0.4861 -0.2236 -2.2814
 9520SOL    HW232923   1.846   7.128   7.117  0.3856 -0.6274  1.2577
 9521SOL     OW32924   6.911   4.064   1.410  0.2429 -0.1952  0.2519
 9521SOL    HW132925   6.834   4.043   1.356  0.9839  4.5183 -3.2527
 9521SOL    HW232926   6.874   4.096   1.492 -1.4709  0.0741 -0.5711
 9522SOL     OW32927   4.234   2.943   3.645 -0.0196  0.2178 -0.2143
 9522SOL    HW132928   4.267   2.858   3.618  0.8847  0.2010  0.8669
 9522SOL    HW232929   4.188   2.926   3.727 -1.3793  0.5042 -0.8855
 9523SOL     OW32930   3.612   3.060   5.352  0.4769  0.0117  0.5689
 9523SOL    HW132931   3.609   2.976   5.398  1.3561 -0.6641 -0.5559
 9523SOL    HW232932   3.531   3.103   5.377 -0.5523 -1.6548  0.2809
 9524SOL     OW32933   2.617   2.562  10.074  0.6705  0.0190 -0.0002
 9524SOL    HW132934   2.583   2.616  10.146  0.7008 -2.5024  2.0242
 9524SOL    HW232935   2.553   2.572  10.004  0.3677  2.1443  0.5083
 9525SOL     OW32936   9.038   5.468   1.511 -0.6064  0.0110 -0.0390
 9525SOL    HW132937   8.974   5.407   1.473 -0.2259  0.3831 -1.3196
 9525SOL    HW232938   9.120   5.447   1.467 -0.0181  0.1237  0.9655
 9526SOL     OW32939   2.443  10.098   9.892 -0.2245 -0.3388  0.1659
 9526SOL    HW132940   2.509  10.034   9.867 -0.0665 -0.0272 -0.2358
 9526SOL    HW232941   2.362  10.047   9.900  0.3328 -0.9755  2.1106
 9527SOL     OW32942   8.532   3.366   4.692 -0.4468  0.3867  0.0703
 9527SOL    HW132943   8.481   3.425   4.637 -0.5819 -0.6246 -0.9118
 9527SOL    HW232944   8.623   3.394   4.679 -0.5583  0.7500  0.0685
 9528SOL     OW32945  10.052   8.647   4.631  0.2777 -0.6293  0.1215
 9528SOL    HW132946   9.988   8.695   4.579  1.1429 -1.1530 -1.5101
 9528SOL    HW232947  10.137   8.678   4.599  0.8412 -2.0153  0.2015
 9529SOL     OW32948   0.038   4.625   3.498 -0.1254  0.5328  0.6985
 9529SOL    HW132949   0.123   4.664   3.520 -0.0332  0.5553  0.3216
 9529SOL    HW232950  -0.009   4.694   3.451 -0.4912  0.6355  1.2056
 9530SOL     OW32951  10.121   4.666   5.729  0.0351 -0.1525 -0.2671
 9530SOL    HW132952  10.047   4.607   5.745 -0.0242 -0.1792 -0.6231
 9530SOL    HW232953  10.144   4.700   5.815 -0.0788 -0.5220 -0.0892
 9531SOL     OW32954  10.412  10.250   9.695 -0.1008  0.1465 -0.2887
 9531SOL    HW132955  10.421  10.337   9.656 -0.9967  1.2072  1.6983
 9531SOL    HW232956  10.351  10.204   9.637  1.9958  0.0013 -2.5462
 9532SOL     OW32957   9.521   8.748   8.972 -0.5051 -0.6816 -0.1441
 9532SOL    HW132958   9.519   8.774   8.880 -1.5108 -3.2396 -0.9537
 9532SOL    HW232959   9.598   8.692   8.979  1.2527  1.7356  1.3720
 9533SOL     OW32960   2.473   3.301   6.039 -0.4095 -0.2183 -0.4664
 9533SOL    HW132961   2.462   3.257   5.954 -0.1181  0.1848 -0.7198
 9533SOL    HW232962   2.562   3.335   6.036  0.2937 -1.8037  0.7652
 9534SOL     OW32963   1.307   8.547   4.476 -0.2578 -0.1273 -0.2548
 9534SOL    HW132964   1.277   8.611   4.412  0.2785 -1.1365 -1.5689
 9534SOL    HW232965   1.339   8.474   4.423 -1.4552 -1.7734  1.1862
 9535SOL     OW32966   8.251   8.557  10.216  0.2257 -0.1946  0.2622
 9535SOL    HW132967   8.267   8.482  10.158  0.3878 -0.1515  0.2498
 9535SOL    HW232968   8.187   8.610  10.169  1.7496  0.8146 -0.7761
 9536SOL     OW32969   0.790   7.033   7.591 -0.4123  0.1918 -0.8602
 9536SOL    HW132970   0.751   7.066   7.673 -0.0589 -1.1823 -0.1109
 9536SOL    HW232971   0.882   7.021   7.612 -0.4751 -0.9566 -1.2119
 9537SOL     OW32972   0.263   4.262   4.112 -0.2733  0.3128  0.3091
 9537SOL    HW132973   0.174   4.249   4.081 -0.4410  0.0143  0.9076
 9537SOL    HW232974   0.272   4.201   4.186  0.6043 -0.0703 -0.1006
 9538SOL     OW32975   1.419   6.968   1.077  0.8079  0.5870  0.2482
 9538SOL    HW132976   1.359   6.900   1.110  0.4125  1.1292  0.6593
 9538SOL    HW232977   1.378   6.997   0.995  0.7658  0.6168  0.2800
 9539SOL     OW32978   6.379   5.045   2.546  0.2111  0.3745  0.4654
 9539SOL    HW132979   6.409   5.015   2.632  2.1484 -1.7889 -0.8273
 9539SOL    HW232980   6.445   5.110   2.519  0.3106  0.1387  0.1298
 9540SOL     OW32981   7.648   7.683   0.367  0.2069  0.3639 -0.1591
 9540SOL    HW132982   7.718   7.741   0.396  0.6591 -0.2082 -0.0734
 9540SOL    HW232983   7.573   7.705   0.422  0.9195 -0.4010  1.1607
 9541SOL     OW32984   8.601   8.979   8.716  0.5076  0.4505 -0.5028
 9541SOL    HW132985   8.693   9.002   8.717  1.0566 -1.3834  1.9140
 9541SOL    HW232986   8.597   8.893   8.758 -2.4002  1.0241  0.6943
 9542SOL     OW32987   6.264   6.028   4.916  0.1405 -0.0189 -0.3421
 9542SOL    HW132988   6.184   6.010   4.866 -1.1117  0.9190  1.2428
 9542SOL    HW232989   6.302   6.105   4.872  1.3884 -1.6766 -2.3863
 9543SOL     OW32990   4.389   2.382   2.391 -0.6882  0.5273  0.2042
 9543SOL    HW132991   4.341   2.316   2.442 -0.6666 -0.1843 -0.6794
 9543SOL    HW232992   4.330   2.402   2.318 -0.2964  0.8063 -0.0331
 9544SOL     OW32993   9.401  10.652   5.889 -0.2904 -0.4628  0.2201
 9544SOL    HW132994   9.316  10.626   5.922  0.2310 -1.2176  1.0171
 9544SOL    HW232995   9.458  10.651   5.966  1.1206 -2.9460 -0.7085
 9545SOL     OW32996   8.597   5.821  10.876 -0.4808 -0.2333 -0.8898
 9545SOL    HW132997   8.531   5.830  10.945 -0.3499 -1.6642 -0.5335
 9545SOL    HW232998   8.680   5.820  10.923 -0.2625  0.5339 -1.2456
 9546SOL     OW32999   3.196   8.009   4.266  0.1670  0.1683  0.0366
 9546SOL    HW133000   3.269   7.976   4.214  1.0248  0.8212  0.8084
 9546SOL    HW233001   3.158   8.078   4.212  1.4709  1.3092  0.5261
 9547SOL     OW33002   2.759   8.698   8.233  0.5900 -0.2227 -0.6479
 9547SOL    HW133003   2.852   8.686   8.252  0.4638 -2.3891 -1.1682
 9547SOL    HW233004   2.748   8.664   8.145 -0.6139  0.5946 -0.8407
 9548SOL     OW33005   6.114   3.355   4.879 -0.0979  0.2533 -0.1495
 9548SOL    HW133006   6.061   3.395   4.948  1.0767  1.4827  0.1022
 9548SOL    HW233007   6.098   3.409   4.802  0.0232  0.0310 -0.3308
 9549SOL     OW33008   1.976   9.823  10.400 -0.2171  0.0479  0.1544
 9549SOL    HW133009   1.885   9.850  10.416  0.4183  1.4805  1.6671
 9549SOL    HW233010   2.006   9.789  10.484  1.1491  1.2012  0.1661
 9550SOL     OW33011  11.087   8.231   7.133 -0.3142 -1.0002  0.4424
 9550SOL    HW133012  11.074   8.314   7.179  0.5625 -0.1518 -0.7785
 9550SOL    HW233013  11.030   8.169   7.178  0.3626 -0.1739  2.5452
 9551SOL     OW33014   6.474   2.168   9.853  0.1299  0.0481  0.0931
 9551SOL    HW133015   6.422   2.229   9.801  1.4157  1.3541  0.2443
 9551SOL    HW233016   6.442   2.081   9.829 -1.4893  0.7634 -0.4370
 9552SOL     OW33017   1.513   9.467   0.694 -0.3050 -0.5112 -1.0054
 9552SOL    HW133018   1.603   9.445   0.669 -0.3037 -0.7100 -0.8214
 9552SOL    HW233019   1.459   9.430   0.624 -0.0661  2.2169 -2.7865
 9553SOL     OW33020   5.296   1.882   5.588 -0.0348  0.3822 -0.2139
 9553SOL    HW133021   5.349   1.960   5.574 -0.7548  0.5142 -2.6461
 9553SOL    HW233022   5.211   1.903   5.549  0.1498 -2.0265 -2.1583
 9554SOL     OW33023   3.751   7.360   9.262  0.1185  0.0617 -0.2446
 9554SOL    HW133024   3.804   7.294   9.306  1.2930  2.2689  1.9704
 9554SOL    HW233025   3.784   7.363   9.173  2.1486 -0.2629  0.4424
 9555SOL     OW33026   0.642   1.163   6.148  0.3655  0.1383  0.4821
 9555SOL    HW133027   0.547   1.149   6.148  0.5737 -2.1393  2.8515
 9555SOL    HW233028   0.675   1.100   6.083  0.2902  1.0661 -0.4837
 9556SOL     OW33029   4.254   5.485   9.978  0.2178  0.4453 -0.4129
 9556SOL    HW133030   4.329   5.441   9.939  0.3238  0.9021 -0.7375
 9556SOL    HW233031   4.179   5.456   9.925  0.2671  0.5314 -0.5317
 9557SOL     OW33032   6.030   3.891  10.098  0.0069  0.1099 -0.0384
 9557SOL    HW133033   6.078   3.908  10.018  0.0542 -1.2837 -0.3204
 9557SOL    HW233034   6.041   3.798  10.114 -2.8625 -0.3647 -0.3076
 9558SOL     OW33035   0.075   7.253   6.132  0.3471 -0.7090 -0.2134
 9558SOL    HW133036   0.098   7.322   6.194  1.9246 -2.4656  1.2842
 9558SOL    HW233037  -0.004   7.285   6.089 -1.1920  0.3853  3.0917
 9559SOL     OW33038   1.145   9.998   6.422  0.1914 -0.0257  0.1675
 9559SOL    HW133039   1.135   9.905   6.399  1.7080  0.2305 -1.8674
 9559SOL    HW233040   1.105  10.044   6.348 -1.2168  1.0012  1.5091
 9560SOL     OW33041   9.468  10.369  10.744 -0.6364 -0.8006  0.0213
 9560SOL    HW133042   9.541  10.425  10.719 -1.4696  0.7878  0.9687
 9560SOL    HW233043   9.390  10.421  10.725 -1.4537 -1.7189  0.7486
 9561SOL     OW33044   2.515   7.696   1.018 -0.0636  0.6602 -0.0421
 9561SOL    HW133045   2.464   7.625   0.979 -1.6581  2.1698 -0.8917
 9561SOL    HW233046   2.452   7.743   1.073  0.1004  3.0752 -1.7681
 9562SOL     OW33047   7.739   8.064   7.025  0.0504 -0.8038  0.3664
 9562SOL    HW133048   7.717   8.151   6.991  0.5919 -1.0586 -0.6919
 9562SOL    HW233049   7.806   8.081   7.091  1.2538 -0.4855 -0.8691
 9563SOL     OW33050  11.056   3.210   8.008 -0.2313  0.2322 -0.1424
 9563SOL    HW133051  11.042   3.205   8.103  1.7445 -3.5696  0.1400
 9563SOL    HW233052  11.146   3.240   7.998 -0.2721  0.1523 -0.7947
 9564SOL     OW33053   6.777   4.391   8.995 -0.3652 -0.5789  0.0482
 9564SOL    HW133054   6.786   4.309   8.947  1.4203 -0.3863 -0.0268
 9564SOL    HW233055   6.856   4.396   9.049 -0.4121  1.1057  0.0242
 9565SOL     OW33056   5.991   3.426   6.342  0.3893 -0.1644  0.3774
 9565SOL    HW133057   5.943   3.359   6.390 -0.2733 -0.9646 -1.3239
 9565SOL    HW233058   6.043   3.378   6.279  1.0870  0.8695  0.1287
 9566SOL     OW33059   3.417   9.961   4.443  0.3061 -0.6252 -0.5070
 9566SOL    HW133060   3.477   9.982   4.515  0.0334  1.4589 -0.8187
 9566SOL    HW233061   3.420   9.866   4.436  4.0004 -0.6348 -0.8456
 9567SOL     OW33062   3.964   0.172   4.997 -0.4051  0.0644 -0.5965
 9567SOL    HW133063   3.936   0.180   4.905 -0.0746 -1.6894 -0.8875
 9567SOL    HW233064   3.899   0.115   5.037 -0.7768  1.1526  0.3913
 9568SOL     OW33065   5.838   8.130   1.626  0.7097 -0.2507 -0.2599
 9568SOL    HW133066   5.773   8.069   1.660 -2.2943  2.3433 -0.8968
 9568SOL    HW233067   5.909   8.073   1.593 -0.9048 -3.2198  0.9946
 9569SOL     OW33068   7.897   5.852   9.222 -0.5477 -0.0225  0.1003
 9569SOL    HW133069   7.892   5.847   9.126 -1.2802 -0.1297  0.1370
 9569SOL    HW233070   7.981   5.894   9.240 -0.7316  0.6685 -0.6136
 9570SOL     OW33071   3.429  10.248   3.353  0.3451  0.1287  0.5727
 9570SOL    HW133072   3.388  10.326   3.316 -1.0920 -0.2761  1.2500
 9570SOL    HW233073   3.431  10.263   3.447  1.1369 -0.1660  0.6146
 9571SOL     OW33074   2.156   4.798   4.416 -0.0311 -0.2863  0.2104
 9571SOL    HW133075   2.127   4.822   4.328 -1.3248  1.6753  1.0869
 9571SOL    HW233076   2.251   4.805   4.414 -0.0644 -0.0565 -0.9635
 9572SOL     OW33077   4.034   1.311   2.711 -0.4999  0.1541 -0.1024
 9572SOL    HW133078   3.998   1.276   2.630 -1.3293  1.2098 -0.2109
 9572SOL    HW233079   3.999   1.253   2.779 -0.6750 -0.0894 -0.3969
 9573SOL     OW33080   2.393   7.758   5.291 -0.2841 -0.5712 -0.7308
 9573SOL    HW133081   2.406   7.677   5.342 -1.1937 -1.0354 -1.2002
 9573SOL    HW233082   2.365   7.727   5.205  0.2992  0.2361 -1.2181
 9574SOL     OW33083   4.737   9.304   0.729  0.3212 -0.3138 -0.1236
 9574SOL    HW133084   4.718   9.327   0.639  0.0175 -0.0002  0.0191
 9574SOL    HW233085   4.733   9.387   0.777 -0.5413 -0.6168  0.3483
 9575SOL     OW33086   6.552   3.379   8.944 -0.3445  0.1982 -0.4134
 9575SOL    HW133087   6.490   3.335   8.886 -0.2182 -0.4963 -0.0283
 9575SOL    HW233088   6.578   3.458   8.896 -2.6410  1.3138  0.0082
 9576SOL     OW33089   5.632   4.395   8.602 -0.3715  0.1582 -0.1927
 9576SOL    HW133090   5.702   4.415   8.664 -0.0172 -1.5714  0.0015
 9576SOL    HW233091   5.649   4.452   8.527  0.2862  0.9118  0.5187
 9577SOL     OW33092   1.018   2.861   1.311 -0.7858  0.7390 -0.1933
 9577SOL    HW133093   1.084   2.859   1.380  0.3504  2.1964 -1.1764
 9577SOL    HW233094   1.063   2.826   1.234 -0.7969  2.6281 -1.1180
 9578SOL     OW33095   0.862   7.213  11.095  0.1902  0.2259 -0.2828
 9578SOL    HW133096   0.846   7.123  11.122 -0.4542  0.0381 -1.2372
 9578SOL    HW233097   0.892   7.257  11.174 -1.7290 -0.2798  0.8003
 9579SOL     OW33098  10.146   6.206   2.248  0.0110  0.9922  0.1296
 9579SOL    HW133099  10.088   6.167   2.313 -0.6534  0.1467 -0.9376
 9579SOL    HW233100  10.234   6.191   2.283 -0.3094  0.0671  0.5672
 9580SOL     OW33101   6.862   7.504   9.926 -0.0116  0.2984  0.0337
 9580SOL    HW133102   6.911   7.586   9.936 -1.8901  1.6330 -0.8502
 9580SOL    HW233103   6.829   7.507   9.836 -2.0711 -0.2345  0.7156
 9581SOL     OW33104   0.916  10.857   2.713  0.4338  0.1173  0.0900
 9581SOL    HW133105   0.878  10.831   2.630 -0.4132  0.3946  0.3813
 9581SOL    HW233106   0.906  10.781   2.770 -1.2628  0.7469  0.6813
 9582SOL     OW33107   1.681   3.871   7.367  0.2099  0.0853 -0.1378
 9582SOL    HW133108   1.632   3.808   7.420  0.7032  0.6634  1.0488
 9582SOL    HW233109   1.762   3.826   7.344  0.3272  0.1014  0.2475
 9583SOL     OW33110   9.798   0.890   3.648  0.4356 -0.2303 -0.1408
 9583SOL    HW133111   9.780   0.855   3.561  0.6361 -0.1647 -0.2085
 9583SOL    HW233112   9.804   0.813   3.704 -0.4099 -0.2409 -0.0463
 9584SOL     OW33113   6.386   1.044   4.244 -0.2285 -0.4790 -0.0032
 9584SOL    HW133114   6.436   0.967   4.217 -1.2400 -0.5729 -1.7967
 9584SOL    HW233115   6.394   1.105   4.170 -0.8883  0.4170  0.6445
 9585SOL     OW33116   1.822   4.934   5.812 -0.1150  0.3081 -0.1048
 9585SOL    HW133117   1.756   4.945   5.881 -0.0587 -1.2999  0.2513
 9585SOL    HW233118   1.780   4.968   5.733  0.2821  3.3796  0.8853
 9586SOL     OW33119   7.996  11.028   6.637  0.0180 -0.0534 -0.0134
 9586SOL    HW133120   7.991  11.033   6.733  1.1956 -2.3801  0.2201
 9586SOL    HW233121   8.011  11.119   6.610 -2.4714  1.0391  1.7948
 9587SOL     OW33122   2.464   3.814  10.211 -0.0397  0.2268  0.3357
 9587SOL    HW133123   2.419   3.898  10.205 -0.7362 -0.1363  0.3460
 9587SOL    HW233124   2.450   3.786  10.302  1.9958  1.0688  0.9730
 9588SOL     OW33125   5.810  10.520   8.341 -0.1301  1.0556  0.1214
 9588SOL    HW133126   5.792  10.426   8.339 -2.0116  1.3581 -2.5115
 9588SOL    HW233127   5.862  10.537   8.262  0.0227  2.2660  0.4509
 9589SOL     OW33128   5.920   7.998   2.096 -0.5756  0.1281  0.0731
 9589SOL    HW133129   5.973   7.977   2.019  1.5169  0.8961  1.2409
 9589SOL    HW233130   5.982   8.031   2.160 -2.1289 -1.1371  2.3904
 9590SOL     OW33131   8.434  10.541   3.488 -0.2674  0.3337  0.1541
 9590SOL    HW133132   8.396  10.622   3.454  0.5602  1.2150  1.2528
 9590SOL    HW233133   8.366  10.503   3.543 -1.1117 -0.3912 -1.3388
 9591SOL     OW33134   1.641   5.851   3.171 -0.2551  0.1202  0.0416
 9591SOL    HW133135   1.724   5.821   3.135  0.2467  0.5524  0.8119
 9591SOL    HW233136   1.596   5.771   3.198 -0.5649 -0.1975 -1.3468
 9592SOL     OW33137   5.055   1.147   5.799 -0.6518 -0.2373 -0.3984
 9592SOL    HW133138   5.112   1.070   5.789  0.6501  0.6157  0.1699
 9592SOL    HW233139   5.098   1.200   5.867 -2.4895  0.1422  0.5244
 9593SOL     OW33140   7.263   0.928   7.688  0.6614  0.2145  0.2648
 9593SOL    HW133141   7.350   0.932   7.728  0.6082  1.4243  0.3111
 9593SOL    HW233142   7.210   0.879   7.750  0.9514  0.7512  0.9523
 9594SOL     OW33143   3.372   3.298   8.056  0.2183 -0.3247  0.3455
 9594SOL    HW133144   3.358   3.362   7.986  1.1478  1.1450  1.4298
 9594SOL    HW233145   3.374   3.351   8.136  0.5970 -1.7822  1.3338
 9595SOL     OW33146   2.322  10.764   6.089 -0.0885  0.1938  0.2316
 9595SOL    HW133147   2.282  10.826   6.150 -0.2996 -0.2671  0.5679
 9595SOL    HW233148   2.268  10.685   6.097  0.3360 -0.1212  0.0018
 9596SOL     OW33149   3.234   3.868   7.000  0.2256 -0.6984  0.3636
 9596SOL    HW133150   3.151   3.851   7.045 -0.3927  0.7523 -0.1808
 9596SOL    HW233151   3.221   3.830   6.913  0.4010 -1.0598  0.4898
 9597SOL     OW33152  10.569   5.209   5.893  0.6114 -0.2158 -0.0052
 9597SOL    HW133153  10.626   5.142   5.855  0.3992 -0.8440  0.7641
 9597SOL    HW233154  10.488   5.163   5.914  0.8598  0.0107  1.5671
 9598SOL     OW33155   2.310   4.041   3.928  0.4887  1.0647 -0.1644
 9598SOL    HW133156   2.326   3.958   3.972  0.3727  1.0880 -0.0805
 9598SOL    HW233157   2.256   4.018   3.852  1.4512  0.8934 -0.8121
 9599SOL     OW33158   4.593   9.380   4.037  0.5911 -0.4058  0.0887
 9599SOL    HW133159   4.688   9.378   4.051  0.5032  0.9810  1.0069
 9599SOL    HW233160   4.556   9.364   4.124  0.0134  2.2941  0.4042
 9600SOL     OW33161   4.327   7.993   9.862  0.0784 -0.4107 -0.4190
 9600SOL    HW133162   4.357   8.017   9.774  0.2780  0.4209 -0.1372
 9600SOL    HW233163   4.234   8.012   9.862  0.3818  1.2379  0.0582
 9601SOL     OW33164   5.666   5.247   9.642 -0.2323  0.2940  0.2742
 9601SOL    HW133165   5.582   5.291   9.631  0.3023  1.4358  0.6081
 9601SOL    HW233166   5.731   5.312   9.615  0.4961 -1.2240 -1.9077
 9602SOL     OW33167   6.817   2.764   9.083 -0.1404 -0.4689 -0.1879
 9602SOL    HW133168   6.906   2.779   9.051 -0.5224 -1.1459 -1.6552
 9602SOL    HW233169   6.768   2.841   9.055  0.2166  0.5134  1.7289
 9603SOL     OW33170   9.430   1.205   4.992  0.3050  0.0827  0.2560
 9603SOL    HW133171   9.364   1.185   4.926 -0.0415 -0.1431  0.6606
 9603SOL    HW233172   9.417   1.298   5.012  0.8974  0.3420 -0.5167
 9604SOL     OW33173   9.158   0.456   9.720 -0.1693 -0.5564  0.1736
 9604SOL    HW133174   9.062   0.449   9.718 -0.0804 -1.7540 -0.8713
 9604SOL    HW233175   9.185   0.451   9.629  0.9313 -0.7510  0.4923
 9605SOL     OW33176   8.253   5.887   2.672  0.4311 -0.7884 -0.1775
 9605SOL    HW133177   8.329   5.872   2.728 -0.3248 -2.5273  0.4773
 9605SOL    HW233178   8.235   5.801   2.634 -0.8321 -0.2661 -0.8070
 9606SOL     OW33179   9.937  10.273   7.556 -0.0552  0.7544 -0.1397
 9606SOL    HW133180   9.911  10.183   7.537 -0.1160  0.5417  0.8783
 9606SOL    HW233181   9.854  10.319   7.570 -0.0398  1.0583 -1.0012
 9607SOL     OW33182   6.098   7.310  11.064 -0.4236 -0.0744 -0.5305
 9607SOL    HW133183   6.166   7.249  11.094 -0.6617 -1.9914 -3.4592
 9607SOL    HW233184   6.060   7.345  11.145  1.4623 -1.8606  1.2579
 9608SOL     OW33185   8.465   2.705   7.620 -0.1600  0.2393  0.0014
 9608SOL    HW133186   8.548   2.734   7.583 -0.8522  1.7776 -0.4247
 9608SOL    HW233187   8.434   2.779   7.673 -1.2117 -0.3277  0.2202
 9609SOL     OW33188   9.312   5.686   1.244  0.5725 -0.0343 -0.4030
 9609SOL    HW133189   9.270   5.605   1.215  1.5644 -0.9060  0.4911
 9609SOL    HW233190   9.404   5.674   1.222  0.7780  0.7095  0.0284
 9610SOL     OW33191  10.595   3.235  10.633 -0.1157 -0.3844 -0.2525
 9610SOL    HW133192  10.534   3.261  10.564  0.2667  1.0816 -0.0627
 9610SOL    HW233193  10.550   3.257  10.714  0.5484  0.4685 -0.1059
 9611SOL     OW33194   0.031   7.718   4.723  0.6869  0.0357 -0.1040
 9611SOL    HW133195   0.093   7.676   4.662  0.5947  0.1084 -0.2475
 9611SOL    HW233196   0.087   7.752   4.793  0.8708  0.5746 -0.4999
 9612SOL     OW33197   1.926   9.845   8.949  0.6181  0.1605 -0.0158
 9612SOL    HW133198   1.953   9.754   8.941  1.6817  0.4884 -0.3962
 9612SOL    HW233199   1.865   9.846   9.022  2.0950 -0.5602  1.2937
 9613SOL     OW33200   2.295   6.797   0.043  0.6666  0.1686 -0.0733
 9613SOL    HW133201   2.302   6.892   0.030  0.8219  0.1154 -0.3982
 9613SOL    HW233202   2.276   6.787   0.136  0.0785  0.5494 -0.1412
 9614SOL     OW33203   8.179   4.034   8.530 -0.6273 -0.1534  0.1476
 9614SOL    HW133204   8.209   3.956   8.577  0.8294 -1.2440 -2.3490
 9614SOL    HW233205   8.219   4.026   8.443 -1.4069  2.8031 -0.6019
 9615SOL     OW33206  10.713   5.787   7.463 -0.3777 -0.0047 -0.3123
 9615SOL    HW133207  10.734   5.828   7.379 -0.9951  0.2457 -0.3512
 9615SOL    HW233208  10.771   5.831   7.525  0.7212 -0.8097 -0.7258
 9616SOL     OW33209   3.245   8.566   3.019  0.3253 -0.3168  0.1253
 9616SOL    HW133210   3.335   8.596   3.033 -0.0688  0.0957  2.1843
 9616SOL    HW233211   3.191   8.636   3.054 -0.7988 -0.7779 -0.6357
 9617SOL     OW33212   7.375   5.130   7.744  0.5175  0.2575  0.1479
 9617SOL    HW133213   7.419   5.213   7.762  2.4947 -0.5601 -0.5427
 9617SOL    HW233214   7.422   5.066   7.797 -0.3281 -0.5688 -0.0748
 9618SOL     OW33215  10.689   3.082   0.923 -0.0831  0.4980 -0.2054
 9618SOL    HW133216  10.724   3.011   0.868  2.7946  0.0261  1.9434
 9618SOL    HW233217  10.669   3.039   1.006 -1.2887  1.7067  0.1526
 9619SOL     OW33218  10.412   6.120   1.969 -0.3304  0.2225 -0.5528
 9619SOL    HW133219  10.381   6.179   1.901 -0.7429  1.9926  1.0590
 9619SOL    HW233220  10.344   6.054   1.978 -1.7176  1.6886  0.1316
 9620SOL     OW33221   3.105   8.017   6.519  0.0033  0.1340 -0.2313
 9620SOL    HW133222   3.039   7.953   6.494 -1.1720  1.9207 -2.0169
 9620SOL    HW233223   3.061   8.073   6.583  0.9242 -0.5601  1.0762
 9621SOL     OW33224   5.191   2.448   8.998 -0.3952  0.2168  0.1355
 9621SOL    HW133225   5.277   2.429   8.960 -0.2644 -0.5061  0.7706
 9621SOL    HW233226   5.188   2.394   9.077 -0.9867  1.0882  0.7124
 9622SOL     OW33227   7.689   9.453   5.667 -0.3565 -0.6165  0.1234
 9622SOL    HW133228   7.657   9.404   5.591  0.5683  0.2186 -0.8362
 9622SOL    HW233229   7.697   9.543   5.635 -0.3234 -0.1752  1.3392
 9623SOL     OW33230  10.272   2.872   9.327  0.1203 -0.0383  0.1989
 9623SOL    HW133231  10.216   2.900   9.255  0.0821  0.7339  0.5159
 9623SOL    HW233232  10.252   2.780   9.340 -0.2637 -0.0417 -0.4253
 9624SOL     OW33233  10.209   5.067   1.388 -0.2876 -0.9165 -0.5831
 9624SOL    HW133234  10.188   5.137   1.326 -0.0946 -0.6685 -0.3718
 9624SOL    HW233235  10.227   5.113   1.471  1.7543 -1.0545 -0.9078
 9625SOL     OW33236   9.668   7.372   4.291  0.2082 -0.0675  0.0072
 9625SOL    HW133237   9.663   7.437   4.361 -0.9708  0.2753 -0.3702
 9625SOL    HW233238   9.577   7.360   4.264  0.4717 -1.4690 -0.3096
 9626SOL     OW33239   1.315   2.200   8.312  0.3163 -0.0898 -0.5736
 9626SOL    HW133240   1.234   2.169   8.352  0.1896  2.3225  1.2301
 9626SOL    HW233241   1.288   2.232   8.226 -0.6665  0.7102  0.0155
 9627SOL     OW33242   3.860   6.307   1.653 -0.0819  0.5245  0.0799
 9627SOL    HW133243   3.788   6.292   1.714 -0.3746  0.6692 -0.2204
 9627SOL    HW233244   3.927   6.244   1.678  0.2633  1.3335  1.2509
 9628SOL     OW33245   9.447   3.172   8.872 -0.8065  0.3374  0.0187
 9628SOL    HW133246   9.413   3.233   8.937  0.5565  0.2127  0.8713
 9628SOL    HW233247   9.540   3.192   8.866 -0.6459 -0.5727 -0.8976
 9629SOL     OW33248   4.094   5.667   8.703 -0.4779  0.2281 -0.0873
 9629SOL    HW133249   4.049   5.723   8.765  0.2418  0.3610  0.3152
 9629SOL    HW233250   4.187   5.685   8.715 -0.1257 -1.8834  0.8926
 9630SOL     OW33251   9.351   6.254   4.555 -0.3261 -0.0139 -0.0145
 9630SOL    HW133252   9.284   6.213   4.500 -0.2067  2.5273 -2.2865
 9630SOL    HW233253   9.433   6.215   4.527 -0.3003  1.0518 -1.4866
 9631SOL     OW33254   9.408   8.270   6.234 -0.2975 -0.0107 -0.4927
 9631SOL    HW133255   9.459   8.307   6.163 -0.1614 -1.5689 -1.2499
 9631SOL    HW233256   9.364   8.345   6.274  1.4965  1.1900 -0.6692
 9632SOL     OW33257   1.579   9.031   4.943 -0.1877 -0.0449 -0.0385
 9632SOL    HW133258   1.593   8.943   4.908 -0.8492  0.0886 -0.6696
 9632SOL    HW233259   1.520   9.072   4.880  1.4616  1.4448 -0.6930
 9633SOL     OW33260   7.991   0.942   9.519  0.1107 -0.4307 -0.0850
 9633SOL    HW133261   7.896   0.943   9.507  0.1330  0.8655 -0.2712
 9633SOL    HW233262   8.021   0.872   9.461 -0.5894  0.2684 -1.3519
 9634SOL     OW33263   5.405   0.123   4.600 -0.4391  0.0278  0.3589
 9634SOL    HW133264   5.330   0.064   4.610  0.4939 -0.9786  1.6586
 9634SOL    HW233265   5.480   0.072   4.629  0.8653  0.8420 -1.3795
 9635SOL     OW33266   2.156   0.631   8.091 -0.0982  0.2974  0.5531
 9635SOL    HW133267   2.083   0.669   8.041 -0.4902 -1.1368 -0.0320
 9635SOL    HW233268   2.160   0.683   8.171 -0.1321  2.0048 -0.4958
 9636SOL     OW33269   7.793   9.304   8.180  0.5940 -0.0832  0.2987
 9636SOL    HW133270   7.752   9.221   8.155 -0.8574  0.7031 -0.0777
 9636SOL    HW233271   7.799   9.299   8.276  1.1906 -0.9114  0.2260
 9637SOL     OW33272   6.417   1.330   0.407 -0.2056  0.1247  0.4834
 9637SOL    HW133273   6.485   1.329   0.339 -0.0523  0.5557  0.6297
 9637SOL    HW233274   6.444   1.262   0.469 -0.9409 -1.0799 -0.4579
 9638SOL     OW33275   0.196   9.502   9.175 -0.1865 -0.2325 -0.4914
 9638SOL    HW133276   0.198   9.543   9.262 -0.4647 -0.5989 -0.3087
 9638SOL    HW233277   0.104   9.483   9.160 -0.2157  0.3729 -1.1296
 9639SOL     OW33278   3.500   9.544   1.317  0.2747 -0.3048  0.2052
 9639SOL    HW133279   3.536   9.462   1.350 -1.3313 -1.8311 -1.5738
 9639SOL    HW233280   3.429   9.565   1.378  2.1196  1.0847  1.9838
 9640SOL     OW33281   0.961   3.979   0.544 -0.0381  0.2004 -0.3237
 9640SOL    HW133282   1.001   4.066   0.534 -1.2614  0.9509  0.9731
 9640SOL    HW233283   1.013   3.938   0.614  0.0957  0.1679 -0.4424
 9641SOL     OW33284   5.242   0.948   5.816  0.0531  0.3366 -0.5837
 9641SOL    HW133285   5.215   0.882   5.752  0.5496  0.1316 -0.5889
 9641SOL    HW233286   5.326   0.980   5.782  0.3485  0.1786 -0.0031
 9642SOL     OW33287   5.767   2.851   4.612 -0.8356  0.4311  0.3049
 9642SOL    HW133288   5.689   2.823   4.660 -0.0188 -2.3568  0.1554
 9642SOL    HW233289   5.838   2.846   4.675 -0.2290 -0.4861 -0.4134
 9643SOL     OW33290   6.024   7.690   6.803 -0.1358 -0.3953  0.1069
 9643SOL    HW133291   6.099   7.698   6.861 -0.3528 -0.9402  0.4742
 9643SOL    HW233292   5.996   7.780   6.785  2.4176  0.0343 -2.4745
 9644SOL     OW33293   2.697  10.878   0.519 -0.0555 -0.0062 -0.0091
 9644SOL    HW133294   2.706  10.789   0.553  0.9316 -0.0081 -0.2385
 9644SOL    HW233295   2.704  10.868   0.424  0.4336  0.3509 -0.0168
 9645SOL     OW33296   0.257   7.171   9.855 -0.0966 -0.1946 -0.3957
 9645SOL    HW133297   0.196   7.244   9.845 -0.6823 -0.7676 -1.1385
 9645SOL    HW233298   0.202   7.093   9.849  0.4937 -0.6960  0.5743
 9646SOL     OW33299   7.364   9.256   2.843 -1.0105  0.4929 -0.3142
 9646SOL    HW133300   7.457   9.278   2.849 -0.4222 -1.5856 -0.8325
 9646SOL    HW233301   7.339   9.233   2.932 -0.6822 -0.1384 -0.3804
 9647SOL     OW33302   8.357  10.586   9.147  0.7591 -0.3641  0.0523
 9647SOL    HW133303   8.368  10.639   9.226 -0.8482  1.5342 -0.8970
 9647SOL    HW233304   8.263  10.570   9.142  1.0936 -2.4312 -0.2967
 9648SOL     OW33305   2.317   0.994   3.703 -0.0695 -0.0217 -0.2156
 9648SOL    HW133306   2.267   0.929   3.653  1.5738 -0.5071 -1.3058
 9648SOL    HW233307   2.396   0.947   3.730  1.3070  1.5937 -1.2838
 9649SOL     OW33308   4.543   7.522   5.879 -0.0753 -0.4541  0.1211
 9649SOL    HW133309   4.631   7.559   5.870  0.8583 -2.4616  0.4554
 9649SOL    HW233310   4.520   7.537   5.970 -0.2421  0.3947 -0.0547
 9650SOL     OW33311   4.599   3.712   2.456 -0.0948 -0.4285 -0.4862
 9650SOL    HW133312   4.670   3.659   2.420 -1.4335 -0.8697 -2.6843
 9650SOL    HW233313   4.570   3.766   2.383 -1.8768 -0.1174  0.3844
 9651SOL     OW33314   0.002   6.996   0.536  0.2548  0.2498 -0.1300
 9651SOL    HW133315   0.092   7.027   0.543 -0.4287  2.0314  1.4680
 9651SOL    HW233316  -0.046   7.070   0.499 -0.7439 -0.3323 -0.0168
 9652SOL     OW33317  10.366   0.244   7.433  0.2551 -0.5798 -0.1363
 9652SOL    HW133318  10.322   0.298   7.368 -0.1720  0.2098  0.7889
 9652SOL    HW233319  10.390   0.164   7.386  1.5331  0.6873 -1.7111
 9653SOL     OW33320   1.698   1.946   5.766  0.6155  0.0899 -0.0716
 9653SOL    HW133321   1.634   1.952   5.695 -0.4026  0.9330  0.8810
 9653SOL    HW233322   1.688   1.857   5.799  0.5450 -0.0597 -0.4876
 9654SOL     OW33323   3.734   8.624   4.604  0.2386 -0.1405  0.2058
 9654SOL    HW133324   3.773   8.634   4.691 -0.6051  1.0265  0.4772
 9654SOL    HW233325   3.809   8.612   4.546  1.1960  3.1070  0.5597
 9655SOL     OW33326   3.554   3.677   1.355  0.0194 -0.1742  0.1029
 9655SOL    HW133327   3.645   3.652   1.343  0.0650 -0.6831  1.4162
 9655SOL    HW233328   3.516   3.671   1.267  1.6305  1.7074 -0.7926
 9656SOL     OW33329   4.766   4.606   2.877 -0.1441  0.0937 -0.1299
 9656SOL    HW133330   4.709   4.679   2.853 -0.4118  0.0338  0.3279
 9656SOL    HW233331   4.729   4.530   2.832 -0.7103 -0.0393  0.5407
 9657SOL     OW33332   1.944   8.253   1.442 -0.0598 -0.2963  0.0305
 9657SOL    HW133333   1.984   8.329   1.485 -2.6346  1.3711 -0.3404
 9657SOL    HW233334   1.893   8.211   1.510 -0.9224  0.0091 -0.4102
 9658SOL     OW33335  11.029   5.917   9.265 -0.1166  0.1324 -0.4976
 9658SOL    HW133336  11.112   5.874   9.244  0.4765  0.9207  0.2007
 9658SOL    HW233337  11.020   5.986   9.198  0.2328  0.6162 -0.0523
 9659SOL     OW33338   9.058   8.886   0.795  0.1232 -0.1346 -0.3106
 9659SOL    HW133339   9.089   8.970   0.828  1.4323 -0.1891 -1.2912
 9659SOL    HW233340   9.000   8.909   0.721 -1.4644 -0.0609  0.9080
 9660SOL     OW33341   7.427   4.806   0.605  0.1255  0.3993  0.4001
 9660SOL    HW133342   7.476   4.732   0.568  0.4111  0.7798  0.0089
 9660SOL    HW233343   7.371   4.766   0.672 -0.4601 -0.3151 -0.4844
 9661SOL     OW33344   5.682   9.002   0.539 -0.1790  0.0018 -0.2086
 9661SOL    HW133345   5.747   8.933   0.531 -0.4555 -0.1422 -1.5096
 9661SOL    HW233346   5.733   9.083   0.540  0.0237 -0.0730 -1.8830
 9662SOL     OW33347   4.302   9.027   6.339  0.3137  0.1981 -0.2969
 9662SOL    HW133348   4.326   9.007   6.430 -0.9310  5.5440  1.5722
 9662SOL    HW233349   4.232   8.965   6.319  1.9222 -2.4525  1.5379
 9663SOL     OW33350   5.056   4.748  10.121 -0.2880 -0.1804  0.1658
 9663SOL    HW133351   5.118   4.688  10.078 -0.8309 -0.5910 -0.0538
 9663SOL    HW233352   5.052   4.718  10.211 -1.5565 -1.3384 -0.2307
 9664SOL     OW33353   3.540   7.640   9.238  0.3480 -0.3738 -0.4036
 9664SOL    HW133354   3.523   7.649   9.145  0.7330  0.8600 -0.3776
 9664SOL    HW233355   3.626   7.681   9.251 -1.1755  2.7017  0.9775
 9665SOL     OW33356   4.946   7.555   4.925  0.1659 -0.4391 -0.2498
 9665SOL    HW133357   4.919   7.613   4.854  1.4027 -0.5949 -0.8758
 9665SOL    HW233358   4.989   7.613   4.988  0.2668 -0.4895 -0.2717
 9666SOL     OW33359   9.557   1.198   3.438  0.3310 -0.3776  0.2968
 9666SOL    HW133360   9.596   1.247   3.510 -1.0751  0.0753  0.7757
 9666SOL    HW233361   9.534   1.113   3.477  0.1004 -0.3474  0.2260
 9667SOL     OW33362   8.525   1.673   5.711  0.3729  0.4290  0.1592
 9667SOL    HW133363   8.506   1.698   5.801  0.9690  0.3506  0.3122
 9667SOL    HW233364   8.455   1.712   5.660  2.2073  4.0867  0.1090
 9668SOL     OW33365   8.690   4.841   2.009 -0.8371  0.2829  0.0809
 9668SOL    HW133366   8.652   4.794   1.935 -1.5318  0.6521  0.1948
 9668SOL    HW233367   8.775   4.801   2.022 -1.8655 -1.7831  0.9323
 9669SOL     OW33368   4.983   8.903   4.742 -0.3332 -0.1283 -0.6232
 9669SOL    HW133369   4.919   8.871   4.806  1.3434 -0.1831  1.1173
 9669SOL    HW233370   5.024   8.978   4.785  0.7795 -0.1073 -1.6782
 9670SOL     OW33371   2.588   5.887   6.355  0.1039 -0.0930  0.0679
 9670SOL    HW133372   2.673   5.924   6.378  0.1507  0.4385 -0.9163
 9670SOL    HW233373   2.562   5.837   6.433  2.4143 -2.3390 -0.4310
 9671SOL     OW33374   7.620   7.148   3.725 -0.2560 -0.1494 -0.1701
 9671SOL    HW133375   7.625   7.053   3.716  0.0893 -0.0254 -1.4294
 9671SOL    HW233376   7.687   7.170   3.790 -0.2345 -0.7519  0.0123
 9672SOL     OW33377   9.330   8.496   6.848 -0.4652  0.2770  0.2097
 9672SOL    HW133378   9.361   8.466   6.763 -2.0028 -1.4102  0.1711
 9672SOL    HW233379   9.234   8.489   6.843 -0.7048  2.0025  1.4456
 9673SOL     OW33380   8.457   1.669   7.131  0.4822  0.2252 -0.0811
 9673SOL    HW133381   8.487   1.664   7.041  0.9436 -1.7977  0.1293
 9673SOL    HW233382   8.395   1.596   7.140 -0.2452  0.9388  1.0031
 9674SOL     OW33383   4.582   9.924   6.148 -0.1017  0.0335 -0.4208
 9674SOL    HW133384   4.665   9.888   6.116  0.0073  0.7969 -1.0439
 9674SOL    HW233385   4.605   9.965   6.232 -0.0773 -0.6640 -0.0755
 9675SOL     OW33386   6.428   5.760   3.103  0.0227 -0.8353  0.1362
 9675SOL    HW133387   6.519   5.754   3.132 -0.4445 -2.1731  1.4683
 9675SOL    HW233388   6.427   5.714   3.019  0.7679  0.2151 -0.4788
 9676SOL     OW33389  10.189   5.126   2.611 -0.6360  0.0993 -0.2809
 9676SOL    HW133390  10.245   5.179   2.668 -1.1575  1.1213 -0.6823
 9676SOL    HW233391  10.245   5.102   2.538 -1.0150  2.2472 -1.3623
 9677SOL     OW33392   9.372   4.087   9.600 -0.0937 -0.0929  0.2528
 9677SOL    HW133393   9.283   4.069   9.629 -0.8576  0.7168 -1.4277
 9677SOL    HW233394   9.366   4.090   9.504  1.3798  1.6983  0.1504
 9678SOL     OW33395   7.048   9.844   2.391  0.1922  0.0723  0.2329
 9678SOL    HW133396   7.044   9.929   2.348 -0.5421 -0.0435  0.0584
 9678SOL    HW233397   7.058   9.864   2.484 -2.2045  0.4287  0.4780
 9679SOL     OW33398   7.964   8.013   5.381 -0.3866  0.6055 -0.6139
 9679SOL    HW133399   7.914   8.012   5.462 -0.6661 -0.0432 -0.7951
 9679SOL    HW233400   7.923   7.947   5.325  2.4866 -2.2555  0.3621
 9680SOL     OW33401   3.366   7.118   0.975 -0.3176  0.0525  0.2312
 9680SOL    HW133402   3.437   7.055   0.984 -0.9919 -0.8009 -0.3085
 9680SOL    HW233403   3.286   7.067   0.993 -0.7901  1.0280  1.0025
 9681SOL     OW33404   2.844   7.995   3.998 -0.4382 -0.2086 -0.1066
 9681SOL    HW133405   2.763   8.045   4.007 -0.1330  0.9058 -2.7585
 9681SOL    HW233406   2.843   7.934   4.072 -1.8651  2.2381  2.0483
 9682SOL     OW33407   6.149   9.973   7.878 -0.1861  0.0107 -0.2494
 9682SOL    HW133408   6.189   9.951   7.794 -0.1638 -0.9017 -0.0129
 9682SOL    HW233409   6.224   9.988   7.936 -0.1967  1.3624 -0.5555
 9683SOL     OW33410   0.764   0.051   6.479  0.5270  0.1615 -0.1412
 9683SOL    HW133411   0.693   0.088   6.530  0.5204 -1.2369  0.9334
 9683SOL    HW233412   0.758   0.094   6.394 -0.6412  1.1716  0.4234
 9684SOL     OW33413  10.185  10.889   5.461  0.2786 -0.1561  0.1987
 9684SOL    HW133414  10.192  10.831   5.385 -1.4379  1.8776 -1.6316
 9684SOL    HW233415  10.264  10.943   5.457  0.1589 -0.0067 -0.1945
 9685SOL     OW33416   6.562   2.138   0.871 -0.4083  0.2159  0.2444
 9685SOL    HW133417   6.649   2.099   0.860 -1.0667 -1.2976  0.0445
 9685SOL    HW233418   6.579   2.226   0.905  1.1516 -0.7180  2.1244
 9686SOL     OW33419   7.645   3.218   7.977  0.5932  0.3427 -0.7047
 9686SOL    HW133420   7.729   3.223   7.931  0.1226  0.6149 -1.5602
 9686SOL    HW233421   7.663   3.255   8.063  0.8974  2.3373 -1.5595
 9687SOL     OW33422   3.301   8.149   8.303  0.2663 -0.1915  0.2032
 9687SOL    HW133423   3.318   8.058   8.329  2.5723  0.5123  1.4047
 9687SOL    HW233424   3.363   8.166   8.233  1.5166  1.1246  1.5676
 9688SOL     OW33425   8.303   0.199   7.214  0.3078 -0.2227  0.1113
 9688SOL    HW133426   8.329   0.291   7.215  1.3426 -0.5039  0.0770
 9688SOL    HW233427   8.380   0.152   7.246 -0.2720 -1.0646  0.2998
 9689SOL     OW33428   1.888   8.578   4.092  0.6971  0.6037  0.4169
 9689SOL    HW133429   1.889   8.672   4.111  0.7767  0.7878 -0.4404
 9689SOL    HW233430   1.942   8.569   4.013 -0.8738  0.1119 -0.6578
 9690SOL     OW33431   1.865   1.949   1.223  0.3697 -0.1624 -0.0097
 9690SOL    HW133432   1.792   1.887   1.229  0.0831  0.0608 -0.9695
 9690SOL    HW233433   1.928   1.906   1.165  0.2169  0.3864 -0.5940
 9691SOL     OW33434   7.339   5.286   9.867  0.8766 -0.4454  0.6195
 9691SOL    HW133435   7.258   5.312   9.823  0.8805 -1.0086  0.2727
 9691SOL    HW233436   7.392   5.365   9.867 -0.4983  0.5842  2.8261
 9692SOL     OW33437   5.609   3.231   8.723 -0.2428 -0.0511 -0.4671
 9692SOL    HW133438   5.514   3.244   8.727 -0.7700 -2.8120 -1.7933
 9692SOL    HW233439   5.639   3.247   8.813 -1.9633  0.7626  0.0126
 9693SOL     OW33440  10.154   3.736   0.911 -0.9879  0.0505 -0.3203
 9693SOL    HW133441  10.159   3.736   1.006  0.7127  3.6605 -0.2364
 9693SOL    HW233442  10.225   3.679   0.882  1.8169  2.7703  0.7348
 9694SOL     OW33443   1.433   6.010   5.206 -0.0592  0.3100  0.3515
 9694SOL    HW133444   1.478   6.094   5.206  0.5187  0.0312  1.7608
 9694SOL    HW233445   1.387   6.007   5.290  0.6205 -1.1156  0.7115
 9695SOL     OW33446   3.214   4.412   3.489  0.2494  0.2582 -0.1882
 9695SOL    HW133447   3.229   4.331   3.539 -1.2754 -1.4637 -2.2861
 9695SOL    HW233448   3.302   4.444   3.469  0.8954  0.1999  2.2378
 9696SOL     OW33449   4.602   1.605   7.109 -0.1032  0.0416 -0.1416
 9696SOL    HW133450   4.680   1.620   7.163 -0.9862  0.4964  1.0647
 9696SOL    HW233451   4.609   1.514   7.081  0.0564 -0.4500  1.3650
 9697SOL     OW33452   5.735   5.915   9.040  0.3293  0.0094  0.1054
 9697SOL    HW133453   5.722   6.007   9.060  0.4625  0.0227  0.1318
 9697SOL    HW233454   5.748   5.912   8.946  0.2888  0.0137  0.0991
 9698SOL     OW33455   3.070   7.133   9.036  0.2215 -0.1275 -0.1277
 9698SOL    HW133456   3.113   7.176   8.962  0.4123  3.5095  1.8552
 9698SOL    HW233457   3.127   7.152   9.111 -2.9064  1.8430  1.9839
 9699SOL     OW33458   1.240   9.374   6.522 -0.7214 -0.5020 -0.6785
 9699SOL    HW133459   1.199   9.326   6.594 -1.3692  0.8251 -0.1302
 9699SOL    HW233460   1.230   9.466   6.546  0.5703 -0.0837 -1.6552
 9700SOL     OW33461   3.799   8.318   2.614  0.4739  0.3461 -0.2627
 9700SOL    HW133462   3.788   8.297   2.521 -1.0088  0.8942 -0.2395
 9700SOL    HW233463   3.726   8.274   2.657 -1.8002  3.9522 -0.0280
 9701SOL     OW33464   8.488   5.831   2.766  0.2180  0.2861 -0.0006
 9701SOL    HW133465   8.583   5.827   2.750  0.4773  0.7535  1.3417
 9701SOL    HW233466   8.478   5.811   2.859 -1.1940 -1.7824 -0.5290
 9702SOL     OW33467   4.840   4.689   6.613 -0.3045 -0.1764 -0.5799
 9702SOL    HW133468   4.774   4.758   6.619 -0.2364 -0.2187  1.6882
 9702SOL    HW233469   4.789   4.609   6.599 -0.5088  0.0901 -1.4508
 9703SOL     OW33470   3.018   6.466   4.758 -0.0609 -0.6838  0.0360
 9703SOL    HW133471   3.011   6.434   4.668  1.9942  0.0729 -0.4532
 9703SOL    HW233472   2.959   6.542   4.762  0.2229 -0.4106 -0.8396
 9704SOL     OW33473   8.481   9.785   1.675 -0.1289  0.0991 -0.6349
 9704SOL    HW133474   8.570   9.810   1.651 -0.1757  1.4714  0.5019
 9704SOL    HW233475   8.444   9.863   1.715 -0.2434 -1.7621  3.3014
 9705SOL     OW33476   0.275   4.347   9.066 -0.0006 -0.4241  0.5346
 9705SOL    HW133477   0.254   4.322   8.976 -0.5934  1.1256  0.2112
 9705SOL    HW233478   0.370   4.356   9.067 -0.1015  1.1056 -0.3970
 9706SOL     OW33479   4.864   1.481   7.831 -0.1260  0.2730 -0.7095
 9706SOL    HW133480   4.848   1.398   7.877  1.5809  0.0878 -0.3753
 9706SOL    HW233481   4.937   1.462   7.772  0.1354  1.4797 -0.7956
 9707SOL     OW33482   3.134   8.593   5.932  0.2062  0.7827 -0.2433
 9707SOL    HW133483   3.167   8.614   5.845 -0.9199 -0.8405 -1.1222
 9707SOL    HW233484   3.085   8.671   5.960 -0.7231  0.7713 -1.7560
 9708SOL     OW33485  10.486   0.666   6.781 -0.1655 -0.6089 -0.0387
 9708SOL    HW133486  10.394   0.669   6.758  0.0599 -1.2759 -1.0873
 9708SOL    HW233487  10.520   0.752   6.754 -0.2960 -0.6892 -0.4621
 9709SOL     OW33488   8.464  10.064   4.633 -0.8046  0.1469 -0.1632
 9709SOL    HW133489   8.493   9.990   4.687 -1.3988 -0.3609 -0.5121
 9709SOL    HW233490   8.545  10.104   4.601 -0.4779 -0.5839 -0.2684
 9710SOL     OW33491   0.037  10.315   6.103  0.0671 -0.3120  0.3563
 9710SOL    HW133492   0.029  10.336   6.196  0.2653 -2.1424  0.8255
 9710SOL    HW233493   0.131  10.317   6.086 -0.0396  1.7483 -0.2847
 9711SOL     OW33494   2.425   5.131   4.267 -0.1227  0.6249  0.4557
 9711SOL    HW133495   2.480   5.075   4.212  0.4707  1.8513 -0.2339
 9711SOL    HW233496   2.336   5.115   4.237  0.1136  0.6093 -0.2644
 9712SOL     OW33497   9.579   0.352   9.813 -0.5847 -0.4309 -0.3546
 9712SOL    HW133498   9.633   0.413   9.763  1.9837 -2.0625  0.2088
 9712SOL    HW233499   9.642   0.290   9.851 -2.3889 -0.0589  3.8999
 9713SOL     OW33500   3.198  11.001   7.295  0.2492 -0.1892 -0.1236
 9713SOL    HW133501   3.231  11.087   7.322 -2.3452  0.0398  2.7500
 9713SOL    HW233502   3.130  11.020   7.231  0.0923 -0.1694  0.0514
 9714SOL     OW33503   7.450  10.343   0.685  0.5182  0.3752 -0.3620
 9714SOL    HW133504   7.474  10.253   0.709  0.4655  0.5875  0.5446
 9714SOL    HW233505   7.524  10.396   0.714  1.6248  0.4155 -3.0121
 9715SOL     OW33506   2.874  10.465   8.702  0.2319 -0.0902 -0.2178
 9715SOL    HW133507   2.934  10.539   8.703 -2.2003  2.0393 -0.3436
 9715SOL    HW233508   2.887  10.424   8.616  0.2077  1.5178 -1.0238
 9716SOL     OW33509  10.749   6.354   9.933  0.2625  0.1446 -0.1791
 9716SOL    HW133510  10.656   6.351   9.912  0.7864 -1.2390 -2.8272
 9716SOL    HW233511  10.792   6.365   9.848  2.5532 -1.0594  0.7245
 9717SOL     OW33512   4.620   9.854   4.064  0.1445 -0.1566  0.3572
 9717SOL    HW133513   4.653   9.895   4.144  0.9337 -0.0147 -0.0315
 9717SOL    HW233514   4.675   9.776   4.054 -0.3302 -0.4802  0.2576
 9718SOL     OW33515   2.364   5.143   7.439  0.3130 -0.0254 -0.0569
 9718SOL    HW133516   2.426   5.092   7.388  1.5540  1.0176  0.3580
 9718SOL    HW233517   2.296   5.168   7.377  0.7193 -0.4924 -0.7022
 9719SOL     OW33518   1.535   0.942   3.470  0.5172  0.3548  0.6726
 9719SOL    HW133519   1.615   0.993   3.479  0.4917  1.1417 -2.5454
 9719SOL    HW233520   1.467   1.006   3.451 -0.7906 -0.3844  2.5230
 9720SOL     OW33521   9.622   3.754   2.812 -0.0844  0.0653 -0.2839
 9720SOL    HW133522   9.579   3.820   2.867  0.3556 -1.3621  1.8789
 9720SOL    HW233523   9.551   3.714   2.763 -0.3356  2.2492 -1.8300
 9721SOL     OW33524  10.062   1.214   0.796  0.0457  0.2356 -0.4139
 9721SOL    HW133525   9.997   1.172   0.741 -0.3546  0.5524 -0.1926
 9721SOL    HW233526  10.011   1.275   0.850  0.2616 -0.9020  1.1442
 9722SOL     OW33527   3.969   6.733   8.039  0.0971 -0.0781 -0.3695
 9722SOL    HW133528   3.920   6.697   7.965  0.3551  0.5313 -0.8498
 9722SOL    HW233529   4.011   6.658   8.079 -3.0240 -1.0020  1.4591
 9723SOL     OW33530   6.273  10.816   1.459  0.0088  0.4975 -0.1390
 9723SOL    HW133531   6.351  10.866   1.481 -0.4093  0.8450  0.5822
 9723SOL    HW233532   6.297  10.766   1.381  0.2480  2.2620 -1.2359
 9724SOL     OW33533   5.644   4.832   6.329 -0.0107  0.4092  0.0013
 9724SOL    HW133534   5.584   4.897   6.366 -0.6633 -1.3595  2.2856
 9724SOL    HW233535   5.599   4.801   6.250 -0.2177  1.8996 -0.4823
 9725SOL     OW33536   7.537  10.924   5.589 -0.1749 -1.2649 -0.1217
 9725SOL    HW133537   7.614  10.963   5.548 -0.7445  2.1410  1.6475
 9725SOL    HW233538   7.480  10.900   5.516  1.9166 -2.6283 -1.4075
 9726SOL     OW33539   9.224   8.895   6.036  0.3197 -0.3233 -0.1088
 9726SOL    HW133540   9.255   8.903   5.946 -0.0527  1.5216 -0.0968
 9726SOL    HW233541   9.185   8.980   6.056  0.7489 -0.5700  1.9325
 9727SOL     OW33542   8.624   1.957   1.554 -0.5288  0.5617  0.7263
 9727SOL    HW133543   8.572   2.037   1.547  2.0856  2.3557  0.5707
 9727SOL    HW233544   8.679   1.971   1.631  1.0068 -0.4358 -0.1495
 9728SOL     OW33545   3.566  10.776   4.554 -0.0331  0.1414  0.4416
 9728SOL    HW133546   3.539  10.699   4.504  0.9689 -0.7961  1.3012
 9728SOL    HW233547   3.571  10.746   4.644 -0.2439  1.3962  0.9033
 9729SOL     OW33548  11.049   3.962  10.138 -0.6592 -0.6707  0.5872
 9729SOL    HW133549  11.070   3.899  10.206 -1.6244 -0.3849  1.1761
 9729SOL    HW233550  11.120   3.955  10.075  0.0280 -1.2475  1.4097
 9730SOL     OW33551   0.241  10.116   5.476 -0.4362 -0.6715  0.4462
 9730SOL    HW133552   0.283  10.127   5.391 -0.6457 -0.9139  0.3132
 9730SOL    HW233553   0.165  10.174   5.474  0.6314  0.8327  1.1924
 9731SOL     OW33554   1.987   0.797   7.830  0.1884 -0.4223  0.5585
 9731SOL    HW133555   2.008   0.714   7.788  0.6674 -0.4064  0.7615
 9731SOL    HW233556   1.918   0.776   7.893 -0.3887 -0.4827 -0.0750
 9732SOL     OW33557   6.443  10.394   2.878  0.4772 -0.0891  0.3145
 9732SOL    HW133558   6.446  10.483   2.844 -0.3750  0.1250  0.7671
 9732SOL    HW233559   6.530  10.358   2.861  1.3462  1.3478  1.5085
 9733SOL     OW33560   3.195   5.815   5.199  0.4998  0.0601  0.8443
 9733SOL    HW133561   3.191   5.907   5.224 -0.0486  0.5788 -0.9707
 9733SOL    HW233562   3.288   5.797   5.185  0.4525  1.1880 -1.4624
 9734SOL     OW33563   6.729   5.382   9.347 -0.1755  0.6562 -0.0049
 9734SOL    HW133564   6.796   5.364   9.414  1.1209 -1.8176 -1.8038
 9734SOL    HW233565   6.647   5.357   9.388  0.5304 -0.3365  0.8435
 9735SOL     OW33566  10.274  10.211   0.733  0.0572  0.0481  0.2011
 9735SOL    HW133567  10.323  10.131   0.714  0.8477  0.5285  0.1779
 9735SOL    HW233568  10.298  10.234   0.822 -0.4549  0.0651  0.3391
 9736SOL     OW33569   9.606   1.432   0.737  0.2318 -0.1464  0.4934
 9736SOL    HW133570   9.614   1.338   0.718 -1.3324 -0.1756 -0.1582
 9736SOL    HW233571   9.667   1.474   0.676  1.2893 -0.7530  1.1123
 9737SOL     OW33572   5.258   6.723   3.829  0.4521  0.3091 -0.1318
 9737SOL    HW133573   5.299   6.810   3.824  1.4676 -0.1557 -0.2891
 9737SOL    HW233574   5.206   6.716   3.749  1.9629  0.0168 -1.1280
 9738SOL     OW33575   5.736   1.720   5.585 -0.4105 -0.1082 -0.5551
 9738SOL    HW133576   5.661   1.674   5.547  0.3312 -0.8033 -1.2298
 9738SOL    HW233577   5.812   1.685   5.537  0.5156 -0.6568  1.2379
 9739SOL     OW33578   7.100  10.448   0.168  0.3162  0.1097  0.3948
 9739SOL    HW133579   7.109  10.494   0.084  0.6647  0.8641  0.8414
 9739SOL    HW233580   7.010  10.416   0.168  0.2959  0.1440 -0.2447
 9740SOL     OW33581  10.709   3.288   3.433  0.0836 -0.5931 -0.0022
 9740SOL    HW133582  10.675   3.255   3.350 -0.4074 -0.6925  0.2322
 9740SOL    HW233583  10.715   3.382   3.421 -2.1823 -0.3118  0.5933
 9741SOL     OW33584  10.616   7.562  10.107  0.1880  0.0306 -0.4388
 9741SOL    HW133585  10.531   7.542  10.068 -0.9058  3.3081 -0.0486
 9741SOL    HW233586  10.672   7.583  10.032  0.3592 -1.0874 -0.6346
 9742SOL     OW33587   1.711   8.856   9.585  0.4568 -0.2810 -0.3651
 9742SOL    HW133588   1.676   8.767   9.590  1.2428 -0.5754  0.0667
 9742SOL    HW233589   1.658   8.906   9.648  1.7119 -1.0509  1.3925
 9743SOL     OW33590   8.893   1.071   1.884 -0.1514 -0.3300  0.3349
 9743SOL    HW133591   8.823   1.061   1.948 -1.4986 -1.6928 -1.2401
 9743SOL    HW233592   8.949   0.994   1.897  0.2570  0.0047  0.6202
 9744SOL     OW33593   6.511  10.366   8.195  0.3139  0.3259 -0.3661
 9744SOL    HW133594   6.451  10.366   8.120  0.6588  1.8200 -0.6660
 9744SOL    HW233595   6.526  10.273   8.212 -0.8079 -0.0690 -1.3050
 9745SOL     OW33596  10.962   0.085   3.779 -0.0570 -0.7436  0.7547
 9745SOL    HW133597  11.000   0.172   3.770  0.7418 -1.0670  0.9030
 9745SOL    HW233598  10.930   0.082   3.869 -0.4306 -0.4770  0.6349
 9746SOL     OW33599   9.252   2.995   7.133  0.6264 -0.0125  0.0727
 9746SOL    HW133600   9.268   3.083   7.100 -0.5209 -0.0848 -0.7214
 9746SOL    HW233601   9.280   2.999   7.225 -1.3040  1.8039  0.6843
 9747SOL     OW33602   3.981   3.985   5.096 -0.2241  0.4369 -0.3602
 9747SOL    HW133603   3.892   3.952   5.083 -0.3023  0.6016 -0.2376
 9747SOL    HW233604   4.037   3.908   5.084 -0.4509  0.1209  0.5784
 9748SOL     OW33605   1.693   4.370   1.460 -0.3696 -0.2480 -0.0480
 9748SOL    HW133606   1.625   4.401   1.399  0.6512 -0.8893 -1.5761
 9748SOL    HW233607   1.769   4.424   1.439 -0.3860  0.5316  1.7211
 9749SOL     OW33608   0.281   5.406   8.367  0.3561 -0.1621 -0.5157
 9749SOL    HW133609   0.285   5.415   8.272  1.7320 -0.0386 -0.4563
 9749SOL    HW233610   0.300   5.494   8.400  0.0966 -0.2522 -0.1088
 9750SOL     OW33611   9.593   8.559   8.403 -0.3441 -0.4633  0.0921
 9750SOL    HW133612   9.649   8.636   8.406 -0.4301 -0.2616 -2.0762
 9750SOL    HW233613   9.599   8.522   8.491  0.4593  1.4547  0.9019
 9751SOL     OW33614   3.053   5.603   5.547 -0.7819 -0.1087 -0.5374
 9751SOL    HW133615   3.133   5.553   5.534 -1.1217 -0.4997 -1.2079
 9751SOL    HW233616   3.081   5.693   5.559 -0.2305 -0.2842 -0.5167
 9752SOL     OW33617   4.252   8.648   1.303 -0.0658 -0.5414  0.0198
 9752SOL    HW133618   4.199   8.598   1.242 -0.3400 -0.9495  0.5853
 9752SOL    HW233619   4.340   8.610   1.295  0.0733 -0.0957 -0.6609
 9753SOL     OW33620   1.394   5.316   8.002  0.1766 -0.2095  0.1538
 9753SOL    HW133621   1.321   5.331   8.063 -0.9686  0.7695 -1.3792
 9753SOL    HW233622   1.354   5.270   7.929  1.6166 -1.7264  0.2689
 9754SOL     OW33623   6.547   3.742   7.173  0.1612 -0.4718  0.5469
 9754SOL    HW133624   6.586   3.681   7.111 -1.3241 -1.0834  0.1913
 9754SOL    HW233625   6.485   3.689   7.223 -1.6178  0.8569 -0.1841
 9755SOL     OW33626   9.055   4.919   6.155 -0.1959 -0.2679 -0.3457
 9755SOL    HW133627   9.063   4.974   6.233 -1.1614 -1.7941  0.8809
 9755SOL    HW233628   9.114   4.960   6.091  2.8602 -0.4997  2.0680
 9756SOL     OW33629   9.270   1.653   5.744 -0.0813  0.3752 -0.8280
 9756SOL    HW133630   9.308   1.725   5.795  0.9468 -0.5511 -0.2451
 9756SOL    HW233631   9.327   1.578   5.762 -2.9443 -1.5262  1.2446
 9757SOL     OW33632   6.907   3.869   9.503  0.2365 -0.0129  0.3500
 9757SOL    HW133633   6.877   3.952   9.540 -1.5580  1.2664 -3.4519
 9757SOL    HW233634   6.998   3.886   9.477  0.1984  0.4269  0.4873
 9758SOL     OW33635  10.339   9.780   6.913 -0.0972 -0.3990 -0.0111
 9758SOL    HW133636  10.316   9.694   6.878 -1.1086 -0.3347  0.4646
 9758SOL    HW233637  10.271   9.798   6.978 -0.2019  1.0128 -0.4935
 9759SOL     OW33638   2.687   9.552   6.405  0.2133  0.3221 -0.0475
 9759SOL    HW133639   2.684   9.621   6.340 -2.2823  0.4210  0.0531
 9759SOL    HW233640   2.731   9.591   6.481  1.0847  0.9429 -0.8584
 9760SOL     OW33641   3.325  11.058   5.227 -0.1937  0.2890  0.1434
 9760SOL    HW133642   3.386  11.110   5.176 -0.3639 -0.4516 -0.8468
 9760SOL    HW233643   3.247  11.052   5.172  0.3285 -2.1856 -0.4614
 9761SOL     OW33644   8.297   7.506  10.557  0.1833  0.5126  0.5659
 9761SOL    HW133645   8.212   7.541  10.581  0.6590  0.6375  2.1447
 9761SOL    HW233646   8.332   7.467  10.637  0.5240 -1.8709 -0.6551
 9762SOL     OW33647   8.251   9.011   2.158  0.6610 -0.3564  0.2025
 9762SOL    HW133648   8.337   8.975   2.181  0.1874 -1.3421  0.4888
 9762SOL    HW233649   8.189   8.961   2.212 -0.3739 -1.6961 -2.0708
 9763SOL     OW33650  10.633   6.181   5.718  0.3760 -0.2020 -0.1882
 9763SOL    HW133651  10.625   6.184   5.623 -0.2636  1.9623 -0.1229
 9763SOL    HW233652  10.722   6.214   5.736  0.9388 -1.7225 -0.0453
 9764SOL     OW33653   2.013   2.979   9.533 -0.1997  0.2365 -0.3413
 9764SOL    HW133654   2.084   3.039   9.556 -0.6413  0.0441  1.7302
 9764SOL    HW233655   2.057   2.900   9.502  0.4555  0.4812 -0.0462
 9765SOL     OW33656  10.075   6.466   6.671 -0.2093 -0.3251 -0.0051
 9765SOL    HW133657  10.141   6.456   6.603 -0.3391  2.3605 -0.6464
 9765SOL    HW233658  10.118   6.519   6.739 -0.2776 -2.4328  1.7988
 9766SOL     OW33659   1.287   5.820   0.999  0.3664  0.0390  0.3115
 9766SOL    HW133660   1.219   5.848   1.061 -0.9628  0.5485 -1.3136
 9766SOL    HW233661   1.254   5.846   0.913  2.1838 -0.5953 -0.6394
 9767SOL     OW33662   6.144   4.179   3.238  1.0874  0.3335  0.9529
 9767SOL    HW133663   6.106   4.199   3.324 -0.5641 -0.6435  0.4933
 9767SOL    HW233664   6.198   4.256   3.218  0.9996  0.8674  2.5639
 9768SOL     OW33665   2.503   5.082   3.186  0.3330  0.2797 -0.2663
 9768SOL    HW133666   2.434   5.015   3.189 -1.8837  2.4119 -0.7406
 9768SOL    HW233667   2.504   5.111   3.095  1.1812  1.0083 -0.0392
 9769SOL     OW33668   7.846  10.902   7.128  0.2231  0.0050 -0.1955
 9769SOL    HW133669   7.764  10.945   7.103  0.4183 -0.3670 -1.5438
 9769SOL    HW233670   7.824  10.809   7.132  0.6029 -0.1042 -0.6540
 9770SOL     OW33671   0.883   0.603   6.405 -0.3893 -0.1236  0.4380
 9770SOL    HW133672   0.878   0.690   6.447 -0.2642 -0.0595  0.3215
 9770SOL    HW233673   0.842   0.544   6.468 -1.0142  0.1121  0.2599
 9771SOL     OW33674   1.524   9.106   7.803  0.4385  0.2134  0.0915
 9771SOL    HW133675   1.434   9.134   7.818  0.6253  1.3860 -0.7284
 9771SOL    HW233676   1.560   9.089   7.890  0.0972  2.0212  0.6361
 9772SOL     OW33677  11.078   0.083   9.067  0.0080  0.1531  0.2895
 9772SOL    HW133678  10.993   0.043   9.050  0.7389 -1.2689 -0.1961
 9772SOL    HW233679  11.106   0.045   9.150 -0.0102  0.9363  0.6582
 9773SOL     OW33680   6.647   8.467  10.687 -0.2544 -0.4741 -0.2970
 9773SOL    HW133681   6.604   8.547  10.658  1.9152  1.3640  1.1344
 9773SOL    HW233682   6.612   8.451  10.775 -0.0968 -0.6423 -0.2639
 9774SOL     OW33683   4.912   7.779   6.656 -0.3995  0.2518  0.3667
 9774SOL    HW133684   4.911   7.837   6.733 -0.7779 -1.5646  1.8123
 9774SOL    HW233685   4.822   7.746   6.650 -0.3511  0.3213 -0.8369
 9775SOL     OW33686   5.332   9.062   6.782  0.4105  0.0687 -0.0672
 9775SOL    HW133687   5.425   9.070   6.761 -0.0966  2.2287 -1.8206
 9775SOL    HW233688   5.307   8.975   6.750  1.6675 -0.3035 -0.0891
 9776SOL     OW33689   0.995  10.157  11.014  0.1699  0.2829 -0.3832
 9776SOL    HW133690   0.957  10.149  11.101  0.9995  0.3079 -0.0081
 9776SOL    HW233691   0.997  10.067  10.980 -1.5623  0.4439 -1.0146
 9777SOL     OW33692   6.950   8.068   2.412  0.0366  0.0183  0.2032
 9777SOL    HW133693   6.950   8.128   2.337  0.2237  0.8260  0.8364
 9777SOL    HW233694   7.024   8.009   2.395 -0.2171 -0.1153 -0.4777
 9778SOL     OW33695   4.058   3.442   0.336  0.2837 -0.3250 -0.0036
 9778SOL    HW133696   3.994   3.456   0.406 -1.2368  1.1541 -1.5822
 9778SOL    HW233697   4.137   3.413   0.381 -0.5871  0.6827  2.3195
 9779SOL     OW33698   4.379   1.890   8.203 -0.5504  0.5122 -0.3660
 9779SOL    HW133699   4.448   1.947   8.237  1.5768  0.0377 -3.4272
 9779SOL    HW233700   4.419   1.803   8.201 -1.3278  0.1497 -1.8581
 9780SOL     OW33701   8.127   7.231   2.080 -0.3958 -0.5723  0.0978
 9780SOL    HW133702   8.111   7.296   2.012 -0.5755 -0.8238 -0.1005
 9780SOL    HW233703   8.192   7.272   2.137  0.0703 -0.5238 -0.4533
 9781SOL     OW33704   6.595   4.066   0.310  0.2710 -0.2998  0.4969
 9781SOL    HW133705   6.591   3.980   0.269 -1.7394 -0.0183 -0.0226
 9781SOL    HW233706   6.655   4.117   0.256 -0.1190 -0.7811 -0.4008
 9782SOL     OW33707   3.308  10.479  10.972 -0.3455 -0.0607  0.2948
 9782SOL    HW133708   3.359  10.439  11.043 -1.0377  0.0546  0.8685
 9782SOL    HW233709   3.340  10.436  10.893 -0.2348 -0.8833  0.7736
 9783SOL     OW33710   3.956   2.881   9.960 -0.0681  0.1193 -0.1414
 9783SOL    HW133711   3.910   2.888  10.044  2.4434  0.3305  1.3098
 9783SOL    HW233712   3.924   2.799   9.922 -0.6887 -0.3807  1.3919
 9784SOL     OW33713   5.104   4.680   1.748 -0.2312 -0.6049  0.5787
 9784SOL    HW133714   5.130   4.754   1.694  1.9280 -1.5546  0.2257
 9784SOL    HW233715   5.010   4.694   1.765 -0.2614  1.2779 -0.8781
 9785SOL     OW33716   2.935   7.507   3.217  0.8454  0.4825  0.0629
 9785SOL    HW133717   2.932   7.602   3.208  2.5551  0.6716  1.0113
 9785SOL    HW233718   2.911   7.491   3.309  0.8667  0.0225 -0.0091
 9786SOL     OW33719   7.198   0.904   3.783  0.2038 -0.3700 -0.2538
 9786SOL    HW133720   7.121   0.904   3.726 -0.1281 -0.2025  0.1825
 9786SOL    HW233721   7.259   0.844   3.742 -0.0482 -0.2878 -0.7591
 9787SOL     OW33722   5.373   1.235   5.864  0.2254  0.0440  0.2313
 9787SOL    HW133723   5.399   1.253   5.773 -0.7652 -0.3156 -0.1380
 9787SOL    HW233724   5.439   1.173   5.895  0.2487 -0.2779 -0.4349
 9788SOL     OW33725   8.512   5.134   9.258  0.5356  0.4228  0.2502
 9788SOL    HW133726   8.593   5.084   9.269  0.0635 -0.3573  0.2318
 9788SOL    HW233727   8.459   5.080   9.199  0.7561  1.8369 -1.3240
 9789SOL     OW33728   2.574   7.239   8.860  0.3823  0.0362 -0.7270
 9789SOL    HW133729   2.483   7.255   8.883 -0.1258 -0.7832 -2.0573
 9789SOL    HW233730   2.618   7.323   8.874 -0.8825  0.8557 -1.4621
 9790SOL     OW33731   8.606   6.797   9.991 -0.1594  0.5351  0.2914
 9790SOL    HW133732   8.519   6.763   9.972  0.1956 -1.2263  1.5545
 9790SOL    HW233733   8.592   6.866  10.057 -0.6308  0.6425  0.0771
 9791SOL     OW33734   3.318  10.117   9.468  0.2377  0.1932  0.0416
 9791SOL    HW133735   3.345  10.121   9.559  0.7113  0.9843 -0.1234
 9791SOL    HW233736   3.283  10.204   9.449 -1.0434 -0.3467 -0.1785
 9792SOL     OW33737   5.302   6.859   7.168  0.4427 -0.1839  0.0811
 9792SOL    HW133738   5.327   6.811   7.089 -2.2630 -2.9414  0.6946
 9792SOL    HW233739   5.239   6.924   7.137  1.3278  0.4841 -0.3285
 9793SOL     OW33740   3.832   6.759  10.596 -0.2063 -0.1803  0.4658
 9793SOL    HW133741   3.833   6.833  10.657 -2.5284  1.0480 -0.8398
 9793SOL    HW233742   3.750   6.713  10.616 -0.6568 -0.1533 -1.2370
 9794SOL     OW33743   8.114   9.287   4.507 -0.3171 -0.0492  0.2099
 9794SOL    HW133744   8.078   9.199   4.496 -1.1727  0.2153  0.8596
 9794SOL    HW233745   8.111   9.303   4.601 -1.0391  1.0393  0.0165
 9795SOL     OW33746   0.727   5.047   5.238 -0.0479  0.1183 -0.4547
 9795SOL    HW133747   0.640   5.046   5.277  0.7744  0.9293  1.5210
 9795SOL    HW233748   0.728   5.124   5.181 -1.0701 -0.7574 -1.7329
 9796SOL     OW33749  10.613   4.252   7.840  0.0019  0.7428  0.3497
 9796SOL    HW133750  10.626   4.158   7.853  0.3071  0.5937 -0.8918
 9796SOL    HW233751  10.518   4.262   7.836 -0.0449  0.5509  0.8858
 9797SOL     OW33752   1.911  11.091   5.376  0.2692 -0.0664 -0.3899
 9797SOL    HW133753   1.958  11.057   5.300  0.9716 -1.1895  0.5029
 9797SOL    HW233754   1.940  11.182   5.384 -0.0679  0.1659 -1.6372
 9798SOL     OW33755   9.955   2.887  10.723 -0.4312 -0.3633  0.3751
 9798SOL    HW133756   9.870   2.930  10.714  0.3280  1.1003 -0.1928
 9798SOL    HW233757   9.942   2.821  10.791 -1.5748  1.0466  1.5944
 9799SOL     OW33758   6.843   6.821   2.873 -0.0148 -0.2989 -0.2878
 9799SOL    HW133759   6.895   6.745   2.901  0.9792  0.0968 -1.0085
 9799SOL    HW233760   6.860   6.828   2.779 -0.6037  0.4325 -0.3430
 9800SOL     OW33761   0.331   2.350   3.247 -0.0692 -0.2604  0.3042
 9800SOL    HW133762   0.273   2.288   3.202 -0.6294  0.9094 -0.6450
 9800SOL    HW233763   0.355   2.305   3.328  2.1811 -3.1319 -1.7361
 9801SOL     OW33764   9.100   7.603   2.131 -0.0806  0.2623 -0.3489
 9801SOL    HW133765   9.061   7.690   2.116  0.4262  0.6010  0.2641
 9801SOL    HW233766   9.060   7.573   2.213 -0.5326 -0.2510 -0.7491
 9802SOL     OW33767  10.117   4.088   7.811  0.1521  0.0632  0.6562
 9802SOL    HW133768  10.185   4.021   7.802  0.9621  1.0406 -0.8478
 9802SOL    HW233769  10.042   4.041   7.848  0.7424 -1.6673 -0.2182
 9803SOL     OW33770   4.304   1.181   2.041  0.0977 -0.4516 -0.2226
 9803SOL    HW133771   4.333   1.257   2.092  0.7439 -0.3959 -0.6587
 9803SOL    HW233772   4.210   1.175   2.058  0.1750 -0.0082  0.4065
 9804SOL     OW33773  10.608   9.567   1.425  0.3702 -0.7746  0.0742
 9804SOL    HW133774  10.654   9.559   1.509  0.9831 -1.2153 -0.2951
 9804SOL    HW233775  10.552   9.644   1.435  1.3969 -0.0585  0.4493
 9805SOL     OW33776   1.954   4.012   5.615 -0.0545  0.4505  0.3612
 9805SOL    HW133777   1.922   4.099   5.590  0.5239  0.3147 -0.9519
 9805SOL    HW233778   1.900   3.952   5.565  0.3536  0.1071  0.3294
 9806SOL     OW33779  10.576  10.250   3.107  0.2935  0.1724 -0.4117
 9806SOL    HW133780  10.528  10.330   3.089 -1.9815 -1.2230 -0.8974
 9806SOL    HW233781  10.589  10.251   3.202  1.2963  1.6005 -0.5298
 9807SOL     OW33782   5.197   6.554   9.442 -0.3399 -0.0545 -0.1385
 9807SOL    HW133783   5.242   6.539   9.525 -1.5214  3.4134  1.3227
 9807SOL    HW233784   5.108   6.579   9.467 -1.4841 -1.3154 -2.6239
 9808SOL     OW33785   3.559   9.592   0.813  0.0507  0.1727 -0.2780
 9808SOL    HW133786   3.533   9.503   0.837  0.7251 -0.4634 -1.7871
 9808SOL    HW233787   3.479   9.644   0.821 -0.4458 -0.6477  0.2082
 9809SOL     OW33788   7.943   5.154   1.506  0.2542  0.4147  0.0864
 9809SOL    HW133789   7.978   5.065   1.507 -0.4038  0.1463  1.2146
 9809SOL    HW233790   7.944   5.179   1.414  2.7976  0.2126 -0.0204
 9810SOL     OW33791   4.670   0.214   5.445 -0.0465 -0.4553 -0.5491
 9810SOL    HW133792   4.592   0.253   5.484  1.3370  0.5862  1.3741
 9810SOL    HW233793   4.655   0.219   5.351 -1.4074  1.6985 -0.2902
 9811SOL     OW33794   1.993   0.197   2.032  0.0515  0.0666 -0.1929
 9811SOL    HW133795   1.991   0.291   2.015 -1.2375 -0.0816 -1.0591
 9811SOL    HW233796   1.962   0.187   2.122  0.1395  0.4663 -0.1183
 9812SOL     OW33797   3.464  10.951   9.196  0.6725  0.0466  0.1729
 9812SOL    HW133798   3.386  10.901   9.218  0.9597 -0.1718  0.7098
 9812SOL    HW233799   3.459  11.029   9.251  1.3778 -0.4853  1.0156
 9813SOL     OW33800   6.027   3.299   0.590  0.4524 -0.5226 -0.5508
 9813SOL    HW133801   6.068   3.362   0.648 -0.4571  0.0294 -0.4841
 9813SOL    HW233802   6.021   3.219   0.642 -0.0129 -0.1411  0.0108
 9814SOL     OW33803  10.954   8.140   8.702  0.0506  0.0401 -0.0191
 9814SOL    HW133804  10.928   8.214   8.648 -1.6440 -2.1208 -2.4235
 9814SOL    HW233805  11.046   8.125   8.679  0.5315  1.5847  0.8023
 9815SOL     OW33806  10.453   5.503  10.991  0.0256 -0.0353 -0.0942
 9815SOL    HW133807  10.537   5.484  10.949 -0.6383 -0.4679 -1.2499
 9815SOL    HW233808  10.409   5.418  10.997 -0.1039  0.0985  1.0307
 9816SOL     OW33809   2.875   4.659   6.482  0.0948  0.4234 -0.0262
 9816SOL    HW133810   2.818   4.708   6.423 -0.1611  0.8224  0.5431
 9816SOL    HW233811   2.956   4.646   6.431  0.0114  1.0735 -0.3364
 9817SOL     OW33812  10.495   0.744   3.940  0.0903 -0.0817  0.1421
 9817SOL    HW133813  10.405   0.764   3.968 -0.1992 -0.9279 -0.1753
 9817SOL    HW233814  10.499   0.774   3.849 -0.4287 -1.6268 -0.4258
 9818SOL     OW33815   2.480   7.418   9.762  0.2976  0.7493  0.2016
 9818SOL    HW133816   2.558   7.402   9.708  1.6940  0.7159  2.1447
 9818SOL    HW233817   2.425   7.341   9.748  1.3250  0.0376  0.0147
 9819SOL     OW33818   9.059   6.299   5.148 -0.0409  0.0933  0.0402
 9819SOL    HW133819   9.107   6.323   5.069 -0.4994  0.8928 -0.0158
 9819SOL    HW233820   8.971   6.279   5.116  0.0304 -0.5438  0.2377
 9820SOL     OW33821   0.271   0.666   7.520  0.1988  0.0001 -1.1848
 9820SOL    HW133822   0.238   0.613   7.593  2.0305  0.9149  0.3645
 9820SOL    HW233823   0.197   0.669   7.458 -1.9435  0.3314  1.2132
 9821SOL     OW33824  10.135   3.478   1.458  0.1071  0.1777  0.8308
 9821SOL    HW133825  10.055   3.430   1.438  0.1255  0.3955  0.2298
 9821SOL    HW233826  10.106   3.568   1.471  0.1831  0.1563  1.1619
 9822SOL     OW33827   0.345   6.937   6.842 -0.2329  0.3768 -0.0744
 9822SOL    HW133828   0.388   6.994   6.779 -0.6449  1.6961  0.7872
 9822SOL    HW233829   0.276   6.894   6.792  0.7645 -0.2004 -0.9885
 9823SOL     OW33830   4.032   5.346  10.584 -0.3533 -0.0277 -0.5300
 9823SOL    HW133831   4.018   5.436  10.613  0.9780  0.4792 -1.3776
 9823SOL    HW233832   4.121   5.326  10.613 -0.5360 -0.9891 -0.6002
 9824SOL     OW33833   1.734   2.307   2.803  0.4800 -0.2965 -0.1873
 9824SOL    HW133834   1.711   2.236   2.743  0.7894 -0.0239 -0.6361
 9824SOL    HW233835   1.650   2.334   2.842  0.3031 -0.6043 -0.3544
 9825SOL     OW33836   0.156   0.382   0.011  0.2778  0.5495 -0.2231
 9825SOL    HW133837   0.175   0.327   0.086 -0.0176 -1.2299 -1.3921
 9825SOL    HW233838   0.084   0.438   0.040  0.4710  0.2090  0.9485
 9826SOL     OW33839   6.567   4.620   6.267 -0.1357  0.3919  0.4069
 9826SOL    HW133840   6.605   4.532   6.268  0.4871  0.5548 -1.8366
 9826SOL    HW233841   6.632   4.673   6.220 -0.8578  1.8681  1.0201
 9827SOL     OW33842   3.412   3.124   7.093  0.1312  0.5548 -0.1477
 9827SOL    HW133843   3.379   3.214   7.090  1.7325  1.2307  0.8017
 9827SOL    HW233844   3.334   3.069   7.094 -0.8757  1.9034 -1.2671
 9828SOL     OW33845   8.879   8.712   4.661 -0.8541  0.2879  0.1287
 9828SOL    HW133846   8.816   8.646   4.631 -0.2050 -0.3056  0.0548
 9828SOL    HW233847   8.825   8.777   4.706 -1.5281 -0.1910  0.0342
 9829SOL     OW33848   4.597   9.959   0.649 -0.0089  0.1879 -0.3700
 9829SOL    HW133849   4.686   9.993   0.654  0.2628 -0.1283 -2.3727
 9829SOL    HW233850   4.592   9.896   0.721  1.9691 -1.0204 -1.2039
 9830SOL     OW33851   2.630   6.816   7.950 -0.5239 -0.0301 -0.1299
 9830SOL    HW133852   2.541   6.849   7.941  0.1426  1.8277 -0.2149
 9830SOL    HW233853   2.647   6.770   7.867 -0.6220  1.6265 -1.1057
 9831SOL     OW33854   1.954   6.162   7.068  0.3277  0.2114  0.3612
 9831SOL    HW133855   1.953   6.086   7.009  1.7202 -0.4276  1.0982
 9831SOL    HW233856   1.958   6.123   7.156  0.7027  1.1451  0.7687
 9832SOL     OW33857   3.741   3.887   4.979 -0.0241 -0.2722 -0.3540
 9832SOL    HW133858   3.693   3.907   4.898 -0.1568 -2.0575 -0.7543
 9832SOL    HW233859   3.673   3.881   5.046 -0.0527 -0.0279 -0.3604
 9833SOL     OW33860  10.373   9.384   1.139  0.1818 -0.5773  0.4764
 9833SOL    HW133861  10.374   9.479   1.148 -2.2123 -0.4368 -0.1548
 9833SOL    HW233862  10.466   9.359   1.139  1.0376  2.0256 -2.0409
 9834SOL     OW33863   8.254   3.241   9.433 -0.2243  0.7496 -0.5405
 9834SOL    HW133864   8.336   3.267   9.390  0.4526 -1.4072 -0.7298
 9834SOL    HW233865   8.207   3.192   9.365  0.6148 -2.2536  0.8349
 9835SOL     OW33866   2.041  10.185  10.714 -0.7735  0.3150 -0.4364
 9835SOL    HW133867   2.112  10.250  10.709  0.0120 -0.3415  1.4686
 9835SOL    HW233868   2.072  10.112  10.661 -0.1465  0.1465  0.1558
 9836SOL     OW33869   9.811   4.542   8.464 -0.3329 -0.0221 -0.1783
 9836SOL    HW133870   9.843   4.461   8.503  0.6407  0.0641 -0.7584
 9836SOL    HW233871   9.792   4.519   8.373 -1.3355  0.0861 -0.0011
 9837SOL     OW33872   4.036   7.383   6.085  0.0378  0.1479  0.4035
 9837SOL    HW133873   4.052   7.323   6.012  0.5005  1.4635 -0.6147
 9837SOL    HW233874   4.045   7.328   6.163  0.1855 -1.1545 -0.4910
 9838SOL     OW33875   5.980   9.739   2.234  0.2965 -0.0578 -0.7594
 9838SOL    HW133876   6.010   9.694   2.155  0.3169 -0.2700 -0.6297
 9838SOL    HW233877   5.957   9.669   2.295 -1.0062  0.0867 -1.0496
 9839SOL     OW33878   7.158   2.797   9.167 -0.2643  0.2600 -0.2563
 9839SOL    HW133879   7.130   2.867   9.225 -1.5813 -1.5755  1.4365
 9839SOL    HW233880   7.251   2.814   9.152 -1.1253  4.2737 -2.8006
 9840SOL     OW33881   7.361   0.291   5.428  0.0002 -0.2338  0.4760
 9840SOL    HW133882   7.354   0.375   5.383 -0.4625  0.2218  1.3755
 9840SOL    HW233883   7.454   0.271   5.426  0.0653  0.0822 -0.1183
 9841SOL     OW33884   1.088   6.344   6.380 -0.4019  0.0498 -0.4859
 9841SOL    HW133885   1.182   6.361   6.375 -0.4038  0.3495  0.4379
 9841SOL    HW233886   1.081   6.249   6.389 -0.1669  0.0760 -0.0327
 9842SOL     OW33887   3.080   6.610   8.339  0.5125 -0.7787  0.3319
 9842SOL    HW133888   3.155   6.666   8.356  0.9960 -1.5043  0.6319
 9842SOL    HW233889   3.110   6.549   8.272 -0.0134 -0.6780 -0.0018
 9843SOL     OW33890   5.723   2.146   6.769  0.1023  0.2378 -0.3376
 9843SOL    HW133891   5.630   2.143   6.749 -0.1005 -1.3510  0.6702
 9843SOL    HW233892   5.732   2.219   6.831 -0.3895  0.6947 -0.8048
 9844SOL     OW33893  10.103   7.359   4.483 -0.4303 -0.1666  0.2167
 9844SOL    HW133894  10.076   7.346   4.392  0.8701 -0.5855 -0.1286
 9844SOL    HW233895  10.141   7.447   4.484  2.0781 -1.1724 -0.3210
 9845SOL     OW33896   0.319   2.663   6.249 -0.3829  0.1266 -0.0249
 9845SOL    HW133897   0.233   2.627   6.270 -0.2767  0.6667  1.4366
 9845SOL    HW233898   0.316   2.678   6.154 -2.1399  0.7587  0.0895
 9846SOL     OW33899   9.866   2.973   4.684  0.4111 -0.2082  0.6773
 9846SOL    HW133900   9.909   3.051   4.649  0.2428 -0.6495 -0.5438
 9846SOL    HW233901   9.776   3.001   4.701  0.0880 -0.3745 -0.6739
 9847SOL     OW33902   7.110   3.925   5.197 -0.2426 -0.2773 -0.8017
 9847SOL    HW133903   7.175   3.888   5.258  1.0283  0.6328 -1.5583
 9847SOL    HW233904   7.085   4.008   5.237 -1.1657 -0.7413 -0.3851
 9848SOL     OW33905   8.914   1.231   7.987  0.4720 -0.0474  0.5116
 9848SOL    HW133906   8.884   1.148   7.950 -0.5943  0.4259  0.2709
 9848SOL    HW233907   9.010   1.226   7.984  0.4530 -1.8943  1.9238
 9849SOL     OW33908   4.089   6.809   3.495  0.4284  0.3723  0.1892
 9849SOL    HW133909   4.103   6.776   3.584 -1.5368 -1.4206 -0.0595
 9849SOL    HW233910   4.059   6.899   3.507  0.4552  0.2452  1.3238
 9850SOL     OW33911   3.914   4.775   8.140  0.3348 -0.0327  0.0841
 9850SOL    HW133912   3.924   4.865   8.109  0.5143 -0.0765  0.0121
 9850SOL    HW233913   3.838   4.777   8.198  0.4257  0.1914  0.1912
 9851SOL     OW33914   3.682   9.046   2.983  0.2072  0.4083  0.5641
 9851SOL    HW133915   3.698   9.089   3.067 -1.0524  0.1055  0.9719
 9851SOL    HW233916   3.589   9.058   2.966 -0.1765 -1.9976  0.6145
 9852SOL     OW33917   9.729   0.730   8.665  0.1245 -0.5415 -0.0103
 9852SOL    HW133918   9.738   0.808   8.719 -0.7644 -0.3262 -0.1587
 9852SOL    HW233919   9.690   0.665   8.724 -1.0024 -0.2542 -0.4328
 9853SOL     OW33920   7.162   0.004   6.934  0.3323  0.3656  0.1787
 9853SOL    HW133921   7.223  -0.070   6.933  1.7429  1.3370 -3.8350
 9853SOL    HW233922   7.208   0.071   6.985  1.9802  0.5077 -1.4007
 9854SOL     OW33923   3.726   5.053   7.235  0.1450 -0.2302  0.1487
 9854SOL    HW133924   3.684   5.137   7.253  0.0259  0.0299 -1.2085
 9854SOL    HW233925   3.772   5.031   7.316 -3.1083 -0.8841  2.0196
 9855SOL     OW33926   1.850   7.983   4.503 -0.3371 -0.6515  0.2657
 9855SOL    HW133927   1.936   7.955   4.535 -0.4576 -0.8557  0.4168
 9855SOL    HW233928   1.866   8.015   4.415 -0.3222 -1.9775 -0.2262
 9856SOL     OW33929   1.160   4.066   9.206 -0.3213 -0.1341 -0.2986
 9856SOL    HW133930   1.121   4.062   9.119  0.9576  2.6418 -1.0898
 9856SOL    HW233931   1.097   4.114   9.259  0.5055  1.4994 -0.7359
 9857SOL     OW33932   8.462   3.596   6.900  0.1924 -0.7850  0.5459
 9857SOL    HW133933   8.458   3.502   6.919  0.4270 -0.5704  1.7074
 9857SOL    HW233934   8.496   3.601   6.811  0.3612 -1.7956  0.5467
 9858SOL     OW33935   0.270   0.552   8.113  0.6559 -0.0577 -0.4956
 9858SOL    HW133936   0.276   0.603   8.194 -0.3946 -1.9345  0.8623
 9858SOL    HW233937   0.185   0.577   8.076  0.3862 -0.3881 -0.1160
 9859SOL     OW33938   5.576   3.445   7.114  0.3992 -0.3594 -0.4494
 9859SOL    HW133939   5.501   3.387   7.119 -0.1286  0.3233 -0.2981
 9859SOL    HW233940   5.540   3.529   7.087  1.2492 -0.2910 -1.4569
 9860SOL     OW33941   5.903   2.389   1.456 -0.1625  0.1568  0.3295
 9860SOL    HW133942   5.884   2.328   1.527 -1.1697 -0.0410 -0.0819
 9860SOL    HW233943   5.846   2.360   1.384 -0.7212  1.6118  0.1537
 9861SOL     OW33944   2.453   5.175   2.484 -1.0197  0.5660 -0.5421
 9861SOL    HW133945   2.416   5.089   2.502  2.0033 -0.5033  1.3567
 9861SOL    HW233946   2.508   5.163   2.407 -1.4603  1.1466 -0.9671
 9862SOL     OW33947  10.614   5.525   8.873 -0.1932 -0.1134  0.2713
 9862SOL    HW133948  10.636   5.533   8.780  3.0102 -0.0051  0.9043
 9862SOL    HW233949  10.652   5.604   8.912 -1.2407 -0.3064  1.7253
 9863SOL     OW33950   3.073  10.737   3.184  0.5496 -0.1600 -0.1282
 9863SOL    HW133951   3.070  10.670   3.116  0.5411  1.5543 -1.8835
 9863SOL    HW233952   3.162  10.772   3.180  0.1268  0.9497 -0.2791
 9864SOL     OW33953   5.141   1.148   5.232 -0.3623 -0.3960 -0.4198
 9864SOL    HW133954   5.162   1.196   5.311 -0.8118 -1.8121  0.6008
 9864SOL    HW233955   5.226   1.121   5.197 -0.1774 -0.0553 -0.2309
 9865SOL     OW33956   1.052   0.985   6.773  0.4385  0.6524 -0.6868
 9865SOL    HW133957   1.067   1.053   6.839  1.6258  0.4404 -0.7191
 9865SOL    HW233958   1.137   0.971   6.733  0.1802 -0.7354 -0.8091
 9866SOL     OW33959  10.062   0.580   0.628 -0.1690  0.4442 -0.2530
 9866SOL    HW133960  10.120   0.655   0.619 -0.1713  0.3964 -0.6911
 9866SOL    HW233961  10.003   0.586   0.553 -0.8895  0.6274  0.3177
 9867SOL     OW33962  11.036   3.644   5.853 -0.0896  0.4505  0.5428
 9867SOL    HW133963  10.957   3.693   5.877  0.5115  2.1021 -0.7455
 9867SOL    HW233964  11.006   3.553   5.849 -1.4135  0.7608  2.1751
 9868SOL     OW33965   2.661   9.644   7.788 -0.1452 -0.3176 -0.0921
 9868SOL    HW133966   2.658   9.564   7.840 -1.6755  0.5391  1.2366
 9868SOL    HW233967   2.720   9.702   7.837 -0.1439 -0.1344 -0.3089
 9869SOL     OW33968   8.646  10.839   1.272 -0.7528  0.3955 -0.3683
 9869SOL    HW133969   8.648  10.804   1.361  1.6895 -1.2209 -0.9437
 9869SOL    HW233970   8.564  10.807   1.235  0.1991 -2.8693 -0.0347
 9870SOL     OW33971  10.599   0.114  10.581 -0.1000  0.0852 -0.3334
 9870SOL    HW133972  10.641   0.030  10.601 -1.6141 -0.5335  0.4386
 9870SOL    HW233973  10.601   0.161  10.664  0.1238  0.5361 -0.5930
 9871SOL     OW33974  10.095   4.746   9.492 -0.2394 -0.2495 -0.0029
 9871SOL    HW133975  10.054   4.687   9.556 -1.4363  0.8729  0.3154
 9871SOL    HW233976  10.122   4.689   9.420  0.3315 -1.4182  1.0986
 9872SOL     OW33977   0.608   6.386   9.201  0.3260  0.0107  0.0623
 9872SOL    HW133978   0.541   6.344   9.255  0.2805 -0.8432 -0.6429
 9872SOL    HW233979   0.687   6.385   9.255  0.0882 -0.1378  0.4056
 9873SOL     OW33980   0.104   1.659   9.475  0.2570 -0.6549 -0.0447
 9873SOL    HW133981   0.012   1.670   9.499  0.5778  1.7067  0.3875
 9873SOL    HW233982   0.103   1.595   9.403 -1.9080  0.4182 -1.0742
 9874SOL     OW33983   7.397   0.253   6.402  0.2571  0.4342 -0.2201
 9874SOL    HW133984   7.386   0.170   6.356  3.1007  0.4246 -1.0565
 9874SOL    HW233985   7.468   0.238   6.464  1.4440  2.3994 -0.9775
 9875SOL     OW33986   3.614   3.848   8.811  0.6990  0.1165 -0.0649
 9875SOL    HW133987   3.655   3.761   8.806  0.9780  0.3073 -1.4125
 9875SOL    HW233988   3.569   3.858   8.727 -3.3162 -0.6196  1.7678
 9876SOL     OW33989   0.440   2.079   2.907 -0.4511  0.0806  0.0310
 9876SOL    HW133990   0.454   1.987   2.928  1.4836 -0.0808 -1.6359
 9876SOL    HW233991   0.525   2.109   2.874 -0.7546  2.7428  1.4172
 9877SOL     OW33992   3.168   4.333   3.149 -0.0142 -0.0230 -0.2513
 9877SOL    HW133993   3.210   4.419   3.155 -0.8856  0.5766 -2.0822
 9877SOL    HW233994   3.240   4.272   3.134  0.5408  0.4683  0.3510
 9878SOL     OW33995   5.614   0.527   6.490 -0.2358 -0.4362 -0.3537
 9878SOL    HW133996   5.586   0.460   6.427 -1.3225  1.6766 -2.2400
 9878SOL    HW233997   5.710   0.527   6.484 -0.2036 -1.8392 -0.2405
 9879SOL     OW33998   4.446   9.024   9.788 -0.8880 -0.5225  0.2168
 9879SOL    HW133999   4.480   9.108   9.758 -2.4902  0.0832  0.0008
 9879SOL    HW234000   4.499   8.959   9.742  1.2772  0.3070  1.3977
 9880SOL     OW34001   3.564   2.368   9.058 -0.3050  0.2222  0.4120
 9880SOL    HW134002   3.580   2.431   8.988  0.3328 -0.8311 -0.4186
 9880SOL    HW234003   3.496   2.409   9.112 -1.2532  0.8190 -1.1563
 9881SOL     OW34004   6.474   7.333   9.735 -0.1295 -0.1039  0.5126
 9881SOL    HW134005   6.444   7.276   9.805  0.5473 -1.1361 -0.0094
 9881SOL    HW234006   6.557   7.295   9.707 -0.7024 -0.1258 -1.2982
 9882SOL     OW34007   0.596   0.308   0.802 -0.6145 -0.7101 -0.7640
 9882SOL    HW134008   0.505   0.321   0.776 -1.0994 -1.9461  0.2116
 9882SOL    HW234009   0.607   0.213   0.804  0.2758 -0.6084  0.5090
 9883SOL     OW34010   5.190   1.756  10.069  0.1103 -0.3659  0.7544
 9883SOL    HW134011   5.231   1.679  10.030 -0.9563 -0.0981 -0.9838
 9883SOL    HW234012   5.255   1.788  10.132  0.8646 -2.2495  0.9959
 9884SOL     OW34013   2.513   1.518   3.026  0.0660  0.9671 -0.0737
 9884SOL    HW134014   2.525   1.611   3.010 -1.5265  1.0219 -1.1997
 9884SOL    HW234015   2.509   1.479   2.938  0.5759 -0.1367  0.3782
 9885SOL     OW34016   0.898   1.748   0.456  0.2666  0.1280 -0.1406
 9885SOL    HW134017   0.976   1.730   0.508 -1.5010 -0.1305  2.6578
 9885SOL    HW234018   0.865   1.831   0.489 -1.0593 -0.1355 -0.6993
 9886SOL     OW34019   9.550   0.737   9.312  0.0231 -0.0749 -0.5865
 9886SOL    HW134020   9.640   0.765   9.329  0.9504 -3.0923 -0.0830
 9886SOL    HW234021   9.496   0.806   9.351  2.0655  1.7471 -0.7967
 9887SOL     OW34022   3.192   7.399   1.293  0.0842 -0.5314  1.1375
 9887SOL    HW134023   3.141   7.317   1.298  1.0082 -1.0711  2.1097
 9887SOL    HW234024   3.135   7.465   1.332 -1.7281 -0.0850 -1.8956
 9888SOL     OW34025   0.067   7.545   3.320 -0.5508 -0.2719 -0.0577
 9888SOL    HW134026   0.061   7.452   3.297 -0.6962 -0.3745  0.3955
 9888SOL    HW234027   0.033   7.550   3.409  1.4305 -0.0915  0.7252
 9889SOL     OW34028   2.410   5.517   1.204 -0.4066  0.0086 -0.2894
 9889SOL    HW134029   2.319   5.539   1.187 -0.3559  0.2556 -0.2383
 9889SOL    HW234030   2.411   5.421   1.208 -0.2913 -0.1093 -2.3752
 9890SOL     OW34031   3.398   7.112   7.722 -0.2509  0.1656 -0.1566
 9890SOL    HW134032   3.451   7.171   7.776  0.7605 -1.1591  0.3536
 9890SOL    HW234033   3.320   7.163   7.700  0.1385  1.3500  1.0616
 9891SOL     OW34034   4.063  10.664   7.900  0.6121  0.6882  0.2869
 9891SOL    HW134035   4.107  10.584   7.872  1.8776  0.7711  1.9013
 9891SOL    HW234036   4.084  10.728   7.833  2.1974  0.4761  0.5575
 9892SOL     OW34037   3.811   2.945   6.302  0.2058 -0.0902 -0.4033
 9892SOL    HW134038   3.775   2.858   6.282  0.2258 -0.3573  0.6396
 9892SOL    HW234039   3.774   3.002   6.235  1.1863 -1.1191 -1.8873
 9893SOL     OW34040   5.026   6.945   5.692  0.0527  0.5414 -0.5067
 9893SOL    HW134041   5.067   6.992   5.619  0.2285  0.4739 -0.4508
 9893SOL    HW234042   5.001   7.014   5.754  0.4262  0.5537 -0.3664
 9894SOL     OW34043   2.384   3.454   8.966 -0.6961  0.1483  0.0624
 9894SOL    HW134044   2.400   3.452   8.872 -0.8149  2.1687 -0.0368
 9894SOL    HW234045   2.461   3.411   9.004  1.2923  2.7015 -0.8049
 9895SOL     OW34046   6.413   8.101   7.360 -0.1811  0.5947 -0.3756
 9895SOL    HW134047   6.371   8.165   7.418 -1.6710 -0.4471 -0.2390
 9895SOL    HW234048   6.350   8.028   7.356  0.2775  0.2554 -2.5913
 9896SOL     OW34049   4.972   5.292   2.657  0.3537 -0.0621 -0.3841
 9896SOL    HW134050   5.039   5.352   2.623  0.7362  0.0844  0.5908
 9896SOL    HW234051   5.008   5.261   2.741 -0.7505 -0.0728  0.1019
 9897SOL     OW34052   0.668  10.364   2.731  0.0363  0.7770  0.0246
 9897SOL    HW134053   0.639  10.310   2.658  0.4388  0.3096  0.2084
 9897SOL    HW234054   0.732  10.310   2.777  0.9588  1.6672 -0.1853
 9898SOL     OW34055   4.859   0.619   5.022 -0.1121 -0.4423  0.2836
 9898SOL    HW134056   4.837   0.676   5.096 -0.0423 -0.3620  0.2424
 9898SOL    HW234057   4.953   0.629   5.011 -0.2528  0.2144 -0.3626
 9899SOL     OW34058   3.212   2.630   2.142 -0.8430 -0.4586 -0.9856
 9899SOL    HW134059   3.176   2.588   2.220 -2.7781  1.0320 -0.9847
 9899SOL    HW234060   3.265   2.703   2.175  0.0884 -1.0930 -1.0466
 9900SOL     OW34061   9.234   6.123   0.642 -1.5427 -0.3531  0.0911
 9900SOL    HW134062   9.283   6.185   0.696 -2.2182  0.1161  0.1754
 9900SOL    HW234063   9.194   6.062   0.705  1.8624 -3.0619 -0.0732
 9901SOL     OW34064   7.022   5.104   4.924  0.6547  0.2768  0.2959
 9901SOL    HW134065   7.019   5.129   5.016 -1.1500 -0.5773  0.5195
 9901SOL    HW234066   7.085   5.033   4.920 -0.2471 -0.6094  1.1637
 9902SOL     OW34067   6.675   8.165   8.068 -0.6670 -0.5614 -0.9747
 9902SOL    HW134068   6.684   8.216   7.987  0.2122  1.8006  0.5148
 9902SOL    HW234069   6.583   8.173   8.091 -0.5339  0.3839 -0.7496
 9903SOL     OW34070   2.934   9.213   5.363 -0.2241  0.1843 -0.0884
 9903SOL    HW134071   2.848   9.253   5.375 -0.4249  1.5053 -4.2022
 9903SOL    HW234072   2.993   9.288   5.348  0.8951 -0.7846 -0.7455
 9904SOL     OW34073   9.306  10.797   2.711  0.0073  0.4527 -0.1814
 9904SOL    HW134074   9.269  10.770   2.795 -0.5564 -0.7605 -0.8019
 9904SOL    HW234075   9.401  10.797   2.726 -0.1001  0.6126  0.5481
 9905SOL     OW34076   2.188   9.389   9.814 -0.3988  0.3438  0.2177
 9905SOL    HW134077   2.262   9.384   9.873  1.1032  0.3346 -1.5787
 9905SOL    HW234078   2.148   9.302   9.818 -1.7496  0.9804  2.8584
 9906SOL     OW34079   8.390   1.250   1.287  0.1404 -0.5276 -0.5689
 9906SOL    HW134080   8.459   1.241   1.352  0.4035  1.1181 -0.5938
 9906SOL    HW234081   8.383   1.344   1.271 -1.4521 -0.7293 -1.2770
 9907SOL     OW34082   5.706   6.411   0.831 -0.6352 -0.1516 -0.0858
 9907SOL    HW134083   5.762   6.384   0.904  0.2599 -0.4690 -0.8740
 9907SOL    HW234084   5.767   6.441   0.763 -1.3100 -1.8747 -1.5241
 9908SOL     OW34085  10.980  10.391   3.932  0.3191  0.1258 -0.5251
 9908SOL    HW134086  11.053  10.339   3.899 -0.9721 -1.8112 -0.5096
 9908SOL    HW234087  10.915  10.389   3.861 -0.2312  0.7329 -0.0602
 9909SOL     OW34088   3.517   6.870   8.848  0.1254  0.1864  0.1814
 9909SOL    HW134089   3.471   6.886   8.930 -0.5288 -0.2353 -0.0969
 9909SOL    HW234090   3.595   6.820   8.873  2.0632  3.3420  1.0408
 9910SOL     OW34091   2.765   2.811   2.514 -0.2568  0.1215 -0.0762
 9910SOL    HW134092   2.769   2.905   2.534  1.6750 -0.3079  1.9501
 9910SOL    HW234093   2.760   2.768   2.599  1.0903 -1.6482 -0.8192
 9911SOL     OW34094   8.785   7.963   7.498  0.2189 -0.1697  0.0667
 9911SOL    HW134095   8.787   7.868   7.488 -0.1581 -0.0911 -0.8916
 9911SOL    HW234096   8.809   7.978   7.589 -0.7753 -1.2437  0.5373
 9912SOL     OW34097   8.229   5.278   4.113  0.1834 -0.3306  0.4846
 9912SOL    HW134098   8.151   5.224   4.122 -1.2232  1.4583 -0.2465
 9912SOL    HW234099   8.243   5.284   4.018  0.6530  0.0978  0.5748
 9913SOL     OW34100  10.847   6.158   2.376  0.8116 -0.4236 -0.2591
 9913SOL    HW134101  10.832   6.221   2.446 -2.1612  0.1179 -1.2503
 9913SOL    HW234102  10.861   6.212   2.298  1.6209 -1.0282 -0.5516
 9914SOL     OW34103   0.784   5.535   6.365  0.0445 -0.4716 -0.4143
 9914SOL    HW134104   0.798   5.513   6.273 -1.9057  0.8679 -1.0937
 9914SOL    HW234105   0.854   5.598   6.385  0.4410 -0.7207 -0.9978
 9915SOL     OW34106   8.011  10.552   8.197 -0.1469  0.1176 -0.4370
 9915SOL    HW134107   7.950  10.588   8.262 -0.4500  0.7279 -1.0448
 9915SOL    HW234108   7.971  10.470   8.169 -0.7192  0.5343 -0.8584
 9916SOL     OW34109   9.862   4.262   6.407  0.2278 -0.0799 -0.6414
 9916SOL    HW134110   9.956   4.245   6.402  0.3725  0.2807  0.6866
 9916SOL    HW234111   9.829   4.239   6.319  1.4413 -0.7985 -0.9318
 9917SOL     OW34112   1.395   0.889   0.531  0.7814 -0.6159 -0.9477
 9917SOL    HW134113   1.470   0.916   0.478  0.9128 -0.0249 -0.4733
 9917SOL    HW234114   1.333   0.962   0.523  1.6686  0.4932  1.3794
 9918SOL     OW34115   4.488   0.223   5.207  0.1525  0.1307 -0.4622
 9918SOL    HW134116   4.501   0.271   5.126 -0.0746 -1.1068 -1.2600
 9918SOL    HW234117   4.456   0.137   5.179 -2.2357  0.4494  1.0413
 9919SOL     OW34118   6.629   8.875   7.947 -0.4463 -0.0785  0.2821
 9919SOL    HW134119   6.697   8.851   7.883  0.2903  1.6029  0.3771
 9919SOL    HW234120   6.578   8.944   7.904 -0.3962  0.5651  1.2064
 9920SOL     OW34121   3.682   3.872   3.963  0.5104 -0.2233 -0.5025
 9920SOL    HW134122   3.702   3.863   3.870  1.1328 -0.9708 -0.3036
 9920SOL    HW234123   3.767   3.885   4.004  0.2532 -0.0913 -0.0107
 9921SOL     OW34124   6.231  10.567  11.019 -1.0560  0.4159  0.2522
 9921SOL    HW134125   6.284  10.624  11.074 -0.9386  0.5128  0.0393
 9921SOL    HW234126   6.195  10.626  10.952  0.6669 -0.0711 -1.1913
 9922SOL     OW34127  10.181   6.643   6.314 -0.1447  0.0130  0.4070
 9922SOL    HW134128  10.208   6.715   6.370  1.4648 -1.7810  2.1035
 9922SOL    HW234129  10.247   6.639   6.245  1.8049 -1.7749  2.2030
 9923SOL     OW34130   4.049   6.207   1.166  0.7019 -0.5188 -0.2170
 9923SOL    HW134131   4.032   6.280   1.226 -0.4896 -0.6832 -0.3394
 9923SOL    HW234132   4.061   6.248   1.081 -0.2452 -0.4620 -0.3380
 9924SOL     OW34133   1.040   9.363   4.335  0.2941 -0.1484  0.0495
 9924SOL    HW134134   1.057   9.402   4.421  0.3542 -1.0777  0.4710
 9924SOL    HW234135   0.968   9.415   4.299  0.2528  0.2386  0.6714
 9925SOL     OW34136   1.553   1.250  10.688  0.7402  0.0031  0.6241
 9925SOL    HW134137   1.525   1.233  10.778 -0.4571  0.2405  0.3187
 9925SOL    HW234138   1.631   1.305  10.697  1.0927 -0.6205  1.5202
 9926SOL     OW34139   9.661   0.978   4.204 -0.2141  0.1269 -0.1577
 9926SOL    HW134140   9.734   0.975   4.265 -1.2745 -1.8107  1.1341
 9926SOL    HW234141   9.587   1.010   4.256 -1.0688 -1.2725 -0.4455
 9927SOL     OW34142   6.130   7.534   9.383 -0.7062 -0.2601  0.3301
 9927SOL    HW134143   6.137   7.470   9.453  2.7041 -1.0908 -0.5671
 9927SOL    HW234144   6.075   7.492   9.317 -1.0810 -0.9268  1.0532
 9928SOL     OW34145   3.675   5.262   8.184  0.0503  0.4057 -0.8034
 9928SOL    HW134146   3.733   5.326   8.224 -0.1019  1.0971 -1.6613
 9928SOL    HW234147   3.600   5.256   8.244  0.3521  0.5528 -0.4063
 9929SOL     OW34148   5.374   7.570   1.005 -0.4821 -0.0939  0.0158
 9929SOL    HW134149   5.375   7.596   1.097 -0.7806  1.3746 -0.3696
 9929SOL    HW234150   5.289   7.599   0.972 -1.5947 -3.0833 -0.1035
 9930SOL     OW34151   7.245   6.955   3.787 -0.2943  0.3996  0.4696
 9930SOL    HW134152   7.190   6.931   3.862  0.2926  0.0264  0.7947
 9930SOL    HW234153   7.313   7.011   3.825  1.1619 -1.3693  0.6112
 9931SOL     OW34154  10.504   5.151   4.868 -0.2259 -0.0981 -0.0265
 9931SOL    HW134155  10.422   5.187   4.832  0.9033  0.7596 -1.8910
 9931SOL    HW234156  10.569   5.169   4.800  1.5396 -0.7027  1.4473
 9932SOL     OW34157   4.291  10.357   1.195  0.1949  0.3428 -0.7028
 9932SOL    HW134158   4.326  10.446   1.191  0.3555  0.3835  0.8508
 9932SOL    HW234159   4.332  10.311   1.122  2.0997  0.8855 -0.0519
 9933SOL     OW34160   7.990   6.675   6.724 -0.4938 -0.1120  0.9342
 9933SOL    HW134161   7.977   6.581   6.710  0.6558 -0.0700 -0.6660
 9933SOL    HW234162   8.083   6.684   6.744 -0.6623  0.6524  1.3805
 9934SOL     OW34163  10.387   9.203   0.449  0.1027 -0.3519 -0.1824
 9934SOL    HW134164  10.307   9.199   0.396 -0.0424  1.1739 -0.1167
 9934SOL    HW234165  10.450   9.250   0.395  0.4031 -0.0226  0.4449
 9935SOL     OW34166   0.401   2.026  10.721 -0.3761 -0.0755 -0.0721
 9935SOL    HW134167   0.367   1.936  10.724 -0.7876  0.0604 -0.4188
 9935SOL    HW234168   0.374   2.064  10.805 -1.0255  0.0033 -0.3071
 9936SOL     OW34169   7.194   0.700   7.950 -0.2933  0.2367  0.3933
 9936SOL    HW134170   7.264   0.676   8.010  1.0523  2.7436 -0.0281
 9936SOL    HW234171   7.180   0.621   7.897  2.8459 -0.1381 -0.0804
 9937SOL     OW34172   5.729   2.746   2.656 -0.3348 -0.0572 -0.1842
 9937SOL    HW134173   5.822   2.723   2.650  0.0287  1.0635  0.6682
 9937SOL    HW234174   5.729   2.832   2.699 -1.6785  0.7909 -1.7885
 9938SOL     OW34175   1.537   3.711   3.268 -0.1874  0.1739 -0.1448
 9938SOL    HW134176   1.505   3.701   3.358  0.3860 -1.3479 -0.0873
 9938SOL    HW234177   1.541   3.806   3.255 -0.2412  0.4289  1.4499
 9939SOL     OW34178   1.053  11.107   8.973  0.3803 -0.1787 -0.3062
 9939SOL    HW134179   1.148  11.101   8.972  0.7857  3.4317  1.2087
 9939SOL    HW234180   1.032  11.135   9.062 -1.8528  1.1587 -1.1629
 9940SOL     OW34181   9.073   2.439  11.099 -0.5065 -0.7615 -0.2334
 9940SOL    HW134182   9.086   2.533  11.088  0.8289 -0.6297  1.8067
 9940SOL    HW234183   9.022   2.431  11.180  2.4079 -1.7866  1.6746
 9941SOL     OW34184   4.577   2.975  10.366 -0.2909 -0.5571  0.0109
 9941SOL    HW134185   4.514   2.961  10.437 -0.3467 -0.1159  0.0543
 9941SOL    HW234186   4.617   2.889  10.351  0.1005 -0.5483  0.9372
 9942SOL     OW34187   2.779   9.800   2.613  0.0978  0.7294 -0.3384
 9942SOL    HW134188   2.845   9.788   2.682 -3.5559 -0.5506  3.3245
 9942SOL    HW234189   2.752   9.892   2.622 -2.0101 -0.0210  1.7356
 9943SOL     OW34190   5.205   4.244   1.175 -0.1482  0.0700  0.8597
 9943SOL    HW134191   5.122   4.277   1.210 -1.0122  0.7807 -1.6357
 9943SOL    HW234192   5.181   4.164   1.129  0.5273  0.3480  0.0038
 9944SOL     OW34193   4.574   9.623   7.645 -0.1353 -0.8048 -0.1792
 9944SOL    HW134194   4.493   9.675   7.648 -0.0804 -0.5974 -1.6589
 9944SOL    HW234195   4.545   9.536   7.620 -0.0704 -1.1875  0.9975
 9945SOL     OW34196   5.223   7.705   4.792  0.1188  0.4125 -0.3127
 9945SOL    HW134197   5.143   7.755   4.778  0.7017  1.0815 -1.2744
 9945SOL    HW234198   5.254   7.734   4.878 -1.3125 -0.7700  0.6562
 9946SOL     OW34199  10.236   0.806   0.589  0.1240 -0.3446  0.4968
 9946SOL    HW134200  10.215   0.899   0.591 -1.1883 -0.5959 -0.2785
 9946SOL    HW234201  10.329   0.802   0.611  0.2572  1.1618  0.3291
 9947SOL     OW34202  10.361   9.042   1.438 -0.2163 -0.3362  0.0364
 9947SOL    HW134203  10.383   9.128   1.473 -0.8190 -0.7533  1.5040
 9947SOL    HW234204  10.369   9.052   1.343  1.6989  0.7670  0.2711
 9948SOL     OW34205   1.373   6.775   4.078 -0.1126  0.2178 -0.8574
 9948SOL    HW134206   1.431   6.847   4.100  1.7153 -1.2804 -0.4381
 9948SOL    HW234207   1.332   6.751   4.161  0.1391  0.0827 -0.7696
 9949SOL     OW34208   7.415   2.553   2.414 -0.4435  0.1512 -0.0903
 9949SOL    HW134209   7.424   2.545   2.509 -1.3395 -0.6115 -0.0611
 9949SOL    HW234210   7.329   2.518   2.395  0.2426 -0.9209 -1.3424
 9950SOL     OW34211   1.787   2.249   6.583  0.4231  0.2186  0.0111
 9950SOL    HW134212   1.850   2.210   6.522 -0.3957 -0.3434 -0.4929
 9950SOL    HW234213   1.772   2.338   6.549  1.5856  0.6690  0.6306
 9951SOL     OW34214   1.993   8.580   3.865  0.3384  0.3045 -0.5077
 9951SOL    HW134215   2.014   8.533   3.784  0.8350  0.2817 -0.3651
 9951SOL    HW234216   2.015   8.671   3.847 -0.3889  0.4506 -0.6977
 9952SOL     OW34217   0.690   1.658   2.032  0.1706 -0.3100 -0.6206
 9952SOL    HW134218   0.783   1.634   2.035 -0.5618 -3.4724  1.7674
 9952SOL    HW234219   0.682   1.730   2.094  0.9605 -0.2087 -0.6241
 9953SOL     OW34220   4.801   5.563   1.165 -0.1931  0.3853  0.1588
 9953SOL    HW134221   4.761   5.541   1.081  1.3480  1.3470 -0.8645
 9953SOL    HW234222   4.790   5.484   1.218 -1.7646 -0.0159 -0.7051
 9954SOL     OW34223   1.697   0.430   7.403 -0.7304 -0.3360  0.4591
 9954SOL    HW134224   1.734   0.475   7.327 -0.7722  0.8586  1.1270
 9954SOL    HW234225   1.603   0.428   7.387 -0.6438 -1.0654 -0.0190
 9955SOL     OW34226   6.747   7.783  10.038 -0.3957  0.5145 -0.2770
 9955SOL    HW134227   6.840   7.767  10.053 -0.0795 -0.1398 -2.6551
 9955SOL    HW234228   6.717   7.825  10.119  1.6689 -0.3504  1.0149
 9956SOL     OW34229   8.055   7.413  10.265 -0.5119 -0.3295  0.6356
 9956SOL    HW134230   8.056   7.345  10.333 -0.2417  0.7924  1.7970
 9956SOL    HW234231   7.973   7.399  10.219  0.5616 -2.9053 -0.7267
 9957SOL     OW34232   3.121   6.966   2.651  0.0674  0.0858  0.4976
 9957SOL    HW134233   3.179   7.020   2.704  1.0815 -0.8977  0.4176
 9957SOL    HW234234   3.090   7.026   2.582  0.0088  0.9357  1.2454
 9958SOL     OW34235   6.517   6.432   0.638 -0.4294 -0.2956  0.3011
 9958SOL    HW134236   6.599   6.392   0.610 -1.1075 -3.3205  2.1303
 9958SOL    HW234237   6.452   6.400   0.575 -0.5041  0.7403 -0.1721
 9959SOL     OW34238   2.658   8.295   2.329  0.7161  0.1539  0.7617
 9959SOL    HW134239   2.693   8.380   2.301  0.3853 -0.0676 -0.3778
 9959SOL    HW234240   2.718   8.265   2.397  3.8689 -1.0559 -2.2790
 9960SOL     OW34241   5.199   9.982   7.975  0.4325 -0.2812 -0.9029
 9960SOL    HW134242   5.139   9.963   7.903 -0.6159 -1.6472  0.2718
 9960SOL    HW234243   5.250  10.057   7.944 -0.7821 -0.0760 -2.5783
 9961SOL     OW34244   9.423   4.036   2.899  0.2889 -0.3925  0.0166
 9961SOL    HW134245   9.429   4.080   2.984 -0.9317 -0.2512  0.0457
 9961SOL    HW234246   9.372   4.095   2.844  0.0685 -1.0065 -0.4550
 9962SOL     OW34247   5.390   5.106   0.150  0.3074 -0.7554 -0.4652
 9962SOL    HW134248   5.457   5.129   0.215 -0.3686  1.1401 -0.3704
 9962SOL    HW234249   5.352   5.190   0.125 -2.6358 -1.8024  0.1273
 9963SOL     OW34250   1.602   5.870   8.622 -0.1053 -0.0430 -0.1058
 9963SOL    HW134251   1.586   5.919   8.540 -0.2784 -0.2598 -0.2017
 9963SOL    HW234252   1.596   5.937   8.690  0.6364  0.2532 -0.3188
 9964SOL     OW34253  10.627   7.062   2.057 -0.1040  0.3550 -0.4593
 9964SOL    HW134254  10.556   7.096   2.112  0.6818  1.1880  0.0806
 9964SOL    HW234255  10.690   7.133   2.053 -0.2985  0.4708 -2.8097
 9965SOL     OW34256   2.624   4.195   6.977  0.2106  0.4208 -0.0275
 9965SOL    HW134257   2.664   4.143   7.047  0.7598  1.0230  0.1228
 9965SOL    HW234258   2.685   4.268   6.965 -0.9976  1.5449  0.4222
 9966SOL     OW34259   2.636   5.867  10.898  0.1281  0.1288 -0.2790
 9966SOL    HW134260   2.729   5.891  10.901 -0.3470  2.1263 -0.0676
 9966SOL    HW234261   2.635   5.772  10.914  2.0070  0.3516  1.6363
 9967SOL     OW34262   8.341   0.045  10.779 -0.2102 -0.3286  0.4157
 9967SOL    HW134263   8.407   0.072  10.715 -0.0367  1.0758  1.1424
 9967SOL    HW234264   8.341  -0.051  10.775  1.1328 -0.3207 -0.3374
 9968SOL     OW34265   6.490  10.163   5.553  0.4766 -0.0401 -0.4275
 9968SOL    HW134266   6.519  10.154   5.644 -0.1987 -2.4969 -0.3944
 9968SOL    HW234267   6.397  10.143   5.555  0.6327 -1.0080 -1.7781
 9969SOL     OW34268  10.884   1.400   8.552  0.1099  0.0452 -0.1657
 9969SOL    HW134269  10.911   1.481   8.510 -0.9155 -0.3534 -1.6713
 9969SOL    HW234270  10.789   1.410   8.564  0.3552  0.1447  2.1075
 9970SOL     OW34271   8.403   3.355   1.546  0.3211 -1.1684 -0.4004
 9970SOL    HW134272   8.375   3.268   1.571 -3.1439 -0.3398 -0.8666
 9970SOL    HW234273   8.342   3.381   1.477  1.9875  1.1992 -1.1272
 9971SOL     OW34274   8.606   6.689   3.030 -0.0570  0.0411 -0.3582
 9971SOL    HW134275   8.649   6.655   2.952  0.8744 -0.7482  0.4692
 9971SOL    HW234276   8.648   6.774   3.045 -1.1180  0.7742 -1.4026
 9972SOL     OW34277   6.714   1.717   5.289 -0.0795  0.4224  0.3701
 9972SOL    HW134278   6.703   1.624   5.269 -1.8459  0.9893 -1.5718
 9972SOL    HW234279   6.682   1.725   5.379  0.6565 -0.9122  0.7903
 9973SOL     OW34280   7.627   2.601   7.234  0.0426  0.4497 -0.1194
 9973SOL    HW134281   7.633   2.665   7.162 -1.2139  0.8023  0.0595
 9973SOL    HW234282   7.535   2.605   7.261 -0.0441 -1.4186 -0.0672
 9974SOL     OW34283   3.328   7.713  10.826  0.0592  0.7565  0.1684
 9974SOL    HW134284   3.347   7.784  10.887 -1.3227 -0.0496  1.5982
 9974SOL    HW234285   3.306   7.638  10.881  1.4725 -0.8181 -1.3045
 9975SOL     OW34286   0.519   8.470   3.150 -0.1304  0.2564 -0.7822
 9975SOL    HW134287   0.544   8.550   3.102 -0.6680  1.2145  0.4686
 9975SOL    HW234288   0.576   8.402   3.114  1.0611  1.4073 -1.1838
 9976SOL     OW34289   1.726   7.258   1.405 -0.1465 -0.1615 -0.6147
 9976SOL    HW134290   1.674   7.298   1.335 -0.2896  1.3317  0.2869
 9976SOL    HW234291   1.661   7.216   1.461 -0.4157  1.4523  0.3523
 9977SOL     OW34292   5.220   6.582   6.435  0.1543 -0.1578  0.4868
 9977SOL    HW134293   5.218   6.567   6.341  0.1916 -0.0290  0.4651
 9977SOL    HW234294   5.286   6.651   6.447  1.2160 -1.1753  0.7391
 9978SOL     OW34295   8.082   7.709  10.908  0.1504 -0.2146 -0.3685
 9978SOL    HW134296   8.071   7.750  10.822 -0.5408 -0.4429 -0.3960
 9978SOL    HW234297   8.165   7.743  10.941 -0.1261  0.7485 -0.6440
 9979SOL     OW34298   7.308   1.275   5.269 -0.1122  0.4142  0.3943
 9979SOL    HW134299   7.341   1.364   5.256  0.6034  0.5146  2.5344
 9979SOL    HW234300   7.384   1.219   5.254 -0.5767  0.1077 -1.0114
 9980SOL     OW34301   2.638   6.232  10.887 -0.4831 -0.3074  0.1180
 9980SOL    HW134302   2.603   6.276  10.809  0.9529 -1.0194 -0.9725
 9980SOL    HW234303   2.595   6.147  10.888 -0.9177 -0.0844  0.4237
 9981SOL     OW34304   4.990   2.034   2.972 -0.4067 -0.1350  0.6038
 9981SOL    HW134305   4.959   2.087   2.899 -1.5373  0.5298  1.5415
 9981SOL    HW234306   4.939   2.063   3.047  0.2090 -1.3183  1.5234
 9982SOL     OW34307   3.315   4.333   4.671  0.4736  0.4439 -0.2465
 9982SOL    HW134308   3.266   4.300   4.747  0.0140 -0.2447 -0.8246
 9982SOL    HW234309   3.376   4.263   4.650 -1.0709 -0.4429 -1.9934
 9983SOL     OW34310   3.741  10.852   4.822 -0.0105  0.0006  0.6719
 9983SOL    HW134311   3.665  10.859   4.880 -0.2019  0.9793  0.3148
 9983SOL    HW234312   3.744  10.759   4.798 -0.0548 -0.3773  2.0668
 9984SOL     OW34313   0.939   2.295   2.242  0.1608  0.2868 -0.1702
 9984SOL    HW134314   0.848   2.322   2.226 -0.1762  0.9882  2.4491
 9984SOL    HW234315   0.963   2.246   2.163 -2.5571 -0.1215 -0.8761
 9985SOL     OW34316  11.108   1.578   5.194  0.5398 -0.1163 -0.1579
 9985SOL    HW134317  11.096   1.654   5.250  1.4947  0.3930 -0.6151
 9985SOL    HW234318  11.141   1.614   5.111  1.9222 -1.0785 -0.0710
 9986SOL     OW34319   7.197   2.379   2.150 -0.0638 -0.4711  1.0989
 9986SOL    HW134320   7.140   2.450   2.180  1.1589  1.0545  0.0196
 9986SOL    HW234321   7.202   2.392   2.055  1.3197 -1.1269  1.0658
 9987SOL     OW34322  10.312   7.440   3.471 -0.0683 -0.2180 -0.2919
 9987SOL    HW134323  10.245   7.508   3.474  0.8529  0.9355 -2.9880
 9987SOL    HW234324  10.393   7.484   3.497  0.0221 -1.1175  1.0465
 9988SOL     OW34325   8.379   5.781   7.280  0.4021 -0.4090 -0.0104
 9988SOL    HW134326   8.310   5.717   7.297 -1.0357  1.2943  0.8448
 9988SOL    HW234327   8.350   5.827   7.201  0.7147  0.1055  0.1725
 9989SOL     OW34328   4.588   2.343   1.382  0.0592 -0.0349 -0.0112
 9989SOL    HW134329   4.504   2.344   1.426  0.1670  1.2759  0.2191
 9989SOL    HW234330   4.627   2.428   1.403  1.8976 -1.0062  0.7395
 9990SOL     OW34331   5.260   1.548   1.550  0.1655  0.2452 -0.2420
 9990SOL    HW134332   5.229   1.639   1.547  0.2718  0.3943  1.8425
 9990SOL    HW234333   5.344   1.552   1.595  0.2109 -0.8798 -0.1966
 9991SOL     OW34334  10.117   0.223   5.100  0.1493  0.2481  0.0261
 9991SOL    HW134335  10.060   0.250   5.172 -1.1576 -1.6578 -0.2179
 9991SOL    HW234336  10.110   0.293   5.036  0.3278  1.3682  1.1926
 9992SOL     OW34337   0.132   4.664   3.908 -0.2018  0.9333  0.3369
 9992SOL    HW134338   0.210   4.610   3.922 -0.3968  0.5990  0.1253
 9992SOL    HW234339   0.121   4.667   3.813 -0.6306  0.7195  0.3786
 9993SOL     OW34340   2.617   9.960   8.058 -0.6023  0.0213  0.1299
 9993SOL    HW134341   2.563  10.033   8.092 -0.4332  1.2890 -2.1430
 9993SOL    HW234342   2.703   9.999   8.044  0.2217 -1.3212  1.2527
 9994SOL     OW34343   6.216   3.948   9.569 -0.0852  0.4310  0.3754
 9994SOL    HW134344   6.206   4.041   9.588  0.6759  0.5427  0.2385
 9994SOL    HW234345   6.126   3.915   9.565 -0.3526  1.0802  0.7980
 9995SOL     OW34346   8.229   8.184   2.098 -0.3366 -0.1493  0.0617
 9995SOL    HW134347   8.236   8.242   2.175  0.1625 -0.0422 -0.0604
 9995SOL    HW234348   8.197   8.241   2.028  0.0268 -0.0478 -0.0243
 9996SOL     OW34349   8.270   1.582   7.877  0.4143 -0.1411  0.0593
 9996SOL    HW134350   8.238   1.518   7.941 -0.7082 -0.1843 -0.5240
 9996SOL    HW234351   8.231   1.665   7.904 -1.0480 -0.3773 -1.2326
 9997SOL     OW34352   8.213   3.783   8.343  0.4053 -0.5899 -0.0091
 9997SOL    HW134353   8.118   3.773   8.335  0.7270 -2.5870 -2.4644
 9997SOL    HW234354   8.238   3.719   8.411 -0.0493  0.6719  1.4008
 9998SOL     OW34355   9.817   0.287   3.002 -0.1110  0.3468 -0.3125
 9998SOL    HW134356   9.752   0.240   3.054  1.8356 -1.5122  0.6041
 9998SOL    HW234357   9.801   0.379   3.022 -1.9695 -0.0889  0.4244
 9999SOL     OW34358   3.646  10.301   1.180  0.1353 -0.1747 -0.1900
 9999SOL    HW134359   3.669  10.372   1.120  2.0641  0.1095  0.8037
 9999SOL    HW234360   3.642  10.223   1.125 -1.1320  0.5133 -1.1436
10000SOL     OW34361  10.308   5.124  10.265  0.5452 -0.0289 -0.3420
10000SOL    HW134362  10.376   5.091  10.325 -1.2429 -2.1177  0.6648
10000SOL    HW234363  10.275   5.045  10.221 -2.4230  0.6443  0.5150
10001SOL     OW34364   4.315  10.737   7.058 -0.2433  0.2291  0.0379
10001SOL    HW134365   4.273  10.755   6.974 -2.0263  0.5479  0.9388
10001SOL    HW234366   4.246  10.753   7.123  1.0306 -0.1656  1.5545
10002SOL     OW34367   1.166   6.573   0.364 -0.6257  0.6113  0.0059
10002SOL    HW134368   1.219   6.493   0.361  1.5987  2.0094  0.3262
10002SOL    HW234369   1.076   6.541   0.354  0.0367 -2.0802  1.5007
10003SOL     OW34370   3.781   1.784   9.802  0.3747  0.5878 -0.4854
10003SOL    HW134371   3.766   1.861   9.748 -3.1404  0.7871  0.5503
10003SOL    HW234372   3.716   1.790   9.872  0.6462 -2.7970  0.2402
10004SOL     OW34373   9.269  10.461   4.830 -0.0448 -0.3054 -0.2116
10004SOL    HW134374   9.213  10.491   4.902  1.8317  1.9466  0.4338
10004SOL    HW234375   9.212  10.463   4.753 -1.3853 -0.1049  0.7551
10005SOL     OW34376   7.621  10.458   1.565  0.1420 -0.2688 -0.0552
10005SOL    HW134377   7.714  10.474   1.582  0.3251  0.7682 -1.7643
10005SOL    HW234378   7.597  10.524   1.499 -1.7065 -0.7737  0.0550
10006SOL     OW34379   5.204   8.319   1.895 -0.4417 -0.2230 -0.2574
10006SOL    HW134380   5.250   8.367   1.964  2.4489 -0.7982 -1.6376
10006SOL    HW234381   5.201   8.229   1.926  1.1492 -0.5437 -0.9502
10007SOL     OW34382   8.516   7.749   4.549  0.3922 -0.1917 -0.3578
10007SOL    HW134383   8.539   7.718   4.462  0.4030 -0.0138 -0.4197
10007SOL    HW234384   8.594   7.797   4.579  0.8630 -1.3011  0.2568
10008SOL     OW34385   6.244   2.819   1.748  0.3331  0.3263 -0.3390
10008SOL    HW134386   6.286   2.866   1.676 -0.7809  0.4158 -0.9572
10008SOL    HW234387   6.299   2.837   1.824  1.6243  0.1050 -1.1935
10009SOL     OW34388   3.596   3.015   6.703  0.6119 -0.6707  0.4698
10009SOL    HW134389   3.643   3.039   6.783 -2.0818 -0.3451  2.0591
10009SOL    HW234390   3.532   2.950   6.731 -2.6855  1.8172 -0.6098
10010SOL     OW34391   8.279   5.456   0.104  0.1869 -0.0594  0.1454
10010SOL    HW134392   8.264   5.549   0.123 -2.1125 -0.4259  0.3450
10010SOL    HW234393   8.344   5.457   0.033 -1.0532  1.7865 -1.0614
10011SOL     OW34394   0.913   3.741   7.937  0.3209 -0.8075 -0.1215
10011SOL    HW134395   0.927   3.681   7.864  2.7793 -1.0621  0.4740
10011SOL    HW234396   0.911   3.685   8.015 -1.3638 -0.4465  0.1431
10012SOL     OW34397   2.220   3.709   6.339  0.7277 -0.4482  0.1762
10012SOL    HW134398   2.253   3.625   6.305  0.6970 -0.0819 -0.7899
10012SOL    HW234399   2.158   3.739   6.272  0.2119  0.0114  0.8551
10013SOL     OW34400  10.161   3.635   6.745  0.1288  0.4007  0.1169
10013SOL    HW134401  10.091   3.694   6.715 -0.1174  0.3249  0.5332
10013SOL    HW234402  10.155   3.560   6.686 -0.2064  0.3511  0.2091
10014SOL     OW34403   0.609   9.589   3.861 -0.0506 -0.1559  0.2362
10014SOL    HW134404   0.572   9.676   3.873 -0.9958 -0.2230 -1.7172
10014SOL    HW234405   0.698   9.605   3.827 -0.0226  0.0419  0.4027
10015SOL     OW34406   4.002   3.346   9.368  0.1632 -0.5952  0.0467
10015SOL    HW134407   4.012   3.367   9.275  0.8486 -0.9828  0.0314
10015SOL    HW234408   4.051   3.414   9.414 -0.6481 -0.0643  0.1673
10016SOL     OW34409   1.390   5.063   8.770  0.5886 -0.4469 -0.4770
10016SOL    HW134410   1.436   5.024   8.844  0.6291 -0.5999 -0.5836
10016SOL    HW234411   1.317   5.004   8.753 -1.1346  1.0224  1.2683
10017SOL     OW34412   8.226   0.871   3.775  0.4758 -0.2108 -0.2646
10017SOL    HW134413   8.282   0.935   3.730  0.9358 -1.0618 -0.9348
10017SOL    HW234414   8.137   0.898   3.753  0.6476  0.3886 -0.2595
10018SOL     OW34415   2.174   3.986   7.934  0.2189 -0.0080  0.2679
10018SOL    HW134416   2.085   3.956   7.955 -0.0765 -0.1394 -1.0640
10018SOL    HW234417   2.161   4.060   7.875  0.9535 -1.8032 -2.3053
10019SOL     OW34418   3.852   2.928   5.863  0.2399  0.6618 -0.2925
10019SOL    HW134419   3.770   2.901   5.903  0.6390 -1.8201 -0.9918
10019SOL    HW234420   3.890   2.990   5.925 -1.3710  0.5820  0.8325
10020SOL     OW34421   6.410   0.887   6.866  0.0327  0.3396 -0.1503
10020SOL    HW134422   6.338   0.879   6.804 -0.1119 -0.4676  0.1044
10020SOL    HW234423   6.434   0.797   6.886 -1.9290  0.3926  3.2510
10021SOL     OW34424   7.709   3.573   0.823 -0.2771 -0.4404 -0.4364
10021SOL    HW134425   7.646   3.508   0.792 -1.1492  0.9579 -1.7577
10021SOL    HW234426   7.656   3.651   0.840  0.8456  0.1730  0.3232
10022SOL     OW34427   0.638   9.257  10.303 -0.0279  0.1374  0.3879
10022SOL    HW134428   0.581   9.328  10.333 -0.6923 -0.5500  0.7759
10022SOL    HW234429   0.719   9.270  10.352 -0.9190 -0.6755  2.1600
10023SOL     OW34430   6.673   1.497   9.126 -0.2335  0.4841 -0.1274
10023SOL    HW134431   6.717   1.429   9.075 -0.2270  1.6770 -1.7831
10023SOL    HW234432   6.636   1.450   9.201  0.8428 -1.1183 -0.5470
10024SOL     OW34433   6.888   0.024   0.406 -0.5346  0.8791 -0.1784
10024SOL    HW134434   6.857  -0.024   0.329 -0.0362  0.3038 -0.0228
10024SOL    HW234435   6.982   0.003   0.411 -0.6220  0.6871  0.7497
10025SOL     OW34436   4.776   2.365   6.344  0.3958 -0.6945 -0.5990
10025SOL    HW134437   4.725   2.295   6.304 -1.4301  0.8352 -1.1059
10025SOL    HW234438   4.836   2.321   6.403 -0.7779 -2.6576 -0.8042
10026SOL     OW34439   4.732   7.880   8.440 -0.1276  0.3630  0.1060
10026SOL    HW134440   4.768   7.816   8.501 -1.0251 -0.1661  0.1059
10026SOL    HW234441   4.802   7.944   8.427  1.2827 -1.3036 -0.9128
10027SOL     OW34442   0.605   8.335   0.407  0.1674  0.0855  0.0809
10027SOL    HW134443   0.541   8.381   0.462 -0.2926 -0.3123 -0.1084
10027SOL    HW234444   0.634   8.400   0.343 -0.1470  0.2338  0.0876
10028SOL     OW34445   9.610   1.934   1.835  0.4998 -0.5878  1.1688
10028SOL    HW134446   9.540   1.999   1.834  0.0404 -1.0119 -1.3702
10028SOL    HW234447   9.569   1.857   1.875 -0.5278 -0.8085 -0.2161
10029SOL     OW34448  10.603   5.890   5.115  0.2180  0.0004 -0.0663
10029SOL    HW134449  10.656   5.920   5.189 -1.6526  1.8048  0.6591
10029SOL    HW234450  10.615   5.958   5.049 -0.9196  0.2821  0.0007
10030SOL     OW34451  10.538   2.413   6.283  0.3815 -0.2172 -0.5616
10030SOL    HW134452  10.510   2.454   6.202  0.0890 -1.1613 -0.9581
10030SOL    HW234453  10.582   2.332   6.255  0.2973 -0.5395  0.2059
10031SOL     OW34454   8.012   1.180   3.216 -0.0276  0.6421 -0.3091
10031SOL    HW134455   8.052   1.222   3.292 -0.8463  1.5680 -0.3840
10031SOL    HW234456   7.966   1.104   3.253 -1.8185  2.0110  0.3772
10032SOL     OW34457   4.365   6.658   8.506 -0.1190 -0.3509 -0.4003
10032SOL    HW134458   4.460   6.653   8.497 -0.1902 -1.9981 -0.6132
10032SOL    HW234459   4.337   6.716   8.435  0.7035 -0.1226 -0.5470
10033SOL     OW34460   2.706  10.384  10.624  0.4902 -0.2624  0.4542
10033SOL    HW134461   2.727  10.465  10.669  0.2383  0.0141  0.0819
10033SOL    HW234462   2.612  10.373  10.639  0.3973 -0.1439 -0.0426
10034SOL     OW34463   4.452   7.869   0.173 -0.0412  0.2363 -0.2875
10034SOL    HW134464   4.469   7.817   0.094 -1.4160  1.0234 -1.1514
10034SOL    HW234465   4.509   7.945   0.164 -0.8989  0.8199 -1.0707
10035SOL     OW34466   8.153   8.688   8.887 -1.0550 -0.4930  0.1885
10035SOL    HW134467   8.139   8.675   8.981  0.7058 -0.6079  0.4707
10035SOL    HW234468   8.247   8.673   8.874 -0.8353  1.6825 -1.2329
10036SOL     OW34469   5.925   8.213   2.750 -0.1094 -0.2384 -0.0825
10036SOL    HW134470   5.894   8.273   2.817  0.5251 -1.3591  1.2591
10036SOL    HW234471   6.015   8.193   2.776  0.1810 -0.6322 -1.3262
10037SOL     OW34472   9.223   7.533   8.890 -0.0289  0.0291  0.3400
10037SOL    HW134473   9.243   7.596   8.959  1.7347 -1.1854  1.0143
10037SOL    HW234474   9.281   7.558   8.818 -0.7874  0.3753 -0.1683
10038SOL     OW34475   8.084   5.603   7.547 -0.2583  0.3164 -0.3676
10038SOL    HW134476   8.154   5.560   7.596 -0.3839 -2.6365 -2.5462
10038SOL    HW234477   8.119   5.689   7.525  0.9153  0.6042  2.2349
10039SOL     OW34478   5.336   7.337   1.575 -0.5391  0.6643 -0.8762
10039SOL    HW134479   5.382   7.330   1.491  0.1767 -0.7518 -0.4015
10039SOL    HW234480   5.244   7.343   1.551 -0.6551 -2.5998 -1.8031
10040SOL     OW34481   3.707   5.936   2.151  0.3250  0.3168  0.2291
10040SOL    HW134482   3.701   5.856   2.099 -0.0326  0.3892  0.1555
10040SOL    HW234483   3.652   5.920   2.228 -0.6799  0.9071 -0.3440
10041SOL     OW34484   3.153   2.365   1.080  0.1632 -0.2642  0.7301
10041SOL    HW134485   3.088   2.322   1.025  0.2848 -0.0387  0.4039
10041SOL    HW234486   3.230   2.308   1.076  1.8547  1.8952 -3.0997
10042SOL     OW34487   4.837   2.447   9.006  0.7767  0.1745  0.0460
10042SOL    HW134488   4.792   2.516   9.054  0.3653  0.0779 -0.1908
10042SOL    HW234489   4.918   2.488   8.974 -0.5137  1.2595 -2.0258
10043SOL     OW34490  10.909   8.602   7.533  0.1142  0.4997  0.1404
10043SOL    HW134491  10.876   8.687   7.501  0.7095  0.7521  0.1735
10043SOL    HW234492  10.895   8.605   7.628  1.2290  1.0724  0.3029
10044SOL     OW34493   4.544   8.236   5.642  0.0101  0.0378 -0.3004
10044SOL    HW134494   4.502   8.149   5.643  0.0775 -0.0095  1.0620
10044SOL    HW234495   4.588   8.241   5.727 -1.8795  2.3111  0.6384
10045SOL     OW34496   4.798   4.972   3.872  0.0889  0.2710  0.1632
10045SOL    HW134497   4.707   4.999   3.871 -0.2273 -0.1810  3.8174
10045SOL    HW234498   4.844   5.043   3.916  1.4191  0.1784 -0.9985
10046SOL     OW34499   0.086   6.747   7.045 -0.2392  0.3387 -0.5960
10046SOL    HW134500   0.084   6.775   6.954 -0.9921  0.6097 -0.4998
10046SOL    HW234501   0.023   6.803   7.090  0.7867  0.8309  0.2836
10047SOL     OW34502   7.960  10.125   4.744  0.6537  0.2119  0.4087
10047SOL    HW134503   7.910  10.141   4.824 -0.4109 -0.0935 -0.1811
10047SOL    HW234504   7.957  10.208   4.696  0.8885  0.2510  0.4599
10048SOL     OW34505   2.252   5.520   5.602  0.4177  0.2100  0.0405
10048SOL    HW134506   2.279   5.610   5.586 -0.1114  0.4894  0.6946
10048SOL    HW234507   2.238   5.483   5.515  2.2475  0.2475 -0.3102
10049SOL     OW34508   2.854   4.492   9.747  0.4091  0.6948  0.3941
10049SOL    HW134509   2.867   4.586   9.736 -1.8619  0.8392 -2.0737
10049SOL    HW234510   2.931   4.453   9.706  0.5464  1.4695 -0.1089
10050SOL     OW34511   0.790   7.974   4.783  0.1812 -0.7100  0.2012
10050SOL    HW134512   0.730   7.951   4.854  0.8445 -0.5198  0.8293
10050SOL    HW234513   0.736   7.967   4.704 -1.4104  1.9745  0.9155
10051SOL     OW34514  10.605   6.514   4.056 -0.3726  0.3053  0.1506
10051SOL    HW134515  10.521   6.548   4.087 -0.1846 -0.3157  1.4038
10051SOL    HW234516  10.630   6.449   4.121  0.6021 -0.2471 -0.7411
10052SOL     OW34517   7.255   8.230   8.116  0.1937  0.2832 -1.2738
10052SOL    HW134518   7.322   8.274   8.167 -1.0940  0.6371  0.1762
10052SOL    HW234519   7.191   8.299   8.095 -2.1967 -0.8398  1.5877
10053SOL     OW34520   8.082   4.366   4.337  0.6755 -0.4741 -0.2704
10053SOL    HW134521   8.123   4.293   4.384 -1.2082 -0.8811  0.8214
10053SOL    HW234522   8.012   4.325   4.286  1.4917  0.2158 -2.0249
10054SOL     OW34523   5.873   7.196   9.908 -0.1082  0.3343  0.6172
10054SOL    HW134524   5.836   7.192   9.997 -2.8492 -1.1725 -0.4424
10054SOL    HW234525   5.858   7.286   9.880 -0.1180  0.5633  1.3342
10055SOL     OW34526   3.010   8.883   1.672  0.3702  0.2990  0.1242
10055SOL    HW134527   2.963   8.882   1.589  1.4355 -2.6682 -0.5717
10055SOL    HW234528   3.067   8.959   1.666  0.5734  0.0426 -2.0021
10056SOL     OW34529   8.646   9.603   8.910  0.6916  0.5151 -0.3045
10056SOL    HW134530   8.684   9.539   8.849  0.7877  0.9984 -0.7575
10056SOL    HW234531   8.552   9.584   8.909  0.9425 -1.0809  1.2823
10057SOL     OW34532   0.606   7.545   3.901  0.1527  0.3985 -0.3442
10057SOL    HW134533   0.700   7.534   3.911  0.4734  0.6161 -2.6863
10057SOL    HW234534   0.585   7.499   3.820 -1.6870  0.7612 -0.1185
10058SOL     OW34535   5.025   0.828   6.550 -0.0605  0.0623 -0.3612
10058SOL    HW134536   5.036   0.734   6.567  0.0669  0.0393 -0.5640
10058SOL    HW234537   5.080   0.845   6.474  0.0758  0.3454 -0.1984
10059SOL     OW34538   4.973   5.514  10.359  0.3434  0.7616  0.7470
10059SOL    HW134539   4.882   5.529  10.331 -0.1060 -0.8955  1.2230
10059SOL    HW234540   5.004   5.601  10.387 -0.8880  1.4635  0.0311
10060SOL     OW34541   2.770   6.168   0.012 -0.2675  0.0264 -0.4486
10060SOL    HW134542   2.698   6.186  -0.048 -0.5339 -0.1635 -0.1910
10060SOL    HW234543   2.733   6.106   0.075 -0.4583  1.4072  0.8329
10061SOL     OW34544   7.792   4.029   8.979  0.0117  0.1028  0.0913
10061SOL    HW134545   7.755   3.992   9.059 -0.1719 -0.2889 -0.1726
10061SOL    HW234546   7.883   4.050   9.002 -0.0164 -0.0842  0.3770
10062SOL     OW34547   5.359   6.858   9.978 -0.1919 -0.1431 -0.1266
10062SOL    HW134548   5.315   6.776  10.001  0.5128 -0.3864  0.3801
10062SOL    HW234549   5.309   6.925  10.026 -0.3080 -0.3656  0.0673
10063SOL     OW34550   7.505   1.010   7.775 -0.1491 -0.0270  0.1758
10063SOL    HW134551   7.533   0.946   7.841  0.3810  0.4648  0.4320
10063SOL    HW234552   7.583   1.062   7.757 -0.5323  0.4371 -0.1631
10064SOL     OW34553   4.877   9.387   8.253 -0.3892 -0.1792  0.0506
10064SOL    HW134554   4.921   9.461   8.212  0.0283 -0.8241 -0.6952
10064SOL    HW234555   4.783   9.405   8.242 -0.3961  1.5783  2.3218
10065SOL     OW34556   9.431   3.960  10.914  0.1634  0.4612  0.2407
10065SOL    HW134557   9.394   3.998  10.994 -0.5108  0.8172 -0.2245
10065SOL    HW234558   9.469   3.877  10.942 -3.3377 -1.2802  0.3691
10066SOL     OW34559   8.276   9.529   0.479 -0.6466 -0.0730  0.2311
10066SOL    HW134560   8.246   9.596   0.418  1.1459 -0.9331 -1.7230
10066SOL    HW234561   8.364   9.505   0.447 -0.8289 -2.6564  1.4146
10067SOL     OW34562   8.518   0.134   3.177 -0.0569 -0.6539  0.4746
10067SOL    HW134563   8.527   0.039   3.185 -0.4260 -0.7709 -0.3290
10067SOL    HW234564   8.576   0.158   3.104 -0.3809 -0.3504  0.3093
10068SOL     OW34565   6.179   3.381   8.733  0.2839 -0.5673  0.1309
10068SOL    HW134566   6.085   3.376   8.754  0.2547  0.3512  0.2635
10068SOL    HW234567   6.213   3.450   8.790  1.0491 -0.9002  0.0887
10069SOL     OW34568   1.427   6.492   0.944  0.0771  0.3774 -0.1689
10069SOL    HW134569   1.339   6.503   0.907 -0.3463  0.2073  0.7401
10069SOL    HW234570   1.481   6.462   0.871 -0.4168  1.3471 -0.9433
10070SOL     OW34571  10.241   5.224   5.511 -0.0260 -0.1547 -1.1483
10070SOL    HW134572  10.263   5.311   5.477 -1.5383  0.3255 -0.9777
10070SOL    HW234573  10.153   5.206   5.477 -0.9590 -0.3400  1.1807
10071SOL     OW34574  11.050   7.798   3.736 -0.0908 -0.3475 -0.2763
10071SOL    HW134575  11.106   7.746   3.794  0.4270 -0.9252 -1.2681
10071SOL    HW234576  11.092   7.792   3.650  1.3324  3.6736 -0.0388
10072SOL     OW34577   3.723   1.559   7.391 -0.0738  0.7163 -0.1197
10072SOL    HW134578   3.720   1.612   7.311  0.4412 -0.5108 -0.9703
10072SOL    HW234579   3.662   1.488   7.376  0.3976  0.1973  0.3783
10073SOL     OW34580   9.110   5.429   9.177  0.1811 -0.4911  0.5531
10073SOL    HW134581   9.087   5.451   9.267  0.2975  0.8676  0.2635
10073SOL    HW234582   9.026   5.407   9.137  0.2379 -2.0764  1.2192
10074SOL     OW34583   6.664   0.070   2.346  0.0907  0.4446  0.1492
10074SOL    HW134584   6.653   0.095   2.254  0.2220  0.8961  0.2508
10074SOL    HW234585   6.580   0.092   2.387  0.1391  0.5408  0.1982
10075SOL     OW34586   0.885   5.516   9.551  0.0081  0.2217 -0.0499
10075SOL    HW134587   0.793   5.519   9.527  0.0907  0.1419 -0.3873
10075SOL    HW234588   0.928   5.574   9.489  0.3031 -0.4459 -0.4751
10076SOL     OW34589   2.715   7.578   6.515  0.6771 -0.2369 -0.0604
10076SOL    HW134590   2.745   7.488   6.499 -0.1926 -0.7646  1.0872
10076SOL    HW234591   2.686   7.577   6.606 -2.7584  0.2145 -1.0111
10077SOL     OW34592   5.558   9.561   5.764  0.2378 -0.3623  0.1131
10077SOL    HW134593   5.531   9.471   5.745  0.5329 -0.6650  1.0766
10077SOL    HW234594   5.582   9.560   5.857 -0.8221  0.9634  0.4419
10078SOL     OW34595   3.069   9.359  10.151 -0.0223  0.4514 -0.1418
10078SOL    HW134596   3.011   9.290  10.118 -0.4204  0.3915  0.6468
10078SOL    HW234597   3.021   9.396  10.225  0.0655  1.7676 -0.7218
10079SOL     OW34598   2.973   9.802   4.522 -0.7329  0.3581  0.4419
10079SOL    HW134599   3.047   9.767   4.571  0.6205  1.1798 -0.9074
10079SOL    HW234600   2.968   9.894   4.548  0.5941  1.0578 -1.5024
10080SOL     OW34601   8.797   2.553   9.230  0.7277 -0.1893 -0.2605
10080SOL    HW134602   8.775   2.522   9.142 -1.9749  1.0225 -0.1148
10080SOL    HW234603   8.791   2.474   9.285 -1.0778 -0.3607 -0.6552
10081SOL     OW34604   1.553   7.663   7.672  0.0914 -0.2141 -0.6250
10081SOL    HW134605   1.623   7.692   7.614  0.8831 -0.9439 -0.0570
10081SOL    HW234606   1.479   7.719   7.650  1.3577  1.7983 -0.0473
10082SOL     OW34607   5.856   8.485  10.036 -0.0665  0.1945  0.4659
10082SOL    HW134608   5.873   8.427   9.962  0.0823  0.0015  0.6491
10082SOL    HW234609   5.800   8.554  10.000 -0.2140 -0.0415  0.2359
10083SOL     OW34610  10.255   4.920   3.942  0.0259  0.1195 -0.2053
10083SOL    HW134611  10.266   4.843   3.998  0.3023  0.5034  0.2738
10083SOL    HW234612  10.340   4.932   3.899 -0.0012  0.1890 -0.2418
10084SOL     OW34613   3.665   9.789   1.232 -0.2586 -0.2731 -0.2927
10084SOL    HW134614   3.593   9.849   1.213 -0.5681 -0.2257  0.9397
10084SOL    HW234615   3.622   9.709   1.264  0.1341 -1.2533 -2.0599
10085SOL     OW34616   6.372   4.484   2.554 -0.0068  0.3796  0.0434
10085SOL    HW134617   6.295   4.526   2.516  0.0494  0.8762  0.4827
10085SOL    HW234618   6.426   4.556   2.586  0.4395  0.0115  0.1340
10086SOL     OW34619   4.176   0.543   4.551  0.0814 -0.1421  0.8359
10086SOL    HW134620   4.166   0.600   4.627 -1.2888 -1.4549  1.6989
10086SOL    HW234621   4.226   0.468   4.583  1.2216  0.1855 -0.0968
10087SOL     OW34622   7.006   2.508   8.699  0.0788 -0.3433  0.1145
10087SOL    HW134623   6.924   2.544   8.666  0.0967  0.5381  1.0039
10087SOL    HW234624   7.073   2.571   8.673  0.2817 -0.3466  0.6245
10088SOL     OW34625   9.192  10.881   2.481 -0.3696  0.5676  0.2447
10088SOL    HW134626   9.220  10.834   2.559  0.9942 -0.1047 -0.6133
10088SOL    HW234627   9.270  10.930   2.454 -0.7017  0.4805 -0.9129
10089SOL     OW34628   9.722   9.633   9.037 -0.3434  0.0216  0.0275
10089SOL    HW134629   9.642   9.612   9.084 -0.5964  0.0213 -0.3934
10089SOL    HW234630   9.717   9.727   9.020  1.6577  0.9487  3.5458
10090SOL     OW34631   9.259   9.291   4.078 -0.2717  0.1388  0.3743
10090SOL    HW134632   9.297   9.287   3.991  0.4155 -0.0524  0.6745
10090SOL    HW234633   9.216   9.206   4.089  1.7428 -0.8446  1.1362
10091SOL     OW34634   4.766   0.843   0.956 -0.0690 -0.4857  0.5421
10091SOL    HW134635   4.684   0.815   0.997 -0.6872  0.2548 -0.1539
10091SOL    HW234636   4.815   0.886   1.027  0.2929 -2.0312  1.2741
10092SOL     OW34637   8.958   1.956   4.615 -0.4319 -0.3871 -0.1662
10092SOL    HW134638   9.036   1.946   4.561  0.0662  0.7902  0.2988
10092SOL    HW234639   8.988   1.937   4.704 -1.1078 -1.7153 -0.1976
10093SOL     OW34640   5.889   5.660   5.567  0.2762  0.4241 -0.3631
10093SOL    HW134641   5.880   5.593   5.499  1.5418 -2.4507  2.0928
10093SOL    HW234642   5.979   5.692   5.558  0.0415  0.9832 -0.7943
10094SOL     OW34643  10.915  10.094   0.611 -0.2156  0.2352 -0.1014
10094SOL    HW134644  10.937  10.045   0.690  0.6130  1.3042  0.3521
10094SOL    HW234645  10.982  10.069   0.547  0.1223  0.6579  0.0841
10095SOL     OW34646  10.108   1.560   3.164  0.1438 -0.0716 -0.0913
10095SOL    HW134647  10.161   1.510   3.102  0.0744 -1.4795  0.9262
10095SOL    HW234648  10.027   1.578   3.117 -0.1360 -1.6096 -0.2506
10096SOL     OW34649   0.815   0.698   4.102 -0.3740 -0.0745 -0.9238
10096SOL    HW134650   0.770   0.778   4.074 -0.4490  1.0696  2.1065
10096SOL    HW234651   0.908   0.721   4.101 -0.5112  1.6646  3.7718
10097SOL     OW34652   3.813   6.411   8.055 -0.6810  0.0743 -0.0514
10097SOL    HW134653   3.718   6.404   8.046 -0.4522 -1.6233 -1.7646
10097SOL    HW234654   3.836   6.349   8.123 -0.8477  1.1130  0.9816
10098SOL     OW34655   6.626   1.785   9.068 -0.0444 -0.2450  0.0249
10098SOL    HW134656   6.569   1.762   8.995 -0.3268 -1.8452  0.7153
10098SOL    HW234657   6.689   1.713   9.073  1.5559  1.0630 -0.1808
10099SOL     OW34658  10.728   0.976   0.398  0.5489  0.1881  0.2077
10099SOL    HW134659  10.780   1.043   0.441 -0.1947  0.7625  0.2223
10099SOL    HW234660  10.670   0.942   0.466 -0.6174  1.0846 -0.2948
10100SOL     OW34661   1.884   9.634   7.497  0.1896 -0.0612  0.1793
10100SOL    HW134662   1.973   9.612   7.471  0.2161 -0.8125  0.8599
10100SOL    HW234663   1.877   9.728   7.483  1.0908  0.0019  0.1188
10101SOL     OW34664   1.269   0.798   2.430 -0.0564 -0.2929 -0.5349
10101SOL    HW134665   1.230   0.727   2.481 -1.6736  2.9109  3.2782
10101SOL    HW234666   1.197   0.859   2.415  1.2734  0.7052 -3.4832
10102SOL     OW34667   2.631   5.002   4.117 -0.1165  0.1368  0.0827
10102SOL    HW134668   2.717   5.039   4.097  1.2105 -1.4834  2.3070
10102SOL    HW234669   2.648   4.910   4.136 -2.1514 -0.0088  1.5900
10103SOL     OW34670   3.557   8.619   6.837  0.1525 -0.2058 -0.2468
10103SOL    HW134671   3.646   8.582   6.841 -0.5642 -1.9975  0.5232
10103SOL    HW234672   3.514   8.569   6.768 -0.2349  0.7391 -0.6975
10104SOL     OW34673  10.972   2.076   1.672 -0.2383 -0.4523 -0.2783
10104SOL    HW134674  10.878   2.058   1.679 -0.0650 -1.1072  0.5584
10104SOL    HW234675  11.013   1.989   1.675  0.4612 -0.0984  0.6935
10105SOL     OW34676  10.052   4.820   1.791  0.4139  0.0912 -0.1781
10105SOL    HW134677  10.097   4.824   1.706  1.2503  0.6242  0.2754
10105SOL    HW234678  10.109   4.767   1.846  0.9698  1.4868  0.6548
10106SOL     OW34679   3.312   4.922   8.923  0.0932 -0.1356 -0.1666
10106SOL    HW134680   3.316   4.840   8.875 -1.5905  0.0277 -0.6472
10106SOL    HW234681   3.307   4.896   9.015  0.2972 -0.5463 -0.2703
10107SOL     OW34682  10.900   9.030  10.083  0.1377  0.2751 -0.1137
10107SOL    HW134683  10.844   9.086  10.137  1.1617 -0.0811  1.3754
10107SOL    HW234684  10.987   9.041  10.120  0.8731 -0.0739 -1.6546
10108SOL     OW34685   9.961   7.037   5.126  0.2163  0.2081  0.5682
10108SOL    HW134686   9.988   7.115   5.174  1.9452 -0.3698  0.6178
10108SOL    HW234687   9.965   7.064   5.034  3.8521 -0.5495  0.3447
10109SOL     OW34688   4.192   6.268   0.918 -0.1560  0.1820  0.3614
10109SOL    HW134689   4.171   6.176   0.901 -2.8759  0.6206  0.8816
10109SOL    HW234690   4.132   6.317   0.863  0.1120  1.6370  1.3133
10110SOL     OW34691   5.752   1.276   3.429 -0.5283  0.3590 -0.0504
10110SOL    HW134692   5.724   1.239   3.513  1.2357 -2.3799 -0.5235
10110SOL    HW234693   5.671   1.292   3.381 -1.4816 -1.3209  0.9113
10111SOL     OW34694  10.108   6.305   7.019  0.1439 -0.1146 -0.0364
10111SOL    HW134695  10.111   6.225   7.071 -1.0174  0.6670  1.2986
10111SOL    HW234696  10.061   6.280   6.939 -0.5054 -0.7036  0.5138
10112SOL     OW34697   3.464   9.123   3.192  0.4365 -0.1202 -0.8211
10112SOL    HW134698   3.384   9.160   3.154  1.5777  1.0603 -2.2173
10112SOL    HW234699   3.448   9.029   3.196 -0.7082  0.0110 -1.8450
10113SOL     OW34700   7.399   2.268   7.128 -0.0802 -0.3606 -0.4201
10113SOL    HW134701   7.392   2.173   7.128  1.4290 -0.4969 -1.0787
10113SOL    HW234702   7.414   2.292   7.037  0.3429  0.4420 -0.1538
10114SOL     OW34703   4.595   7.250   6.191  0.7016 -0.8748  0.2610
10114SOL    HW134704   4.591   7.211   6.278  0.3586 -1.8624 -0.1800
10114SOL    HW234705   4.687   7.239   6.165  0.1946 -3.3662 -0.7025
10115SOL     OW34706   1.240   8.763   5.765  0.4955 -0.4167  0.5221
10115SOL    HW134707   1.271   8.678   5.734  0.9148 -0.8429  2.0170
10115SOL    HW234708   1.145   8.757   5.760  0.5377 -0.6841 -0.0842
10116SOL     OW34709   9.940   5.319   4.903 -0.1529 -0.0753  0.0524
10116SOL    HW134710   9.876   5.301   4.834 -1.1106 -1.2078  1.1853
10116SOL    HW234711   9.966   5.233   4.934 -0.2005  0.4072  1.5059
10117SOL     OW34712   9.038   9.063  11.043 -0.4661  0.4963 -0.1906
10117SOL    HW134713   9.067   9.119  10.971  0.8327 -0.9057 -0.8077
10117SOL    HW234714   8.987   8.994  11.000  0.4695 -0.4505  0.1884
10118SOL     OW34715   7.357   3.488   0.485  0.3320 -0.1113  0.5124
10118SOL    HW134716   7.265   3.464   0.474  0.7037 -1.1805 -0.3987
10118SOL    HW234717   7.355   3.583   0.499 -0.8622 -0.0055 -0.2207
10119SOL     OW34718  10.690   9.202   0.428  0.1404  0.1575  0.7209
10119SOL    HW134719  10.707   9.289   0.464 -1.2841  0.4027  0.8782
10119SOL    HW234720  10.734   9.141   0.488  0.4986  0.7304  1.0428
10120SOL     OW34721   9.647   9.385  10.769 -0.4870 -0.1574 -0.2077
10120SOL    HW134722   9.576   9.323  10.752 -1.0498  0.5576 -0.5618
10120SOL    HW234723   9.646   9.444  10.693  2.1535 -1.5976 -1.5164
10121SOL     OW34724   2.193   8.073   7.337 -0.4885 -0.4301  0.0158
10121SOL    HW134725   2.110   8.052   7.381  0.9784 -2.2423  2.1279
10121SOL    HW234726   2.206   8.166   7.354 -2.0281 -0.1146 -0.3392
10122SOL     OW34727   0.932   4.448   7.241  0.2351 -0.0002  0.2788
10122SOL    HW134728   1.006   4.508   7.256 -0.1305 -0.0491  2.6764
10122SOL    HW234729   0.862   4.505   7.210  0.5329  0.4769  0.4530
10123SOL     OW34730   9.892   2.093   9.914 -0.5613  0.1503  0.6190
10123SOL    HW134731   9.953   2.153   9.956  1.4498 -1.0075 -0.4720
10123SOL    HW234732   9.853   2.144   9.843 -1.3299  1.0597  1.6599
10124SOL     OW34733   9.926   1.826   8.594 -0.5746 -0.3942  0.8992
10124SOL    HW134734   9.853   1.785   8.641 -0.0282 -0.8204  1.3797
10124SOL    HW234735   9.963   1.756   8.540  0.1480 -0.4500  1.4607
10125SOL     OW34736   8.282   2.408   7.061  0.1653  0.0690 -0.0751
10125SOL    HW134737   8.190   2.421   7.035  0.3471 -2.7145 -2.5960
10125SOL    HW234738   8.332   2.452   6.992  0.6875 -1.1960 -0.5237
10126SOL     OW34739   3.641   7.390   2.245 -0.1400  0.0679 -0.1212
10126SOL    HW134740   3.645   7.484   2.266 -1.8196 -0.2087  1.8477
10126SOL    HW234741   3.723   7.355   2.279  0.5539  0.8294 -0.9737
10127SOL     OW34742   7.411   9.229  10.428 -0.1764  0.9709  0.4793
10127SOL    HW134743   7.454   9.148  10.457  0.7309  1.3815  0.3133
10127SOL    HW234744   7.319   9.217  10.452 -0.0214 -0.0331  0.6202
10128SOL     OW34745   6.596   5.800   2.735  0.5773  0.1241 -0.3590
10128SOL    HW134746   6.645   5.882   2.737  0.8425 -0.0362 -0.2488
10128SOL    HW234747   6.505   5.826   2.721  0.2558  0.6208  2.1510
10129SOL     OW34748   0.284   6.689   8.856  0.1961 -0.3029  0.5648
10129SOL    HW134749   0.359   6.683   8.797  0.5568  2.7359  0.5545
10129SOL    HW234750   0.254   6.599   8.866  1.5368 -1.1940 -2.4011
10130SOL     OW34751  10.664   0.368   3.568  0.1988 -0.4320  0.2277
10130SOL    HW134752  10.596   0.432   3.590  0.4319 -0.2753  0.4926
10130SOL    HW234753  10.732   0.382   3.633  0.6967 -0.2687 -0.3226
10131SOL     OW34754   7.190   7.181   4.064  0.0811  0.5801 -0.5828
10131SOL    HW134755   7.130   7.174   3.990  1.3987 -0.8403 -1.5858
10131SOL    HW234756   7.277   7.176   4.024  0.8338  0.3081  1.0135
10132SOL     OW34757   4.326   1.991  10.835 -0.5349 -0.2663 -0.2116
10132SOL    HW134758   4.420   1.997  10.821 -0.6881 -0.8793 -1.6963
10132SOL    HW234759   4.315   1.920  10.898  0.1141  1.6197  2.1603
10133SOL     OW34760   1.499   5.713   3.473 -0.4003  0.5575  0.3038
10133SOL    HW134761   1.457   5.713   3.559 -1.3960 -1.5146 -0.1264
10133SOL    HW234762   1.576   5.656   3.484 -1.1615 -0.6458 -0.4196
10134SOL     OW34763   1.733   2.591   1.587 -0.0906  0.3084 -0.3515
10134SOL    HW134764   1.793   2.602   1.661 -0.6172 -0.8978  0.2806
10134SOL    HW234765   1.746   2.500   1.560 -3.1721 -0.7475  1.2344
10135SOL     OW34766   2.711   3.473   5.562  0.9223 -0.2525  0.1651
10135SOL    HW134767   2.764   3.421   5.502  2.5342  2.0580 -0.5427
10135SOL    HW234768   2.680   3.547   5.509  0.6809  0.7737  1.6617
10136SOL     OW34769   2.201   8.551   5.998 -0.7135 -0.1047 -0.5148
10136SOL    HW134770   2.109   8.541   5.974 -0.5636 -0.6944 -0.8862
10136SOL    HW234771   2.249   8.530   5.917 -0.1705 -2.6697  0.3922
10137SOL     OW34772   6.123   3.686   7.773  0.5197  0.2705  0.1608
10137SOL    HW134773   6.127   3.591   7.766 -0.8066  0.1800  0.2579
10137SOL    HW234774   6.112   3.703   7.867 -0.4947  0.4315  0.0281
10138SOL     OW34775   3.433  10.115   5.618  0.2932 -0.1703  0.7665
10138SOL    HW134776   3.350  10.090   5.579  0.5097 -2.3813  1.5346
10138SOL    HW234777   3.424  10.091   5.711  2.6788 -3.3530  0.3830
10139SOL     OW34778   1.648   1.525   0.733  0.1148  0.2470 -0.0628
10139SOL    HW134779   1.642   1.451   0.673  0.0343  0.6012 -0.4925
10139SOL    HW234780   1.557   1.546   0.754  0.0129  1.5908 -1.6373
10140SOL     OW34781   0.485   0.026   7.964 -0.3240 -0.0673 -0.2189
10140SOL    HW134782   0.433  -0.032   8.019 -1.2933  1.4171  0.4945
10140SOL    HW234783   0.428   0.101   7.948  0.2786 -0.0203 -2.4867
10141SOL     OW34784   3.500   8.870   5.414 -0.7828 -0.0490 -0.2041
10141SOL    HW134785   3.564   8.911   5.357  1.7873 -2.7394  0.4773
10141SOL    HW234786   3.463   8.799   5.362 -0.1851 -1.0090  0.6245
10142SOL     OW34787  10.584   3.000  11.043  0.0191 -0.0189 -0.0178
10142SOL    HW134788  10.522   3.061  11.004 -1.5334 -1.3235  0.2955
10142SOL    HW234789  10.647   2.982  10.973  0.6347  2.0529 -0.0359
10143SOL     OW34790   8.503   9.077   9.081 -0.2903  0.0229 -0.0917
10143SOL    HW134791   8.464   9.028   9.154  1.1980  0.4567  1.0386
10143SOL    HW234792   8.470   9.166   9.092  0.9596  0.3942  0.8754
10144SOL     OW34793   9.024   6.499   3.954  0.1949  0.0217  0.4553
10144SOL    HW134794   8.931   6.499   3.930  0.1509  0.0968  0.6214
10144SOL    HW234795   9.045   6.407   3.968  0.7607 -0.2625 -1.8903
10145SOL     OW34796  11.098   5.393   7.103  0.0733 -0.1516 -0.1999
10145SOL    HW134797  11.043   5.451   7.156 -0.1704  0.8610 -1.5157
10145SOL    HW234798  11.076   5.305   7.134  0.9569  0.4303  2.3291
10146SOL     OW34799   9.527   0.148   0.606 -0.4513  0.0545 -0.8518
10146SOL    HW134800   9.451   0.095   0.580 -0.6176  0.3014 -0.8711
10146SOL    HW234801   9.576   0.162   0.525 -1.2358  1.2513 -1.1399
10147SOL     OW34802   1.998   1.865   6.948  0.4613  0.7897  0.0220
10147SOL    HW134803   1.946   1.855   7.027  2.5050 -0.4258  1.3126
10147SOL    HW234804   1.953   1.933   6.898 -1.9245  0.2895  1.3287
10148SOL     OW34805   8.870   6.151  10.841  0.1875 -0.3316 -0.5526
10148SOL    HW134806   8.810   6.157  10.767 -1.3188 -1.1076  0.5536
10148SOL    HW234807   8.900   6.059  10.840 -0.2242 -0.4765  0.0729
10149SOL     OW34808   7.115   3.703   8.699  0.2572 -0.0045  0.1657
10149SOL    HW134809   7.071   3.784   8.726 -0.1966 -0.1774 -0.0500
10149SOL    HW234810   7.044   3.644   8.675  0.5961 -0.4001  0.1262
10150SOL     OW34811   5.133  10.851   5.670  0.1997 -0.0376  0.2320
10150SOL    HW134812   5.111  10.851   5.763 -1.7112  2.3594 -0.1282
10150SOL    HW234813   5.206  10.912   5.662 -0.6154  0.9384  0.0184
10151SOL     OW34814   8.943   0.518   7.090 -0.2551 -0.0299  0.8016
10151SOL    HW134815   8.878   0.537   7.157  0.9051  0.1975  1.8932
10151SOL    HW234816   8.894   0.473   7.021 -1.3086 -1.1022  2.2040
10152SOL     OW34817   1.921   8.955   7.957  0.0567  0.0779  0.0830
10152SOL    HW134818   1.962   8.877   7.995  0.3026  0.1011 -0.1290
10152SOL    HW234819   1.987   9.024   7.967 -0.9739  0.8483  2.3151
10153SOL     OW34820   2.606   4.717   5.886 -0.6738 -0.9604  0.0330
10153SOL    HW134821   2.701   4.723   5.876 -0.9200  1.0488 -1.7190
10153SOL    HW234822   2.583   4.631   5.852  0.6688 -2.4229  2.5303
10154SOL     OW34823   8.683   8.173   2.444 -0.0789 -0.5033  0.4343
10154SOL    HW134824   8.704   8.261   2.415  2.9166 -0.5341  2.1463
10154SOL    HW234825   8.593   8.179   2.476 -0.5675  1.4389 -1.1110
10155SOL     OW34826   8.798   9.033   2.739 -0.0806 -0.1244  0.1177
10155SOL    HW134827   8.824   8.981   2.663  1.9226  0.8243  0.0891
10155SOL    HW234828   8.751   8.972   2.796  0.0641 -1.3244 -1.0162
10156SOL     OW34829   1.452   9.847   2.595  0.3262  0.1194 -0.3368
10156SOL    HW134830   1.516   9.843   2.667 -1.1794 -0.0839  1.0378
10156SOL    HW234831   1.500   9.814   2.519  2.1334  0.8232  0.4185
10157SOL     OW34832   4.611   3.844  10.449  0.1511 -0.2518  0.3740
10157SOL    HW134833   4.541   3.909  10.455 -0.8419 -1.1965 -0.6049
10157SOL    HW234834   4.624   3.831  10.355  0.2834 -1.5167  0.5506
10158SOL     OW34835   3.279   3.430   2.020  0.5195 -0.1919  0.7524
10158SOL    HW134836   3.233   3.470   2.094  0.4189  1.0845  0.0262
10158SOL    HW234837   3.314   3.504   1.971  0.3352 -1.0135 -0.6554
10159SOL     OW34838   8.253   6.476   3.683 -0.8895  0.7199  0.4433
10159SOL    HW134839   8.304   6.401   3.716 -0.0804  0.8643 -0.4167
10159SOL    HW234840   8.189   6.437   3.624  1.0001  0.8157 -1.8061
10160SOL     OW34841   4.144   6.012   0.835 -0.3011 -0.1155 -0.0561
10160SOL    HW134842   4.225   5.990   0.880  0.3784 -0.7549 -1.5103
10160SOL    HW234843   4.151   5.968   0.750 -2.9861 -1.6961  0.4346
10161SOL     OW34844   1.124  10.495   7.603  0.0210 -0.0471 -0.1633
10161SOL    HW134845   1.106  10.433   7.533 -0.1998 -0.0682 -0.0886
10161SOL    HW234846   1.190  10.554   7.567 -1.1720  0.8530 -0.9371
10162SOL     OW34847   1.242   3.418   2.506  0.2681 -0.1637  0.2220
10162SOL    HW134848   1.187   3.370   2.569  1.0891 -0.8291  0.4468
10162SOL    HW234849   1.322   3.437   2.554  0.5023  0.2139 -0.3140
10163SOL     OW34850   4.462   4.327   8.098  0.5765 -0.4176 -0.1642
10163SOL    HW134851   4.458   4.411   8.054  1.0166 -1.1635 -1.6954
10163SOL    HW234852   4.388   4.278   8.064  0.9572 -1.0383 -0.1139
10164SOL     OW34853   5.480  10.859   3.918  0.0488  0.2250  0.0600
10164SOL    HW134854   5.470  10.788   3.854 -1.3818  0.1004  0.3902
10164SOL    HW234855   5.482  10.939   3.866  0.6233  0.0173 -0.2450
10165SOL     OW34856  11.011   4.781   4.199 -0.0676 -0.6916  0.5852
10165SOL    HW134857  10.962   4.855   4.237 -0.4194 -0.1116 -0.9474
10165SOL    HW234858  11.101   4.796   4.227  0.1119  1.0728 -0.7679
10166SOL     OW34859  10.044   5.932   0.123  0.0972  0.5569 -0.0107
10166SOL    HW134860  10.001   5.859   0.078  2.7016 -0.0676 -1.7428
10166SOL    HW234861  10.049   6.001   0.056 -0.0786  1.3832  0.8160
10167SOL     OW34862   8.255   3.762   9.538  0.0123 -0.1365  0.5627
10167SOL    HW134863   8.178   3.759   9.594  0.6439 -0.5339  1.4465
10167SOL    HW234864   8.234   3.825   9.470 -0.7221  0.4754  1.3466
10168SOL     OW34865   5.683   0.750   1.975 -0.1290 -0.0131 -0.3123
10168SOL    HW134866   5.680   0.750   1.879  0.9726 -1.7133 -0.3924
10168SOL    HW234867   5.598   0.786   2.001 -0.6251  0.0707 -1.9243
10169SOL     OW34868  10.010   1.620   0.412  0.0716 -0.3348  0.2913
10169SOL    HW134869  10.088   1.569   0.390 -0.5040 -1.7671  1.4029
10169SOL    HW234870   9.958   1.619   0.331  1.2698  0.8833 -0.5581
10170SOL     OW34871   8.043   6.481   2.744 -0.0495 -0.1195  0.0943
10170SOL    HW134872   8.059   6.503   2.836 -1.3430 -0.1372  0.3402
10170SOL    HW234873   8.060   6.562   2.697  1.6639 -0.3780  0.1910
10171SOL     OW34874   1.869   7.165   1.080  0.2260 -0.6961  0.0239
10171SOL    HW134875   1.804   7.108   1.041  0.8131 -1.6637  0.4257
10171SOL    HW234876   1.937   7.175   1.013 -0.3642  0.4141 -0.4425
10172SOL     OW34877   7.011   3.666   7.749  0.4174 -0.2128  0.2332
10172SOL    HW134878   6.966   3.662   7.833 -2.0035 -0.9949 -0.9917
10172SOL    HW234879   7.010   3.759   7.725  1.9988  0.1518  1.4523
10173SOL     OW34880   4.120   9.163   7.796  0.0122  0.1531 -0.1644
10173SOL    HW134881   4.117   9.158   7.701 -1.3719  0.0259 -0.1419
10173SOL    HW234882   4.189   9.226   7.815  0.1095  0.3909 -1.2594
10174SOL     OW34883   2.442   0.919   4.159  0.1676 -0.5049  0.0964
10174SOL    HW134884   2.475   1.006   4.135  1.2777 -1.0816 -0.5935
10174SOL    HW234885   2.444   0.917   4.254  0.1913  0.2040  0.1126
10175SOL     OW34886   0.496   7.308   2.835  0.5640  0.2687  0.7552
10175SOL    HW134887   0.491   7.402   2.855 -0.2148  0.3019  0.4509
10175SOL    HW234888   0.422   7.292   2.776 -0.4832 -0.9087  2.3014
10176SOL     OW34889   7.194   2.655   8.219  0.3314  0.3229  0.6617
10176SOL    HW134890   7.250   2.587   8.181 -0.6134 -0.0179 -0.1412
10176SOL    HW234891   7.128   2.673   8.152  0.3523  1.7973  0.9870
10177SOL     OW34892   3.125  10.976   3.797 -0.1827 -0.2634 -0.0292
10177SOL    HW134893   3.211  10.936   3.788 -0.0027  0.3429 -1.2015
10177SOL    HW234894   3.121  11.004   3.888 -0.6692 -3.6521  1.0949
10178SOL     OW34895   2.703  10.871   7.694  0.1045 -0.0794 -0.2763
10178SOL    HW134896   2.656  10.859   7.776 -0.7362 -1.4938 -0.9338
10178SOL    HW234897   2.786  10.825   7.706  0.7584  1.2210  0.3816
10179SOL     OW34898   3.063  10.516   7.875 -0.3499  0.2923 -0.6028
10179SOL    HW134899   3.029  10.439   7.920 -1.6015  1.5928  0.7739
10179SOL    HW234900   3.110  10.481   7.800  1.0395 -1.9360  1.1816
10180SOL     OW34901   3.687   1.548   6.641  0.2118  0.2196  0.1895
10180SOL    HW134902   3.734   1.503   6.571 -0.9577 -0.0156 -0.4722
10180SOL    HW234903   3.633   1.480   6.681 -0.0045  0.6019  0.5494
10181SOL     OW34904   7.118   5.601   8.684  0.2618  0.1993  0.1928
10181SOL    HW134905   7.085   5.513   8.672 -0.5734  0.5984 -0.5289
10181SOL    HW234906   7.040   5.657   8.681  0.9230  1.1162 -1.0801
10182SOL     OW34907   0.890   8.567   1.390  0.0822  0.0278 -0.6613
10182SOL    HW134908   0.972   8.520   1.377 -0.0508 -0.3941 -0.0567
10182SOL    HW234909   0.889   8.634   1.322  0.4077 -0.6752 -1.3831
10183SOL     OW34910   1.901   3.782  10.216 -0.5283  0.1869  0.5500
10183SOL    HW134911   1.988   3.742  10.216 -0.8121 -0.4529  0.6464
10183SOL    HW234912   1.867   3.766  10.128 -0.7263  0.0287  0.6534
10184SOL     OW34913   1.461   9.649   7.261  0.2267 -0.0455  0.5822
10184SOL    HW134914   1.424   9.569   7.297  2.0226 -1.0940  0.1870
10184SOL    HW234915   1.520   9.682   7.329 -1.0591  1.4238  1.0673
10185SOL     OW34916   5.025   8.561   7.784  0.4230 -0.1326 -0.7549
10185SOL    HW134917   5.007   8.615   7.707  1.1151  2.7229  0.9631
10185SOL    HW234918   4.972   8.600   7.854  1.3273 -1.3962  0.6998
10186SOL     OW34919   3.724   6.539   4.252 -0.4071  0.0052 -0.4658
10186SOL    HW134920   3.696   6.630   4.260  0.0847  0.3478 -2.0713
10186SOL    HW234921   3.817   6.545   4.231 -0.1989 -0.9119  0.1530
10187SOL     OW34922   6.395   5.831   9.425 -0.0810  0.2209 -0.7222
10187SOL    HW134923   6.337   5.819   9.351  0.5669 -1.2366 -1.0347
10187SOL    HW234924   6.418   5.742   9.453 -0.3615  0.7124  1.2748
10188SOL     OW34925   4.544   5.221   0.857  0.0249 -0.5450 -0.2311
10188SOL    HW134926   4.462   5.233   0.808 -0.2487 -2.5288 -0.3362
10188SOL    HW234927   4.609   5.200   0.790  0.0419 -1.4974  0.0663
10189SOL     OW34928   8.617   6.877   3.947 -0.3887 -0.0920 -0.3834
10189SOL    HW134929   8.584   6.788   3.963  0.2652 -0.5699 -1.5073
10189SOL    HW234930   8.545   6.935   3.973 -0.6199 -0.9170  0.8988
10190SOL     OW34931   7.474   8.349   8.228 -0.2292  0.1676 -0.3377
10190SOL    HW134932   7.557   8.344   8.276  0.9643  0.5777 -2.2319
10190SOL    HW234933   7.437   8.434   8.252 -0.9429 -0.6626  1.7222
10191SOL     OW34934   0.044   6.638   1.663 -0.1769 -0.3509  0.4693
10191SOL    HW134935   0.010   6.619   1.750 -0.9256 -0.9740  0.0501
10191SOL    HW234936  -0.014   6.591   1.603 -0.7431  1.4543 -0.4955
10192SOL     OW34937   2.375   8.097   2.053  0.6435  0.3119 -0.5107
10192SOL    HW134938   2.406   8.078   2.142 -0.1235  0.0749 -0.2890
10192SOL    HW234939   2.283   8.071   2.054  1.0335 -1.2632 -1.8563
10193SOL     OW34940   1.809   3.995   4.308 -0.2605  0.0897 -0.2731
10193SOL    HW134941   1.889   4.015   4.259 -0.9484  0.6578 -1.1925
10193SOL    HW234942   1.823   4.035   4.393  0.5584 -0.0878 -0.3119
10194SOL     OW34943   3.949   3.482   7.114  0.2369 -0.6272  0.6118
10194SOL    HW134944   3.928   3.389   7.109  0.6215 -0.6837 -0.0595
10194SOL    HW234945   3.990   3.493   7.200 -1.7068 -0.6680  1.5919
10195SOL     OW34946   5.409   2.453   6.034 -0.0073  0.3102 -0.4812
10195SOL    HW134947   5.318   2.464   6.007 -0.1591 -0.1069 -0.1458
10195SOL    HW234948   5.440   2.542   6.050 -0.6475  0.3974  0.3324
10196SOL     OW34949   3.406   5.361   6.745  0.4024 -0.4540  0.2583
10196SOL    HW134950   3.373   5.366   6.655 -0.2978  1.0758  0.5856
10196SOL    HW234951   3.365   5.434   6.791  0.1714 -1.6285  2.0353
10197SOL     OW34952   3.287   4.748   4.175 -0.1003  0.1917 -0.1035
10197SOL    HW134953   3.296   4.671   4.230 -0.0008  1.4384  1.7361
10197SOL    HW234954   3.320   4.722   4.089 -1.8897 -2.3606 -0.1114
10198SOL     OW34955   8.244   0.251   7.710  0.4919  0.2750 -0.0068
10198SOL    HW134956   8.197   0.180   7.667  0.7288  0.2222 -0.1807
10198SOL    HW234957   8.331   0.215   7.728  0.8440  0.7483 -0.7304
10199SOL     OW34958   3.480   9.696   8.131 -0.2645 -0.0565 -0.3493
10199SOL    HW134959   3.478   9.682   8.036 -2.0717 -0.8933 -0.2283
10199SOL    HW234960   3.495   9.790   8.141 -0.1423  0.0555 -1.4643
10200SOL     OW34961   8.569   7.552  10.369  0.5146 -0.7421  0.1535
10200SOL    HW134962   8.483   7.513  10.351 -0.3167  1.4808 -0.9951
10200SOL    HW234963   8.589   7.602  10.290  1.4931  1.1695  1.5389
10201SOL     OW34964   8.392   7.216   8.257  0.2457  0.0399 -0.1622
10201SOL    HW134965   8.476   7.169   8.259  0.3532  0.2615  1.0387
10201SOL    HW234966   8.382   7.252   8.345 -1.6268 -0.8756  0.0460
10202SOL     OW34967   4.306   3.844   0.620  0.4007 -0.1929  0.1268
10202SOL    HW134968   4.255   3.824   0.698 -0.1593  0.0005 -0.1893
10202SOL    HW234969   4.373   3.906   0.650 -0.8725  1.2312  0.1166
10203SOL     OW34970   8.648   9.540   0.861  0.0061  0.0411 -0.1459
10203SOL    HW134971   8.730   9.559   0.815  0.1376  1.5825  0.6574
10203SOL    HW234972   8.591   9.614   0.841 -0.5183 -0.0900  0.8088
10204SOL     OW34973   5.117   4.250   3.972 -0.3332  0.2331  0.0846
10204SOL    HW134974   5.034   4.276   4.012 -0.4913 -0.4367  0.2078
10204SOL    HW234975   5.093   4.186   3.906  0.0676  0.1918 -0.0259
10205SOL     OW34976   4.154   8.041   2.725 -0.2805  0.5958 -0.4617
10205SOL    HW134977   4.196   7.960   2.754 -0.6708  0.8901  0.9631
10205SOL    HW234978   4.227   8.101   2.712 -0.0906  0.4290 -0.1890
10206SOL     OW34979   1.930   3.546   4.530 -0.4350 -0.2785  0.6425
10206SOL    HW134980   1.985   3.489   4.583 -0.7146 -0.7111  0.4783
10206SOL    HW234981   1.850   3.557   4.581 -0.6489 -0.5837  0.3804
10207SOL     OW34982   8.075   6.304   4.575 -0.4760  0.4087  0.0738
10207SOL    HW134983   8.030   6.322   4.657 -0.6090 -2.5573  0.7684
10207SOL    HW234984   8.005   6.290   4.511 -0.3766  1.8990 -0.4118
10208SOL     OW34985   1.863   4.525  10.283 -0.5086  0.0131 -0.1442
10208SOL    HW134986   1.810   4.448  10.262 -2.5901  1.8640 -2.1879
10208SOL    HW234987   1.801   4.587  10.321  0.6024  1.5013 -0.6714
10209SOL     OW34988   5.229   2.764   8.065  0.2677  0.2730 -0.1429
10209SOL    HW134989   5.325   2.767   8.057  0.3336 -1.6345 -0.4816
10209SOL    HW234990   5.201   2.703   7.997 -1.1619  0.4136  0.2926
10210SOL     OW34991   5.808   2.524   1.809  0.1966  0.1090 -0.3592
10210SOL    HW134992   5.715   2.521   1.830  0.0882  0.9567 -0.6903
10210SOL    HW234993   5.815   2.588   1.739  1.1591  0.8634  0.3991
10211SOL     OW34994  11.051   9.393   9.187 -0.5188 -0.1786  0.2711
10211SOL    HW134995  11.046   9.298   9.177 -1.5520 -0.1643  0.5721
10211SOL    HW234996  11.011   9.410   9.273 -0.2284  0.5168  0.2719
10212SOL     OW34997   6.459   0.630   3.727 -0.2269 -0.0892 -0.7802
10212SOL    HW134998   6.417   0.682   3.795 -1.0110  0.6264 -1.7866
10212SOL    HW234999   6.547   0.666   3.720 -0.4419  0.4378 -0.7893
10213SOL     OW35000   9.417   4.085   9.032  0.3185 -0.6055  0.1041
10213SOL    HW135001   9.455   4.000   9.054 -0.4613 -0.9441  0.1935
10213SOL    HW235002   9.472   4.149   9.078  0.3838 -1.1257  0.7625
10214SOL     OW35003  10.591   8.922   7.601 -0.2121  0.0018 -0.3376
10214SOL    HW135004  10.622   9.003   7.642 -2.6091  1.2745 -0.7888
10214SOL    HW235005  10.604   8.855   7.667  1.7388  0.7560  0.1034
10215SOL     OW35006   8.595   8.819   7.536 -0.2814  0.2982  1.3447
10215SOL    HW135007   8.589   8.911   7.561  0.4574  0.3639  1.2900
10215SOL    HW235008   8.675   8.788   7.577  0.8168  0.3328 -0.6536
10216SOL     OW35009   3.027   7.385   2.041 -0.1183 -1.0004 -0.4656
10216SOL    HW135010   3.122   7.381   2.046 -0.0632  0.3390  0.0389
10216SOL    HW235011   3.008   7.464   1.990 -0.9367 -0.2738  0.8736
10217SOL     OW35012   6.891   1.445   8.459  0.2045 -0.1432 -0.2191
10217SOL    HW135013   6.821   1.452   8.524  0.4736 -0.3347  0.0965
10217SOL    HW235014   6.922   1.534   8.448  0.4628 -0.1713  0.2594
10218SOL     OW35015   7.412   0.439   2.164 -0.0627  0.0445 -0.3941
10218SOL    HW135016   7.447   0.416   2.250 -0.6010  4.4684  1.2704
10218SOL    HW235017   7.333   0.385   2.155  0.9669 -1.7878  1.0377
10219SOL     OW35018   2.770   5.815   7.547 -0.4747  0.3241 -0.2959
10219SOL    HW135019   2.695   5.755   7.550 -0.8826  0.8525  0.1949
10219SOL    HW235020   2.764   5.865   7.628  0.8851 -0.1858  0.1438
10220SOL     OW35021   1.047   1.952   4.406  0.1172  0.8568 -0.0956
10220SOL    HW135022   1.072   2.044   4.407  0.9847  0.6375  1.6190
10220SOL    HW235023   1.024   1.932   4.497 -1.1960 -0.3298 -0.6550
10221SOL     OW35024   6.067  10.032  10.066  0.2290  0.2102  0.3243
10221SOL    HW135025   6.013  10.100  10.106 -0.3281  1.1939 -1.9601
10221SOL    HW235026   6.157  10.065  10.075  0.5381 -1.1242  3.5381
10222SOL     OW35027   8.808   5.212  10.534  0.1869  0.7225  0.0441
10222SOL    HW135028   8.814   5.298  10.576  0.1359  1.5846 -1.6267
10222SOL    HW235029   8.872   5.158  10.580  0.7180  1.8512  0.6738
10223SOL     OW35030  10.664   7.302   2.799 -0.5098  0.1311  0.1737
10223SOL    HW135031  10.624   7.243   2.735 -0.5179 -0.8529  1.0527
10223SOL    HW235032  10.703   7.244   2.865 -1.3130  1.0975  1.5732
10224SOL     OW35033   3.454   1.408   0.756 -0.2855  0.2804  0.5659
10224SOL    HW135034   3.436   1.403   0.662  3.0304 -0.3679 -0.1524
10224SOL    HW235035   3.515   1.336   0.773  0.3274  1.2565  2.9219
10225SOL     OW35036   8.728   7.377   9.724  0.0827  0.2387  0.4807
10225SOL    HW135037   8.720   7.469   9.751 -0.1645  0.3898 -0.0800
10225SOL    HW235038   8.820   7.368   9.700  0.2678  0.1442  1.2109
10226SOL     OW35039   5.707   1.054   0.943 -0.0106  0.2945  0.6583
10226SOL    HW135040   5.740   0.999   0.873 -0.4380  0.4384  0.3354
10226SOL    HW235041   5.618   1.078   0.915  0.0620  0.9094  0.9224
10227SOL     OW35042   6.145   4.573   2.404  0.2008 -0.6312  0.6872
10227SOL    HW135043   6.101   4.649   2.366 -1.8554 -1.2779  1.6105
10227SOL    HW235044   6.128   4.503   2.341 -1.2104 -1.1552  1.5834
10228SOL     OW35045   6.450   9.653   1.377 -0.9094  0.4245  0.0732
10228SOL    HW135046   6.368   9.605   1.361 -1.9202  2.1666 -0.2066
10228SOL    HW235047   6.482   9.675   1.289 -0.7251  0.7217  0.2162
10229SOL     OW35048   7.748   5.912   4.327  0.3185 -0.3038 -0.2603
10229SOL    HW135049   7.702   5.986   4.365  1.0734 -0.1343  0.3533
10229SOL    HW235050   7.713   5.835   4.373 -0.0856 -0.2809 -0.5262
10230SOL     OW35051   6.452   9.701   6.686  0.0482  0.2791 -0.5078
10230SOL    HW135052   6.477   9.609   6.672 -0.8487 -0.0183 -0.2440
10230SOL    HW235053   6.426   9.732   6.600 -1.8116 -0.4100 -0.2405
10231SOL     OW35054   7.716  10.338   4.707 -0.4640  0.4069  0.9777
10231SOL    HW135055   7.715  10.404   4.637  0.1568  1.0019  1.5115
10231SOL    HW235056   7.758  10.383   4.781 -0.0859 -0.5733  1.3725
10232SOL     OW35057   8.379   7.616   6.455  0.2487  0.0825 -0.5081
10232SOL    HW135058   8.409   7.676   6.386  1.1698 -0.3489 -0.5006
10232SOL    HW235059   8.402   7.660   6.537 -1.5804  0.9707 -0.4315
10233SOL     OW35060   8.586   6.852   6.889 -0.0695 -0.4360  0.2491
10233SOL    HW135061   8.637   6.930   6.870  0.9270 -0.9447  0.7627
10233SOL    HW235062   8.559   6.820   6.803  0.1987  0.0224 -0.0133
10234SOL     OW35063   2.108   5.846   3.458  0.1445 -0.0279  0.1159
10234SOL    HW135064   2.182   5.887   3.414 -0.3605 -0.7171 -1.4331
10234SOL    HW235065   2.078   5.912   3.521  0.6533  1.1435 -0.8323
10235SOL     OW35066   8.013   3.633   0.364 -0.1350 -0.6235  0.1101
10235SOL    HW135067   7.957   3.667   0.295 -1.6450 -0.8398  1.1686
10235SOL    HW235068   7.955   3.579   0.418  0.6441  0.5904  2.2979
10236SOL     OW35069   2.708   5.575   5.328  0.2970  0.2896  0.7684
10236SOL    HW135070   2.768   5.511   5.366  0.7276  0.5030  0.4504
10236SOL    HW235071   2.740   5.589   5.239  0.0636  0.7683  0.7568
10237SOL     OW35072   0.944   2.762   2.206 -0.2383  0.0620  0.4804
10237SOL    HW135073   0.953   2.712   2.287 -0.0941 -2.4239 -0.9603
10237SOL    HW235074   0.859   2.805   2.213  0.1548  0.6289  2.2852
10238SOL     OW35075   4.816   3.640   3.247 -0.2928  0.2745  0.1533
10238SOL    HW135076   4.900   3.657   3.203 -0.8349 -0.2190 -1.1382
10238SOL    HW235077   4.756   3.703   3.207 -0.7222  0.0523  0.4490
10239SOL     OW35078   6.712   5.809   1.946 -0.2682 -0.4204  0.2654
10239SOL    HW135079   6.676   5.780   1.862  0.6053 -0.5895 -0.0587
10239SOL    HW235080   6.702   5.733   2.003  0.6028 -0.8685 -0.1494
10240SOL     OW35081   8.090   8.196   1.602  0.4975  0.0970  0.1015
10240SOL    HW135082   8.168   8.251   1.600 -0.9581  2.2979 -0.6538
10240SOL    HW235083   8.020   8.255   1.631 -1.5360 -0.7691 -2.6122
10241SOL     OW35084   4.857   2.308   1.315  0.2630  0.2650 -0.0081
10241SOL    HW135085   4.929   2.304   1.378  0.0797 -0.1284  0.1820
10241SOL    HW235086   4.778   2.303   1.369  0.0787  1.2091 -0.1750
10242SOL     OW35087   6.743   6.332   0.522 -0.2035  0.0814 -0.1846
10242SOL    HW135088   6.829   6.342   0.563 -0.2002  0.6880 -0.3298
10242SOL    HW235089   6.726   6.238   0.524  0.2023  0.0145  0.3818
10243SOL     OW35090   7.793   7.633   7.641  0.2453  0.2076  0.0146
10243SOL    HW135091   7.764   7.699   7.578  1.0212 -0.4433 -1.0720
10243SOL    HW235092   7.871   7.672   7.682 -0.6498  0.9137  1.1010
10244SOL     OW35093   6.111   7.977  10.754 -0.5144  0.4226 -0.3766
10244SOL    HW135094   6.122   7.890  10.792  0.1903  0.4384 -0.5451
10244SOL    HW235095   6.119   8.037  10.829  0.4157  0.4251 -0.4717
10245SOL     OW35096   9.494   1.498   5.238  0.6252 -0.3434 -0.4598
10245SOL    HW135097   9.442   1.574   5.265 -1.1388 -2.0902  1.5384
10245SOL    HW235098   9.568   1.497   5.299  0.8123 -0.0595 -0.6830
10246SOL     OW35099   3.232   6.270   1.457 -0.1332 -0.5281  0.3437
10246SOL    HW135100   3.186   6.260   1.374 -0.1006  0.5606  0.1802
10246SOL    HW235101   3.166   6.249   1.523 -0.7223  0.4507  0.0895
10247SOL     OW35102   6.547   7.859   4.823 -0.6127 -0.1579  0.0443
10247SOL    HW135103   6.515   7.876   4.735 -2.5394 -0.8495  0.5539
10247SOL    HW235104   6.571   7.766   4.823  1.1361  0.2467 -0.2045
10248SOL     OW35105   1.655   0.189  10.033  0.3218  0.1646 -0.0436
10248SOL    HW135106   1.629   0.173   9.942 -0.2269 -0.7004  0.2541
10248SOL    HW235107   1.630   0.280  10.049 -3.5443 -0.7776  0.4944
10249SOL     OW35108  10.450   7.409   3.964 -0.0674 -0.1110 -0.0095
10249SOL    HW135109  10.535   7.416   4.007 -0.6005  1.2086  0.9095
10249SOL    HW235110  10.434   7.496   3.928 -1.5942  0.0854  1.0022
10250SOL     OW35111   2.778   2.715   8.016 -0.1037 -0.3801 -0.2012
10250SOL    HW135112   2.829   2.752   7.945 -3.3778  0.2893 -2.4289
10250SOL    HW235113   2.765   2.788   8.077  1.0347 -0.4080  0.0919
10251SOL     OW35114   7.401   1.984   8.392  0.4295  0.0267  0.1040
10251SOL    HW135115   7.358   1.947   8.469  0.4710  1.6838  0.9605
10251SOL    HW235116   7.413   1.909   8.333  0.5966 -1.3139  1.7708
10252SOL     OW35117   1.463   3.865   7.034  0.3318  0.6229 -0.3323
10252SOL    HW135118   1.395   3.859   7.101  1.3234  0.7198  0.7301
10252SOL    HW235119   1.489   3.774   7.017  0.1438  0.6037 -0.5138
10253SOL     OW35120   2.374   6.620   4.756 -0.1276 -0.2605  0.0307
10253SOL    HW135121   2.306   6.625   4.823 -0.4932  0.3342 -0.3729
10253SOL    HW235122   2.455   6.637   4.803 -0.4782  1.1547  0.1776
10254SOL     OW35123   1.366   8.000   7.260 -0.1652  0.2374  0.4886
10254SOL    HW135124   1.318   8.014   7.178 -1.0346 -0.1771  0.9117
10254SOL    HW235125   1.322   7.925   7.301  0.0674  0.6207  1.4715
10255SOL     OW35126   0.567  10.312   7.217 -0.0769  0.5744 -0.1107
10255SOL    HW135127   0.601  10.274   7.298 -1.6195  0.1105  0.3485
10255SOL    HW235128   0.478  10.277   7.209 -1.5806  3.9250  0.2580
10256SOL     OW35129   4.377   8.023   0.851  0.2061 -0.1466  0.4411
10256SOL    HW135130   4.416   8.100   0.892 -1.8313  2.2204 -1.7223
10256SOL    HW235131   4.287   8.021   0.882 -0.8515  0.6376 -2.2923
10257SOL     OW35132   7.158   2.190  10.193  0.7017 -0.2326 -0.0015
10257SOL    HW135133   7.094   2.190  10.121  0.5516 -4.2330 -0.1322
10257SOL    HW235134   7.105   2.179  10.272  1.0485  0.3149  0.3094
10258SOL     OW35135  10.434   1.760   7.492 -0.0389 -0.7978  0.0983
10258SOL    HW135136  10.419   1.834   7.551 -0.7774 -0.4594 -0.4946
10258SOL    HW235137  10.349   1.744   7.452  0.4264 -1.0666 -0.8074
10259SOL     OW35138   6.508   6.691   7.237 -0.6602  0.0382 -0.0702
10259SOL    HW135139   6.475   6.757   7.298 -1.0097  0.3409 -0.5818
10259SOL    HW235140   6.568   6.739   7.180 -0.4176 -0.2212 -0.0346
10260SOL     OW35141   3.233   4.212   3.692 -0.2594  0.4562 -0.2371
10260SOL    HW135142   3.139   4.201   3.682 -0.2299  0.6607 -0.7649
10260SOL    HW235143   3.266   4.123   3.704 -0.5184  0.3849 -0.0434
10261SOL     OW35144   0.748   0.657   2.199  0.2515  0.1664  0.0918
10261SOL    HW135145   0.842   0.673   2.198  0.1411  0.9782 -2.0121
10261SOL    HW235146   0.709   0.742   2.218 -0.0831 -0.5194  2.8703
10262SOL     OW35147  11.116  11.026   4.951 -0.0042 -0.0897 -1.2426
10262SOL    HW135148  11.195  11.007   5.001 -0.3508  1.6186  0.0378
10262SOL    HW235149  11.054  11.060   5.015 -1.1639  0.3096 -2.5240
10263SOL     OW35150   4.855   8.794   1.457  0.1057  0.1748 -0.1104
10263SOL    HW135151   4.791   8.779   1.387 -0.5236  0.3888  0.4017
10263SOL    HW235152   4.932   8.828   1.413  0.6989 -2.1862 -1.0418
10264SOL     OW35153  10.288   4.003   6.172 -0.3574 -0.6177  0.4931
10264SOL    HW135154  10.358   4.047   6.123 -0.9583 -0.3545 -0.1573
10264SOL    HW235155  10.213   4.006   6.113 -1.0710 -0.4159  1.3912
10265SOL     OW35156   9.072   0.838  10.736  0.2223  0.5300  0.2114
10265SOL    HW135157   9.044   0.793  10.816  1.2864  0.4888  0.5770
10265SOL    HW235158   9.084   0.929  10.762  0.3009  0.5714  0.0324
10266SOL     OW35159  10.498   5.215   5.342 -0.1291  0.2581  0.1001
10266SOL    HW135160  10.481   5.203   5.435 -2.0464 -2.9597 -0.5131
10266SOL    HW235161  10.593   5.228   5.337  0.2202 -0.8210  2.4356
10267SOL     OW35162   2.547   8.180   0.575 -0.4254 -0.7992  0.0876
10267SOL    HW135163   2.479   8.162   0.640  0.1078  2.2497  1.6811
10267SOL    HW235164   2.629   8.160   0.620 -0.1380 -1.9333 -0.9037
10268SOL     OW35165   6.645   5.883   3.519 -0.6539 -0.0218  0.1711
10268SOL    HW135166   6.674   5.946   3.585  0.0586 -0.4670  0.2964
10268SOL    HW235167   6.553   5.902   3.506 -0.6552  0.4691  0.8542
10269SOL     OW35168   0.488  10.618   1.664 -0.2041 -0.3977  0.1385
10269SOL    HW135169   0.420  10.551   1.670  0.2103 -0.9016 -0.7685
10269SOL    HW235170   0.518  10.615   1.573 -0.3016  1.1387  0.0349
10270SOL     OW35171   6.503  10.146   8.710 -0.5149 -0.1271  0.1554
10270SOL    HW135172   6.595  10.123   8.724 -0.2773 -0.6401 -1.8787
10270SOL    HW235173   6.458  10.115   8.789  0.9766 -0.3187  0.9689
10271SOL     OW35174   3.587   9.220   5.125 -0.2057 -0.4087 -0.0426
10271SOL    HW135175   3.630   9.209   5.040  0.8188  0.5255  0.3201
10271SOL    HW235176   3.593   9.314   5.142 -0.6548 -0.5488  0.9327
10272SOL     OW35177   1.140   8.555   5.956  0.5449  0.1053  0.5791
10272SOL    HW135178   1.177   8.473   5.924  1.0155  0.5761 -0.1010
10272SOL    HW235179   1.097   8.593   5.880  1.1038  0.9227  0.6714
10273SOL     OW35180   4.992   4.244   6.931  0.2342  0.1484  0.4539
10273SOL    HW135181   4.938   4.181   6.980 -1.3284  1.7839  0.9326
10273SOL    HW235182   5.060   4.270   6.993  0.8490 -0.9602  0.2793
10274SOL     OW35183   1.110  10.984   5.753  0.2500 -0.9573 -0.5649
10274SOL    HW135184   1.015  10.985   5.747  0.2167 -1.3593 -0.1581
10274SOL    HW235185   1.137  11.070   5.720 -0.3671 -0.1148  0.9707
10275SOL     OW35186   0.948  10.160   0.683  0.1553  0.6609  0.2927
10275SOL    HW135187   0.857  10.186   0.696  0.2901  1.3861 -0.1488
10275SOL    HW235188   0.983  10.151   0.772 -0.7345 -1.1169  0.4959
10276SOL     OW35189   7.481  10.261   4.827 -0.2046  0.5886  0.0711
10276SOL    HW135190   7.518  10.196   4.886 -0.2283  0.0990 -0.4349
10276SOL    HW235191   7.556  10.293   4.776 -0.6019 -1.3383 -1.8435
10277SOL     OW35192   4.296   5.127   2.034 -0.0522  0.3956  0.1196
10277SOL    HW135193   4.336   5.079   1.962 -1.3906 -0.0167 -0.3848
10277SOL    HW235194   4.327   5.217   2.022  1.2409 -0.0187  0.1609
10278SOL     OW35195   6.313  10.960   4.468 -0.1977 -0.3963  0.0126
10278SOL    HW135196   6.340  10.994   4.383 -0.6797 -0.4032 -0.1474
10278SOL    HW235197   6.350  11.021   4.532  1.6303 -1.3290 -0.0990
10279SOL     OW35198   3.001   0.496   7.300  0.0968 -0.5243  0.3306
10279SOL    HW135199   2.988   0.418   7.354  0.1146 -1.0587 -0.4140
10279SOL    HW235200   3.059   0.467   7.230 -0.7517 -0.1358 -0.5606
10280SOL     OW35201   3.870   9.761   5.500  0.0550  0.8022 -0.2144
10280SOL    HW135202   3.813   9.804   5.436  0.3037  3.0787  0.9799
10280SOL    HW235203   3.814   9.746   5.576  0.4354  0.7472  0.0569
10281SOL     OW35204   6.911   9.009   8.658 -1.0857 -0.2101 -0.2054
10281SOL    HW135205   7.001   8.996   8.627 -1.3867  1.7047 -2.1263
10281SOL    HW235206   6.877   8.920   8.668  0.9024 -0.9903  0.3096
10282SOL     OW35207   8.238   7.003   8.175 -0.0556  0.2843  0.8179
10282SOL    HW135208   8.159   7.048   8.146  0.1517  0.1127 -0.0327
10282SOL    HW235209   8.283   7.066   8.231  0.7257  1.5346 -1.1139
10283SOL     OW35210   9.108   0.643   3.325 -0.0032  0.2270  0.2813
10283SOL    HW135211   9.050   0.575   3.359 -0.0109 -0.2471 -0.6437
10283SOL    HW235212   9.088   0.721   3.377 -2.3396  0.4101 -0.7850
10284SOL     OW35213   7.260   9.699   2.015  0.0367 -0.4742  0.2310
10284SOL    HW135214   7.281   9.789   1.992  1.9137 -0.8552  0.2633
10284SOL    HW235215   7.166   9.691   2.000  0.0489  1.1397 -0.9357
10285SOL     OW35216   8.094   7.361   4.922 -0.0034  0.4413 -0.9252
10285SOL    HW135217   8.017   7.367   4.978 -1.0429 -2.0964 -1.9530
10285SOL    HW235218   8.061   7.329   4.838  2.2888 -2.4650 -0.9002
10286SOL     OW35219   8.289   5.584   9.793  0.2956  0.2178 -0.0019
10286SOL    HW135220   8.262   5.649   9.858 -1.8206 -0.6062  0.0125
10286SOL    HW235221   8.275   5.626   9.709 -0.8721 -0.1034  0.0139
10287SOL     OW35222   8.971   7.543   3.766 -0.3480  0.6948  0.2215
10287SOL    HW135223   8.920   7.616   3.731 -0.5699  1.1988  1.5288
10287SOL    HW235224   9.003   7.575   3.851  0.9566 -0.1329  0.0641
10288SOL     OW35225   4.766   3.277   8.592 -0.3633  0.0841  0.5894
10288SOL    HW135226   4.815   3.217   8.649  1.0486 -0.1064 -0.7535
10288SOL    HW235227   4.699   3.223   8.552 -0.8834  0.0517  1.4692
10289SOL     OW35228   2.854   4.048   4.920  0.3486 -0.0477  0.0452
10289SOL    HW135229   2.804   4.088   4.991  0.4976  1.8933 -0.8764
10289SOL    HW235230   2.818   3.960   4.912 -1.6152  0.6485  0.6845
10290SOL     OW35231   0.480   3.685   4.722  0.5365  0.5458  0.6165
10290SOL    HW135232   0.499   3.650   4.809 -0.4723 -0.2185  0.5494
10290SOL    HW235233   0.549   3.649   4.666  1.1471  0.9826  1.0827
10291SOL     OW35234   6.813   3.744   9.266  0.0197  0.4888 -0.2138
10291SOL    HW135235   6.820   3.811   9.334  0.0133 -0.3273  0.6135
10291SOL    HW235236   6.719   3.734   9.252  0.0335  1.0947 -0.8042
10292SOL     OW35237   1.761   6.051   6.468  0.2666  0.1787  0.8162
10292SOL    HW135238   1.803   6.020   6.388 -0.1057 -0.3492  0.8233
10292SOL    HW235239   1.832   6.056   6.532  0.0770 -2.4559  1.3545
10293SOL     OW35240   3.843   7.788   3.128 -1.1157  0.4553  0.3891
10293SOL    HW135241   3.775   7.740   3.081 -0.7979  0.6507 -0.2738
10293SOL    HW235242   3.905   7.816   3.061 -0.4584  0.4219  0.9620
10294SOL     OW35243   1.299   4.801   9.735 -0.3496  0.3260 -0.2175
10294SOL    HW135244   1.334   4.797   9.824 -0.0786 -0.4856 -0.3542
10294SOL    HW235245   1.374   4.827   9.682 -0.1884 -0.4231 -0.3722
10295SOL     OW35246   4.619   1.988   9.855 -0.3733 -0.2283  0.2534
10295SOL    HW135247   4.561   2.032   9.917 -0.6816 -1.6331  1.0061
10295SOL    HW235248   4.706   1.997   9.892 -0.5604 -1.0940  0.9495
10296SOL     OW35249  10.325   3.281   3.619  0.2050  0.0788  0.1474
10296SOL    HW135250  10.247   3.240   3.656 -1.9148  1.4849 -2.4093
10296SOL    HW235251  10.364   3.328   3.693 -1.0780 -1.0374  1.6042
10297SOL     OW35252   4.364   9.793   4.671 -0.2920 -0.1335 -0.2221
10297SOL    HW135253   4.430   9.723   4.672 -0.6938 -0.6139 -2.5744
10297SOL    HW235254   4.282   9.749   4.692  0.0100  0.4552  2.6434
10298SOL     OW35255   3.076   4.127   7.497  0.6025  0.2974  0.3312
10298SOL    HW135256   3.041   4.128   7.408 -1.6423 -1.7290  1.0897
10298SOL    HW235257   3.046   4.209   7.536 -1.0756 -0.1744  0.1125
10299SOL     OW35258   4.715   6.489   6.535 -0.0963  0.5551  0.3942
10299SOL    HW135259   4.721   6.408   6.584  0.6204  0.9538  0.9757
10299SOL    HW235260   4.804   6.524   6.534 -0.0327  0.4621 -1.3675
10300SOL     OW35261   5.973   1.328   4.335 -0.1086 -0.0316 -0.2611
10300SOL    HW135262   6.054   1.280   4.318  0.0993  1.2528 -3.6393
10300SOL    HW235263   5.998   1.397   4.396  0.3230 -1.9749  1.9278
10301SOL     OW35264   0.769   3.016   0.203 -0.2775  0.1935 -0.5545
10301SOL    HW135265   0.854   2.973   0.206 -0.5548 -0.3382 -0.3248
10301SOL    HW235266   0.790   3.109   0.190  0.2974 -0.1278 -2.1686
10302SOL     OW35267   7.403   8.949   2.974  0.3694 -0.5794 -0.2029
10302SOL    HW135268   7.342   8.986   2.910 -0.0135  0.3139  0.6494
10302SOL    HW235269   7.490   8.974   2.940  0.1456  0.4537 -0.0511
10303SOL     OW35270   5.401   8.991   6.264 -0.3268  0.0219 -0.5068
10303SOL    HW135271   5.384   9.062   6.203  0.6054  0.4346 -0.3059
10303SOL    HW235272   5.379   8.912   6.215 -0.5734  0.3981 -1.0166
10304SOL     OW35273  10.284   6.020   3.463 -0.3381  0.0821  0.2459
10304SOL    HW135274  10.233   6.095   3.495  1.0412  1.7225 -1.2120
10304SOL    HW235275  10.270   5.952   3.530 -0.6426  2.0331  2.2950
10305SOL     OW35276  10.240   9.818   2.162 -0.5725  0.3323  0.1404
10305SOL    HW135277  10.250   9.723   2.170 -1.0415  0.0355 -2.1331
10305SOL    HW235278  10.260   9.851   2.249  1.8622 -1.6379  0.4499
10306SOL     OW35279  10.039   9.324   9.799 -0.7158  0.3106  0.0320
10306SOL    HW135280  10.068   9.396   9.857 -1.7020 -0.2632  1.2904
10306SOL    HW235281  10.051   9.245   9.852  1.3517 -0.6427 -1.6919
10307SOL     OW35282   6.907   6.526   0.897 -0.6943 -0.1657 -0.1386
10307SOL    HW135283   6.916   6.616   0.929 -0.3594 -0.0586 -0.5223
10307SOL    HW235284   6.986   6.511   0.844 -0.3725 -0.9446  0.5350
10308SOL     OW35285   3.172   8.536   7.692 -0.2578  0.0751 -0.0654
10308SOL    HW135286   3.142   8.499   7.609 -2.1782 -0.5219  0.8365
10308SOL    HW235287   3.116   8.612   7.706  0.6622  0.7085  0.2691
10309SOL     OW35288   8.392   3.073   6.908 -0.3907 -0.0953 -0.3030
10309SOL    HW135289   8.326   3.071   6.839 -0.0605 -0.7024 -0.6089
10309SOL    HW235290   8.475   3.077   6.861 -0.2026  0.5944  0.0767
10310SOL     OW35291   3.586  10.692  10.969 -0.0342 -0.0806  0.7910
10310SOL    HW135292   3.669  10.719  11.008 -0.5833  1.0726  1.2267
10310SOL    HW235293   3.523  10.700  11.041 -0.4710 -1.2963  0.5704
10311SOL     OW35294   8.063   3.580   4.142 -0.3789 -0.3161  0.8858
10311SOL    HW135295   8.021   3.536   4.069 -1.2663  3.1795 -0.9435
10311SOL    HW235296   8.156   3.585   4.118 -0.3140 -0.9251  0.9991
10312SOL     OW35297  10.787   4.457   7.892 -0.0430 -0.1423  0.4543
10312SOL    HW135298  10.711   4.414   7.853  0.1884  0.3024 -0.5094
10312SOL    HW235299  10.850   4.386   7.908  0.1317 -0.2414 -0.6346
10313SOL     OW35300   7.572  10.739  10.064 -0.5859  0.0181  0.3153
10313SOL    HW135301   7.551  10.692   9.984  1.5784 -1.1456  0.3331
10313SOL    HW235302   7.526  10.692  10.133  0.9019 -1.6910  0.2207
10314SOL     OW35303   5.127   2.093   5.471  0.0230  0.1958 -0.5789
10314SOL    HW135304   5.053   2.087   5.531 -0.8734 -0.0867 -1.6751
10314SOL    HW235305   5.129   2.185   5.444  0.5495  0.3656  0.0293
10315SOL     OW35306   2.389   8.758   5.393 -0.9170 -0.3124  0.9175
10315SOL    HW135307   2.356   8.824   5.454  0.0056  0.6649  0.3920
10315SOL    HW235308   2.342   8.775   5.311  0.3638  0.6971  0.3446
10316SOL     OW35309  10.324   9.596   6.204 -0.2691 -0.0827  0.6970
10316SOL    HW135310  10.311   9.501   6.202  1.4154 -0.3648  1.4506
10316SOL    HW235311  10.297   9.625   6.117 -1.8332 -1.0798  0.7956
10317SOL     OW35312   4.965   7.297  10.922  0.2670  0.0046  0.1211
10317SOL    HW135313   4.936   7.235  10.855 -0.7663 -1.0315  1.4720
10317SOL    HW235314   5.055   7.317  10.899  0.9793 -2.7803  0.1624
10318SOL     OW35315   8.158   2.194   9.780 -0.2145  1.0037 -0.2827
10318SOL    HW135316   8.202   2.268   9.736  0.1201 -0.8536 -3.3636
10318SOL    HW235317   8.230   2.146   9.823 -0.4927  2.5921  2.1847
10319SOL     OW35318   8.962   6.979   2.225  0.4592  0.3100  0.1506
10319SOL    HW135319   9.034   6.998   2.285  0.3632  0.1948  0.3043
10319SOL    HW235320   8.996   7.001   2.138  0.4870  0.7882  0.2811
10320SOL     OW35321  10.632   6.600   9.560 -0.3118 -0.0051 -0.2662
10320SOL    HW135322  10.677   6.521   9.529 -0.3883 -0.1217 -0.0781
10320SOL    HW235323  10.592   6.575   9.643 -1.2465 -0.0779 -0.7218
10321SOL     OW35324   6.719   1.466   9.697  0.2050 -0.1526  0.6043
10321SOL    HW135325   6.623   1.474   9.698  0.0462 -1.6853 -0.0452
10321SOL    HW235326   6.736   1.382   9.739  1.1850 -0.5512 -0.5696
10322SOL     OW35327   1.976   3.596   7.802  0.2675 -0.3412 -0.1638
10322SOL    HW135328   1.935   3.519   7.763 -0.6059  0.3802 -0.6840
10322SOL    HW235329   1.950   3.593   7.894 -0.0866 -0.4575 -0.2688
10323SOL     OW35330   3.217  10.060  10.512 -0.0698  0.4953 -0.2131
10323SOL    HW135331   3.288  10.125  10.510  0.3687  0.1472  1.9366
10323SOL    HW235332   3.234  10.008  10.590 -0.6353 -2.0037 -1.6282
10324SOL     OW35333   4.159   4.944   4.455  0.2175 -0.5705  0.0184
10324SOL    HW135334   4.214   5.009   4.498 -0.5237  1.3927 -1.7711
10324SOL    HW235335   4.141   4.878   4.522  0.2501  1.5655  2.2676
10325SOL     OW35336   8.719   9.864   6.155  0.3455 -0.4799 -0.0221
10325SOL    HW135337   8.777   9.937   6.130 -0.1708  0.5650  1.6723
10325SOL    HW235338   8.743   9.844   6.245 -2.3765  0.5033  1.0150
10326SOL     OW35339   0.368  10.983   5.871  0.0134  0.2850  0.1192
10326SOL    HW135340   0.363  11.058   5.931 -1.8115 -0.7083  1.3199
10326SOL    HW235341   0.327  10.912   5.919  0.8357 -1.2549 -1.3697
10327SOL     OW35342   7.470   3.987   6.152  0.2668 -0.3408 -0.4808
10327SOL    HW135343   7.397   4.031   6.196 -0.5146 -2.0689  0.0225
10327SOL    HW235344   7.441   3.976   6.062  0.8205  0.8746 -0.8398
10328SOL     OW35345   8.874   0.573   9.949  0.1988  0.0616  0.1808
10328SOL    HW135346   8.902   0.512  10.017  1.2407  0.7988  0.4371
10328SOL    HW235347   8.881   0.660   9.989 -0.4319  0.4187 -0.4507
10329SOL     OW35348   1.529   5.884   0.421 -0.7907 -0.1177 -0.6115
10329SOL    HW135349   1.565   5.973   0.424 -0.1925 -0.3554 -0.6521
10329SOL    HW235350   1.577   5.841   0.350 -1.0033 -0.5084 -0.5225
10330SOL     OW35351   4.068  10.761   7.356  0.2201 -0.1513  0.4044
10330SOL    HW135352   4.060  10.855   7.340  3.1171 -0.0497 -1.0503
10330SOL    HW235353   4.001  10.721   7.300 -0.8055  0.9632  0.7821
10331SOL     OW35354   7.311   2.387   8.486  0.1707  0.8247 -0.2892
10331SOL    HW135355   7.218   2.362   8.492 -0.1874  1.6441 -1.8008
10331SOL    HW235356   7.339   2.396   8.577  0.1486 -4.1201  0.4605
10332SOL     OW35357   5.295   3.161   2.513  0.0090 -0.4000 -0.1558
10332SOL    HW135358   5.323   3.082   2.465 -1.2821 -1.2098  0.3633
10332SOL    HW235359   5.340   3.155   2.597  0.9575  0.1354 -0.6129
10333SOL     OW35360   6.382   9.902   4.598  0.1905 -0.2932  0.0999
10333SOL    HW135361   6.314   9.904   4.532  0.4003 -0.0203 -0.1119
10333SOL    HW235362   6.363   9.825   4.651 -1.7328  1.1311  1.6024
10334SOL     OW35363   8.463   3.919   1.728  0.4819 -0.2671 -0.0173
10334SOL    HW135364   8.511   3.866   1.791 -0.2659 -1.0585 -0.1094
10334SOL    HW235365   8.526   3.987   1.702  0.7304  0.2300  1.7413
10335SOL     OW35366   9.130   1.537   8.117  0.6092 -0.3474  0.2032
10335SOL    HW135367   9.208   1.572   8.161  0.4651  0.4559 -0.1772
10335SOL    HW235368   9.122   1.589   8.037 -1.3079  0.7819  1.0624
10336SOL     OW35369   7.197   6.645   2.866 -0.2597 -0.1067 -0.2812
10336SOL    HW135370   7.149   6.728   2.870 -1.3817 -0.6093 -2.3604
10336SOL    HW235371   7.287   6.669   2.890 -0.6739  1.5968 -0.2970
10337SOL     OW35372   3.772   5.115   1.979 -0.4694 -0.0783  0.2013
10337SOL    HW135373   3.809   5.042   1.929 -1.9103 -1.0027  0.4123
10337SOL    HW235374   3.763   5.186   1.916  2.1579  0.4171  0.2764
10338SOL     OW35375   0.804   6.228   0.355  0.0785 -0.2017 -0.2028
10338SOL    HW135376   0.773   6.162   0.294 -0.2663 -3.0539  2.8043
10338SOL    HW235377   0.859   6.181   0.417  0.3480  2.4493  1.7819
10339SOL     OW35378   1.593   4.231  10.629 -0.1682 -0.0447 -0.2170
10339SOL    HW135379   1.548   4.147  10.639  0.3569 -0.3769 -0.5590
10339SOL    HW235380   1.683   4.207  10.606  0.0321  0.6119 -0.1363
10340SOL     OW35381  10.113   1.255   1.109  0.0667  0.0216  0.1849
10340SOL    HW135382  10.160   1.178   1.141 -0.7718 -0.8688 -0.6410
10340SOL    HW235383  10.139   1.263   1.018 -2.2962 -1.3166 -0.7132
10341SOL     OW35384  11.069   5.040   2.506 -0.5127 -1.0730 -0.3644
10341SOL    HW135385  11.064   5.023   2.412 -2.0179  3.0480 -1.2577
10341SOL    HW235386  11.161   5.059   2.522 -0.6820  1.5497 -1.9043
10342SOL     OW35387   4.090   9.320   6.045 -0.2683 -0.1116  0.7803
10342SOL    HW135388   4.010   9.352   6.087 -1.6169 -0.6016 -1.2315
10342SOL    HW235389   4.061   9.290   5.958  2.0560 -0.6305  0.1028
10343SOL     OW35390   0.247   4.812   2.378  0.5159  0.7500 -0.7657
10343SOL    HW135391   0.255   4.879   2.446  0.8117  1.0549 -1.0964
10343SOL    HW235392   0.189   4.746   2.416  0.2670  1.1651 -0.4114
10344SOL     OW35393   1.003   5.668   8.828 -0.4107 -0.3283 -0.2834
10344SOL    HW135394   0.975   5.760   8.827 -0.2950 -0.2881  0.2539
10344SOL    HW235395   1.098   5.672   8.832 -0.4342 -0.4730  0.4787
10345SOL     OW35396   7.602   5.494   3.379  0.2305 -0.4912  0.4263
10345SOL    HW135397   7.610   5.527   3.469  2.7263  0.8454 -0.2170
10345SOL    HW235398   7.522   5.534   3.346 -0.1403 -0.1462  1.6974
10346SOL     OW35399   6.177   5.555   2.336 -0.1393  0.3928  0.1907
10346SOL    HW135400   6.117   5.556   2.262  0.3048 -0.8911 -0.2133
10346SOL    HW235401   6.132   5.503   2.402  0.9834 -1.6531 -0.5664
10347SOL     OW35402   1.341   2.317   6.121  0.0831  0.4851  0.1096
10347SOL    HW135403   1.285   2.254   6.075 -0.1990  0.7955  0.0272
10347SOL    HW235404   1.430   2.293   6.095  0.0251 -0.3546  0.6675
10348SOL     OW35405   3.225   2.681   6.235  0.3990 -0.4841 -0.4900
10348SOL    HW135406   3.291   2.744   6.207  0.8403 -1.4709 -1.7711
10348SOL    HW235407   3.266   2.634   6.308 -0.5298  1.7023  1.5657
10349SOL     OW35408   9.675   1.748   1.441 -0.0295  0.6243  0.2025
10349SOL    HW135409   9.620   1.727   1.516 -0.0764  0.2966  0.0802
10349SOL    HW235410   9.631   1.707   1.367 -0.3340  1.5059 -0.1141
10350SOL     OW35411   0.147   4.005   6.676 -0.7822 -0.2232  0.1126
10350SOL    HW135412   0.150   3.962   6.761  0.4833 -0.8461 -0.2295
10350SOL    HW235413   0.134   3.934   6.613 -0.5544  0.0966 -0.3030
10351SOL     OW35414  11.030   4.452  10.352  0.1863 -0.1054 -0.0679
10351SOL    HW135415  11.037   4.537  10.395  1.4652  0.0247 -0.4703
10351SOL    HW235416  10.989   4.395  10.417 -0.8234  0.8421  0.1480
10352SOL     OW35417   4.015  10.088   0.599 -0.3253 -0.1685  0.9731
10352SOL    HW135418   4.077  10.034   0.550  0.2238 -0.2653  1.7532
10352SOL    HW235419   4.007  10.046   0.684 -0.0483  0.8437  1.5231
10353SOL     OW35420   9.094   3.874   1.067  0.3688  0.1141  0.1425
10353SOL    HW135421   9.068   3.959   1.101  0.5640 -0.5490  2.0563
10353SOL    HW235422   9.037   3.811   1.111 -1.0082 -0.7083 -2.5424
10354SOL     OW35423   1.650   9.219   5.605  0.3489 -0.1284  0.0997
10354SOL    HW135424   1.556   9.230   5.617  0.3295 -0.5836  0.4074
10354SOL    HW235425   1.669   9.260   5.521  0.4623  3.2004  1.6059
10355SOL     OW35426   8.700   2.376   5.067 -0.0708  0.1161 -0.8455
10355SOL    HW135427   8.762   2.308   5.041  0.5152  0.1382  0.4385
10355SOL    HW235428   8.743   2.458   5.042 -0.0004  0.0928 -0.8025
10356SOL     OW35429   8.537   2.912  10.326  0.4844 -0.0892 -0.3057
10356SOL    HW135430   8.469   2.883  10.266  0.3681  0.0438 -0.2387
10356SOL    HW235431   8.610   2.940  10.270  0.1795  0.5342 -0.4029
10357SOL     OW35432   4.585   5.488   5.348 -0.3640  0.3902  0.1788
10357SOL    HW135433   4.552   5.443   5.425  0.2303 -0.6047 -0.1220
10357SOL    HW235434   4.535   5.452   5.275 -0.5495  0.9296  0.0323
10358SOL     OW35435   2.708   8.778  10.213 -0.1137  0.3040 -0.3301
10358SOL    HW135436   2.756   8.795  10.132  1.5138  1.4166  0.8099
10358SOL    HW235437   2.617   8.764  10.185  0.8997 -2.8088 -2.6745
10359SOL     OW35438   3.929  10.444   8.135  0.8650  0.9714 -0.5349
10359SOL    HW135439   3.969  10.399   8.061  0.6453  0.4046 -0.3146
10359SOL    HW235440   3.834  10.437   8.119  0.8132  0.7597 -0.1592
10360SOL     OW35441   2.328   4.185   0.658  0.8502 -0.3135 -0.0709
10360SOL    HW135442   2.356   4.120   0.594  0.5772  0.5023 -1.0455
10360SOL    HW235443   2.328   4.268   0.610 -0.4292  0.1543  0.6731
10361SOL     OW35444   4.888  10.113   8.752  0.5575  0.2465  0.1495
10361SOL    HW135445   4.878  10.052   8.825 -0.0663  0.7105  0.4599
10361SOL    HW235446   4.939  10.064   8.687 -1.9392 -1.5194 -0.6197
10362SOL     OW35447   2.775   2.924   8.679  0.1727  0.7319  0.4838
10362SOL    HW135448   2.868   2.922   8.700  0.1388 -0.2625  0.5697
10362SOL    HW235449   2.734   2.961   8.757  0.3130 -0.5983  1.2258
10363SOL     OW35450   9.187   5.929   0.818  0.5970 -0.5219 -0.2883
10363SOL    HW135451   9.190   5.942   0.913  1.2654  1.8383 -0.5593
10363SOL    HW235452   9.279   5.924   0.792  0.5845  1.8899 -1.0693
10364SOL     OW35453   6.006   3.960   8.128  0.1549  0.1117  1.0499
10364SOL    HW135454   6.032   4.044   8.166 -1.2160  1.2586 -0.4038
10364SOL    HW235455   6.010   3.974   8.034 -2.0318 -0.8138  0.7632
10365SOL     OW35456   5.232   2.420   9.666  0.2757  0.3232  0.0225
10365SOL    HW135457   5.212   2.366   9.589 -1.4470  0.9148  0.0159
10365SOL    HW235458   5.188   2.503   9.648  0.6108  0.7729  1.2483
10366SOL     OW35459   5.996   1.888   3.192  0.2575  0.0193  0.4091
10366SOL    HW135460   5.934   1.868   3.122  2.3407 -3.3898 -0.7093
10366SOL    HW235461   6.058   1.949   3.152 -0.9885  1.6019  0.7993
10367SOL     OW35462   1.285   1.382   2.647  0.4797  0.0496 -0.5486
10367SOL    HW135463   1.191   1.370   2.629  0.5608  0.7636 -1.5325
10367SOL    HW235464   1.327   1.306   2.607  0.4043  0.2418 -1.0005
10368SOL     OW35465   2.735   0.226   5.994  0.1003  0.2335  0.6994
10368SOL    HW135466   2.816   0.182   5.968 -0.7006 -0.7270 -0.2901
10368SOL    HW235467   2.761   0.316   6.012  1.3844 -0.0620  0.4263
10369SOL     OW35468   4.073   0.095   8.669  0.2448 -0.8568  0.3608
10369SOL    HW135469   4.045   0.003   8.662 -1.7248 -0.1968 -1.4513
10369SOL    HW235470   4.165   0.094   8.640 -0.2302 -2.0558 -1.2803
10370SOL     OW35471   2.509   9.191   3.648 -0.4879 -0.4982 -0.4328
10370SOL    HW135472   2.451   9.206   3.723 -0.1452  1.6622 -0.5327
10370SOL    HW235473   2.596   9.188   3.686 -0.4792 -1.6800 -0.5157
10371SOL     OW35474   6.244   4.558   5.420  0.3254  0.5108 -0.0027
10371SOL    HW135475   6.283   4.487   5.369  1.9346  0.8526  0.6992
10371SOL    HW235476   6.190   4.515   5.485  0.3238 -0.0191 -0.3487
10372SOL     OW35477  10.240   1.350   8.711 -0.1524 -0.2382  0.0741
10372SOL    HW135478  10.271   1.379   8.625  0.7511 -1.1894  0.0600
10372SOL    HW235479  10.227   1.255   8.700 -2.3084 -0.0219  0.3180
10373SOL     OW35480  11.018  10.651   5.099 -0.2956 -0.0976  0.0348
10373SOL    HW135481  10.929  10.657   5.135 -0.1944 -0.2074  0.3113
10373SOL    HW235482  11.073  10.687   5.168  0.1391 -2.3435  0.9475
10374SOL     OW35483   9.709  10.412   4.900  0.6893  0.0851 -0.0388
10374SOL    HW135484   9.619  10.444   4.906  0.2048 -1.4532  1.7840
10374SOL    HW235485   9.702  10.326   4.859  1.6445  0.9245 -2.1034
10375SOL     OW35486   4.737   9.679   8.450 -0.0180 -0.2051 -0.2474
10375SOL    HW135487   4.672   9.632   8.397  0.5353  0.3241 -1.4460
10375SOL    HW235488   4.806   9.703   8.388  2.2868 -2.3417  1.2941
10376SOL     OW35489  11.105   5.792   3.265 -0.0151  0.5023  0.5894
10376SOL    HW135490  11.161   5.857   3.307 -0.4559  0.4313  1.3168
10376SOL    HW235491  11.017   5.811   3.298 -0.1864 -0.3014  0.6263
10377SOL     OW35492   8.101   3.324   3.187  0.2217 -0.2778  0.5774
10377SOL    HW135493   8.119   3.335   3.093  0.0371 -1.7609  0.3456
10377SOL    HW235494   8.169   3.376   3.230 -1.1729  2.5298 -0.3379
10378SOL     OW35495   6.300   9.068   7.101  0.3139  0.2944 -0.0087
10378SOL    HW135496   6.382   9.097   7.142 -0.2810  0.0029  1.4138
10378SOL    HW235497   6.326   9.043   7.012  1.5948  1.1072  0.1052
10379SOL     OW35498   3.453   8.396   3.216 -0.0735 -0.3361  0.3302
10379SOL    HW135499   3.504   8.418   3.138 -0.3290 -0.7434  0.0474
10379SOL    HW235500   3.517   8.362   3.278  0.1437  0.0709  0.3305
10380SOL     OW35501   0.993   1.147   8.351 -0.4383  0.1026  0.4936
10380SOL    HW135502   1.083   1.163   8.379 -0.3281  0.2110  0.0867
10380SOL    HW235503   0.997   1.066   8.300 -0.2380  1.0513 -1.0595
10381SOL     OW35504   3.996   4.153   5.537  0.1897  0.1543 -0.1487
10381SOL    HW135505   3.983   4.235   5.489  0.6017  1.0483  1.2044
10381SOL    HW235506   3.950   4.087   5.484 -0.6160  1.3391 -0.9900
10382SOL     OW35507   4.784  10.186   3.569 -0.5360 -0.8079 -0.1567
10382SOL    HW135508   4.755  10.257   3.626  0.8029  0.7856 -1.3368
10382SOL    HW235509   4.722  10.186   3.497  0.2831  0.2137 -0.8978
10383SOL     OW35510   6.853   6.822  10.898 -0.5365  0.2928  0.4979
10383SOL    HW135511   6.933   6.818  10.951 -0.4322 -0.9863  0.2614
10383SOL    HW235512   6.872   6.890  10.832  0.2792  0.1473  0.5735
10384SOL     OW35513   2.360  10.772   4.844  0.0913 -0.5299  0.5525
10384SOL    HW135514   2.443  10.731   4.820  1.3254  2.1283 -0.1686
10384SOL    HW235515   2.386  10.848   4.898 -1.8686  0.2424  0.4873
10385SOL     OW35516   4.770   2.763   9.527  0.5211 -0.6756 -0.5121
10385SOL    HW135517   4.774   2.725   9.615  1.1500 -0.3603 -0.3996
10385SOL    HW235518   4.785   2.856   9.540 -1.0134 -0.3682 -0.7915
10386SOL     OW35519  10.719   1.933   9.515 -0.1958 -0.7681 -0.5525
10386SOL    HW135520  10.783   1.997   9.545 -1.3148  0.3619 -0.4958
10386SOL    HW235521  10.657   1.924   9.587  0.1881 -2.2920 -0.3735
10387SOL     OW35522   1.453   3.697   8.941 -0.4231 -0.0556 -0.3889
10387SOL    HW135523   1.522   3.761   8.921  1.7673 -1.3128  2.3540
10387SOL    HW235524   1.430   3.714   9.032 -0.8849 -2.1489 -0.0543
10388SOL     OW35525   5.259   2.225   2.582  0.3154 -0.2648 -0.0340
10388SOL    HW135526   5.349   2.196   2.593  0.0184 -0.5062  2.3038
10388SOL    HW235527   5.262   2.320   2.587  0.4394 -0.2689 -0.0439
10389SOL     OW35528   6.885   1.849   6.798  0.6111 -0.8535  0.3320
10389SOL    HW135529   6.943   1.790   6.750 -0.3431 -2.4584  1.0467
10389SOL    HW235530   6.869   1.804   6.881 -0.9202 -0.0410  0.5163
10390SOL     OW35531  10.672   5.881  10.117  0.0649  0.0806  0.4164
10390SOL    HW135532  10.759   5.897  10.079 -0.5340  3.2160  0.0495
10390SOL    HW235533  10.614   5.873  10.042 -0.3920  1.3359  0.6061
10391SOL     OW35534   7.397   0.362   3.762 -0.5766 -0.2998 -0.0248
10391SOL    HW135535   7.386   0.337   3.853 -1.8936 -1.7544 -0.5438
10391SOL    HW235536   7.313   0.400   3.737 -0.1070  0.4284 -0.5587
10392SOL     OW35537  10.449   5.979   3.793 -0.8108 -0.5432  0.1659
10392SOL    HW135538  10.383   6.048   3.787 -0.8365 -0.2393  2.7584
10392SOL    HW235539  10.417   5.923   3.864  0.0037 -2.3789 -0.8484
10393SOL     OW35540   2.450   0.086   2.513 -0.1727  0.5646 -0.2375
10393SOL    HW135541   2.419   0.018   2.573  1.4003  0.5084  0.5590
10393SOL    HW235542   2.374   0.105   2.458 -1.0507 -0.8645  0.4036
10394SOL     OW35543   7.615   1.815   9.324 -0.5916  0.3062  0.5539
10394SOL    HW135544   7.643   1.900   9.291 -1.1642  0.3981  0.2888
10394SOL    HW235545   7.520   1.822   9.332 -0.6788 -0.4008  0.2609
10395SOL     OW35546   0.119   1.039   7.505  0.1794 -0.4262  0.0133
10395SOL    HW135547   0.111   1.102   7.576  1.1189 -0.2198 -0.0604
10395SOL    HW235548   0.049   0.976   7.522 -0.6275  0.4958  0.2144
10396SOL     OW35549   8.642   9.034   7.931  0.2030 -0.5092 -0.1835
10396SOL    HW135550   8.578   9.049   8.000  0.1592 -0.3122 -0.2673
10396SOL    HW235551   8.644   8.939   7.920 -1.0546 -0.4461 -1.1057
10397SOL     OW35552   4.116   2.506   9.934 -0.5239 -0.3757  0.8983
10397SOL    HW135553   4.094   2.425   9.980  0.0722  0.4766  2.7951
10397SOL    HW235554   4.182   2.547   9.989 -0.6904  1.3219 -0.1086
10398SOL     OW35555   4.807   5.369   9.154  0.3866 -0.0686 -0.1228
10398SOL    HW135556   4.800   5.387   9.061 -1.0446 -0.0652 -0.0251
10398SOL    HW235557   4.723   5.395   9.191  1.2064  0.6706  1.3053
10399SOL     OW35558   7.785   8.027   9.116 -0.3766  0.0658 -0.2107
10399SOL    HW135559   7.845   8.091   9.155 -0.2287  0.3607 -0.8958
10399SOL    HW235560   7.804   7.945   9.162  0.5889  0.1456 -0.4407
10400SOL     OW35561   1.276   4.447   1.182 -0.4458  0.1437 -0.3715
10400SOL    HW135562   1.327   4.434   1.102  1.1417  0.5896  0.5290
10400SOL    HW235563   1.209   4.378   1.179 -0.0152 -0.2528 -1.7444
10401SOL     OW35564   6.091   8.822   5.526 -0.0264  0.0831  0.4174
10401SOL    HW135565   6.156   8.850   5.460 -0.0226 -1.0690 -0.0863
10401SOL    HW235566   6.094   8.891   5.592  1.3086  0.3452  0.1247
10402SOL     OW35567   3.857   4.753   7.866  0.8756 -0.0786  0.0458
10402SOL    HW135568   3.847   4.738   7.960  2.1920  1.9642  0.5975
10402SOL    HW235569   3.827   4.844   7.853  0.4569 -0.4135 -1.5703
10403SOL     OW35570  10.953   7.916   4.184 -0.2992 -0.3434  0.1164
10403SOL    HW135571  10.993   7.944   4.102 -0.0456 -1.6774 -0.2353
10403SOL    HW235572  10.860   7.931   4.172 -0.4008 -1.6174 -0.8930
10404SOL     OW35573   0.052   8.500   9.601  0.4182  0.3489  0.1055
10404SOL    HW135574   0.006   8.555   9.664  0.3089  0.1353  0.2116
10404SOL    HW235575   0.090   8.562   9.539 -0.9083  0.4902 -0.6012
10405SOL     OW35576   1.466   8.939   8.146 -0.2486  0.1563  0.1894
10405SOL    HW135577   1.549   8.978   8.117 -0.0543  0.5281  1.2077
10405SOL    HW235578   1.476   8.929   8.240 -1.2771 -0.0266  0.2903
10406SOL     OW35579   8.082   4.634   0.910  0.5208 -0.0699  0.7175
10406SOL    HW135580   7.993   4.626   0.942  0.0144 -1.9964 -1.0308
10406SOL    HW235581   8.137   4.610   0.985 -0.5602 -2.3638  0.8545
10407SOL     OW35582   1.221   6.652   9.249  0.0987  0.6041  0.2905
10407SOL    HW135583   1.228   6.746   9.263 -2.5622  1.5133 -3.0025
10407SOL    HW235584   1.311   6.620   9.250  1.1017  3.2423  1.1067
10408SOL     OW35585   8.798   7.341   8.356  0.2637 -0.3277 -0.3965
10408SOL    HW135586   8.745   7.374   8.284 -0.2220 -2.3700 -1.0379
10408SOL    HW235587   8.784   7.403   8.428 -0.9502  0.5519 -1.3673
10409SOL     OW35588   1.688   6.110   1.048  0.7662  0.1313 -0.1148
10409SOL    HW135589   1.778   6.113   1.016  0.9600 -1.0103  0.2880
10409SOL    HW235590   1.634   6.115   0.969  1.1801  0.7776 -0.3608
10410SOL     OW35591   0.193  10.165   6.865  0.1892  0.2333  0.4028
10410SOL    HW135592   0.264  10.131   6.918  0.5147  1.3383  0.7136
10410SOL    HW235593   0.222  10.152   6.774  0.5432  0.2002  0.5224
10411SOL     OW35594   9.423   1.079   3.828 -0.0352  0.8299 -0.2281
10411SOL    HW135595   9.414   0.985   3.815 -0.1076  0.8413 -0.2589
10411SOL    HW235596   9.506   1.101   3.784 -0.8030  1.0482 -1.6296
10412SOL     OW35597  10.649   8.037   0.779  0.2279 -0.3816 -0.1085
10412SOL    HW135598  10.694   7.986   0.712 -0.3046 -0.4545 -0.4207
10412SOL    HW235599  10.719   8.074   0.833  0.6300 -1.0838 -0.1441
10413SOL     OW35600   1.752   3.621   3.075 -0.0863  0.4190 -0.0569
10413SOL    HW135601   1.712   3.657   3.155 -0.5281 -1.8135  0.7931
10413SOL    HW235602   1.707   3.538   3.061  0.4615  0.4508 -2.2869
10414SOL     OW35603   6.412   1.679   4.447 -0.5633 -0.0241 -0.0995
10414SOL    HW135604   6.411   1.731   4.367 -1.2047  0.8698  0.4810
10414SOL    HW235605   6.373   1.595   4.422 -1.3883  0.4899 -0.5590
10415SOL     OW35606  11.051   0.710  10.830  0.0213  0.0372  0.1604
10415SOL    HW135607  11.069   0.774  10.761 -1.7185  0.3061 -0.0872
10415SOL    HW235608  10.978   0.748  10.879  0.9922 -0.3148  1.9599
10416SOL     OW35609   5.710  11.102   2.679  0.6098 -0.7776  0.1852
10416SOL    HW135610   5.690  11.064   2.764 -0.0535 -1.6559 -0.3460
10416SOL    HW235611   5.799  11.137   2.688 -0.0633  0.6882  1.7510
10417SOL     OW35612   8.416   0.378   0.181 -0.5447  0.0525 -0.4842
10417SOL    HW135613   8.337   0.391   0.128 -1.4205 -1.5033  0.3492
10417SOL    HW235614   8.470   0.318   0.129 -2.1029 -2.7805  0.8747
10418SOL     OW35615   8.100   6.408   9.102  0.1066  0.2082 -0.3542
10418SOL    HW135616   8.056   6.472   9.157 -0.4107 -0.4287 -0.0002
10418SOL    HW235617   8.034   6.384   9.036  0.6228  0.7508 -1.0845
10419SOL     OW35618   0.823  10.983   4.116  0.6557  0.1580  0.3012
10419SOL    HW135619   0.835  11.071   4.152  0.1197  0.6399 -0.6712
10419SOL    HW235620   0.907  10.963   4.074  0.2066  0.9558 -1.0360
10420SOL     OW35621   8.192   9.844   3.086 -0.3298  0.3135 -0.0398
10420SOL    HW135622   8.242   9.892   3.152 -0.9639  1.8197 -0.6048
10420SOL    HW235623   8.147   9.775   3.136  1.2698 -0.2805  0.6593
10421SOL     OW35624   8.234   7.162   2.358 -0.3437 -0.3205 -0.0134
10421SOL    HW135625   8.169   7.105   2.316 -0.5263 -0.1427  0.0268
10421SOL    HW235626   8.312   7.154   2.302 -0.7517  0.3263 -0.6978
10422SOL     OW35627   1.262   0.098   7.395  0.2573 -0.3331  0.1636
10422SOL    HW135628   1.320   0.034   7.354 -0.9895 -1.9681  0.8397
10422SOL    HW235629   1.183   0.097   7.341 -0.7903 -1.3560  1.6175
10423SOL     OW35630   6.338   2.041   7.300 -0.1322 -0.4964 -0.9923
10423SOL    HW135631   6.255   2.060   7.257 -1.2697  0.7010  1.5397
10423SOL    HW235632   6.326   1.954   7.338 -1.7308  0.9954  2.3445
10424SOL     OW35633   7.646   0.572   3.790  0.2012  0.1758  0.3026
10424SOL    HW135634   7.741   0.562   3.793  0.2145 -0.3351 -1.1371
10424SOL    HW235635   7.616   0.547   3.877  1.5084  1.9610  1.3417
10425SOL     OW35636   4.488   3.740   7.328 -0.2568  0.5187  0.1446
10425SOL    HW135637   4.548   3.701   7.265 -0.1463 -0.7012  0.9622
10425SOL    HW235638   4.501   3.834   7.320  0.1092  0.3568 -1.2893
10426SOL     OW35639  10.721   6.317   8.029 -0.1166  0.0449  0.0470
10426SOL    HW135640  10.725   6.340   7.936  1.4892  0.3444  0.1559
10426SOL    HW235641  10.799   6.263   8.044 -0.3304  0.0328  1.2170
10427SOL     OW35642   4.887   6.803   3.621 -0.6596  0.1690  0.3936
10427SOL    HW135643   4.878   6.836   3.531  1.8705 -0.1605 -0.0401
10427SOL    HW235644   4.856   6.713   3.616 -1.8161  0.5517  0.2055
10428SOL     OW35645   3.021   0.834   2.118  0.1421  0.0986 -0.3331
10428SOL    HW135646   2.997   0.743   2.101  0.7896 -0.2300  0.4443
10428SOL    HW235647   2.937   0.880   2.126 -0.2817 -0.9412  1.8843
10429SOL     OW35648   9.764   1.996  10.834  0.4214 -0.1160  0.3926
10429SOL    HW135649   9.786   2.052  10.760  0.5839  1.4440  1.5930
10429SOL    HW235650   9.839   1.938  10.844 -0.3498 -1.6693 -1.7830
10430SOL     OW35651   6.285   2.920   8.983 -0.1555 -0.0253 -0.2018
10430SOL    HW135652   6.294   3.005   9.028  1.4995  0.6953 -1.7753
10430SOL    HW235653   6.240   2.941   8.901  1.1464 -0.4658 -1.0580
10431SOL     OW35654   2.051   3.670   5.736 -0.4136  1.0127  0.4146
10431SOL    HW135655   2.054   3.621   5.654 -2.5666  0.8893  0.3506
10431SOL    HW235656   1.968   3.644   5.777 -0.6284  2.9880  1.3887
10432SOL     OW35657   7.841   9.797   4.164  0.3516 -0.0425  0.5009
10432SOL    HW135658   7.814   9.801   4.072 -0.0235 -1.9070  0.4865
10432SOL    HW235659   7.761   9.814   4.213  0.5564  0.9759  0.5066
10433SOL     OW35660   4.766   7.115   6.740  0.0908 -0.2738 -0.5018
10433SOL    HW135661   4.729   7.197   6.705  1.8307  0.0816 -1.6391
10433SOL    HW235662   4.729   7.108   6.828  2.1789  3.3878  0.9205
10434SOL     OW35663   0.307   3.391   2.719  0.0614 -0.1214 -0.0851
10434SOL    HW135664   0.385   3.445   2.731  0.2684 -0.8016  1.8859
10434SOL    HW235665   0.240   3.453   2.687  0.9870  0.7637 -0.3583
10435SOL     OW35666   2.980   6.738   9.520  0.0110  0.0083  1.0522
10435SOL    HW135667   2.970   6.741   9.615  0.4341 -2.7433  1.2805
10435SOL    HW235668   2.909   6.682   9.490  1.1703 -1.0106  0.0658
10436SOL     OW35669   2.488   9.810   0.930  0.2048  0.2064  0.1156
10436SOL    HW135670   2.393   9.812   0.948  0.1563 -1.1793  0.0715
10436SOL    HW235671   2.497   9.758   0.851  1.2135 -2.4880  1.8633
10437SOL     OW35672   6.659   7.981   6.345  0.3872 -0.2233  0.0246
10437SOL    HW135673   6.582   8.016   6.301  1.2895  0.6173 -0.9249
10437SOL    HW235674   6.733   8.030   6.308  1.1730  0.8905  2.7952
10438SOL     OW35675   3.486  10.362   7.906 -0.2490  0.5920 -0.2113
10438SOL    HW135676   3.459  10.293   7.846  0.0746 -0.2522  0.5991
10438SOL    HW235677   3.457  10.443   7.864 -0.3625 -0.0097 -1.3119
10439SOL     OW35678   6.879   8.139  10.465  0.3708 -0.1069  0.0250
10439SOL    HW135679   6.795   8.184  10.469 -0.0992 -0.9866  0.1568
10439SOL    HW235680   6.908   8.133  10.556 -1.1939 -3.0473  0.4363
10440SOL     OW35681   3.662   9.809   3.977 -0.2693 -0.2376  0.3771
10440SOL    HW135682   3.632   9.852   4.057 -0.0771 -1.4271  1.1176
10440SOL    HW235683   3.610   9.729   3.972 -2.0548  0.9718 -2.0495
10441SOL     OW35684   7.347   9.926   2.330  0.4590  0.4595 -0.3119
10441SOL    HW135685   7.381   9.939   2.242  1.8872  0.6178  0.2404
10441SOL    HW235686   7.277   9.861   2.319  2.5154 -1.7599 -1.2056
10442SOL     OW35687   0.139   2.224   4.200 -0.0693  0.4573 -0.3083
10442SOL    HW135688   0.154   2.312   4.166  1.0127 -0.0319 -1.1467
10442SOL    HW235689   0.093   2.238   4.283 -0.1674  1.7934 -0.5689
10443SOL     OW35690   0.652   9.815   6.483  0.1687 -0.2739  0.7197
10443SOL    HW135691   0.744   9.834   6.468  0.8498 -1.6778  2.6947
10443SOL    HW235692   0.648   9.719   6.485 -1.4565 -0.2488  0.1303
10444SOL     OW35693   9.999  10.457   3.746  0.3605  0.4515 -0.2316
10444SOL    HW135694  10.018  10.369   3.713 -1.0393 -0.0201  0.1184
10444SOL    HW235695   9.951  10.442   3.827 -0.6810  1.5176 -0.6214
10445SOL     OW35696   6.307   9.009   5.330 -0.0004 -0.2638  0.4410
10445SOL    HW135697   6.313   8.989   5.424  0.8781  0.4813  0.5599
10445SOL    HW235698   6.395   8.992   5.297 -0.1054  0.2390 -0.0932
10446SOL     OW35699   0.328   9.104   1.894 -0.1203  0.7035 -0.0141
10446SOL    HW135700   0.282   9.020   1.903 -0.7853  1.0128 -0.3777
10446SOL    HW235701   0.261   9.170   1.913  0.1092  1.1758 -0.7859
10447SOL     OW35702   6.103   5.408   1.250  0.6633  0.0907  0.0252
10447SOL    HW135703   6.073   5.499   1.256 -0.9843 -0.3981 -0.3221
10447SOL    HW235704   6.038   5.365   1.194  1.6235 -1.2262 -0.1191
10448SOL     OW35705   6.949   0.189   4.952 -0.1622  0.0654 -0.6228
10448SOL    HW135706   6.930   0.279   4.926  2.2475  1.4779  1.9459
10448SOL    HW235707   7.028   0.166   4.902 -0.0165 -0.1042 -0.3200
10449SOL     OW35708   1.392   7.157   0.018  0.1349 -0.2091  0.7415
10449SOL    HW135709   1.362   7.136   0.107 -0.4717 -0.5704  0.4562
10449SOL    HW235710   1.313   7.188  -0.027 -0.2474 -2.8624 -0.5572
10450SOL     OW35711   7.608  10.268   9.222 -0.2051  0.1955 -0.3377
10450SOL    HW135712   7.529  10.268   9.276  0.3870  2.3103  0.6282
10450SOL    HW235713   7.578  10.295   9.135 -0.7622 -0.5527 -0.3842
10451SOL     OW35714   9.113   2.304   3.938 -0.1584 -0.2594  0.3435
10451SOL    HW135715   9.179   2.274   4.002  1.0213  0.3625 -0.5403
10451SOL    HW235716   9.083   2.387   3.973  0.0970 -0.1712  0.3598
10452SOL     OW35717   8.248   3.194   4.579  0.4306  0.3572  0.5860
10452SOL    HW135718   8.222   3.108   4.546 -2.0288  0.8315  1.0804
10452SOL    HW235719   8.284   3.239   4.503 -3.0786  0.6613 -1.1369
10453SOL     OW35720   7.047   6.405   1.120 -0.2779  0.0252 -1.0820
10453SOL    HW135721   7.116   6.470   1.123  0.2414 -0.5316  1.2102
10453SOL    HW235722   6.986   6.437   1.054  0.1054  2.6691 -0.2759
10454SOL     OW35723   1.018   9.275   9.534 -0.1640 -0.1990  0.3815
10454SOL    HW135724   0.963   9.263   9.457  0.8097  0.4491 -0.4341
10454SOL    HW235725   0.958   9.312   9.600 -0.7440  0.3355 -0.4242
10455SOL     OW35726   5.595   3.952  10.138  0.0543 -0.5827  0.4207
10455SOL    HW135727   5.533   3.978  10.070  0.8870 -0.2592 -0.2280
10455SOL    HW235728   5.573   4.008  10.213 -0.6444 -0.7034  0.3113
10456SOL     OW35729   0.131   2.745  10.427 -0.1751  0.1573 -0.0669
10456SOL    HW135730   0.205   2.806  10.426  0.2216 -0.3071  0.3955
10456SOL    HW235731   0.117   2.725  10.520  0.7630 -1.7085 -0.2778
10457SOL     OW35732   2.965   8.589   6.278  0.0988  0.5864 -0.6018
10457SOL    HW135733   2.915   8.669   6.264 -1.9038 -0.2598  1.1156
10457SOL    HW235734   2.958   8.572   6.372  1.5865 -0.9047 -0.7122
10458SOL     OW35735   1.116   1.896   4.957 -0.6726  0.0251  0.7041
10458SOL    HW135736   1.209   1.920   4.962  0.1300 -2.4539 -0.4545
10458SOL    HW235737   1.097   1.856   5.042 -0.3806 -0.3279  0.6073
10459SOL     OW35738   2.463   5.659   9.428  0.8225  0.5752 -0.1298
10459SOL    HW135739   2.376   5.697   9.434  0.5414 -0.1299  0.3548
10459SOL    HW235740   2.479   5.651   9.333 -1.6921 -3.7426 -0.4605
10460SOL     OW35741   0.858  10.375  10.295 -0.0903 -0.4282  0.2940
10460SOL    HW135742   0.772  10.338  10.313 -0.9150  1.6464  0.8626
10460SOL    HW235743   0.841  10.450  10.239  1.0762  1.2826  2.0998
10461SOL     OW35744   0.630   4.153  10.679  1.0162 -0.1591 -0.3920
10461SOL    HW135745   0.547   4.171  10.723  1.1720 -0.2599 -0.0445
10461SOL    HW235746   0.663   4.074  10.723  0.1242 -1.6090 -2.1961
10462SOL     OW35747   8.553   8.454   5.664 -0.3371 -0.1732  0.4890
10462SOL    HW135748   8.569   8.364   5.635 -2.5732 -0.0732 -1.3643
10462SOL    HW235749   8.492   8.445   5.737  0.6145 -0.1842  1.3021
10463SOL     OW35750   7.779   3.191   5.440 -0.0029 -0.4594 -0.3700
10463SOL    HW135751   7.836   3.147   5.503  0.5628 -1.6247 -1.6532
10463SOL    HW235752   7.822   3.274   5.421 -0.8524  0.5469  1.7386
10464SOL     OW35753   6.744   9.423   7.741  0.0344 -0.3681  0.2932
10464SOL    HW135754   6.771   9.381   7.659  3.8792  2.6358 -0.2666
10464SOL    HW235755   6.797   9.381   7.808  0.7365  0.6218  0.3772
10465SOL     OW35756   8.735   1.758   3.330 -0.8159 -0.0022  0.1150
10465SOL    HW135757   8.779   1.676   3.306 -0.6961 -0.4529  1.7423
10465SOL    HW235758   8.769   1.823   3.268 -2.5720 -1.5586 -2.6637
10466SOL     OW35759  10.066   7.239   3.410 -0.2502  0.1165 -0.3268
10466SOL    HW135760  10.148   7.287   3.399 -0.6156  1.5118  2.1933
10466SOL    HW235761  10.089   7.164   3.464 -0.5412  0.3046  0.0665
10467SOL     OW35762  10.395   1.897   9.312  0.2253 -1.0964  0.2426
10467SOL    HW135763  10.408   1.835   9.384 -0.0453  0.2990  1.5534
10467SOL    HW235764  10.304   1.926   9.322  0.5834  0.1051  0.1736
10468SOL     OW35765   6.903   8.835   7.407  0.0536  0.3427  0.8631
10468SOL    HW135766   6.944   8.748   7.410  0.0185  0.2660 -0.4289
10468SOL    HW235767   6.974   8.895   7.386 -0.2707  0.3524 -0.2670
10469SOL     OW35768   5.633   8.431   1.960  0.3167  0.8729  0.0239
10469SOL    HW135769   5.691   8.480   2.018  1.2064  0.8736 -0.8340
10469SOL    HW235770   5.670   8.342   1.959 -0.7499  0.3977  0.8551
10470SOL     OW35771   9.311   6.381   1.275 -0.1829  0.2054 -0.0768
10470SOL    HW135772   9.316   6.437   1.352  0.8540 -1.1269  0.8918
10470SOL    HW235773   9.382   6.318   1.287 -1.7770 -1.8197 -0.6953
10471SOL     OW35774   0.132   4.802   0.073 -0.1412 -0.4756 -0.3233
10471SOL    HW135775   0.066   4.866   0.099  0.0050 -1.0306  1.5366
10471SOL    HW235776   0.188   4.849   0.011 -0.6648  0.8609  0.1834
10472SOL     OW35777   0.876   3.276   0.116 -0.0861 -0.7276 -0.0592
10472SOL    HW135778   0.970   3.268   0.135  0.0335 -1.4230 -0.8966
10472SOL    HW235779   0.851   3.360   0.156  1.0636 -0.1468 -0.5097
10473SOL     OW35780   0.310   2.917   4.206 -0.3704  0.9351 -0.1057
10473SOL    HW135781   0.260   2.841   4.238 -1.9645  1.5510 -0.9781
10473SOL    HW235782   0.397   2.882   4.187 -0.4644 -0.2193  1.4049
10474SOL     OW35783   8.580   0.020   1.398  0.4671 -0.4474  0.0704
10474SOL    HW135784   8.628  -0.057   1.370 -0.0746 -0.3733 -1.1142
10474SOL    HW235785   8.637   0.094   1.377  0.8235 -0.4822  0.8566
10475SOL     OW35786   1.643   6.109   2.999  0.1973 -0.3816  0.1094
10475SOL    HW135787   1.574   6.082   3.059 -0.9431  0.6592 -0.6842
10475SOL    HW235788   1.654   6.035   2.939  1.2648 -1.3850  1.4604
10476SOL     OW35789   9.463   2.235   0.942  0.1893 -0.6072 -0.1053
10476SOL    HW135790   9.452   2.308   1.003 -1.3987 -1.2804  0.4866
10476SOL    HW235791   9.553   2.207   0.954 -0.0539 -0.6799  1.9250
10477SOL     OW35792   6.239   2.442   7.178 -0.5928  0.1282 -0.1018
10477SOL    HW135793   6.286   2.505   7.123 -0.0579 -0.9908 -0.9603
10477SOL    HW235794   6.307   2.382   7.209 -1.5243 -2.4957 -2.6644
10478SOL     OW35795   0.087  10.637   4.135  0.5041  0.1186 -0.5098
10478SOL    HW135796   0.104  10.645   4.229 -0.9859  0.2062 -0.2248
10478SOL    HW235797   0.101  10.725   4.100 -0.1236  0.3682 -0.1501
10479SOL     OW35798   7.526   2.245   8.408  0.8149 -0.4220 -0.1054
10479SOL    HW135799   7.458   2.308   8.435  1.4193 -0.1170  0.7288
10479SOL    HW235800   7.480   2.161   8.404  0.5203 -0.3353  1.0927
10480SOL     OW35801  10.340   6.415   2.754  0.2690 -0.5503  0.0843
10480SOL    HW135802  10.421   6.464   2.745  0.3620 -0.6779  0.2301
10480SOL    HW235803  10.291   6.462   2.821  0.6025 -0.9841  0.6344
10481SOL     OW35804   9.684   8.099   8.177 -0.4871  0.2907 -0.2702
10481SOL    HW135805   9.665   8.038   8.105  0.6429 -1.3695  0.7844
10481SOL    HW235806   9.613   8.084   8.240 -0.1215 -0.0516  0.0611
10482SOL     OW35807   5.675  10.752   2.052 -0.6894  0.2877  0.4053
10482SOL    HW135808   5.687  10.704   1.970 -0.1260 -1.7315  1.5734
10482SOL    HW235809   5.590  10.723   2.084 -0.6720  0.6498  0.7867
10483SOL     OW35810   1.084   8.862   1.004 -0.2989  0.0700 -0.2565
10483SOL    HW135811   1.033   8.863   0.923  1.4325  1.1364 -1.3743
10483SOL    HW235812   1.079   8.952   1.037  0.6508  0.1318 -0.2562
10484SOL     OW35813   8.068   0.230  10.225  0.1125  0.1415  0.4255
10484SOL    HW135814   8.148   0.282  10.234  1.1130 -1.5182  1.7662
10484SOL    HW235815   8.014   0.258  10.299 -0.2997  0.7978 -0.1097
10485SOL     OW35816   1.261   7.652   8.332 -0.1113  0.2756  0.0965
10485SOL    HW135817   1.351   7.638   8.361 -0.6801 -0.5680  1.5383
10485SOL    HW235818   1.268   7.718   8.263  1.4684  1.3339  1.1912
10486SOL     OW35819   9.126   2.650   3.384 -0.0874 -0.3880  0.3616
10486SOL    HW135820   9.192   2.627   3.449 -2.6295 -0.4086  3.1308
10486SOL    HW235821   9.053   2.591   3.401 -0.9740 -0.2927 -2.4943
10487SOL     OW35822   8.121   7.892   4.410 -0.7217  0.0786 -0.1020
10487SOL    HW135823   8.037   7.935   4.422  0.0538  1.7303 -0.2669
10487SOL    HW235824   8.184   7.950   4.453  0.4808 -0.4579 -1.0728
10488SOL     OW35825   6.178   6.713   5.163 -0.8461 -0.6549  0.3947
10488SOL    HW135826   6.087   6.734   5.184 -1.9138  0.2810 -4.2288
10488SOL    HW235827   6.221   6.799   5.158 -0.3598 -0.9218 -0.0144
10489SOL     OW35828   1.009   7.599   4.629  0.5604  0.5321  0.1241
10489SOL    HW135829   1.061   7.644   4.695  0.2828 -0.1862  0.8546
10489SOL    HW235830   1.062   7.523   4.604 -0.6518 -1.0238  1.9262
10490SOL     OW35831   2.826   2.439   9.045 -0.3989  0.2356 -0.3895
10490SOL    HW135832   2.884   2.405   8.977 -1.1048 -1.7597 -0.0392
10490SOL    HW235833   2.768   2.366   9.068 -1.5501  1.4684  0.9020
10491SOL     OW35834  10.417   5.369   0.860  0.1881  0.4623 -0.0318
10491SOL    HW135835  10.438   5.400   0.948  2.7472  0.2348 -0.4937
10491SOL    HW235836  10.399   5.275   0.871  0.6347  0.4063  0.2386
10492SOL     OW35837   2.901   9.054   8.400  0.6835 -0.2614  0.4001
10492SOL    HW135838   2.923   9.089   8.486  0.1965 -0.1696  0.4852
10492SOL    HW235839   2.829   8.993   8.416 -0.4863  0.9448 -0.1466
10493SOL     OW35840   2.088   2.818   4.062  0.0566 -0.1982 -0.2637
10493SOL    HW135841   2.135   2.876   4.001  0.4573 -1.2114 -0.9417
10493SOL    HW235842   2.148   2.806   4.135  0.0115  0.1645 -0.1661
10494SOL     OW35843   2.176   2.806   2.225  0.0190  0.3924  0.0173
10494SOL    HW135844   2.140   2.871   2.164 -2.0226  1.3156  2.0819
10494SOL    HW235845   2.108   2.794   2.291  2.1214 -0.5299  2.1551
10495SOL     OW35846   1.959   0.980   7.646  0.3204  0.5343 -0.5496
10495SOL    HW135847   1.906   1.047   7.690 -1.1492 -0.3757 -0.8537
10495SOL    HW235848   1.962   0.907   7.709  1.0418  0.4848 -0.6302
10496SOL     OW35849   9.823   1.159   8.965 -0.1941 -0.2273  0.5750
10496SOL    HW135850   9.737   1.130   8.996 -0.6078  0.2083 -0.1202
10496SOL    HW235851   9.810   1.251   8.941 -0.0466 -0.6707 -1.3413
10497SOL     OW35852   0.930   1.553   9.877  0.3220 -0.1044 -0.5909
10497SOL    HW135853   0.944   1.459   9.885  0.0074 -0.3515 -2.4655
10497SOL    HW235854   0.839   1.566   9.903  0.1844 -0.4268 -0.8901
10498SOL     OW35855   3.905   5.367   5.659  0.2987  0.0595  0.6487
10498SOL    HW135856   3.828   5.326   5.620  0.9386 -0.7341  0.2020
10498SOL    HW235857   3.949   5.411   5.586  0.1810  0.6567  0.9336
10499SOL     OW35858   2.559  10.397   3.650 -0.5867 -0.1088  0.0821
10499SOL    HW135859   2.539  10.423   3.560  0.1667  0.4280  0.0659
10499SOL    HW235860   2.642  10.440   3.670  0.1852 -1.6828  0.4095
10500SOL     OW35861   3.347   8.701   1.400 -0.4158  0.1178 -0.0065
10500SOL    HW135862   3.384   8.648   1.470  0.5595 -0.6209 -1.0417
10500SOL    HW235863   3.421   8.751   1.366  0.0922 -2.3425 -2.9788
10501SOL     OW35864   2.520   5.405   6.459  0.1594 -0.1425 -0.7201
10501SOL    HW135865   2.590   5.343   6.440  1.0090  0.7442 -0.5402
10501SOL    HW235866   2.565   5.488   6.476 -0.9025  0.3328 -0.1428
10502SOL     OW35867   6.047   5.377  10.753 -0.3793 -0.1333 -0.6033
10502SOL    HW135868   5.965   5.332  10.773 -0.8327  1.2456  0.7950
10502SOL    HW235869   6.060   5.360  10.659 -1.5738 -1.4323 -0.5826
10503SOL     OW35870   4.793  10.168   5.997  0.0934  0.0566 -0.1646
10503SOL    HW135871   4.816  10.166   6.090 -0.7569  1.1935  0.1022
10503SOL    HW235872   4.793  10.077   5.970  1.0361 -0.2412  0.7730
10504SOL     OW35873   7.655   2.362   2.411  0.1472 -0.0607 -0.1251
10504SOL    HW135874   7.568   2.350   2.371  0.0310 -0.8502  0.3403
10504SOL    HW235875   7.651   2.310   2.491  0.4464  1.3283  0.8261
10505SOL     OW35876   1.048   4.309   2.126  0.6782  0.0348 -0.4153
10505SOL    HW135877   1.080   4.304   2.036 -0.7502  1.2098 -1.0270
10505SOL    HW235878   0.963   4.352   2.119  0.3892 -0.1404  1.4742
10506SOL     OW35879   4.441   0.421   3.236  0.0416  0.8859  0.4723
10506SOL    HW135880   4.498   0.416   3.159 -1.1505  0.4723 -0.4096
10506SOL    HW235881   4.439   0.331   3.269 -0.6344  0.7534  0.0880
10507SOL     OW35882   3.252   3.806   9.119  0.1553  0.1351  0.4827
10507SOL    HW135883   3.332   3.814   9.172 -0.3599  0.4163  1.2464
10507SOL    HW235884   3.279   3.757   9.042  1.2520  0.9396  0.3261
10508SOL     OW35885   4.829   3.284   2.995 -0.3919 -0.0149  0.1049
10508SOL    HW135886   4.773   3.208   2.978 -0.9482 -0.0065  1.6704
10508SOL    HW235887   4.915   3.246   3.015 -0.1878 -0.1110 -0.9167
10509SOL     OW35888   1.111   5.823   2.882 -0.1511 -0.4207  0.0626
10509SOL    HW135889   1.205   5.818   2.903 -0.1806  0.5220  0.4872
10509SOL    HW235890   1.074   5.743   2.919  0.4120 -0.5605  0.3323
10510SOL     OW35891   7.162   3.939   7.474 -0.0919  0.3729  0.1704
10510SOL    HW135892   7.131   3.899   7.393  1.5788 -0.9069  0.0983
10510SOL    HW235893   7.197   4.024   7.446  1.5899 -0.5493 -0.7397
10511SOL     OW35894   1.802   6.126   8.429 -0.0732 -0.3781  0.1151
10511SOL    HW135895   1.850   6.044   8.419 -0.4928 -0.3811 -2.7444
10511SOL    HW235896   1.713   6.098   8.453 -0.0392 -0.7345 -0.1594
10512SOL     OW35897   6.404   2.393  10.921  0.0413  0.4924  0.3548
10512SOL    HW135898   6.482   2.443  10.897  0.4664  0.0970  0.9169
10512SOL    HW235899   6.407   2.387  11.016 -1.0115  1.0129  0.4341
10513SOL     OW35900   8.164   1.007   7.015  0.7380 -0.0846 -0.2280
10513SOL    HW135901   8.097   0.958   6.967  0.9913 -1.7670  1.0282
10513SOL    HW235902   8.116   1.073   7.064  0.3469  0.7762 -1.7305
10514SOL     OW35903   9.236   6.322   5.656  0.5122  0.3105 -0.7443
10514SOL    HW135904   9.168   6.376   5.615  1.7232  1.3065 -1.5145
10514SOL    HW235905   9.295   6.300   5.584  2.5647  1.9037  0.3707
10515SOL     OW35906   8.122   8.813   0.344  0.5935 -0.2040 -0.6840
10515SOL    HW135907   8.068   8.820   0.422  1.4686 -1.8251  0.1086
10515SOL    HW235908   8.059   8.810   0.272 -0.4213 -1.8192  0.1958
10516SOL     OW35909   1.806   4.271   6.223  0.0028 -0.1053 -0.9531
10516SOL    HW135910   1.883   4.222   6.195 -0.2465 -0.9277 -0.2673
10516SOL    HW235911   1.804   4.348   6.166  0.5431 -0.7755 -1.9168
10517SOL     OW35912   4.935   1.496   7.448  0.5379  0.0946 -0.3022
10517SOL    HW135913   4.843   1.480   7.471 -0.4625  2.9868 -1.8868
10517SOL    HW235914   4.964   1.413   7.411 -1.4563 -0.8657  0.1027
10518SOL     OW35915   3.255   1.313   9.051 -0.4751  0.1815 -0.1199
10518SOL    HW135916   3.303   1.361   8.984 -0.8244 -1.6194 -1.7308
10518SOL    HW235917   3.322   1.263   9.097 -0.3661  0.6168  0.2053
10519SOL     OW35918   0.356   0.776   7.030  0.0301  0.5261  0.2530
10519SOL    HW135919   0.339   0.683   7.015  0.3297  0.4090  0.6181
10519SOL    HW235920   0.275   0.810   7.068 -0.6143  0.7481 -1.2589
10520SOL     OW35921  10.810   7.493   6.315  0.1328  0.4379  0.2568
10520SOL    HW135922  10.781   7.557   6.251 -1.0063  0.6966  0.9993
10520SOL    HW235923  10.753   7.417   6.300  0.1741  0.3283  0.6485
10521SOL     OW35924   4.646   0.000   3.305  0.2947  0.1579  0.3071
10521SOL    HW135925   4.559  -0.009   3.344  0.7755 -0.0654  1.3554
10521SOL    HW235926   4.641  -0.049   3.223 -1.7931  3.4622 -1.7955
10522SOL     OW35927   8.592   6.553   1.573  0.1404  0.2941  0.0135
10522SOL    HW135928   8.557   6.525   1.488 -1.5807  3.0484 -0.3085
10522SOL    HW235929   8.681   6.517   1.575 -0.5549 -1.8159 -1.8695
10523SOL     OW35930   3.409   9.983   8.124 -0.5426 -0.0788  0.3078
10523SOL    HW135931   3.333  10.032   8.093 -1.4327 -1.8742 -0.4344
10523SOL    HW235932   3.377   9.936   8.201  0.5462  1.1266  1.5476
10524SOL     OW35933   6.575   7.474   0.996 -0.2437  0.8376  0.1865
10524SOL    HW135934   6.572   7.481   0.900 -0.4509  2.1893  0.2838
10524SOL    HW235935   6.492   7.509   1.026 -0.0265  0.7714  0.8861
10525SOL     OW35936   5.330   5.617   7.545 -0.0635 -0.0140 -0.0829
10525SOL    HW135937   5.381   5.605   7.465  0.2179  0.1989  0.0593
10525SOL    HW235938   5.245   5.649   7.516 -1.0026 -2.6918 -0.5023
10526SOL     OW35939   6.965   5.560  11.027  0.0236 -0.5070  0.6437
10526SOL    HW135940   6.998   5.614  10.955 -0.5191 -0.1770  0.6348
10526SOL    HW235941   6.882   5.526  10.995 -0.1253 -0.5202  1.0373
10527SOL     OW35942   3.289   4.906   6.663 -0.1531 -0.6711 -0.1965
10527SOL    HW135943   3.231   4.839   6.627 -0.4560 -0.6932  0.3163
10527SOL    HW235944   3.376   4.865   6.662 -0.2048 -0.7653 -0.6503
10528SOL     OW35945   5.985   3.848   9.678  0.1546 -1.0281  0.0349
10528SOL    HW135946   5.990   3.909   9.751  1.5937  0.2792 -1.0793
10528SOL    HW235947   5.937   3.772   9.712  0.7268 -0.4417  2.2895
10529SOL     OW35948   6.546   7.751   8.733 -0.8177 -0.0231  0.4949
10529SOL    HW135949   6.498   7.831   8.754  0.4927  0.8329  0.3586
10529SOL    HW235950   6.602   7.775   8.658  1.7355 -0.1629  2.2252
10530SOL     OW35951   9.250   0.136   7.737 -0.0249 -0.3013  0.2519
10530SOL    HW135952   9.299   0.206   7.696 -1.0845  0.9654  1.0691
10530SOL    HW235953   9.313   0.064   7.746  1.5180  1.0644  0.7904
10531SOL     OW35954   4.382   7.518   4.933  0.5817  0.1813  0.3874
10531SOL    HW135955   4.361   7.600   4.887 -0.4117 -0.2065  0.1246
10531SOL    HW235956   4.440   7.545   5.004  1.8032  0.8456 -0.8208
10532SOL     OW35957   6.468   7.269  10.298 -0.2863 -0.0504 -0.4856
10532SOL    HW135958   6.525   7.199  10.330  0.7382  0.4572 -1.1429
10532SOL    HW235959   6.393   7.224  10.261 -0.6739 -0.7187  1.0232
10533SOL     OW35960   4.445  10.877   4.230  0.4772  0.6191  0.1420
10533SOL    HW135961   4.540  10.873   4.226  0.6402  0.7824  2.5634
10533SOL    HW235962   4.425  10.971   4.234  0.2783  0.5595  0.5928
10534SOL     OW35963   1.822  10.493   1.863  0.4633  0.2992 -0.4082
10534SOL    HW135964   1.845  10.533   1.947  0.5511 -0.1804 -0.2046
10534SOL    HW235965   1.898  10.509   1.808  1.1147 -0.8694  0.1212
10535SOL     OW35966  10.220   7.032   1.187 -0.9413  0.1773  0.0949
10535SOL    HW135967  10.196   7.003   1.100 -1.9810  1.0798  0.0648
10535SOL    HW235968  10.152   6.997   1.245 -1.2173  1.0000  0.2934
10536SOL     OW35969   9.525   7.317   5.532 -0.5892 -0.0109 -0.0655
10536SOL    HW135970   9.455   7.329   5.469 -0.6304  0.4054  0.0518
10536SOL    HW235971   9.603   7.350   5.488 -0.6335  0.3600  0.1258
10537SOL     OW35972   7.609   7.307   8.764 -0.3769  0.6999  0.0887
10537SOL    HW135973   7.541   7.350   8.816 -1.7971 -1.1567 -0.1129
10537SOL    HW235974   7.582   7.320   8.673 -0.1570  0.4225 -0.0197
10538SOL     OW35975   8.433   6.071   7.196 -0.4083 -0.1590 -0.4212
10538SOL    HW135976   8.514   6.123   7.199 -0.4598 -0.0358 -1.0513
10538SOL    HW235977   8.428   6.030   7.282 -0.2990  0.7790  0.0501
10539SOL     OW35978   7.041  10.729   4.575  0.1426 -0.3687  0.9554
10539SOL    HW135979   6.959  10.716   4.621 -0.6272  0.2388 -0.1823
10539SOL    HW235980   7.105  10.745   4.644 -1.2387  2.0358  1.8202
10540SOL     OW35981   7.712   3.507   4.621 -0.1631  0.4719 -0.0718
10540SOL    HW135982   7.789   3.460   4.589 -1.1099 -0.4817 -0.9968
10540SOL    HW235983   7.724   3.597   4.590  1.1978  0.6596  0.9064
10541SOL     OW35984   9.684   8.593   9.199  0.5957  0.3578 -0.0736
10541SOL    HW135985   9.746   8.526   9.227  1.4664  0.4713 -1.5837
10541SOL    HW235986   9.602   8.546   9.184  1.7467 -0.8833 -3.2258
10542SOL     OW35987   7.875   0.339   7.485  0.1279 -0.1411 -0.2850
10542SOL    HW135988   7.941   0.318   7.419  1.3424  0.9755  0.5201
10542SOL    HW235989   7.876   0.264   7.544 -0.2110 -0.6774 -0.9537
10543SOL     OW35990   2.717   4.772   3.239  0.0261  0.2992  1.0280
10543SOL    HW135991   2.649   4.822   3.196  0.6742  0.9687  0.7612
10543SOL    HW235992   2.702   4.785   3.332 -1.3915 -1.1705  1.0538
10544SOL     OW35993   9.032   6.843  10.508 -0.1025 -1.0235 -0.1175
10544SOL    HW135994   9.032   6.908  10.437 -0.7085 -0.3979  0.4431
10544SOL    HW235995   9.045   6.759  10.463  0.2811 -0.5628 -0.8936
10545SOL     OW35996   0.205  10.871  10.253 -0.0866  0.0764 -0.0514
10545SOL    HW135997   0.142  10.901  10.187  1.1114  2.2475 -0.3094
10545SOL    HW235998   0.152  10.823  10.316 -1.9352  1.4033 -0.5082
10546SOL     OW35999  10.647   5.837   9.289  0.5049 -0.2124 -0.0065
10546SOL    HW136000  10.582   5.836   9.359  0.0551 -0.0457 -0.4129
10546SOL    HW236001  10.722   5.790   9.325  0.4036  0.1425  0.7009
10547SOL     OW36002   5.524   1.717   8.154  0.1704 -0.5855 -0.2383
10547SOL    HW136003   5.579   1.697   8.079 -0.8177  0.6754 -1.3591
10547SOL    HW236004   5.511   1.812   8.149 -3.0177 -0.9324 -0.7417
10548SOL     OW36005  10.790   8.880   2.303  0.3341  0.0708 -0.1197
10548SOL    HW136006  10.819   8.849   2.389 -1.1553 -0.5751  0.1674
10548SOL    HW236007  10.724   8.817   2.275 -1.5035  1.9678 -0.3288
10549SOL     OW36008   2.177   5.156   5.118 -0.7467 -0.7880  0.2359
10549SOL    HW136009   2.143   5.246   5.114  1.6945  0.1683 -1.3296
10549SOL    HW236010   2.172   5.125   5.028  0.1500 -1.5233  0.4283
10550SOL     OW36011   8.055  10.611   4.478 -0.4601  0.0247 -0.1052
10550SOL    HW136012   8.067  10.658   4.396 -0.2222  0.4594  0.1704
10550SOL    HW236013   8.087  10.672   4.545  1.0164 -0.9717  0.1610
10551SOL     OW36014   6.804   0.922   3.240 -0.7164  0.5779  0.1309
10551SOL    HW136015   6.821   0.948   3.150 -1.6595 -0.3328 -0.3356
10551SOL    HW236016   6.820   0.827   3.241 -2.3237  0.2817  0.4854
10552SOL     OW36017   5.456  10.304   4.192 -0.5548 -0.2543 -0.3070
10552SOL    HW136018   5.466  10.300   4.097 -0.7022 -1.8347 -0.2824
10552SOL    HW236019   5.545  10.296   4.226 -0.1480  2.9602 -0.2822
10553SOL     OW36020   9.434   9.457   5.508  0.4911  0.4065  0.1327
10553SOL    HW136021   9.415   9.540   5.465  2.0807  0.0703 -1.3228
10553SOL    HW236022   9.458   9.398   5.437 -1.1670 -1.5109  1.0685
10554SOL     OW36023   0.775   8.423   2.638 -0.9093  0.4460  0.3335
10554SOL    HW136024   0.689   8.391   2.667 -0.4620  1.6738  3.4014
10554SOL    HW236025   0.759   8.515   2.616 -0.5729  0.4319  0.0370
10555SOL     OW36026  10.902  10.835   4.904 -0.5172  0.3132 -0.3221
10555SOL    HW136027  10.994  10.834   4.933  0.2143  0.2916 -2.4562
10555SOL    HW236028  10.897  10.910   4.844 -1.3103 -0.9287 -1.8791
10556SOL     OW36029   9.068   7.509  10.631 -0.0369  0.4460 -0.2541
10556SOL    HW136030   9.004   7.441  10.607  0.0542  0.3247 -0.1570
10556SOL    HW236031   9.153   7.466  10.621 -0.0406 -0.2883  2.3392
10557SOL     OW36032   0.364   7.092   7.387 -0.0048 -0.2485  0.0021
10557SOL    HW136033   0.316   7.009   7.384 -2.1128  0.9284 -2.1056
10557SOL    HW236034   0.429   7.085   7.318  1.0319 -0.7752  1.0033
10558SOL     OW36035  10.476   4.618   9.230 -0.2277  0.2532 -0.1594
10558SOL    HW136036  10.564   4.652   9.214 -0.5302  1.1844  0.1057
10558SOL    HW236037  10.420   4.696   9.233 -0.8358 -0.2136  1.1592
10559SOL     OW36038   5.096   6.578   7.059 -0.4881  0.2914 -0.7668
10559SOL    HW136039   5.138   6.508   7.008 -1.4831  0.2579 -1.5791
10559SOL    HW236040   5.111   6.657   7.007 -0.5541  0.4475 -0.5449
10560SOL     OW36041   3.637   9.929   6.096 -0.1248 -0.5264  0.2675
10560SOL    HW136042   3.601   9.847   6.129  0.8653 -0.0844  2.6311
10560SOL    HW236043   3.731   9.914   6.091  0.1393  0.5900  1.2539
10561SOL     OW36044   0.159   9.429   0.570  0.1549  0.5205 -0.5483
10561SOL    HW136045   0.195   9.516   0.584  1.1500  0.1732 -0.8780
10561SOL    HW236046   0.066   9.438   0.588  0.3739  1.4832  0.1609
10562SOL     OW36047   9.114   5.476   5.645 -0.1993  0.1945  0.0206
10562SOL    HW136048   9.100   5.528   5.724 -0.2853 -1.1783  0.9663
10562SOL    HW236049   9.059   5.398   5.658  1.2851 -0.9856 -0.4537
10563SOL     OW36050   7.384   5.301   7.477 -0.0110 -0.3917 -0.2781
10563SOL    HW136051   7.314   5.324   7.416 -0.9758 -0.8352  0.6431
10563SOL    HW236052   7.386   5.373   7.540 -0.4412 -0.9648  0.3888
10564SOL     OW36053   9.221   5.377   7.430  0.0866  0.4737 -0.0762
10564SOL    HW136054   9.230   5.472   7.429 -1.0123  0.5804 -1.0045
10564SOL    HW236055   9.301   5.345   7.387  0.4914  0.9644  0.3023
10565SOL     OW36056  10.169   6.682   2.635 -0.5163  0.5357 -0.3538
10565SOL    HW136057  10.214   6.729   2.705 -1.2796  1.2349 -0.3179
10565SOL    HW236058  10.239   6.643   2.583  0.0682 -0.9591  1.4306
10566SOL     OW36059   7.953   0.350   1.647 -0.6111 -0.3516 -0.3484
10566SOL    HW136060   7.918   0.348   1.558  0.5155 -2.8874 -0.8274
10566SOL    HW236061   7.922   0.269   1.687  1.3039 -0.7208  0.5296
10567SOL     OW36062   0.619   2.567   7.516  0.4929 -0.1877  0.4212
10567SOL    HW136063   0.545   2.575   7.455 -0.4636 -1.7489  1.2914
10567SOL    HW236064   0.695   2.552   7.460 -0.2044 -0.6038 -0.4372
10568SOL     OW36065   4.225   2.958   7.044  0.3472  0.1822 -0.3047
10568SOL    HW136066   4.318   2.980   7.057  0.2817  0.7987 -0.8593
10568SOL    HW236067   4.191   2.945   7.133  0.7832  0.7093 -0.0574
10569SOL     OW36068   0.835   0.677   0.619 -0.2348  0.0917  0.0213
10569SOL    HW136069   0.828   0.596   0.669 -0.0949  0.1922  0.2053
10569SOL    HW236070   0.806   0.654   0.531 -1.3145  0.1083  0.3550
10570SOL     OW36071   0.477   1.891   4.478  0.2907 -0.6990 -0.3285
10570SOL    HW136072   0.558   1.874   4.527 -1.0789  0.4011  2.5755
10570SOL    HW236073   0.493   1.975   4.434  0.6689 -0.3509  0.4517
10571SOL     OW36074   6.103   1.021   8.559  0.1259 -0.5570  0.0862
10571SOL    HW136075   6.171   0.963   8.526  0.4210  0.4038 -1.1197
10571SOL    HW236076   6.034   1.017   8.492  0.6141  1.2349 -0.5948
10572SOL     OW36077   2.092   0.080   8.552 -0.1415 -0.1050 -0.8416
10572SOL    HW136078   2.163   0.056   8.612  0.8208 -0.3084 -2.0105
10572SOL    HW236079   2.078   0.002   8.498 -0.4158  0.3325 -1.4160
10573SOL     OW36080   9.630   8.235   8.725  0.0033 -0.0483 -0.0318
10573SOL    HW136081   9.605   8.193   8.808  0.2423  0.5586  0.3516
10573SOL    HW236082   9.568   8.199   8.661  0.2628 -1.0555  0.2641
10574SOL     OW36083  10.342   8.476   1.193 -0.8328  0.1211 -0.2700
10574SOL    HW136084  10.369   8.529   1.268  0.0958  0.4843 -0.8487
10574SOL    HW236085  10.388   8.393   1.204 -0.4817  0.2741 -0.5842
10575SOL     OW36086   7.598   6.670   9.132 -0.4872 -0.4885  0.4546
10575SOL    HW136087   7.531   6.702   9.072 -0.4024  1.2592  1.2283
10575SOL    HW236088   7.680   6.678   9.082 -0.8987 -4.3858 -1.1874
10576SOL     OW36089   7.154   2.807  10.289  0.1929 -0.1112 -0.5255
10576SOL    HW136090   7.133   2.739  10.353  0.5250  0.2556 -0.0181
10576SOL    HW236091   7.213   2.866  10.335 -0.9395  1.1284 -0.5793
10577SOL     OW36092   2.153   1.377   5.003 -0.0813  0.2718  0.4697
10577SOL    HW136093   2.244   1.384   4.973 -0.4956  1.0071 -0.6773
10577SOL    HW236094   2.118   1.302   4.954 -1.0214  2.0260 -1.7012
10578SOL     OW36095   0.033   6.331   2.252  0.3021  0.0467 -0.3753
10578SOL    HW136096  -0.038   6.367   2.305  1.8788  0.5170  1.5386
10578SOL    HW236097   0.046   6.396   2.183 -1.2821 -0.1912 -0.9407
10579SOL     OW36098   3.847   9.547   8.979  1.0929 -0.2322 -0.2033
10579SOL    HW136099   3.791   9.598   8.920  1.4461  2.8932  1.8965
10579SOL    HW236100   3.825   9.456   8.960 -1.6683  0.7144 -2.3342
10580SOL     OW36101   2.682   1.210   8.144  0.7159  0.4708 -0.1785
10580SOL    HW136102   2.603   1.157   8.132  1.4718 -0.6543 -0.2906
10580SOL    HW236103   2.657   1.297   8.113  0.2580 -0.4630 -2.6471
10581SOL     OW36104   9.138   6.138   9.323  0.2891  0.2587  0.0839
10581SOL    HW136105   9.168   6.202   9.258  1.1308  0.6479  0.8154
10581SOL    HW236106   9.057   6.102   9.287  0.0594  1.3867 -0.5800
10582SOL     OW36107   9.751   8.849   7.524 -0.1455  0.4500  0.3416
10582SOL    HW136108   9.742   8.880   7.614  0.3329  1.6093  0.0111
10582SOL    HW236109   9.804   8.916   7.481  1.5504 -1.1687 -0.2476
10583SOL     OW36110   4.189   6.883   4.861 -0.1742 -0.0267  0.1351
10583SOL    HW136111   4.132   6.938   4.807 -0.8379  0.7598  1.6017
10583SOL    HW236112   4.255   6.943   4.896 -0.9421 -0.1064  1.8070
10584SOL     OW36113  10.219   3.777   6.434  0.2319 -0.2183 -0.4311
10584SOL    HW136114  10.136   3.808   6.469 -0.2438  0.1507 -1.7995
10584SOL    HW236115  10.209   3.682   6.427  0.6932 -0.4179  1.2678
10585SOL     OW36116   6.566   3.066   0.111  0.3705  0.2614 -0.0881
10585SOL    HW136117   6.524   3.100   0.190 -2.8403 -0.8028 -1.1731
10585SOL    HW236118   6.633   3.006   0.144  0.4923  1.3395  1.7872
10586SOL     OW36119   0.832   0.896   1.206 -0.0688 -0.0457  0.0306
10586SOL    HW136120   0.806   0.889   1.114 -1.6019  1.3134  0.2925
10586SOL    HW236121   0.756   0.864   1.255  0.2304  0.4181  0.8296
10587SOL     OW36122   8.075  11.098   4.250 -0.3462 -0.6519 -0.0721
10587SOL    HW136123   8.055  11.191   4.246  0.3058 -0.4829  0.3471
10587SOL    HW236124   8.041  11.062   4.168 -2.3377 -0.4035  0.5992
10588SOL     OW36125   0.179   8.078   1.950  0.4328  0.2864  0.0860
10588SOL    HW136126   0.159   8.157   1.999 -1.0045  0.0213 -0.0413
10588SOL    HW236127   0.274   8.066   1.960  0.4918  1.4362  0.9601
10589SOL     OW36128   0.639   2.709   8.565  0.4659  0.0157 -0.1440
10589SOL    HW136129   0.716   2.692   8.511  0.9602  4.5841 -1.2914
10589SOL    HW236130   0.662   2.673   8.651  2.6010 -1.3514 -1.2033
10590SOL     OW36131   2.981   8.627   2.840 -0.3157 -0.0573  0.0248
10590SOL    HW136132   2.974   8.622   2.935  2.6563 -1.2104  0.2846
10590SOL    HW236133   3.051   8.691   2.824 -0.7318  0.0806 -1.4158
10591SOL     OW36134   6.935   7.011   7.553 -0.7040 -0.0398 -0.2266
10591SOL    HW136135   6.985   6.936   7.520 -3.1333 -1.5853 -0.6961
10591SOL    HW236136   6.994   7.085   7.544  2.2565 -2.0334  1.3255
10592SOL     OW36137   0.957   4.143  10.314  0.1605 -0.1712 -0.5566
10592SOL    HW136138   1.036   4.132  10.261 -0.6704  0.0884 -1.9062
10592SOL    HW236139   0.889   4.167  10.251 -0.7156  0.8986  0.7377
10593SOL     OW36140   6.858   5.266  11.003 -0.0328  0.0416 -0.3352
10593SOL    HW136141   6.906   5.240  10.924  2.9350  1.3790  0.8492
10593SOL    HW236142   6.803   5.339  10.975  0.5253  0.1088 -1.3028
10594SOL     OW36143  10.917   6.537   8.065 -0.1051 -0.1626  0.2145
10594SOL    HW136144  10.919   6.452   8.109 -0.5338  0.1490  0.8542
10594SOL    HW236145  11.007   6.551   8.036 -0.3165 -1.5305 -1.2825
10595SOL     OW36146   4.668   6.298   6.970  0.4116  0.3428  0.2561
10595SOL    HW136147   4.619   6.341   6.900  0.2159 -0.7857 -0.3230
10595SOL    HW236148   4.643   6.206   6.964  0.4588  0.2043  1.7710
10596SOL     OW36149   7.937   1.615   9.349  0.1327 -0.1484 -0.1332
10596SOL    HW136150   7.867   1.626   9.413  0.3769  0.5122  0.0304
10596SOL    HW236151   7.892   1.615   9.265  0.0868  2.4383 -0.1851
10597SOL     OW36152   4.800   3.036   3.338  0.5314 -0.3752  0.2529
10597SOL    HW136153   4.845   2.951   3.340 -0.3464 -0.8516  0.5505
10597SOL    HW236154   4.728   3.026   3.401 -0.4478  0.0983 -0.7558
10598SOL     OW36155   8.709   8.261   3.261  0.1073  0.0236  0.5589
10598SOL    HW136156   8.645   8.319   3.219  1.9121  0.9582 -1.0566
10598SOL    HW236157   8.706   8.287   3.353  0.2269  2.1327  0.0307
10599SOL     OW36158   2.163   5.705   5.316  0.3479  0.0399  0.4140
10599SOL    HW136159   2.237   5.746   5.360  0.1462  0.5502  0.2812
10599SOL    HW236160   2.121   5.775   5.267 -0.0325 -0.3112  0.2224
10600SOL     OW36161  10.547   8.427   2.223  0.2955  0.0963  0.1980
10600SOL    HW136162  10.581   8.380   2.299  1.0924  1.1844  0.5399
10600SOL    HW236163  10.452   8.432   2.239  0.4647  0.4418  1.2083
10601SOL     OW36164   1.068   5.284   1.569  0.2163 -0.3565 -0.3156
10601SOL    HW136165   0.985   5.264   1.612  0.6107 -2.8876 -0.5862
10601SOL    HW236166   1.048   5.283   1.475  0.3034  0.4695 -0.3583
10602SOL     OW36167   1.482   3.476   4.735  0.2165  0.1421 -0.1017
10602SOL    HW136168   1.496   3.496   4.827  0.3908  1.2584 -0.3570
10602SOL    HW236169   1.546   3.530   4.689 -0.0880 -0.1642 -0.8985
10603SOL     OW36170   4.577   0.767   5.781 -0.1972 -0.1298  0.0016
10603SOL    HW136171   4.601   0.801   5.867  3.2622 -0.6337 -0.6079
10603SOL    HW236172   4.600   0.837   5.720  0.7907 -1.0754 -0.7461
10604SOL     OW36173   9.769   5.105   7.432 -0.3687 -0.4353 -0.3851
10604SOL    HW136174   9.684   5.069   7.456 -0.5220  0.4780  0.5253
10604SOL    HW236175   9.827   5.081   7.504  0.1598 -1.0272 -0.9855
10605SOL     OW36176   0.382   0.147   9.394  0.9122 -0.9718  0.3805
10605SOL    HW136177   0.351   0.059   9.417  0.8016 -1.0074  0.0934
10605SOL    HW236178   0.478   0.138   9.392  0.8586 -1.5166 -1.3353
10606SOL     OW36179   0.173   4.106   1.032  0.0077  0.1068  0.3675
10606SOL    HW136180   0.209   4.053   1.103 -1.0470  0.2444  1.0260
10606SOL    HW236181   0.118   4.045   0.983  1.9393 -0.3867 -1.3082
10607SOL     OW36182   6.373   2.594   5.712 -0.0620  0.6723  0.4175
10607SOL    HW136183   6.347   2.685   5.729 -1.5098  1.1312 -3.2445
10607SOL    HW236184   6.451   2.602   5.656 -0.7000 -0.2915 -0.6319
10608SOL     OW36185   8.963   8.390   3.826 -0.1513 -0.2506  0.3771
10608SOL    HW136186   8.998   8.382   3.737 -0.2668 -1.7827  0.4323
10608SOL    HW236187   8.878   8.432   3.815  0.2076  0.3709 -0.1283
10609SOL     OW36188   1.043  10.941   7.880  0.1625  0.0064  0.0870
10609SOL    HW136189   0.964  10.977   7.840  0.6364  0.4207 -0.5026
10609SOL    HW236190   1.087  11.016   7.919  1.3403  0.1987 -1.4643
10610SOL     OW36191   0.932   0.329   6.654  0.2694  0.3664 -1.0687
10610SOL    HW136192   0.922   0.320   6.749  2.0723 -2.8565 -1.0367
10610SOL    HW236193   1.012   0.380   6.643  0.1389  0.6174 -0.8599
10611SOL     OW36194   0.434   6.591   5.587 -0.1257  0.2748 -1.1136
10611SOL    HW136195   0.423   6.680   5.554  1.0719  0.0795 -2.0893
10611SOL    HW236196   0.435   6.536   5.508  1.6377 -0.3293 -0.7067
10612SOL     OW36197   4.942   7.189   5.815  0.5447 -0.2569 -0.3173
10612SOL    HW136198   4.977   7.266   5.860 -1.2222  1.0454 -1.0722
10612SOL    HW236199   4.849   7.206   5.808  0.4291 -1.4946 -2.4467
10613SOL     OW36200   1.970   7.836   7.783  0.5804 -0.2362 -0.1647
10613SOL    HW136201   1.968   7.748   7.820 -0.8018 -0.5947 -1.0213
10613SOL    HW236202   2.044   7.878   7.826  1.0850 -1.7133  0.4801
10614SOL     OW36203   1.202   4.910   6.758  0.1027 -0.3152  0.6406
10614SOL    HW136204   1.264   4.975   6.790  0.6832 -1.1893  1.3158
10614SOL    HW236205   1.181   4.939   6.669 -0.1966  1.1769  1.1649
10615SOL     OW36206   6.526   8.043   6.727 -0.3714 -0.0033  0.2413
10615SOL    HW136207   6.581   8.106   6.772  0.5038 -0.2783 -0.4046
10615SOL    HW236208   6.438   8.058   6.761  0.0602  0.6120  1.1128
10616SOL     OW36209   3.431  10.107   1.565 -0.3255 -0.9380 -0.8824
10616SOL    HW136210   3.414  10.183   1.621  0.4875 -0.4762 -1.2512
10616SOL    HW236211   3.360  10.046   1.586  0.3135 -1.0617  1.1324
10617SOL     OW36212   2.608   3.862   2.834  0.3872 -0.7380 -0.0550
10617SOL    HW136213   2.577   3.920   2.764  2.0966 -0.0852 -0.3332
10617SOL    HW236214   2.550   3.880   2.908 -1.3779 -1.3453 -1.2226
10618SOL     OW36215   2.414   6.077   6.821  0.7208 -0.3167 -0.6082
10618SOL    HW136216   2.348   6.146   6.818  1.9866  1.0244  0.7102
10618SOL    HW236217   2.364   5.996   6.821 -0.9416  0.6445  0.4329
10619SOL     OW36218   7.579   0.580  10.161 -0.2054  0.3983 -0.1254
10619SOL    HW136219   7.576   0.638  10.237 -1.2829  0.6178 -0.3230
10619SOL    HW236220   7.586   0.492  10.198  1.1452  0.6130  0.1788
10620SOL     OW36221   7.357   7.923  10.170  0.1082  0.2759 -0.3595
10620SOL    HW136222   7.430   7.897  10.114  0.0254 -1.2465  0.1985
10620SOL    HW236223   7.327   8.005  10.132  0.5191 -0.3240 -2.1180
10621SOL     OW36224   6.761   1.253   0.001  0.4518 -0.1792  0.2875
10621SOL    HW136225   6.700   1.198  -0.049  0.2971 -0.1095  0.3985
10621SOL    HW236226   6.809   1.192   0.056 -0.3372 -0.1229  1.0659
10622SOL     OW36227   9.134   4.104   0.537  0.5357 -0.2328  0.1173
10622SOL    HW136228   9.108   4.194   0.554  1.2405 -0.0184  0.0811
10622SOL    HW236229   9.158   4.069   0.623  0.3408 -0.3629  0.1201
10623SOL     OW36230   8.864  11.048   4.064 -0.0060 -0.6950  0.3524
10623SOL    HW136231   8.883  10.958   4.037  1.9531 -0.0744 -0.5571
10623SOL    HW236232   8.808  11.083   3.995 -0.7782 -1.1924  0.7111
10624SOL     OW36233   9.459  10.793   2.187  0.4454  0.0241  0.4842
10624SOL    HW136234   9.551  10.767   2.184  0.2886 -0.5370 -1.6508
10624SOL    HW236235   9.461  10.889   2.188  1.1136  0.0749 -1.3492
10625SOL     OW36236   1.673   4.744   4.959 -0.2371  0.0424 -0.8203
10625SOL    HW136237   1.580   4.738   4.983  0.2917 -0.6796  1.2014
10625SOL    HW236238   1.696   4.656   4.930 -0.2783  0.3376 -1.7773
10626SOL     OW36239   5.901   3.564   2.964 -0.6472 -0.2231 -0.5227
10626SOL    HW136240   5.953   3.615   3.027 -0.3573  0.1929 -1.0920
10626SOL    HW236241   5.867   3.491   3.016  1.1502 -0.9611 -0.2892
10627SOL     OW36242   1.773   5.873   1.174 -0.1516  0.4339  0.0902
10627SOL    HW136243   1.864   5.900   1.168 -0.2250  0.5056 -0.8988
10627SOL    HW236244   1.727   5.927   1.109 -0.9359  0.5667  0.7382
10628SOL     OW36245   1.312  10.958   3.537 -0.4524  0.1885  0.4576
10628SOL    HW136246   1.407  10.949   3.536 -0.3338  1.1837 -0.8004
10628SOL    HW236247   1.281  10.887   3.481 -0.2281  1.2999 -1.1783
10629SOL     OW36248   7.316   7.078   2.877 -0.4752  0.4057  0.5857
10629SOL    HW136249   7.287   7.126   2.799  0.2756  1.0480  0.6807
10629SOL    HW236250   7.391   7.027   2.846 -1.0483 -0.4403  0.5718
10630SOL     OW36251   7.947  10.858   1.273  0.1572  0.1760 -0.0584
10630SOL    HW136252   7.958  10.882   1.181  0.6014 -1.0385 -0.3407
10630SOL    HW236253   7.984  10.931   1.322  1.0309  0.2984 -0.8766
10631SOL     OW36254   5.331   0.347   3.102 -0.2568  0.0929  0.0509
10631SOL    HW136255   5.317   0.286   3.175 -0.3544  1.4712  1.2505
10631SOL    HW236256   5.354   0.292   3.028  3.2884 -1.2242  1.9297
10632SOL     OW36257  10.299   3.556   0.760 -0.1468 -0.4130  0.1645
10632SOL    HW136258  10.304   3.560   0.664 -1.0303 -1.9252  0.0250
10632SOL    HW236259  10.342   3.474   0.783  0.4985  0.1798  1.1251
10633SOL     OW36260   6.384   3.239   1.534 -0.2534  0.2696 -0.2429
10633SOL    HW136261   6.407   3.213   1.624 -1.2907 -1.1283 -0.3384
10633SOL    HW236262   6.467   3.236   1.487 -0.2265 -3.0671 -0.2265
10634SOL     OW36263   5.256   4.535   4.563  0.0627  0.2558  0.2199
10634SOL    HW136264   5.313   4.541   4.487 -0.7503  0.0896 -0.4131
10634SOL    HW236265   5.190   4.470   4.539  0.7088 -0.9931  1.6741
10635SOL     OW36266   2.916   8.459   3.688  0.0967  0.6331 -0.5008
10635SOL    HW136267   2.925   8.479   3.782 -0.3513 -0.9951 -0.0823
10635SOL    HW236268   2.983   8.513   3.646  0.3178  1.3784  0.7551
10636SOL     OW36269  10.870   8.858   7.428 -0.1945 -0.2618 -0.1075
10636SOL    HW136270  10.813   8.934   7.442 -1.4165 -1.3798  1.2426
10636SOL    HW236271  10.939   8.868   7.494 -0.0894 -0.0813 -0.2440
10637SOL     OW36272   8.955   0.178   1.525 -0.1624 -0.0294 -0.0380
10637SOL    HW136273   8.917   0.234   1.458  0.1022  0.2102  0.0058
10637SOL    HW236274   9.036   0.224   1.551 -1.7657  1.5535  2.6584
10638SOL     OW36275   9.420  10.025   1.261 -0.2084  0.4566  0.4736
10638SOL    HW136276   9.384  10.079   1.331 -1.4334 -1.4006  1.3862
10638SOL    HW236277   9.412  10.078   1.182 -0.9399  1.7424  1.3725
10639SOL     OW36278   3.610   9.981   9.268  0.0667  0.0633 -0.0165
10639SOL    HW136279   3.667  10.050   9.302 -0.1707 -0.0741  0.6612
10639SOL    HW236280   3.537   9.978   9.328  0.3837 -1.2266  0.3344
10640SOL     OW36281   3.319  10.241   3.868  0.0045 -0.0664 -0.4235
10640SOL    HW136282   3.237  10.228   3.914 -0.5603 -0.1656 -1.4292
10640SOL    HW236283   3.365  10.308   3.918 -0.1208 -0.9184  0.8636
10641SOL     OW36284   3.653   3.525   6.602  0.5539 -0.9965 -0.7740
10641SOL    HW136285   3.571   3.530   6.652  1.9696  1.4410  1.5818
10641SOL    HW236286   3.631   3.559   6.515 -0.9109 -0.2852 -0.1517
10642SOL     OW36287   0.881   5.208   4.163 -0.3476 -0.0023  0.5191
10642SOL    HW136288   0.851   5.142   4.100 -0.0217 -0.4085  0.7818
10642SOL    HW236289   0.809   5.219   4.224 -1.1353  1.2590 -0.5809
10643SOL     OW36290   1.211   6.603   7.968 -0.6488 -0.1554  0.3694
10643SOL    HW136291   1.144   6.534   7.979  2.0635 -3.4014 -1.5143
10643SOL    HW236292   1.243   6.591   7.879  0.5900  3.1203  0.2536
10644SOL     OW36293   5.506   6.028  10.990  0.3051 -0.6254 -0.2298
10644SOL    HW136294   5.416   6.045  11.018  0.3872 -1.2945  0.4657
10644SOL    HW236295   5.531   6.106  10.941 -0.8568 -0.6873 -0.9347
10645SOL     OW36296  11.000   8.573   6.221  0.3522 -0.1567 -0.8888
10645SOL    HW136297  10.973   8.485   6.249  1.6100  0.2885  2.1916
10645SOL    HW236298  11.092   8.564   6.198  1.6326  0.7834  2.9935
10646SOL     OW36299   4.605   3.059   2.006 -0.1696 -0.1814 -0.7760
10646SOL    HW136300   4.517   3.024   2.024 -0.5041  2.2771  3.7403
10646SOL    HW236301   4.664   2.996   2.047  0.0694 -0.6690 -1.8346
10647SOL     OW36302   4.550   4.374   0.016  0.0074 -0.1673  0.4705
10647SOL    HW136303   4.564   4.445  -0.046 -0.0223 -0.2229  0.3997
10647SOL    HW236304   4.558   4.294  -0.037 -0.3752 -0.2069  0.4650
10648SOL     OW36305  10.094   9.560   4.667 -0.2317  0.3333  0.0152
10648SOL    HW136306  10.141   9.629   4.714  0.5796 -0.0980 -0.1480
10648SOL    HW236307  10.097   9.588   4.575 -0.4457  0.3864  0.0226
10649SOL     OW36308   5.976   5.659   0.880 -0.4183  0.3779  0.2040
10649SOL    HW136309   5.937   5.667   0.967  1.0924  0.1202  0.9413
10649SOL    HW236310   5.923   5.716   0.825  0.0777  2.5644  1.8391
10650SOL     OW36311   2.099   0.109   4.165  0.0861 -0.1725  0.1883
10650SOL    HW136312   2.006   0.103   4.185 -0.4434  1.2230 -1.5606
10650SOL    HW236313   2.114   0.043   4.098 -0.2262  1.1034 -1.2086
10651SOL     OW36314  10.174   3.192   4.984  0.3969 -0.5954 -0.0268
10651SOL    HW136315  10.079   3.191   4.992  0.2951 -3.1729 -0.4984
10651SOL    HW236316  10.206   3.177   5.073  0.3654  0.1525  0.1125
10652SOL     OW36317   7.131   3.540   4.672  0.3763 -0.2555  0.4786
10652SOL    HW136318   7.153   3.467   4.730  0.0508 -1.3074 -0.6836
10652SOL    HW236319   7.196   3.537   4.602  0.3042  0.5230  0.3641
10653SOL     OW36320   8.729   2.186   9.401  0.2580  0.1997 -0.0918
10653SOL    HW136321   8.730   2.159   9.493  0.5710 -0.5963 -0.3147
10653SOL    HW236322   8.637   2.203   9.381 -0.0936 -1.5837 -0.1622
10654SOL     OW36323   4.476   9.838   9.836  0.1350 -0.5218  0.4014
10654SOL    HW136324   4.411   9.794   9.780  0.2739 -1.3140  0.8566
10654SOL    HW236325   4.428   9.860   9.915  0.2952 -0.6698  0.5394
10655SOL     OW36326   9.287   0.325   1.162  0.0960 -0.6746 -0.2429
10655SOL    HW136327   9.372   0.366   1.183  0.0660 -0.7142 -0.0431
10655SOL    HW236328   9.277   0.339   1.068 -1.4058  2.6553  0.2556
10656SOL     OW36329   9.867   8.531  10.981  0.1266 -0.0794 -0.2523
10656SOL    HW136330   9.895   8.445  10.949  0.2549 -0.5515  1.0741
10656SOL    HW236331   9.929   8.552  11.050 -0.9939  0.2227  0.6937
10657SOL     OW36332   1.190   6.116   7.356  0.2057 -0.2648 -0.2661
10657SOL    HW136333   1.209   6.198   7.309  0.4829 -1.1519 -1.7483
10657SOL    HW236334   1.197   6.140   7.449  0.6244  1.3092 -0.6670
10658SOL     OW36335  10.917   1.149   5.605 -0.2621  0.1818  0.5168
10658SOL    HW136336  10.903   1.225   5.549 -0.2687  0.5420  1.0103
10658SOL    HW236337  10.870   1.168   5.685 -0.6522 -0.5440  0.4712
10659SOL     OW36338   7.006   7.064   9.186 -0.2401  0.0808  0.0481
10659SOL    HW136339   6.945   7.014   9.241 -0.7686 -1.1335 -1.5675
10659SOL    HW236340   6.977   7.048   9.096  1.1132  1.3119 -0.6595
10660SOL     OW36341   4.269   7.803  10.810 -0.6822 -0.3456  0.0652
10660SOL    HW136342   4.277   7.859  10.733 -0.4588 -1.8035 -1.0194
10660SOL    HW236343   4.193   7.748  10.792 -0.8673 -0.4346  1.0706
10661SOL     OW36344   6.206   0.445   1.943 -0.9159  0.4114  0.3484
10661SOL    HW136345   6.256   0.506   1.997 -1.3144 -0.2332  1.4875
10661SOL    HW236346   6.118   0.448   1.981 -1.4522  0.6413 -0.8733
10662SOL     OW36347   0.321  10.848   7.422 -0.5054 -0.0066  0.2914
10662SOL    HW136348   0.369  10.768   7.400  1.3502  0.9188  0.7563
10662SOL    HW236349   0.318  10.898   7.340 -1.4983 -0.4505  0.0461
10663SOL     OW36350   9.836   9.813   1.792  0.1224  0.0535  0.3038
10663SOL    HW136351   9.863   9.721   1.789 -1.2510 -0.3821  0.5349
10663SOL    HW236352   9.798   9.829   1.706 -0.8408 -0.0017  0.7037
10664SOL     OW36353   6.003  11.104   9.993 -0.3383 -0.2697  0.2897
10664SOL    HW136354   5.951  11.169  10.041  0.6573 -0.1995  1.3149
10664SOL    HW236355   6.061  11.066  10.059 -0.6602 -1.9824 -0.3459
10665SOL     OW36356  10.088   7.694   9.573  0.1065 -0.7733  0.6244
10665SOL    HW136357  10.074   7.644   9.493  0.1691  1.6689 -1.0226
10665SOL    HW236358  10.028   7.769   9.565  1.8917  0.8601  1.6287
10666SOL     OW36359   1.146   2.759   9.152  0.2173  0.3211 -0.3731
10666SOL    HW136360   1.236   2.750   9.183  0.0515 -1.5040 -0.3177
10666SOL    HW236361   1.154   2.775   9.058  0.6572 -3.4969 -1.1624
10667SOL     OW36362   4.566   2.127   8.328  0.5546  0.0528  0.0244
10667SOL    HW136363   4.626   2.102   8.397  1.1311  3.2754  0.8502
10667SOL    HW236364   4.539   2.217   8.350 -3.2516 -0.5958 -1.2101
10668SOL     OW36365   5.310   6.398   3.759  0.3259 -0.2490  0.3861
10668SOL    HW136366   5.322   6.410   3.853  0.4952 -1.0442  0.4788
10668SOL    HW236367   5.251   6.468   3.732  0.5443  0.1838  1.0235
10669SOL     OW36368   1.238  10.457   1.090 -0.1397  0.3024 -0.0840
10669SOL    HW136369   1.314  10.469   1.033 -0.5966 -0.1810 -0.8097
10669SOL    HW236370   1.273  10.417   1.170  0.7150  2.1712  0.5401
10670SOL     OW36371   9.016   1.659   2.780  0.4327 -0.2275  0.6376
10670SOL    HW136372   9.051   1.709   2.854  0.6970  0.1443  0.2610
10670SOL    HW236373   9.044   1.569   2.798 -1.3189 -0.5438  2.0937
10671SOL     OW36374   9.566   4.435   2.834  0.0323  0.4741 -0.1533
10671SOL    HW136375   9.502   4.426   2.763  0.3346  0.7842 -0.4631
10671SOL    HW236376   9.650   4.416   2.793 -0.0090 -1.6903  0.6205
10672SOL     OW36377   5.611   8.480   1.492  0.0270 -0.7531 -0.1107
10672SOL    HW136378   5.554   8.543   1.449  1.5142 -0.7125 -2.1763
10672SOL    HW236379   5.630   8.519   1.577  0.3549  1.2618 -1.0587
10673SOL     OW36380   3.529   5.560   7.695 -0.0864 -0.1299  0.2103
10673SOL    HW136381   3.508   5.509   7.773  0.5376 -1.3438 -0.3905
10673SOL    HW236382   3.624   5.555   7.687 -0.1461 -0.0462 -0.6375
10674SOL     OW36383   1.552  10.994   8.705  0.4927  0.3744 -0.3590
10674SOL    HW136384   1.475  10.968   8.653  0.6971  1.7958 -1.4345
10674SOL    HW236385   1.613  11.029   8.641  2.6461 -1.8872  0.2829
10675SOL     OW36386   6.807   3.473   6.218 -0.0499  0.5845 -0.5906
10675SOL    HW136387   6.772   3.501   6.303  0.6679 -3.1772  1.1301
10675SOL    HW236388   6.733   3.429   6.176  0.3323 -0.0109 -0.6473
10676SOL     OW36389   8.869   6.653   1.319 -0.0935 -0.0898 -0.0637
10676SOL    HW136390   8.917   6.583   1.274  1.1561  0.2421  0.6911
10676SOL    HW236391   8.780   6.647   1.285  0.6626 -0.2108 -2.1683
10677SOL     OW36392   3.392   6.210  10.358  0.1417  0.3779 -0.1877
10677SOL    HW136393   3.399   6.228  10.451 -0.7214  1.6505 -0.3324
10677SOL    HW236394   3.429   6.287  10.315  1.6035 -0.6878 -0.9239
10678SOL     OW36395   0.321  10.631   9.653 -0.0337  0.0883  0.2851
10678SOL    HW136396   0.253  10.566   9.637  1.5798 -1.5233 -0.5223
10678SOL    HW236397   0.304  10.662   9.742 -1.7048 -0.3603  0.1576
10679SOL     OW36398   6.811   4.131   1.641  0.1186  0.0090  0.5153
10679SOL    HW136399   6.842   4.050   1.683  1.8536  0.8100  0.8555
10679SOL    HW236400   6.738   4.160   1.697  1.1096 -0.0045  1.8524
10680SOL     OW36401   1.945  10.473   5.598 -0.0729 -0.4542 -0.9623
10680SOL    HW136402   1.900  10.498   5.517  0.8813 -2.6614 -2.2495
10680SOL    HW236403   1.994  10.395   5.575  2.6570  0.5444  0.9625
10681SOL     OW36404  10.755   9.408   3.952  0.1992  0.4472  0.2750
10681SOL    HW136405  10.676   9.369   3.988  0.1469  1.0168  0.7946
10681SOL    HW236406  10.725   9.460   3.878  0.1756  0.1279  0.0578
10682SOL     OW36407   5.699   7.694   8.463  0.2615  0.1987 -0.0502
10682SOL    HW136408   5.654   7.720   8.383 -1.6481 -1.4827  0.3900
10682SOL    HW236409   5.784   7.662   8.434 -0.1446  0.2207 -1.3180
10683SOL     OW36410   9.930   0.798   3.906  0.3178  0.1704 -0.4567
10683SOL    HW136411  10.019   0.825   3.882  1.1438 -1.4168  0.6145
10683SOL    HW236412   9.927   0.705   3.882 -1.0536  0.1921 -0.4321
10684SOL     OW36413  10.131   1.661   0.940 -0.2776 -0.4109  0.4082
10684SOL    HW136414  10.162   1.639   0.853  2.4551 -0.2267  1.2282
10684SOL    HW236415  10.111   1.755   0.936  0.3335 -0.2882  0.0797
10685SOL     OW36416   2.771   5.652   5.061  0.2608  0.0331  0.6803
10685SOL    HW136417   2.842   5.686   5.115 -1.7243  2.4256  1.9461
10685SOL    HW236418   2.767   5.711   4.986  0.1271 -0.5972  0.1813
10686SOL     OW36419   1.492   8.525   0.467 -0.1088 -0.1420 -0.7995
10686SOL    HW136420   1.479   8.498   0.376 -1.0983 -0.6986 -0.5101
10686SOL    HW236421   1.416   8.489   0.514  0.8286 -0.6162  0.4115
10687SOL     OW36422   1.838   2.121   7.312 -0.2188  0.1995  0.0249
10687SOL    HW136423   1.797   2.173   7.243 -0.3480  0.6083  0.4092
10687SOL    HW236424   1.831   2.175   7.391  1.2508  0.3756  0.0614
10688SOL     OW36425  10.331   8.933   9.145  0.2623  0.1852 -0.2533
10688SOL    HW136426  10.368   8.920   9.058 -1.2452  0.7920 -1.0223
10688SOL    HW236427  10.401   8.907   9.205  0.7048 -2.1322 -1.6204
10689SOL     OW36428   0.232   8.853   1.920  0.1123 -0.2092 -0.5077
10689SOL    HW136429   0.239   8.807   2.004  0.0398 -0.9249 -0.8880
10689SOL    HW236430   0.234   8.784   1.854  1.1582  0.3928 -1.1546
10690SOL     OW36431  10.400   4.833   1.724  0.3600  0.0832 -0.2955
10690SOL    HW136432  10.322   4.834   1.668 -0.2233 -1.5573  0.4222
10690SOL    HW236433  10.471   4.809   1.665 -0.1675 -1.1703 -0.4589
10691SOL     OW36434   8.292   6.559   5.495  0.0821 -0.1822 -0.1426
10691SOL    HW136435   8.362   6.548   5.430  0.2602  0.2929 -0.0367
10691SOL    HW236436   8.301   6.483   5.552  2.0193  0.9763  1.2541
10692SOL     OW36437   5.205   8.063   5.689 -0.1612 -0.3223 -0.1845
10692SOL    HW136438   5.265   8.133   5.713 -0.4435 -0.3371  0.6099
10692SOL    HW236439   5.141   8.104   5.631 -1.3282  0.5397  1.5904
10693SOL     OW36440   5.001  10.021   4.477  0.0713 -0.1613 -0.0761
10693SOL    HW136441   4.913   9.985   4.479  1.5429 -4.3802 -1.6927
10693SOL    HW236442   5.038   9.992   4.394  3.4423  0.1982  1.1281
10694SOL     OW36443   8.384   3.052   9.072 -0.0186  0.2484 -0.4329
10694SOL    HW136444   8.300   3.054   9.118 -0.8153  1.7092 -1.8300
10694SOL    HW236445   8.372   2.986   9.004 -0.1016  0.5463 -0.7127
10695SOL     OW36446   0.395   0.422   4.091  0.0179  0.1063  0.3074
10695SOL    HW136447   0.320   0.376   4.054 -0.5164  1.2812 -0.0974
10695SOL    HW236448   0.359   0.470   4.166  0.1958  1.2433 -0.3133
10696SOL     OW36449   5.583   4.727   8.564 -0.5710  0.1459  0.1243
10696SOL    HW136450   5.615   4.727   8.654 -3.0789  1.0102  1.1150
10696SOL    HW236451   5.648   4.678   8.514  1.0734 -0.0128  2.3274
10697SOL     OW36452   7.876   3.169   9.547  0.2269  0.5801 -0.2690
10697SOL    HW136453   7.834   3.157   9.632 -0.3550 -2.7090 -0.8842
10697SOL    HW236454   7.810   3.213   9.494  0.8275  3.2539  1.0635
10698SOL     OW36455   3.200   5.459   6.130 -0.0737 -0.2582  0.5130
10698SOL    HW136456   3.194   5.553   6.143  1.2399 -0.0464 -0.2164
10698SOL    HW236457   3.189   5.447   6.036  2.6385 -0.4983  0.1509
10699SOL     OW36458   2.015   3.836   7.698 -0.3413  0.3216  0.0471
10699SOL    HW136459   2.109   3.847   7.681 -0.0094  0.4318  1.7848
10699SOL    HW236460   2.005   3.744   7.720 -0.4978  0.4767  0.6381
10700SOL     OW36461   7.034   2.266   5.667  0.4515  0.2917 -0.7072
10700SOL    HW136462   6.957   2.303   5.709 -0.3610  1.8376 -3.2731
10700SOL    HW236463   7.000   2.200   5.607  1.3242 -0.3668 -0.4913
10701SOL     OW36464   6.860   4.296   7.394  0.2983  0.2422 -0.4219
10701SOL    HW136465   6.874   4.338   7.479  2.3400  0.3397 -0.7553
10701SOL    HW236466   6.885   4.363   7.330 -0.0511 -0.2304 -1.0600
10702SOL     OW36467   8.856   4.378   7.256  0.2534 -0.1129 -0.1893
10702SOL    HW136468   8.812   4.462   7.244  0.3304 -0.1060 -0.4250
10702SOL    HW236469   8.801   4.315   7.208  1.4062  0.1598 -1.9441
10703SOL     OW36470   8.086   1.859   5.999 -0.4299 -0.3721 -0.3925
10703SOL    HW136471   8.096   1.941   5.950  0.4082 -0.7577 -0.8761
10703SOL    HW236472   8.117   1.881   6.087  0.0944 -0.2417 -0.6018
10704SOL     OW36473   7.720   7.745   9.600  0.0027  0.2309 -0.4889
10704SOL    HW136474   7.665   7.713   9.529  0.8548  0.3829 -1.2334
10704SOL    HW236475   7.810   7.733   9.568  0.4246 -0.2783  0.8066
10705SOL     OW36476   7.856   2.251   1.369  0.2315 -0.0143  0.1963
10705SOL    HW136477   7.935   2.282   1.324  1.7061 -0.8657  2.0638
10705SOL    HW236478   7.863   2.288   1.457 -1.3283 -0.3465  0.4862
10706SOL     OW36479   7.451   9.818  10.958 -0.1460  0.3444  0.5078
10706SOL    HW136480   7.533   9.857  10.930  0.1532 -0.1329  0.6960
10706SOL    HW236481   7.385   9.885  10.943  0.5286  1.4066  2.0563
10707SOL     OW36482   0.898   3.275   5.570 -0.0400 -0.2945 -0.0980
10707SOL    HW136483   0.975   3.306   5.618  1.1988 -1.7770 -1.0071
10707SOL    HW236484   0.901   3.321   5.487 -1.7007  1.6337  0.8472
10708SOL     OW36485   4.860  10.226  11.056  0.1607  0.2608  0.7509
10708SOL    HW136486   4.800  10.289  11.017  0.9599  0.0708 -0.8529
10708SOL    HW236487   4.898  10.179  10.982  0.6590 -1.1327  1.8347
10709SOL     OW36488   7.810   4.150   0.588  0.1049  0.5831  0.8487
10709SOL    HW136489   7.787   4.122   0.500 -0.7983  1.4596  0.7785
10709SOL    HW236490   7.877   4.216   0.576 -0.3796  1.0708  0.7704
10710SOL     OW36491   4.571  10.065   3.915 -0.3465  0.4857 -0.3208
10710SOL    HW136492   4.477  10.082   3.922 -0.2443  1.0447 -0.2293
10710SOL    HW236493   4.589  10.006   3.988 -0.9972 -1.3585 -1.5878
10711SOL     OW36494   8.341   9.467   9.643  0.0406  0.5087 -0.0656
10711SOL    HW136495   8.333   9.376   9.674  0.8244  0.6014  0.4239
10711SOL    HW236496   8.434   9.488   9.653 -0.1932  1.4835  0.1681
10712SOL     OW36497   6.237   1.655   6.722  0.0289  0.5864  0.3986
10712SOL    HW136498   6.148   1.678   6.747  0.4089  0.9235  1.5070
10712SOL    HW236499   6.279   1.739   6.702  0.3483  0.5320  0.8011
10713SOL     OW36500   4.668   7.555   3.428  0.3150  0.2986  0.5008
10713SOL    HW136501   4.629   7.565   3.515 -0.9504  0.4133 -0.0554
10713SOL    HW236502   4.597   7.578   3.367  0.5288 -1.7639 -0.6263
10714SOL     OW36503   2.582   1.789   3.451 -0.1303  0.9623  0.4342
10714SOL    HW136504   2.619   1.876   3.469  0.2968  1.5468 -2.7027
10714SOL    HW236505   2.648   1.728   3.483  1.1095  1.8952 -0.2631
10715SOL     OW36506  10.637   1.783   1.471  0.1604  0.1948  0.1288
10715SOL    HW136507  10.690   1.704   1.464 -0.3593 -0.1598  0.0794
10715SOL    HW236508  10.556   1.753   1.514  0.1208  0.7777  0.4665
10716SOL     OW36509   8.824   8.663   3.112  0.5104 -0.0970  0.1254
10716SOL    HW136510   8.858   8.709   3.035  0.6784  0.1820  0.3654
10716SOL    HW236511   8.876   8.697   3.185  0.0741 -0.0650  0.4195
10717SOL     OW36512   8.477   5.303   4.744  0.0894 -0.3926  0.3489
10717SOL    HW136513   8.557   5.345   4.775 -0.6918  1.3813  0.1240
10717SOL    HW236514   8.408   5.365   4.767 -0.9723 -0.8707 -1.3846
10718SOL     OW36515   7.099   8.631   5.978 -0.4474  0.0010 -0.3203
10718SOL    HW136516   7.023   8.613   5.922 -1.0356  1.9403 -0.2025
10718SOL    HW236517   7.142   8.546   5.987  0.0819 -0.3180 -4.2532
10719SOL     OW36518   9.473   7.426   5.913 -0.7066 -0.6297  0.1655
10719SOL    HW136519   9.499   7.437   5.821  0.0354  0.8949  0.5221
10719SOL    HW236520   9.551   7.389   5.955 -0.5755 -0.0627  0.4276
10720SOL     OW36521   2.013   6.844   5.249  0.1700 -0.2797 -0.2248
10720SOL    HW136522   2.040   6.936   5.241  1.0933 -0.6516 -2.0882
10720SOL    HW236523   2.095   6.797   5.267  0.1427 -0.9891 -1.8208
10721SOL     OW36524   4.643   9.353   1.087 -0.3939 -0.1789 -0.3199
10721SOL    HW136525   4.578   9.292   1.120  0.1555  0.1082  1.4006
10721SOL    HW236526   4.692   9.380   1.164  0.9571  0.5729 -1.3903
10722SOL     OW36527   8.605   9.980   6.889  0.2779  0.1617  0.2225
10722SOL    HW136528   8.555   9.915   6.939 -0.8996  0.4248 -0.5691
10722SOL    HW236529   8.592   9.955   6.798 -0.5335  1.7201 -0.1187
10723SOL     OW36530   8.804   6.838   4.768  0.2614 -0.3441 -0.1572
10723SOL    HW136531   8.874   6.810   4.826  3.1295  0.1516 -3.0407
10723SOL    HW236532   8.825   6.929   4.748 -2.2541  0.3859  0.1310
10724SOL     OW36533   1.243   7.525   7.462 -0.4857 -0.1010 -0.3644
10724SOL    HW136534   1.337   7.507   7.466 -0.6909 -1.2123 -0.1454
10724SOL    HW236535   1.206   7.449   7.417 -1.2114  0.6159 -0.9948
10725SOL     OW36536   6.352   4.055   6.979  0.0827 -0.4288 -0.1641
10725SOL    HW136537   6.432   4.070   7.029 -0.0114  0.9231 -0.4001
10725SOL    HW236538   6.369   4.096   6.894 -1.4204  1.2479  0.3100
10726SOL     OW36539   1.552   6.050   8.384  0.5405  0.2393 -0.2739
10726SOL    HW136540   1.466   6.007   8.386  1.1704 -1.2326 -1.9086
10726SOL    HW236541   1.546   6.113   8.312  0.4336  1.0883  0.4653
10727SOL     OW36542   6.138  10.090   2.519  0.1292 -0.2297  0.7140
10727SOL    HW136543   6.155  10.171   2.470 -1.5121 -1.2356 -1.6734
10727SOL    HW236544   6.217  10.037   2.506 -0.7926 -1.0369 -2.1456
10728SOL     OW36545   7.369   4.692   6.164 -0.4052 -0.5296  0.0904
10728SOL    HW136546   7.399   4.734   6.244  0.8751  0.5578 -0.9188
10728SOL    HW236547   7.281   4.727   6.151  0.2753  1.1643 -0.2176
10729SOL     OW36548   4.586   4.622  10.980 -0.0819  0.5233 -0.0810
10729SOL    HW136549   4.499   4.662  10.984 -0.3176 -0.1077  1.5092
10729SOL    HW236550   4.646   4.692  11.007 -0.1477  0.7328 -0.4551
10730SOL     OW36551   0.450   0.967   9.460 -0.6413  0.3042 -0.2280
10730SOL    HW136552   0.424   0.918   9.383  1.0817 -0.8346 -0.1324
10730SOL    HW236553   0.496   0.903   9.515  0.4816  1.6871  0.5153
10731SOL     OW36554   1.694   4.865   5.537  0.4284 -0.0794  0.4666
10731SOL    HW136555   1.699   4.783   5.490  1.2319  0.5391 -0.5591
10731SOL    HW236556   1.628   4.916   5.491  0.7717  0.2905  0.3712
10732SOL     OW36557   2.215   2.495  10.376  0.3600  0.2423 -0.0762
10732SOL    HW136558   2.306   2.511  10.350  0.5759 -0.4329  0.2375
10732SOL    HW236559   2.218   2.496  10.472  0.4084 -1.6932 -0.0249
10733SOL     OW36560   9.097  10.188   5.091  0.0163  0.0732  0.0334
10733SOL    HW136561   9.068  10.274   5.060  0.4120  0.0759 -0.3340
10733SOL    HW236562   9.148  10.153   5.018 -0.1609 -0.4833  0.1753
10734SOL     OW36563   2.799   5.960   6.716 -0.3194 -0.3951 -0.0866
10734SOL    HW136564   2.736   5.980   6.785 -1.2803 -0.3858 -0.9406
10734SOL    HW236565   2.884   5.963   6.759 -0.8312  0.5025  0.8968
10735SOL     OW36566   9.832   3.990   5.124 -0.1046  0.1914 -0.0995
10735SOL    HW136567   9.747   3.967   5.162 -0.6053  0.2115 -1.1763
10735SOL    HW236568   9.836   3.940   5.042  1.4831 -0.8017  0.5319
10736SOL     OW36569   4.894   3.041   2.124 -0.2159 -0.2443 -0.1738
10736SOL    HW136570   4.860   2.974   2.184  1.1165  1.0484  2.1780
10736SOL    HW236571   4.987   3.046   2.146  0.1485  0.8862 -1.8329
10737SOL     OW36572   7.495   7.914   2.326  0.3477 -0.1199  0.1237
10737SOL    HW136573   7.536   7.853   2.264  0.5613 -1.1051  1.1986
10737SOL    HW236574   7.538   7.896   2.409 -0.0744  1.0469  0.6165
10738SOL     OW36575  10.328   7.664  11.047 -0.4818  0.0609  0.1699
10738SOL    HW136576  10.307   7.607  11.121 -0.6389 -0.1617 -0.0417
10738SOL    HW236577  10.314   7.752  11.079 -0.0498 -0.0106  0.5606
10739SOL     OW36578   2.285   4.310   0.987 -0.2899  0.1787 -0.1275
10739SOL    HW136579   2.356   4.254   0.954  0.7652  0.4382  1.5884
10739SOL    HW236580   2.319   4.399   0.982 -1.6761  0.6729 -2.1088
10740SOL     OW36581   1.872   7.541   3.606 -0.6165  0.2305 -0.4886
10740SOL    HW136582   1.922   7.466   3.574 -0.6243 -0.2472  0.5705
10740SOL    HW236583   1.857   7.522   3.699 -1.2899  1.1783 -0.3872
10741SOL     OW36584   0.012   0.729   0.476  0.1587 -0.5673 -0.4164
10741SOL    HW136585   0.092   0.678   0.462  0.2777 -0.0711 -1.7163
10741SOL    HW236586  -0.008   0.718   0.569  1.5061 -1.0378 -0.1585
10742SOL     OW36587  10.412   2.932   4.394 -0.5144  0.1586  0.4118
10742SOL    HW136588  10.411   2.849   4.347 -1.5928  0.4194 -0.0506
10742SOL    HW236589  10.349   2.987   4.348  0.2445  1.2715  0.6604
10743SOL     OW36590   0.453   4.281  10.137  0.5566  0.0590  0.3731
10743SOL    HW136591   0.385   4.273  10.204  0.3418  1.5164  0.3730
10743SOL    HW236592   0.435   4.366  10.096  1.3032 -0.3495 -0.8422
10744SOL     OW36593   5.177   1.611   3.478  0.1349  0.9208  0.8778
10744SOL    HW136594   5.123   1.565   3.414 -1.2747  2.8549  0.5864
10744SOL    HW236595   5.265   1.577   3.463 -0.2895  0.6585 -1.5040
10745SOL     OW36596   0.237   3.876  11.103  0.2678 -0.1330  0.0520
10745SOL    HW136597   0.196   3.873  11.189  0.2919 -2.1406  0.0242
10745SOL    HW236598   0.164   3.863  11.041  0.6241 -1.6991 -0.0761
10746SOL     OW36599   4.553   0.923   8.840 -0.1344 -0.0105  0.3016
10746SOL    HW136600   4.473   0.974   8.857  0.6625  1.6364 -0.6496
10746SOL    HW236601   4.561   0.923   8.745 -0.0126 -1.8407  0.2816
10747SOL     OW36602   9.799   3.691   7.651  0.1616 -0.0211  0.4724
10747SOL    HW136603   9.887   3.669   7.680  0.1778  1.8489  2.0731
10747SOL    HW236604   9.742   3.666   7.724 -0.3844  0.5134  0.2491
10748SOL     OW36605   6.269   4.282   7.313 -0.1315  0.3857 -0.5627
10748SOL    HW136606   6.324   4.216   7.356 -1.2232 -0.1058  0.1356
10748SOL    HW236607   6.273   4.260   7.220 -0.6016 -0.8017 -0.3314
10749SOL     OW36608   3.165   1.934   4.122  0.5046 -0.2009  0.1805
10749SOL    HW136609   3.206   1.961   4.040 -1.4735 -3.8428 -2.2644
10749SOL    HW236610   3.079   1.976   4.120 -0.4168 -2.0103 -0.8660
10750SOL     OW36611   2.169   6.635   5.901 -0.1466  0.0544  0.5895
10750SOL    HW136612   2.200   6.553   5.940 -0.0498  0.2158  0.8537
10750SOL    HW236613   2.225   6.702   5.939 -1.9816  0.6087  2.5341
10751SOL     OW36614  10.000   7.283   8.022  0.2022  0.1274  0.2251
10751SOL    HW136615   9.905   7.294   8.021  0.2527  1.1654 -2.5934
10751SOL    HW236616  10.015   7.198   7.981  0.4764 -0.2215  1.0480
10752SOL     OW36617   7.606   5.674  10.614  0.2668 -0.0078 -0.3722
10752SOL    HW136618   7.660   5.738  10.567  0.0116  0.9716  0.6370
10752SOL    HW236619   7.611   5.701  10.706  0.0566 -1.3831  0.0611
10753SOL     OW36620   0.671   3.570   9.724  0.0266  0.7069  0.1737
10753SOL    HW136621   0.684   3.489   9.674 -0.1345  0.3754  0.6618
10753SOL    HW236622   0.695   3.640   9.663 -0.9691  0.3560 -0.6426
10754SOL     OW36623  10.583  10.438   2.500  0.2124 -0.0948  0.4338
10754SOL    HW136624  10.616  10.380   2.431  1.0721  0.4599  0.3663
10754SOL    HW236625  10.512  10.487   2.458 -0.4867 -1.0391  0.4751
10755SOL     OW36626   5.939   3.146   9.421  0.1602  0.1320 -0.1366
10755SOL    HW136627   5.863   3.127   9.476  0.0545 -0.4204 -0.4604
10755SOL    HW236628   5.901   3.165   9.335  0.3955 -0.3444 -0.3491
10756SOL     OW36629   1.563   3.191   5.056 -0.0074 -0.3228  0.0438
10756SOL    HW136630   1.526   3.277   5.036 -0.7819 -0.2443  1.6093
10756SOL    HW236631   1.656   3.199   5.035  0.2973  1.5114  1.8187
10757SOL     OW36632   2.294   4.078   4.827 -0.5361  0.2598  0.2437
10757SOL    HW136633   2.379   4.057   4.866 -0.5189  0.0513  0.0967
10757SOL    HW236634   2.286   4.172   4.838  0.3409  0.5093 -0.9759
10758SOL     OW36635   6.920   6.762   2.592  0.0401  0.0378 -0.3513
10758SOL    HW136636   6.988   6.722   2.645 -0.0831 -0.9682 -0.9338
10758SOL    HW236637   6.959   6.843   2.559  0.6433 -0.1010  0.0099
10759SOL     OW36638   9.074   4.704   0.773 -0.8736 -0.3900  0.2080
10759SOL    HW136639   9.056   4.640   0.842  0.7814 -2.9777 -1.5353
10759SOL    HW236640   8.991   4.711   0.725 -1.2951 -0.6798  0.8847
10760SOL     OW36641   3.474   1.257   4.589 -0.8608  0.1438 -0.4338
10760SOL    HW136642   3.431   1.190   4.536 -1.1372  0.8237 -1.0889
10760SOL    HW236643   3.437   1.340   4.557  0.3613  0.6910 -0.4795
10761SOL     OW36644   3.440   1.155   3.656 -0.0233 -0.1738  0.2362
10761SOL    HW136645   3.522   1.172   3.703  1.2754 -0.4163 -1.8112
10761SOL    HW236646   3.440   1.217   3.584 -1.9240  0.1350  0.4467
10762SOL     OW36647   0.848   5.968   4.316 -0.3759 -0.2454 -0.9716
10762SOL    HW136648   0.782   5.996   4.253 -0.2466 -0.1465 -1.0656
10762SOL    HW236649   0.850   5.872   4.307 -0.8365 -0.2858 -0.6306
10763SOL     OW36650   2.604   2.272   6.063  0.0138  0.2186  0.1438
10763SOL    HW136651   2.687   2.320   6.071  0.7153 -1.0017  0.4320
10763SOL    HW236652   2.545   2.317   6.123  1.0601 -0.0947  1.4729
10764SOL     OW36653   8.300   0.809   0.916 -0.3175 -0.1062 -0.1353
10764SOL    HW136654   8.254   0.751   0.856  0.1369 -0.7843  0.1510
10764SOL    HW236655   8.389   0.815   0.881 -0.3910  0.5249 -0.2319
10765SOL     OW36656   0.255   5.515   2.675 -0.0194  0.1419  0.4650
10765SOL    HW136657   0.252   5.484   2.585 -0.0988  0.5044  0.3442
10765SOL    HW236658   0.284   5.606   2.670  3.1005 -0.7110  1.0209
10766SOL     OW36659   8.510   1.058   6.347 -0.1627 -0.1200  0.0962
10766SOL    HW136660   8.460   1.075   6.266  1.2733  1.3423 -0.5329
10766SOL    HW236661   8.515   1.143   6.390  0.1096 -0.6538  1.1403
10767SOL     OW36662   2.284   5.418   1.555  0.5571  0.1204 -0.4195
10767SOL    HW136663   2.228   5.355   1.511 -0.6026 -0.1694  1.3395
10767SOL    HW236664   2.233   5.499   1.556  0.3633  0.0064  0.7104
10768SOL     OW36665   4.227  10.031   1.775  0.0664 -0.2019  0.0356
10768SOL    HW136666   4.202  10.050   1.866  0.7633  0.9428  0.0075
10768SOL    HW236667   4.238   9.936   1.773  0.7951 -0.1792  1.3626
10769SOL     OW36668   7.912   4.655   6.456 -0.3247 -0.2029  0.2953
10769SOL    HW136669   7.960   4.738   6.465  0.9586 -0.9548  0.7223
10769SOL    HW236670   7.853   4.669   6.383  0.2897  0.9056 -0.0085
10770SOL     OW36671   0.815   4.747   0.539 -0.1840 -0.4649 -0.2429
10770SOL    HW136672   0.864   4.769   0.460  0.3047 -1.8102 -0.3499
10770SOL    HW236673   0.723   4.761   0.514 -0.0796 -1.4238 -1.2686
10771SOL     OW36674   0.668   0.479   2.877  0.5273 -0.2646  0.0522
10771SOL    HW136675   0.677   0.466   2.971  0.3584 -1.7330 -0.1127
10771SOL    HW236676   0.757   0.496   2.846  0.7643 -0.9777  0.3212
10772SOL     OW36677   6.750   1.016   8.894  0.4244 -0.0467 -0.4597
10772SOL    HW136678   6.665   0.978   8.919 -0.9223  1.6844 -2.0888
10772SOL    HW236679   6.813   0.945   8.908 -1.5821 -2.0835 -1.1547
10773SOL     OW36680   3.739  10.262   0.144  0.1662  0.1358 -0.1681
10773SOL    HW136681   3.738  10.209   0.065  0.1151 -1.0449  0.6027
10773SOL    HW236682   3.655  10.244   0.187  1.2529 -1.3671  1.4859
10774SOL     OW36683   8.330   6.720   4.772  0.5814  0.1810 -0.0733
10774SOL    HW136684   8.411   6.706   4.724 -0.2679 -0.5162 -1.3624
10774SOL    HW236685   8.354   6.707   4.864  2.2325  1.4896 -0.2559
10775SOL     OW36686   5.180  10.718   1.626  0.0945 -0.0826  1.1972
10775SOL    HW136687   5.121  10.732   1.701 -0.3746 -0.6850  0.9421
10775SOL    HW236688   5.267  10.730   1.663 -0.1917  2.8078  1.1755
10776SOL     OW36689   4.147   1.479   3.917  0.7507 -0.6347 -0.0510
10776SOL    HW136690   4.222   1.445   3.869  0.4442 -0.3518 -0.7385
10776SOL    HW236691   4.168   1.572   3.931  0.2531 -0.4031 -0.7995
10777SOL     OW36692   7.306   0.952   5.118 -0.1989  0.3600  0.1070
10777SOL    HW136693   7.281   0.894   5.189 -0.5465 -0.0911 -0.3821
10777SOL    HW236694   7.386   0.996   5.150  0.2770 -0.6470  0.3279
10778SOL     OW36695  10.217  11.090  11.066 -0.4999 -0.3594 -0.2262
10778SOL    HW136696  10.290  11.052  11.018 -0.5075 -0.5805 -0.0643
10778SOL    HW236697  10.220  11.184  11.045 -1.1709 -0.6132 -1.5477
10779SOL     OW36698   6.786   2.207   8.492  0.6255 -0.0183 -0.2675
10779SOL    HW136699   6.714   2.259   8.527  0.5557 -1.0656  1.2215
10779SOL    HW236700   6.760   2.188   8.402 -0.6822  0.1062  0.0599
10780SOL     OW36701  10.245   6.065   7.528  0.3529 -0.2267 -0.2081
10780SOL    HW136702  10.296   6.115   7.592 -1.0212 -0.2561  0.9723
10780SOL    HW236703  10.204   5.996   7.579 -2.8138  1.2296 -0.5423
10781SOL     OW36704   8.072   2.376   1.242 -0.1051 -0.5022 -0.6280
10781SOL    HW136705   8.054   2.340   1.155  0.7690 -1.4620 -0.4356
10781SOL    HW236706   8.117   2.459   1.226 -0.4733 -0.3898 -1.0862
10782SOL     OW36707   0.963   3.283   1.219 -0.2263 -0.2359  0.0209
10782SOL    HW136708   0.947   3.212   1.282 -0.7627 -0.3562 -0.2493
10782SOL    HW236709   0.893   3.274   1.154 -0.6887  0.9374  0.3269
10783SOL     OW36710   4.762   8.949  11.097 -0.4749  0.1592  1.4522
10783SOL    HW136711   4.833   8.885  11.103 -1.0273 -0.5894  0.3842
10783SOL    HW236712   4.805   9.034  11.105  0.6837 -0.2410 -0.0560
10784SOL     OW36713  10.704   7.235   8.702 -0.4960 -0.3461  0.3943
10784SOL    HW136714  10.664   7.174   8.764 -0.9118 -1.3117 -0.7866
10784SOL    HW236715  10.797   7.215   8.705 -0.5844 -0.7787  0.3069
10785SOL     OW36716   1.479   3.717   9.199  0.0693  0.0155 -0.4712
10785SOL    HW136717   1.499   3.810   9.192 -0.0157  0.2219  1.3905
10785SOL    HW236718   1.441   3.707   9.287  0.9044 -1.8921 -0.2695
10786SOL     OW36719   2.216   4.759   8.163 -0.6325 -0.4689 -0.2694
10786SOL    HW136720   2.308   4.755   8.190 -0.5777 -0.9209 -0.5078
10786SOL    HW236721   2.167   4.731   8.241 -0.7832  2.6030  0.8635
10787SOL     OW36722  10.719   5.936   8.234 -0.2224 -0.4006 -0.6804
10787SOL    HW136723  10.702   5.910   8.325  2.2410 -0.5459 -0.1887
10787SOL    HW236724  10.814   5.943   8.229 -0.3147 -0.1849 -3.2216
10788SOL     OW36725   0.067   4.416   4.450  0.1509  0.1826  0.1720
10788SOL    HW136726  -0.020   4.445   4.423 -0.3924 -0.3199  1.3136
10788SOL    HW236727   0.126   4.453   4.385 -1.0189 -0.3817 -1.2629
10789SOL     OW36728  10.888   2.376   4.151 -0.1811 -0.1804  0.0725
10789SOL    HW136729  10.805   2.379   4.103 -0.3484  1.2333  0.3992
10789SOL    HW236730  10.954   2.373   4.082 -0.3698  2.9627 -0.4182
10790SOL     OW36731   5.456   7.766   2.671  0.3351 -0.4315  0.1132
10790SOL    HW136732   5.514   7.817   2.728 -0.0818  1.1117 -0.7839
10790SOL    HW236733   5.510   7.746   2.595  0.5732 -1.6000  0.5620
10791SOL     OW36734   5.064   6.421   8.442 -0.1140 -0.2211 -0.0855
10791SOL    HW136735   5.039   6.506   8.405  0.5920  0.7681  1.5862
10791SOL    HW236736   5.012   6.414   8.523 -1.5835 -2.2912 -1.1218
10792SOL     OW36737   6.837   1.141  10.455  0.5911  0.0345 -0.0300
10792SOL    HW136738   6.769   1.174  10.514  1.4432  0.8767  0.5156
10792SOL    HW236739   6.892   1.217  10.437  1.3220 -0.5992 -0.5575
10793SOL     OW36740   3.408   3.137   4.526  0.4020  0.0670  0.1708
10793SOL    HW136741   3.313   3.142   4.538  0.2467 -0.2915 -0.7669
10793SOL    HW236742   3.430   3.218   4.481  0.4392 -0.1285 -0.1681
10794SOL     OW36743   2.203   6.368   4.653 -0.3214  0.4010  0.3218
10794SOL    HW136744   2.178   6.453   4.616  0.0952  0.4292  0.0981
10794SOL    HW236745   2.120   6.320   4.659 -0.5733  0.8588  0.5468
10795SOL     OW36746   4.727   8.074   5.415 -0.2549  0.4253  0.3598
10795SOL    HW136747   4.656   8.128   5.448 -2.3374 -1.6838 -0.3766
10795SOL    HW236748   4.733   8.097   5.322 -2.6414 -1.9537 -0.4956
10796SOL     OW36749   4.153   7.193   4.385  0.4268  0.5770 -0.0680
10796SOL    HW136750   4.148   7.104   4.350  0.0259  0.8080 -0.6137
10796SOL    HW236751   4.179   7.182   4.476  1.9052 -0.0307 -0.5339
10797SOL     OW36752  10.064   5.063   2.116  0.0515  0.1250 -0.0096
10797SOL    HW136753  10.072   5.157   2.133  1.7940  0.1485 -0.7683
10797SOL    HW236754  10.012   5.030   2.189 -1.2858  1.7840 -0.1503
10798SOL     OW36755   4.823   6.425   1.540  0.0625 -0.1776  0.2411
10798SOL    HW136756   4.730   6.449   1.538  0.1798  0.2236 -0.6963
10798SOL    HW236757   4.864   6.491   1.596  0.5931  2.7067 -3.2127
10799SOL     OW36758   2.617   5.701   2.982 -0.4504  0.1843 -0.3628
10799SOL    HW136759   2.573   5.743   3.055 -0.7857  0.1765 -0.5610
10799SOL    HW236760   2.707   5.735   2.985 -0.5951  0.5541 -0.2461
10800SOL     OW36761   0.578  10.331  10.095  0.3745 -0.2565 -0.0823
10800SOL    HW136762   0.605  10.255  10.044  0.4383 -1.4939  1.7282
10800SOL    HW236763   0.482  10.333  10.087  0.4808  0.6191 -1.6323
10801SOL     OW36764   7.259   4.452   1.218  0.3722 -0.3603 -0.7517
10801SOL    HW136765   7.235   4.536   1.179  0.8865 -0.1131 -0.5424
10801SOL    HW236766   7.355   4.456   1.227  0.2016  0.1658  1.7958
10802SOL     OW36767   4.845   7.820  11.060  0.1876  0.2855  0.3465
10802SOL    HW136768   4.889   7.758  11.118  0.9157 -1.7742 -2.2022
10802SOL    HW236769   4.754   7.789  11.056  0.6757 -1.1219 -1.3684
10803SOL     OW36770   3.403  10.014   6.332 -0.2587 -0.9351  0.0252
10803SOL    HW136771   3.437   9.925   6.323  0.8567 -0.6294  0.9254
10803SOL    HW236772   3.375  10.038   6.244 -1.2557 -2.4226 -0.1107
10804SOL     OW36773   8.200   5.579   5.561  0.2734  0.0013  0.4751
10804SOL    HW136774   8.292   5.583   5.535  0.0968  0.1899 -0.1543
10804SOL    HW236775   8.160   5.522   5.495 -0.1507  0.3069  0.4710
10805SOL     OW36776   7.976  10.283   8.065 -0.6933 -0.0703  0.5477
10805SOL    HW136777   8.055  10.240   8.097 -0.0416  0.9975  0.4137
10805SOL    HW236778   7.967  10.252   7.974 -0.2015  0.1201  0.4340
10806SOL     OW36779   4.514  10.505   7.812  0.3560  0.0336 -0.2195
10806SOL    HW136780   4.581  10.452   7.855  1.1510  0.0547 -1.3873
10806SOL    HW236781   4.531  10.594   7.844  0.3119 -0.0980  0.1769
10807SOL     OW36782   5.684   3.377   7.519 -0.1433  0.2869  0.4422
10807SOL    HW136783   5.753   3.361   7.582  1.7512 -0.6987 -1.7318
10807SOL    HW236784   5.698   3.312   7.450 -3.6392 -0.3742  0.1461
10808SOL     OW36785   9.244   1.131   7.713  0.4000 -0.7933  0.0884
10808SOL    HW136786   9.210   1.153   7.626 -1.1939 -0.1602  0.8320
10808SOL    HW236787   9.339   1.137   7.704  0.2174  1.2188 -1.1384
10809SOL     OW36788   9.072   8.487   7.139  0.6611 -0.0064  0.1822
10809SOL    HW136789   9.000   8.428   7.163  0.9322  0.0576  1.2117
10809SOL    HW236790   9.122   8.497   7.220  0.4662  1.8650  0.1191
10810SOL     OW36791   8.273   7.894  10.668 -0.0150 -0.5175  0.0794
10810SOL    HW136792   8.278   7.861  10.757  0.0946  0.5396  0.4847
10810SOL    HW236793   8.261   7.989  10.678 -0.8773 -0.4833 -1.0207
10811SOL     OW36794   6.969   7.800   1.002  0.7572  0.4632  0.0978
10811SOL    HW136795   6.891   7.808   1.058  2.3936  0.2475  2.5694
10811SOL    HW236796   6.952   7.859   0.929 -1.1637  1.4457  1.2468
10812SOL     OW36797   5.421   7.442   0.705 -0.2657  0.0488  1.1743
10812SOL    HW136798   5.468   7.382   0.647 -1.4337 -0.7196  0.9602
10812SOL    HW236799   5.448   7.417   0.793  0.6546  0.4518  1.0083
10813SOL     OW36800   4.159   1.978   2.715 -0.1402 -0.4368  0.2339
10813SOL    HW136801   4.070   1.958   2.742 -0.1563 -0.6167  0.0426
10813SOL    HW236802   4.172   1.929   2.634 -0.3675  0.7632 -0.5468
10814SOL     OW36803   0.147   3.465   6.602  0.0981  0.1305  0.2518
10814SOL    HW136804   0.154   3.375   6.633  1.0358 -0.0183 -0.3742
10814SOL    HW236805   0.056   3.474   6.574 -0.5302 -0.0208  2.1104
10815SOL     OW36806   8.472   8.376   7.012  0.6000 -0.4120  0.0723
10815SOL    HW136807   8.405   8.345   6.950 -0.5852  0.0303  1.0970
10815SOL    HW236808   8.432   8.452   7.054  2.0725  0.3482  0.1551
10816SOL     OW36809   9.993   9.410   3.861 -0.0823 -0.2478 -0.0583
10816SOL    HW136810   9.970   9.453   3.943 -2.3616 -2.5089  0.6411
10816SOL    HW236811   9.965   9.471   3.793 -2.2875 -0.0818  0.9028
10817SOL     OW36812   0.556   0.735   6.397  0.2806  0.0510  0.0813
10817SOL    HW136813   0.594   0.816   6.431 -0.9340  1.1520 -1.0735
10817SOL    HW236814   0.513   0.695   6.472  0.1897  0.9092  0.5021
10818SOL     OW36815  10.044   9.772   6.773 -0.9023 -0.6810  0.1339
10818SOL    HW136816  10.050   9.811   6.686  1.7719 -0.2657  0.4136
10818SOL    HW236817  10.027   9.846   6.831 -3.2437 -1.0274 -0.0108
10819SOL     OW36818   3.718   7.415   5.885  0.4006  0.2613  0.5062
10819SOL    HW136819   3.671   7.489   5.847 -2.0704 -1.5117 -0.1600
10819SOL    HW236820   3.763   7.375   5.810  2.9613  1.7875  1.0941
10820SOL     OW36821   3.272   8.507   6.146  0.3729  0.1057  0.0268
10820SOL    HW136822   3.220   8.549   6.214  1.4389  2.0983 -0.3183
10820SOL    HW236823   3.234   8.538   6.064 -0.7616 -2.1078 -0.3606
10821SOL     OW36824   8.814   5.065   1.327 -0.0882  0.4662 -0.0541
10821SOL    HW136825   8.720   5.062   1.344 -0.2097  1.8394 -0.3815
10821SOL    HW236826   8.826   5.010   1.250 -0.9462  1.8810 -1.2473
10822SOL     OW36827   8.568  10.292   9.809  0.0035  0.5447 -0.8136
10822SOL    HW136828   8.654  10.293   9.767  0.6171  3.6488  0.2069
10822SOL    HW236829   8.587  10.294   9.903 -1.1250  1.4592 -0.5713
10823SOL     OW36830   1.680   2.388   0.591 -0.5028  0.0036  0.1231
10823SOL    HW136831   1.596   2.352   0.615 -1.5592  1.1094 -1.6494
10823SOL    HW236832   1.699   2.454   0.658 -0.2019 -1.3876  1.4499
10824SOL     OW36833   5.384   9.571   4.870 -0.1111 -0.3131  0.8616
10824SOL    HW136834   5.439   9.629   4.817 -0.1964 -1.0536 -0.0688
10824SOL    HW236835   5.316   9.541   4.809 -3.0433  2.3744  2.4625
10825SOL     OW36836   4.350   3.662   9.154  0.1358  0.0919 -0.1702
10825SOL    HW136837   4.350   3.742   9.207 -0.1070  0.1531 -0.2600
10825SOL    HW236838   4.388   3.688   9.071  2.2813 -0.4278  0.5779
10826SOL     OW36839  10.970   8.751   1.716  0.2660  0.7543  0.2747
10826SOL    HW136840  10.961   8.776   1.808 -1.2357 -0.7647  0.5767
10826SOL    HW236841  11.020   8.670   1.718 -2.1065 -0.8148  0.0458
10827SOL     OW36842   1.720   1.102   4.147 -0.0206 -0.2553 -0.4333
10827SOL    HW136843   1.758   1.015   4.155  1.7138  0.4231 -0.6544
10827SOL    HW236844   1.796   1.160   4.139 -1.1456  1.1068 -1.9895
10828SOL     OW36845   6.693   9.929  10.762  0.2833  0.0656  0.4780
10828SOL    HW136846   6.657   9.998  10.707 -0.7395  1.4817  2.7337
10828SOL    HW236847   6.785   9.921  10.735 -0.4423 -0.1915 -2.1391
10829SOL     OW36848   4.315   8.881   9.281 -0.0843  0.1013  0.5461
10829SOL    HW136849   4.400   8.925   9.293 -0.6440  1.2270  0.5645
10829SOL    HW236850   4.251   8.951   9.290 -1.1401 -1.0159  2.2529
10830SOL     OW36851   9.582   1.513   8.806 -0.9293 -0.4931  0.1429
10830SOL    HW136852   9.648   1.479   8.867 -0.1050  0.5185 -0.1632
10830SOL    HW236853   9.561   1.438   8.750 -1.0006 -1.1778  1.0501
10831SOL     OW36854   1.799   1.105   1.314  0.1664  0.1540 -0.4553
10831SOL    HW136855   1.712   1.104   1.353  0.2415 -3.0191 -0.1289
10831SOL    HW236856   1.846   1.174   1.360 -1.9465  1.5341 -0.2356
10832SOL     OW36857  10.295   6.538   5.454 -0.2779 -0.7025  0.4832
10832SOL    HW136858  10.334   6.456   5.483  1.3767 -0.5267 -1.0541
10832SOL    HW236859  10.323   6.603   5.519  1.2030 -0.7849 -0.0248
10833SOL     OW36860   0.430   7.256   4.547 -0.3275  0.4256  0.7579
10833SOL    HW136861   0.438   7.336   4.599  1.0335  0.8496 -0.0492
10833SOL    HW236862   0.451   7.284   4.457  0.2675 -0.8415  0.4859
10834SOL     OW36863   5.501   9.992   2.406  0.0644  0.2660 -0.8773
10834SOL    HW136864   5.515  10.059   2.339  1.0946  0.0291 -0.9121
10834SOL    HW236865   5.571   9.928   2.392 -0.4165 -0.4027 -0.3274
10835SOL     OW36866  10.724   9.211   6.556  0.3310  0.1515  0.2933
10835SOL    HW136867  10.710   9.304   6.576 -0.1807  0.3860 -1.0764
10835SOL    HW236868  10.747   9.209   6.463  0.5058 -1.0840  0.3431
10836SOL     OW36869   0.693   8.436   5.847 -0.8224  0.1372  0.2782
10836SOL    HW136870   0.692   8.355   5.796 -0.6282  0.9073 -0.9849
10836SOL    HW236871   0.720   8.409   5.935  1.0487 -0.9039 -0.5721
10837SOL     OW36872   8.386   1.673   5.074  0.1310  0.0224  0.3947
10837SOL    HW136873   8.329   1.637   5.006  0.5120  0.9381 -0.4212
10837SOL    HW236874   8.352   1.636   5.156  0.8209 -2.6494 -0.4126
10838SOL     OW36875   2.737   6.442   5.917  0.5124 -0.6034 -0.2400
10838SOL    HW136876   2.817   6.434   5.969  0.4760  0.6839  0.0380
10838SOL    HW236877   2.667   6.444   5.982  0.5025  1.5718 -0.2454
10839SOL     OW36878   9.774   6.967   0.918 -0.0078 -0.0821  0.1737
10839SOL    HW136879   9.787   6.897   0.853 -0.0420 -1.5989  1.7131
10839SOL    HW236880   9.693   7.010   0.890 -1.7668 -2.6946  0.8174
10840SOL     OW36881  10.923  10.287  10.323 -0.2375  0.4142 -0.4391
10840SOL    HW136882  10.927  10.217  10.388  1.0919 -0.4297 -1.3854
10840SOL    HW236883  10.830  10.296  10.304 -0.3533 -2.7230 -1.9792
10841SOL     OW36884   4.758   2.004   4.517  0.3644  0.2936  0.1098
10841SOL    HW136885   4.667   2.034   4.526  0.5795  1.3529 -1.0116
10841SOL    HW236886   4.793   2.007   4.605 -0.5667  0.2622  0.4956
10842SOL     OW36887   0.203   6.124   2.131  0.5487 -0.4024 -0.1377
10842SOL    HW136888   0.140   6.189   2.162  0.1078  0.1771 -2.0648
10842SOL    HW236889   0.157   6.080   2.059  1.8561 -0.8948 -0.6900
10843SOL     OW36890   0.624  10.662   4.912 -0.4579  0.0975  0.0943
10843SOL    HW136891   0.684  10.658   4.838 -1.0451 -1.7045 -0.3330
10843SOL    HW236892   0.564  10.733   4.891 -0.7359 -0.5159 -1.2658
10844SOL     OW36893  10.722   7.289   2.403 -0.0744  0.3796 -0.0276
10844SOL    HW136894  10.779   7.237   2.459 -0.6359  0.0452  0.2433
10844SOL    HW236895  10.781   7.330   2.340  0.3228 -1.2201 -0.7499
10845SOL     OW36896  10.317   6.249   0.322  0.2389 -0.4800  0.1466
10845SOL    HW136897  10.277   6.300   0.252 -0.0535 -0.7713  0.0989
10845SOL    HW236898  10.396   6.298   0.346  1.3048 -1.2704 -1.5699
10846SOL     OW36899   6.185   4.025   6.549 -0.5662  0.3836  0.1549
10846SOL    HW136900   6.094   4.054   6.552 -0.2423  1.6065 -1.1469
10846SOL    HW236901   6.181   3.936   6.513 -1.1631  0.9092 -1.1120
10847SOL     OW36902   9.475   2.718   2.633  0.1888 -0.0748  0.2396
10847SOL    HW136903   9.482   2.797   2.579 -1.8135 -0.8794 -1.3285
10847SOL    HW236904   9.558   2.672   2.619  0.4629  0.6495 -0.6567
10848SOL     OW36905   1.077   0.684   6.123 -0.6713  0.5446 -0.6342
10848SOL    HW136906   1.112   0.724   6.044  0.7468  1.6208  0.4778
10848SOL    HW236907   0.983   0.702   6.120 -0.7525  0.0279 -2.3320
10849SOL     OW36908   1.304   3.994   0.284  0.0660 -0.6946  0.1452
10849SOL    HW136909   1.314   3.934   0.358  0.0445 -0.1240  0.6188
10849SOL    HW236910   1.333   3.943   0.208 -1.3950 -1.8398  0.2833
10850SOL     OW36911   7.142   4.432   6.333  0.4894  0.8164 -0.3881
10850SOL    HW136912   7.052   4.437   6.364  0.0103  0.7951 -1.7289
10850SOL    HW236913   7.135   4.416   6.239  1.8936  0.6498 -0.4902
10851SOL     OW36914   4.072   8.347   5.961 -0.0700  0.3004  0.6939
10851SOL    HW136915   4.112   8.299   6.034 -1.3610  1.2679  2.0656
10851SOL    HW236916   4.070   8.438   5.990 -2.0591  0.4687  0.1343
10852SOL     OW36917   0.560   5.118   3.203 -0.6727 -0.4353 -0.0189
10852SOL    HW136918   0.618   5.129   3.128  0.2167  0.2846  0.7454
10852SOL    HW236919   0.473   5.141   3.171  0.0204  2.0094 -0.3125
10853SOL     OW36920   3.899   2.957   8.558 -0.1265  0.2017  0.0553
10853SOL    HW136921   3.871   2.976   8.648  0.9879  0.0077  0.4624
10853SOL    HW236922   3.994   2.948   8.564 -0.1577 -1.1012 -0.9083
10854SOL     OW36923   6.437   8.113   1.924  0.1681  0.2433  0.5439
10854SOL    HW136924   6.442   8.138   1.831 -0.9310  0.3071  0.4883
10854SOL    HW236925   6.507   8.163   1.966 -0.5271  1.6664  0.0607
10855SOL     OW36926   7.128   1.133   7.567 -0.1203  0.5209  0.0146
10855SOL    HW136927   7.198   1.076   7.600  0.8397  1.0796 -0.9799
10855SOL    HW236928   7.073   1.075   7.514 -1.3442 -0.2558  2.0082
10856SOL     OW36929   6.141   6.522   1.739 -0.3031  1.0331  0.0284
10856SOL    HW136930   6.168   6.548   1.651 -0.6983  1.8551  0.1414
10856SOL    HW236931   6.203   6.453   1.764 -0.6533  0.2475 -1.1922
10857SOL     OW36932   8.230  10.530   5.056  0.2252  0.3715 -0.6828
10857SOL    HW136933   8.301  10.468   5.074  0.2509  0.1546 -1.4803
10857SOL    HW236934   8.150  10.479   5.066 -0.0451  1.1831  2.7100
10858SOL     OW36935   3.533   8.742   3.437  0.0260 -0.4720 -0.0619
10858SOL    HW136936   3.556   8.823   3.483  1.7852 -1.3694  0.7273
10858SOL    HW236937   3.569   8.754   3.349  0.4895 -0.5020  0.1252
10859SOL     OW36938   9.733   2.182   6.374 -0.1520  0.0094  0.1401
10859SOL    HW136939   9.654   2.163   6.424 -0.6429 -0.5788 -0.8356
10859SOL    HW236940   9.773   2.096   6.359  0.6512  0.2970  0.5720
10860SOL     OW36941   4.608   5.871   7.342 -0.0725  0.1235 -0.2253
10860SOL    HW136942   4.681   5.924   7.374  1.2453 -0.7101 -1.7258
10860SOL    HW236943   4.549   5.934   7.301 -0.2472  0.8013  1.0017
10861SOL     OW36944   7.187   3.628   6.257 -0.0245 -0.1127  0.0838
10861SOL    HW136945   7.270   3.610   6.301  0.2522  1.3204  0.1787
10861SOL    HW236946   7.120   3.612   6.324  0.2984  0.5539  0.5756
10862SOL     OW36947   8.940   7.443   4.841 -0.7507  0.0041 -0.0169
10862SOL    HW136948   8.891   7.364   4.862 -1.8885  0.0207 -2.3407
10862SOL    HW236949   9.001   7.417   4.772 -1.0206  1.0880 -0.6979
10863SOL     OW36950   3.943   4.443   3.262 -0.9572  0.6452 -0.5380
10863SOL    HW136951   3.852   4.414   3.265 -0.6078 -0.9347 -2.9131
10863SOL    HW236952   3.944   4.512   3.196 -0.3258  0.2112 -0.9857
10864SOL     OW36953   5.466   3.920   8.870 -0.1619  0.5887  0.1399
10864SOL    HW136954   5.396   3.956   8.924 -0.6649 -0.8111  0.4696
10864SOL    HW236955   5.542   3.918   8.928  0.3753  2.7100 -0.4085
10865SOL     OW36956  11.066   2.777   0.239  0.2476  0.4319  0.2929
10865SOL    HW136957  11.099   2.784   0.328 -0.4979 -1.2941  0.7360
10865SOL    HW236958  11.048   2.868   0.213 -0.4933  0.8949  2.2731
10866SOL     OW36959   3.336   0.134   4.900  0.4368  0.0907 -0.2558
10866SOL    HW136960   3.295   0.092   4.825  0.0609 -0.5342  0.2931
10866SOL    HW236961   3.430   0.122   4.886  0.3766  0.0566 -0.6598
10867SOL     OW36962   5.592  11.035   4.724  0.2593 -0.1483  0.4507
10867SOL    HW136963   5.528  10.965   4.714 -0.6703  0.8162 -0.6129
10867SOL    HW236964   5.650  11.004   4.793 -1.5805 -0.8833  1.7524
10868SOL     OW36965   5.886   4.771   0.629 -0.1177  0.3444 -0.0148
10868SOL    HW136966   5.896   4.702   0.695  0.7325  0.0643 -0.4221
10868SOL    HW236967   5.836   4.840   0.674 -1.3176 -0.6781  0.2759
10869SOL     OW36968   7.481   0.849   7.172  0.4277  0.3111 -0.2168
10869SOL    HW136969   7.436   0.851   7.088  3.4146  0.6427 -1.9385
10869SOL    HW236970   7.474   0.938   7.206 -2.5944 -0.2992  1.0347
10870SOL     OW36971   3.944  11.062   3.367  0.4752  0.1071  0.0047
10870SOL    HW136972   3.868  11.100   3.413  0.6685 -1.8929  2.1303
10870SOL    HW236973   3.961  11.124   3.295 -0.4948  2.9113  1.9908
10871SOL     OW36974   9.105   8.549   7.937  0.5492  0.4058  0.1927
10871SOL    HW136975   9.119   8.463   7.976  1.1674  0.0849 -0.7190
10871SOL    HW236976   9.049   8.533   7.862 -0.1507  0.9440  0.5887
10872SOL     OW36977  10.719  10.562   1.127  0.0858 -0.0482  0.1727
10872SOL    HW136978  10.785  10.584   1.194  1.1369 -0.6616 -0.6360
10872SOL    HW236979  10.638  10.549   1.177  0.7791 -0.2033  1.3012
10873SOL     OW36980  10.890   9.038   6.695  0.4143  0.0455  0.2452
10873SOL    HW136981  10.835   9.110   6.662  0.0730 -0.4117 -0.2009
10873SOL    HW236982  10.953   9.022   6.625 -0.2223 -0.8311 -0.1530
10874SOL     OW36983   2.538  10.484   3.216  0.6279 -0.1217  0.1818
10874SOL    HW136984   2.455  10.466   3.171  1.7912 -1.0338 -1.7287
10874SOL    HW236985   2.575  10.558   3.168  0.7851  0.5212  1.2631
10875SOL     OW36986   0.825   2.736   4.315 -0.0899  0.1008 -0.0427
10875SOL    HW136987   0.879   2.795   4.261  2.1327  0.1161  2.0283
10875SOL    HW236988   0.889   2.685   4.365 -2.0256 -1.6975  0.7025
10876SOL     OW36989   4.384   8.540   3.910  0.0225  0.2936  0.4087
10876SOL    HW136990   4.374   8.635   3.903 -1.2380  0.1797  0.4473
10876SOL    HW236991   4.324   8.505   3.844 -2.5911 -0.5420  3.0390
10877SOL     OW36992   5.043   4.381   3.708 -0.6057 -0.1664 -0.7198
10877SOL    HW136993   4.951   4.356   3.701 -0.6218 -0.3196 -0.0117
10877SOL    HW236994   5.066   4.363   3.799  0.1606 -0.2408 -0.9218
10878SOL     OW36995   5.034   7.438   2.442 -0.1345 -0.3030 -0.1413
10878SOL    HW136996   5.102   7.421   2.507 -0.0825 -0.3473 -0.2067
10878SOL    HW236997   5.057   7.523   2.405 -0.5297  0.0266  0.3532
10879SOL     OW36998   5.941   4.270   2.830  0.4575  0.1606 -0.2651
10879SOL    HW136999   5.878   4.322   2.780  0.0053 -1.1696 -1.1287
10879SOL    HW237000   6.012   4.252   2.768  1.7047  1.5685  0.6687
10880SOL     OW37001   7.213   0.272   2.136 -0.0178  0.3685  0.2743
10880SOL    HW137002   7.212   0.176   2.134 -2.5797  0.3159  0.3874
10880SOL    HW237003   7.140   0.297   2.079  0.4689  2.2521  0.4218
10881SOL     OW37004   5.295   7.258   5.066 -0.1153  0.1913  0.1648
10881SOL    HW137005   5.208   7.224   5.046  0.1234  0.4866 -1.5778
10881SOL    HW237006   5.298   7.343   5.021  1.1713  0.0372 -0.0757
10882SOL     OW37007   3.428   2.444   6.694  0.3263  0.1455  0.5029
10882SOL    HW137008   3.353   2.403   6.738  0.8626 -1.8205 -0.3116
10882SOL    HW237009   3.503   2.422   6.749  0.4896  0.9350  0.5990
10883SOL     OW37010   6.012  11.018   2.649  0.1918  0.3936 -0.0188
10883SOL    HW137011   6.085  10.969   2.687  0.3280  0.7336  0.1550
10883SOL    HW237012   5.935  10.966   2.672  0.3875 -0.0702 -0.3666
10884SOL     OW37013   9.669   9.590   4.460  0.3306  0.1733 -0.0248
10884SOL    HW137014   9.603   9.523   4.476  0.5262  0.0235  0.1608
10884SOL    HW237015   9.752   9.548   4.484  0.3789  0.7084  0.7964
10885SOL     OW37016   4.444   0.680   6.645  0.1450  0.3181 -0.1567
10885SOL    HW137017   4.502   0.684   6.721 -1.2222  0.3492  0.9205
10885SOL    HW237018   4.358   0.660   6.681 -0.6062  0.6590 -1.6707
10886SOL     OW37019   5.065   6.749   2.590 -0.2252 -0.3214 -0.1961
10886SOL    HW137020   5.059   6.837   2.628  0.0867 -0.4626  0.1961
10886SOL    HW237021   4.978   6.732   2.555 -0.0062  0.5510 -1.1996
10887SOL     OW37022   4.264   3.858   2.912 -0.0198  0.1168 -0.1523
10887SOL    HW137023   4.296   3.836   2.825 -0.1051  0.1969 -0.2043
10887SOL    HW237024   4.205   3.785   2.935 -2.7879  1.7092 -1.6139
10888SOL     OW37025  10.419   1.035  10.624  0.4640  0.0166  0.1201
10888SOL    HW137026  10.490   1.078  10.576 -1.0926 -0.7372 -3.2032
10888SOL    HW237027  10.355   1.105  10.639  0.1869 -0.0557 -0.6281
10889SOL     OW37028   3.940   7.946   8.928  0.3321  0.1530 -0.3033
10889SOL    HW137029   3.894   7.863   8.913 -1.2773  1.0927 -0.8292
10889SOL    HW237030   3.937   7.991   8.844  0.3843  1.1160  0.1930
10890SOL     OW37031   5.050   3.063   6.164  0.4195 -0.2624 -0.0161
10890SOL    HW137032   5.066   2.972   6.139  1.8768  0.2680 -1.1620
10890SOL    HW237033   4.990   3.096   6.097 -1.7751 -0.8711  1.5218
10891SOL     OW37034   9.434   1.075   8.646  0.7704  0.2535  0.1993
10891SOL    HW137035   9.473   1.067   8.558  0.5646  2.1157 -0.1081
10891SOL    HW237036   9.381   0.996   8.656  0.4995  0.1778 -1.5186
10892SOL     OW37037   5.899   6.039   1.179 -0.0890  0.6240 -0.2593
10892SOL    HW137038   5.980   5.990   1.165 -0.6838 -0.6005  0.4166
10892SOL    HW237039   5.860   6.046   1.092 -0.3896 -0.8511 -0.2682
10893SOL     OW37040   0.478   3.519   2.279  0.1583  0.0795  0.0829
10893SOL    HW137041   0.400   3.573   2.266  0.9123  1.0581 -0.5448
10893SOL    HW237042   0.511   3.545   2.365 -0.5219 -0.7675  0.6135
10894SOL     OW37043  10.071   8.579   2.819  0.6760 -0.2519  0.2475
10894SOL    HW137044  10.119   8.629   2.885 -0.5237  1.1849  0.0878
10894SOL    HW237045  10.120   8.594   2.738  0.7737  0.0286  0.3545
10895SOL     OW37046   6.188   9.704   7.177  0.2042  0.0301  0.2705
10895SOL    HW137047   6.121   9.735   7.116 -1.0924 -2.5944  0.1939
10895SOL    HW237048   6.271   9.720   7.133 -0.6557 -1.2246 -1.9839
10896SOL     OW37049   3.373   9.004   6.096  0.0527  0.4118  0.1072
10896SOL    HW137050   3.289   8.989   6.054  0.2443 -1.0645  0.2078
10896SOL    HW237051   3.385   9.099   6.092 -1.3684  0.5947 -0.3612
10897SOL     OW37052   9.504   7.041   0.904 -1.0459 -0.2932 -0.5295
10897SOL    HW137053   9.488   7.133   0.926  0.8438 -0.5910  2.6870
10897SOL    HW237054   9.454   6.992   0.970 -1.6328 -1.6307 -1.9008
10898SOL     OW37055   7.687   1.067   9.686  0.7698 -0.6308 -0.1113
10898SOL    HW137056   7.739   1.143   9.659  0.4446 -0.8168 -1.3325
10898SOL    HW237057   7.599   1.102   9.701  0.7072 -0.6958 -0.3167
10899SOL     OW37058   0.920   5.393   4.448 -0.1515 -0.4605  0.3710
10899SOL    HW137059   0.989   5.424   4.388  0.4153 -1.6924  0.3567
10899SOL    HW237060   0.846   5.375   4.391 -0.5556  0.9679  0.3966
10900SOL     OW37061   3.490   5.282   8.834  0.9781  0.5975  0.1814
10900SOL    HW137062   3.394   5.280   8.837  0.8733  0.3551 -1.8546
10900SOL    HW237063   3.514   5.358   8.886 -0.3974  1.3105 -0.1655
10901SOL     OW37064   5.251  10.151   9.779 -0.0781 -0.7326  0.6048
10901SOL    HW137065   5.188  10.174   9.848  0.3930  0.7815  0.5680
10901SOL    HW237066   5.198  10.144   9.700 -0.5985 -2.3181  1.0576
10902SOL     OW37067   0.529   7.346   7.066 -0.0494 -0.3203  0.0188
10902SOL    HW137068   0.489   7.261   7.082  0.0802 -0.5169 -0.6682
10902SOL    HW237069   0.493   7.403   7.135  0.4644 -1.1115  0.9722
10903SOL     OW37070   6.195   1.457   1.263  0.3823 -0.4947  0.4717
10903SOL    HW137071   6.208   1.541   1.305  2.0771 -0.1856 -0.5786
10903SOL    HW237072   6.213   1.392   1.331  1.5094 -0.0009  0.6593
10904SOL     OW37073   3.667   9.088   8.001 -0.7066  0.5061  0.5059
10904SOL    HW137074   3.762   9.075   8.006 -0.7806 -0.0081  0.6756
10904SOL    HW237075   3.634   9.058   8.086 -1.2355 -1.4004 -0.3165
10905SOL     OW37076   9.461   8.128   3.051 -0.0707  0.4293  0.0534
10905SOL    HW137077   9.483   8.155   3.140  1.6349 -0.2121 -0.1462
10905SOL    HW237078   9.535   8.155   2.998 -0.3824 -0.5261 -0.9228
10906SOL     OW37079   0.778   7.066   1.284 -0.1066  0.5362  0.1319
10906SOL    HW137080   0.844   7.038   1.220 -0.3504  0.8183 -0.2468
10906SOL    HW237081   0.809   7.150   1.317 -0.6263  1.0150 -0.5711
10907SOL     OW37082   1.391   1.557   0.822  0.1962  0.2899  0.8884
10907SOL    HW137083   1.382   1.631   0.762  1.7698 -0.4401 -0.3198
10907SOL    HW237084   1.334   1.489   0.786  1.9044 -0.5155 -0.4882
10908SOL     OW37085   4.897   8.717   7.584 -0.1252  0.6262  0.1418
10908SOL    HW137086   4.919   8.709   7.491  0.4545  0.1550  0.3101
10908SOL    HW237087   4.807   8.749   7.584 -0.2221  0.3885 -0.5833
10909SOL     OW37088   9.711   5.479   3.570 -0.1260  0.2281  0.2511
10909SOL    HW137089   9.634   5.512   3.616 -2.1239 -2.0149 -1.2720
10909SOL    HW237090   9.760   5.431   3.636 -2.0028 -1.4281  0.5275
10910SOL     OW37091   4.523  10.877   2.801 -0.4591  0.3223 -0.1242
10910SOL    HW137092   4.522  10.965   2.838 -0.8324  0.6755 -0.9603
10910SOL    HW237093   4.466  10.826   2.859 -0.6986  0.7643  0.0326
10911SOL     OW37094   7.557   1.455   9.265  0.0779  0.4815  0.2260
10911SOL    HW137095   7.541   1.441   9.358 -0.0892 -0.7716  0.0217
10911SOL    HW237096   7.597   1.542   9.261 -0.7016  0.9185  1.3740
10912SOL     OW37097   1.528  10.115   1.142  0.2555  0.3295 -0.2176
10912SOL    HW137098   1.564  10.063   1.213 -0.7252  1.6229  1.2755
10912SOL    HW237099   1.585  10.193   1.138  0.2739  0.2889 -0.8129
10913SOL     OW37100   1.977   7.108  10.201 -0.6248 -0.1220 -0.4194
10913SOL    HW137101   1.917   7.101  10.275  0.1162  0.3661  0.2337
10913SOL    HW237102   2.048   7.047  10.221  0.9892  1.9839  0.6548
10914SOL     OW37103   3.296   2.951  11.000  0.2299 -0.0092 -0.0004
10914SOL    HW137104   3.311   2.871  11.050  0.6872  0.5848  0.8402
10914SOL    HW237105   3.201   2.961  10.999  0.2198  0.5130  1.6928
10915SOL     OW37106   0.278   7.889   0.878  0.3035 -0.0881 -0.3932
10915SOL    HW137107   0.239   7.847   0.802  2.3592 -2.9616 -0.0581
10915SOL    HW237108   0.330   7.961   0.842  0.3349 -0.6917 -1.6096
10916SOL     OW37109   1.399   0.557  10.005  0.5446 -0.2225  0.0876
10916SOL    HW137110   1.321   0.503  10.014 -0.0194  0.4563 -0.6038
10916SOL    HW237111   1.443   0.551  10.090 -0.3715 -0.4320  0.5509
10917SOL     OW37112   8.747  10.543   3.986  0.2217  0.9393 -0.7607
10917SOL    HW137113   8.753  10.491   3.907 -1.3013 -1.2497  0.4667
10917SOL    HW237114   8.656  10.573   3.989  0.3874  1.4087 -0.0806
10918SOL     OW37115   6.302   8.907   1.753 -0.1211 -0.3348  0.1017
10918SOL    HW137116   6.318   8.993   1.791  0.0731 -0.7703  1.0427
10918SOL    HW237117   6.355   8.847   1.805  1.2629 -0.8068 -1.7515
10919SOL     OW37118   7.326   9.527   4.398  0.2483 -0.1120 -0.0389
10919SOL    HW137119   7.359   9.483   4.320 -2.1149  0.7425 -1.6519
10919SOL    HW237120   7.276   9.601   4.365  0.8420  1.5162  2.4189
10920SOL     OW37121   2.866   3.860   9.741  0.0029 -0.0646  0.1937
10920SOL    HW137122   2.803   3.817   9.799 -0.4740  0.4694  0.0791
10920SOL    HW237123   2.845   3.827   9.654 -0.4819  0.5362  0.0813
10921SOL     OW37124   3.082   3.701  10.126 -0.0067  0.1045  0.0273
10921SOL    HW137125   3.177   3.687  10.122 -0.1303 -1.4173  1.3581
10921SOL    HW237126   3.046   3.614  10.143 -1.7299  0.5183 -1.2780
10922SOL     OW37127  10.169   1.925   6.452  0.1665 -0.1723 -0.1438
10922SOL    HW137128  10.191   1.861   6.519  1.8555  0.0057 -0.4893
10922SOL    HW237129  10.139   1.874   6.377  0.3515 -0.4935  0.0027
10923SOL     OW37130   6.471   8.905   8.493 -1.0116  0.3034 -0.2341
10923SOL    HW137131   6.398   8.890   8.433 -0.4160  0.1319 -0.9374
10923SOL    HW237132   6.527   8.828   8.482 -0.0528  1.0418 -0.7312
10924SOL     OW37133   2.351   8.296   7.570 -0.2569 -0.4552  0.1640
10924SOL    HW137134   2.329   8.377   7.523  0.2914 -1.4145 -1.8349
10924SOL    HW237135   2.434   8.316   7.613 -0.2463  0.1247 -0.1126
10925SOL     OW37136   8.592   4.210  10.766 -0.1260 -0.0690  0.3357
10925SOL    HW137137   8.613   4.158  10.688  0.0976  0.9276 -0.2913
10925SOL    HW237138   8.497   4.218  10.764 -0.2594 -1.2349  0.9706
10926SOL     OW37139   3.395   9.116   0.012  0.0991 -0.4507  0.1705
10926SOL    HW137140   3.376   9.168   0.089  1.0298 -0.2704  0.2896
10926SOL    HW237141   3.471   9.159  -0.028  1.6213 -2.3288  0.8910
10927SOL     OW37142   1.516   1.248   5.362 -0.0265  0.1855  0.8247
10927SOL    HW137143   1.539   1.156   5.378  0.6974  0.2165  0.0080
10927SOL    HW237144   1.438   1.262   5.416 -0.3265 -0.9920  0.7311
10928SOL     OW37145   5.218   7.331   1.048 -0.4718  0.2300 -0.7717
10928SOL    HW137146   5.288   7.397   1.050  1.3841 -1.5827  1.3843
10928SOL    HW237147   5.146   7.372   1.096  1.2132  0.2623  1.9581
10929SOL     OW37148  10.377   1.631   7.889 -0.3182 -0.2940  0.1611
10929SOL    HW137149  10.420   1.708   7.928  1.6670 -0.1769 -2.0328
10929SOL    HW237150  10.424   1.556   7.927  0.7355 -0.2206 -0.9262
10930SOL     OW37151   1.485   3.295   4.542 -0.2102 -0.5496  0.5432
10930SOL    HW137152   1.461   3.353   4.614  1.3129  0.2363  0.4622
10930SOL    HW237153   1.570   3.260   4.567  1.3313  1.2529 -1.6865
10931SOL     OW37154   5.217   2.809   9.093 -0.4414  0.0882 -0.3664
10931SOL    HW137155   5.273   2.738   9.125 -0.1414 -0.8233 -2.6787
10931SOL    HW237156   5.272   2.887   9.095 -0.6312  0.2373  1.7797
10932SOL     OW37157   1.425   1.142   3.045  0.3938 -0.2000  0.2169
10932SOL    HW137158   1.370   1.064   3.055 -0.0336  0.3294  2.5223
10932SOL    HW237159   1.400   1.198   3.118  0.6849  2.1320 -1.3742
10933SOL     OW37160   8.224   8.156   7.608 -0.7282  0.3045  0.0836
10933SOL    HW137161   8.280   8.093   7.653  0.2903  0.9003 -0.3283
10933SOL    HW237162   8.248   8.241   7.646  0.4786  0.8842 -1.8679
10934SOL     OW37163   9.704   8.529   5.893 -0.0783  0.4214  0.4257
10934SOL    HW137164   9.668   8.611   5.925  0.0835  0.6994 -0.0893
10934SOL    HW237165   9.799   8.543   5.890 -0.1436  0.7523 -1.0632
10935SOL     OW37166   7.983   9.669   5.687  0.5249 -0.2644  0.6037
10935SOL    HW137167   7.910   9.646   5.629 -1.2764  1.2223  2.1671
10935SOL    HW237168   7.978   9.604   5.758 -0.5301  0.9227  1.6768
10936SOL     OW37169   1.837   8.383   4.300 -0.1720  0.1254 -0.2346
10936SOL    HW137170   1.889   8.449   4.254 -0.8086  0.0491 -1.0941
10936SOL    HW237171   1.824   8.314   4.235  0.1377 -0.6617  0.5232
10937SOL     OW37172  10.759   0.415  10.754  0.4590  0.2978  0.3430
10937SOL    HW137173  10.841   0.412  10.802  1.2170 -0.9504 -0.9461
10937SOL    HW237174  10.711   0.337  10.781  2.1037 -2.0224 -2.8122
10938SOL     OW37175  10.197   6.360  10.254  0.9070  0.0827 -0.3092
10938SOL    HW137176  10.143   6.414  10.196  1.7428  0.0422 -1.1579
10938SOL    HW237177  10.257   6.315  10.195  1.6738 -0.0966  0.5813
10939SOL     OW37178   5.647   7.657   0.838  0.6914  0.0329 -0.1866
10939SOL    HW137179   5.618   7.731   0.785  0.8340  0.8265  0.8035
10939SOL    HW237180   5.722   7.691   0.887 -0.5088 -0.0689  1.8619
10940SOL     OW37181   0.161   0.284   3.191 -0.3673  0.7833 -0.0956
10940SOL    HW137182   0.076   0.257   3.227 -0.3675  3.0671  1.9216
10940SOL    HW237183   0.220   0.282   3.267  1.1614  0.1517 -1.2625
10941SOL     OW37184   0.584   9.220   8.170 -0.0886 -0.9132 -0.7029
10941SOL    HW137185   0.574   9.310   8.139  1.6675 -0.0262  1.0771
10941SOL    HW237186   0.631   9.175   8.099 -1.8430 -0.7662 -2.0345
10942SOL     OW37187   6.938   9.480   0.601 -0.0022  0.1531  0.6222
10942SOL    HW137188   6.877   9.466   0.673  0.2331 -3.0793  0.3041
10942SOL    HW237189   7.022   9.495   0.645 -0.2912  0.7211  1.0053
10943SOL     OW37190  10.258   9.507   3.416 -0.0286  0.2773 -0.4640
10943SOL    HW137191  10.262   9.510   3.512  0.0140  1.6186 -0.4877
10943SOL    HW237192  10.167   9.527   3.395 -0.1863 -0.6545 -0.6997
10944SOL     OW37193   7.035   4.757   4.770  0.2480 -1.3334  0.0816
10944SOL    HW137194   7.026   4.850   4.791  0.2842 -1.0349 -1.1650
10944SOL    HW237195   7.085   4.720   4.843 -0.0084 -0.4397  0.7234
10945SOL     OW37196   3.828   8.652   1.314  0.4333  0.2040 -0.3704
10945SOL    HW137197   3.771   8.668   1.389 -0.5886  0.8792 -1.2768
10945SOL    HW237198   3.886   8.582   1.343 -0.5838 -0.2151  0.7119
10946SOL     OW37199   9.649   5.247   1.447  0.5498 -0.1675  0.1896
10946SOL    HW137200   9.610   5.160   1.457  1.5687 -0.7305 -0.5636
10946SOL    HW237201   9.719   5.249   1.512  1.2235 -0.3345 -0.5189
10947SOL     OW37202   2.292   4.168   8.481 -0.2128  0.1519 -0.2709
10947SOL    HW137203   2.265   4.250   8.440  0.6216  0.6414  0.1408
10947SOL    HW237204   2.367   4.139   8.430 -1.0054 -0.8075 -0.9332
10948SOL     OW37205   9.396   5.557   5.217 -0.0054 -0.1795  0.1045
10948SOL    HW137206   9.364   5.541   5.305  0.9967  1.5298  0.8196
10948SOL    HW237207   9.491   5.544   5.223 -0.2122 -3.6655 -1.6145
10949SOL     OW37208   4.125   6.557  10.201 -0.1578  0.1804 -0.1540
10949SOL    HW137209   4.042   6.587  10.238 -0.0367 -1.0923  1.2915
10949SOL    HW237210   4.126   6.590  10.112 -0.9865  2.5029  0.6315
10950SOL     OW37211   5.253  10.121  11.099 -0.2271 -0.1150  0.7617
10950SOL    HW137212   5.243  10.070  11.018  0.4017  1.8308 -0.5932
10950SOL    HW237213   5.344  10.106  11.125  0.3863  1.3318 -0.4096
10951SOL     OW37214   4.892   3.173   2.535 -0.1626  1.1038  0.6340
10951SOL    HW137215   4.809   3.174   2.487 -0.4782  1.2216  1.1736
10951SOL    HW237216   4.931   3.089   2.512 -0.5614  0.9258  0.5894
10952SOL     OW37217   2.693   0.940   8.971 -0.5314  0.0755 -0.3945
10952SOL    HW137218   2.766   0.895   8.928  0.6294 -1.2590  2.6629
10952SOL    HW237219   2.731   1.021   9.005 -1.3804  1.0303 -1.6306
10953SOL     OW37220   5.123   5.313  10.534  0.0980  0.1795  0.4493
10953SOL    HW137221   5.070   5.359  10.469 -0.7409 -1.0269  0.2459
10953SOL    HW237222   5.213   5.336  10.512 -0.1670 -0.1944 -1.1640
10954SOL     OW37223  10.161   3.670   1.218 -0.0108 -0.0859  0.1591
10954SOL    HW137224  10.152   3.708   1.305  0.4542 -1.5286  0.8713
10954SOL    HW237225  10.198   3.583   1.233 -0.6350 -0.6742 -1.4193
10955SOL     OW37226   0.375   9.322   2.575 -0.3694 -0.0069  0.2035
10955SOL    HW137227   0.331   9.241   2.603  1.9964 -1.1348  0.9639
10955SOL    HW237228   0.400   9.364   2.657  2.1153 -0.7168 -0.1116
10956SOL     OW37229   6.324   1.424   1.025 -0.1941  0.2598  0.0658
10956SOL    HW137230   6.297   1.426   1.117 -0.7612 -0.3275 -0.0813
10956SOL    HW237231   6.250   1.461   0.977 -0.5472 -0.8736 -0.2935
10957SOL     OW37232   4.127   2.169   5.095 -0.6773 -0.4754 -0.2559
10957SOL    HW137233   4.177   2.106   5.043 -0.4680 -1.2846  0.8623
10957SOL    HW237234   4.104   2.120   5.175 -2.0540  0.3213 -0.1384
10958SOL     OW37235   9.620   0.717   1.292  0.1906 -0.4243  0.2215
10958SOL    HW137236   9.581   0.737   1.207 -1.0089 -0.1118  0.8244
10958SOL    HW237237   9.610   0.622   1.302  1.9982 -0.7506 -0.7663
10959SOL     OW37238   1.440   8.427   1.561 -0.3816  0.1617  0.3430
10959SOL    HW137239   1.464   8.340   1.530  0.1477  0.9137 -1.5324
10959SOL    HW237240   1.508   8.485   1.526 -2.5100  1.7814 -1.5115
10960SOL     OW37241   5.858   6.962   7.187 -0.0767 -0.1668  0.0691
10960SOL    HW137242   5.914   6.931   7.258 -0.6742  1.4072  1.3055
10960SOL    HW237243   5.830   6.883   7.142  3.6331 -1.0029 -1.0776
10961SOL     OW37244  10.828   2.637   5.550 -0.5617 -0.0742  0.6239
10961SOL    HW137245  10.849   2.722   5.589  0.6898  0.6128 -1.3976
10961SOL    HW237246  10.748   2.653   5.499  0.5547  0.3816 -1.0702
10962SOL     OW37247   1.410   7.923   8.379 -0.8441 -0.6155 -0.6414
10962SOL    HW137248   1.449   7.982   8.315  0.4296 -0.0749  0.5608
10962SOL    HW237249   1.474   7.852   8.388 -0.4558 -0.1278  0.7877
10963SOL     OW37250   7.607   6.190   5.942  0.2638  0.2773 -0.0347
10963SOL    HW137251   7.625   6.097   5.935 -0.6521  0.0636  0.3206
10963SOL    HW237252   7.685   6.233   5.905  0.4550 -0.6241 -0.6955
10964SOL     OW37253   0.637   0.335   8.340 -0.4479  0.3696  0.6499
10964SOL    HW137254   0.558   0.360   8.388 -1.2232  2.0363 -1.3395
10964SOL    HW237255   0.610   0.332   8.249  1.0290 -2.4805  0.1969
10965SOL     OW37256   2.897   1.805   5.778  0.1803  0.6441 -0.2534
10965SOL    HW137257   2.878   1.892   5.813  1.6485  1.0126 -0.2889
10965SOL    HW237258   2.871   1.809   5.686  0.5493  1.1636 -0.3398
10966SOL     OW37259   5.116   9.227   9.628 -0.0600  0.4961 -0.0508
10966SOL    HW137260   5.193   9.278   9.656  0.4445 -0.0457 -0.4330
10966SOL    HW237261   5.050   9.246   9.695  0.2877  1.2398  0.0981
10967SOL     OW37262   9.958   1.496  10.476  0.4192 -0.2025 -0.0064
10967SOL    HW137263   9.878   1.443  10.482 -0.2774  0.9092  0.9095
10967SOL    HW237264   9.994   1.496  10.565  0.3221  0.9698  0.0487
10968SOL     OW37265   9.103   1.532   7.042  0.2519 -0.1573 -0.8100
10968SOL    HW137266   9.115   1.438   7.054 -1.1734 -0.2537  0.1693
10968SOL    HW237267   9.172   1.573   7.094  0.0537 -0.6683 -0.1391
10969SOL     OW37268   6.598  10.973   3.194  0.3017 -0.2543 -0.1572
10969SOL    HW137269   6.643  10.891   3.172 -0.8179 -1.0547  0.4486
10969SOL    HW237270   6.656  11.042   3.160  0.7604 -1.3113 -1.6349
10970SOL     OW37271   4.696  10.516   2.873 -0.5104 -0.9545  0.4855
10970SOL    HW137272   4.762  10.576   2.909  0.1265 -1.3270 -0.0228
10970SOL    HW237273   4.744  10.466   2.807 -1.5445 -0.5825 -0.5753
10971SOL     OW37274   4.221   4.134   4.710  0.3469  0.1206  0.2851
10971SOL    HW137275   4.268   4.116   4.791 -0.7827  0.3375  1.0197
10971SOL    HW237276   4.130   4.109   4.729  0.1683 -0.3623 -1.1052
10972SOL     OW37277   1.360   3.006   4.965 -0.1438 -0.2798 -0.4061
10972SOL    HW137278   1.379   2.915   4.987  0.6263 -0.0971 -0.2653
10972SOL    HW237279   1.429   3.056   5.009 -0.4138  0.3519 -0.6838
10973SOL     OW37280   3.412   8.399   1.155  0.9807 -0.5924  0.1492
10973SOL    HW137281   3.430   8.492   1.143  1.4676 -0.4439  1.8092
10973SOL    HW237282   3.317   8.392   1.153  0.9610 -0.3090 -1.4679
10974SOL     OW37283   2.411   6.353   5.087 -0.1463  0.5943  0.1644
10974SOL    HW137284   2.483   6.391   5.136 -1.5315  1.4457  1.6471
10974SOL    HW237285   2.416   6.259   5.106  2.2887  0.1144 -2.1799
10975SOL     OW37286   1.231   6.874   8.863  0.2869 -0.2835  0.0833
10975SOL    HW137287   1.266   6.858   8.951 -0.2147  0.0379  0.3436
10975SOL    HW237288   1.230   6.969   8.854 -1.3135 -0.2519  0.4111
10976SOL     OW37289   6.037   1.186   6.000 -0.4758  0.9295  0.2684
10976SOL    HW137290   5.968   1.228   6.051 -0.0885 -0.1616  1.7579
10976SOL    HW237291   6.099   1.154   6.066  0.7687  0.7045 -0.9703
10977SOL     OW37292   0.181   9.491   7.670 -0.1204  0.2873 -0.0923
10977SOL    HW137293   0.206   9.570   7.716  1.0053 -0.1822  0.1441
10977SOL    HW237294   0.160   9.520   7.581  0.0504  0.8809  0.0598
10978SOL     OW37295   3.199  10.838   5.619  0.5851  0.2263 -0.0567
10978SOL    HW137296   3.272  10.869   5.566 -0.4840  1.9200 -0.5951
10978SOL    HW237297   3.132  10.813   5.556  0.3651 -0.5187  0.4559
10979SOL     OW37298   3.111   9.643   4.088 -0.0521  0.1662 -0.6120
10979SOL    HW137299   3.121   9.649   3.993 -1.7028  0.2943 -0.8112
10979SOL    HW237300   3.019   9.665   4.103  0.1051 -0.2005  0.9867
10980SOL     OW37301   6.887   8.502  10.471  0.0328 -0.0871  0.3494
10980SOL    HW137302   6.893   8.474  10.379 -0.1968 -0.2746  0.3910
10980SOL    HW237303   6.951   8.448  10.517  0.1859  0.0428  0.2940
10981SOL     OW37304   3.470   8.497   7.473  0.2471 -0.3536  0.4115
10981SOL    HW137305   3.428   8.578   7.502  1.2611 -0.3016  1.8687
10981SOL    HW237306   3.555   8.524   7.441  1.3582 -0.9528  2.6293
10982SOL     OW37307  10.503   1.226   7.495 -0.3180 -0.3845 -0.3767
10982SOL    HW137308  10.497   1.231   7.591  0.7561  1.5568 -0.3499
10982SOL    HW237309  10.516   1.133   7.477  0.7697 -0.6533  1.4742
10983SOL     OW37310  10.275   9.729   6.425 -0.0071 -0.1888  0.4430
10983SOL    HW137311  10.184   9.712   6.450 -0.8534  2.8160 -0.2553
10983SOL    HW237312  10.281   9.696   6.335 -1.3017  1.9572 -0.5186
10984SOL     OW37313   0.128   9.828   0.483 -0.6433 -0.2411  0.3381
10984SOL    HW137314   0.035   9.806   0.486 -0.0797 -3.6694 -1.5600
10984SOL    HW237315   0.164   9.790   0.563 -0.8031  0.8412  0.9359
10985SOL     OW37316   0.946  10.161   7.616 -0.0530  0.2826 -0.3033
10985SOL    HW137317   1.041  10.149   7.617  0.4372  2.1424 -4.0922
10985SOL    HW237318   0.912  10.078   7.582  0.4052  0.1369 -0.4214
10986SOL     OW37319   4.067   1.274   5.992 -0.4483 -0.1079  0.0039
10986SOL    HW137320   3.999   1.307   5.933  0.2662 -0.9361 -1.3315
10986SOL    HW237321   4.073   1.340   6.061 -0.6507  1.4008 -1.3569
10987SOL     OW37322   3.281   7.801   3.534  0.4852 -0.4478 -0.0272
10987SOL    HW137323   3.274   7.851   3.615 -2.1951  1.1255 -1.1089
10987SOL    HW237324   3.219   7.729   3.545  0.6037 -0.6079 -0.4139
10988SOL     OW37325  10.753   0.318   4.775 -0.1021 -0.1653 -0.1104
10988SOL    HW137326  10.713   0.279   4.853 -0.5880 -0.2394 -0.3965
10988SOL    HW237327  10.706   0.401   4.763  0.6271  0.3124  0.2367
10989SOL     OW37328   6.987   4.775   0.212 -0.9073  0.1186 -0.4294
10989SOL    HW137329   7.074   4.735   0.216 -0.0145  2.0232  0.8750
10989SOL    HW237330   6.999   4.852   0.156 -2.0901 -0.2423 -1.2299
10990SOL     OW37331  10.783   0.857   1.391  0.0867 -0.0089  0.5140
10990SOL    HW137332  10.809   0.768   1.416 -0.4380 -0.0012  1.1016
10990SOL    HW237333  10.714   0.844   1.325  0.6686 -0.0310 -0.0980
10991SOL     OW37334   2.700   2.793   7.062  0.1132  0.4656  0.3664
10991SOL    HW137335   2.636   2.761   6.999  0.8534  1.0170 -0.6851
10991SOL    HW237336   2.649   2.804   7.143 -0.8104 -0.4054 -0.0631
10992SOL     OW37337   1.699   1.428   7.698  0.1716  0.2801 -0.1851
10992SOL    HW137338   1.627   1.491   7.692  0.1452  0.1577 -1.3859
10992SOL    HW237339   1.681   1.364   7.628  2.7696  1.6796 -2.3253
10993SOL     OW37340   9.919   4.275   1.963 -0.4192 -0.3477  0.6269
10993SOL    HW137341   9.934   4.188   1.999  1.3405 -0.3045  0.0955
10993SOL    HW237342  10.006   4.314   1.956 -1.1023  1.2131  0.2262
10994SOL     OW37343   1.841   0.128   2.901 -0.1322 -0.5931 -0.0730
10994SOL    HW137344   1.829   0.159   2.811 -0.7185 -1.9213 -0.4856
10994SOL    HW237345   1.784   0.051   2.907  0.4291 -0.9321  1.2274
10995SOL     OW37346   3.703   5.775   1.957  0.3089 -0.0511 -0.6668
10995SOL    HW137347   3.667   5.692   1.986 -1.5018  0.9906  0.2321
10995SOL    HW237348   3.707   5.768   1.862 -2.4289 -0.2116 -0.8305
10996SOL     OW37349   2.506   8.912   2.556  0.1088 -0.3298 -0.7691
10996SOL    HW137350   2.547   8.827   2.541 -0.6095 -0.8134 -0.0799
10996SOL    HW237351   2.554   8.972   2.500  0.0867 -1.3455 -1.9214
10997SOL     OW37352   7.692  10.519  10.579 -0.5737 -0.0226  0.3350
10997SOL    HW137353   7.736  10.491  10.659 -0.0686 -0.7199 -0.1782
10997SOL    HW237354   7.674  10.438  10.531  0.2406  0.4470 -0.8217
10998SOL     OW37355   9.052   2.943   0.825 -0.2497 -0.0825  0.4509
10998SOL    HW137356   8.988   2.936   0.896 -0.4683 -1.4339  0.1375
10998SOL    HW237357   9.137   2.945   0.869 -0.4579  1.2783  0.8469
10999SOL     OW37358   2.770   0.819   6.204  0.3143 -0.2692  0.3115
10999SOL    HW137359   2.688   0.797   6.161  0.9020 -1.0297 -0.4713
10999SOL    HW237360   2.837   0.805   6.136  1.1485 -0.3479  1.1277
11000SOL     OW37361   9.078   2.716   9.124  0.4964 -0.0352 -0.0911
11000SOL    HW137362   9.147   2.765   9.170 -0.0989  0.8339 -0.0942
11000SOL    HW237363   8.998   2.738   9.172  0.1941 -0.8931 -0.1989
11001SOL     OW37364  10.954   8.323   9.520 -0.3216  0.3417 -1.1653
11001SOL    HW137365  11.031   8.315   9.464  0.6096  0.8886 -0.0304
11001SOL    HW237366  10.986   8.370   9.598 -1.8353  0.6948 -0.7132
11002SOL     OW37367   4.626   3.884   1.132 -0.1326 -0.1964 -0.7992
11002SOL    HW137368   4.544   3.903   1.088  0.2669  2.0994 -0.6425
11002SOL    HW237369   4.673   3.827   1.071 -0.7464  0.6240 -2.0869
11003SOL     OW37370  10.156   4.556   5.464 -0.5758  0.5178  0.2373
11003SOL    HW137371  10.221   4.486   5.474  0.5983  1.5975  0.4565
11003SOL    HW237372  10.167   4.609   5.543 -1.1191  1.2091 -0.1495
11004SOL     OW37373   1.459   3.322  10.304  0.3215  0.1866 -0.2777
11004SOL    HW137374   1.518   3.397  10.304  1.7697 -0.8788  0.1747
11004SOL    HW237375   1.411   3.328  10.222  1.3050  0.9402 -0.8139
11005SOL     OW37376   8.472   2.898   2.941  0.1527  0.2037  0.4477
11005SOL    HW137377   8.408   2.912   2.872 -0.2505 -0.2122  0.7286
11005SOL    HW237378   8.457   2.970   3.003 -0.6667 -0.3914  0.9659
11006SOL     OW37379   7.590   8.727   2.297  0.3651 -0.3516 -0.1774
11006SOL    HW137380   7.551   8.802   2.342  1.0391  0.0340 -0.2082
11006SOL    HW237381   7.677   8.758   2.271  0.4628 -0.9851 -0.6328
11007SOL     OW37382   4.509   9.898   8.095 -0.1705 -0.0308 -0.0475
11007SOL    HW137383   4.542   9.983   8.123  0.9726 -0.3258 -0.4520
11007SOL    HW237384   4.587   9.847   8.073 -0.8133 -1.2872  0.4530
11008SOL     OW37385  10.481   7.576   1.001  0.6682  0.4180 -0.2652
11008SOL    HW137386  10.557   7.627   1.026  0.8521 -0.4871  1.1512
11008SOL    HW237387  10.411   7.640   0.990  0.8397  1.0097  1.6685
11009SOL     OW37388  10.805   1.547   1.366  0.3394 -0.1453 -0.4905
11009SOL    HW137389  10.851   1.477   1.411 -0.0851  0.3346  0.7240
11009SOL    HW237390  10.874   1.608   1.338  0.5102  0.2424  0.7368
11010SOL     OW37391   7.922   7.140   0.197  0.2779 -0.4723 -0.5503
11010SOL    HW137392   7.932   7.168   0.288 -1.4486 -1.7281  0.1044
11010SOL    HW237393   8.010   7.141   0.161  0.7499  2.1248  0.4612
11011SOL     OW37394   1.505   0.747   3.238  0.7424 -0.1552  0.3896
11011SOL    HW137395   1.482   0.681   3.304  3.3527 -1.3696  0.2230
11011SOL    HW237396   1.559   0.810   3.284  1.1403 -0.0520 -0.2082
11012SOL     OW37397  10.688   7.821   5.822  0.4973  0.2201 -0.0271
11012SOL    HW137398  10.639   7.742   5.797 -0.9723  1.2607 -0.6183
11012SOL    HW237399  10.659   7.887   5.759  1.6151  1.2690  0.5219
11013SOL     OW37400   3.248   2.596   0.426 -0.0768 -0.1729  0.8925
11013SOL    HW137401   3.319   2.532   0.432  2.0595  2.0185  0.7238
11013SOL    HW237402   3.168   2.544   0.432  1.4906 -2.9265 -0.1430
11014SOL     OW37403   9.693   9.758   6.358  0.2667  0.0870  0.2655
11014SOL    HW137404   9.758   9.743   6.289 -0.4602 -1.5994 -0.1057
11014SOL    HW237405   9.736   9.817   6.419  2.4108 -1.4355  0.3506
11015SOL     OW37406  10.811   7.861   2.456 -0.3331  0.1243  0.2110
11015SOL    HW137407  10.804   7.875   2.361  0.3978 -0.0661  0.1192
11015SOL    HW237408  10.727   7.822   2.481 -0.4111 -0.1263 -0.4182
11016SOL     OW37409   0.190   2.793   8.738 -0.2348 -0.0927  0.3652
11016SOL    HW137410   0.183   2.810   8.645 -0.1631  1.3246  0.6070
11016SOL    HW237411   0.172   2.699   8.747 -0.3712 -0.2103 -1.0438
11017SOL     OW37412   2.442   5.535   4.324 -0.1706  0.2639 -0.8317
11017SOL    HW137413   2.366   5.489   4.288  0.5487 -1.9980  0.3431
11017SOL    HW237414   2.406   5.590   4.393 -0.7688 -0.8232 -0.2484
11018SOL     OW37415   3.059  10.245   3.984  0.4958  0.1932 -0.5255
11018SOL    HW137416   2.976  10.287   3.965 -0.1812 -0.4904  0.8171
11018SOL    HW237417   3.078  10.269   4.074  2.6404  1.7606 -1.3096
11019SOL     OW37418   7.946   1.646   8.356 -0.0099  0.6814 -0.4556
11019SOL    HW137419   7.986   1.627   8.440  0.5651  0.9435 -0.6681
11019SOL    HW237420   7.852   1.638   8.372  0.1165  0.2600  0.0911
11020SOL     OW37421   8.585   3.810   9.227  0.8124  0.4358 -0.7464
11020SOL    HW137422   8.677   3.798   9.249  0.2839 -0.1903  1.3726
11020SOL    HW237423   8.542   3.822   9.312 -1.2658 -0.8720 -1.5402
11021SOL     OW37424   7.963   6.817   3.000  0.4538  0.2083 -0.3660
11021SOL    HW137425   7.927   6.823   2.911  0.0195  0.5886 -0.1655
11021SOL    HW237426   7.953   6.725   3.023 -1.9561  0.5832  0.3274
11022SOL     OW37427   7.576   0.745   9.692 -0.2159 -0.0923  0.7072
11022SOL    HW137428   7.546   0.685   9.760  2.4501 -1.7632  0.5684
11022SOL    HW237429   7.636   0.805   9.737  1.0793 -0.8169  0.0248
11023SOL     OW37430   5.071   3.397   0.476  0.4682  0.3044 -0.5636
11023SOL    HW137431   5.078   3.302   0.488  0.0659  0.3249 -0.1510
11023SOL    HW237432   5.159   3.424   0.450 -0.1722 -0.7193 -4.5405
11024SOL     OW37433   6.500   8.430   5.491  0.5375  0.0491  0.0193
11024SOL    HW137434   6.559   8.416   5.565  0.8366  1.6736  0.1263
11024SOL    HW237435   6.558   8.449   5.417  0.2720 -2.1228 -0.8302
11025SOL     OW37436   9.169   6.919   4.154  0.9111 -0.9043  0.5014
11025SOL    HW137437   9.250   6.928   4.103  1.3783 -1.0005  1.2063
11025SOL    HW237438   9.168   6.827   4.180  0.8290 -0.7895  0.9042
11026SOL     OW37439   2.990   9.620  10.002 -0.6636  0.0809  0.0450
11026SOL    HW137440   2.981   9.580  10.089  3.1819  1.6540  1.4215
11026SOL    HW237441   3.022   9.550   9.946 -0.3347 -0.3078  0.7053
11027SOL     OW37442   9.191   2.156  10.630 -0.0508  0.3891 -0.1683
11027SOL    HW137443   9.263   2.105  10.668  0.3684  1.1147  0.0190
11027SOL    HW237444   9.222   2.246  10.631 -0.9484  0.7043 -0.1340
11028SOL     OW37445   9.929   0.219  11.069  0.0133  0.5160 -0.2805
11028SOL    HW137446   9.939   0.270  10.989 -0.2026  0.4458 -0.3514
11028SOL    HW237447   9.842   0.242  11.102 -0.1253  0.1250 -0.3632
11029SOL     OW37448   3.221  10.008   5.379 -0.1101 -0.4465 -0.2577
11029SOL    HW137449   3.254   9.925   5.412  0.2601  0.0436  0.6231
11029SOL    HW237450   3.128  10.008   5.403 -0.2369 -0.8314 -0.7316
11030SOL     OW37451   7.647   6.736   8.430 -0.1648 -0.4015 -0.1622
11030SOL    HW137452   7.721   6.715   8.487 -2.5101 -1.1157  2.8837
11030SOL    HW237453   7.655   6.675   8.357  2.7467  0.2647 -0.5263
11031SOL     OW37454   7.119   6.571   3.808 -0.0769  0.1906 -0.4418
11031SOL    HW137455   7.132   6.544   3.899  0.2215 -2.4920 -1.1964
11031SOL    HW237456   7.153   6.660   3.804 -0.9472  0.7339  2.2598
11032SOL     OW37457   0.463   8.199   3.614 -0.2714  0.5318 -0.3651
11032SOL    HW137458   0.514   8.228   3.538  0.5156  0.5495  0.1528
11032SOL    HW237459   0.477   8.104   3.616 -0.7302  0.4578 -0.5490
11033SOL     OW37460   4.267   2.956   7.635 -0.6019  0.0146 -0.1442
11033SOL    HW137461   4.261   3.051   7.629  0.1383 -0.0118 -1.9122
11033SOL    HW237462   4.300   2.939   7.723 -0.5518  1.3967  0.1219
11034SOL     OW37463   9.608   8.631   7.875  0.2560  0.1741  0.5086
11034SOL    HW137464   9.571   8.554   7.919  1.0954  0.6312  2.0862
11034SOL    HW237465   9.533   8.689   7.862  0.0611  0.2521  1.8552
11035SOL     OW37466   8.429   1.973   5.699  0.5479 -0.2934 -0.1320
11035SOL    HW137467   8.381   1.894   5.672 -0.4535 -0.2172  1.2945
11035SOL    HW237468   8.515   1.941   5.725 -0.3197 -1.2145  1.8654
11036SOL     OW37469  10.361   2.086   0.366  0.4443 -0.1135  0.4998
11036SOL    HW137470  10.410   2.159   0.403 -1.9761  1.3808  0.9547
11036SOL    HW237471  10.330   2.118   0.282 -0.5913 -0.6113  0.6753
11037SOL     OW37472  10.329   1.672   5.228 -0.3812 -1.0808 -0.1926
11037SOL    HW137473  10.283   1.623   5.297  1.0528 -0.2718  1.4228
11037SOL    HW237474  10.404   1.617   5.206 -0.4456 -1.0078 -0.5999
11038SOL     OW37475   5.474   3.069   6.299 -0.1884 -0.1949 -0.3759
11038SOL    HW137476   5.457   3.077   6.205  1.6777 -0.1842 -0.7365
11038SOL    HW237477   5.534   2.996   6.307  1.8753  1.4987  0.4926
11039SOL     OW37478   1.633   2.013   7.035  0.4509  0.6033 -0.2847
11039SOL    HW137479   1.693   1.950   6.996  1.4712  0.4995  1.3829
11039SOL    HW237480   1.554   1.963   7.056  0.8018  0.1592 -0.0416
11040SOL     OW37481   6.709   3.828   2.910  0.0578 -0.4512  0.2912
11040SOL    HW137482   6.655   3.794   2.981 -1.0613  2.5778  1.0396
11040SOL    HW237483   6.659   3.808   2.830 -0.3027 -0.9712  0.6395
11041SOL     OW37484   7.473   1.951  10.646 -0.0350 -0.2194 -0.4237
11041SOL    HW137485   7.395   1.982  10.601 -0.8356  1.1045  1.7456
11041SOL    HW237486   7.544   1.969  10.585 -1.2327 -0.1231 -1.8551
11042SOL     OW37487   5.467   9.544   0.774  0.3160  0.3518 -1.0495
11042SOL    HW137488   5.425   9.601   0.710 -0.8049 -0.9085 -1.4852
11042SOL    HW237489   5.439   9.456   0.749 -0.4066 -0.1683  1.3180
11043SOL     OW37490  11.113   6.674   3.047 -0.3487  0.1827  0.0271
11043SOL    HW137491  11.152   6.744   3.098  1.0371 -0.9233  0.5563
11043SOL    HW237492  11.027   6.707   3.021  0.3271  2.0983  0.1355
11044SOL     OW37493   8.162   3.249   7.987  0.3631 -0.6865  0.5941
11044SOL    HW137494   8.223   3.222   7.918  0.1135  0.8844 -0.3109
11044SOL    HW237495   8.133   3.168   8.028  0.6426 -1.6714 -1.0676
11045SOL     OW37496   8.418   2.220   5.853 -0.0655  0.0899  0.5482
11045SOL    HW137497   8.415   2.139   5.802  1.3257 -0.0227  0.6099
11045SOL    HW237498   8.377   2.285   5.796  0.2064 -0.3337 -0.1510
11046SOL     OW37499   9.017   7.593   5.180 -0.7159 -0.0974 -0.1704
11046SOL    HW137500   8.949   7.622   5.241 -0.9093 -0.9037  0.0229
11046SOL    HW237501   8.986   7.507   5.150 -0.0004 -0.2770 -0.4185
11047SOL     OW37502   2.102   0.201   0.269  0.3074  0.1239 -0.2997
11047SOL    HW137503   2.125   0.217   0.178 -2.0946 -4.4520 -2.0316
11047SOL    HW237504   2.180   0.161   0.307  0.5645 -0.1106 -1.0583
11048SOL     OW37505   6.023   1.541   6.988 -0.2042 -0.2804  0.6277
11048SOL    HW137506   6.100   1.491   7.016 -0.3979 -1.8035 -1.3320
11048SOL    HW237507   5.951   1.477   6.990 -0.7046  0.1956 -0.8242
11049SOL     OW37508   9.882   5.655   8.987  0.3741 -0.5206 -0.1239
11049SOL    HW137509   9.812   5.646   9.051 -1.0965 -0.5997 -1.6849
11049SOL    HW237510   9.907   5.748   8.993 -0.4523 -0.2868 -0.1279
11050SOL     OW37511   9.859   0.778   9.407  0.0737 -0.4567 -0.3740
11050SOL    HW137512   9.902   0.863   9.409  0.6474 -0.7322 -0.7993
11050SOL    HW237513   9.824   0.767   9.496  1.5501 -0.5579  0.2153
11051SOL     OW37514   1.392   4.595   3.849  0.0761 -0.6093  0.1835
11051SOL    HW137515   1.385   4.531   3.779  0.7942 -0.5720  0.0651
11051SOL    HW237516   1.327   4.662   3.827  0.8186 -0.2059 -0.8759
11052SOL     OW37517  10.634   7.972   7.206 -0.2997 -0.2208 -0.2232
11052SOL    HW137518  10.726   7.985   7.184  0.0949  2.7500  2.4916
11052SOL    HW237519  10.625   7.878   7.217  1.4892 -0.9898 -3.7893
11053SOL     OW37520   8.164   8.697   4.139 -0.4716 -0.5859  0.0927
11053SOL    HW137521   8.086   8.659   4.098 -1.1071 -0.1619  0.8901
11053SOL    HW237522   8.138   8.786   4.162  0.6106 -0.0647 -0.6133
11054SOL     OW37523   6.420   7.987   8.821  0.0823  0.8125  0.0338
11054SOL    HW137524   6.358   7.968   8.892  0.2174 -1.7798 -0.4426
11054SOL    HW237525   6.484   8.046   8.862 -0.7567  0.7314  1.5703
11055SOL     OW37526   0.616   9.837   4.352  0.0440  0.5921 -0.1765
11055SOL    HW137527   0.648   9.912   4.402  0.9070 -0.1548  0.4032
11055SOL    HW237528   0.678   9.827   4.280  0.8699 -0.5406  0.6580
11056SOL     OW37529   6.351   2.511  10.158 -0.5760  0.0108  0.7379
11056SOL    HW137530   6.265   2.498  10.118 -0.7710  2.9934 -0.0870
11056SOL    HW237531   6.413   2.511  10.084 -0.5062  2.1333  0.7138
11057SOL     OW37532   1.663   9.088   8.051 -0.0586 -0.2242  0.2569
11057SOL    HW137533   1.750   9.048   8.043 -0.1286 -0.4174  0.4587
11057SOL    HW237534   1.678   9.181   8.038  0.2975 -0.1551  1.0987
11058SOL     OW37535   6.746   0.582   1.778  0.1262  0.1633  0.3580
11058SOL    HW137536   6.742   0.563   1.871  0.6004 -0.6366  0.2277
11058SOL    HW237537   6.657   0.609   1.754 -0.8654 -2.7125  0.4179
11059SOL     OW37538   9.385  10.857   7.338  0.4829  0.0772 -0.1527
11059SOL    HW137539   9.402  10.837   7.245  1.1386  0.0716 -0.0406
11059SOL    HW237540   9.327  10.933   7.336  1.5574  0.9131 -0.5759
11060SOL     OW37541   9.139   9.626  11.051  0.1645 -0.0046  0.4920
11060SOL    HW137542   9.138   9.632  11.147  0.7208  1.8845  0.4217
11060SOL    HW237543   9.051   9.654  11.025  0.2896  0.3288  0.4248
11061SOL     OW37544   5.524   3.760   1.779  0.0026 -0.3364  0.1480
11061SOL    HW137545   5.533   3.745   1.685  0.3744  0.0579  0.1153
11061SOL    HW237546   5.615   3.764   1.811 -0.1239 -0.8629  0.5887
11062SOL     OW37547   9.271   7.179   9.774  0.2449  0.7400 -0.3218
11062SOL    HW137548   9.292   7.202   9.864  0.1200 -2.0609  0.5077
11062SOL    HW237549   9.355   7.153   9.735 -0.1765 -1.7032  0.2269
11063SOL     OW37550  10.000   7.202   0.355  0.2901  0.1221 -0.2824
11063SOL    HW137551  10.074   7.144   0.374  1.1600  0.8236 -1.3717
11063SOL    HW237552   9.939   7.148   0.305 -0.4988 -0.7926  1.6011
11064SOL     OW37553   0.292   4.603   5.489 -0.1533 -0.4669 -0.1513
11064SOL    HW137554   0.321   4.511   5.486 -1.7033 -1.0200  0.7707
11064SOL    HW237555   0.226   4.605   5.558 -1.9681  0.8055 -1.8159
11065SOL     OW37556   1.530   6.882   5.475  0.2933 -0.3272  0.1466
11065SOL    HW137557   1.618   6.853   5.451  0.6954  1.3898 -0.6805
11065SOL    HW237558   1.473   6.813   5.443  1.2181 -0.4984 -1.2534
11066SOL     OW37559   7.276  11.070  10.586 -0.0332  0.0321  0.5534
11066SOL    HW137560   7.347  11.126  10.617 -1.1541  1.4569  0.6688
11066SOL    HW237561   7.196  11.116  10.613 -1.0340 -0.3275 -1.5829
11067SOL     OW37562   9.973   9.928   0.741  0.2291  0.7082 -0.3245
11067SOL    HW137563  10.049   9.915   0.686  0.6137  0.9912  0.1313
11067SOL    HW237564  10.007   9.971   0.820 -0.3787  0.7355 -0.0683
11068SOL     OW37565   7.614   4.115   1.612  0.3401 -0.0518  0.0045
11068SOL    HW137566   7.696   4.162   1.627  0.0150  1.7385 -3.0691
11068SOL    HW237567   7.638   4.023   1.615  2.2685  0.4074  0.0420
11069SOL     OW37568   0.368  10.361   9.393  0.1057 -0.9264 -0.3078
11069SOL    HW137569   0.357  10.413   9.472  3.5327  1.2510 -1.0201
11069SOL    HW237570   0.378  10.426   9.323 -0.4635 -2.7162 -2.1620
11070SOL     OW37571   7.356   6.763   6.631  0.1677 -0.0261 -0.6772
11070SOL    HW137572   7.370   6.846   6.676 -1.7264 -0.2822  0.5340
11070SOL    HW237573   7.270   6.772   6.589 -0.5238 -1.6173  0.2554
11071SOL     OW37574   2.259   0.117   3.691 -0.3038  0.0096  0.5425
11071SOL    HW137575   2.188   0.181   3.690  0.9936  1.5484 -1.5799
11071SOL    HW237576   2.339   0.169   3.689  0.8297 -1.6611 -0.8531
11072SOL     OW37577   4.215   1.045   0.841 -0.2516  0.4262  0.4955
11072SOL    HW137578   4.235   0.995   0.762 -1.9111  0.7708 -0.1727
11072SOL    HW237579   4.297   1.046   0.890  0.2851 -1.4905 -0.2792
11073SOL     OW37580   0.023   5.313  10.321  0.7250 -0.1035 -0.2606
11073SOL    HW137581  -0.002   5.222  10.338 -2.8122  0.8024  0.2304
11073SOL    HW237582   0.094   5.331  10.382  1.4441 -2.4575 -0.3049
11074SOL     OW37583   7.148   2.831   8.452 -0.3445 -0.9463 -0.0183
11074SOL    HW137584   7.235   2.870   8.454 -0.9054  0.3353  0.3897
11074SOL    HW237585   7.148   2.775   8.374  0.4709 -0.0914 -0.6476
11075SOL     OW37586   5.787   9.374   3.783  0.4409 -0.1284  0.2652
11075SOL    HW137587   5.745   9.408   3.704 -1.5262 -1.7762  0.5274
11075SOL    HW237588   5.872   9.342   3.753 -0.3412 -0.8885 -1.2624
11076SOL     OW37589   5.391   5.015   1.547  0.2110  0.0011  0.1335
11076SOL    HW137590   5.303   4.978   1.541 -0.2603  1.0980 -0.0642
11076SOL    HW237591   5.431   4.971   1.622 -0.8519  0.1592  0.8085
11077SOL     OW37592   4.493   2.420   4.582  0.6766  0.1495 -0.2141
11077SOL    HW137593   4.444   2.500   4.563 -1.5646 -0.8521  0.9454
11077SOL    HW237594   4.585   2.445   4.570  0.0928  2.9833  0.4139
11078SOL     OW37595   7.117   0.326   0.600 -0.0192  0.3960  0.7056
11078SOL    HW137596   7.044   0.377   0.634  0.4629  1.6232 -0.0431
11078SOL    HW237597   7.107   0.240   0.640 -1.1375  0.9254  1.6071
11079SOL     OW37598   4.901   6.050   7.840  0.6253 -0.1443  0.3122
11079SOL    HW137599   4.927   6.134   7.878 -1.8620  1.1133 -0.5529
11079SOL    HW237600   4.950   5.985   7.890  0.6785  1.6548  2.7764
11080SOL     OW37601  10.969   9.427   2.832  0.6615 -0.4146  0.2154
11080SOL    HW137602  11.004   9.400   2.916  0.5500 -0.1909  0.3357
11080SOL    HW237603  10.882   9.387   2.827  0.3588  0.1901  0.5412
11081SOL     OW37604   6.585   6.598   0.185 -0.0523  0.2316 -0.4680
11081SOL    HW137605   6.591   6.568   0.094  1.8518  2.1748 -1.0887
11081SOL    HW237606   6.615   6.689   0.181 -1.3191  0.8247  1.9137
11082SOL     OW37607   6.510   8.653   7.652 -0.3934  0.0582  0.3382
11082SOL    HW137608   6.480   8.562   7.659 -0.0922 -0.1557 -0.8798
11082SOL    HW237609   6.584   8.659   7.712 -0.1454 -0.6331  0.1085
11083SOL     OW37610   8.066   4.208   2.572  0.4200  0.4062 -0.1602
11083SOL    HW137611   8.047   4.189   2.480 -0.9319 -0.9360  0.3511
11083SOL    HW237612   8.110   4.129   2.604 -1.4063 -0.2160  0.9479
11084SOL     OW37613   3.274   7.878   3.773  0.2086 -0.3993 -0.2288
11084SOL    HW137614   3.250   7.812   3.837  0.7783 -1.0072 -0.6359
11084SOL    HW237615   3.195   7.933   3.765 -0.1201 -0.7665  0.4184
11085SOL     OW37616   6.774   9.780  10.184  0.0949  0.1024  0.6290
11085SOL    HW137617   6.828   9.706  10.155 -1.5900 -0.7076 -0.5660
11085SOL    HW237618   6.695   9.740  10.220 -0.3741  1.3103  1.0077
11086SOL     OW37619  10.241   4.248   2.456  0.0753 -0.0271 -0.4537
11086SOL    HW137620  10.237   4.263   2.551  0.0126 -0.7800 -0.3253
11086SOL    HW237621  10.272   4.158   2.449 -1.1994 -0.4340 -1.1309
11087SOL     OW37622   4.732   1.441   1.974  0.1175  0.0044 -0.1251
11087SOL    HW137623   4.791   1.515   1.990  0.2820 -0.5341  2.1017
11087SOL    HW237624   4.678   1.436   2.053 -1.1203 -1.1521 -1.0053
11088SOL     OW37625   3.284   8.792   2.229  0.3394  0.0964 -0.0289
11088SOL    HW137626   3.298   8.763   2.139 -0.9418 -0.4061 -0.0865
11088SOL    HW237627   3.339   8.870   2.237  2.1232 -1.0367 -0.5622
11089SOL     OW37628   4.731   4.988   5.596  0.1084 -0.6454 -0.1542
11089SOL    HW137629   4.703   5.005   5.686 -0.9923 -0.2281 -0.5545
11089SOL    HW237630   4.804   4.927   5.605  1.2611  0.8353  1.1117
11090SOL     OW37631   9.056   2.408   1.326  0.2004  0.6465 -0.0700
11090SOL    HW137632   9.109   2.328   1.325  0.1130  0.5768  0.4640
11090SOL    HW237633   9.066   2.444   1.238  0.5142  0.2271 -0.2128
11091SOL     OW37634  10.941   9.796   5.846 -0.7362 -0.2391  0.3461
11091SOL    HW137635  10.979   9.824   5.929 -0.1973 -1.6785  0.6204
11091SOL    HW237636  10.932   9.701   5.855  0.0093 -0.5336 -1.5096
11092SOL     OW37637   0.750   6.434   5.548  0.4334 -0.7012  0.3572
11092SOL    HW137638   0.789   6.424   5.634 -0.6541 -1.5625  0.7768
11092SOL    HW237639   0.668   6.384   5.553 -0.0316 -0.1055 -0.9179
11093SOL     OW37640   1.497   1.680   2.010 -0.2232 -0.0860  0.0628
11093SOL    HW137641   1.404   1.670   2.028 -0.2592 -1.9730 -0.9177
11093SOL    HW237642   1.538   1.607   2.058  1.0724  1.9988  2.3731
11094SOL     OW37643   0.859   8.939   0.556  0.3096  0.0155  0.9639
11094SOL    HW137644   0.943   8.969   0.592  0.6566 -0.4646  0.5802
11094SOL    HW237645   0.881   8.908   0.468 -0.0985 -0.9443  1.1819
11095SOL     OW37646   3.619   8.488   2.229  0.1459 -0.3471 -0.1016
11095SOL    HW137647   3.711   8.464   2.242  0.4182 -0.8509 -2.5335
11095SOL    HW237648   3.591   8.436   2.154 -2.5241 -1.1386  1.3084
11096SOL     OW37649   3.322   8.010  10.614  0.1306 -0.1948 -0.0389
11096SOL    HW137650   3.271   7.936  10.647  0.3016  0.3152  1.4462
11096SOL    HW237651   3.289   8.085  10.664  0.8142  0.5124 -0.6375
11097SOL     OW37652   0.338   7.449   0.409 -0.2368  0.4371 -0.1266
11097SOL    HW137653   0.313   7.490   0.327 -1.3122 -0.0658 -0.0790
11097SOL    HW237654   0.366   7.521   0.465  0.2122  0.8143 -0.8255
11098SOL     OW37655   2.237   2.338   4.253  0.2825  0.4755 -0.3790
11098SOL    HW137656   2.332   2.342   4.245  0.2862 -0.6537 -1.0795
11098SOL    HW237657   2.219   2.375   4.340  1.5145 -1.0802  0.5849
11099SOL     OW37658   3.537   3.566   9.273 -0.3291 -0.1205  0.0981
11099SOL    HW137659   3.577   3.651   9.292 -1.8874  0.3121  1.6090
11099SOL    HW237660   3.448   3.573   9.305 -0.6625 -2.1715 -0.2382
11100SOL     OW37661   9.610   1.301   5.998  0.2133  0.0688 -0.3224
11100SOL    HW137662   9.521   1.268   6.009  0.0634  0.6381  0.1804
11100SOL    HW237663   9.652   1.236   5.941 -1.0390  0.6906 -2.0520
11101SOL     OW37664   5.653  10.871   4.233 -0.0372 -0.1949  0.1635
11101SOL    HW137665   5.571  10.829   4.207  0.1907  0.1914 -1.2108
11101SOL    HW237666   5.628  10.961   4.254  0.1719  0.2322 -1.2999
11102SOL     OW37667   9.171   2.532   9.394  0.3852 -0.2017  0.1371
11102SOL    HW137668   9.098   2.471   9.383  1.1210 -0.8523 -1.6181
11102SOL    HW237669   9.242   2.494   9.342  1.6905  0.8771  1.0519
11103SOL     OW37670   8.728   6.564  10.089 -0.0580  0.0320 -0.5243
11103SOL    HW137671   8.681   6.646  10.073 -1.3851 -0.8503 -1.2960
11103SOL    HW237672   8.668   6.496  10.061  1.2560 -1.1998 -0.4548
11104SOL     OW37673   7.422   9.090   9.763  0.3112  0.5730  0.1141
11104SOL    HW137674   7.466   9.138   9.694  0.2640  1.4295  0.6689
11104SOL    HW237675   7.330   9.088   9.736  0.8592 -3.4587 -2.3896
11105SOL     OW37676   2.951   4.218   3.617 -0.2523  0.0236  0.4031
11105SOL    HW137677   2.962   4.211   3.523 -0.2680  0.4838  0.3650
11105SOL    HW237678   2.870   4.268   3.628  0.2249  0.7602  0.6543
11106SOL     OW37679   8.380   2.422   1.974  0.0270  0.2000  0.7321
11106SOL    HW137680   8.356   2.338   2.014 -2.8800  0.7164  0.3271
11106SOL    HW237681   8.408   2.400   1.886  0.0569 -0.4178  0.8917
11107SOL     OW37682   4.667   9.968   8.544  0.3139 -0.6466  0.3183
11107SOL    HW137683   4.754   9.986   8.579  0.6086 -1.3865  0.0019
11107SOL    HW237684   4.671   9.876   8.517 -0.5598 -0.6808  0.2769
11108SOL     OW37685   9.450   0.123   8.815  0.6443  0.2701  0.6007
11108SOL    HW137686   9.431   0.137   8.722 -0.0782  0.5538  0.7824
11108SOL    HW237687   9.421   0.204   8.858 -0.5210 -0.4585  1.2629
11109SOL     OW37688  10.572  10.663   3.295  0.1544  0.7096 -0.5113
11109SOL    HW137689  10.503  10.657   3.229 -0.3064 -0.2443  0.0331
11109SOL    HW237690  10.554  10.745   3.341 -1.2190  0.0174  0.2495
11110SOL     OW37691   7.822  10.631   2.747 -0.2939 -0.4189 -0.4843
11110SOL    HW137692   7.782  10.711   2.711 -0.0578  0.5509  1.2882
11110SOL    HW237693   7.759  10.602   2.814  1.2535  0.3995  1.4394
11111SOL     OW37694  10.708   8.405   3.272 -0.7384 -0.1231  0.2407
11111SOL    HW137695  10.766   8.401   3.348  0.2007  1.5039 -0.3462
11111SOL    HW237696  10.628   8.360   3.301 -0.9316  1.5466  2.6719
11112SOL     OW37697   0.961   8.973   7.747  0.1127 -0.6785  0.4000
11112SOL    HW137698   0.932   8.888   7.780 -1.6594 -0.1678  0.2923
11112SOL    HW237699   0.933   9.036   7.814 -0.4950  0.0097 -0.4607
11113SOL     OW37700   1.400   7.162   1.293 -0.1046  0.3867 -0.2989
11113SOL    HW137701   1.431   7.097   1.231 -0.8562  0.2433 -0.5266
11113SOL    HW237702   1.359   7.111   1.363 -0.2682  0.6003 -0.2397
11114SOL     OW37703   7.821   6.739   8.933  0.6606  0.1798 -0.2446
11114SOL    HW137704   7.879   6.805   8.969 -0.0460  1.0106 -0.5972
11114SOL    HW237705   7.800   6.771   8.845 -0.0566 -0.2662 -0.2460
11115SOL     OW37706   8.465   7.649   2.691 -0.3510 -0.3850  0.6825
11115SOL    HW137707   8.439   7.622   2.778 -1.0989 -0.2443  0.5049
11115SOL    HW237708   8.552   7.687   2.703 -0.5845 -0.0743  1.4135
11116SOL     OW37709   3.091   9.707   9.317  0.1879  0.1526  0.5315
11116SOL    HW137710   3.150   9.782   9.319 -0.0827  0.4228 -0.6973
11116SOL    HW237711   3.102   9.665   9.402  3.1830 -0.6117 -0.1333
11117SOL     OW37712   9.195   8.030   9.538 -0.0930 -0.0388 -0.1315
11117SOL    HW137713   9.118   8.013   9.593 -0.0954  0.0704 -0.1025
11117SOL    HW237714   9.165   8.012   9.449 -0.5969  1.5294 -0.2947
11118SOL     OW37715   4.018   2.785   8.937 -0.8637 -0.1197  0.7022
11118SOL    HW137716   4.105   2.768   8.902 -1.0483 -1.7044  0.9672
11118SOL    HW237717   3.985   2.859   8.885 -0.9475 -2.0209 -2.2031
11119SOL     OW37718   8.654  10.482   0.984 -0.2526  0.2229 -0.4864
11119SOL    HW137719   8.634  10.408   0.927  0.2250  0.4487 -0.9630
11119SOL    HW237720   8.750  10.491   0.978 -0.3463  1.1556 -0.7956
11120SOL     OW37721   3.123  10.264   0.698  0.1919  0.2236  0.0057
11120SOL    HW137722   3.167  10.190   0.740  0.8123  1.0555  0.8769
11120SOL    HW237723   3.139  10.251   0.604 -1.3930 -1.7822 -0.0604
11121SOL     OW37724   7.090   8.442   9.767 -0.3013  0.0859  0.1992
11121SOL    HW137725   7.140   8.413   9.691 -0.9382  1.3513 -0.7438
11121SOL    HW237726   7.146   8.507   9.810  0.3114 -1.0645  1.1864
11122SOL     OW37727   0.642   3.409   5.232 -0.0541  0.1220  0.0356
11122SOL    HW137728   0.699   3.484   5.249  0.2933 -0.3659  1.1346
11122SOL    HW237729   0.581   3.439   5.165 -0.6731  1.7859  1.2833
11123SOL     OW37730   0.854   8.825   3.049 -0.1578  0.4648  0.2766
11123SOL    HW137731   0.932   8.869   3.082  0.1657 -0.2297  0.4589
11123SOL    HW237732   0.887   8.763   2.984 -0.3872 -0.8557  1.3789
11124SOL     OW37733   3.685   5.575   6.089 -0.4778 -0.4142  0.1968
11124SOL    HW137734   3.664   5.509   6.023  2.1610 -0.3898 -0.8055
11124SOL    HW237735   3.671   5.659   6.045  2.1758 -0.3925 -0.7923
11125SOL     OW37736   1.456   7.929   1.449 -0.3077 -0.0441  0.4281
11125SOL    HW137737   1.528   7.870   1.472  0.6687  0.1150 -1.9322
11125SOL    HW237738   1.398   7.876   1.395  0.2585  0.9283 -1.1980
11126SOL     OW37739   2.485   7.071   4.562  0.2219 -0.1865  0.2246
11126SOL    HW137740   2.551   7.111   4.505 -0.1707  0.2103  0.0451
11126SOL    HW237741   2.536   7.016   4.622  0.9430  1.8495  1.5663
11127SOL     OW37742   2.072   4.693   2.030 -0.5889  0.0179  0.2090
11127SOL    HW137743   2.048   4.609   2.068 -1.1667  0.1959  0.2484
11127SOL    HW237744   2.095   4.748   2.105 -0.0120 -0.1599  0.1697
11128SOL     OW37745   8.047   1.594   6.138  0.9028  0.1616  0.1130
11128SOL    HW137746   8.000   1.676   6.123 -0.5288 -0.8422 -1.1258
11128SOL    HW237747   8.083   1.603   6.226  0.1493  1.8119  0.2926
11129SOL     OW37748   2.657   1.063   3.127 -0.0305 -0.0246  0.1123
11129SOL    HW137749   2.641   1.157   3.126 -1.7866 -0.2806 -1.4859
11129SOL    HW237750   2.689   1.043   3.039  0.4848 -0.9019  0.4840
11130SOL     OW37751   7.230   9.383   7.894  0.0522  0.2517 -0.1757
11130SOL    HW137752   7.318   9.409   7.868  0.4865 -0.5864  0.4157
11130SOL    HW237753   7.231   9.384   7.989 -0.2270 -0.8352 -0.1465
11131SOL     OW37754   9.102   1.816   3.013  0.1860  0.4357  0.1850
11131SOL    HW137755   9.179   1.772   3.048 -0.1818 -1.5222 -1.2878
11131SOL    HW237756   9.136   1.895   2.971  1.3501 -0.1540 -0.0184
11132SOL     OW37757   5.284   1.853   3.090 -0.1723  1.0418 -0.5521
11132SOL    HW137758   5.346   1.810   3.150  0.2254  2.8195  0.3847
11132SOL    HW237759   5.198   1.828   3.123  0.0332  0.2255 -0.6042
11133SOL     OW37760   6.977   6.286   8.241 -0.8216 -0.0137 -0.0268
11133SOL    HW137761   7.000   6.368   8.285 -0.2514 -1.0903  1.7978
11133SOL    HW237762   7.023   6.290   8.158 -0.5366  1.3749  0.1679
11134SOL     OW37763   6.347  10.441   9.427 -0.0957  0.1341 -0.4053
11134SOL    HW137764   6.360  10.501   9.500  0.9585  0.1885 -0.6132
11134SOL    HW237765   6.268  10.472   9.383 -0.6542  0.1855  0.6242
11135SOL     OW37766   4.068   3.028   6.362 -0.3736 -0.0977  0.2833
11135SOL    HW137767   3.982   2.990   6.343  0.1208 -0.6918 -0.9064
11135SOL    HW237768   4.123   2.952   6.381  0.0451  0.2362  0.4031
11136SOL     OW37769   0.935   4.451   4.573 -0.2063  0.0802  0.2679
11136SOL    HW137770   0.890   4.458   4.489  3.0241  0.2279 -1.5877
11136SOL    HW237771   0.872   4.486   4.636 -2.6804  0.1867 -2.0749
11137SOL     OW37772   2.186   2.651   8.644  0.2258  0.6737  0.0645
11137SOL    HW137773   2.121   2.581   8.652  0.4582  0.4576  0.0760
11137SOL    HW237774   2.135   2.732   8.649 -0.0565  0.5047 -0.0450
11138SOL     OW37775   1.557   8.929   3.768 -0.3901 -0.0321 -0.7345
11138SOL    HW137776   1.529   8.848   3.811  1.2056 -0.9045 -1.2672
11138SOL    HW237777   1.607   8.976   3.836  1.0652 -0.8304 -1.2089
11139SOL     OW37778   2.560   8.154   7.691  0.2797 -0.6578 -0.0026
11139SOL    HW137779   2.617   8.114   7.626  1.2960  1.0829 -0.2415
11139SOL    HW237780   2.619   8.206   7.746 -1.0355  1.0124 -0.1014
11140SOL     OW37781   9.967   8.063  10.399  0.2904  0.1602  0.3429
11140SOL    HW137782  10.040   8.011  10.367 -0.3005  1.1044 -2.8271
11140SOL    HW237783  10.003   8.150  10.413  0.0478  0.2995  0.1036
11141SOL     OW37784  10.457   0.680   7.072 -0.7336  0.3872  0.2351
11141SOL    HW137785  10.500   0.675   6.987  0.0444  1.1596  0.5768
11141SOL    HW237786  10.401   0.602   7.075 -0.1444 -0.0787 -0.6337
11142SOL     OW37787  10.220   0.065  10.341  0.3741  0.1270 -0.4154
11142SOL    HW137788  10.212   0.003  10.268  1.2853  0.7566 -1.0844
11142SOL    HW237789  10.188   0.017  10.417  0.8321 -1.0978 -0.9563
11143SOL     OW37790   8.820   7.455  10.160 -0.5170  0.2120 -0.0302
11143SOL    HW137791   8.788   7.537  10.197 -0.1299  0.5695 -0.4742
11143SOL    HW237792   8.750   7.427  10.101  0.4441  1.6300 -1.9465
11144SOL     OW37793   0.236   2.701   6.720  0.1630 -0.2670  0.5961
11144SOL    HW137794   0.313   2.647   6.701  1.0938  1.9530 -3.1777
11144SOL    HW237795   0.161   2.646   6.697  0.9861 -0.6849 -1.2926
11145SOL     OW37796   6.059   1.911   6.816 -0.2361 -0.0313 -0.1195
11145SOL    HW137797   5.965   1.907   6.836 -0.3768 -0.2326 -0.8094
11145SOL    HW237798   6.064   1.950   6.729  0.2940 -0.4078 -0.2634
11146SOL     OW37799   6.767   0.205   9.732 -0.2496  0.3473 -0.4820
11146SOL    HW137800   6.680   0.196   9.772 -0.3932  0.4539 -0.7693
11146SOL    HW237801   6.751   0.254   9.652  0.1169  0.6041 -0.3977
11147SOL     OW37802   4.789   6.749   5.134 -0.2535 -0.2455  0.1247
11147SOL    HW137803   4.733   6.672   5.146  3.3252 -3.6410 -2.2983
11147SOL    HW237804   4.848   6.748   5.210 -0.1924  0.1280  0.0852
11148SOL     OW37805  10.914  11.045   5.613 -0.0063 -0.3074 -0.0245
11148SOL    HW137806  10.991  11.072   5.663  0.5839 -1.2054 -0.4119
11148SOL    HW237807  10.904  10.952   5.633  1.1074 -1.0728 -2.5878
11149SOL     OW37808  10.723   4.735   9.135 -0.2058  0.0975 -0.1945
11149SOL    HW137809  10.722   4.812   9.079  1.1716  0.4942  0.2794
11149SOL    HW237810  10.774   4.671   9.086 -0.2217 -0.0529 -0.0163
11150SOL     OW37811   3.856   5.364   6.191 -0.1678  0.4338 -0.4522
11150SOL    HW137812   3.765   5.337   6.206 -0.0673 -0.4759 -1.3733
11150SOL    HW237813   3.852   5.460   6.187 -1.5247  0.3415 -2.9763
11151SOL     OW37814   6.057  10.988   3.215 -0.3727  0.7186  0.2061
11151SOL    HW137815   6.042  11.069   3.264 -0.1241  1.2942 -0.6623
11151SOL    HW237816   6.044  11.012   3.124 -0.4078 -0.2537 -0.0556
11152SOL     OW37817   4.096  10.284   5.960  0.8248 -0.8541 -0.3617
11152SOL    HW137818   4.092  10.320   5.871  2.0914 -2.1713 -0.9796
11152SOL    HW237819   4.132  10.355   6.013 -1.3726  0.4946 -0.5338
11153SOL     OW37820   1.757   8.862   6.936 -0.1034  0.2002 -0.6863
11153SOL    HW137821   1.840   8.817   6.949  0.1291  0.2811 -1.8638
11153SOL    HW237822   1.760   8.894   6.846 -1.0324  0.9875 -0.4499
11154SOL     OW37823  10.062   2.955   9.636  0.0612  0.9565  0.2605
11154SOL    HW137824  10.106   3.040   9.624 -0.2291  1.1255  0.3783
11154SOL    HW237825   9.973   2.970   9.603  0.4180  0.2853 -1.0803
11155SOL     OW37826   5.238   7.441   2.093  0.1567  0.1490  0.2520
11155SOL    HW137827   5.236   7.355   2.137  0.5312  0.9622  1.9497
11155SOL    HW237828   5.157   7.444   2.043  0.2101 -1.2547  0.0376
11156SOL     OW37829   6.031   8.225   6.800  0.8326  0.0730  0.2873
11156SOL    HW137830   6.102   8.201   6.859  1.7607  2.4620  0.2729
11156SOL    HW237831   5.963   8.260   6.858  0.8211  0.3336  0.1182
11157SOL     OW37832   0.567   3.696   3.801  0.2346 -0.2963 -0.3026
11157SOL    HW137833   0.588   3.786   3.824  0.1620  0.7166 -3.7539
11157SOL    HW237834   0.483   3.701   3.755 -1.4041 -2.6185  2.0942
11158SOL     OW37835   0.663   5.182   6.898 -0.0424 -0.0657  0.6816
11158SOL    HW137836   0.579   5.137   6.894  0.8861 -1.8226 -0.3390
11158SOL    HW237837   0.722   5.118   6.938  0.7749  1.2299  1.6099
11159SOL     OW37838  10.844   3.479   3.212 -0.1475 -0.1262  0.0609
11159SOL    HW137839  10.930   3.441   3.190 -1.1060 -1.4144 -1.7794
11159SOL    HW237840  10.858   3.524   3.295  2.0924 -1.0721  0.2736
11160SOL     OW37841   5.368   1.427   6.826 -0.6795 -0.2987 -0.1806
11160SOL    HW137842   5.302   1.360   6.841 -1.3572  0.3892 -0.0695
11160SOL    HW237843   5.443   1.399   6.878 -0.9156 -1.0322 -0.2333
11161SOL     OW37844  10.221   7.890   8.937 -0.0643  0.0033 -0.0705
11161SOL    HW137845  10.180   7.935   8.863  0.3628  1.1194  0.3533
11161SOL    HW237846  10.206   7.947   9.012  0.2113 -0.7214  0.5477
11162SOL     OW37847   8.215   9.179   5.105 -0.6712  0.0242  0.1603
11162SOL    HW137848   8.130   9.136   5.115 -0.2640 -1.0288 -0.6467
11162SOL    HW237849   8.222   9.236   5.181 -1.1023 -1.6315  1.5260
11163SOL     OW37850   1.018   7.354   0.163  0.2358 -0.3707 -0.0747
11163SOL    HW137851   0.988   7.443   0.183 -2.0546 -1.0999 -0.0438
11163SOL    HW237852   1.045   7.318   0.247  1.2385  0.2838 -0.0959
11164SOL     OW37853   6.189   8.244  10.246 -0.4188 -0.1129  0.3393
11164SOL    HW137854   6.154   8.228  10.158  0.9099  0.4342 -0.3120
11164SOL    HW237855   6.123   8.207  10.305 -0.7626 -1.6153 -0.9128
11165SOL     OW37856   1.310   2.894   7.314 -0.4455  0.2959  0.8227
11165SOL    HW137857   1.277   2.885   7.225 -0.0147 -0.7245  0.7523
11165SOL    HW237858   1.231   2.898   7.368 -0.7036  0.3127  0.4528
11166SOL     OW37859   2.519   8.294   9.596 -0.6075  0.1815  0.5923
11166SOL    HW137860   2.438   8.284   9.547 -0.2989 -2.4687  0.4977
11166SOL    HW237861   2.531   8.210   9.641  3.0511 -0.3149 -0.9360
11167SOL     OW37862   8.355   1.863   0.212 -0.1772  0.2754 -0.4146
11167SOL    HW137863   8.412   1.892   0.283 -0.7605  0.1335  0.1226
11167SOL    HW237864   8.287   1.930   0.206 -0.5400 -0.0761 -0.3421
11168SOL     OW37865   1.917   4.574   4.516  0.1535 -0.2890 -0.3256
11168SOL    HW137866   1.848   4.510   4.502 -0.6817  0.6739 -0.8029
11168SOL    HW237867   1.892   4.648   4.460  0.9799  0.5243  0.3461
11169SOL     OW37868   4.827   8.797   8.837 -0.0602  0.3894  0.2438
11169SOL    HW137869   4.871   8.722   8.878 -0.2716  0.9009  1.4227
11169SOL    HW237870   4.736   8.769   8.828  0.3279 -0.4396 -1.6506
11170SOL     OW37871   6.667   6.892   5.979 -0.8306  0.3140 -0.4798
11170SOL    HW137872   6.681   6.936   5.895 -0.5629  0.1258 -0.5330
11170SOL    HW237873   6.590   6.936   6.016 -0.2792  1.1765 -0.3116
11171SOL     OW37874   4.411   1.532   3.696  0.3146 -0.0571 -0.0912
11171SOL    HW137875   4.381   1.442   3.686 -1.7739  0.6140 -0.5310
11171SOL    HW237876   4.470   1.546   3.622  0.9880 -1.1584  0.2114
11172SOL     OW37877   2.795  10.869   8.152  0.3505 -0.4679 -0.0866
11172SOL    HW137878   2.889  10.864   8.170  0.4745  1.1358 -0.0954
11172SOL    HW237879   2.777  10.791   8.099  1.8203 -0.4501 -0.6750
11173SOL     OW37880   9.117   1.676   5.523  0.1358 -0.4871  0.5130
11173SOL    HW137881   9.031   1.693   5.563 -0.3867  0.5237 -0.9408
11173SOL    HW237882   9.174   1.655   5.596 -1.3308 -1.1252  1.5319
11174SOL     OW37883   3.493   7.912   5.064 -0.1149 -0.1106 -0.0138
11174SOL    HW137884   3.417   7.967   5.080  0.9637  1.5876 -0.4672
11174SOL    HW237885   3.458   7.835   5.018 -1.4241  1.1420 -1.1988
11175SOL     OW37886   8.368   3.507   7.976  0.7170 -0.5394  0.7953
11175SOL    HW137887   8.366   3.434   8.038  1.9476 -1.4183 -0.1727
11175SOL    HW237888   8.391   3.583   8.030  2.3038 -1.3825  1.3567
11176SOL     OW37889   8.434   1.594   4.696  0.0640  0.5541  0.8075
11176SOL    HW137890   8.347   1.613   4.661  0.2779  1.3311  0.6902
11176SOL    HW237891   8.417   1.546   4.777 -0.4844  1.0029  0.9658
11177SOL     OW37892   5.611   1.202   8.538  0.1279 -0.1184 -0.1532
11177SOL    HW137893   5.632   1.109   8.543 -0.2381 -0.2261 -0.6146
11177SOL    HW237894   5.692   1.244   8.511  0.6097 -0.1659  1.1387
11178SOL     OW37895   9.442   8.752   3.553 -0.6153 -0.3476 -0.2403
11178SOL    HW137896   9.461   8.835   3.597 -2.6592 -0.5055  1.0631
11178SOL    HW237897   9.427   8.777   3.462 -0.5146  0.6181 -0.0074
11179SOL     OW37898   4.306   6.198   7.748  0.1755 -0.3362  0.4619
11179SOL    HW137899   4.268   6.283   7.767  1.9608  0.2992  1.4710
11179SOL    HW237900   4.314   6.155   7.833  1.8210 -0.3394  0.3540
11180SOL     OW37901   3.520   9.866   1.856  0.0487 -0.3180 -0.0133
11180SOL    HW137902   3.551   9.833   1.940 -0.0448  0.9678  0.5475
11180SOL    HW237903   3.555   9.804   1.792  0.6535 -0.9606  0.9119
11181SOL     OW37904  10.838   4.510   0.766 -0.4826 -0.0937  0.0401
11181SOL    HW137905  10.835   4.601   0.738 -0.3573 -0.3446 -0.8128
11181SOL    HW237906  10.830   4.514   0.861  0.8213  0.8922  0.1361
11182SOL     OW37907   7.739   0.224   2.695 -0.0256  0.3363 -0.2310
11182SOL    HW137908   7.755   0.244   2.603 -1.2615  0.7528 -0.3672
11182SOL    HW237909   7.689   0.142   2.694  0.7744 -0.1785  0.1274
11183SOL     OW37910   3.665   4.755   6.386  0.1358 -0.3326 -0.2990
11183SOL    HW137911   3.722   4.736   6.461 -0.6364  2.3027  1.0610
11183SOL    HW237912   3.723   4.747   6.310  2.2718  1.6631  0.9695
11184SOL     OW37913   9.729   9.724   4.222  0.0740 -0.6534  0.2712
11184SOL    HW137914   9.662   9.719   4.153  0.2453  1.8074 -0.1638
11184SOL    HW237915   9.696   9.667   4.292 -1.5072 -0.9976 -0.7075
11185SOL     OW37916   4.144   7.377   0.872  0.0361 -0.4333  0.2248
11185SOL    HW137917   4.232   7.343   0.854 -0.3114 -1.4766  0.4366
11185SOL    HW237918   4.152   7.419   0.957  0.6122  0.5546 -0.2995
11186SOL     OW37919   1.731  10.584   2.930 -0.4024  0.0398 -0.8481
11186SOL    HW137920   1.790  10.542   2.992 -2.6539 -1.2390  0.5727
11186SOL    HW237921   1.784  10.651   2.888  1.2021  1.2226  2.6972
11187SOL     OW37922   8.980   6.580   0.881 -0.6208  0.2062 -0.2039
11187SOL    HW137923   9.060   6.633   0.883  0.1552 -0.8550 -1.7347
11187SOL    HW237924   8.910   6.643   0.896  0.4661  1.1681  1.1891
11188SOL     OW37925   7.870  10.216   5.747  0.2405  0.2368 -0.3434
11188SOL    HW137926   7.871  10.126   5.781 -0.6807 -0.4601 -2.0521
11188SOL    HW237927   7.784  10.226   5.707  0.8776  1.3704 -1.4945
11189SOL     OW37928   8.863   4.473   4.494  0.4372  0.4074  0.2561
11189SOL    HW137929   8.923   4.406   4.462  0.6580  0.6169  0.2346
11189SOL    HW237930   8.908   4.513   4.567  0.6082  1.0239 -0.1828
11190SOL     OW37931   7.528   7.312   2.512  1.1264  1.2230  0.2992
11190SOL    HW137932   7.602   7.310   2.451  0.7163  1.1596 -0.2063
11190SOL    HW237933   7.564   7.280   2.594  1.2360 -0.6609 -0.4173
11191SOL     OW37934   6.155   3.787   7.279 -0.1847  0.0612  0.0006
11191SOL    HW137935   6.218   3.716   7.290 -1.5242 -1.0589  0.7616
11191SOL    HW237936   6.111   3.767   7.197  2.3894  2.4990 -2.2082
11192SOL     OW37937   2.558   5.152   8.897  0.6987 -0.1720  0.6411
11192SOL    HW137938   2.477   5.198   8.918  1.5261  1.0594  1.2637
11192SOL    HW237939   2.530   5.068   8.862 -0.8765  0.7387 -0.3840
11193SOL     OW37940   3.169   3.167   8.814  0.1909  0.2745  0.8795
11193SOL    HW137941   3.119   3.087   8.794 -0.8296  1.0080  0.3695
11193SOL    HW237942   3.104   3.228   8.848  0.7180  1.2791  0.1592
11194SOL     OW37943   2.453   9.059  10.467  0.0264 -0.7489 -0.7419
11194SOL    HW137944   2.528   9.012  10.505 -0.6023 -0.8745  0.3706
11194SOL    HW237945   2.438   9.132  10.526 -0.5804 -0.5869 -1.0911
11195SOL     OW37946   2.610  10.935   2.136 -0.2156  0.1930 -0.2619
11195SOL    HW137947   2.517  10.911   2.137 -0.1091 -0.2149  0.5007
11195SOL    HW237948   2.610  11.029   2.117 -0.7138 -0.0430 -1.5812
11196SOL     OW37949   7.028   0.692   7.465 -0.4453 -0.7511 -0.0369
11196SOL    HW137950   7.113   0.660   7.434  1.7337  1.7415  2.7772
11196SOL    HW237951   7.023   0.663   7.556 -1.1021  1.6445  0.7799
11197SOL     OW37952   8.673   0.825   4.329 -0.0969  0.4429  0.2185
11197SOL    HW137953   8.723   0.878   4.391  0.1557  1.0336 -0.4841
11197SOL    HW237954   8.623   0.765   4.384 -0.5126  1.5052  1.0357
11198SOL     OW37955   5.316   5.117   9.070  0.1570 -0.5131  0.3243
11198SOL    HW137956   5.339   5.028   9.043 -0.8298 -0.1347 -2.0165
11198SOL    HW237957   5.227   5.130   9.037  0.9898  1.9741 -1.2320
11199SOL     OW37958   5.504   7.948  10.677 -0.0705 -0.5585 -0.0040
11199SOL    HW137959   5.513   7.927  10.584  0.9970 -0.1314 -0.0110
11199SOL    HW237960   5.472   7.868  10.717  1.4389 -1.4133 -0.4277
11200SOL     OW37961   3.487   2.168   4.527 -0.0230 -1.1395 -0.7584
11200SOL    HW137962   3.400   2.143   4.557  1.2186 -1.7036  2.7434
11200SOL    HW237963   3.546   2.106   4.569  2.2685  0.8118 -0.8985
11201SOL     OW37964  10.315   2.217   8.082  0.0542 -0.9459 -0.0502
11201SOL    HW137965  10.232   2.226   8.035 -0.1712  1.7202  0.7331
11201SOL    HW237966  10.290   2.207   8.173  0.5482  1.5912  0.4183
11202SOL     OW37967  10.944   1.462   9.522 -0.9063 -0.2798  0.1296
11202SOL    HW137968  10.895   1.399   9.574 -2.5637  1.9147  1.4076
11202SOL    HW237969  10.878   1.524   9.491  0.7693  1.5524  0.0446
11203SOL     OW37970   5.128   5.541   1.231  0.6217 -0.2081 -0.4533
11203SOL    HW137971   5.042   5.572   1.204  0.6864  3.2461  2.4757
11203SOL    HW237972   5.188   5.575   1.165  0.1346  1.8290  0.0935
11204SOL     OW37973   9.083   6.558   0.356  0.3429  0.4401  0.0015
11204SOL    HW137974   9.123   6.477   0.388 -0.2682 -0.7354 -2.0484
11204SOL    HW237975   9.137   6.583   0.281 -1.3010  0.1342 -1.3381
11205SOL     OW37976   2.244   9.247   5.095  0.3195 -0.1179 -0.3498
11205SOL    HW137977   2.294   9.258   5.014  0.8079 -1.3616 -0.2341
11205SOL    HW237978   2.222   9.336   5.122  0.7662  0.3460 -1.4639
11206SOL     OW37979   2.763   5.352   1.409  0.3228  0.1105  0.3205
11206SOL    HW137980   2.692   5.384   1.464  0.9532  1.8221  0.2077
11206SOL    HW237981   2.743   5.386   1.321  0.8263 -0.1063  0.1173
11207SOL     OW37982   6.401   9.463   1.156 -0.1560 -0.1413  0.4946
11207SOL    HW137983   6.350   9.455   1.237  0.6099 -2.3105  0.8140
11207SOL    HW237984   6.351   9.415   1.091 -0.4195  1.0230 -0.2000
11208SOL     OW37985   8.158   3.187   4.859 -0.9919  0.2735  0.4038
11208SOL    HW137986   8.157   3.207   4.765  0.2966  0.1222  0.3457
11208SOL    HW237987   8.107   3.107   4.867  0.5898 -0.8699 -0.4668
11209SOL     OW37988   7.118   6.989   0.816  0.1850  0.1438  0.0908
11209SOL    HW137989   7.145   6.954   0.731  0.7496 -0.2836  0.4384
11209SOL    HW237990   7.026   7.012   0.805 -0.1932 -1.4241 -0.1408
11210SOL     OW37991   8.324   0.689   5.015  0.1406  0.3011  0.3779
11210SOL    HW137992   8.239   0.656   5.045 -0.6379  1.4411 -0.4512
11210SOL    HW237993   8.360   0.618   4.963 -0.5902  0.0081  0.2518
11211SOL     OW37994   9.394   0.583   8.643 -0.6468 -0.6111 -0.2617
11211SOL    HW137995   9.385   0.496   8.604 -0.7112 -0.8918  0.3633
11211SOL    HW237996   9.396   0.567   8.737 -0.1125  0.0194 -0.1567
11212SOL     OW37997   5.434   2.030  10.679  0.3589 -0.0360  0.0757
11212SOL    HW137998   5.480   2.088  10.618  0.7027 -0.9902 -0.5909
11212SOL    HW237999   5.448   1.942  10.645  0.4453 -0.5929  1.4659
11213SOL     OW38000   3.438   7.137   8.429 -0.2503 -0.5012  0.2486
11213SOL    HW138001   3.408   7.052   8.396  1.5536 -1.2197  0.3346
11213SOL    HW238002   3.361   7.174   8.472 -1.0599 -2.1376  0.3140
11214SOL     OW38003   6.435   6.112   1.604 -0.0611  0.3556 -0.6324
11214SOL    HW138004   6.430   6.118   1.699  4.7001 -1.0902 -0.0081
11214SOL    HW238005   6.452   6.201   1.575 -0.6539  0.6652 -0.0589
11215SOL     OW38006   6.830   8.490   8.081  0.3474 -0.3251  0.0171
11215SOL    HW138007   6.891   8.563   8.068  0.6813 -0.8570 -1.7728
11215SOL    HW238008   6.882   8.412   8.060 -0.4096 -0.9525  0.4395
11216SOL     OW38009   7.405   7.163   0.262  0.1996 -0.0016 -0.0899
11216SOL    HW138010   7.333   7.187   0.204 -2.3676 -2.3232  1.8305
11216SOL    HW238011   7.483   7.162   0.206 -1.5221  1.1175 -2.6502
11217SOL     OW38012   5.078   6.644  10.783 -0.2759  0.7726 -0.2952
11217SOL    HW138013   5.021   6.715  10.755 -1.5301 -0.1585 -0.1684
11217SOL    HW238014   5.020   6.579  10.823  1.0098  0.3691  1.0659
11218SOL     OW38015   6.876  11.010   2.401 -0.0708 -0.8604 -0.2525
11218SOL    HW138016   6.855  10.968   2.484 -0.2987 -0.6920 -0.2240
11218SOL    HW238017   6.802  11.069   2.384 -1.0290 -2.3854 -1.5832
11219SOL     OW38018  10.375   7.789   5.521 -0.3122  0.1401 -0.7915
11219SOL    HW138019  10.303   7.796   5.584  1.0228  1.8234  0.6455
11219SOL    HW238020  10.358   7.859   5.458 -0.5930 -0.2963 -1.2132
11220SOL     OW38021   9.481   3.472   0.916  0.5350 -0.0762 -0.2269
11220SOL    HW138022   9.432   3.492   0.836  0.7910  0.5336 -0.2383
11220SOL    HW238023   9.572   3.487   0.892  0.5613  0.7625  0.3683
11221SOL     OW38024   2.854   2.386   6.087  0.5071 -0.1074 -0.5547
11221SOL    HW138025   2.939   2.343   6.077  0.4139 -0.2107 -0.8993
11221SOL    HW238026   2.864   2.442   6.164  0.7959 -0.3411 -0.4230
11222SOL     OW38027   1.766   9.407  10.282  0.6866 -0.3759  0.0186
11222SOL    HW138028   1.769   9.387  10.188 -1.3629  0.4076 -0.2571
11222SOL    HW238029   1.684   9.370  10.313 -0.0210  1.7463  0.8769
11223SOL     OW38030   6.764   8.659   4.105 -0.2577  0.5573 -0.2186
11223SOL    HW138031   6.767   8.684   4.013 -0.4109 -1.9730 -0.9784
11223SOL    HW238032   6.850   8.683   4.139  0.5646 -0.3156 -1.5802
11224SOL     OW38033  10.593   5.960   4.699  0.5287 -0.1864  0.5027
11224SOL    HW138034  10.573   6.042   4.743  1.1947 -0.3496  1.1153
11224SOL    HW238035  10.584   5.893   4.766 -2.9906 -1.0560 -0.6178
11225SOL     OW38036   0.201  10.204   1.505 -0.4122  1.2085 -0.0763
11225SOL    HW138037   0.118  10.164   1.532 -0.5148  1.1727 -0.4267
11225SOL    HW238038   0.260  10.130   1.491 -1.3061  0.9242 -3.1024
11226SOL     OW38039   8.404  11.016   6.625  0.0241  0.0925  0.1743
11226SOL    HW138040   8.492  10.992   6.596 -1.0396 -2.6646 -1.0939
11226SOL    HW238041   8.368  11.065   6.551 -0.0192 -0.1294  0.0464
11227SOL     OW38042   9.206   8.247   8.825  0.1155  0.5921 -0.0517
11227SOL    HW138043   9.175   8.157   8.837 -0.6517  0.9910  1.0803
11227SOL    HW238044   9.249   8.246   8.739  1.3673 -1.1896  0.5357
11228SOL     OW38045   4.954   1.985   1.816  0.4220 -0.4815 -0.6671
11228SOL    HW138046   5.005   2.063   1.794  0.6762 -0.5587 -0.3529
11228SOL    HW238047   4.999   1.914   1.771  1.4653 -0.7814  0.7750
11229SOL     OW38048   2.407   2.933   8.739  0.2292  0.1336  0.0316
11229SOL    HW138049   2.438   3.023   8.726  0.5212  0.2171  1.2106
11229SOL    HW238050   2.455   2.902   8.816 -0.4761 -0.7505  0.1323
11230SOL     OW38051   2.335   8.216   4.824  0.1501  0.2436  0.5530
11230SOL    HW138052   2.274   8.153   4.787  2.6799 -2.3209  0.3672
11230SOL    HW238053   2.368   8.265   4.748 -0.2829  0.3481  0.4300
11231SOL     OW38054   7.535   7.036  10.345 -0.3492 -0.4659  0.2005
11231SOL    HW138055   7.493   7.086  10.275  1.1003  1.6045  0.7300
11231SOL    HW238056   7.478   7.050  10.421 -0.2710 -0.1299  0.1983
11232SOL     OW38057   1.710   5.189   8.157 -0.6124 -0.0778 -0.0060
11232SOL    HW138058   1.676   5.106   8.122 -3.6765  0.6920  0.8668
11232SOL    HW238059   1.796   5.199   8.114 -0.9002 -2.8027 -1.4788
11233SOL     OW38060   3.004   4.396   3.817  0.2149  0.0736 -0.4482
11233SOL    HW138061   2.992   4.345   3.737  1.4283 -2.2993  0.7764
11233SOL    HW238062   3.098   4.395   3.833 -0.0125  0.3262  1.1021
11234SOL     OW38063   7.704   5.013   1.156  0.1337 -0.3569  0.1379
11234SOL    HW138064   7.694   5.043   1.065 -0.4520 -0.2580  0.2297
11234SOL    HW238065   7.663   4.927   1.158 -1.9324  0.5805  0.8091
11235SOL     OW38066   6.081   2.335   1.033 -0.2792  0.2805 -0.0029
11235SOL    HW138067   6.011   2.393   1.004  0.8522  2.0587  0.6284
11235SOL    HW238068   6.148   2.341   0.965 -0.9111 -1.9044 -0.9266
11236SOL     OW38069   2.162  10.362   0.083  0.2563 -0.6856 -0.4463
11236SOL    HW138070   2.209  10.445   0.096  0.0512 -0.6091 -0.1847
11236SOL    HW238071   2.070  10.385   0.093  0.2483 -1.6846  4.3913
11237SOL     OW38072   5.444   3.281   6.908  0.1967 -0.0391 -0.0514
11237SOL    HW138073   5.519   3.222   6.908  0.4804  0.3115  0.8037
11237SOL    HW238074   5.375   3.232   6.952 -0.0214 -0.2719 -0.6321
11238SOL     OW38075   1.839  10.142   0.976  0.1205  0.2039 -0.6303
11238SOL    HW138076   1.915  10.184   0.936  0.1989 -0.7435 -1.5177
11238SOL    HW238077   1.811  10.203   1.045 -0.6199  2.4556 -2.7499
11239SOL     OW38078  10.162  11.000   3.316 -0.0149  0.4939 -0.2333
11239SOL    HW138079  10.073  11.016   3.283 -0.7110 -2.5952 -0.1296
11239SOL    HW238080  10.219  11.020   3.242 -0.6662  2.9809 -0.1652
11240SOL     OW38081   9.650   5.573   5.380 -0.1905  0.6227  0.0295
11240SOL    HW138082   9.736   5.540   5.406 -0.6394 -0.4423  0.2351
11240SOL    HW238083   9.620   5.623   5.455 -0.6360 -0.7872  0.8330
11241SOL     OW38084  10.963   1.312   6.316 -0.8774 -0.2681 -0.0854
11241SOL    HW138085  10.966   1.225   6.356 -2.0961 -0.0594  0.5353
11241SOL    HW238086  10.904   1.362   6.373  1.6358  1.7191  1.0011
11242SOL     OW38087   6.012   8.371   9.559 -0.4036  0.1603  0.0088
11242SOL    HW138088   6.104   8.348   9.550 -0.1962  0.8655  0.2758
11242SOL    HW238089   5.966   8.310   9.500  0.2021 -0.3415  0.0444
11243SOL     OW38090   8.499   9.673   7.187 -0.3704 -0.1654 -0.0889
11243SOL    HW138091   8.535   9.736   7.250 -0.2487  0.8128 -1.1051
11243SOL    HW238092   8.475   9.726   7.111 -1.5962 -1.1525 -0.4355
11244SOL     OW38093   0.065   8.593   0.431  0.1885 -0.2818  0.0908
11244SOL    HW138094   0.059   8.528   0.360  1.9639  0.6106 -0.9618
11244SOL    HW238095   0.134   8.558   0.489  0.8410  0.4164 -0.2471
11245SOL     OW38096   6.136   3.221   4.340 -0.4467 -0.0683 -0.6359
11245SOL    HW138097   6.183   3.296   4.303  1.2893 -0.4046  0.7409
11245SOL    HW238098   6.165   3.147   4.287  1.5821 -0.4558  0.8783
11246SOL     OW38099   5.421   1.581   9.959  0.0930  0.2182 -0.2433
11246SOL    HW138100   5.396   1.575   9.867 -1.1018  0.2236  0.0710
11246SOL    HW238101   5.477   1.504   9.974 -0.0141  0.0140 -0.8711
11247SOL     OW38102   7.247   0.528   9.376 -0.2792  0.0344 -0.2549
11247SOL    HW138103   7.191   0.536   9.453  0.2722  0.5495  0.0944
11247SOL    HW238104   7.211   0.592   9.314 -1.5587 -1.3103 -0.9595
11248SOL     OW38105   6.467   5.296   4.211 -0.4134 -0.2157  0.5669
11248SOL    HW138106   6.407   5.370   4.211 -0.3589 -0.1379 -1.0129
11248SOL    HW238107   6.457   5.257   4.297 -1.0609  1.1279  1.1288
11249SOL     OW38108   4.898   9.427   8.757  0.1688 -0.6511 -0.2492
11249SOL    HW138109   4.883   9.520   8.743  0.6772 -0.4130  0.6969
11249SOL    HW238110   4.960   9.402   8.688 -0.1422 -0.3434 -0.6429
11250SOL     OW38111   6.047   0.246   2.472 -0.2337 -0.0071 -0.1562
11250SOL    HW138112   6.015   0.218   2.386  3.4700 -1.1984 -1.3322
11250SOL    HW238113   6.078   0.335   2.459  0.3714 -0.2031 -0.1107
11251SOL     OW38114   1.645   3.858   1.708  0.1271  0.3424 -0.0410
11251SOL    HW138115   1.661   3.882   1.799  0.8913 -0.6387  0.1060
11251SOL    HW238116   1.705   3.913   1.658  0.6649 -0.0357  0.1675
11252SOL     OW38117  10.898   4.130   2.553  0.4882 -0.4201  0.2011
11252SOL    HW138118  10.832   4.138   2.622 -0.2914  0.2513 -0.5860
11252SOL    HW238119  10.981   4.144   2.597  0.2489 -2.4916  1.4535
11253SOL     OW38120   1.170   2.341   1.888 -0.3545  0.2206  0.1572
11253SOL    HW138121   1.186   2.336   1.794 -1.5351  0.2455 -0.0610
11253SOL    HW238122   1.122   2.423   1.900 -1.4621 -0.4623  0.5734
11254SOL     OW38123   8.018   9.899   9.949 -0.5275 -0.3053 -0.6033
11254SOL    HW138124   7.998   9.809   9.924 -0.0002 -0.5186 -0.2741
11254SOL    HW238125   8.008   9.949   9.868  2.0124 -1.1109 -1.5423
11255SOL     OW38126   4.382   7.992   1.300 -0.6709 -0.1733  0.6317
11255SOL    HW138127   4.449   7.934   1.265  0.5482 -0.3114  3.0044
11255SOL    HW238128   4.427   8.075   1.316 -1.9868  0.9503 -1.1109
11256SOL     OW38129   9.111   1.671   4.385 -0.2491  0.5609  0.0731
11256SOL    HW138130   9.164   1.592   4.375 -0.6201  0.0502  1.7723
11256SOL    HW238131   9.024   1.645   4.354  0.1943  1.1225 -1.8205
11257SOL     OW38132   7.906   5.600   2.683 -0.1314  0.1069  0.3037
11257SOL    HW138133   7.941   5.523   2.637 -0.8301  0.8557 -1.6009
11257SOL    HW238134   7.910   5.670   2.618 -1.7436  1.0886  1.1904
11258SOL     OW38135   2.313   4.521   3.442 -0.3517  0.0818 -0.1503
11258SOL    HW138136   2.366   4.549   3.367 -2.3179  1.9247 -0.9677
11258SOL    HW238137   2.269   4.442   3.411  0.8725 -0.7218  0.0811
11259SOL     OW38138   6.032   4.072   7.838 -0.0386 -0.2472 -0.4098
11259SOL    HW138139   5.979   4.146   7.868 -2.4251 -0.8862 -2.7408
11259SOL    HW238140   6.112   4.112   7.803 -0.1712  0.9800  0.6260
11260SOL     OW38141   1.491   9.711   5.315 -0.3392  0.4024  0.4304
11260SOL    HW138142   1.494   9.686   5.408  1.4115  1.5472  0.7351
11260SOL    HW238143   1.569   9.671   5.277 -1.7213 -1.1444 -0.8972
11261SOL     OW38144   9.169   5.562   7.765  0.2572 -0.0657 -0.1598
11261SOL    HW138145   9.111   5.495   7.728 -0.6398  1.4101 -1.5268
11261SOL    HW238146   9.113   5.637   7.783  1.3942  0.6747  0.4378
11262SOL     OW38147   3.899  10.967   7.634 -0.0153 -0.0114  0.0849
11262SOL    HW138148   3.970  10.980   7.571  0.0758  1.3826  0.4442
11262SOL    HW238149   3.819  10.977   7.583  0.0510  0.2622  0.0379
11263SOL     OW38150   9.264   3.351   3.520  0.3841  0.3669  0.2193
11263SOL    HW138151   9.275   3.326   3.612  1.3822  1.6202  0.4580
11263SOL    HW238152   9.342   3.316   3.476 -0.8974 -1.7599 -0.5374
11264SOL     OW38153   4.260   3.258  10.157  0.0039  0.2846  0.6282
11264SOL    HW138154   4.330   3.258  10.221  0.0008 -0.4844  0.6462
11264SOL    HW238155   4.293   3.205  10.084  0.9451  3.0468 -1.0998
11265SOL     OW38156   7.838   3.210   7.762 -0.2029  0.4096 -0.2120
11265SOL    HW138157   7.918   3.261   7.757  0.9112 -1.2297  0.0872
11265SOL    HW238158   7.849   3.140   7.697 -1.0070 -0.3345  0.4175
11266SOL     OW38159   2.068   7.928  10.537  0.6679 -0.6285  0.7084
11266SOL    HW138160   2.128   7.909  10.465 -0.8236  2.8567 -1.7603
11266SOL    HW238161   1.989   7.877  10.517  0.4667 -0.1156  0.1732
11267SOL     OW38162   5.042   3.876   3.581  0.8408 -0.4414 -0.5084
11267SOL    HW138163   5.068   3.848   3.669  0.3231 -2.4056 -0.9382
11267SOL    HW238164   5.124   3.880   3.532  0.9482 -0.9955 -0.3761
11268SOL     OW38165   8.053   3.845   0.548 -0.2930 -0.3255  0.3530
11268SOL    HW138166   8.041   3.801   0.464  0.8916  0.0921 -0.0498
11268SOL    HW238167   8.060   3.774   0.612  0.4674 -0.6925 -0.1337
11269SOL     OW38168   2.932   6.360   6.097 -0.4223 -0.7120  0.0011
11269SOL    HW138169   2.911   6.267   6.089 -2.1705 -0.3877  0.3960
11269SOL    HW238170   2.920   6.379   6.190 -4.4512  0.7866 -0.6351
11270SOL     OW38171  10.314  10.809   8.746  0.7239  0.2849  0.0463
11270SOL    HW138172  10.318  10.732   8.803 -1.5924  0.9378  1.2150
11270SOL    HW238173  10.365  10.875   8.791  0.1609  0.3369  0.6222
11271SOL     OW38174   8.427   1.255   8.760 -0.0884 -0.0803 -0.7136
11271SOL    HW138175   8.414   1.349   8.766 -0.4971 -0.0625 -1.6581
11271SOL    HW238176   8.417   1.223   8.850 -0.4889  0.7033 -0.4718
11272SOL     OW38177   2.382   8.730   7.550  0.1615  0.5091 -0.3955
11272SOL    HW138178   2.341   8.653   7.511  0.4418 -0.4716  1.1730
11272SOL    HW238179   2.433   8.768   7.479 -0.8201 -0.1294 -1.4805
11273SOL     OW38180   9.811   0.743   4.592 -0.7017  0.5426 -0.0673
11273SOL    HW138181   9.801   0.732   4.686 -0.0222  0.3879 -0.0079
11273SOL    HW238182   9.906   0.738   4.577 -0.7925  0.7135 -0.7374
11274SOL     OW38183   2.419   3.646   5.686 -0.6181 -0.0508  0.1539
11274SOL    HW138184   2.393   3.664   5.776 -2.6140  1.5072 -0.6682
11274SOL    HW238185   2.485   3.713   5.666 -1.8525  1.0837 -0.2294
11275SOL     OW38186   9.804   6.209   0.893  0.2808 -0.0746  0.5159
11275SOL    HW138187   9.879   6.219   0.835 -0.1798  1.7593  0.1640
11275SOL    HW238188   9.818   6.124   0.936  0.6597 -1.4619 -2.1729
11276SOL     OW38189   4.096   8.269   8.526  0.4417 -0.9442 -0.0683
11276SOL    HW138190   4.112   8.338   8.462 -0.9546 -0.8683 -0.3694
11276SOL    HW238191   4.183   8.241   8.553  1.0411  0.9817  0.1295
11277SOL     OW38192   8.760   4.648   0.965 -0.0549  0.1359 -0.0325
11277SOL    HW138193   8.775   4.553   0.963 -1.0381 -0.0524  0.6210
11277SOL    HW238194   8.698   4.663   0.894  0.5390  0.3878 -0.5073
11278SOL     OW38195   8.873   4.174   6.324  0.0323 -0.2780 -0.4160
11278SOL    HW138196   8.955   4.212   6.355  0.1954 -1.6894  1.0565
11278SOL    HW238197   8.883   4.167   6.230  2.0548 -1.3730 -0.1691
11279SOL     OW38198   0.400   1.927   0.001 -0.2147 -0.1199 -0.2278
11279SOL    HW138199   0.380   1.845  -0.045  2.3202 -0.6777 -0.5272
11279SOL    HW238200   0.435   1.900   0.085  2.9167  0.4071 -1.2190
11280SOL     OW38201   1.221   1.399   5.680 -0.8068  0.1461 -0.0039
11280SOL    HW138202   1.266   1.425   5.760  1.7495 -0.8175 -1.0280
11280SOL    HW238203   1.248   1.309   5.665 -1.3648  0.2363 -1.8596
11281SOL     OW38204  11.032   2.969   1.972  0.2549 -0.6841 -0.3219
11281SOL    HW138205  11.108   2.968   2.030  0.2292 -0.4675 -0.2835
11281SOL    HW238206  11.049   2.900   1.908  0.2514 -0.9716 -0.0119
11282SOL     OW38207   7.710   2.072   7.091 -0.1982  0.3676  0.4748
11282SOL    HW138208   7.622   2.039   7.073 -0.1307 -0.3878  1.4440
11282SOL    HW238209   7.696   2.154   7.136 -0.4008  0.3440  0.4550
11283SOL     OW38210   8.228   5.540   5.896 -0.1206 -0.7276 -0.5214
11283SOL    HW138211   8.188   5.595   5.829  0.3598 -0.9786 -1.0266
11283SOL    HW238212   8.216   5.450   5.865 -1.3303 -0.9663  0.5335
11284SOL     OW38213   0.104  11.052  10.980 -0.1183  0.5045  0.1269
11284SOL    HW138214   0.097  10.960  10.955 -0.8340  0.4402  0.5270
11284SOL    HW238215   0.016  11.075  11.010 -0.1162  1.4946 -0.5617
11285SOL     OW38216   2.756   6.258  10.239  0.2686 -0.7713 -0.0220
11285SOL    HW138217   2.685   6.258  10.176 -0.1808 -0.3581  0.4727
11285SOL    HW238218   2.713   6.267  10.324  0.8935 -0.7516  0.3009
11286SOL     OW38219  10.127   9.216   9.394  0.5869  0.6983  0.1943
11286SOL    HW138220  10.156   9.211   9.303  1.3800 -1.4928  0.5065
11286SOL    HW238221  10.198   9.262   9.439 -0.0100  2.1853 -0.3393
11287SOL     OW38222   7.192   5.020   3.749  0.1289 -0.1088 -0.3791
11287SOL    HW138223   7.274   4.994   3.791  0.8884  2.2037 -0.3066
11287SOL    HW238224   7.131   5.033   3.822  0.9235  2.1072 -0.0211
11288SOL     OW38225  10.517   1.632   3.994 -0.6158  0.6796  0.0251
11288SOL    HW138226  10.551   1.643   3.905 -0.1634  0.7112  0.1962
11288SOL    HW238227  10.525   1.719   4.033 -0.9167  0.6910  0.0634
11289SOL     OW38228   1.005  10.949   8.711  0.1304  0.1620 -0.0924
11289SOL    HW138229   1.028  10.999   8.790  1.0298 -0.7237  0.2119
11289SOL    HW238230   0.924  10.991   8.681  1.8789  3.1914 -1.0456
11290SOL     OW38231   2.107   2.778   7.193 -0.4278  0.1008 -0.0128
11290SOL    HW138232   2.144   2.834   7.124 -0.0236 -0.2754 -0.1053
11290SOL    HW238233   2.182   2.757   7.249 -0.5098 -0.6579 -0.1885
11291SOL     OW38234   4.325   1.959   6.163  0.3865 -0.5338 -0.3046
11291SOL    HW138235   4.274   1.878   6.153 -2.5343  0.8795  1.7597
11291SOL    HW238236   4.405   1.931   6.207 -0.4424 -2.3633  0.1458
11292SOL     OW38237   7.047  11.007   6.722  0.2093  0.2004  0.6240
11292SOL    HW138238   7.079  11.056   6.646 -1.0755 -1.4343 -1.0576
11292SOL    HW238239   7.096  11.044   6.795  2.3969  1.0599 -1.1238
11293SOL     OW38240   1.192   6.791   5.149  0.1733 -0.5551 -0.1968
11293SOL    HW138241   1.219   6.799   5.057  0.3519 -2.0026 -0.2814
11293SOL    HW238242   1.197   6.881   5.182  3.2792 -0.4143 -0.7319
11294SOL     OW38243  10.531   4.807   1.328 -0.2043 -0.5368 -0.3220
11294SOL    HW138244  10.552   4.870   1.396 -0.3322  0.3778 -1.1115
11294SOL    HW238245  10.481   4.856   1.263 -0.7399 -1.5657 -0.7250
11295SOL     OW38246   8.902   4.643   9.940  0.3346 -0.9630  0.7241
11295SOL    HW138247   8.865   4.729   9.921  0.2769 -0.7442  1.7440
11295SOL    HW238248   8.827   4.583   9.937  0.3338 -0.9392  0.2505
11296SOL     OW38249   2.807   7.358   0.444 -0.2987  0.6489  0.3533
11296SOL    HW138250   2.824   7.279   0.496 -2.6522  0.7562  1.4547
11296SOL    HW238251   2.824   7.332   0.354  0.3894 -0.6596  0.8350
11297SOL     OW38252   2.745   0.833   4.190 -0.3043  0.3348  0.2701
11297SOL    HW138253   2.734   0.738   4.185 -1.2672  0.4584 -0.1381
11297SOL    HW238254   2.808   0.846   4.261  1.3050 -0.6937 -0.9008
11298SOL     OW38255   8.337   9.602   3.609 -0.4272 -0.5159  0.4228
11298SOL    HW138256   8.367   9.620   3.698 -1.9237 -0.0682  0.8742
11298SOL    HW238257   8.350   9.509   3.597  1.4108 -0.2916  0.4572
11299SOL     OW38258   3.093   5.104   6.230 -0.1170 -0.1411 -0.6687
11299SOL    HW138259   3.012   5.154   6.232 -0.4649 -0.6863  1.1991
11299SOL    HW238260   3.144   5.136   6.305  0.8120 -0.7224 -1.0222
11300SOL     OW38261   7.160  10.351  10.647 -0.3115 -0.2201  0.2771
11300SOL    HW138262   7.102  10.419  10.612 -2.4641 -0.3682  3.1277
11300SOL    HW238263   7.112  10.316  10.723  3.2498 -0.8341  2.4980
11301SOL     OW38264   2.528   7.795   6.729  0.5100  0.3090 -0.1823
11301SOL    HW138265   2.486   7.708   6.729 -0.3345  0.6990  0.1006
11301SOL    HW238266   2.483   7.842   6.799 -0.0026  1.4173 -1.2176
11302SOL     OW38267   9.907   8.184   3.891  0.5364 -0.2933 -0.1608
11302SOL    HW138268   9.912   8.258   3.952  1.9772 -0.3358 -0.1812
11302SOL    HW238269   9.909   8.224   3.804  0.6833 -0.3257 -0.1726
11303SOL     OW38270  10.455   1.401   7.978  0.1032  0.2701 -0.4388
11303SOL    HW138271  10.401   1.341   8.030 -0.6629  1.3872  0.0910
11303SOL    HW238272  10.543   1.365   7.984 -0.5023 -1.4217 -1.0450
11304SOL     OW38273  10.049   6.006   3.760 -0.2325  0.3964  0.0332
11304SOL    HW138274  10.084   5.920   3.735  0.4149  0.7085 -0.1553
11304SOL    HW238275  10.026   6.047   3.677  1.6191  1.3061 -0.0797
11305SOL     OW38276   9.668   8.477   0.241  0.2656 -0.3255  0.1615
11305SOL    HW138277   9.579   8.467   0.205  0.1324  2.5495 -0.5815
11305SOL    HW238278   9.655   8.482   0.336 -0.2451 -0.8234  0.1238
11306SOL     OW38279   2.075   3.192   7.043 -0.3610 -0.2349 -0.5809
11306SOL    HW138280   2.096   3.124   6.980  0.6845 -2.1088  1.6361
11306SOL    HW238281   1.995   3.162   7.086 -0.4407  0.4338 -0.2363
11307SOL     OW38282   7.864   5.235   0.206  0.2601  0.5119  0.1220
11307SOL    HW138283   7.795   5.295   0.177 -0.2619 -0.1452 -0.0154
11307SOL    HW238284   7.847   5.223   0.299  0.6123  0.8976  0.2372
11308SOL     OW38285   0.282  10.677   8.727 -0.5829  0.5235 -0.0102
11308SOL    HW138286   0.283  10.619   8.650  1.3377  1.0439 -0.4423
11308SOL    HW238287   0.277  10.765   8.690 -0.4719  0.7437  0.4988
11309SOL     OW38288   7.016   7.034   3.227 -0.1326 -0.1658 -0.2749
11309SOL    HW138289   7.014   6.949   3.271  0.5335  0.6561  1.4305
11309SOL    HW238290   6.938   7.035   3.173 -1.1436 -1.1588  1.0949
11310SOL     OW38291   0.051  11.062   9.299  0.2744  0.4335 -0.1297
11310SOL    HW138292   0.028  10.971   9.318 -0.3232  0.2569 -1.6474
11310SOL    HW238293   0.126  11.079   9.356  0.5204 -1.0704  0.0377
11311SOL     OW38294   4.902   1.603   8.486  0.2476  0.4412  0.3967
11311SOL    HW138295   4.843   1.608   8.562 -1.9869  2.0090 -1.3124
11311SOL    HW238296   4.946   1.687   8.484  2.2538 -0.5103  1.3139
11312SOL     OW38297   2.855  10.199   0.763  0.3439  0.3212 -0.3107
11312SOL    HW138298   2.822  10.214   0.674  0.6459  1.8455 -0.1939
11312SOL    HW238299   2.947  10.226   0.759 -0.0175  1.8054  0.8004
11313SOL     OW38300   8.411   3.713   4.908 -0.0233 -0.2463 -0.0205
11313SOL    HW138301   8.335   3.713   4.965 -0.3908 -0.0835 -0.5057
11313SOL    HW238302   8.462   3.637   4.935  0.0705  0.1222  0.8657
11314SOL     OW38303   2.501   6.241   8.937  0.1184  0.6464 -0.4447
11314SOL    HW138304   2.562   6.245   9.010  0.1186 -0.1631 -0.3929
11314SOL    HW238305   2.422   6.284   8.969 -0.3989 -0.9673  0.5572
11315SOL     OW38306   5.904   4.990   6.745 -0.3380  0.3161  0.2654
11315SOL    HW138307   5.952   5.032   6.674  0.1794  0.0133  0.4308
11315SOL    HW238308   5.968   4.981   6.816  0.1189 -2.3429 -0.3571
11316SOL     OW38309   9.472   4.774   7.103  0.4495 -0.7008  0.1227
11316SOL    HW138310   9.427   4.836   7.045 -3.0643  0.1400  3.3045
11316SOL    HW238311   9.519   4.829   7.166 -3.0692 -0.8232  3.2651
11317SOL     OW38312   3.102   1.533   6.888  0.1036  0.0186  0.0495
11317SOL    HW138313   3.131   1.442   6.882  0.4147  0.0770  0.6466
11317SOL    HW238314   3.053   1.538   6.970  0.6753  0.5462  0.3695
11318SOL     OW38315  10.712   9.089   5.275 -0.4293 -0.2471 -0.0122
11318SOL    HW138316  10.794   9.044   5.255  0.4443  0.8850  0.9508
11318SOL    HW238317  10.685   9.127   5.192  0.2451 -0.2647 -0.2451
11319SOL     OW38318   4.863   1.172   1.364  0.5017 -0.0331  0.2276
11319SOL    HW138319   4.925   1.195   1.434  2.6951 -0.3980 -1.5098
11319SOL    HW238320   4.786   1.226   1.383  1.7497  1.3144  1.8584
11320SOL     OW38321   6.757   3.905   2.522  0.1649  0.1920 -0.3526
11320SOL    HW138322   6.779   3.998   2.517  2.1852 -0.2047  0.1013
11320SOL    HW238323   6.814   3.864   2.457  1.0958 -0.9822  1.1586
11321SOL     OW38324   6.086  10.753   2.336  0.1385  0.0809  0.4249
11321SOL    HW138325   6.126  10.700   2.266 -0.0068  0.0457  0.3678
11321SOL    HW238326   6.068  10.690   2.406 -3.4305 -0.7572 -0.9973
11322SOL     OW38327   6.268   0.927   2.223 -0.0070  0.6032  0.4254
11322SOL    HW138328   6.303   0.919   2.311  0.0908  0.4096  0.3705
11322SOL    HW238329   6.229   1.014   2.220 -0.7417  0.3016  0.9207
11323SOL     OW38330   7.176   7.904   2.602 -0.0416 -0.2929 -0.2378
11323SOL    HW138331   7.203   7.960   2.529 -1.1929 -1.0259 -1.2864
11323SOL    HW238332   7.229   7.933   2.676  0.8889  0.7507 -1.2642
11324SOL     OW38333   6.733   7.252   1.081  0.1287 -0.1735  0.4006
11324SOL    HW138334   6.654   7.304   1.064  0.5139  0.8950  1.6889
11324SOL    HW238335   6.796   7.283   1.015 -0.3878 -0.7444 -0.3732
11325SOL     OW38336   2.672   7.977   8.085  0.2143 -0.2727  0.2481
11325SOL    HW138337   2.755   7.985   8.038  0.9211 -0.3464  1.4223
11325SOL    HW238338   2.647   8.067   8.105  0.9378 -0.2980  1.3902
11326SOL     OW38339   4.103   6.656   3.257 -0.1267  0.2554 -0.6490
11326SOL    HW138340   4.047   6.674   3.182  0.2877  2.2612 -0.5395
11326SOL    HW238341   4.082   6.724   3.320  1.7676  0.5385 -0.2418
11327SOL     OW38342   8.860   5.561   2.611 -0.0335 -0.4375 -0.2876
11327SOL    HW138343   8.855   5.525   2.522 -2.4070 -2.9044  0.7022
11327SOL    HW238344   8.895   5.489   2.664  2.5516  1.3927  0.6900
11328SOL     OW38345   6.289   0.055   9.062 -0.2415  0.3791 -0.3908
11328SOL    HW138346   6.317  -0.035   9.050 -1.3766 -0.6510  3.3294
11328SOL    HW238347   6.360   0.096   9.111  0.7724  1.9571 -2.9916
11329SOL     OW38348   8.575   5.139   3.355 -0.1749 -0.1773 -0.7593
11329SOL    HW138349   8.654   5.123   3.303 -0.9418 -1.7906 -1.4843
11329SOL    HW238350   8.581   5.232   3.378  2.4570 -0.4791  0.1225
11330SOL     OW38351   6.782   6.177   9.796  0.4887  0.4703  0.0752
11330SOL    HW138352   6.855   6.236   9.782  1.1640 -0.1104  1.0161
11330SOL    HW238353   6.805   6.098   9.746 -0.2787  0.8788 -0.9557
11331SOL     OW38354   1.608   2.603   2.087 -0.4583  0.0478 -0.2649
11331SOL    HW138355   1.623   2.583   1.995 -0.2318 -0.5644 -0.1003
11331SOL    HW238356   1.516   2.583   2.102 -0.6249  0.6450 -0.4816
11332SOL     OW38357   6.039   3.911   5.169 -0.1691  0.1987 -0.1441
11332SOL    HW138358   6.094   3.834   5.154  0.8074  0.9213 -0.4058
11332SOL    HW238359   6.042   3.924   5.264 -0.9928 -0.5348 -0.0015
11333SOL     OW38360   2.483   0.873   8.502  0.0197  0.1131 -0.0273
11333SOL    HW138361   2.571   0.850   8.530  0.3800  1.8807  0.3713
11333SOL    HW238362   2.474   0.966   8.523 -1.3192  0.3928 -1.6607
11334SOL     OW38363   7.866   6.652   3.788 -0.3442 -0.2706  0.0005
11334SOL    HW138364   7.893   6.692   3.705 -0.7153  0.7363  0.3566
11334SOL    HW238365   7.874   6.558   3.772  0.9079 -0.0660 -0.7283
11335SOL     OW38366   7.953   7.056   3.315  0.1085 -0.1847 -0.2381
11335SOL    HW138367   7.938   7.104   3.233 -1.8366  0.0658  0.2023
11335SOL    HW238368   7.992   7.119   3.374 -0.1068  0.1452 -0.4447
11336SOL     OW38369   9.621   5.949   5.932 -0.7743  0.2727  0.0883
11336SOL    HW138370   9.581   6.004   5.999 -0.8544 -1.2612  1.3492
11336SOL    HW238371   9.547   5.913   5.883 -0.7975  0.0642  0.2744
11337SOL     OW38372   6.690   8.989   4.154  0.0273  0.1600  0.6529
11337SOL    HW138373   6.692   8.969   4.247  1.0611 -0.0156  0.6036
11337SOL    HW238374   6.646   9.074   4.149  0.1350  0.2609  1.3147
11338SOL     OW38375   5.196   7.144  10.725  0.3063  0.4095 -1.0648
11338SOL    HW138376   5.248   7.065  10.736  0.6758  0.9004  1.3186
11338SOL    HW238377   5.105   7.116  10.739  0.6065  0.6723  2.1052
11339SOL     OW38378   7.287  10.288   8.704  0.1491 -0.2660 -0.2819
11339SOL    HW138379   7.242  10.287   8.620 -1.3938 -0.2439  0.5100
11339SOL    HW238380   7.359  10.350   8.692  0.6971 -1.1557 -1.9247
11340SOL     OW38381   2.787   1.411   5.214  0.0148 -0.0713 -0.5215
11340SOL    HW138382   2.846   1.398   5.289 -2.7768 -0.1757  1.8404
11340SOL    HW238383   2.758   1.502   5.222 -1.1534 -0.4050 -0.8206
11341SOL     OW38384   2.955   1.168  10.853  0.7935 -0.1546  0.2942
11341SOL    HW138385   2.951   1.151  10.759 -2.2699 -0.1520  0.3408
11341SOL    HW238386   2.988   1.087  10.891 -2.2956 -1.9160 -0.4796
11342SOL     OW38387   5.678   8.421   2.503  0.5119  0.4548 -0.2771
11342SOL    HW138388   5.712   8.381   2.423  1.6298 -0.2240  0.5131
11342SOL    HW238389   5.755   8.461   2.545  0.1787 -0.2137  1.0343
11343SOL     OW38390   2.236   8.933   0.639  0.1462 -0.1777 -0.4129
11343SOL    HW138391   2.146   8.908   0.662  0.2400 -0.0843  0.0624
11343SOL    HW238392   2.287   8.912   0.717  0.5592 -0.3442 -0.7261
11344SOL     OW38393  10.910   6.230  10.126 -0.4349 -0.5863 -0.5261
11344SOL    HW138394  10.994   6.261  10.090  0.2433  0.1023  1.4747
11344SOL    HW238395  10.844   6.270  10.070  0.5418  0.9248 -0.6753
11345SOL     OW38396   6.524   1.104   3.408  0.5291  0.0732 -0.1937
11345SOL    HW138397   6.492   1.025   3.450  0.5073  0.2661  0.1580
11345SOL    HW238398   6.609   1.120   3.448  0.5841  0.1637 -0.3451
11346SOL     OW38399  10.983   8.264  10.009  0.0535 -0.1268 -0.2382
11346SOL    HW138400  11.021   8.177  10.004  0.6667  0.2148 -2.7057
11346SOL    HW238401  11.048   8.316  10.056 -0.1120 -0.8443  0.8296
11347SOL     OW38402   1.524   2.633   7.994  0.1953  0.0032  0.5062
11347SOL    HW138403   1.596   2.633   7.930  1.1748 -0.8279  1.5669
11347SOL    HW238404   1.559   2.678   8.070 -0.1455 -1.0493  1.3073
11348SOL     OW38405   7.693   5.491  10.263  0.4742 -0.6193 -0.7028
11348SOL    HW138406   7.775   5.538  10.281  1.4068 -1.9711 -1.2250
11348SOL    HW238407   7.698   5.412  10.318 -0.4203 -0.7931 -0.8494
11349SOL     OW38408  10.125   3.511   3.585 -0.4842  0.1667  0.3868
11349SOL    HW138409  10.204   3.458   3.573 -0.7808 -0.5065  1.2749
11349SOL    HW238410  10.076   3.500   3.503  0.9324  1.6707 -0.7167
11350SOL     OW38411   0.201  10.104   8.772  0.3714  0.2141  0.2908
11350SOL    HW138412   0.192  10.010   8.755  1.7891  0.0559  0.2990
11350SOL    HW238413   0.227  10.141   8.687  1.9727  0.2509  0.7683
11351SOL     OW38414   0.283   0.419   2.498 -0.7641  0.1646  0.4173
11351SOL    HW138415   0.229   0.484   2.453  0.3352  0.8493  0.0468
11351SOL    HW238416   0.373   0.449   2.485 -0.3722  0.4067  3.0702
11352SOL     OW38417   6.805   4.875   2.108  0.0033 -0.3867 -0.0572
11352SOL    HW138418   6.777   4.879   2.016 -1.7238 -1.5059  0.3617
11352SOL    HW238419   6.724   4.857   2.156  0.7863  0.7829  1.7600
11353SOL     OW38420   9.346   5.564   9.696 -0.2709 -0.1600  0.3222
11353SOL    HW138421   9.323   5.651   9.730 -0.7809 -0.6453  1.2722
11353SOL    HW238422   9.433   5.547   9.733 -0.3597 -0.2334  0.5003
11354SOL     OW38423   3.772  10.607   0.658 -0.4463  0.5298  0.3088
11354SOL    HW138424   3.715  10.575   0.727  1.0637  0.4016  1.5586
11354SOL    HW238425   3.721  10.675   0.614 -1.5931  0.3352  1.2889
11355SOL     OW38426   3.203   3.631   8.347 -0.4105 -0.2912  0.0462
11355SOL    HW138427   3.148   3.558   8.320 -0.2271 -0.3463 -0.1860
11355SOL    HW238428   3.149   3.709   8.332 -0.7646 -0.4049  0.7058
11356SOL     OW38429   0.019   5.751   9.468  0.0284 -0.0079 -0.1619
11356SOL    HW138430  -0.026   5.822   9.424 -0.4549 -0.9401 -1.2047
11356SOL    HW238431  -0.013   5.755   9.558 -0.4969  0.6697 -0.3703
11357SOL     OW38432   1.702   3.458   8.647  0.1700  0.2570  1.0196
11357SOL    HW138433   1.688   3.443   8.741 -0.6712 -0.1052  0.8431
11357SOL    HW238434   1.629   3.413   8.605  0.7682  0.0759  0.1677
11358SOL     OW38435   2.954   9.995   5.473 -0.4740  0.1181 -0.1843
11358SOL    HW138436   2.903   9.921   5.441  0.1803 -0.3224 -0.2271
11358SOL    HW238437   2.910  10.072   5.438 -1.4406 -0.2239  0.2579
11359SOL     OW38438   1.886   9.533   9.484 -0.1559  0.1308  0.4170
11359SOL    HW138439   1.873   9.495   9.398  0.6765 -0.2220  0.4402
11359SOL    HW238440   1.871   9.460   9.545  1.2966 -0.1501  0.4671
11360SOL     OW38441   4.078   0.066   2.751 -0.1511  0.2371  0.8071
11360SOL    HW138442   4.096   0.014   2.829 -0.6351  0.0343  0.7840
11360SOL    HW238443   4.001   0.026   2.712 -1.4672  1.8438  1.6012
11361SOL     OW38444  10.173   1.187   6.899 -0.1677 -0.7034  0.1794
11361SOL    HW138445  10.153   1.263   6.954  1.2980 -0.5339  0.5120
11361SOL    HW238446  10.089   1.162   6.862 -0.5082  1.9744 -1.1125
11362SOL     OW38447   4.414   1.931   1.528  0.4730 -0.8663  0.8084
11362SOL    HW138448   4.430   1.872   1.602  1.9005 -1.2493  0.2372
11362SOL    HW238449   4.325   1.910   1.498  0.6533 -2.1619  1.1357
11363SOL     OW38450   5.335   9.513   1.459  0.4478 -0.0812  0.5042
11363SOL    HW138451   5.259   9.566   1.482  0.3892 -0.0040  0.1322
11363SOL    HW238452   5.340   9.517   1.364  0.2480 -1.0156  0.4469
11364SOL     OW38453   7.141   7.803  10.348  0.4002  0.0183 -0.4235
11364SOL    HW138454   7.068   7.856  10.378 -0.5504 -0.9526 -0.9470
11364SOL    HW238455   7.206   7.865  10.318 -0.7135  0.8768 -1.1059
11365SOL     OW38456   1.507   7.176   8.004  0.6037  0.0917 -0.6957
11365SOL    HW138457   1.426   7.206   7.963  1.8694  1.8311 -2.0380
11365SOL    HW238458   1.537   7.104   7.949 -0.2735 -0.9426  0.1304
11366SOL     OW38459   9.088   6.118   3.571  0.5237 -0.2083  0.5905
11366SOL    HW138460   9.136   6.101   3.652 -0.0465 -0.2099  0.9338
11366SOL    HW238461   9.058   6.031   3.542  0.9562 -0.2420  0.2260
11367SOL     OW38462   6.720   9.672   5.118 -0.0065 -0.5006 -0.5438
11367SOL    HW138463   6.696   9.590   5.074 -0.8026  0.1971 -1.4368
11367SOL    HW238464   6.652   9.734   5.092 -0.0853  0.1344  1.0850
11368SOL     OW38465   9.373   4.757   8.147  0.0240  0.4824  0.1345
11368SOL    HW138466   9.464   4.767   8.172  0.4147 -0.8112 -0.6574
11368SOL    HW238467   9.371   4.677   8.094 -1.2784  1.3540 -1.2278
11369SOL     OW38468   9.823   5.322   3.836 -0.4887  0.0470 -0.0989
11369SOL    HW138469   9.828   5.411   3.869 -0.2694  0.7256 -1.8746
11369SOL    HW238470   9.906   5.282   3.861  0.7371  1.3233 -1.8644
11370SOL     OW38471   5.736   5.496   4.883 -0.8990 -0.3184 -0.2636
11370SOL    HW138472   5.811   5.556   4.883 -2.0024  1.3016  2.7573
11370SOL    HW238473   5.660   5.553   4.898 -2.2433 -2.2831  0.8679
11371SOL     OW38474   1.263   5.234  10.541  0.1752 -0.0822  0.8703
11371SOL    HW138475   1.307   5.311  10.504  0.1557 -0.8405 -0.8182
11371SOL    HW238476   1.182   5.226  10.491  0.0755 -1.0777  1.1715
11372SOL     OW38477   6.086   9.867   9.828  0.2449  0.2969  0.1969
11372SOL    HW138478   6.175   9.890   9.801  0.4351  0.2579  0.7836
11372SOL    HW238479   6.077   9.904   9.916  0.5216 -1.7059  1.1400
11373SOL     OW38480  10.412   5.969   6.726 -0.2212 -0.1511  0.4423
11373SOL    HW138481  10.430   5.963   6.820  0.7712  0.8924  0.3429
11373SOL    HW238482  10.498   5.984   6.686 -0.4258 -1.8884 -0.7781
11374SOL     OW38483   6.103   0.201   5.104  0.0296  0.0546 -0.3479
11374SOL    HW138484   6.096   0.198   5.009 -0.5545 -0.1397 -0.3002
11374SOL    HW238485   6.158   0.278   5.121 -0.8142  0.7723 -0.7959
11375SOL     OW38486   8.783   4.288   2.973  0.0309 -0.3365  0.3250
11375SOL    HW138487   8.844   4.327   3.035  0.7381 -1.7082  0.5286
11375SOL    HW238488   8.837   4.266   2.897 -0.7713  1.0536 -0.6920
11376SOL     OW38489   3.678   0.997   9.200 -0.0914 -0.1625  0.3040
11376SOL    HW138490   3.737   0.943   9.253  0.5451 -1.5664 -1.7354
11376SOL    HW238491   3.629   0.934   9.146 -1.1115  1.1733 -0.3949
11377SOL     OW38492   5.388   7.984   4.784 -0.0499  0.4011 -0.0239
11377SOL    HW138493   5.434   7.964   4.865  0.3756 -1.9495 -0.7691
11377SOL    HW238494   5.457   8.005   4.722 -0.1827 -0.2749 -0.4064
11378SOL     OW38495   5.886   2.771  10.187 -0.4497  0.4408  0.0982
11378SOL    HW138496   5.856   2.686  10.155 -2.4297  0.1339  2.5153
11378SOL    HW238497   5.809   2.828  10.179 -0.3375  0.9289  2.0707
11379SOL     OW38498   1.196   6.305   3.388 -0.3599 -0.3793 -0.3479
11379SOL    HW138499   1.245   6.337   3.313 -1.1808 -0.8171 -1.0943
11379SOL    HW238500   1.114   6.273   3.351 -1.1385  0.1556  0.8318
11380SOL     OW38501   1.069   8.915   3.240 -0.0114 -0.2148  0.7051
11380SOL    HW138502   1.128   8.968   3.186  0.7921 -1.9504 -0.1822
11380SOL    HW238503   1.122   8.888   3.315 -0.3479  0.0201  1.0351
11381SOL     OW38504   6.845   2.605   7.289 -0.3051  0.1454  0.4525
11381SOL    HW138505   6.867   2.577   7.378  1.6610  1.4390  0.4370
11381SOL    HW238506   6.923   2.650   7.258 -1.0300 -0.0592 -1.8688
11382SOL     OW38507  10.410   1.430   6.982 -0.0957  0.1018  0.6276
11382SOL    HW138508  10.335   1.416   7.039 -0.1300 -0.0872  0.5399
11382SOL    HW238509  10.424   1.344   6.941 -1.3842  0.7163 -1.2502
11383SOL     OW38510   6.405  10.531  10.712 -0.4244  0.0541 -0.5132
11383SOL    HW138511   6.409  10.621  10.744 -0.9359  0.5282 -1.7305
11383SOL    HW238512   6.490  10.493  10.736 -0.3210  0.7553  0.2800
11384SOL     OW38513   8.627   6.628   2.494 -0.0122  0.3036 -0.2535
11384SOL    HW138514   8.588   6.715   2.488 -0.1363  0.3078  0.6052
11384SOL    HW238515   8.554   6.568   2.479  0.0493  0.3389 -0.7146
11385SOL     OW38516   7.642   1.018   6.612  0.5947  0.3108  0.2808
11385SOL    HW138517   7.721   1.053   6.652 -0.0498  0.8342  1.1497
11385SOL    HW238518   7.644   0.925   6.632  0.9212  0.3503  0.4384
11386SOL     OW38519   2.687   1.350   3.132  0.0650  0.8657  0.0892
11386SOL    HW138520   2.606   1.398   3.116 -0.2432  0.6281  0.9183
11386SOL    HW238521   2.701   1.357   3.226  0.3971 -0.0712  0.1181
11387SOL     OW38522   8.698   9.203   6.007  0.0170 -0.2181  0.2219
11387SOL    HW138523   8.643   9.269   5.966  0.8640  0.6748  0.4910
11387SOL    HW238524   8.692   9.127   5.949  0.6494  0.7885 -1.2055
11388SOL     OW38525   4.269   3.741   4.938 -0.0094  0.6264 -0.1129
11388SOL    HW138526   4.298   3.651   4.920  0.5134  0.4992  1.2682
11388SOL    HW238527   4.310   3.794   4.870  2.8287  0.3219  1.2248
11389SOL     OW38528   8.277   5.238   9.424 -0.3674  0.0787 -0.0248
11389SOL    HW138529   8.362   5.206   9.394  0.0501  1.9215 -0.9442
11389SOL    HW238530   8.215   5.171   9.395  0.5706 -0.4308 -0.9444
11390SOL     OW38531   9.263   1.826   7.938 -0.0593  0.2154 -0.0327
11390SOL    HW138532   9.196   1.758   7.937 -0.9192  1.0592 -0.8633
11390SOL    HW238533   9.290   1.835   7.847  1.1677 -0.0698  0.2784
11391SOL     OW38534   6.504   5.562   9.653 -0.2765  0.2514  0.1823
11391SOL    HW138535   6.453   5.558   9.571 -0.4729 -1.3500  0.3473
11391SOL    HW238536   6.551   5.479   9.655  1.0996  1.0273  0.8554
11392SOL     OW38537   9.289   1.473   4.339 -0.4955  0.3264 -0.2676
11392SOL    HW138538   9.304   1.391   4.387  1.7238  0.1191 -1.2196
11392SOL    HW238539   9.295   1.449   4.247 -0.6173  1.4391 -0.5839
11393SOL     OW38540   6.928   4.340   2.141 -0.2463 -0.0198  0.0274
11393SOL    HW138541   6.979   4.330   2.060 -0.4221  0.6635 -0.1720
11393SOL    HW238542   6.838   4.324   2.115 -0.1368 -1.4958  0.4338
11394SOL     OW38543   4.356   3.764   5.821  0.1572  0.0127  0.5438
11394SOL    HW138544   4.319   3.799   5.902  0.1123 -1.8798  1.3919
11394SOL    HW238545   4.438   3.723   5.848 -0.6097 -2.0370 -0.0309
11395SOL     OW38546   8.381   4.018   6.229  0.1200  0.1246  0.2146
11395SOL    HW138547   8.319   3.999   6.158  2.1900 -1.8519 -1.2158
11395SOL    HW238548   8.386   4.113   6.231 -2.2365  0.3196 -0.2096
11396SOL     OW38549   5.498   3.803   4.963 -0.1643  0.0275 -0.2304
11396SOL    HW138550   5.540   3.812   4.878 -2.0184  0.7096 -1.1228
11396SOL    HW238551   5.412   3.842   4.952 -0.6861 -0.4132  1.8033
11397SOL     OW38552   1.586   7.667   2.081  0.0900  0.4746 -0.4509
11397SOL    HW138553   1.539   7.586   2.104 -0.2464  0.3557 -1.4992
11397SOL    HW238554   1.666   7.663   2.133 -2.5252  2.4941  4.4078
11398SOL     OW38555   5.205   0.309   7.790 -0.0669 -0.4218 -0.2887
11398SOL    HW138556   5.176   0.272   7.873  0.2326 -2.0822 -0.8886
11398SOL    HW238557   5.126   0.346   7.751 -0.4597 -0.7796  0.1597
11399SOL     OW38558   7.946   4.381   2.749  0.3408 -0.6650 -0.2873
11399SOL    HW138559   7.854   4.405   2.744  0.1733 -1.0958  0.5753
11399SOL    HW238560   7.961   4.328   2.671  0.0365 -0.0390 -0.7817
11400SOL     OW38561   8.529  10.341  10.471 -0.0101 -0.2961  0.4068
11400SOL    HW138562   8.534  10.434  10.449 -2.1083 -0.0254  0.8280
11400SOL    HW238563   8.552  10.296  10.390  0.2347  0.6090 -0.0409
11401SOL     OW38564   0.033   6.579   0.785  0.3574  0.1833  0.1178
11401SOL    HW138565  -0.062   6.576   0.799  0.3769  0.9021  0.4692
11401SOL    HW238566   0.066   6.633   0.857  1.2631 -1.5903  1.0975
11402SOL     OW38567   6.993   8.758   0.183 -0.9236 -0.0473  0.1152
11402SOL    HW138568   6.943   8.708   0.248 -1.0442 -2.2044 -1.5010
11402SOL    HW238569   6.981   8.709   0.102  3.2095 -0.3254 -0.5470
11403SOL     OW38570   8.974   7.256   9.951  0.4549  0.4098  0.6126
11403SOL    HW138571   8.880   7.258   9.969  0.5009 -1.8979  1.3574
11403SOL    HW238572   8.980   7.270   9.857 -0.6171  0.7402  0.5734
11404SOL     OW38573   7.199   9.534   8.555 -0.0666  0.4049  0.5676
11404SOL    HW138574   7.134   9.483   8.604  1.2479 -0.7283  1.2090
11404SOL    HW238575   7.160   9.546   8.468 -0.8976 -0.7453  0.7597
11405SOL     OW38576  10.101   7.254   8.396  0.4670  0.2748  0.2253
11405SOL    HW138577  10.120   7.173   8.350  0.5252 -0.9962  2.3723
11405SOL    HW238578  10.139   7.243   8.483  2.0947  3.3568  0.0684
11406SOL     OW38579   6.960   0.394   8.435 -0.7966  0.0193 -0.2305
11406SOL    HW138580   6.910   0.474   8.418  0.0216  0.3926 -0.9238
11406SOL    HW238581   7.043   0.407   8.390  0.5112  0.0093  1.9917
11407SOL     OW38582   1.827   9.584   2.896  0.1530  0.4085  0.2634
11407SOL    HW138583   1.831   9.594   2.801  1.6148 -0.4817  0.2032
11407SOL    HW238584   1.848   9.492   2.912  0.6399  0.7057  1.4682
11408SOL     OW38585  10.614   1.788   6.178  0.9057 -0.3387 -0.0231
11408SOL    HW138586  10.599   1.818   6.267 -0.7358 -1.1864  0.0286
11408SOL    HW238587  10.533   1.809   6.132  1.5489 -0.3588 -1.2028
11409SOL     OW38588   9.909   2.818   6.528 -0.5707  0.0473 -0.3521
11409SOL    HW138589   9.999   2.798   6.554 -0.4012  0.5363 -0.5404
11409SOL    HW238590   9.860   2.818   6.610 -0.4002 -0.2345 -0.2504
11410SOL     OW38591   7.101   5.343   6.177 -0.6894 -0.0238 -0.1266
11410SOL    HW138592   7.170   5.400   6.145  0.0897 -1.4102 -0.9875
11410SOL    HW238593   7.055   5.396   6.242 -0.2776  1.7210 -1.1954
11411SOL     OW38594   8.609   6.616   4.678  0.0776  0.0564  0.2008
11411SOL    HW138595   8.553   6.539   4.670  0.7265 -0.3936 -0.1374
11411SOL    HW238596   8.662   6.599   4.756  0.8917 -0.2916 -0.4168
11412SOL     OW38597   2.348   7.881   3.770  0.2966 -0.3627  0.5525
11412SOL    HW138598   2.316   7.970   3.789 -0.2621 -0.1878 -1.0403
11412SOL    HW238599   2.442   7.892   3.758 -0.0034  0.4396 -1.5979
11413SOL     OW38600   5.322  10.506   3.799 -0.2254  0.6758 -1.0980
11413SOL    HW138601   5.246  10.529   3.852  1.8292  0.3470  2.2665
11413SOL    HW238602   5.306  10.416   3.772 -0.3390  0.0523  0.9553
11414SOL     OW38603   8.367   3.622  11.017  0.4167  0.3576  0.3530
11414SOL    HW138604   8.368   3.621  10.921 -1.2876 -0.5568  0.3011
11414SOL    HW238605   8.358   3.714  11.040  0.0329  0.5186 -0.4003
11415SOL     OW38606   5.320   5.036   4.973 -0.1208 -0.0661 -0.0857
11415SOL    HW138607   5.285   5.052   4.886  1.6272 -0.2245 -0.8623
11415SOL    HW238608   5.306   4.942   4.988  3.2297 -1.0636 -2.0442
11416SOL     OW38609  10.495  10.658   8.098  0.2199  0.6206 -0.4071
11416SOL    HW138610  10.560  10.605   8.146  0.0296 -0.3508 -1.1888
11416SOL    HW238611  10.482  10.735   8.154  0.8877  0.0972  0.5189
11417SOL     OW38612   0.917   7.547   0.840 -0.0490 -0.4135 -0.6626
11417SOL    HW138613   0.943   7.637   0.858 -2.6787  0.5932 -1.3482
11417SOL    HW238614   0.945   7.530   0.750  1.6989 -0.8348 -0.0685
11418SOL     OW38615   2.105   6.230   6.840  0.1269  0.0377  0.0021
11418SOL    HW138616   2.067   6.216   6.927 -0.5289  0.8378 -0.1411
11418SOL    HW238617   2.087   6.322   6.821  1.2271  0.1604 -0.5247
11419SOL     OW38618   3.282   4.462   7.458 -0.4570 -0.2633 -0.2891
11419SOL    HW138619   3.358   4.520   7.457 -0.4430 -0.2517  0.7034
11419SOL    HW238620   3.272   4.434   7.367 -0.2890  1.0515 -0.7211
11420SOL     OW38621   3.129   6.519   1.367 -0.2076  0.3541  0.2175
11420SOL    HW138622   3.074   6.558   1.435 -1.3697 -1.7040  0.5419
11420SOL    HW238623   3.176   6.448   1.411  2.3122  1.6655 -0.2127
11421SOL     OW38624   9.942   9.914   4.299 -0.2342  0.5478  0.1329
11421SOL    HW138625   9.929   9.864   4.379  0.3660 -2.4514 -1.5018
11421SOL    HW238626   9.869   9.889   4.242  0.4981  0.9482 -1.0364
11422SOL     OW38627   9.708   4.802   8.525  0.2068 -0.3601  0.0924
11422SOL    HW138628   9.765   4.838   8.457 -0.1726 -1.0426 -0.6032
11422SOL    HW238629   9.716   4.707   8.515  0.4076 -0.4742  1.2311
11423SOL     OW38630   6.343   4.147   0.269 -0.3096 -0.2392 -0.1119
11423SOL    HW138631   6.400   4.088   0.318 -0.7467 -0.4570  0.1329
11423SOL    HW238632   6.393   4.228   0.262 -0.2374 -0.2150  0.6700
11424SOL     OW38633   8.280   5.549   3.037  0.4144 -0.3703 -0.2705
11424SOL    HW138634   8.309   5.630   3.079  0.4769 -0.5132 -0.0321
11424SOL    HW238635   8.235   5.577   2.958 -1.2548  0.0257  0.7592
11425SOL     OW38636   9.961   1.763  10.534  0.0854 -0.6534  0.0516
11425SOL    HW138637   9.980   1.671  10.519 -1.0272 -1.4518  2.8077
11425SOL    HW238638   9.988   1.779  10.625  1.0181  1.9916 -0.5985
11426SOL     OW38639   5.934   2.901   2.463  0.3839 -0.1519 -0.7268
11426SOL    HW138640   5.876   2.975   2.480  0.9199  0.1595 -0.2032
11426SOL    HW238641   5.993   2.931   2.395 -0.2920 -0.5977 -1.5239
11427SOL     OW38642   7.454   3.646   6.732  0.5672  0.2362 -0.2986
11427SOL    HW138643   7.532   3.698   6.752  0.8132  0.9183 -2.7116
11427SOL    HW238644   7.484   3.577   6.673 -0.3695 -0.5485  0.1062
11428SOL     OW38645   2.511   6.620   4.394 -0.1643  0.1350 -0.1967
11428SOL    HW138646   2.576   6.589   4.332 -0.9285  0.4279 -1.1805
11428SOL    HW238647   2.487   6.542   4.444 -0.8559 -0.5563 -1.5209
11429SOL     OW38648   2.765  10.266   7.660 -0.0129 -0.1864 -0.2894
11429SOL    HW138649   2.789  10.337   7.600  0.3991  0.2401  0.3603
11429SOL    HW238650   2.844  10.213   7.669  0.0342 -0.0549  0.1244
11430SOL     OW38651   4.271  10.503   0.929  0.4307  0.5545  0.0033
11430SOL    HW138652   4.294  10.412   0.949  0.1258  0.6019  0.5763
11430SOL    HW238653   4.176  10.502   0.919  0.2666  1.0417  1.3121
11431SOL     OW38654   5.683   6.851   4.322  0.1349 -0.1451 -0.4340
11431SOL    HW138655   5.721   6.920   4.376 -0.9835 -1.6889  2.5343
11431SOL    HW238656   5.752   6.785   4.314 -0.2580 -0.7272  0.7406
11432SOL     OW38657   7.943  10.822   0.338  0.0017 -0.4125  0.0436
11432SOL    HW138658   7.937  10.768   0.259  0.2458 -1.4664  0.7330
11432SOL    HW238659   7.998  10.896   0.312 -0.3576 -0.4599 -0.9165
11433SOL     OW38660   7.238   1.817   4.910  0.2672 -0.3025 -0.6574
11433SOL    HW138661   7.308   1.832   4.847  1.3154 -1.3623  0.1972
11433SOL    HW238662   7.215   1.724   4.899 -0.6466 -0.1036 -0.5573
11434SOL     OW38663   7.437   3.950   8.868 -0.3429 -0.2781 -0.1656
11434SOL    HW138664   7.438   4.018   8.800 -1.1050 -0.5921 -0.5054
11434SOL    HW238665   7.463   3.870   8.822 -1.1051 -0.5418 -0.1518
11435SOL     OW38666   1.369   7.270   4.743  0.2418 -0.1894 -0.8365
11435SOL    HW138667   1.353   7.207   4.813  1.5017 -0.8406 -1.1040
11435SOL    HW238668   1.354   7.355   4.783 -0.5426 -0.6157 -0.2068
11436SOL     OW38669   0.677   8.913   7.960 -0.7933  0.4232  0.1132
11436SOL    HW138670   0.601   8.864   7.992 -1.1679  1.4573  0.8756
11436SOL    HW238671   0.639   8.983   7.906 -0.2061 -0.8265 -2.0384
11437SOL     OW38672   9.238   8.320   7.644  0.2114 -0.1227 -0.0238
11437SOL    HW138673   9.304   8.319   7.575  0.9268  0.1821  0.6491
11437SOL    HW238674   9.166   8.267   7.609  0.5070  0.1413 -1.0546
11438SOL     OW38675   4.078   7.536   7.068 -0.5493  0.1851 -0.1406
11438SOL    HW138676   4.025   7.561   6.993  1.2766  1.8094 -0.9855
11438SOL    HW238677   4.070   7.609   7.129 -1.5417 -0.8569  1.0158
11439SOL     OW38678   0.503   3.390   6.455 -0.4151 -0.2233  0.2016
11439SOL    HW138679   0.428   3.353   6.409  0.3885  0.9534 -2.2942
11439SOL    HW238680   0.465   3.453   6.517 -1.5346 -1.2017  0.5404
11440SOL     OW38681   2.713   8.735   7.088 -0.1405 -0.4405 -0.7070
11440SOL    HW138682   2.636   8.742   7.031 -1.5435  3.3876  1.2785
11440SOL    HW238683   2.684   8.680   7.161 -1.0425  0.8903 -0.0241
11441SOL     OW38684   1.443   0.015   3.224  0.2294  0.5600  0.2126
11441SOL    HW138685   1.444   0.065   3.142 -0.6763  1.2252  0.5865
11441SOL    HW238686   1.419  -0.074   3.198 -1.9548  1.1773 -0.0704
11442SOL     OW38687   9.928   7.808   2.094  0.4011 -0.1020  0.9662
11442SOL    HW138688   9.958   7.772   2.177 -0.4486 -1.4253  0.7290
11442SOL    HW238689   9.967   7.751   2.027  0.6655  0.6426  0.4642
11443SOL     OW38690   8.012   0.122   1.161  0.2778  0.0367  0.3972
11443SOL    HW138691   8.073   0.182   1.119  0.9872 -1.2621 -0.4864
11443SOL    HW238692   8.061   0.039   1.168 -0.3760 -0.2206  2.3462
11444SOL     OW38693   8.987   8.765   9.284  0.4851  0.1536  0.2912
11444SOL    HW138694   8.908   8.775   9.337  0.2018  2.1303 -0.4246
11444SOL    HW238695   9.045   8.710   9.337  0.0764  1.7467  2.5048
11445SOL     OW38696   7.658  11.032   1.761  0.6136  0.5672  0.1815
11445SOL    HW138697   7.575  11.052   1.803 -0.3087  0.6120 -1.5697
11445SOL    HW238698   7.686  10.950   1.801 -2.3034 -1.6453 -1.8628
11446SOL     OW38699   6.692   2.465   2.756  0.4168 -0.4311 -0.4844
11446SOL    HW138700   6.656   2.499   2.674 -0.7492  0.5242  0.3968
11446SOL    HW238701   6.615   2.444   2.809  1.1504 -0.3758  0.6353
11447SOL     OW38702   4.691   6.323   7.500  0.1301 -0.2604  0.2814
11447SOL    HW138703   4.696   6.268   7.578  1.3220 -0.3559  0.1626
11447SOL    HW238704   4.612   6.375   7.512 -0.5560 -1.3776  0.8055
11448SOL     OW38705   5.438   8.802   6.054 -0.2228 -0.5073  0.2011
11448SOL    HW138706   5.369   8.791   5.989  0.2335 -0.1511 -0.3545
11448SOL    HW238707   5.495   8.726   6.041  2.2266  1.5389 -2.7730
11449SOL     OW38708   4.228   7.557   6.011 -0.4674 -0.1576  0.1442
11449SOL    HW138709   4.300   7.511   6.054 -0.6965 -1.2253 -0.5903
11449SOL    HW238710   4.149   7.527   6.056 -0.7898 -1.9027 -1.4815
11450SOL     OW38711   6.209   5.711   9.673 -0.3879  0.0991  0.2739
11450SOL    HW138712   6.263   5.701   9.595  0.9677  0.0903  1.1752
11450SOL    HW238713   6.229   5.634   9.727 -1.4213  0.0182  0.5701
11451SOL     OW38714   0.199   9.021   0.167  0.0808  0.5038 -0.3815
11451SOL    HW138715   0.131   9.087   0.182  0.4703  0.4036  2.3273
11451SOL    HW238716   0.281   9.072   0.164  0.5064  0.2259  2.7599
11452SOL     OW38717   3.452   3.208   8.332 -1.0435  0.3354  0.6132
11452SOL    HW138718   3.507   3.170   8.264  1.8025  1.7081  1.9947
11452SOL    HW238719   3.435   3.297   8.303 -1.8154  0.1995  0.6252
11453SOL     OW38720   7.148   7.489   1.294  0.2223  0.0023  0.0859
11453SOL    HW138721   7.162   7.458   1.205  0.2009 -0.8951  0.3821
11453SOL    HW238722   7.205   7.566   1.303  1.7030 -1.0339 -0.0983
11454SOL     OW38723   1.582   0.504   3.095 -0.2378  0.2916 -0.0720
11454SOL    HW138724   1.675   0.482   3.090 -0.0175  1.2593 -0.6027
11454SOL    HW238725   1.581   0.593   3.130 -0.9894  0.1723  0.2298
11455SOL     OW38726   9.288   8.669   8.756  0.1362 -0.0438  0.1667
11455SOL    HW138727   9.324   8.645   8.671 -0.3363 -2.4302  0.5842
11455SOL    HW238728   9.290   8.765   8.756  2.7484  0.0003 -1.3785
11456SOL     OW38729   6.096  10.568   0.165  0.2423 -0.0051 -0.4154
11456SOL    HW138730   6.175  10.602   0.122  0.9819 -1.9837 -0.7271
11456SOL    HW238731   6.044  10.531   0.094 -0.2173 -0.1313 -0.0184
11457SOL     OW38732   6.913   1.618   7.898 -0.5431 -0.0485  0.2393
11457SOL    HW138733   6.926   1.667   7.979 -0.2130 -0.4898  0.4550
11457SOL    HW238734   6.869   1.537   7.925 -0.7160 -0.0581 -0.0624
11458SOL     OW38735   5.865   1.806   5.298  0.2380  0.1785  0.2246
11458SOL    HW138736   5.908   1.743   5.239 -0.0014 -1.3175  1.5728
11458SOL    HW238737   5.936   1.860   5.332  0.4903  0.4662 -0.7280
11459SOL     OW38738   5.580   1.538   3.713  0.3305 -0.7856  0.0176
11459SOL    HW138739   5.645   1.586   3.763  0.2885  0.1566 -0.8071
11459SOL    HW238740   5.511   1.518   3.776 -0.1758  1.2091  0.1559
11460SOL     OW38741  10.965   9.701   8.835 -0.0458 -0.6158 -0.3841
11460SOL    HW138742  10.933   9.742   8.755 -0.4603  0.6201  0.3915
11460SOL    HW238743  11.053   9.670   8.813 -0.2815 -0.5966 -1.4011
11461SOL     OW38744   6.431   2.935   3.168 -0.0414  0.0580 -0.1486
11461SOL    HW138745   6.519   2.956   3.135  0.7395 -1.0265  1.1716
11461SOL    HW238746   6.416   2.845   3.141  0.6381 -0.8825  2.3544
11462SOL     OW38747   5.759   5.889   5.609 -0.0979 -0.3222  0.3649
11462SOL    HW138748   5.786   5.957   5.548  2.4215 -1.0239  0.5624
11462SOL    HW238749   5.812   5.813   5.584 -1.0644 -1.4645  1.6682
11463SOL     OW38750   2.798   6.854   5.216  0.8298  0.1297  0.0212
11463SOL    HW138751   2.806   6.936   5.264 -1.0153  0.4987 -0.2488
11463SOL    HW238752   2.743   6.874   5.140 -0.5848 -1.5433  0.5187
11464SOL     OW38753   4.450   5.351   3.434  0.0894 -0.6250  0.4915
11464SOL    HW138754   4.443   5.371   3.527 -1.0748  1.8553 -0.0259
11464SOL    HW238755   4.365   5.378   3.398  1.6650  1.8978 -1.7551
11465SOL     OW38756   4.949   8.761  10.086 -0.9031  0.1736 -0.1919
11465SOL    HW138757   4.891   8.768  10.162 -0.9150 -0.3797 -0.1445
11465SOL    HW238758   4.919   8.683  10.040 -1.2585  0.8082 -1.0816
11466SOL     OW38759   3.015   6.099   1.006  0.2633  0.3878  0.0069
11466SOL    HW138760   2.995   6.156   0.932  0.4567  0.6467  0.1480
11466SOL    HW238761   2.958   6.023   0.995  0.8400  0.0637 -0.8273
11467SOL     OW38762   7.958   9.241   2.719 -0.2543  0.2490 -0.2989
11467SOL    HW138763   8.033   9.184   2.701 -0.3803 -0.1880  0.5252
11467SOL    HW238764   7.960   9.254   2.814 -0.9010  0.6887 -0.3401
11468SOL     OW38765   5.616   6.621   8.364 -0.3876  0.1865  0.0997
11468SOL    HW138766   5.570   6.683   8.421  2.8758  1.7989  1.1904
11468SOL    HW238767   5.579   6.637   8.277 -1.4251  1.8236  0.7805
11469SOL     OW38768   4.145   7.923   7.273 -0.0027  0.2667 -0.1119
11469SOL    HW138769   4.062   7.875   7.277  0.9227 -1.4634 -0.6733
11469SOL    HW238770   4.190   7.887   7.196  1.0990  1.4673 -0.0641
11470SOL     OW38771   7.750   5.982   2.653 -0.2146  0.0311  0.1294
11470SOL    HW138772   7.737   5.924   2.578 -0.2079 -0.8343  0.7749
11470SOL    HW238773   7.838   5.961   2.684 -0.7555 -0.6827  1.2475
11471SOL     OW38774   8.192   9.250   0.553 -0.2423  0.2809 -0.5354
11471SOL    HW138775   8.220   9.341   0.563 -1.8109  0.7582 -0.2559
11471SOL    HW238776   8.097   9.255   0.539 -0.7024 -1.4255  1.5163
11472SOL     OW38777   2.634   6.874   2.282  0.0872  0.4909 -0.6859
11472SOL    HW138778   2.543   6.866   2.255 -0.1483  1.4857 -0.2594
11472SOL    HW238779   2.654   6.967   2.273  1.5615  0.0777 -2.2651
11473SOL     OW38780  10.812   1.975   4.867  0.0144 -0.4262  0.2433
11473SOL    HW138781  10.730   1.978   4.818  0.5039 -1.0370 -0.6556
11473SOL    HW238782  10.853   2.060   4.849  0.2952 -0.7302 -0.6382
11474SOL     OW38783   4.307   8.934   1.603  0.1305  0.0539  0.2066
11474SOL    HW138784   4.297   8.844   1.635  0.3567 -0.5936 -1.4380
11474SOL    HW238785   4.356   8.979   1.672 -1.6142 -0.5427  1.9245
11475SOL     OW38786   7.877   8.731  10.256  0.0764  0.8309  0.2160
11475SOL    HW138787   7.806   8.791  10.235 -0.0494  0.6955  0.2513
11475SOL    HW238788   7.833   8.651  10.283  0.2212 -0.2067 -2.3437
11476SOL     OW38789   8.799   8.563   8.463 -0.1213  0.7894  0.2770
11476SOL    HW138790   8.851   8.485   8.445 -0.7040  0.4121  0.2245
11476SOL    HW238791   8.863   8.628   8.492  0.4619  0.5140 -0.3595
11477SOL     OW38792   5.918   3.718   4.793  0.0518 -0.7574  0.1435
11477SOL    HW138793   5.868   3.728   4.874  2.0531 -0.3005  1.3972
11477SOL    HW238794   5.987   3.655   4.815  2.3455  1.4249 -0.2536
11478SOL     OW38795   9.270   4.731   1.380  0.2806 -0.2823 -0.1235
11478SOL    HW138796   9.299   4.796   1.315  1.6623  0.5122  1.1974
11478SOL    HW238797   9.316   4.651   1.356  0.9682  0.0697 -0.0129
11479SOL     OW38798   2.280   7.036   7.409 -0.3414 -0.0575 -0.2107
11479SOL    HW138799   2.302   7.058   7.318 -2.9228 -0.1507 -0.9414
11479SOL    HW238800   2.255   6.944   7.406 -0.0625 -0.1701  0.7029
11480SOL     OW38801   2.833   8.227   6.553  0.1314 -0.3138 -0.3506
11480SOL    HW138802   2.887   8.307   6.548  1.0966 -1.0208 -2.3027
11480SOL    HW238803   2.856   8.188   6.637 -0.5912  1.5909  0.7882
11481SOL     OW38804   3.159   4.965   1.874 -0.0567  0.5094 -0.2399
11481SOL    HW138805   3.143   5.042   1.929 -0.0696  0.2550  0.1188
11481SOL    HW238806   3.071   4.934   1.851 -0.2329 -1.4030  2.4504
11482SOL     OW38807   7.621   0.076  10.539 -0.1665  0.0286 -0.0356
11482SOL    HW138808   7.658   0.042  10.458  3.1012  0.2096  1.2565
11482SOL    HW238809   7.549   0.132  10.511  0.4241 -0.4536 -2.7511
11483SOL     OW38810   7.656   7.112   7.233 -0.0510 -0.2005 -0.7919
11483SOL    HW138811   7.703   7.193   7.255  0.2759 -0.4759 -0.4418
11483SOL    HW238812   7.723   7.044   7.238 -0.5769 -0.6694  0.1578
11484SOL     OW38813   2.230   0.920   8.030 -0.3832  1.3247 -0.3987
11484SOL    HW138814   2.197   0.986   7.969 -1.8290  0.4077 -0.6769
11484SOL    HW238815   2.270   0.853   7.973  0.2105  1.5028 -0.1903
11485SOL     OW38816   0.015   8.564   3.866 -0.7216  0.0566 -0.1837
11485SOL    HW138817  -0.031   8.610   3.796 -1.7499 -1.9558 -0.8929
11485SOL    HW238818   0.045   8.483   3.826  0.4570 -0.2375  1.1964
11486SOL     OW38819   8.984   4.120   5.316 -0.4668  0.3594 -0.5171
11486SOL    HW138820   9.011   4.095   5.404  1.0895  1.2244 -0.7252
11486SOL    HW238821   8.982   4.037   5.267 -2.2377 -0.2699  0.4937
11487SOL     OW38822   0.517   7.335   7.487  0.1908  0.3824  0.3715
11487SOL    HW138823   0.589   7.380   7.529  1.5041 -0.7634 -0.5643
11487SOL    HW238824   0.472   7.288   7.558  1.0791  0.1777  0.8096
11488SOL     OW38825   3.829   3.643   1.226  0.8027 -0.3941 -0.0408
11488SOL    HW138826   3.879   3.703   1.282 -1.8983  1.1336  0.9548
11488SOL    HW238827   3.878   3.561   1.229  1.3699 -0.1235  3.8831
11489SOL     OW38828   9.299   9.692   6.647 -0.2327  0.2590  0.3549
11489SOL    HW138829   9.385   9.733   6.643  0.3690 -0.8921  0.9163
11489SOL    HW238830   9.240   9.756   6.607  0.8804  1.0540 -0.0747
11490SOL     OW38831   1.859   9.628   8.450  0.2978 -0.5924  0.0294
11490SOL    HW138832   1.773   9.617   8.411  0.0206  3.0602 -0.7467
11490SOL    HW238833   1.844   9.624   8.545 -0.2835 -2.1446 -0.1036
11491SOL     OW38834   1.676   5.101   1.762 -0.0391 -0.7666  0.2035
11491SOL    HW138835   1.653   5.194   1.762  0.4530 -0.6273  1.0010
11491SOL    HW238836   1.596   5.057   1.791 -0.2140 -0.5715  0.0192
11492SOL     OW38837   0.452   1.664   5.914  0.1047  0.1637 -0.7706
11492SOL    HW138838   0.458   1.602   5.986  2.3905  0.4273 -0.6727
11492SOL    HW238839   0.478   1.748   5.952 -1.6751  0.9759 -1.2082
11493SOL     OW38840  10.378   2.139   3.651  0.0679  0.2393 -0.3519
11493SOL    HW138841  10.400   2.228   3.622  0.0005  0.7052  0.9602
11493SOL    HW238842  10.323   2.104   3.581 -0.4298  1.4629 -0.6055
11494SOL     OW38843   5.661   1.322   6.718 -0.1157 -0.6315  0.2064
11494SOL    HW138844   5.617   1.256   6.664 -1.0483 -0.7736  1.1084
11494SOL    HW238845   5.734   1.275   6.757  0.5914 -0.5203 -0.9333
11495SOL     OW38846   8.221   1.501   0.793  0.2690 -0.3079  0.2631
11495SOL    HW138847   8.291   1.457   0.840  0.7700  0.9824  0.7586
11495SOL    HW238848   8.259   1.584   0.762 -0.7802  0.0345 -0.2012
11496SOL     OW38849   0.102   3.920   4.087  0.8568  0.0727  0.2050
11496SOL    HW138850   0.124   3.991   4.027  0.8866 -0.2757 -0.2021
11496SOL    HW238851   0.117   3.840   4.036  1.8121 -0.2611  0.9791
11497SOL     OW38852   1.244   9.316   7.162 -0.5570 -0.3103 -0.2868
11497SOL    HW138853   1.333   9.345   7.143 -0.7377  0.4166 -0.0498
11497SOL    HW238854   1.247   9.221   7.149  0.1047 -0.2250 -0.8347
11498SOL     OW38855   0.583   0.085   3.510 -0.5410 -0.2190  0.4573
11498SOL    HW138856   0.551   0.011   3.561  0.3883 -0.5782  0.5511
11498SOL    HW238857   0.638   0.045   3.442  2.1492  0.4551  2.0996
11499SOL     OW38858   9.842   1.387   8.586  0.2876 -0.5196  0.4182
11499SOL    HW138859   9.747   1.398   8.580  0.4195  0.7445  0.4591
11499SOL    HW238860   9.856   1.294   8.567 -0.7474 -0.2356 -2.2679
11500SOL     OW38861   0.352   7.127   7.065  0.2350  0.2426 -0.3384
11500SOL    HW138862   0.260   7.149   7.053  0.4930  0.2426 -3.0071
11500SOL    HW238863   0.367   7.055   7.003  1.9782  0.0995  0.1988
11501SOL     OW38864   9.290   7.560   9.193  0.4180  0.1376  0.1007
11501SOL    HW138865   9.284   7.587   9.285  1.1244  0.7467 -0.0208
11501SOL    HW238866   9.377   7.520   9.186 -0.3650 -1.6667  0.1304
11502SOL     OW38867   3.937   6.356   3.254 -0.5427 -0.1938  0.1635
11502SOL    HW138868   3.956   6.449   3.262 -0.3465 -0.1996 -0.2317
11502SOL    HW238869   3.929   6.341   3.160  1.7149 -1.0241  0.0392
11503SOL     OW38870   0.978   9.666  10.302 -0.1194 -0.0241 -0.0320
11503SOL    HW138871   1.012   9.582  10.331 -0.7927 -0.0260  0.7746
11503SOL    HW238872   1.033   9.731  10.346 -0.9018 -0.0312  0.9779
11504SOL     OW38873   5.894   3.244   2.808 -0.3188 -0.6747  0.3544
11504SOL    HW138874   5.911   3.309   2.739  0.3427 -1.1558  0.0506
11504SOL    HW238875   5.810   3.270   2.846 -0.5404 -0.2198 -0.4301
11505SOL     OW38876   0.100   1.986   0.579 -0.4025 -0.4991 -0.1923
11505SOL    HW138877   0.056   2.069   0.561 -0.3337 -0.4301 -0.0462
11505SOL    HW238878   0.170   2.009   0.640 -1.5771 -0.9528  1.3866
11506SOL     OW38879   4.482   2.553   9.701 -0.1435  0.4292 -0.3473
11506SOL    HW138880   4.524   2.498   9.767 -0.6698  1.4220  0.8428
11506SOL    HW238881   4.498   2.642   9.730 -0.2538  0.8995 -1.6636
11507SOL     OW38882   4.480   4.520   7.856 -0.0183 -0.4385 -0.1171
11507SOL    HW138883   4.410   4.586   7.851 -0.2180 -0.6165  0.2831
11507SOL    HW238884   4.552   4.558   7.805 -0.9522 -0.9580 -1.8929
11508SOL     OW38885   5.531   2.722   9.443 -0.3046  0.0932  0.1533
11508SOL    HW138886   5.604   2.660   9.447  0.5839  1.1021  0.4863
11508SOL    HW238887   5.542   2.775   9.523 -0.3564  1.3737 -0.6577
11509SOL     OW38888   6.392   6.714   4.740 -0.7512 -0.1277 -0.3157
11509SOL    HW138889   6.357   6.767   4.668 -2.9452 -0.6171  0.3012
11509SOL    HW238890   6.478   6.751   4.758 -1.0661  1.4110 -1.7450
11510SOL     OW38891   6.628   1.404   9.422  0.0734  0.0482 -0.0005
11510SOL    HW138892   6.562   1.338   9.397  1.3943 -1.1146 -0.5437
11510SOL    HW238893   6.706   1.353   9.442  0.6016  1.3589  1.4241
11511SOL     OW38894  10.638   1.614   7.556  0.3834  0.0449 -0.1106
11511SOL    HW138895  10.565   1.672   7.531 -0.1798 -0.9748 -0.9233
11511SOL    HW238896  10.616   1.586   7.645  0.5176  0.8491  0.1842
11512SOL     OW38897   2.948  10.444   6.634  0.4965  0.1751 -0.2971
11512SOL    HW138898   2.939  10.535   6.604  1.9566  0.3232 -0.3404
11512SOL    HW238899   2.909  10.392   6.564  1.3524  0.6732 -1.1781
11513SOL     OW38900   9.964   2.032   7.056 -0.5033  0.5366 -0.1248
11513SOL    HW138901  10.056   2.019   7.035 -1.1410 -0.6410 -2.5944
11513SOL    HW238902   9.965   2.084   7.137  2.2767 -0.4843  0.6140
11514SOL     OW38903   4.482   3.973   2.368  0.5728 -0.0913 -0.4287
11514SOL    HW138904   4.441   4.050   2.328 -1.7681 -0.5242  0.9317
11514SOL    HW238905   4.413   3.906   2.368  0.2449 -0.1330  4.1441
11515SOL     OW38906   5.847   0.121   7.566  0.2844 -0.0541 -0.6791
11515SOL    HW138907   5.856   0.044   7.510 -0.0131 -0.1611 -0.5851
11515SOL    HW238908   5.907   0.186   7.529 -0.2740  0.0535 -1.4197
11516SOL     OW38909   2.445   0.957   7.364 -0.0083 -0.5118  0.1054
11516SOL    HW138910   2.436   1.031   7.424 -0.2963 -0.7480  0.3557
11516SOL    HW238911   2.392   0.982   7.288  0.4560 -0.1594 -0.1047
11517SOL     OW38912  10.627  10.514   2.741 -0.2972 -0.1641  0.4553
11517SOL    HW138913  10.609  10.475   2.656  0.5009 -0.7378  0.5342
11517SOL    HW238914  10.656  10.604   2.721 -0.9114 -0.0259  0.1852
11518SOL     OW38915   6.051   8.995   0.436 -0.6093 -0.8214 -0.3141
11518SOL    HW138916   6.142   8.997   0.466 -0.4708  0.6012 -0.7445
11518SOL    HW238917   6.004   8.945   0.502 -0.1650  1.4071  1.8310
11519SOL     OW38918   5.164   3.228   6.742  0.0701 -0.2351  0.1626
11519SOL    HW138919   5.205   3.148   6.708 -0.9648 -0.3997 -0.7529
11519SOL    HW238920   5.190   3.296   6.680 -1.5291 -0.4648 -0.8202
11520SOL     OW38921   7.447   3.632   0.776  0.1616  0.8191  0.2364
11520SOL    HW138922   7.399   3.574   0.835  1.1805 -0.1582  0.1515
11520SOL    HW238923   7.380   3.687   0.735 -1.0269 -1.1308 -0.5915
11521SOL     OW38924   0.172   5.540   7.442 -0.2002  0.0583  0.0444
11521SOL    HW138925   0.083   5.573   7.431 -0.2225  0.5046  1.4351
11521SOL    HW238926   0.217   5.566   7.362 -0.6301  2.1705  0.4254
11522SOL     OW38927   0.923   0.135   0.199  0.0187 -0.4865  0.1309
11522SOL    HW138928   0.939   0.120   0.292 -0.1457  0.3985  0.3139
11522SOL    HW238929   0.851   0.199   0.198  1.5052  1.2554 -0.5503
11523SOL     OW38930   7.617   7.069   4.853 -0.3802  0.0863 -0.1262
11523SOL    HW138931   7.632   7.053   4.760 -0.5535 -0.7958 -0.0110
11523SOL    HW238932   7.526   7.044   4.867  0.0220 -1.0933  0.5388
11524SOL     OW38933   8.201   0.096   8.716 -0.0563  0.1042 -0.1290
11524SOL    HW138934   8.223   0.189   8.706  0.7027 -0.0149  0.3477
11524SOL    HW238935   8.119   0.086   8.668 -0.8724  1.3113  0.9526
11525SOL     OW38936   4.439   5.402  10.250  0.2444  0.1843  0.0680
11525SOL    HW138937   4.486   5.329  10.212  0.9724  0.2156  0.8622
11525SOL    HW238938   4.348   5.373  10.255  0.3050 -0.1726 -0.7800
11526SOL     OW38939   7.115   8.076   1.775 -0.1442  0.6046  0.1855
11526SOL    HW138940   7.110   8.019   1.699  1.6193  0.7246 -0.0602
11526SOL    HW238941   7.024   8.091   1.800 -0.6788 -1.2587 -0.5119
11527SOL     OW38942   5.790   2.796   0.623  0.0070 -0.4706 -0.2112
11527SOL    HW138943   5.804   2.702   0.609 -0.2055 -0.3203 -1.6004
11527SOL    HW238944   5.864   2.838   0.579  0.1923  0.0152  0.5531
11528SOL     OW38945   5.056   8.093   1.452 -0.4833  0.3938  0.4565
11528SOL    HW138946   5.102   8.147   1.516 -0.6873  1.3772 -0.1987
11528SOL    HW238947   4.994   8.041   1.503  0.6141 -0.1779  1.2341
11529SOL     OW38948   2.117   6.855   5.578  0.1922 -0.2668 -1.2148
11529SOL    HW138949   2.130   6.761   5.591  0.2850  0.0142  1.0356
11529SOL    HW238950   2.195   6.895   5.615  0.7610  0.7073 -3.2878
11530SOL     OW38951   4.006   0.038   8.311  0.2095  0.2372  0.1432
11530SOL    HW138952   3.917   0.028   8.346  0.5256 -1.6437  0.4627
11530SOL    HW238953   4.053  -0.040   8.339  1.3395  0.0807 -1.9544
11531SOL     OW38954   0.520   0.636   2.035  0.2589  0.1682  1.1527
11531SOL    HW138955   0.580   0.665   2.104  0.6635  1.5304  0.2773
11531SOL    HW238956   0.547   0.687   1.958 -0.5861 -0.8565  0.1573
11532SOL     OW38957   9.134   6.746   6.550 -0.8597  0.4487  0.8018
11532SOL    HW138958   9.221   6.745   6.589 -0.7988  0.5399  0.6682
11532SOL    HW238959   9.147   6.785   6.464 -0.4616 -2.3926 -0.5661
11533SOL     OW38960   3.299   0.560   9.699  0.0746 -0.3769 -0.1326
11533SOL    HW138961   3.234   0.630   9.696  0.6129  0.1292 -0.1212
11533SOL    HW238962   3.258   0.486   9.654 -1.2486 -0.6945  1.4857
11534SOL     OW38963   5.539   0.823   7.938  0.1136 -0.3333 -0.6495
11534SOL    HW138964   5.620   0.826   7.887  1.3725  1.3267  1.2979
11534SOL    HW238965   5.471   0.852   7.877  1.5329  1.4759 -1.4685
11535SOL     OW38966   7.374   2.547   9.039  0.2302  0.1223  0.5032
11535SOL    HW138967   7.411   2.484   9.100  1.2284  0.1018 -0.1138
11535SOL    HW238968   7.448   2.601   9.011 -0.7657  2.4118  1.9504
11536SOL     OW38969   1.245   4.181   9.961 -0.2532 -0.4511  0.6032
11536SOL    HW138970   1.198   4.197   9.880 -0.3834  1.6420  1.0355
11536SOL    HW238971   1.319   4.242   9.958  0.7826 -1.6358  1.2455
11537SOL     OW38972   2.410   5.943   7.337  0.3816 -0.4210  0.2108
11537SOL    HW138973   2.388   5.890   7.413  0.2195  1.9187  1.8798
11537SOL    HW238974   2.339   5.926   7.275 -1.4213  0.2522  1.9923
11538SOL     OW38975   4.915   0.643   3.661  0.0462  0.1822  0.3121
11538SOL    HW138976   4.885   0.686   3.581 -0.9028  2.5454  1.8050
11538SOL    HW238977   4.849   0.666   3.727  0.8150 -1.6147  1.8136
11539SOL     OW38978   1.262   7.434   5.664 -0.3966  0.2025 -0.0611
11539SOL    HW138979   1.294   7.470   5.582 -0.4675  0.1810 -0.0974
11539SOL    HW238980   1.222   7.508   5.709 -0.0173  0.3005  0.1232
11540SOL     OW38981   8.780   8.322   6.240  0.3850  0.0783 -0.4066
11540SOL    HW138982   8.733   8.308   6.322 -1.8055  1.3926 -1.3373
11540SOL    HW238983   8.871   8.338   6.267 -0.3323  0.8605  1.8044
11541SOL     OW38984   2.117   0.417   2.940  0.6270 -0.3214 -0.3819
11541SOL    HW138985   2.053   0.414   2.868  1.3129  3.7748 -1.4226
11541SOL    HW238986   2.202   0.420   2.895  1.2571 -0.6317  0.7649
11542SOL     OW38987  11.118   5.917   6.204 -0.1229 -0.7145  0.0194
11542SOL    HW138988  11.026   5.919   6.231 -0.0581 -1.6489  0.3650
11542SOL    HW238989  11.143   6.009   6.197 -0.8447 -0.4454  0.7491
11543SOL     OW38990   8.893   9.744  11.033 -0.0235 -0.4275 -0.5808
11543SOL    HW138991   8.935   9.824  11.065 -0.8842 -0.0051 -0.4566
11543SOL    HW238992   8.799   9.759  11.049 -0.1747 -1.5587 -0.3547
11544SOL     OW38993   4.133   2.922   1.225 -0.0787 -0.2618 -0.2937
11544SOL    HW138994   4.204   2.934   1.287 -0.2700  0.9101 -0.2810
11544SOL    HW238995   4.056   2.905   1.279  0.0536 -0.8644 -0.2842
11545SOL     OW38996   4.595   5.975   2.991  0.6630  0.3820  0.3120
11545SOL    HW138997   4.658   5.935   3.051  1.2105 -1.2155 -1.2316
11545SOL    HW238998   4.558   6.049   3.040  0.7357 -1.0972  2.7363
11546SOL     OW38999   4.967   7.087   1.355 -0.1880 -0.2129 -0.7372
11546SOL    HW139000   4.930   7.173   1.333 -1.2074 -0.2434  0.7214
11546SOL    HW239001   4.893   7.039   1.394  0.8004 -1.1188  0.0658
11547SOL     OW39002   4.512   9.559   5.889 -0.2079 -0.1355 -0.0887
11547SOL    HW139003   4.530   9.469   5.861 -1.9616 -0.4070 -0.4492
11547SOL    HW239004   4.521   9.557   5.984 -0.5538 -0.7657 -0.0683
11548SOL     OW39005   4.704   5.792   6.740  0.5142  0.3467  0.1952
11548SOL    HW139006   4.746   5.831   6.817 -3.2708  0.2860  2.5405
11548SOL    HW239007   4.703   5.698   6.758 -0.0702  0.2948 -0.0888
11549SOL     OW39008  10.113   5.876   9.915  0.4733 -0.2126 -0.0269
11549SOL    HW139009  10.098   5.823   9.994 -1.2934  1.3226  0.7646
11549SOL    HW239010  10.071   5.827   9.845 -0.8510 -0.0855  0.6314
11550SOL     OW39011  10.314   5.910   5.906 -0.4236  0.4145  0.5686
11550SOL    HW139012  10.388   5.869   5.861 -1.1086  0.0787 -0.2790
11550SOL    HW239013  10.335   6.003   5.905 -0.9250  0.5440 -1.4437
11551SOL     OW39014   0.093   6.449   6.803  0.4821  0.2476 -0.5208
11551SOL    HW139015   0.093   6.455   6.898 -0.1069 -3.4026 -0.1358
11551SOL    HW239016   0.183   6.473   6.777  1.1971 -0.4477  1.1677
11552SOL     OW39017   8.770   8.729   8.793 -0.0260  0.4723 -0.0901
11552SOL    HW139018   8.839   8.721   8.727  0.4782  1.5082  0.3001
11552SOL    HW239019   8.817   8.748   8.874 -0.7119  0.2124  0.3749
11553SOL     OW39020   1.498   1.172  10.960 -0.2806 -0.2493 -0.0322
11553SOL    HW139021   1.556   1.178  11.036 -0.2258 -3.3094  0.2872
11553SOL    HW239022   1.415   1.141  10.995 -1.1331  0.8949 -0.9336
11554SOL     OW39023   0.234   6.610   9.156 -0.5467 -0.5338  0.3237
11554SOL    HW139024   0.218   6.554   9.079 -1.5238  0.1482  0.0011
11554SOL    HW239025   0.323   6.641   9.145 -0.0660 -1.8299  0.3859
11555SOL     OW39026   6.290   1.562   8.986 -0.0745 -0.3578 -0.4718
11555SOL    HW139027   6.216   1.502   8.990  0.7846 -1.4547 -0.7291
11555SOL    HW239028   6.365   1.507   8.964  1.3700  0.2398  2.4356
11556SOL     OW39029   5.054   3.111   9.131 -0.1696 -0.0149 -0.4578
11556SOL    HW139030   5.111   3.173   9.085  0.0271 -0.3370 -0.6522
11556SOL    HW239031   5.056   3.032   9.077 -1.8097  0.3818 -1.1622
11557SOL     OW39032   5.896   9.381   7.602 -0.0908  0.3427 -0.7346
11557SOL    HW139033   5.910   9.442   7.530 -1.7680  1.0174 -0.5286
11557SOL    HW239034   5.807   9.400   7.633  0.6867  0.2788  1.7174
11558SOL     OW39035   0.574   2.189   3.796 -0.1629 -0.2857 -0.4103
11558SOL    HW139036   0.517   2.265   3.786 -0.3213 -0.3156  0.2016
11558SOL    HW239037   0.539   2.142   3.872  0.1789 -0.7501 -0.5307
11559SOL     OW39038   8.863   4.751   8.299  0.4500  0.5165  0.0392
11559SOL    HW139039   8.957   4.734   8.299  0.3374 -0.1605 -0.6019
11559SOL    HW239040   8.847   4.801   8.379  1.4954  1.4498 -0.3215
11560SOL     OW39041   3.052   5.109   9.460 -0.3935 -0.7487 -0.1246
11560SOL    HW139042   3.057   5.044   9.389  1.5073  0.6773 -1.3765
11560SOL    HW239043   3.064   5.193   9.416 -2.4752  0.5063  1.5055
11561SOL     OW39044  10.339   9.027   2.265  0.2973 -0.3501 -0.3504
11561SOL    HW139045  10.357   9.121   2.265  0.6511 -0.4067 -1.5831
11561SOL    HW239046  10.392   8.993   2.338 -1.1739  0.6160  1.2489
11562SOL     OW39047   3.718   1.369   0.990  0.0849  0.4194 -0.4834
11562SOL    HW139048   3.717   1.456   0.949 -1.1178  0.0024 -1.3803
11562SOL    HW239049   3.690   1.309   0.921  0.4856 -0.6408  0.2417
11563SOL     OW39050   7.547   5.018   8.887  0.3011  0.1898  0.2469
11563SOL    HW139051   7.541   4.989   8.978 -2.0274  1.7160  0.6662
11563SOL    HW239052   7.568   4.939   8.838 -0.6283 -1.1257  1.8744
11564SOL     OW39053  10.321   8.965   6.288 -0.2644 -0.0838 -0.4181
11564SOL    HW139054  10.382   9.038   6.286 -0.0765 -0.1449  1.3449
11564SOL    HW239055  10.265   8.978   6.212  0.1530  1.5530 -0.4741
11565SOL     OW39056   6.544   4.344   8.125  0.6262  0.0863  0.2257
11565SOL    HW139057   6.636   4.319   8.137  0.8271  0.2998 -0.7846
11565SOL    HW239058   6.534   4.354   8.030 -0.7217 -0.9418  0.2315
11566SOL     OW39059   8.323   6.794   2.777 -0.2880  0.2484  0.7238
11566SOL    HW139060   8.369   6.712   2.796  0.3552  0.4840  0.1995
11566SOL    HW239061   8.324   6.801   2.682 -0.7765  0.6237  0.7422
11567SOL     OW39062   2.849   5.063   9.693  0.2583  0.0820  0.0474
11567SOL    HW139063   2.789   5.137   9.682 -0.0698 -0.2063 -0.1764
11567SOL    HW239064   2.918   5.078   9.628  0.9410  0.8989  0.9398
11568SOL     OW39065   2.857   5.349   2.538  0.0961 -0.4665  0.0515
11568SOL    HW139066   2.910   5.408   2.484 -1.9158  1.6240  0.1578
11568SOL    HW239067   2.827   5.404   2.611 -0.4249 -2.1461  1.1750
11569SOL     OW39068   9.763   8.895   9.513  0.1551  0.0247 -0.0768
11569SOL    HW139069   9.744   8.968   9.572 -2.5045  1.3929 -2.3495
11569SOL    HW239070   9.693   8.831   9.530  0.1767 -0.1912 -0.7496
11570SOL     OW39071   9.375   9.994   7.611  0.7957 -0.4613 -0.2571
11570SOL    HW139072   9.371   9.909   7.654 -0.3247  0.4357  1.5865
11570SOL    HW239073   9.305   9.992   7.546 -0.0592 -0.5629  0.6336
11571SOL     OW39074   1.965   5.333   5.513  0.3806 -0.3879  0.9356
11571SOL    HW139075   2.042   5.276   5.516  0.6298 -0.2373 -1.3054
11571SOL    HW239076   1.891   5.273   5.526  0.5690 -1.5283 -2.3344
11572SOL     OW39077   8.121   9.341   9.997  0.4199  0.1219  0.0674
11572SOL    HW139078   8.212   9.342  10.026  0.4529 -0.2231 -0.0284
11572SOL    HW239079   8.072   9.305  10.071  0.5980 -1.4740 -0.5573
11573SOL     OW39080   1.534  10.243   2.735  0.4846 -0.5136 -0.3681
11573SOL    HW139081   1.579  10.192   2.668 -0.8804 -0.0200 -1.7050
11573SOL    HW239082   1.565  10.206   2.818  0.4843 -2.6651 -1.2730
11574SOL     OW39083   3.386   6.244   6.750 -0.1900  0.6299  0.1843
11574SOL    HW139084   3.430   6.317   6.706 -1.8194  0.9370 -1.0606
11574SOL    HW239085   3.332   6.285   6.817  1.4047  0.2502  1.7675
11575SOL     OW39086   9.360   0.286  10.879 -0.8885 -0.2465  0.1338
11575SOL    HW139087   9.282   0.256  10.925 -3.1276 -0.4649 -3.4203
11575SOL    HW239088   9.341   0.270  10.786  2.0844  2.5688 -1.1708
11576SOL     OW39089   7.766   2.111   0.330 -0.0321 -0.0073 -0.0369
11576SOL    HW139090   7.840   2.050   0.329  2.0143  2.2930 -2.1068
11576SOL    HW239091   7.694   2.061   0.290  1.2884 -1.3593 -0.8547
11577SOL     OW39092   9.102   0.748   5.815 -0.4028 -0.2918  0.4563
11577SOL    HW139093   9.119   0.826   5.762 -0.2288 -0.1997  0.6417
11577SOL    HW239094   9.007   0.739   5.815 -0.3481 -1.0309 -0.9055
11578SOL     OW39095   5.133   0.291   0.108 -0.3340 -0.1088  0.1075
11578SOL    HW139096   5.039   0.272   0.117 -0.5342  0.7550 -0.1045
11578SOL    HW239097   5.175   0.236   0.174 -0.9963 -0.4235  0.2768
11579SOL     OW39098   5.220  10.419   7.179 -0.3091  0.2915 -0.7450
11579SOL    HW139099   5.207  10.365   7.102  0.6998 -0.6696 -0.2633
11579SOL    HW239100   5.185  10.367   7.251  1.1411  0.0194 -0.2059
11580SOL     OW39101   1.216   6.593   7.672  0.0134  0.2603 -0.1258
11580SOL    HW139102   1.290   6.606   7.614  2.1659 -4.0028  1.2376
11580SOL    HW239103   1.148   6.554   7.617 -0.0417  1.2133 -0.7529
11581SOL     OW39104   4.604   7.238   8.775  0.5311  0.5459 -0.3841
11581SOL    HW139105   4.619   7.193   8.692  0.3224  0.5566 -0.4293
11581SOL    HW239106   4.540   7.306   8.754  0.6848  0.7284 -0.2709
11582SOL     OW39107   1.521   3.741   9.703  0.0904 -0.1518 -0.2847
11582SOL    HW139108   1.480   3.665   9.663  0.0015 -0.0561 -0.3748
11582SOL    HW239109   1.533   3.803   9.631  1.0525 -0.4575 -0.4043
11583SOL     OW39110   1.402   4.656   4.740  0.5213  0.0843 -0.1566
11583SOL    HW139111   1.449   4.587   4.787  0.0483  1.4542  2.5635
11583SOL    HW239112   1.317   4.617   4.718  1.3882 -1.1247 -1.4610
11584SOL     OW39113  10.897   4.136   3.398  0.3925  0.0684  0.4126
11584SOL    HW139114  10.815   4.184   3.408  0.7231  0.5689  0.7738
11584SOL    HW239115  10.945   4.153   3.479  0.0531 -1.7994  1.0528
11585SOL     OW39116  11.042   6.510   4.258 -0.4801 -0.2950  0.3332
11585SOL    HW139117  11.008   6.426   4.289  2.3831 -2.0842 -0.9779
11585SOL    HW239118  11.043   6.502   4.163  0.4184  0.9993  0.2093
11586SOL     OW39119   8.716   4.372   9.986 -0.3701 -0.3674 -0.3571
11586SOL    HW139120   8.712   4.392  10.080 -1.9562 -0.5525 -0.3628
11586SOL    HW239121   8.799   4.327   9.975  0.2110  0.3569  0.8164
11587SOL     OW39122   4.187   4.080   1.284  0.3836  0.2031 -0.5844
11587SOL    HW139123   4.279   4.091   1.259 -0.1428  1.3344 -2.1800
11587SOL    HW239124   4.173   4.143   1.354  1.1909 -1.0905  0.8026
11588SOL     OW39125   9.698   2.729   1.988 -0.0291  0.0924  0.5896
11588SOL    HW139126   9.727   2.732   2.080 -1.1855 -0.7848  1.0058
11588SOL    HW239127   9.608   2.759   1.991  0.4514  1.7819 -0.5446
11589SOL     OW39128   7.944   6.387   6.652 -0.2422  0.1849  0.1985
11589SOL    HW139129   7.932   6.443   6.575  0.3196  0.8551  0.5897
11589SOL    HW239130   7.875   6.321   6.644 -0.4111  0.4471 -0.6975
11590SOL     OW39131   5.358   2.429   4.990  0.2871  0.5298  0.0848
11590SOL    HW139132   5.400   2.360   4.939  1.3375  0.3959  1.0959
11590SOL    HW239133   5.316   2.383   5.063 -1.3194  0.7021 -0.6929
11591SOL     OW39134   6.817   6.117   6.009  0.1901  0.0595  0.4659
11591SOL    HW139135   6.868   6.039   5.990  0.0256 -0.1519  0.8775
11591SOL    HW239136   6.864   6.188   5.965 -0.5641 -0.5001 -1.3200
11592SOL     OW39137   9.176  10.564   5.512  0.3625 -0.4473  0.0776
11592SOL    HW139138   9.138  10.635   5.565 -2.9822 -1.7121 -0.3550
11592SOL    HW239139   9.158  10.591   5.421  0.2226 -1.2334 -0.1311
11593SOL     OW39140   3.394   8.656   9.938  0.2203 -0.2745 -0.4110
11593SOL    HW139141   3.357   8.575   9.972  1.0262  0.8763  3.8007
11593SOL    HW239142   3.318   8.711   9.919 -0.2810 -1.1732 -1.0935
11594SOL     OW39143   6.890   0.885   4.630 -0.4546  0.4994 -0.2501
11594SOL    HW139144   6.896   0.898   4.725  0.5597  0.0774 -0.2410
11594SOL    HW239145   6.841   0.961   4.598 -0.2452  0.9737  0.5315
11595SOL     OW39146   4.074   7.110  10.486  0.0961 -0.0502 -0.1507
11595SOL    HW139147   4.063   7.152  10.572 -0.3968  0.6977 -0.5720
11595SOL    HW239148   3.996   7.134  10.437  0.7113  0.1367 -1.0654
11596SOL     OW39149   7.413   8.132   3.633 -0.9109 -0.1010 -0.0162
11596SOL    HW139150   7.327   8.111   3.598 -0.7821 -0.1747 -0.2945
11596SOL    HW239151   7.467   8.056   3.610 -0.6942  0.0875 -0.1279
11597SOL     OW39152  10.364   1.540   4.206  0.2761  0.1995 -0.3033
11597SOL    HW139153  10.332   1.616   4.255 -0.9128 -0.6337  0.2650
11597SOL    HW239154  10.423   1.577   4.140 -0.6430  1.6727 -0.3536
11598SOL     OW39155   1.648   8.097   0.395 -0.0117 -0.5656  0.1771
11598SOL    HW139156   1.688   8.183   0.405 -0.8159 -0.3705  2.0742
11598SOL    HW239157   1.555   8.115   0.378 -0.6328 -0.9958  2.7095
11599SOL     OW39158   8.414   1.702   0.648 -0.2724  0.2165  0.2945
11599SOL    HW139159   8.503   1.680   0.673 -0.0617  0.1790 -0.4717
11599SOL    HW239160   8.423   1.766   0.577 -0.8504  0.2707  0.2601
11600SOL     OW39161   5.083   7.009   7.100  0.3523  0.4038 -0.3384
11600SOL    HW139162   5.007   6.961   7.131  0.3536  1.0949  0.7954
11600SOL    HW239163   5.061   7.033   7.010  0.2381 -1.4139 -0.8236
11601SOL     OW39164   7.945   5.180   1.231  0.1251  0.0538  0.0214
11601SOL    HW139165   7.871   5.129   1.200  0.8348 -0.1273 -1.4811
11601SOL    HW239166   7.974   5.229   1.154  1.1931  0.5699  0.7255
11602SOL     OW39167   6.786   6.706   1.880 -0.0865 -0.2238  0.1256
11602SOL    HW139168   6.714   6.648   1.856  0.8570 -1.0153 -0.8421
11602SOL    HW239169   6.828   6.728   1.798  1.5642 -0.8150  0.7739
11603SOL     OW39170   0.368   6.994   2.609 -0.4216  0.2306  0.3530
11603SOL    HW139171   0.409   6.983   2.523 -0.8968 -3.0719  0.4046
11603SOL    HW239172   0.294   7.053   2.593  0.8208  1.4959 -0.9756
11604SOL     OW39173   8.390  10.063   0.037  0.2552  0.4069 -0.2720
11604SOL    HW139174   8.303  10.099   0.049  0.7824  2.2008 -1.4994
11604SOL    HW239175   8.449  10.138   0.049  1.6153 -0.6684  0.0737
11605SOL     OW39176   3.463   3.394   4.478 -0.5747  0.5586  0.3179
11605SOL    HW139177   3.390   3.409   4.419  0.9281 -1.5934 -2.3573
11605SOL    HW239178   3.541   3.400   4.423  1.1976  1.0088  2.6645
11606SOL     OW39179   1.909   9.378   7.136  0.1479 -1.0288  0.1293
11606SOL    HW139180   1.988   9.325   7.122  0.5037 -0.1865 -1.2116
11606SOL    HW239181   1.839   9.314   7.147  0.8340 -1.7840  0.2531
11607SOL     OW39182   4.949   3.693  10.987 -0.1137 -0.0833  0.0678
11607SOL    HW139183   4.988   3.714  10.902  1.2552 -1.1569  0.3897
11607SOL    HW239184   5.006   3.736  11.051  0.1165 -1.0385  0.5216
11608SOL     OW39185   7.536   5.896   5.666  0.4302  0.8827  0.0241
11608SOL    HW139186   7.490   5.912   5.748  1.1959  1.2474  0.3965
11608SOL    HW239187   7.525   5.802   5.650 -0.9350  1.0627 -0.2189
11609SOL     OW39188   5.760   4.614   4.759  0.2278  0.0655 -0.4680
11609SOL    HW139189   5.832   4.668   4.726 -0.1016  0.7686 -0.0374
11609SOL    HW239190   5.803   4.546   4.810  0.6255  0.0755 -0.7779
11610SOL     OW39191   3.512   1.279   3.432 -0.2125 -0.2774 -0.0148
11610SOL    HW139192   3.549   1.354   3.478  0.7774 -0.6191 -0.2388
11610SOL    HW239193   3.473   1.317   3.352  0.6461 -0.0454 -0.3321
11611SOL     OW39194   1.200   6.550   2.172 -0.7618 -0.2193  0.1080
11611SOL    HW139195   1.221   6.548   2.079 -1.7531  1.3120 -0.1745
11611SOL    HW239196   1.266   6.608   2.210 -2.0697  1.5215 -0.1590
11612SOL     OW39197   8.236  10.212   3.959  0.1011  0.0849 -0.5013
11612SOL    HW139198   8.150  10.207   3.916  0.2631  0.9637 -0.9453
11612SOL    HW239199   8.244  10.128   4.006 -1.1087  0.0880 -0.2418
11613SOL     OW39200   1.030   8.389   8.935  0.4404 -0.1008  0.2406
11613SOL    HW139201   1.064   8.431   8.856  1.2299 -1.2115 -0.0364
11613SOL    HW239202   1.108   8.361   8.982 -0.0109  0.8737  1.6223
11614SOL     OW39203   4.944   1.725   3.594  0.0557  0.4367  0.4544
11614SOL    HW139204   5.025   1.697   3.551 -0.9308 -1.4658 -0.3176
11614SOL    HW239205   4.956   1.818   3.610  2.0869  0.3677 -0.3135
11615SOL     OW39206  10.524   3.210   6.705  0.2520  0.4974 -0.4975
11615SOL    HW139207  10.488   3.213   6.794 -0.5786  1.2989 -0.8459
11615SOL    HW239208  10.532   3.301   6.679  0.1750  0.2653 -1.3662
11616SOL     OW39209   2.985   4.956   8.769  0.2345 -0.1811  0.2703
11616SOL    HW139210   2.913   4.940   8.709 -0.7653  0.2295  1.3285
11616SOL    HW239211   3.060   4.910   8.730 -0.3439  0.1761 -1.3296
11617SOL     OW39212  10.419   4.385   0.376 -0.0372  0.5893 -0.3002
11617SOL    HW139213  10.406   4.467   0.328  1.1029 -0.1345 -1.8944
11617SOL    HW239214  10.334   4.369   0.419 -0.1168  2.8958  0.5896
11618SOL     OW39215   6.366  10.756   5.466  0.4268  0.7141  0.0520
11618SOL    HW139216   6.433  10.697   5.500  0.9463  1.8004  0.9613
11618SOL    HW239217   6.336  10.805   5.542 -0.7419  0.9009 -0.5109
11619SOL     OW39218   5.513   8.501   9.298 -0.3834 -0.1883 -0.1215
11619SOL    HW139219   5.436   8.445   9.288  0.4377 -1.5235  0.5974
11619SOL    HW239220   5.575   8.447   9.348 -0.0255  1.8476  1.7716
11620SOL     OW39221   5.683   8.808   6.859 -0.3571  0.0455  0.2213
11620SOL    HW139222   5.629   8.848   6.927 -1.6465 -0.7125 -0.3144
11620SOL    HW239223   5.648   8.842   6.777  0.7421  0.4174 -0.1243
11621SOL     OW39224   7.154  11.062   4.182  0.6795 -0.7554  0.2417
11621SOL    HW139225   7.170  11.081   4.275 -0.7361  0.5110  0.2629
11621SOL    HW239226   7.059  11.065   4.173  0.8202  2.4377 -1.8300
11622SOL     OW39227   4.893   3.338   4.697 -0.0606  0.4708 -0.5297
11622SOL    HW139228   4.976   3.386   4.691  0.8115 -0.7787  0.8009
11622SOL    HW239229   4.919   3.247   4.716 -1.7312  0.0612 -0.0077
11623SOL     OW39230   0.097   7.272   3.377  0.2720  0.1454  0.0043
11623SOL    HW139231   0.063   7.264   3.466 -2.1193 -1.7914 -0.9734
11623SOL    HW239232   0.121   7.182   3.353 -1.0211  0.2634 -1.9435
11624SOL     OW39233   6.104   1.204   2.933 -0.8314 -0.1017  0.0267
11624SOL    HW139234   6.036   1.267   2.957 -1.0633  0.2308 -1.4458
11624SOL    HW239235   6.084   1.179   2.843 -0.4549 -1.9184  0.4001
11625SOL     OW39236   5.664  10.782   2.881  0.0220 -0.0656 -0.1393
11625SOL    HW139237   5.668  10.869   2.922 -0.5272 -0.0080 -0.1970
11625SOL    HW239238   5.749  10.743   2.901  1.0530  1.1935 -1.7348
11626SOL     OW39239   3.127   9.215   4.193  0.0795 -0.0933  0.0057
11626SOL    HW139240   3.108   9.173   4.277 -0.3720  1.6501  0.8472
11626SOL    HW239241   3.057   9.279   4.182  0.3883  0.0267 -1.4994
11627SOL     OW39242   5.593   8.973   9.192 -0.1320 -0.8183  0.1180
11627SOL    HW139243   5.638   8.974   9.277 -0.2727 -1.1863  0.1993
11627SOL    HW239244   5.663   8.985   9.128  0.0612 -1.1921  0.2559
11628SOL     OW39245   2.071   5.453   5.806  0.3755  0.1186 -0.4526
11628SOL    HW139246   2.109   5.472   5.720  2.0905 -0.6819  0.0870
11628SOL    HW239247   2.037   5.364   5.797  0.8038 -0.0717 -0.2447
11629SOL     OW39248   2.606   8.483   6.798 -0.0827 -0.6811 -0.2548
11629SOL    HW139249   2.690   8.438   6.806 -0.2473 -0.6845  2.4484
11629SOL    HW239250   2.542   8.413   6.789 -0.3262 -1.2621  3.8358
11630SOL     OW39251   8.466   3.955   9.444 -0.2177  0.1976 -0.7363
11630SOL    HW139252   8.446   4.045   9.470  2.0066  0.5800 -0.1708
11630SOL    HW239253   8.495   3.912   9.525  3.3154  0.3904 -1.7192
11631SOL     OW39254   9.541   2.719   8.692  0.1396 -0.1251  0.7083
11631SOL    HW139255   9.635   2.701   8.701  0.6645  1.5377 -0.9481
11631SOL    HW239256   9.526   2.794   8.750 -0.1571 -0.3530  0.9255
11632SOL     OW39257   5.314   9.802   6.049  0.8269 -0.3745 -0.4125
11632SOL    HW139258   5.400   9.819   6.013  1.0874 -1.4515 -0.3257
11632SOL    HW239259   5.254   9.856   5.996  1.4208 -0.4510 -1.1665
11633SOL     OW39260   2.907   5.158   1.541 -0.0412 -0.4701  0.1039
11633SOL    HW139261   2.832   5.100   1.553 -1.8234  1.4772 -0.9391
11633SOL    HW239262   2.870   5.238   1.502  2.4407  0.9459  0.4250
11634SOL     OW39263  10.320   7.283   7.470 -0.0058  0.3483 -0.1626
11634SOL    HW139264  10.352   7.321   7.552  3.3973 -1.2461 -0.6125
11634SOL    HW239265  10.301   7.359   7.415 -0.7408  1.4193  1.4966
11635SOL     OW39266   0.316   3.732   4.446 -0.5374  0.6762 -0.4335
11635SOL    HW139267   0.411   3.727   4.439 -0.5402 -0.9230  0.3206
11635SOL    HW239268   0.292   3.658   4.501 -2.1566  1.5521  0.0965
11636SOL     OW39269   4.556   6.916   2.949  0.0026  0.1248 -0.5296
11636SOL    HW139270   4.521   6.907   2.860  0.4703 -0.7348 -0.6404
11636SOL    HW239271   4.502   6.858   3.002 -0.7162  1.1474 -0.1002
11637SOL     OW39272   5.444   3.130   8.059  0.1545  0.1917 -0.2014
11637SOL    HW139273   5.458   3.191   7.987  2.9471  1.7098  1.4768
11637SOL    HW239274   5.367   3.164   8.105 -0.0331  0.7743 -0.9329
11638SOL     OW39275   2.926   4.409   6.835 -0.3597 -0.5090  0.4713
11638SOL    HW139276   2.851   4.442   6.785  0.0652  1.6661  1.1582
11638SOL    HW239277   3.002   4.448   6.793  0.0724  0.5830  2.1263
11639SOL     OW39278   3.444   0.227   3.558  0.5778  0.1759  0.0426
11639SOL    HW139279   3.495   0.205   3.636 -0.1102  3.2488  1.5293
11639SOL    HW239280   3.353   0.221   3.587  0.2053 -0.9917 -1.2907
11640SOL     OW39281   6.218   4.048   8.421 -0.5385 -0.5300 -0.3115
11640SOL    HW139282   6.245   4.087   8.338 -0.4340 -0.4486 -0.2407
11640SOL    HW239283   6.289   4.070   8.482 -1.4487  1.0096  0.2691
11641SOL     OW39284   8.659   8.698   0.783  0.3803  0.2850  0.1988
11641SOL    HW139285   8.684   8.702   0.690  1.9014  0.1415  0.5775
11641SOL    HW239286   8.575   8.744   0.787 -0.2603 -0.6435 -1.4190
11642SOL     OW39287   7.503   3.982  10.902 -0.2340  0.2894  0.6335
11642SOL    HW139288   7.476   3.908  10.957 -1.6593  0.4336  0.1759
11642SOL    HW239289   7.593   3.961  10.876  0.5960  0.3218  3.1489
11643SOL     OW39290   2.370   1.545   3.524  0.4190 -0.0384  0.1483
11643SOL    HW139291   2.342   1.482   3.458  0.8599  0.7879 -0.8733
11643SOL    HW239292   2.334   1.629   3.493 -0.7962  0.1233  1.8575
11644SOL     OW39293   3.467   0.969   4.765 -0.5121  0.4198 -0.4090
11644SOL    HW139294   3.427   1.053   4.787 -0.1113  0.3241  0.7133
11644SOL    HW239295   3.406   0.930   4.702 -2.5802  0.0013  1.7116
11645SOL     OW39296   1.514   4.334   0.262 -0.0283 -0.2403  0.8123
11645SOL    HW139297   1.507   4.316   0.168 -0.4031  1.8563  0.3979
11645SOL    HW239298   1.430   4.306   0.298 -0.2835 -0.0727  0.3510
11646SOL     OW39299   1.359   5.646   1.728 -0.0791 -0.3319 -1.0456
11646SOL    HW139300   1.398   5.625   1.812  0.9467 -1.5450 -1.7863
11646SOL    HW239301   1.290   5.580   1.715 -1.0075  0.5336 -0.6807
11647SOL     OW39302   7.230   3.088   5.757 -0.0647  0.0531  0.2509
11647SOL    HW139303   7.282   3.075   5.678 -0.2278 -0.0840  0.1625
11647SOL    HW239304   7.157   3.143   5.729 -0.5875 -0.6996  0.1001
11648SOL     OW39305   1.233   8.749   6.109  0.0522  0.0058  0.3891
11648SOL    HW139306   1.313   8.781   6.067  1.8971 -2.0117  2.1568
11648SOL    HW239307   1.204   8.676   6.053  0.1360 -0.0366  0.4006
11649SOL     OW39308   6.826   5.297   5.347 -0.3122  0.2595 -0.3198
11649SOL    HW139309   6.731   5.291   5.357 -0.2853  1.6763  1.2196
11649SOL    HW239310   6.861   5.264   5.430  0.5345  0.1287 -0.7136
11650SOL     OW39311   1.747  10.172   6.726  0.0805 -0.8770 -0.3207
11650SOL    HW139312   1.774  10.142   6.639 -1.2085 -2.6091 -0.1672
11650SOL    HW239313   1.821  10.226   6.757  0.5810 -0.2445 -2.4400
11651SOL     OW39314   4.690  10.499   3.171  0.5041 -0.5983  0.1669
11651SOL    HW139315   4.770  10.475   3.125  0.3297 -0.7924 -0.0366
11651SOL    HW239316   4.720  10.536   3.254  0.8129 -0.4212 -0.0239
11652SOL     OW39317   4.089   4.155   0.157 -0.6951 -0.3342 -0.1132
11652SOL    HW139318   4.057   4.116   0.076 -0.4119 -0.6940 -0.0553
11652SOL    HW239319   4.076   4.249   0.145 -1.3543 -0.4355 -0.2699
11653SOL     OW39320   8.703   8.683   1.344 -0.2916  0.2685 -0.0869
11653SOL    HW139321   8.660   8.768   1.336 -0.6257  0.4111  2.5109
11653SOL    HW239322   8.636   8.626   1.382  0.6846 -0.4733  0.5782
11654SOL     OW39323   1.591   2.608   8.353  0.2989 -0.0897  0.2651
11654SOL    HW139324   1.577   2.693   8.312  1.2178 -0.2608 -0.4257
11654SOL    HW239325   1.686   2.601   8.363  0.2405 -1.0717  0.2164
11655SOL     OW39326   9.486   8.451   1.149  0.1364  0.5053  0.4549
11655SOL    HW139327   9.489   8.366   1.192  2.0857  0.7870  0.9744
11655SOL    HW239328   9.437   8.507   1.209 -1.0503 -0.1654  0.1647
11656SOL     OW39329   8.726   2.556  10.630 -0.0007  0.3125 -0.3626
11656SOL    HW139330   8.682   2.541  10.714  1.1377  0.0129  0.1970
11656SOL    HW239331   8.774   2.475  10.613 -1.4497 -0.2515 -2.1102
11657SOL     OW39332   5.753   9.284   3.466  0.3162  0.1093 -0.7770
11657SOL    HW139333   5.815   9.302   3.395 -0.3357 -1.1485 -1.7265
11657SOL    HW239334   5.786   9.204   3.507  0.1675  0.3045 -0.2663
11658SOL     OW39335  11.066   6.500   1.184 -0.4064 -0.1932 -0.1312
11658SOL    HW139336  11.062   6.548   1.102 -0.5037 -0.4907 -0.3032
11658SOL    HW239337  11.122   6.425   1.166  0.6646  0.4408  0.4486
11659SOL     OW39338   5.418   0.048   5.476  0.0795 -0.4512  0.1244
11659SOL    HW139339   5.511   0.064   5.459  0.3540  0.6628  2.2245
11659SOL    HW239340   5.373   0.120   5.433  0.2751 -0.5196 -0.1927
11660SOL     OW39341   8.854   6.008   3.138  0.3272 -0.0984 -0.1869
11660SOL    HW139342   8.859   5.912   3.136  1.3305 -0.0852  0.8360
11660SOL    HW239343   8.791   6.030   3.069 -2.4298 -1.6693  1.6249
11661SOL     OW39344   9.590   4.211   3.459  0.0556 -0.0611  0.0535
11661SOL    HW139345   9.666   4.162   3.491 -0.5015  0.4597  2.2846
11661SOL    HW239346   9.515   4.154   3.478 -0.5812  1.4558  2.4769
11662SOL     OW39347   2.490   0.171   5.559  0.4369 -0.5001  0.3284
11662SOL    HW139348   2.496   0.175   5.654  0.5326  1.8190  0.2772
11662SOL    HW239349   2.565   0.222   5.528 -0.2401 -0.2528 -0.9699
11663SOL     OW39350  10.511   8.124   7.705  0.1381  0.4444 -0.0559
11663SOL    HW139351  10.440   8.091   7.649  0.2826  0.0125  0.0076
11663SOL    HW239352  10.485   8.213   7.727  0.7023  1.1095 -1.8823
11664SOL     OW39353   8.442   1.731   4.062 -0.0265  0.4014  0.2694
11664SOL    HW139354   8.485   1.801   4.013 -0.2678  0.4563  0.1327
11664SOL    HW239355   8.500   1.714   4.137  0.0802  0.6798  0.2501
11665SOL     OW39356   4.201   7.845   0.610  0.6376  0.0508  0.1547
11665SOL    HW139357   4.126   7.857   0.552  0.0546  1.0865  1.0854
11665SOL    HW239358   4.277   7.842   0.551  0.0315  0.7542 -0.6840
11666SOL     OW39359   6.191   2.097   2.159  0.3793 -0.3852  0.3020
11666SOL    HW139360   6.236   2.016   2.137  1.7624  0.4737 -0.1911
11666SOL    HW239361   6.192   2.148   2.078  1.2036  0.8537  1.0399
11667SOL     OW39362   4.392   6.522   2.850  0.2866 -0.7931 -0.3245
11667SOL    HW139363   4.361   6.534   2.760 -1.4752  1.4435  0.4917
11667SOL    HW239364   4.483   6.551   2.847 -0.3845  1.5253 -1.0167
11668SOL     OW39365   3.861   8.503   7.122 -0.2686 -0.0732 -0.1120
11668SOL    HW139366   3.767   8.508   7.137 -0.0265  1.0705  1.1983
11668SOL    HW239367   3.889   8.426   7.171 -0.1310  1.1934  1.8822
11669SOL     OW39368   9.369   2.606  10.185  0.5558 -0.2980 -0.0210
11669SOL    HW139369   9.369   2.540  10.254 -3.9721  0.9252  1.5255
11669SOL    HW239370   9.319   2.565  10.114 -1.3544  0.9435  0.5350
11670SOL     OW39371   0.534   1.867   1.825  0.1214 -0.1054 -0.0698
11670SOL    HW139372   0.526   1.789   1.878 -0.4842 -2.2183 -2.9954
11670SOL    HW239373   0.620   1.859   1.783 -0.3811  0.1657 -1.2140
11671SOL     OW39374   8.294   2.183   2.093 -0.1402  0.1018  0.1842
11671SOL    HW139375   8.223   2.148   2.039  1.6541  0.8676 -2.9220
11671SOL    HW239376   8.362   2.116   2.088 -0.2675 -0.2819  2.5004
11672SOL     OW39377   6.880   4.405   8.378 -0.1286  0.0515  0.6784
11672SOL    HW139378   6.974   4.418   8.376 -0.1079 -0.0076  1.1769
11672SOL    HW239379   6.857   4.384   8.287  0.5276 -1.2858  0.7957
11673SOL     OW39380   8.942   9.648   7.615 -0.0652  0.3352 -0.1370
11673SOL    HW139381   8.945   9.670   7.521 -1.0523  0.0847 -0.2369
11673SOL    HW239382   8.897   9.722   7.655 -0.5261 -0.0128 -0.0078
11674SOL     OW39383  10.862   0.059   3.391 -0.5520 -0.0439  0.2374
11674SOL    HW139384  10.818   0.029   3.470 -0.0858 -0.5776  0.3064
11674SOL    HW239385  10.934  -0.003   3.379 -0.4141  0.2295 -0.4157
11675SOL     OW39386   9.742   7.325   4.964  0.0494 -0.0410 -0.4864
11675SOL    HW139387   9.759   7.419   4.974 -1.4474  0.3856 -1.5792
11675SOL    HW239388   9.658   7.320   4.918  0.2415 -1.9177 -0.7340
11676SOL     OW39389   6.891   4.473   6.440 -0.0464 -0.0032 -0.8414
11676SOL    HW139390   6.869   4.562   6.469  0.5044 -0.4166  0.9752
11676SOL    HW239391   6.859   4.417   6.510  1.9244 -1.0284 -0.6922
11677SOL     OW39392   5.685   7.870   9.737 -0.0021  0.7207  0.0509
11677SOL    HW139393   5.737   7.814   9.680 -1.5485  1.5838 -2.3958
11677SOL    HW239394   5.744   7.940   9.763  1.0874 -0.3662  0.5679
11678SOL     OW39395   0.807   8.723   5.496 -0.2086  0.1551 -0.7447
11678SOL    HW139396   0.778   8.632   5.490  1.5299 -0.6362  1.7113
11678SOL    HW239397   0.731   8.770   5.533 -0.2585 -0.8365  0.4725
11679SOL     OW39398   4.227  10.021   2.056  0.6753  0.0354 -0.1541
11679SOL    HW139399   4.240  10.094   2.117 -1.5612 -0.6263  1.2293
11679SOL    HW239400   4.309   9.972   2.059  0.4493 -0.3549  2.9461
11680SOL     OW39401   2.885   1.185   4.325 -0.6927 -0.0576 -0.3067
11680SOL    HW139402   2.820   1.203   4.392 -2.4201 -2.1519 -1.2701
11680SOL    HW239403   2.853   1.231   4.247  0.2536  0.7675 -0.2333
11681SOL     OW39404   6.338   6.330   6.258 -0.8304  0.5134 -0.3422
11681SOL    HW139405   6.351   6.237   6.274 -3.1366  0.2058  0.0067
11681SOL    HW239406   6.393   6.373   6.325 -1.6716 -0.6398  1.1573
11682SOL     OW39407   5.626   6.408   4.989 -0.4764 -0.6474  0.4608
11682SOL    HW139408   5.560   6.413   4.920 -1.1812 -3.2177  0.8482
11682SOL    HW239409   5.658   6.318   4.984  4.3001  0.8478 -0.7906
11683SOL     OW39410   0.479   6.576   0.364  0.1922 -0.1117  0.1829
11683SOL    HW139411   0.531   6.524   0.425  1.1042  2.0941  1.4200
11683SOL    HW239412   0.543   6.615   0.304 -0.5111 -0.6891 -0.9876
11684SOL     OW39413   7.336   6.128   8.163  0.2570 -0.8284 -0.1669
11684SOL    HW139414   7.375   6.124   8.076 -1.7039  0.3640 -1.1964
11684SOL    HW239415   7.354   6.043   8.202  1.9607 -1.0684 -1.3777
11685SOL     OW39416   4.565   3.145   8.502  0.1499  0.1977 -0.0046
11685SOL    HW139417   4.521   3.218   8.458 -0.1288 -0.4084 -0.7599
11685SOL    HW239418   4.585   3.084   8.431 -0.6586 -0.9888  0.7669
11686SOL     OW39419   7.057   8.477   2.867  0.1954  0.3951  0.0805
11686SOL    HW139420   7.054   8.423   2.787  1.5210 -1.3072  1.1169
11686SOL    HW239421   7.147   8.508   2.872 -0.0426  1.0255  0.5905
11687SOL     OW39422   6.869   9.924   2.009 -0.0199 -0.5148 -0.2104
11687SOL    HW139423   6.853   9.910   2.102 -0.6687 -1.3570 -0.4391
11687SOL    HW239424   6.926  10.001   2.006  1.3173 -1.4145  0.9621
11688SOL     OW39425  11.060   0.865   4.740  0.6790 -0.0305 -0.3491
11688SOL    HW139426  11.015   0.781   4.749  2.9897 -1.3566 -0.2764
11688SOL    HW239427  10.995   0.924   4.702 -0.7270 -2.1365 -1.3723
11689SOL     OW39428   6.718   3.527   0.082  0.4925 -0.3289 -0.3548
11689SOL    HW139429   6.747   3.558   0.168  0.7786 -0.2622 -0.4770
11689SOL    HW239430   6.640   3.580   0.063 -0.2238 -1.1023  0.3586
11690SOL     OW39431   1.149  10.884  10.955 -0.2294  0.3528  0.1182
11690SOL    HW139432   1.198  10.802  10.958 -1.2085 -0.2579 -0.2593
11690SOL    HW239433   1.179  10.932  11.032  1.0654  0.0675 -0.1860
11691SOL     OW39434   6.099   3.816   8.477 -0.1450  0.1467 -0.0532
11691SOL    HW139435   6.130   3.898   8.438  2.6629 -1.2114 -0.9265
11691SOL    HW239436   6.014   3.801   8.436  0.6274  1.1350 -2.1816
11692SOL     OW39437   9.070   9.188   2.757  0.1114  0.1851  0.3602
11692SOL    HW139438   9.027   9.103   2.766  2.3884 -0.9693  1.2790
11692SOL    HW239439   9.054   9.232   2.841  1.6190 -0.7564  1.1989
11693SOL     OW39440   4.180   9.410   1.334  0.7087  0.7831  0.7398
11693SOL    HW139441   4.191   9.499   1.368 -0.4636  0.3531  2.3375
11693SOL    HW239442   4.095   9.411   1.291  0.3859  0.2719  1.3506
11694SOL     OW39443   6.138   2.554   5.598  0.2569 -0.3387  0.1721
11694SOL    HW139444   6.055   2.579   5.639  0.2394  0.7575 -0.4974
11694SOL    HW239445   6.204   2.579   5.662  0.1001 -0.8423  0.5368
11695SOL     OW39446   8.777  10.608   6.347 -0.1210 -0.5673 -0.4682
11695SOL    HW139447   8.743  10.560   6.423  1.1814 -0.2266  0.3620
11695SOL    HW239448   8.858  10.563   6.324  0.0477 -0.0205 -0.9840
11696SOL     OW39449   2.754   5.370   2.100 -0.4709 -0.4328 -0.0246
11696SOL    HW139450   2.785   5.447   2.147  0.5245 -0.7442 -0.1407
11696SOL    HW239451   2.716   5.405   2.019  3.1992 -0.1382 -1.8842
11697SOL     OW39452   0.431   1.858   0.970 -0.0153 -0.6358  0.2424
11697SOL    HW139453   0.479   1.779   0.947  1.3838 -0.3068  1.8610
11697SOL    HW239454   0.390   1.838   1.054  0.1848  0.2758  0.5694
11698SOL     OW39455   9.266   4.591   5.813 -0.5065 -0.0568 -0.3760
11698SOL    HW139456   9.262   4.546   5.729 -1.2351  0.1221 -0.4419
11698SOL    HW239457   9.351   4.636   5.812 -0.0082 -0.9703 -0.5288
11699SOL     OW39458   5.431   9.003   0.968 -0.1582  0.3667 -0.4652
11699SOL    HW139459   5.454   8.977   0.879 -0.1126 -0.7563 -0.1360
11699SOL    HW239460   5.487   8.949   1.024  0.2132  1.4505  0.2410
11700SOL     OW39461   2.420   7.858   0.750 -0.1508 -0.0011  0.2608
11700SOL    HW139462   2.414   7.764   0.763 -0.3184  0.0159  0.3029
11700SOL    HW239463   2.508   7.881   0.781  1.6853 -0.8007 -3.6496
11701SOL     OW39464   1.018   6.556   3.926  0.1772  0.0490 -0.2631
11701SOL    HW139465   0.934   6.558   3.971  0.7907  1.3478  0.8998
11701SOL    HW239466   1.077   6.510   3.986  1.0126  1.8303  0.3529
11702SOL     OW39467   6.495   3.920   4.819  0.3078 -0.3587 -0.1206
11702SOL    HW139468   6.473   3.997   4.766  1.6941  0.4227  0.3881
11702SOL    HW239469   6.573   3.946   4.868  0.2315 -1.7652  0.7979
11703SOL     OW39470   8.024   3.870   4.042  0.1673 -0.3506 -0.1275
11703SOL    HW139471   8.119   3.867   4.053  0.2499  0.6660 -0.4161
11703SOL    HW239472   8.008   3.825   3.960  0.4368 -0.2217 -0.2526
11704SOL     OW39473   2.737   4.781   4.901 -0.4663 -0.0102  1.1914
11704SOL    HW139474   2.789   4.836   4.842 -1.0564 -0.4489  0.2421
11704SOL    HW239475   2.655   4.830   4.913 -1.2764 -0.9607 -0.2110
11705SOL     OW39476   0.694   1.580   9.072 -0.4832  0.2763 -0.0291
11705SOL    HW139477   0.641   1.517   9.023 -1.9273 -0.6863  2.5640
11705SOL    HW239478   0.683   1.554   9.163  3.7374  0.6328  0.7922
11706SOL     OW39479   2.009   9.254   1.015 -0.0142  0.2810 -0.0019
11706SOL    HW139480   1.923   9.218   1.037  0.1207  0.5523  1.0432
11706SOL    HW239481   1.990   9.335   0.968 -0.3193 -0.2666 -0.8379
11707SOL     OW39482   9.282   4.888   7.407  0.0412  0.2881  0.2230
11707SOL    HW139483   9.366   4.843   7.417 -0.0631 -0.2335 -1.0206
11707SOL    HW239484   9.303   4.964   7.352 -0.4338 -0.3439 -0.8723
11708SOL     OW39485   4.400   6.247   2.052 -0.0387 -0.1766 -0.4266
11708SOL    HW139486   4.358   6.301   1.985  2.2989  2.6685  0.2178
11708SOL    HW239487   4.340   6.249   2.126 -1.6614 -1.6211 -1.6033
11709SOL     OW39488   5.876   5.989  10.173 -0.2417 -0.2280 -0.0953
11709SOL    HW139489   5.915   5.938  10.245 -0.1697 -0.1287 -0.0639
11709SOL    HW239490   5.846   6.070  10.214  2.0008  0.9293 -0.5787
11710SOL     OW39491   6.090   6.157  10.630 -0.1902 -0.0555 -0.8956
11710SOL    HW139492   6.184   6.165  10.648 -0.3429  0.2750 -0.2066
11710SOL    HW239493   6.073   6.222  10.562  0.0893 -0.1388 -1.0434
11711SOL     OW39494   8.752   5.822   9.347  0.0432  0.0652 -0.1146
11711SOL    HW139495   8.714   5.737   9.367 -2.0920  0.7886 -0.7708
11711SOL    HW239496   8.676   5.880   9.336  1.3774  1.7128 -1.1478
11712SOL     OW39497   7.906   7.331   8.649 -0.2357  0.1443  0.1768
11712SOL    HW139498   7.830   7.317   8.592 -0.4719 -1.4235  0.8128
11712SOL    HW239499   7.877   7.300   8.735  0.9109  0.1721  0.5904
11713SOL     OW39500   5.374   9.796   1.378  0.4432  0.3957  0.1599
11713SOL    HW139501   5.464   9.825   1.393  0.5164 -0.2958  1.1600
11713SOL    HW239502   5.381   9.729   1.310  0.7494  0.0228  0.5528
11714SOL     OW39503   2.680   6.570   8.696  0.0419  0.5114  0.6498
11714SOL    HW139504   2.589   6.601   8.692 -0.3730 -0.7479 -0.3038
11714SOL    HW239505   2.730   6.634   8.646 -0.7756 -0.2486 -1.2021
11715SOL     OW39506   9.855   3.141   2.329 -0.2576  0.2695  0.2959
11715SOL    HW139507   9.868   3.183   2.414 -1.2515  1.4181 -0.1016
11715SOL    HW239508   9.857   3.047   2.348  1.9866  0.4393  1.1969
11716SOL     OW39509   2.063  11.010   7.844  0.3227  0.0516 -0.1891
11716SOL    HW139510   2.111  10.938   7.804  1.5781  1.1793 -0.7955
11716SOL    HW239511   2.024  11.057   7.771  1.9033  1.6140 -0.1067
11717SOL     OW39512   3.127   8.823   5.750 -0.2903  0.2351  0.0886
11717SOL    HW139513   3.204   8.838   5.695  0.3312 -1.1925  0.5219
11717SOL    HW239514   3.053   8.831   5.690  0.2262  0.8878 -0.4840
11718SOL     OW39515   8.281   8.614   7.083  0.4240  0.1074  0.0398
11718SOL    HW139516   8.202   8.586   7.130  0.6381 -0.1726  0.2418
11718SOL    HW239517   8.249   8.648   7.000  0.1324 -0.5633 -0.1306
11719SOL     OW39518  10.904   8.311   6.257 -0.3350  0.5952 -0.0376
11719SOL    HW139519  10.909   8.297   6.162 -0.1156 -0.1895  0.0844
11719SOL    HW239520  10.925   8.226   6.295 -0.0401  1.0040  0.7298
11720SOL     OW39521  10.450   3.727   5.489  0.0385 -0.1438  0.1307
11720SOL    HW139522  10.377   3.773   5.446 -0.9188 -0.6706  1.1361
11720SOL    HW239523  10.489   3.793   5.546  0.7258  0.2954 -0.8114
11721SOL     OW39524   3.583   5.988   4.117  0.0550 -0.2149  0.3714
11721SOL    HW139525   3.668   6.018   4.085 -0.3244  0.0040 -0.4561
11721SOL    HW239526   3.576   6.025   4.205  1.4415 -1.4562  1.0304
11722SOL     OW39527  10.713   3.036   8.744 -0.2575 -0.8084  0.1783
11722SOL    HW139528  10.618   3.033   8.757 -0.0783 -0.1087  1.8072
11722SOL    HW239529  10.747   2.966   8.799  0.2724 -0.1184  0.7444
11723SOL     OW39530   8.035   5.444  11.091 -0.2838  0.7543  0.5200
11723SOL    HW139531   7.978   5.383  11.044  0.3589  0.6898 -0.1941
11723SOL    HW239532   8.114   5.393  11.109 -0.3312  0.9268  1.2591
11724SOL     OW39533   2.063   8.217   0.118 -0.7471  0.0560 -0.2998
11724SOL    HW139534   2.010   8.266   0.181 -1.6416 -1.1314 -0.0808
11724SOL    HW239535   2.128   8.171   0.171  0.0388  0.9015 -0.4967
11725SOL     OW39536   5.177   1.390   1.930  0.5240 -0.2152  0.1707
11725SOL    HW139537   5.268   1.408   1.954  1.7720  0.7323 -4.3511
11725SOL    HW239538   5.149   1.466   1.879 -1.9874 -1.5354 -0.6189
11726SOL     OW39539   3.726  10.322   5.908 -0.1869  0.1743  0.2586
11726SOL    HW139540   3.756  10.401   5.864 -1.2609  1.2359  1.3913
11726SOL    HW239541   3.656  10.351   5.966 -1.8510 -1.8629 -0.5986
11727SOL     OW39542   2.421   1.981   8.613  0.2883  0.2187  0.5188
11727SOL    HW139543   2.491   2.009   8.672  0.4361 -2.1590  1.5923
11727SOL    HW239544   2.453   2.005   8.526  1.9722  0.1274  1.0670
11728SOL     OW39545   3.086  10.932   7.914  0.9974  0.0927 -0.2956
11728SOL    HW139546   3.129  10.847   7.921  2.2159  0.7901  1.5599
11728SOL    HW239547   3.117  10.981   7.991  0.3825  2.2286 -1.3210
11729SOL     OW39548   8.867   3.660   1.509  0.7837 -0.6122  0.2307
11729SOL    HW139549   8.796   3.617   1.557 -0.2387 -0.8410 -1.4264
11729SOL    HW239550   8.845   3.753   1.511 -0.3093 -0.8034 -1.3904
11730SOL     OW39551   0.886  10.294   4.517  0.5980  0.7014 -0.2191
11730SOL    HW139552   0.932  10.222   4.474 -0.4083  0.0667 -0.2629
11730SOL    HW239553   0.951  10.363   4.525  1.5444 -0.1698 -0.2880
11731SOL     OW39554   6.224   5.272   2.625  0.6883  0.3620 -0.3338
11731SOL    HW139555   6.188   5.231   2.703  1.4235 -0.1627 -0.2679
11731SOL    HW239556   6.255   5.200   2.571 -0.3177  0.6812 -1.3794
11732SOL     OW39557   6.546   4.107   4.524 -0.0246  0.0888 -0.0968
11732SOL    HW139558   6.547   4.150   4.610 -0.6905 -1.3926  0.6972
11732SOL    HW239559   6.619   4.146   4.476 -0.9377  2.4996  0.3409
11733SOL     OW39560   2.206   6.293   9.949 -0.3236  0.1419 -0.4878
11733SOL    HW139561   2.251   6.210   9.933  0.3356  0.1243  1.2441
11733SOL    HW239562   2.216   6.308  10.043 -0.5741  2.1040 -0.7327
11734SOL     OW39563   6.744   8.114   9.175 -0.0996 -0.0430  0.0623
11734SOL    HW139564   6.716   8.170   9.247  2.8501  0.4134  1.0041
11734SOL    HW239565   6.750   8.026   9.213 -1.5574 -0.4266 -0.5296
11735SOL     OW39566   6.975  10.538   6.799 -0.4133 -0.0425 -0.5437
11735SOL    HW139567   7.038  10.467   6.788  1.3622  1.1360  1.2674
11735SOL    HW239568   6.892  10.494   6.820  0.6140 -1.6016  0.4499
11736SOL     OW39569   2.630   9.329   7.109 -0.3489 -0.1479 -0.2837
11736SOL    HW139570   2.640   9.392   7.180 -0.2582 -2.3076  1.7531
11736SOL    HW239571   2.720   9.314   7.078 -0.2749  0.0895 -0.1844
11737SOL     OW39572   3.049   9.296   7.422 -0.2616  0.1875 -0.4371
11737SOL    HW139573   3.124   9.324   7.475 -1.8542  3.5195  0.3306
11737SOL    HW239574   3.004   9.232   7.476 -0.9608  2.3309  1.7290
11738SOL     OW39575   4.004   5.177   1.036 -0.3242  0.2601 -0.1601
11738SOL    HW139576   4.075   5.124   1.000 -0.5962 -0.6318  0.5734
11738SOL    HW239577   3.990   5.245   0.971  0.8258  0.1238 -0.5818
11739SOL     OW39578   1.072   5.024  10.802 -0.0390 -0.5713  0.0331
11739SOL    HW139579   1.105   5.114  10.803 -1.7462  0.2006 -2.5323
11739SOL    HW239580   0.987   5.031  10.757  0.3855 -3.6417 -1.4616
11740SOL     OW39581   3.982   9.199  10.635  0.4078  0.3270  0.2099
11740SOL    HW139582   3.910   9.218  10.574  0.5231 -2.8085 -1.1032
11740SOL    HW239583   4.061   9.217  10.584  0.5074 -0.7892 -0.0509
11741SOL     OW39584   2.062   5.805   4.506  0.1056  0.1939  0.0325
11741SOL    HW139585   2.041   5.890   4.544  0.5171 -0.0373  0.7851
11741SOL    HW239586   1.988   5.785   4.449 -0.0026  1.0449 -0.1294
11742SOL     OW39587   2.171   4.222   8.979  0.0656  0.3707 -0.4320
11742SOL    HW139588   2.173   4.238   8.884  1.4610  3.2294 -0.0254
11742SOL    HW239589   2.079   4.233   9.003 -0.0564  1.2621 -1.2435
11743SOL     OW39590   1.325   4.389   5.612  0.0208 -0.1789  0.2884
11743SOL    HW139591   1.381   4.454   5.654 -0.3670 -0.1774  0.8271
11743SOL    HW239592   1.293   4.335   5.685  1.3880 -1.8216 -0.2599
11744SOL     OW39593   0.744   8.093  10.857  0.3154 -0.0892 -0.6979
11744SOL    HW139594   0.788   8.178  10.848 -1.4633  1.0679  0.7616
11744SOL    HW239595   0.652   8.116  10.871 -0.2428 -2.2928 -0.4859
11745SOL     OW39596   5.723  10.599   2.556 -0.2295 -0.0798  0.4701
11745SOL    HW139597   5.673  10.681   2.557 -0.1418 -0.0289  1.4453
11745SOL    HW239598   5.789  10.611   2.624 -0.4959 -1.1356  0.9278
11746SOL     OW39599  10.219   9.559  10.918 -0.5681 -0.2300  0.1927
11746SOL    HW139600  10.296   9.608  10.949 -0.6209 -0.4498  0.6704
11746SOL    HW239601  10.233   9.552  10.823  1.7357 -3.1733  0.5828
11747SOL     OW39602   9.255   8.967   0.465 -0.1399 -0.2441 -0.3314
11747SOL    HW139603   9.333   8.931   0.425 -1.0227  1.0764 -3.5208
11747SOL    HW239604   9.198   8.891   0.479  0.6969 -0.8943 -0.4006
11748SOL     OW39605   2.675  10.788   0.965  0.1303  0.2277  0.0845
11748SOL    HW139606   2.657  10.716   1.026 -1.1928  0.0074 -0.5343
11748SOL    HW239607   2.769  10.805   0.976  0.1465 -0.5370  1.3741
11749SOL     OW39608   6.533   3.337   2.636  0.6090 -0.1415 -0.3151
11749SOL    HW139609   6.473   3.321   2.709 -0.2000  1.2551 -0.6566
11749SOL    HW239610   6.515   3.265   2.575 -0.7102  0.2333 -0.3994
11750SOL     OW39611   9.625   0.661   0.404 -0.3064  0.2051 -0.6964
11750SOL    HW139612   9.574   0.583   0.426  0.7524 -0.8462 -1.8430
11750SOL    HW239613   9.574   0.704   0.335  0.3079 -0.8224 -1.8141
11751SOL     OW39614   9.200   3.087   6.522 -0.1283 -0.1617 -0.1926
11751SOL    HW139615   9.240   3.055   6.441  1.0054  0.9620 -0.0923
11751SOL    HW239616   9.253   3.162   6.548 -0.6736 -0.2957  1.4245
11752SOL     OW39617   2.660   8.681  11.073  0.2476  0.0842  0.3723
11752SOL    HW139618   2.669   8.769  11.110  0.0337  0.2952 -0.0705
11752SOL    HW239619   2.566   8.663  11.077  0.1924  0.1973 -0.2602
11753SOL     OW39620   1.642   3.855  10.825 -0.3620  0.3916  0.3959
11753SOL    HW139621   1.688   3.851  10.909  0.1199  0.1481  0.1271
11753SOL    HW239622   1.675   3.780  10.777 -0.7009  0.4835  0.0175
11754SOL     OW39623   8.046   3.691   3.833 -0.1906  0.2915  0.2443
11754SOL    HW139624   7.983   3.620   3.842 -2.9185  2.5667  0.2493
11754SOL    HW239625   8.131   3.647   3.834 -1.7160 -2.9817 -0.2064
11755SOL     OW39626   1.761   0.037   7.233 -0.1406 -0.1228  0.0667
11755SOL    HW139627   1.804   0.117   7.204 -0.1470  0.0808  0.6095
11755SOL    HW239628   1.687   0.067   7.286  0.4115 -0.4724  1.0789
11756SOL     OW39629   5.109   9.917  10.933  0.0157 -0.6186  0.1400
11756SOL    HW139630   5.129   9.943  10.843 -0.8758  0.1916  0.1530
11756SOL    HW239631   5.038   9.854  10.924  0.2951 -0.9453  0.2450
11757SOL     OW39632   5.455   8.423   2.337  0.4673 -0.1577  0.4670
11757SOL    HW139633   5.487   8.339   2.305 -0.2015 -0.8659  1.6110
11757SOL    HW239634   5.505   8.438   2.417  0.4270  0.4376  0.3853
11758SOL     OW39635   7.652   7.054   8.903  0.2921  0.1870  0.0341
11758SOL    HW139636   7.610   7.125   8.854  1.4035 -0.1966 -1.5841
11758SOL    HW239637   7.582   7.017   8.956 -0.7727  1.2463 -0.5656
11759SOL     OW39638   3.983   0.078   7.130 -0.0125  0.3663 -0.0983
11759SOL    HW139639   3.947   0.118   7.210 -2.6791 -2.8168  0.5034
11759SOL    HW239640   3.914   0.089   7.065 -0.3528 -2.0491 -0.2205
11760SOL     OW39641   9.818   3.891   2.604 -0.0847  0.5195 -0.0519
11760SOL    HW139642   9.905   3.882   2.642  0.7905  1.6626 -1.6427
11760SOL    HW239643   9.760   3.849   2.667  1.8651 -2.7777 -0.1987
11761SOL     OW39644   9.418   1.706   7.683 -0.0207  0.6247  0.6234
11761SOL    HW139645   9.481   1.704   7.755  1.3398  0.7112 -0.5220
11761SOL    HW239646   9.403   1.799   7.667  0.2447  0.6195  0.3311
11762SOL     OW39647   7.548   6.450   9.284  0.5386  0.3916  0.1446
11762SOL    HW139648   7.585   6.376   9.235 -1.8352 -0.5839 -0.3311
11762SOL    HW239649   7.579   6.527   9.238  1.4977 -0.3722 -0.5358
11763SOL     OW39650   0.028   2.466   9.878 -0.1287 -0.3857 -0.3926
11763SOL    HW139651   0.002   2.500   9.964  0.2610 -0.2947 -0.3097
11763SOL    HW239652  -0.054   2.438   9.838 -0.1913 -1.5277  0.4853
11764SOL     OW39653   4.123  10.509   9.137  0.4154  0.4852 -0.2922
11764SOL    HW139654   4.070  10.432   9.116 -0.6833  0.2916  2.7729
11764SOL    HW239655   4.116  10.564   9.059 -0.7106 -1.4646 -1.6628
11765SOL     OW39656   9.870   1.701   7.815  0.4858 -0.0388 -0.6077
11765SOL    HW139657   9.944   1.679   7.872  0.6309  2.6159  0.3379
11765SOL    HW239658   9.907   1.703   7.727  1.6881  1.5704 -0.1109
11766SOL     OW39659   9.798   1.349   9.504 -0.4762  0.3106 -0.0124
11766SOL    HW139660   9.756   1.349   9.417  1.1535 -2.1738 -0.9218
11766SOL    HW239661   9.822   1.440   9.519  0.8842  0.5942 -3.0783
11767SOL     OW39662   4.866   4.245   8.830 -0.0918  0.3890  0.3728
11767SOL    HW139663   4.828   4.316   8.882  0.1714  0.3190  0.6625
11767SOL    HW239664   4.950   4.280   8.800 -0.0383  0.2603  0.3739
11768SOL     OW39665   6.672   5.212  10.313 -0.3771 -0.5668 -0.2818
11768SOL    HW139666   6.707   5.299  10.331  1.0013 -0.7000 -1.9925
11768SOL    HW239667   6.578   5.220  10.330 -0.6881  1.9482 -2.5134
11769SOL     OW39668   4.656   9.625   6.394 -0.3557 -0.7093 -0.0850
11769SOL    HW139669   4.699   9.655   6.313 -0.3053 -1.6098 -0.4082
11769SOL    HW239670   4.585   9.569   6.364 -0.9909 -0.2210  0.4835
11770SOL     OW39671   8.405   8.697   2.928 -0.6242 -0.4217 -0.3676
11770SOL    HW139672   8.437   8.726   3.014  0.1261  0.6508 -0.9778
11770SOL    HW239673   8.469   8.732   2.866 -1.4153 -0.7699 -1.4087
11771SOL     OW39674   9.765  10.336   8.350  0.1819 -0.6905  0.4253
11771SOL    HW139675   9.824  10.314   8.277 -1.3787 -0.6365 -0.9078
11771SOL    HW239676   9.745  10.429   8.337 -0.4234 -0.7821  0.7000
11772SOL     OW39677   4.473   5.449   5.830  0.0056  0.3956 -0.0226
11772SOL    HW139678   4.378   5.455   5.828  0.0057  1.9469  1.7963
11772SOL    HW239679   4.491   5.380   5.894  0.1399 -0.2138 -0.6962
11773SOL     OW39680   4.596   7.123   4.532 -0.1308  0.1563 -0.2899
11773SOL    HW139681   4.542   7.089   4.461 -2.0288  0.0907  1.1202
11773SOL    HW239682   4.686   7.104   4.505 -0.7339  0.6753 -2.9222
11774SOL     OW39683   8.412   4.867   7.314 -0.1885  0.1677 -0.2928
11774SOL    HW139684   8.434   4.947   7.361 -0.9769 -0.6965  1.7138
11774SOL    HW239685   8.475   4.802   7.346 -1.2078 -0.6246  0.2268
11775SOL     OW39686   5.595   5.129   5.958  0.6111 -0.0297  0.2915
11775SOL    HW139687   5.531   5.157   6.024  0.8656  0.3389  0.3860
11775SOL    HW239688   5.546   5.071   5.900 -0.0778  1.0115 -0.2061
11776SOL     OW39689   0.724   3.289   5.963 -0.3286 -1.2401  0.1370
11776SOL    HW139690   0.682   3.294   5.877  0.7146 -0.1428 -0.3405
11776SOL    HW239691   0.806   3.242   5.947 -0.4606 -1.6703  0.6820
11777SOL     OW39692  10.109   2.118  10.476  0.6194 -0.3129 -0.1986
11777SOL    HW139693  10.170   2.140  10.545  0.8752 -3.0916  0.5953
11777SOL    HW239694  10.068   2.201  10.451  0.9838  0.8747  2.8221
11778SOL     OW39695   8.062   9.936   5.722  0.0171 -0.1931  0.5765
11778SOL    HW139696   8.076   9.965   5.632 -1.5716  1.9174  0.9143
11778SOL    HW239697   8.009   9.857   5.715  0.0073 -0.1084 -0.3582
11779SOL     OW39698   6.530   1.836   1.879 -0.0685 -0.4491  0.0664
11779SOL    HW139699   6.551   1.901   1.813 -1.4330  0.8215  0.8183
11779SOL    HW239700   6.613   1.819   1.924  0.7023 -0.7312 -1.4060
11780SOL     OW39701   6.571   3.851   2.263  0.8616  0.0551 -0.0315
11780SOL    HW139702   6.589   3.795   2.339 -0.6234  0.5446  0.7335
11780SOL    HW239703   6.484   3.824   2.234  2.1810 -1.5770 -2.9430
11781SOL     OW39704  10.195   4.075   0.283 -0.3240 -0.1864 -0.1718
11781SOL    HW139705  10.238   3.998   0.321  2.2156  1.4629  0.5808
11781SOL    HW239706  10.254   4.102   0.212 -2.3248 -0.1755 -1.9295
11782SOL     OW39707   0.235  10.583   1.173  0.1596  0.2628 -0.5871
11782SOL    HW139708   0.315  10.618   1.213 -0.4990  2.3682 -0.9819
11782SOL    HW239709   0.173  10.575   1.245  0.9311 -2.1980 -0.1259
11783SOL     OW39710   9.940   3.517   1.012 -0.0274 -0.1002  0.1578
11783SOL    HW139711  10.025   3.475   1.001 -0.0445  0.1266 -0.8661
11783SOL    HW239712   9.901   3.515   0.925  0.1106  2.3644 -0.0092
11784SOL     OW39713   7.429   5.090   9.651 -0.2837 -0.6334  0.1651
11784SOL    HW139714   7.507   5.062   9.700  0.6420  0.3303 -0.6963
11784SOL    HW239715   7.424   5.184   9.667 -0.9133 -0.5895 -0.2928
11785SOL     OW39716   4.217   9.546  10.423  0.5626  0.0949 -0.1551
11785SOL    HW139717   4.247   9.483  10.489 -0.5151  0.8647  1.1394
11785SOL    HW239718   4.145   9.502  10.378 -2.9503  1.5968  3.4215
11786SOL     OW39719   3.895   0.746   2.274  0.0940  0.0914 -0.1704
11786SOL    HW139720   3.991   0.745   2.280  0.1253 -0.2458 -0.6298
11786SOL    HW239721   3.866   0.689   2.345  0.2940 -0.8811 -0.8520
11787SOL     OW39722   3.648   8.985   3.491  0.3223 -0.2214 -0.2638
11787SOL    HW139723   3.678   9.021   3.408  1.4446  0.7627  0.5437
11787SOL    HW239724   3.587   9.051   3.525  0.4932 -0.2300  0.0653
11788SOL     OW39725   1.636   1.464   2.156 -0.0316 -0.4160  0.2143
11788SOL    HW139726   1.690   1.402   2.205  2.6284  0.9381 -0.7709
11788SOL    HW239727   1.649   1.441   2.064 -1.4287 -0.2501 -0.0361
11789SOL     OW39728   7.630   2.967   1.338  0.6508 -0.4502  0.0153
11789SOL    HW139729   7.679   3.013   1.406 -1.5084 -0.7844  1.9462
11789SOL    HW239730   7.637   3.023   1.261 -0.2066  2.1376  1.6833
11790SOL     OW39731   7.490   2.187   0.747 -0.4843 -0.5297 -0.4679
11790SOL    HW139732   7.461   2.098   0.769  0.4948 -1.0103 -1.0422
11790SOL    HW239733   7.568   2.174   0.694  0.7380  0.7013  0.9307
11791SOL     OW39734   1.795   7.007   1.576 -0.1240 -0.4839  0.1982
11791SOL    HW139735   1.706   7.031   1.602 -1.8211 -4.2756 -1.3707
11791SOL    HW239736   1.806   7.046   1.489 -0.8464 -1.1572 -0.2034
11792SOL     OW39737   6.507   5.608  10.184 -0.8751 -0.0689  0.0320
11792SOL    HW139738   6.573   5.670  10.214 -1.2609  0.3440  0.0520
11792SOL    HW239739   6.546   5.565  10.108 -0.9985  0.9873 -0.6644
11793SOL     OW39740   3.479   5.196   2.688 -0.2970 -0.2424  0.2711
11793SOL    HW139741   3.443   5.229   2.771 -2.5791 -0.5642 -0.5204
11793SOL    HW239742   3.411   5.217   2.623  2.2550  1.8275 -1.9656
11794SOL     OW39743   3.332   9.983   3.366 -0.8628  0.0976 -0.4460
11794SOL    HW139744   3.379  10.064   3.345 -1.3971  0.5890  0.2036
11794SOL    HW239745   3.295   9.999   3.453 -0.8507 -0.9056 -0.2428
11795SOL     OW39746   0.073   0.240   2.167 -0.2422  0.2158  0.3857
11795SOL    HW139747   0.158   0.281   2.182 -0.8646  1.3709  0.8584
11795SOL    HW239748   0.086   0.186   2.089  0.4122  1.9660 -0.7733
11796SOL     OW39749   1.196  10.836   5.514 -0.5435 -0.1377  0.3699
11796SOL    HW139750   1.233  10.835   5.603  0.7367 -1.1988 -0.1406
11796SOL    HW239751   1.108  10.799   5.525 -1.4945  2.2798  1.5837
11797SOL     OW39752  10.499   0.460   5.305 -0.3902  0.3461 -0.6903
11797SOL    HW139753  10.591   0.466   5.330 -0.1959  0.4032 -1.4019
11797SOL    HW239754  10.460   0.541   5.337 -0.1884  0.3345 -0.4136
11798SOL     OW39755   3.586  10.427  10.886  0.7586 -0.1336 -0.0729
11798SOL    HW139756   3.597  10.512  10.927  3.0507 -0.2062 -0.3990
11798SOL    HW239757   3.566  10.446  10.794 -1.7630  0.0080  0.4376
11799SOL     OW39758   4.524   9.645  10.556 -0.6328  0.1822  0.4346
11799SOL    HW139759   4.550   9.665  10.646  0.7153  1.1200 -0.1233
11799SOL    HW239760   4.467   9.569  10.564  1.1753 -1.1229  1.9150
11800SOL     OW39761   8.430  10.366  10.914  0.2470  0.8187 -0.5752
11800SOL    HW139762   8.504  10.336  10.967 -1.2808 -0.2773  1.0824
11800SOL    HW239763   8.370  10.406  10.978 -1.6695 -0.5525 -1.4085
11801SOL     OW39764   2.496   4.577   8.992  0.1455 -0.6266 -0.4858
11801SOL    HW139765   2.421   4.613   9.039  1.3053 -0.5769  1.4143
11801SOL    HW239766   2.469   4.489   8.968 -0.4867 -0.6618  0.3028
11802SOL     OW39767   7.168   6.228   9.691  0.9358 -0.1048  0.2574
11802SOL    HW139768   7.191   6.309   9.647  0.0942 -1.4264 -2.8883
11802SOL    HW239769   7.251   6.181   9.700  1.0923  0.0799 -0.2102
11803SOL     OW39770   2.458   4.736   4.288  0.4156 -0.8273  0.1969
11803SOL    HW139771   2.405   4.692   4.222 -1.3281  1.8319 -0.3125
11803SOL    HW239772   2.548   4.709   4.268 -0.2391 -1.5285 -2.1146
11804SOL     OW39773   4.932   8.086  10.961  0.0525  0.2440 -0.0994
11804SOL    HW139774   4.849   8.082  10.914 -0.1891  0.5150  0.3018
11804SOL    HW239775   4.931   8.009  11.018  0.7861 -0.6393 -1.2517
11805SOL     OW39776   8.847   3.522   4.264  0.1649 -0.0931  0.1424
11805SOL    HW139777   8.768   3.523   4.211 -0.0532 -0.5286  0.4543
11805SOL    HW239778   8.891   3.605   4.244 -0.8086  0.5460  0.6313
11806SOL     OW39779   7.898  10.105   5.106  0.2614  0.2332 -0.1464
11806SOL    HW139780   7.808  10.077   5.124  0.8876 -0.4656  2.2560
11806SOL    HW239781   7.931  10.039   5.045 -0.2355 -0.7054  0.5671
11807SOL     OW39782   4.564   7.389   2.899 -0.3668  0.2464 -0.3879
11807SOL    HW139783   4.488   7.442   2.924 -1.4128 -1.2086 -0.3834
11807SOL    HW239784   4.605   7.365   2.982  0.7000  1.7998 -0.4111
11808SOL     OW39785   0.392   0.780   4.005  0.2033 -0.0109  0.3174
11808SOL    HW139786   0.403   0.862   3.956  0.2489  0.7033  1.4758
11808SOL    HW239787   0.302   0.754   3.990  1.0105 -1.5068 -2.6450
11809SOL     OW39788   8.698   8.155   1.919 -0.3461 -0.5749 -0.4226
11809SOL    HW139789   8.641   8.228   1.897 -0.3440 -0.6360 -0.6302
11809SOL    HW239790   8.784   8.195   1.931 -0.3939 -0.5099 -0.2966
11810SOL     OW39791   6.211   7.295   7.448  0.4497  0.1859 -0.3775
11810SOL    HW139792   6.158   7.237   7.502  0.2171  2.3987  1.9836
11810SOL    HW239793   6.267   7.236   7.398 -0.7742 -2.0789  0.7460
11811SOL     OW39794   4.055  10.353   7.710  0.1512  0.2329 -0.0345
11811SOL    HW139795   4.062  10.260   7.689 -0.2860  0.3362 -0.6669
11811SOL    HW239796   3.984  10.358   7.773  1.0557 -0.0061  1.0448
11812SOL     OW39797   5.676   2.507   3.034 -0.2878  0.2970  0.1473
11812SOL    HW139798   5.765   2.541   3.040  0.1284 -0.1504 -2.2306
11812SOL    HW239799   5.687   2.415   3.010 -1.4194 -0.2395  1.5553
11813SOL     OW39800   9.132   8.495   5.524  0.1233 -0.5301  0.3117
11813SOL    HW139801   9.217   8.484   5.567  0.2998  0.0498  0.1293
11813SOL    HW239802   9.068   8.474   5.592  0.3830  0.9443  1.0627
11814SOL     OW39803   5.082   7.727   0.333 -0.3390 -0.1499 -0.2177
11814SOL    HW139804   5.177   7.720   0.329 -0.2827  0.3405  0.1142
11814SOL    HW239805   5.051   7.687   0.252  0.2697  1.5423 -1.3451
11815SOL     OW39806   3.676   9.951   8.452 -0.8306  0.3516 -0.2192
11815SOL    HW139807   3.667  10.044   8.469  0.4889  0.1439  1.8588
11815SOL    HW239808   3.599   9.912   8.495  0.0918  0.2584  1.4117
11816SOL     OW39809   4.044   8.501   5.366 -0.4412  0.0471 -0.2367
11816SOL    HW139810   4.075   8.410   5.372  1.8119  0.6234 -1.6807
11816SOL    HW239811   3.955   8.494   5.332 -0.2427 -1.6139 -0.4978
11817SOL     OW39812   2.098   7.406   9.083 -0.4903 -1.0332  0.0968
11817SOL    HW139813   2.146   7.330   9.115 -0.8006 -1.6114 -0.7574
11817SOL    HW239814   2.166   7.471   9.064 -0.1032 -1.5304 -0.2790
11818SOL     OW39815   0.239   3.791   9.775 -0.2091 -0.2047  0.3283
11818SOL    HW139816   0.287   3.874   9.764 -0.1448  0.1645  2.8554
11818SOL    HW239817   0.264   3.739   9.698  2.2405  0.9375  0.2411
11819SOL     OW39818   1.464   4.853   5.738  0.2197  0.3395  0.0668
11819SOL    HW139819   1.531   4.791   5.709 -0.6097 -0.2395 -0.6458
11819SOL    HW239820   1.383   4.803   5.741 -0.6488  1.5665 -1.3799
11820SOL     OW39821   2.115   5.547   6.507  0.0448  0.1035  0.3193
11820SOL    HW139822   2.202   5.520   6.478 -0.2495 -0.7521  0.1731
11820SOL    HW239823   2.098   5.630   6.463  0.3336 -0.2899 -0.5532
11821SOL     OW39824   8.753   5.001  10.139  0.4040  0.0553 -1.3057
11821SOL    HW139825   8.662   5.027  10.154  0.1100 -1.3576 -0.3394
11821SOL    HW239826   8.804   5.080  10.156 -0.4804  0.2656  0.6973
11822SOL     OW39827   6.482   7.631   5.599  0.3626  0.0653 -0.1695
11822SOL    HW139828   6.411   7.681   5.640  1.5864  1.6113  0.1719
11822SOL    HW239829   6.497   7.676   5.516  0.9941 -0.2014 -0.2007
11823SOL     OW39830   8.028   0.520   4.534 -1.1003 -0.6447  0.4830
11823SOL    HW139831   8.061   0.610   4.522 -0.6605 -0.8145  0.3898
11823SOL    HW239832   7.939   0.522   4.498 -1.9986  0.3536  2.6005
11824SOL     OW39833   0.910   3.385   5.337 -0.5812  0.3767 -0.4340
11824SOL    HW139834   0.988   3.359   5.289 -1.2890 -0.4953 -1.1603
11824SOL    HW239835   0.878   3.463   5.292 -0.1798  0.6844 -0.1868
11825SOL     OW39836   2.289   7.297   2.605  0.5708 -0.0416 -0.3729
11825SOL    HW139837   2.233   7.349   2.663 -0.3777 -3.5113  2.1586
11825SOL    HW239838   2.238   7.287   2.525 -0.7384  0.1493  0.4017
11826SOL     OW39839   6.412  10.581   2.315  0.4606 -0.2552  0.0937
11826SOL    HW139840   6.348  10.552   2.250 -0.5131  0.3847  0.7202
11826SOL    HW239841   6.359  10.604   2.392  1.4202  0.5436  0.5484
11827SOL     OW39842   3.131   4.538   9.226 -0.4640  0.6192 -0.0752
11827SOL    HW139843   3.048   4.532   9.274  0.3951  0.4509  1.4594
11827SOL    HW239844   3.125   4.470   9.159 -0.2875 -1.7645  2.1332
11828SOL     OW39845   9.230   2.870   5.968  0.2750  0.6492 -0.5184
11828SOL    HW139846   9.272   2.784   5.971  1.2165  1.1142  2.6040
11828SOL    HW239847   9.145   2.853   5.926 -0.1998 -2.1069  1.2759
11829SOL     OW39848   7.894   5.575   0.652  0.1732  0.3852 -0.4524
11829SOL    HW139849   7.938   5.552   0.570  0.2108  0.8020 -0.5506
11829SOL    HW239850   7.959   5.626   0.700 -0.6514  2.2131 -1.1899
11830SOL     OW39851   8.620   5.095   4.893  0.4017 -0.2662 -0.0412
11830SOL    HW139852   8.541   5.094   4.948  1.3480  0.2428  1.3746
11830SOL    HW239853   8.623   5.183   4.857  0.3113 -0.2976 -0.1270
11831SOL     OW39854   1.822   6.511  10.501  0.2847 -0.0665 -0.3523
11831SOL    HW139855   1.839   6.604  10.516 -0.9810  0.0574  0.4281
11831SOL    HW239856   1.819   6.503  10.405  0.9496  0.5760 -0.4404
11832SOL     OW39857   2.425   1.912   8.278  0.1278 -0.2183 -0.5500
11832SOL    HW139858   2.333   1.914   8.254 -0.4023  0.8730  1.4064
11832SOL    HW239859   2.435   1.830   8.327  0.0008  0.0125 -0.1279
11833SOL     OW39860  11.102   6.002   8.267  0.4396  0.2434 -0.4822
11833SOL    HW139861  11.109   6.081   8.320  1.5515  0.5829 -1.1132
11833SOL    HW239862  11.068   5.936   8.328 -0.1090  1.0815  0.1507
11834SOL     OW39863   6.286   0.547   9.350  0.8053  0.3576  0.0767
11834SOL    HW139864   6.211   0.560   9.408 -0.2675  1.4353 -1.4704
11834SOL    HW239865   6.348   0.495   9.402 -0.6620  0.1158  1.6777
11835SOL     OW39866   4.128   7.591   2.780  0.6439  0.4359  0.7988
11835SOL    HW139867   4.131   7.515   2.839  0.7862  0.4273  0.7823
11835SOL    HW239868   4.051   7.576   2.725  0.2987  0.6286  1.2257
11836SOL     OW39869   8.267   1.677   8.408  0.3326  0.2865  0.5223
11836SOL    HW139870   8.318   1.737   8.462 -0.6778 -0.8524  2.8876
11836SOL    HW239871   8.185   1.664   8.456 -1.4826  0.6330 -2.2426
11837SOL     OW39872   6.016   7.595   8.107 -0.4131 -0.0059  0.3442
11837SOL    HW139873   6.076   7.649   8.057 -0.0720  0.8020  1.5949
11837SOL    HW239874   5.929   7.631   8.089 -0.2321  0.6636  0.7890
11838SOL     OW39875   6.208   2.677   2.905 -0.3137  0.3844 -0.1824
11838SOL    HW139876   6.199   2.617   2.980  0.9603 -0.7112 -0.8568
11838SOL    HW239877   6.138   2.740   2.917 -0.6605 -0.2473  1.4933
11839SOL     OW39878   9.608   9.958   9.220 -0.8239  0.1009 -0.1901
11839SOL    HW139879   9.654   9.906   9.286  2.3384  1.8552 -0.7965
11839SOL    HW239880   9.599  10.044   9.259 -0.1328  0.8032 -1.5232
11840SOL     OW39881   0.117   0.313  10.867  0.2341 -0.2705  0.2039
11840SOL    HW139882   0.157   0.324  10.953  1.4604  0.1218 -0.3802
11840SOL    HW239883   0.163   0.238  10.829  0.9016  0.5885 -0.7369
11841SOL     OW39884   2.827   3.626   4.744  0.3559 -0.6546  0.0532
11841SOL    HW139885   2.786   3.547   4.711  0.8593 -1.2697  0.8730
11841SOL    HW239886   2.756   3.675   4.785  0.0554 -0.7033 -0.4057
11842SOL     OW39887   2.287   4.375  10.989 -0.0912  0.0362  0.0213
11842SOL    HW139888   2.337   4.394  10.909  0.4793 -0.9161  0.1414
11842SOL    HW239889   2.289   4.279  10.996 -1.1066  0.0423  0.5663
11843SOL     OW39890   7.327   2.338   6.240 -0.6177  0.4603 -0.0089
11843SOL    HW139891   7.313   2.426   6.204  2.0955  0.8129 -0.3638
11843SOL    HW239892   7.408   2.308   6.199 -0.9961 -1.8612  0.8094
11844SOL     OW39893   7.872   6.295   9.692  0.0034 -0.9464  0.2549
11844SOL    HW139894   7.788   6.324   9.658  0.3647 -0.5004 -0.2556
11844SOL    HW239895   7.878   6.203   9.665  0.1514 -0.6837 -0.6394
11845SOL     OW39896   9.565  10.951  10.777  0.2442  0.5807  0.0389
11845SOL    HW139897   9.582  10.998  10.696 -2.6314 -0.3763 -1.2348
11845SOL    HW239898   9.649  10.954  10.824  2.0740  1.0351 -2.9803
11846SOL     OW39899   7.618   8.425   9.756 -0.1208 -0.6734  0.0642
11846SOL    HW139900   7.576   8.434   9.842 -1.4819  1.1768 -0.7367
11846SOL    HW239901   7.545   8.413   9.695  0.8610 -2.5463 -0.8035
11847SOL     OW39902   9.928   7.350   0.963 -0.5135 -0.1796 -0.0767
11847SOL    HW139903   9.970   7.286   0.904 -1.0419  0.1311 -0.8082
11847SOL    HW239904   9.890   7.415   0.904 -0.7910  0.3076  0.6325
11848SOL     OW39905   3.769   6.398   0.278 -0.8377 -0.5260 -0.0212
11848SOL    HW139906   3.708   6.339   0.234 -1.3301 -1.8342  2.2182
11848SOL    HW239907   3.719   6.434   0.352 -0.5076  2.6622 -1.1748
11849SOL     OW39908   5.942   0.383   3.497  0.2365 -0.1538  0.3347
11849SOL    HW139909   6.022   0.336   3.476  0.7461  0.9560 -0.2616
11849SOL    HW239910   5.971   0.472   3.519 -0.9391  0.7576 -1.5438
11850SOL     OW39911  10.055   8.219   0.900  0.3646 -0.9752  0.5996
11850SOL    HW139912   9.985   8.282   0.921  0.2615  0.3594 -3.0805
11850SOL    HW239913  10.135   8.270   0.908  0.6715 -1.6008  1.6522
11851SOL     OW39914   8.805   6.762   5.281  0.7064  0.2913  0.9834
11851SOL    HW139915   8.791   6.807   5.197  0.9069 -0.2001  0.6843
11851SOL    HW239916   8.795   6.669   5.260  1.8511  0.0848  1.2790
11852SOL     OW39917   4.194  10.279   2.651 -0.2889 -0.6408 -0.0248
11852SOL    HW139918   4.271  10.335   2.656 -1.8750  1.6346  0.5072
11852SOL    HW239919   4.206  10.214   2.720  0.8821  0.0199  0.4164
11853SOL     OW39920   1.573   6.589   3.081  0.0613  0.7728  0.4692
11853SOL    HW139921   1.656   6.558   3.044 -0.4284  1.8824 -1.7305
11853SOL    HW239922   1.590   6.680   3.104 -0.7094  1.2441 -0.7195
11854SOL     OW39923   4.638   8.894   7.748  0.1651  0.0455  0.1656
11854SOL    HW139924   4.636   8.804   7.779  0.8129 -0.2812 -0.6794
11854SOL    HW239925   4.547   8.923   7.750 -0.1711 -0.9318 -0.3796
11855SOL     OW39926   0.212   1.768   7.409  0.3042 -0.2147 -0.1874
11855SOL    HW139927   0.265   1.830   7.459 -0.2715 -0.5108  0.8205
11855SOL    HW239928   0.205   1.691   7.466 -1.8779  0.1282  0.0662
11856SOL     OW39929   3.064   7.072   1.739 -0.1469 -0.6119  0.0009
11856SOL    HW139930   3.081   7.129   1.664 -0.7360  0.3594  0.5789
11856SOL    HW239931   3.141   7.080   1.795 -0.6924  0.5344  0.6239
11857SOL     OW39932  10.614   7.488   7.473  0.0426 -0.5467  0.4884
11857SOL    HW139933  10.538   7.506   7.529  0.1642 -0.7046  0.7052
11857SOL    HW239934  10.641   7.400   7.497  1.6923  0.3047  2.0747
11858SOL     OW39935   7.618   6.213   4.168  0.2138 -0.3968 -0.1491
11858SOL    HW139936   7.613   6.233   4.261 -0.2682 -3.0724  0.4799
11858SOL    HW239937   7.529   6.191   4.143  0.5995 -1.2571 -0.8353
11859SOL     OW39938   8.102   7.235   4.371 -0.2119  0.1992  0.0186
11859SOL    HW139939   8.133   7.295   4.303 -1.0613  0.2297 -0.3495
11859SOL    HW239940   8.123   7.279   4.453 -0.5474  0.8571 -0.2419
11860SOL     OW39941   1.967   7.639   9.768 -0.3834 -0.5280 -0.8036
11860SOL    HW139942   2.017   7.604   9.842  0.7053  1.0178 -0.7421
11860SOL    HW239943   2.032   7.689   9.718 -1.4199 -0.3343 -1.9958
11861SOL     OW39944   2.098   9.151   7.593 -0.0103 -0.1044  0.2520
11861SOL    HW139945   2.022   9.145   7.536  0.5585  0.1800 -0.5553
11861SOL    HW239946   2.094   9.240   7.628  0.9688  0.5839 -1.2865
11862SOL     OW39947   9.772   1.932   3.819  0.2843 -0.0262  0.1574
11862SOL    HW139948   9.866   1.917   3.804 -0.1283 -3.3666  0.1802
11862SOL    HW239949   9.748   1.869   3.887 -1.8554  1.3540  0.7776
11863SOL     OW39950  10.737   2.424   3.245  0.1406 -0.3049 -0.2267
11863SOL    HW139951  10.801   2.353   3.242 -1.1589 -1.5100 -0.3676
11863SOL    HW239952  10.668   2.391   3.303 -0.6424  0.7153 -0.5647
11864SOL     OW39953   6.817   7.982   5.953 -0.4119  0.1221  0.0925
11864SOL    HW139954   6.728   7.948   5.962 -0.1917 -0.3347  0.6325
11864SOL    HW239955   6.873   7.905   5.959  0.0107  0.3681 -0.5445
11865SOL     OW39956   3.892   8.184   7.566  0.3817 -0.4179 -0.3829
11865SOL    HW139957   3.852   8.183   7.654  1.9909 -0.7256  0.3850
11865SOL    HW239958   3.881   8.095   7.534  0.6723 -0.5772 -0.0537
11866SOL     OW39959   0.072   6.512   8.299 -0.0440 -0.0697  0.5665
11866SOL    HW139960   0.128   6.436   8.281 -0.7101 -0.3261 -0.5301
11866SOL    HW239961   0.042   6.540   8.213 -2.6601 -0.7488  1.1475
11867SOL     OW39962   8.058   9.260   0.102  0.1633  0.4190 -0.0895
11867SOL    HW139963   8.089   9.259   0.012 -0.7430  0.2560 -0.4095
11867SOL    HW239964   7.963   9.257   0.095  0.0840  0.2403  0.8769
11868SOL     OW39965   4.470   9.788   3.830 -0.1062  0.0134 -0.0127
11868SOL    HW139966   4.539   9.813   3.769  0.6273 -3.2758 -0.7391
11868SOL    HW239967   4.489   9.837   3.910  1.4997  1.1454 -1.0364
11869SOL     OW39968   2.569   8.635   9.395  0.0189 -0.4884 -0.6450
11869SOL    HW139969   2.630   8.579   9.346  2.8246  1.0003  0.8722
11869SOL    HW239970   2.580   8.607   9.486  0.6674  1.7129  0.0030
11870SOL     OW39971   0.019   5.277  10.645 -0.1332  0.3069  0.5597
11870SOL    HW139972  -0.065   5.255  10.605  0.4787 -0.5311 -0.3118
11870SOL    HW239973   0.084   5.231  10.592  1.1947  3.4513 -0.8075
11871SOL     OW39974   6.944   6.167   9.090 -0.4473 -0.1432 -0.4121
11871SOL    HW139975   6.949   6.159   8.995 -0.5952  0.1058 -0.4403
11871SOL    HW239976   6.870   6.112   9.115 -0.5506 -0.0260 -0.4621
11872SOL     OW39977   1.511   0.454   2.430 -0.0473 -0.1987  0.2200
11872SOL    HW139978   1.420   0.430   2.414 -0.4707  2.3337 -1.8797
11872SOL    HW239979   1.562   0.376   2.407 -1.5762 -1.0387 -0.4313
11873SOL     OW39980   3.448   8.669  10.498  0.7568 -0.0980  0.7829
11873SOL    HW139981   3.387   8.718  10.442  0.5109 -2.2541 -0.9783
11873SOL    HW239982   3.528   8.663  10.446  0.0724 -3.3628 -0.0917
11874SOL     OW39983   2.428   2.081   5.888 -0.2175  0.0018  0.4080
11874SOL    HW139984   2.443   2.075   5.982 -0.4679  0.0492  0.4529
11874SOL    HW239985   2.333   2.093   5.879 -0.1149  0.7319  0.1886
11875SOL     OW39986   6.906   2.135   0.558 -0.0146  0.6229 -0.1869
11875SOL    HW139987   6.828   2.105   0.511  0.5262 -1.2805  0.0493
11875SOL    HW239988   6.874   2.164   0.643 -0.4550 -0.2094 -0.0679
11876SOL     OW39989   4.980   4.152   7.314  0.3737  0.3083 -0.0989
11876SOL    HW139990   4.983   4.123   7.405  0.8466  1.5503  0.3009
11876SOL    HW239991   5.061   4.118   7.275  0.4504  0.2613  0.1022
11877SOL     OW39992   0.261   6.627   1.405 -0.2620 -0.8030 -0.4232
11877SOL    HW139993   0.201   6.562   1.443  0.1263  0.4472  2.6153
11877SOL    HW239994   0.205   6.703   1.388  0.3936  0.8806  3.7176
11878SOL     OW39995   4.098   9.491   7.041  0.1338 -0.4304 -0.0426
11878SOL    HW139996   4.124   9.401   7.061 -1.1852 -0.9472 -0.5362
11878SOL    HW239997   4.141   9.511   6.958  2.0060  0.1321  0.9892
11879SOL     OW39998   9.410   7.259   0.705 -0.6478 -0.1613 -0.3292
11879SOL    HW139999   9.359   7.179   0.706  1.4982 -1.6264 -1.4143
11879SOL    HW240000   9.379   7.308   0.629 -1.8940  0.0405  0.2831
11880SOL     OW40001   2.081  10.940   8.373 -0.1823  0.1105  0.5499
11880SOL    HW140002   2.137  10.864   8.359 -0.3032  0.3415 -1.5862
11880SOL    HW240003   2.067  10.976   8.285 -0.9583  2.0081  1.3890
11881SOL     OW40004   3.427  11.018   9.696  0.1272 -0.1834  0.6654
11881SOL    HW140005   3.368  11.091   9.677 -1.0430 -0.8848  1.4885
11881SOL    HW240006   3.405  10.953   9.630 -0.0537 -0.4679  1.0067
11882SOL     OW40007   0.174   7.902   0.260  0.7771  0.1115 -0.1129
11882SOL    HW140008   0.090   7.858   0.269  0.0872  1.7952  4.6566
11882SOL    HW240009   0.165   7.957   0.183 -1.3257 -1.8026 -1.3557
11883SOL     OW40010   9.949   9.001   6.909 -0.1132 -0.0434  0.0092
11883SOL    HW140011   9.942   8.905   6.908  0.0972 -0.0805  1.2153
11883SOL    HW240012   9.881   9.030   6.848 -2.4855 -0.8499  2.1228
11884SOL     OW40013   0.342   3.857   7.377  0.1286  0.7862  0.0246
11884SOL    HW140014   0.364   3.946   7.403  1.6483  0.5780 -0.4411
11884SOL    HW240015   0.323   3.862   7.284 -1.8138  0.9295  0.3760
11885SOL     OW40016   3.745   9.400   5.843  0.5504  0.1209 -0.3443
11885SOL    HW140017   3.816   9.354   5.799 -1.1048 -0.5735 -2.4698
11885SOL    HW240018   3.729   9.477   5.789  0.8027  1.2536  1.1048
11886SOL     OW40019   1.315   5.686   6.015 -0.2842  0.2224 -0.0896
11886SOL    HW140020   1.391   5.709   6.069 -0.2625 -0.9686  0.4277
11886SOL    HW240021   1.349   5.627   5.949 -0.7865 -0.4941  0.2787
11887SOL     OW40022   6.275   0.467   4.030  0.8200  0.6327  0.2308
11887SOL    HW140023   6.303   0.406   4.098  1.9916  0.1493 -0.6495
11887SOL    HW240024   6.353   0.519   4.011  0.4518  0.8993 -0.5918
11888SOL     OW40025   7.009   5.161   5.526  0.6867 -0.1383 -0.0985
11888SOL    HW140026   7.008   5.183   5.619  0.7133  0.0768 -0.1502
11888SOL    HW240027   6.998   5.066   5.524  0.3724 -0.1065  0.1109
11889SOL     OW40028   5.653   7.746   4.791  0.3869 -0.3707  0.4506
11889SOL    HW140029   5.747   7.733   4.791  0.5960  0.8336 -0.9015
11889SOL    HW240030   5.623   7.706   4.709 -0.0759  0.4208  0.2241
11890SOL     OW40031   7.926   1.248   5.652 -0.6713  0.7680  0.0321
11890SOL    HW140032   7.884   1.316   5.705 -0.7900 -0.2280  1.2456
11890SOL    HW240033   7.967   1.296   5.580  0.6343  2.2989  1.7271
11891SOL     OW40034   1.449   5.985   5.927 -0.1629 -0.3051  0.1803
11891SOL    HW140035   1.427   5.895   5.953 -0.5861 -1.0743 -2.5288
11891SOL    HW240036   1.450   5.983   5.832 -0.1833  2.6059  0.0229
11892SOL     OW40037   3.843   3.469   2.375 -0.1301 -0.2412  0.2189
11892SOL    HW140038   3.804   3.395   2.328 -0.3100 -0.2513  0.3827
11892SOL    HW240039   3.898   3.513   2.310 -0.0735 -0.4809  0.1041
11893SOL     OW40040   1.644   6.948   7.530  0.0330 -0.1989  0.3179
11893SOL    HW140041   1.667   6.973   7.620 -1.5706 -0.6195  0.8944
11893SOL    HW240042   1.714   6.889   7.503  0.1309 -0.7130  1.6062
11894SOL     OW40043   6.662   2.428   6.882  0.2265  0.0536  0.0200
11894SOL    HW140044   6.678   2.383   6.799 -0.6963  1.1980 -0.8240
11894SOL    HW240045   6.666   2.359   6.948  0.1766 -1.0296 -1.0643
11895SOL     OW40046   5.413  10.183   5.849  0.2586  0.2289 -0.3782
11895SOL    HW140047   5.419  10.237   5.927 -1.9216 -0.2116  0.1625
11895SOL    HW240048   5.361  10.235   5.787  0.4312 -0.1513 -0.8554
11896SOL     OW40049   3.450   4.632  10.634 -0.0588  0.3486  0.2491
11896SOL    HW140050   3.363   4.645  10.671  0.5703  0.9044  1.6076
11896SOL    HW240051   3.467   4.711  10.584 -1.0362 -0.5333 -1.5819
11897SOL     OW40052   8.011   5.853   1.492 -0.2574  0.0294  0.0948
11897SOL    HW140053   8.014   5.884   1.402 -0.7537  1.5840  0.5811
11897SOL    HW240054   7.920   5.828   1.507  0.1468 -1.9000 -0.3199
11898SOL     OW40055   3.463   0.883   4.166  0.2119  0.4860  0.4228
11898SOL    HW140056   3.486   0.809   4.109  0.0175  0.0988  0.8323
11898SOL    HW240057   3.547   0.919   4.194  0.3088  0.9511 -0.4419
11899SOL     OW40058   3.787   5.531   7.646 -0.6163 -0.0534 -0.0812
11899SOL    HW140059   3.845   5.491   7.711 -0.8268  0.7647  0.6278
11899SOL    HW240060   3.845   5.558   7.575 -0.1246  0.6750  0.5815
11900SOL     OW40061   4.947   8.315   6.336  0.6409 -0.2581 -0.0716
11900SOL    HW140062   4.935   8.264   6.257 -1.0996  1.5424 -1.0525
11900SOL    HW240063   4.976   8.401   6.306 -1.3222  0.8856  1.0741
11901SOL     OW40064   0.017   6.791   8.622 -0.4507  0.6613  0.3357
11901SOL    HW140065  -0.005   6.704   8.655 -0.2925  0.5800  0.2249
11901SOL    HW240066  -0.037   6.801   8.543 -0.5843  0.7262  0.4336
11902SOL     OW40067   9.762   5.218   2.591 -0.0433  0.2167 -0.0295
11902SOL    HW140068   9.775   5.288   2.654  0.8647  0.0876 -0.0656
11902SOL    HW240069   9.667   5.206   2.588 -0.0842 -0.1621  1.7228
11903SOL     OW40070   5.780   0.038   8.143 -0.0349  0.8026 -0.2646
11903SOL    HW140071   5.842   0.090   8.091  0.6947 -1.1652 -1.4513
11903SOL    HW240072   5.817   0.039   8.231  1.5922 -0.1289 -0.9021
11904SOL     OW40073   4.558  10.284   4.488  0.2035  0.5633 -0.3527
11904SOL    HW140074   4.482  10.334   4.459 -0.3527 -0.3663 -0.5440
11904SOL    HW240075   4.633  10.327   4.447 -0.4527 -0.0642 -2.3426
11905SOL     OW40076   6.070   8.747   6.214 -0.2787 -1.1867  0.4934
11905SOL    HW140077   6.096   8.664   6.253 -0.1547 -1.3785  0.0074
11905SOL    HW240078   6.025   8.794   6.285 -0.8899 -1.9143  0.5942
11906SOL     OW40079   2.214   9.323   6.267  0.2833 -0.3654 -0.1436
11906SOL    HW140080   2.278   9.386   6.300 -1.1025  0.5524  0.9706
11906SOL    HW240081   2.156   9.376   6.211  0.4337 -1.1458 -1.0488
11907SOL     OW40082   1.153   5.744   3.980 -0.6080  0.0632  0.5410
11907SOL    HW140083   1.066   5.718   3.950 -1.2235  0.8569  1.5660
11907SOL    HW240084   1.162   5.834   3.949 -0.4233  0.2060  1.0166
11908SOL     OW40085   7.196   3.400   2.193 -0.2776  0.3561  0.4461
11908SOL    HW140086   7.276   3.384   2.143 -0.7962 -1.9071  0.2210
11908SOL    HW240087   7.222   3.392   2.284 -0.3300 -1.0624  0.3578
11909SOL     OW40088   6.274   8.314   9.479 -0.0965  0.1516  0.6614
11909SOL    HW140089   6.280   8.316   9.384 -1.4760 -0.2295  0.5379
11909SOL    HW240090   6.364   8.311   9.510  0.3564  0.0424 -0.6372
11910SOL     OW40091  10.956  10.893  10.254 -0.6420  0.4982 -0.2525
11910SOL    HW140092  10.881  10.882  10.197 -0.5964 -1.1509 -0.0363
11910SOL    HW240093  10.977  10.986  10.249 -1.7948  0.7117 -1.4337
11911SOL     OW40094   3.701   5.808   8.786  0.2663  0.4888  0.0886
11911SOL    HW140095   3.726   5.724   8.826 -2.8364 -0.0946  1.1255
11911SOL    HW240096   3.729   5.800   8.695  0.6413 -1.4174  0.3211
11912SOL     OW40097   8.565  10.987   8.776 -0.1419  0.4317  0.3577
11912SOL    HW140098   8.596  10.914   8.830 -0.5418  0.6296  0.8747
11912SOL    HW240099   8.543  10.947   8.692 -0.3974 -0.0600  0.6478
11913SOL     OW40100   8.883   3.956   0.453 -0.2117  0.4101 -0.2117
11913SOL    HW140101   8.905   3.863   0.456 -0.4317  0.3743  0.5377
11913SOL    HW240102   8.966   4.000   0.473 -0.3775  0.3308  0.6978
11914SOL     OW40103   7.614   6.006   2.893 -0.1109 -0.7112  0.0545
11914SOL    HW140104   7.519   6.010   2.879 -0.1738 -1.5848  0.1418
11914SOL    HW240105   7.651   5.988   2.807 -0.2959 -3.4703  0.4416
11915SOL     OW40106   1.655   2.100   5.430  0.5081  0.1626 -0.5356
11915SOL    HW140107   1.696   2.093   5.344 -0.5065  1.3305 -1.1396
11915SOL    HW240108   1.588   2.032   5.430  0.6393  0.0333 -0.5939
11916SOL     OW40109   6.886  10.189   3.280 -0.4265  0.2590 -0.1204
11916SOL    HW140110   6.831  10.134   3.336 -1.4214 -0.6999 -1.9658
11916SOL    HW240111   6.909  10.133   3.206  1.3381  1.3090 -0.4329
11917SOL     OW40112   3.250   8.750   8.144  0.1167  0.4185 -0.3847
11917SOL    HW140113   3.222   8.806   8.216 -1.2608 -0.2526 -0.3758
11917SOL    HW240114   3.269   8.811   8.072  1.7205  1.1123  0.5664
11918SOL     OW40115   8.728   3.861  10.053 -0.6999 -0.0754  0.3253
11918SOL    HW140116   8.777   3.926  10.103  0.8567 -0.5836 -0.4679
11918SOL    HW240117   8.711   3.903   9.969  0.1432 -0.5786 -0.1185
11919SOL     OW40118   4.226   6.520   6.870 -0.0238 -0.6540  0.4027
11919SOL    HW140119   4.192   6.475   6.794  0.1887  0.0273 -0.1117
11919SOL    HW240120   4.263   6.451   6.925 -0.2216 -1.1541 -0.0866
11920SOL     OW40121   4.928   8.147   4.325 -0.1951 -0.3190  0.4896
11920SOL    HW140122   4.940   8.098   4.244 -1.8993 -1.1979  0.7322
11920SOL    HW240123   4.897   8.233   4.296  0.5363 -0.1438  0.1778
11921SOL     OW40124   1.523   5.352   2.511 -0.6630  0.6196 -0.0185
11921SOL    HW140125   1.539   5.309   2.427  0.4981  0.4715  0.2664
11921SOL    HW240126   1.429   5.341   2.526 -0.3696 -2.0782  0.1818
11922SOL     OW40127   1.000   2.326   0.811 -0.2503 -0.2835  0.2460
11922SOL    HW140128   0.999   2.260   0.880  2.0566 -0.3434  0.2950
11922SOL    HW240129   0.975   2.278   0.732 -1.0744 -0.6296  0.7072
11923SOL     OW40130   7.790  11.117  10.014 -0.1464  0.7853  0.3148
11923SOL    HW140131   7.807  11.179   9.943 -0.2385  0.8493  0.3473
11923SOL    HW240132   7.696  11.097  10.006 -0.0762  0.5025  0.1867
11924SOL     OW40133  10.193  10.321   9.173  0.0337 -0.3219  0.1454
11924SOL    HW140134  10.204  10.231   9.202  1.1521  0.1342  1.2263
11924SOL    HW240135  10.114  10.320   9.120  0.8659 -2.2443 -1.1615
11925SOL     OW40136  10.636   3.902   6.250 -0.1966 -0.2980 -0.3587
11925SOL    HW140137  10.717   3.951   6.262 -0.4374  0.3483 -1.2552
11925SOL    HW240138  10.586   3.917   6.330  1.0915 -1.7853  0.7978
11926SOL     OW40139   9.960  10.036   8.855  0.3392  0.0657  0.4835
11926SOL    HW140140   9.923  10.125   8.856 -1.3288 -0.5762 -0.3521
11926SOL    HW240141   9.887   9.980   8.881  0.7222 -1.2649 -1.1634
11927SOL     OW40142   5.469  10.877  10.161 -0.1577 -0.4378 -0.4876
11927SOL    HW140143   5.382  10.888  10.122  0.2351 -0.5665 -1.4323
11927SOL    HW240144   5.527  10.924  10.102  0.2271  1.0932  1.0475
11928SOL     OW40145   4.909   0.017   3.396 -0.3061  0.0163  0.3635
11928SOL    HW140146   4.956   0.000   3.314 -0.0515  1.2539  0.2347
11928SOL    HW240147   4.819  -0.010   3.378 -0.2136  0.1262 -0.2861
11929SOL     OW40148   8.739   6.832   5.924  0.7472  0.7684  0.5563
11929SOL    HW140149   8.656   6.819   5.878  0.6391 -3.0113  1.4886
11929SOL    HW240150   8.805   6.835   5.854  0.1514 -0.1417 -0.0597
11930SOL     OW40151   6.600  10.553   9.147  0.0966 -0.0446  0.1095
11930SOL    HW140152   6.605  10.472   9.197 -0.0184 -0.0195  0.1627
11930SOL    HW240153   6.564  10.526   9.062 -3.4035  0.4272  1.2890
11931SOL     OW40154   3.242   5.145   4.663  0.0127 -0.0323  0.3219
11931SOL    HW140155   3.195   5.194   4.730  0.5502  1.7285 -0.5266
11931SOL    HW240156   3.258   5.060   4.702 -1.5598  0.2106  1.6066
11932SOL     OW40157   5.914   3.703   4.033 -0.3311  0.5799  0.2089
11932SOL    HW140158   5.920   3.774   4.097 -0.9695  0.2198  0.6900
11932SOL    HW240159   5.844   3.730   3.974  0.9090  1.3658 -0.9461
11933SOL     OW40160  10.976  10.243   4.926  0.0655 -0.5008  0.0385
11933SOL    HW140161  11.063  10.202   4.923  1.0275  1.4951 -1.3977
11933SOL    HW240162  10.915  10.169   4.934  1.6891 -2.2977 -2.4168
11934SOL     OW40163   4.672   2.093   3.079 -0.4819 -0.2772 -0.0011
11934SOL    HW140164   4.592   2.052   3.113 -0.3280 -0.9528 -0.4368
11934SOL    HW240165   4.718   2.123   3.157 -1.7908  1.3396  0.2010
11935SOL     OW40166   6.273   4.201  10.006  0.1860  0.0885 -0.4141
11935SOL    HW140167   6.299   4.169   9.919 -1.9871 -0.0619 -1.0728
11935SOL    HW240168   6.254   4.294   9.992 -0.6168 -0.0431 -0.2072
11936SOL     OW40169   6.082   7.009   4.397 -0.4124 -0.3239  0.2201
11936SOL    HW140170   6.129   6.926   4.411 -2.0810 -1.8780 -2.4715
11936SOL    HW240171   6.148   7.068   4.361  0.6722 -0.6410  1.5987
11937SOL     OW40172   8.181   2.933  10.264  0.4178  0.0886 -0.1387
11937SOL    HW140173   8.137   2.848  10.254  0.5410 -0.0599  0.5321
11937SOL    HW240174   8.122   2.996  10.222 -0.0356 -0.2255  0.0277
11938SOL     OW40175  10.789   6.810   3.474 -0.3295  0.0105 -0.4146
11938SOL    HW140176  10.861   6.851   3.426  0.8023 -1.2817  0.0914
11938SOL    HW240177  10.776   6.725   3.430  0.4887 -1.0464  1.2629
11939SOL     OW40178   9.614  10.950   0.038 -0.0794  0.1868 -0.0422
11939SOL    HW140179   9.534  10.999   0.054  0.5319  0.8330  1.2242
11939SOL    HW240180   9.664  11.005  -0.023 -0.2136  0.2332 -0.1096
11940SOL     OW40181   3.554   4.761   4.614  0.2091 -0.1450 -0.6315
11940SOL    HW140182   3.573   4.808   4.533 -2.3771  1.2462 -0.5481
11940SOL    HW240183   3.496   4.690   4.588  0.1519 -0.2839 -0.1325
11941SOL     OW40184   8.628   3.598   7.680 -0.3582  0.4269 -0.2165
11941SOL    HW140185   8.654   3.536   7.613 -1.3925  0.9656 -1.1468
11941SOL    HW240186   8.694   3.668   7.675  1.6102 -1.1402  1.7520
11942SOL     OW40187   8.546  10.815   4.803 -0.4458 -0.1514 -0.8316
11942SOL    HW140188   8.460  10.792   4.839 -1.0399  1.8643 -0.8839
11942SOL    HW240189   8.556  10.757   4.727 -1.4866 -0.8027 -0.4970
11943SOL     OW40190   7.657  10.868   0.262  0.6103 -0.0132  0.5138
11943SOL    HW140191   7.593  10.901   0.199  0.5218 -0.2869  0.4559
11943SOL    HW240192   7.733  10.845   0.208  0.6322 -0.0005  0.5394
11944SOL     OW40193  10.077   7.557   1.124 -0.0519  0.0550 -0.2092
11944SOL    HW140194  10.045   7.499   1.055  0.9939  0.8463 -1.3924
11944SOL    HW240195  10.081   7.501   1.202 -0.0391 -1.1981 -1.0806
11945SOL     OW40196   9.902   9.556   8.418 -0.0593 -0.5472 -0.0114
11945SOL    HW140197   9.866   9.508   8.344  0.6566 -1.9232  0.4904
11945SOL    HW240198   9.902   9.493   8.490  1.7426 -0.1080  0.4445
11946SOL     OW40199   1.686   4.524   3.646 -0.2801  0.0372 -0.0584
11946SOL    HW140200   1.651   4.519   3.735 -0.3243  0.5367 -0.0446
11946SOL    HW240201   1.628   4.587   3.602 -0.2510 -0.2007 -0.4341
11947SOL     OW40202   5.139   6.892   7.920  0.4053  0.1975  0.0263
11947SOL    HW140203   5.163   6.975   7.961  1.4124 -0.8998  1.7843
11947SOL    HW240204   5.219   6.862   7.877  0.2243 -0.1445 -0.0797
11948SOL     OW40205   0.887   5.292   2.519 -0.1652 -0.2683 -0.5108
11948SOL    HW140206   0.836   5.214   2.495 -2.9473  0.9071  1.1058
11948SOL    HW240207   0.839   5.365   2.478  1.5202  0.7424 -0.7601
11949SOL     OW40208   8.831   9.008   9.930  0.2926  0.5331 -0.0700
11949SOL    HW140209   8.901   9.073   9.927  0.1804  0.6480 -0.2073
11949SOL    HW240210   8.870   8.933   9.974  0.2690  0.8765  0.5449
11950SOL     OW40211   0.488   2.299   7.357  0.5238 -0.4119  0.7510
11950SOL    HW140212   0.411   2.353   7.337 -0.4729 -1.1690  2.3215
11950SOL    HW240213   0.513   2.326   7.446  0.7151 -1.7024  1.1113
11951SOL     OW40214   2.704  10.833   8.893 -0.2413 -0.2494 -0.0062
11951SOL    HW140215   2.774  10.844   8.958  1.2012 -1.7348 -1.2306
11951SOL    HW240216   2.634  10.787   8.941  0.6998 -1.1190  0.5732
11952SOL     OW40217   5.019   5.496   9.488  0.0129 -0.5625  0.0714
11952SOL    HW140218   4.979   5.412   9.464  0.7868 -0.8874 -0.1007
11952SOL    HW240219   4.979   5.559   9.429  0.6974 -1.0953 -0.9902
11953SOL     OW40220   8.077   0.707   9.922  0.3631 -0.2793  0.6590
11953SOL    HW140221   8.025   0.634   9.956 -2.0286  0.0108 -2.0424
11953SOL    HW240222   8.015   0.779   9.915  0.2412 -0.5191 -4.7919
11954SOL     OW40223   0.470   7.034   7.965 -0.2363  0.1395  0.2495
11954SOL    HW140224   0.534   7.097   7.933  0.5806 -1.4062 -1.3456
11954SOL    HW240225   0.385   7.075   7.952  0.3011  1.0981 -0.2735
11955SOL     OW40226   6.640   3.969   6.291 -0.4347 -0.1231 -0.9957
11955SOL    HW140227   6.724   3.966   6.245 -0.4105  1.1629 -1.0740
11955SOL    HW240228   6.664   3.958   6.384 -0.1616  0.3741 -1.0030
11956SOL     OW40229   5.137   9.134   2.471  0.0485 -0.4461 -0.3027
11956SOL    HW140230   5.110   9.218   2.508  1.7557  0.7348 -1.5552
11956SOL    HW240231   5.169   9.084   2.547  0.0427  0.4762  0.3302
11957SOL     OW40232   0.427   7.811   4.169  0.4852  0.4500  0.0722
11957SOL    HW140233   0.500   7.871   4.152 -0.7409  2.1284  0.5353
11957SOL    HW240234   0.435   7.787   4.261  0.9201 -0.0712 -0.0909
11958SOL     OW40235   2.921   2.234   3.765  0.7528  0.1248 -0.2982
11958SOL    HW140236   2.918   2.302   3.832  0.9784  0.2455 -0.4098
11958SOL    HW240237   2.858   2.262   3.699  0.8534  0.2300 -0.3494
11959SOL     OW40238   6.463   2.533   9.200  0.1561 -0.1339 -0.5716
11959SOL    HW140239   6.447   2.592   9.127 -0.5504  1.3617  0.7563
11959SOL    HW240240   6.387   2.475   9.201  0.1952 -0.2011 -1.0287
11960SOL     OW40241   1.421   1.392  10.508 -0.1778  0.2749 -0.0373
11960SOL    HW140242   1.459   1.338  10.577 -0.8276 -0.7473 -0.4525
11960SOL    HW240243   1.426   1.482  10.541  1.0693 -0.0166  0.5976
11961SOL     OW40244   7.147   2.928  10.012  0.4888  0.1425 -0.5230
11961SOL    HW140245   7.170   2.869  10.083 -0.3158  1.8986  1.2756
11961SOL    HW240246   7.126   2.870   9.939 -1.4865 -1.8922  1.4958
11962SOL     OW40247   6.976   2.541   8.369  0.6121 -0.6880 -0.0760
11962SOL    HW140248   7.030   2.475   8.413 -0.3536 -3.1857 -2.3446
11962SOL    HW240249   7.036   2.581   8.305  0.8300 -0.3437  0.3333
11963SOL     OW40250   9.073   7.303   3.695 -0.5907  0.4609  0.0887
11963SOL    HW140251   9.038   7.387   3.724  1.8399  1.4114  0.4354
11963SOL    HW240252   9.147   7.325   3.639 -0.5940 -1.4662 -0.7880
11964SOL     OW40253   7.915  10.239  10.979 -0.2363 -0.3362  0.4247
11964SOL    HW140254   7.960  10.180  10.919 -1.0711  0.5843 -1.1896
11964SOL    HW240255   7.985  10.284  11.025  0.5674  0.5476 -1.5175
11965SOL     OW40256   5.851   8.894   7.096 -0.0318  0.1481  0.0497
11965SOL    HW140257   5.791   8.866   7.027  0.2664 -0.7932  0.1597
11965SOL    HW240258   5.796   8.900   7.174 -0.1038 -0.1568  0.0256
11966SOL     OW40259   5.172   1.950   6.338 -0.5755 -0.8406 -0.0557
11966SOL    HW140260   5.107   1.891   6.301 -1.2722 -0.0766 -0.0682
11966SOL    HW240261   5.181   2.020   6.273 -0.9672 -0.0851  0.6965
11967SOL     OW40262   3.724   9.263  10.464  0.2326  0.0067 -0.0935
11967SOL    HW140263   3.631   9.249  10.481  0.0973 -1.1738 -1.5332
11967SOL    HW240264   3.755   9.178  10.432  1.7136  0.4964 -0.0295
11968SOL     OW40265   8.137   0.249   0.862  0.9567  0.3952  0.1539
11968SOL    HW140266   8.087   0.311   0.808  0.1850 -1.3104 -1.1824
11968SOL    HW240267   8.146   0.293   0.946  0.0731  2.1351 -0.5971
11969SOL     OW40268   3.774   6.784   0.530 -0.0790  0.1544 -1.0709
11969SOL    HW140269   3.772   6.877   0.550  0.5908  0.6051 -2.8171
11969SOL    HW240270   3.864   6.757   0.550 -0.4029 -0.2453 -0.1134
11970SOL     OW40271   7.963   6.058   2.385 -0.0191  0.2630  0.2698
11970SOL    HW140272   8.002   6.134   2.429 -1.0648  0.7520  0.3845
11970SOL    HW240273   7.885   6.093   2.341 -0.8942 -0.8573  0.8616
11971SOL     OW40274   3.407   3.214   5.420  0.3930  0.3300  0.0600
11971SOL    HW140275   3.316   3.210   5.390 -0.1237 -1.7380  1.6687
11971SOL    HW240276   3.405   3.271   5.496  0.0666 -1.0577  1.1272
11972SOL     OW40277   7.984   0.724   4.145 -0.1125 -0.5027  0.3440
11972SOL    HW140278   7.945   0.640   4.171 -1.7799 -0.6918 -2.3648
11972SOL    HW240279   8.062   0.699   4.096 -0.7813 -0.5315 -0.7357
11973SOL     OW40280   2.899   5.895   7.302  0.8710 -0.3403 -0.0160
11973SOL    HW140281   2.859   5.863   7.383 -0.7034  0.0365 -0.6038
11973SOL    HW240282   2.855   5.978   7.285  2.6742  0.6424 -0.1775
11974SOL     OW40283   6.381  10.301   4.103 -0.3123  0.3711 -0.2724
11974SOL    HW140284   6.420  10.386   4.126  0.6740  0.5290 -2.3063
11974SOL    HW240285   6.288  10.312   4.121  0.1519  0.8636  2.2588
11975SOL     OW40286   8.545   4.511   1.507  0.0091 -0.3463  0.4667
11975SOL    HW140287   8.461   4.540   1.543 -0.0209 -0.1294  0.2322
11975SOL    HW240288   8.563   4.573   1.436 -0.3252 -1.2208 -0.4172
11976SOL     OW40289   8.052   5.102   4.998 -0.2009 -0.2895 -0.0960
11976SOL    HW140290   8.041   5.189   5.036  0.9134  0.6529 -1.7831
11976SOL    HW240291   8.096   5.051   5.066 -0.3294  0.6363  0.7049
11977SOL     OW40292   8.032   9.645   3.843  0.1791 -0.0192 -0.0811
11977SOL    HW140293   8.038   9.632   3.938  0.8791 -0.2807 -0.1620
11977SOL    HW240294   8.019   9.557   3.807  2.1632 -0.2191 -0.4005
11978SOL     OW40295   1.906   2.792   7.394  0.2983  0.6651  0.3580
11978SOL    HW140296   1.983   2.794   7.337 -0.5262 -0.8340 -0.8821
11978SOL    HW240297   1.938   2.753   7.476  0.1611 -3.9671 -1.5138
11979SOL     OW40298   3.132   9.046   6.459  0.3275  0.5180 -0.3870
11979SOL    HW140299   3.072   9.000   6.518  1.2986 -0.0951  0.1546
11979SOL    HW240300   3.184   8.976   6.418  3.2952  1.1123  2.0269
11980SOL     OW40301   9.676  10.761   0.363 -0.1068 -0.7624  0.2856
11980SOL    HW140302   9.651  10.673   0.390  1.0505 -1.2090 -0.0509
11980SOL    HW240303   9.763  10.774   0.400 -1.1925  1.2045  2.4286
11981SOL     OW40304   0.392   1.301  10.163 -0.0340 -0.3853  0.3746
11981SOL    HW140305   0.380   1.211  10.191 -0.7715 -0.9823 -1.6793
11981SOL    HW240306   0.486   1.308  10.145 -0.0316 -0.8448  0.2108
11982SOL     OW40307   9.403   2.784   6.457 -0.3769  0.3433  0.0588
11982SOL    HW140308   9.369   2.750   6.540 -0.3349 -0.0525 -0.0829
11982SOL    HW240309   9.410   2.707   6.401  1.0041  0.3610  0.1666
11983SOL     OW40310   8.656   6.160   6.026 -0.5292 -0.2345 -0.6514
11983SOL    HW140311   8.634   6.222   6.096  0.6256  0.6784 -1.0512
11983SOL    HW240312   8.730   6.110   6.061  0.0482  0.2205 -1.1952
11984SOL     OW40313   3.702   4.959   9.240  0.2846  0.2687  0.5848
11984SOL    HW140314   3.722   4.913   9.158 -1.3395 -1.7640  1.2249
11984SOL    HW240315   3.742   4.905   9.308 -3.4028 -1.6216  1.5410
11985SOL     OW40316   2.503   1.671   8.367 -0.1148 -0.2779 -0.1370
11985SOL    HW140317   2.530   1.675   8.459 -1.6332 -2.6482  0.5068
11985SOL    HW240318   2.496   1.578   8.348  0.7611  0.1406 -2.9049
11986SOL     OW40319   5.967   8.029   0.433 -0.0719  0.0981  0.4884
11986SOL    HW140320   5.925   8.092   0.374 -0.4525  0.0825  0.7363
11986SOL    HW240321   5.905   8.020   0.506 -0.4848 -1.2908 -0.0053
11987SOL     OW40322   4.922   6.613   4.026  0.0819 -0.0636 -0.0898
11987SOL    HW140323   5.003   6.657   4.051 -0.9524  1.1066  1.3787
11987SOL    HW240324   4.943   6.520   4.028  0.7377  0.0434  2.9466
11988SOL     OW40325  10.111   6.420   2.065 -0.3420  0.3095  0.2864
11988SOL    HW140326  10.028   6.395   2.025  0.1206  0.4978 -0.8255
11988SOL    HW240327  10.120   6.363   2.141 -0.7944 -0.7229 -0.4191
11989SOL     OW40328   7.818   2.062   4.332 -0.7333  0.2853  0.7145
11989SOL    HW140329   7.908   2.034   4.313 -0.6362  0.8143  0.3606
11989SOL    HW240330   7.764   2.007   4.276 -0.3954  2.4767 -1.9762
11990SOL     OW40331   5.618   8.081   3.933  0.4717 -0.6987  0.4255
11990SOL    HW140332   5.654   8.000   3.970  0.6901 -0.5635  0.5050
11990SOL    HW240333   5.525   8.061   3.921  0.6877 -1.2775 -0.4150
11991SOL     OW40334   7.978   9.177   9.005  0.3001  0.4992  0.1527
11991SOL    HW140335   8.025   9.185   9.088 -0.0505 -2.4664  0.7547
11991SOL    HW240336   8.027   9.112   8.955 -2.5248 -2.2140  0.5340
11992SOL     OW40337   1.001   2.779   5.807 -0.6460  0.1813 -0.5951
11992SOL    HW140338   0.956   2.708   5.853 -1.6662  0.8961 -0.4652
11992SOL    HW240339   1.068   2.735   5.754 -1.5737 -0.9186 -0.8902
11993SOL     OW40340   8.213   9.710  10.554 -0.2278  0.6181 -0.2179
11993SOL    HW140341   8.293   9.715  10.501 -1.2048 -0.2638 -1.8370
11993SOL    HW240342   8.152   9.660  10.501 -1.3973  0.0034  1.6105
11994SOL     OW40343   5.394   9.822  10.825 -0.1138  0.2455  0.9083
11994SOL    HW140344   5.455   9.785  10.760  0.9937  0.7951  1.6037
11994SOL    HW240345   5.451   9.856  10.894 -1.2509  0.2601  1.8599
11995SOL     OW40346   5.879   9.380   3.236 -0.1148  0.6661  0.1772
11995SOL    HW140347   5.935   9.319   3.188  0.3140  0.9722  0.2797
11995SOL    HW240348   5.870   9.455   3.176  1.1996  1.4614  0.9335
11996SOL     OW40349   8.154   6.776   8.998 -0.0661 -0.0926 -0.4188
11996SOL    HW140350   8.214   6.727   8.942  1.5172 -0.1597  1.2538
11996SOL    HW240351   8.125   6.713   9.064 -1.3216  0.1746 -0.6735
11997SOL     OW40352   3.026  10.678   6.452 -0.0295  0.5260 -0.5192
11997SOL    HW140353   3.028  10.723   6.537 -0.3196 -0.8395  0.2328
11997SOL    HW240354   3.110  10.633   6.447 -0.2335  0.1601 -0.7017
11998SOL     OW40355  10.311   4.355   9.752 -0.2302  0.1071 -0.5240
11998SOL    HW140356  10.264   4.272   9.755 -0.2741  0.1338 -0.4611
11998SOL    HW240357  10.389   4.336   9.700  0.3817 -0.2983  0.4913
11999SOL     OW40358   7.836  10.440   4.002 -0.1876  0.6927 -0.4180
11999SOL    HW140359   7.762  10.419   3.946 -0.7019 -1.4345  0.9620
11999SOL    HW240360   7.834  10.536   4.008 -0.9181  0.9221 -2.8479
12000SOL     OW40361   7.463   0.874   0.100  0.3428 -0.5981  0.4804
12000SOL    HW140362   7.445   0.787   0.064 -0.7184  0.6193 -2.2362
12000SOL    HW240363   7.558   0.885   0.089  0.4045 -1.2185  0.3518
12001SOL     OW40364   8.629   3.500   6.687  0.2175  0.6913  0.2492
12001SOL    HW140365   8.560   3.470   6.627  0.7556 -0.7333  0.3159
12001SOL    HW240366   8.673   3.570   6.639  1.1058 -0.9006 -1.3778
12002SOL     OW40367  10.207   4.706   2.693  0.1130 -0.4878 -0.1050
12002SOL    HW140368  10.169   4.733   2.610 -0.2960  2.0838  0.8357
12002SOL    HW240369  10.291   4.666   2.669 -0.1475 -0.1116 -1.7502
12003SOL     OW40370   4.003   2.229   8.975 -0.5363 -0.4093  0.0558
12003SOL    HW140371   4.009   2.304   8.917  0.9316 -0.8784 -0.4399
12003SOL    HW240372   4.053   2.254   9.053 -0.2980 -0.7487  0.0175
12004SOL     OW40373   5.698   4.782   6.712 -0.4875 -0.5573 -0.4536
12004SOL    HW140374   5.782   4.746   6.742 -0.3267 -1.2287 -1.6621
12004SOL    HW240375   5.721   4.866   6.672 -0.4004 -0.6770 -0.6592
12005SOL     OW40376   3.673   8.603   0.669 -0.7086  0.7273  0.4713
12005SOL    HW140377   3.678   8.680   0.724 -2.8647  1.4650 -0.2581
12005SOL    HW240378   3.621   8.630   0.593 -0.3525 -1.0628 -0.4893
12006SOL     OW40379  11.101   4.535   1.841 -0.1326  0.0896 -0.0926
12006SOL    HW140380  11.062   4.606   1.790  0.9925  0.0348 -1.0659
12006SOL    HW240381  11.178   4.509   1.791 -2.3613 -4.3147 -1.7515
12007SOL     OW40382  10.235   3.045   4.727  0.7475 -0.3411 -0.0145
12007SOL    HW140383  10.282   2.964   4.746 -1.7249 -1.5725  1.3547
12007SOL    HW240384  10.215   3.082   4.813  0.8874  1.1727 -0.6086
12008SOL     OW40385   6.324   5.650   6.106 -0.5201 -0.5260  0.6114
12008SOL    HW140386   6.384   5.721   6.082 -0.1336 -1.3066 -0.8156
12008SOL    HW240387   6.237   5.681   6.079 -0.6197  0.1141  1.6078
12009SOL     OW40388   5.639   4.428   1.038 -0.0571 -0.0492  0.5195
12009SOL    HW140389   5.547   4.402   1.039  0.4438 -2.1464 -1.2095
12009SOL    HW240390   5.640   4.513   0.994 -1.1922  0.1942  0.9406
12010SOL     OW40391   8.265   2.898   2.744 -0.4453  0.0983 -0.2251
12010SOL    HW140392   8.177   2.906   2.781 -0.3724 -0.5145  0.0944
12010SOL    HW240393   8.253   2.845   2.666 -0.0996 -1.6731  0.8745
12011SOL     OW40394   6.916   5.603   4.169 -0.5330  0.0057 -0.1481
12011SOL    HW140395   6.969   5.626   4.092 -2.4573  1.0190 -1.2769
12011SOL    HW240396   6.841   5.556   4.133 -1.9931  1.3826  0.9504
12012SOL     OW40397   2.153   6.216   7.630 -0.7493 -0.0873 -0.3494
12012SOL    HW140398   2.107   6.132   7.627 -0.8043 -0.0431 -0.8855
12012SOL    HW240399   2.096   6.272   7.683 -1.7082  0.1878 -1.6040
12013SOL     OW40400   2.898   6.743   3.662  0.2523  0.1094  0.6002
12013SOL    HW140401   2.828   6.809   3.654 -0.1564 -0.2786  0.9482
12013SOL    HW240402   2.959   6.781   3.725 -0.5739 -0.3394  1.7035
12014SOL     OW40403   5.181   0.827   8.534  0.1006  0.6893 -0.9625
12014SOL    HW140404   5.243   0.892   8.569  0.4746 -0.8526  1.5182
12014SOL    HW240405   5.233   0.747   8.524 -1.4213 -0.7587  1.5612
12015SOL     OW40406   7.181   2.764  10.742 -0.9260  0.1367 -0.0882
12015SOL    HW140407   7.127   2.692  10.710 -1.2447  0.8965 -1.3630
12015SOL    HW240408   7.259   2.722  10.778 -0.7947 -0.8297 -1.4113
12016SOL     OW40409   0.334  10.241   6.281  0.0623 -0.3730 -0.7542
12016SOL    HW140410   0.360  10.175   6.217 -0.1329  0.3774 -1.6272
12016SOL    HW240411   0.353  10.325   6.239 -1.9360  0.1773 -0.6666
12017SOL     OW40412   0.122   6.209   3.163  0.1657 -0.1429  0.6023
12017SOL    HW140413   0.028   6.209   3.179  0.0960  0.7147  0.2441
12017SOL    HW240414   0.144   6.301   3.147  0.9775 -0.3908  0.2131
12018SOL     OW40415  10.354   2.803   3.257  0.6599 -0.0128  0.5294
12018SOL    HW140416  10.409   2.849   3.194 -0.1553 -2.8579 -2.5525
12018SOL    HW240417  10.413   2.783   3.330  2.4472  1.0016 -0.5617
12019SOL     OW40418   6.220   2.879  10.861  0.2708  0.1241  0.3192
12019SOL    HW140419   6.283   2.926  10.806  0.0139  0.1158  0.0131
12019SOL    HW240420   6.135   2.907  10.828  0.1088  0.2432  0.8217
12020SOL     OW40421   3.910  10.474   3.216  0.4945 -0.4112  0.0705
12020SOL    HW140422   3.906  10.387   3.256  0.2502 -0.5674 -0.2935
12020SOL    HW240423   3.992  10.511   3.249 -0.5353  0.1826  2.1695
12021SOL     OW40424   1.946   2.145   4.958  0.1295 -0.1905  0.6220
12021SOL    HW140425   1.907   2.112   4.877  1.2924  1.4686 -0.6886
12021SOL    HW240426   1.949   2.240   4.946  3.0527 -0.1141  1.3027
12022SOL     OW40427   0.398   6.696   6.002  0.3595  0.0380  0.0065
12022SOL    HW140428   0.375   6.636   6.073 -1.3828 -0.5417 -1.0033
12022SOL    HW240429   0.397   6.782   6.042  0.6524 -0.3957  0.9689
12023SOL     OW40430   4.123  10.720  11.039 -0.1676  0.1400  0.3612
12023SOL    HW140431   4.032  10.740  11.058 -0.8902 -2.4374 -0.0112
12023SOL    HW240432   4.136  10.632  11.075  1.8967  0.0586 -0.4565
12024SOL     OW40433   3.270   6.945   8.195  0.2688  0.1582 -0.6082
12024SOL    HW140434   3.304   6.947   8.106 -0.0450 -1.0664 -0.7744
12024SOL    HW240435   3.176   6.960   8.185  0.5080  2.3279 -0.2509
12025SOL     OW40436   9.565   8.814   8.705 -0.1482  0.2796 -0.3977
12025SOL    HW140437   9.630   8.880   8.683  1.5591 -1.0110  0.4584
12025SOL    HW240438   9.586   8.740   8.647 -1.6074  0.2357 -0.9034
12026SOL     OW40439   0.582   2.770   5.398  0.1150 -0.1282 -0.3504
12026SOL    HW140440   0.675   2.751   5.404  0.3040  0.9444  0.4737
12026SOL    HW240441   0.539   2.689   5.425  0.8839  0.6134  3.8851
12027SOL     OW40442   8.379   9.979   8.759 -0.3328  0.1423 -0.3483
12027SOL    HW140443   8.382  10.026   8.842  1.4995  0.1023 -0.3544
12027SOL    HW240444   8.361   9.888   8.784  0.4209  0.0900  0.0462
12028SOL     OW40445   4.006   6.357   5.348  0.2569 -0.2798 -0.6436
12028SOL    HW140446   4.055   6.306   5.412 -0.4905 -1.5861 -1.0878
12028SOL    HW240447   4.068   6.373   5.277  1.7294  2.8566  1.1267
12029SOL     OW40448  10.650  10.900   3.429 -0.1361  0.6956 -0.1917
12029SOL    HW140449  10.727  10.845   3.416 -0.3330  0.6377 -1.2145
12029SOL    HW240450  10.677  10.964   3.494 -0.5783 -1.9114  2.7740
12030SOL     OW40451   2.697   9.177   5.766 -0.1432 -0.3415 -0.2220
12030SOL    HW140452   2.622   9.225   5.730 -0.3407 -0.3803  0.1415
12030SOL    HW240453   2.771   9.236   5.752  0.1385 -1.1085 -2.4167
12031SOL     OW40454   5.234   9.203   8.910  0.1741  0.0712  0.3169
12031SOL    HW140455   5.246   9.138   8.842 -1.8781 -0.0752  0.0410
12031SOL    HW240456   5.140   9.224   8.908  0.4610  1.7283  1.5773
12032SOL     OW40457   7.523  10.274   2.864 -0.5252 -0.7307  0.1188
12032SOL    HW140458   7.618  10.282   2.852 -0.6013 -1.0679 -0.8049
12032SOL    HW240459   7.503  10.334   2.935  0.1312  0.7822 -0.9142
12033SOL     OW40460   9.006   6.212  10.176 -0.1937  0.2704  0.6833
12033SOL    HW140461   9.071   6.172  10.234 -0.1477  0.6831  0.9168
12033SOL    HW240462   9.053   6.225  10.094 -0.1141  0.1514  0.7082
12034SOL     OW40463   0.306   9.348   9.992  0.7427 -0.0376 -0.0119
12034SOL    HW140464   0.290   9.273  10.049 -0.9197  0.0552 -0.3159
12034SOL    HW240465   0.227   9.356   9.939  0.9485  1.8163 -0.1270
12035SOL     OW40466   1.092   9.984   9.421  0.5074  0.1223 -0.3712
12035SOL    HW140467   1.016  10.040   9.402  0.9550  0.7505 -0.3278
12035SOL    HW240468   1.162  10.017   9.365  0.3730 -1.3861 -1.4986
12036SOL     OW40469   4.622   4.522   6.371  0.0296 -0.1266 -0.0372
12036SOL    HW140470   4.638   4.535   6.464 -1.6669 -1.6897  0.5217
12036SOL    HW240471   4.598   4.609   6.338  0.3598  0.3832  1.0359
12037SOL     OW40472  10.575   4.807   7.961  0.2971 -0.0608 -0.2604
12037SOL    HW140473  10.597   4.874   7.896 -0.1814  1.4182  1.0308
12037SOL    HW240474  10.496   4.765   7.926 -0.2265  1.0339 -0.4339
12038SOL     OW40475   7.195   4.662   4.153 -0.2151  0.4930  0.3707
12038SOL    HW140476   7.139   4.719   4.100  0.2105  0.4848 -0.0862
12038SOL    HW240477   7.207   4.584   4.100  1.8827  1.2999 -0.4320
12039SOL     OW40478   0.493   5.473   6.036 -0.4557 -0.1379  0.4372
12039SOL    HW140479   0.580   5.503   6.008 -0.1563  0.3968  1.8654
12039SOL    HW240480   0.432   5.530   5.990 -0.0384 -0.1942 -0.2013
12040SOL     OW40481   1.254   4.087   2.662 -0.0680  0.4820 -0.1518
12040SOL    HW140482   1.262   4.056   2.572  1.4441  2.4216 -0.7616
12040SOL    HW240483   1.308   4.028   2.714 -1.8125 -1.3135 -0.2764
12041SOL     OW40484   8.414   7.767   6.234 -0.0250 -0.2748  0.3786
12041SOL    HW140485   8.396   7.681   6.197 -1.8695  0.1246  0.2302
12041SOL    HW240486   8.328   7.810   6.236  1.1160  2.3366 -1.5024
12042SOL     OW40487   1.670   7.606   7.294  0.1265 -0.5112 -0.1014
12042SOL    HW140488   1.691   7.680   7.352 -0.2446 -0.7928  0.4089
12042SOL    HW240489   1.743   7.545   7.305  0.1904 -0.4399 -0.1360
12043SOL     OW40490   9.557   5.815   4.917  0.3480  0.3747 -0.1307
12043SOL    HW140491   9.537   5.898   4.961 -0.1271  0.5339 -0.6302
12043SOL    HW240492   9.634   5.782   4.962 -0.0202  0.6205  0.6975
12044SOL     OW40493   6.286  11.076   0.541  0.6539 -0.3624 -0.2974
12044SOL    HW140494   6.260  11.003   0.597  2.2823  0.1017  1.1466
12044SOL    HW240495   6.248  11.055   0.456  1.2320 -2.9883  0.0076
12045SOL     OW40496   9.284   4.696   9.276  0.2068 -0.5725  0.1399
12045SOL    HW140497   9.231   4.663   9.203  1.4789 -0.6996 -0.7708
12045SOL    HW240498   9.277   4.628   9.343 -2.7593  0.5345  1.1101
12046SOL     OW40499   8.195   5.350   3.607  0.1820  0.0049  0.7338
12046SOL    HW140500   8.104   5.368   3.586  0.7634 -0.4823 -3.0715
12046SOL    HW240501   8.229   5.431   3.644 -1.0934  1.2871 -0.7658
12047SOL     OW40502   2.111   6.845   8.594 -0.1481  0.1091  0.7590
12047SOL    HW140503   2.176   6.909   8.563 -1.2645  1.1118  0.4126
12047SOL    HW240504   2.114   6.853   8.689 -0.3559  0.7689  0.7166
12048SOL     OW40505  10.171   4.170   9.359 -0.6198 -0.7279  0.3131
12048SOL    HW140506  10.256   4.214   9.352 -1.2721  1.0384  2.3513
12048SOL    HW240507  10.167   4.139   9.450 -1.4771 -2.3654 -0.2318
12049SOL     OW40508  10.272   4.514   7.759  0.0976  0.0646  0.2425
12049SOL    HW140509  10.273   4.543   7.668  3.0529 -2.8049 -0.8437
12049SOL    HW240510  10.318   4.583   7.807 -0.9553  1.3086 -0.4622
12050SOL     OW40511   7.093   8.251   1.219 -0.1099 -0.3062 -0.0761
12050SOL    HW140512   7.076   8.285   1.131 -1.2587  0.1439  0.3065
12050SOL    HW240513   7.043   8.308   1.277  2.5086  0.9328  1.1360
12051SOL     OW40514   9.141   9.765   0.553  0.1367  0.5198  0.0391
12051SOL    HW140515   9.093   9.833   0.506  0.8565  1.9402  1.2732
12051SOL    HW240516   9.079   9.692   0.559 -0.8185  1.2140 -0.9127
12052SOL     OW40517   7.222   1.773   6.131  0.2200 -0.1726  0.5832
12052SOL    HW140518   7.279   1.722   6.190  0.9031 -0.4966 -0.3335
12052SOL    HW240519   7.255   1.863   6.138  0.9733 -0.3825 -0.0555
12053SOL     OW40520   9.309   6.735   3.823  0.4060  0.7376  0.5494
12053SOL    HW140521   9.354   6.799   3.878  1.9977  0.2872 -0.1651
12053SOL    HW240522   9.217   6.741   3.849  0.8004  2.0063  1.7651
12054SOL     OW40523   3.177   5.801  10.443  0.9703 -0.0245 -0.0428
12054SOL    HW140524   3.225   5.881  10.425 -1.2410  1.4273  0.1330
12054SOL    HW240525   3.119   5.790  10.367  1.6788 -1.8382 -0.3707
12055SOL     OW40526   1.681   6.486   2.159  0.1343  0.1833 -0.0106
12055SOL    HW140527   1.715   6.573   2.139  1.4833 -0.2393  0.3247
12055SOL    HW240528   1.756   6.439   2.196 -0.8537 -0.7724  0.8563
12056SOL     OW40529   6.409   0.060  10.233 -0.5299  0.0132  0.5999
12056SOL    HW140530   6.428   0.035  10.323 -0.1119 -0.8544  0.2804
12056SOL    HW240531   6.406  -0.023  10.185 -0.6179  0.4724 -0.2073
12057SOL     OW40532   9.932  10.731   0.449 -0.4654  0.5993 -0.5010
12057SOL    HW140533   9.970  10.787   0.517 -2.9953  0.4912  1.1517
12057SOL    HW240534   9.982  10.650   0.454  0.3781  1.1432  0.1701
12058SOL     OW40535   4.204   5.455   6.829 -0.3247  0.5853 -0.1222
12058SOL    HW140536   4.299   5.468   6.827 -0.2529  0.5071  1.5065
12058SOL    HW240537   4.180   5.463   6.921 -1.7734 -0.3648 -0.3748
12059SOL     OW40538   0.151   4.440   4.820  0.3025 -0.4586 -0.2534
12059SOL    HW140539   0.186   4.383   4.888  1.2019 -1.7269 -1.6947
12059SOL    HW240540   0.099   4.505   4.867  0.5507 -1.5164  1.5893
12060SOL     OW40541  11.055   2.617   6.914 -0.8452 -0.6082  0.5213
12060SOL    HW140542  11.094   2.698   6.949 -1.1375 -0.1390 -0.2042
12060SOL    HW240543  10.974   2.647   6.871 -1.3695 -1.4035  0.9477
12061SOL     OW40544  10.829  10.785   9.254  0.1188  0.0194  0.3218
12061SOL    HW140545  10.769  10.731   9.202 -0.0214  0.6930 -0.2248
12061SOL    HW240546  10.904  10.800   9.197  0.3258  0.0923  0.6097
12062SOL     OW40547   7.866   7.719   6.926 -0.2738 -0.1761  0.3048
12062SOL    HW140548   7.792   7.678   6.882 -0.7909  1.5464 -0.5350
12062SOL    HW240549   7.935   7.721   6.859 -0.0578 -0.2050  0.5255
12063SOL     OW40550   3.469   1.076   8.104 -0.5578 -0.1291  0.5616
12063SOL    HW140551   3.406   1.008   8.078  0.3953 -0.1892 -1.7979
12063SOL    HW240552   3.489   1.055   8.195 -1.0646 -2.4416  0.2195
12064SOL     OW40553   2.360   1.250   8.216 -0.2286 -0.3798  0.1919
12064SOL    HW140554   2.398   1.164   8.199  0.0819 -0.7795  2.4847
12064SOL    HW240555   2.267   1.232   8.232 -0.0683 -0.4148  1.1907
12065SOL     OW40556   7.074   6.321   4.707 -0.1085  0.6994  0.2360
12065SOL    HW140557   7.022   6.317   4.626 -0.8562 -0.2768  0.7369
12065SOL    HW240558   7.027   6.384   4.762  0.5490  1.5675 -0.1701
12066SOL     OW40559  10.369   6.686  10.424  0.3178  0.7286 -0.4430
12066SOL    HW140560  10.432   6.720  10.488  1.7509 -1.0059 -0.8636
12066SOL    HW240561  10.396   6.724  10.341  1.2413 -0.4658 -0.7240
12067SOL     OW40562   8.714   2.797  10.518 -0.6261  0.1149 -0.6359
12067SOL    HW140563   8.709   2.712  10.561 -2.5880  0.5194  0.0538
12067SOL    HW240564   8.782   2.844  10.567  0.4399 -0.9889 -0.9886
12068SOL     OW40565   4.722   9.754   8.016 -0.6245 -0.4163  0.0304
12068SOL    HW140566   4.780   9.770   7.942 -1.1148  0.6524 -0.1544
12068SOL    HW240567   4.706   9.660   8.015 -0.0246 -0.5217 -0.7590
12069SOL     OW40568   8.642   7.141   2.108  0.1974 -0.0496  0.1584
12069SOL    HW140569   8.644   7.216   2.167 -0.6966  0.1595 -0.0597
12069SOL    HW240570   8.726   7.142   2.064  0.3639  0.5594  0.4852
12070SOL     OW40571   5.908   2.522   2.841 -0.7748 -0.2066 -0.1114
12070SOL    HW140572   5.957   2.574   2.778 -0.9348 -0.1346 -0.1754
12070SOL    HW240573   5.933   2.558   2.926 -2.3953  1.3078 -0.2223
12071SOL     OW40574   0.647  10.909   4.324 -0.0336 -0.4170  0.1382
12071SOL    HW140575   0.686  10.946   4.245 -2.9679 -0.3795 -1.4633
12071SOL    HW240576   0.657  10.978   4.390  2.7092 -0.5469 -0.0500
12072SOL     OW40577   0.632   5.468   2.047  0.4917  0.1333  0.0892
12072SOL    HW140578   0.702   5.411   2.079 -1.0649 -3.9000 -2.8187
12072SOL    HW240579   0.661   5.495   1.960 -0.2096  1.1534  0.1598
12073SOL     OW40580   2.086  10.838   4.283 -0.3154 -0.1180 -1.6247
12073SOL    HW140581   2.004  10.848   4.332  0.7313 -0.9018  0.3991
12073SOL    HW240582   2.090  10.744   4.262  1.2555 -0.6285  0.6336
12074SOL     OW40583   6.053   6.047   8.580  0.4818 -0.4965 -0.7690
12074SOL    HW140584   6.014   5.967   8.617  1.2772  0.1619  1.6964
12074SOL    HW240585   6.127   6.015   8.529  1.1618 -1.3613  0.6832
12075SOL     OW40586   1.437   0.871   1.114 -0.2089 -0.0040 -0.0689
12075SOL    HW140587   1.470   0.850   1.027 -1.1428 -0.7679 -0.2441
12075SOL    HW240588   1.343   0.884   1.102 -0.4549 -0.7381  0.9256
12076SOL     OW40589   9.145   4.070  10.895  0.7197 -0.4561 -0.3016
12076SOL    HW140590   9.110   4.123  10.966  1.5137 -1.3411  0.7763
12076SOL    HW240591   9.167   4.134  10.827 -1.2981  0.2847 -0.3358
12077SOL     OW40592   2.823   4.752   5.199  0.7147  0.3761 -0.4151
12077SOL    HW140593   2.831   4.745   5.104  1.0987  0.5496 -0.3951
12077SOL    HW240594   2.769   4.829   5.214 -0.1239 -0.1705 -0.5150
12078SOL     OW40595  10.782  10.176   8.347  0.5153  0.5442  0.0645
12078SOL    HW140596  10.812  10.224   8.270  0.5210  2.3787  1.1516
12078SOL    HW240597  10.692  10.151   8.325  1.0834 -0.5090 -1.2025
12079SOL     OW40598   9.908   7.522   3.478  0.0872 -0.0145  0.1005
12079SOL    HW140599   9.865   7.440   3.454 -1.4567  0.9747 -0.7663
12079SOL    HW240600   9.999   7.499   3.492 -0.4944 -2.0448  0.8955
12080SOL     OW40601   0.907   8.687   9.348  0.0966  0.2184 -0.1515
12080SOL    HW140602   0.864   8.640   9.276 -0.3545 -0.6579  0.6766
12080SOL    HW240603   0.878   8.777   9.337 -2.1710 -0.3482  0.4707
12081SOL     OW40604   7.492   6.579   0.236 -0.4737  0.0429  0.1313
12081SOL    HW140605   7.561   6.636   0.271 -0.9475  0.2100  0.8057
12081SOL    HW240606   7.413   6.632   0.240 -0.4600  0.2650 -1.7237
12082SOL     OW40607   6.382   9.916   0.657 -1.0078 -0.4700 -0.0954
12082SOL    HW140608   6.398   9.896   0.565 -1.3622 -0.3224 -0.1941
12082SOL    HW240609   6.312   9.982   0.655 -0.1270  0.5089  0.2287
12083SOL     OW40610   8.272   0.099   9.353  0.1018 -0.0618  0.1131
12083SOL    HW140611   8.281   0.031   9.287  0.2365 -1.1704  1.2399
12083SOL    HW240612   8.178   0.114   9.360 -0.2290 -2.3471  1.9594
12084SOL     OW40613   1.074   1.307   6.728 -0.2054 -0.4840 -0.4483
12084SOL    HW140614   1.119   1.266   6.654  0.3032 -1.1230  0.2105
12084SOL    HW240615   0.998   1.252   6.744  0.5088 -1.2150  0.4731
12085SOL     OW40616   2.810   9.567   2.816 -0.2438  0.6234 -0.0214
12085SOL    HW140617   2.901   9.580   2.842  0.7819 -0.2431 -2.8820
12085SOL    HW240618   2.762   9.563   2.900  2.0471  2.6269  1.5190
12086SOL     OW40619   4.747   4.161   1.175 -0.1449  0.2576 -0.0798
12086SOL    HW140620   4.699   4.087   1.137  1.3188 -0.6657 -0.2061
12086SOL    HW240621   4.718   4.236   1.123 -0.6879 -0.4300 -0.8208
12087SOL     OW40622   4.712   4.031   4.227 -0.4479 -0.1292  0.4102
12087SOL    HW140623   4.778   4.083   4.182 -0.1521 -0.5028  0.4017
12087SOL    HW240624   4.738   3.940   4.211 -1.2469 -0.2933 -0.0145
12088SOL     OW40625   4.572   7.607   9.283 -0.0507 -0.3458  0.5023
12088SOL    HW140626   4.659   7.644   9.271 -1.1554  2.5226  0.5037
12088SOL    HW240627   4.539   7.594   9.194  0.4402 -1.6431  0.5013
12089SOL     OW40628   0.197   0.564   4.248 -0.0243  0.1483 -1.2269
12089SOL    HW140629   0.229   0.608   4.326  0.5624 -1.4721 -0.5023
12089SOL    HW240630   0.136   0.498   4.280 -1.3939  0.8165 -2.3250
12090SOL     OW40631   6.119   7.247   6.705 -0.0457 -0.2843  0.2134
12090SOL    HW140632   6.195   7.256   6.646 -0.1985  0.5641  0.1361
12090SOL    HW240633   6.045   7.278   6.653 -0.3884 -0.7411  0.4269
12091SOL     OW40634   9.532   3.938   4.914  0.6056 -0.2055  0.1705
12091SOL    HW140635   9.522   3.942   5.009  1.6681  0.5629  0.2716
12091SOL    HW240636   9.522   4.029   4.886  0.6027 -0.3872 -0.4198
12092SOL     OW40637   8.653   4.399   4.685 -0.1956  0.4160  0.0109
12092SOL    HW140638   8.697   4.378   4.602 -1.1569  0.0848 -0.4263
12092SOL    HW240639   8.560   4.392   4.665 -0.5162  2.6063  0.5156
12093SOL     OW40640   2.243   8.556   3.363  0.4206  0.2921 -0.0899
12093SOL    HW140641   2.321   8.501   3.367 -0.6746 -1.2810  0.5916
12093SOL    HW240642   2.197   8.541   3.446  1.4560  4.5111  1.5248
12094SOL     OW40643   5.935   0.938   7.503 -0.3979 -0.2697 -0.3276
12094SOL    HW140644   5.997   0.923   7.575 -0.0869  1.9105 -0.0764
12094SOL    HW240645   5.914   0.850   7.471 -0.1589 -1.2957  2.0802
12095SOL     OW40646   8.383   7.322   6.485  0.4098  0.2714 -0.1266
12095SOL    HW140647   8.384   7.414   6.512  0.1527  0.7622 -1.6832
12095SOL    HW240648   8.373   7.325   6.389 -0.0877 -1.3841 -0.1600
12096SOL     OW40649   0.939   7.073   3.422  0.9644 -0.4919 -0.0810
12096SOL    HW140650   0.909   7.133   3.490  2.2037  0.1735 -0.0959
12096SOL    HW240651   0.991   7.127   3.362 -0.4743 -0.9574 -1.8558
12097SOL     OW40652  10.680   5.673   3.863 -0.5892 -0.1541  0.5156
12097SOL    HW140653  10.758   5.692   3.915  0.0914  2.3579 -1.2372
12097SOL    HW240654  10.713   5.644   3.778 -1.5928 -0.2934  0.1495
12098SOL     OW40655   3.657  10.780   3.776  0.1571  0.1550  0.2602
12098SOL    HW140656   3.690  10.833   3.848  0.9197  0.3172 -0.1908
12098SOL    HW240657   3.717  10.799   3.703 -0.9588  0.4731 -0.6009
12099SOL     OW40658  10.924   0.132   1.928 -0.0657  0.3663  0.0760
12099SOL    HW140659  10.887   0.043   1.922 -0.9309  0.7589 -0.7017
12099SOL    HW240660  11.018   0.118   1.937 -0.3391 -0.6744  1.9828
12100SOL     OW40661   0.260   3.417   5.761 -0.2825 -0.1599  0.2827
12100SOL    HW140662   0.232   3.325   5.761 -0.6407 -0.0571  0.8877
12100SOL    HW240663   0.199   3.460   5.701 -0.1411 -0.3036  0.0310
12101SOL     OW40664   1.024   2.480   3.003 -0.4213 -0.0422  0.3796
12101SOL    HW140665   1.083   2.490   3.078  0.3755 -0.5550 -0.1559
12101SOL    HW240666   1.082   2.462   2.929 -1.2948 -1.4385 -0.0118
12102SOL     OW40667   5.366   6.433   5.106  0.3517  0.1461 -0.0049
12102SOL    HW140668   5.459   6.419   5.128  0.7104 -0.5163 -1.7274
12102SOL    HW240669   5.364   6.430   5.010 -1.4503  0.2541 -0.0006
12103SOL     OW40670   9.596   9.023   9.359 -0.1786 -0.1417 -0.1501
12103SOL    HW140671   9.629   9.094   9.415  1.7072  1.4815 -3.0188
12103SOL    HW240672   9.642   8.945   9.390 -0.5660  0.2901  1.6453
12104SOL     OW40673   0.701   3.627   6.729 -0.1785  0.4201 -0.0725
12104SOL    HW140674   0.703   3.540   6.769 -1.3337  0.2706 -0.3063
12104SOL    HW240675   0.656   3.615   6.646  0.5964  1.0606 -0.6031
12105SOL     OW40676   5.140   3.800  10.132  0.1643 -0.8167 -0.4061
12105SOL    HW140677   5.057   3.848  10.130  0.3774 -0.4423 -0.4053
12105SOL    HW240678   5.131   3.740  10.207  0.4950  0.3451  0.6011
12106SOL     OW40679   3.682   5.432   6.721  0.0076  0.1933  0.2488
12106SOL    HW140680   3.712   5.514   6.761 -0.9543  1.2691 -1.1302
12106SOL    HW240681   3.589   5.427   6.744 -0.3356  0.3557 -1.0324
12107SOL     OW40682   6.911   3.699   1.694  0.4545 -0.4895 -0.7603
12107SOL    HW140683   6.965   3.692   1.773  0.9330  2.2598 -0.7389
12107SOL    HW240684   6.970   3.738   1.629 -0.3003 -1.5319 -2.1265
12108SOL     OW40685   7.288   0.986   6.435  0.2888 -0.3705  0.5466
12108SOL    HW140686   7.332   0.948   6.359 -0.9420 -2.1754  0.6867
12108SOL    HW240687   7.349   1.053   6.467  1.8163 -1.1121 -0.6906
12109SOL     OW40688   0.292   2.872   5.079 -0.2767  0.0121  0.0204
12109SOL    HW140689   0.230   2.832   5.141  0.3897 -1.8064 -0.4198
12109SOL    HW240690   0.368   2.895   5.132  0.2173 -1.3728 -0.0404
12110SOL     OW40691   8.257   3.458   8.646 -0.2408 -0.1626 -0.0067
12110SOL    HW140692   8.265   3.515   8.722  0.6267 -1.1668  0.6958
12110SOL    HW240693   8.319   3.387   8.664 -0.2309 -0.5574 -1.5262
12111SOL     OW40694   4.282   1.806   9.308 -0.4969  0.0258 -0.1318
12111SOL    HW140695   4.248   1.731   9.258  0.4041  0.1231 -0.9174
12111SOL    HW240696   4.236   1.881   9.272  1.0915  0.2673 -1.7948
12112SOL     OW40697   1.727   4.263  10.201  0.1875 -0.2411  0.4352
12112SOL    HW140698   1.692   4.279  10.113  2.6001  1.0841 -0.3662
12112SOL    HW240699   1.665   4.306  10.260 -2.0841 -2.0931 -0.4440
12113SOL     OW40700  10.972   9.502   8.158 -0.8296  0.0389  1.2272
12113SOL    HW140701  10.984   9.594   8.179 -0.6771  0.3685 -0.2251
12113SOL    HW240702  10.901   9.501   8.093  1.2451 -0.5088 -1.1703
12114SOL     OW40703  10.993   1.238   1.921 -0.0655  0.2201 -0.5663
12114SOL    HW140704  10.983   1.332   1.935  0.3366 -0.0904  2.4915
12114SOL    HW240705  11.052   1.231   1.846  0.0642  2.4059 -0.7285
12115SOL     OW40706   5.423   5.982   1.372  0.4027 -0.5757  0.1284
12115SOL    HW140707   5.426   6.070   1.410 -1.2841 -0.3931 -0.1061
12115SOL    HW240708   5.438   5.924   1.447 -0.2554 -0.1340  0.6234
12116SOL     OW40709   6.787  10.089   8.923  0.1565 -0.2175 -0.1712
12116SOL    HW140710   6.806  10.178   8.894 -0.1833 -0.3421 -0.7993
12116SOL    HW240711   6.872  10.045   8.922  0.2361 -0.0602 -0.4368
12117SOL     OW40712   7.349   7.176   1.477 -0.1523  0.1989 -0.0784
12117SOL    HW140713   7.387   7.199   1.392  2.0347 -0.2479  0.7283
12117SOL    HW240714   7.371   7.083   1.488  1.3176  0.7096  1.7887
12118SOL     OW40715  10.767  10.285  10.661  0.1197  0.4095 -0.0182
12118SOL    HW140716  10.810  10.200  10.648 -1.2642 -0.3007 -0.1424
12118SOL    HW240717  10.789  10.309  10.751  0.5385 -0.0605  0.0121
12119SOL     OW40718   9.427  10.678   9.771  0.2327 -0.1943  0.0071
12119SOL    HW140719   9.430  10.750   9.834 -1.4920 -1.3777  1.5923
12119SOL    HW240720   9.396  10.717   9.690  1.4070  1.1828  0.1762
12120SOL     OW40721   2.719   4.260   9.045 -0.4892  0.1628 -0.3804
12120SOL    HW140722   2.703   4.250   9.139 -1.4709 -2.5393 -0.7371
12120SOL    HW240723   2.637   4.294   9.010 -0.4860  0.1763 -0.3747
12121SOL     OW40724   8.703   3.549   3.069 -0.1813  0.5430  0.3270
12121SOL    HW140725   8.645   3.625   3.071  0.1724  0.8601 -0.8250
12121SOL    HW240726   8.643   3.474   3.068 -0.5328  0.7123  2.9532
12122SOL     OW40727  10.588   8.889   8.308 -0.0006 -0.6992  0.1159
12122SOL    HW140728  10.577   8.915   8.400 -0.5773  1.5024 -0.5141
12122SOL    HW240729  10.623   8.800   8.312  1.0412 -0.2490  2.4805
12123SOL     OW40730   3.008  10.417   7.289  0.0846  0.0556  0.6500
12123SOL    HW140731   3.062  10.339   7.274 -0.3261  0.2253 -2.5860
12123SOL    HW240732   2.921  10.382   7.309  0.5343 -0.2529  2.1403
12124SOL     OW40733   4.173   5.705   4.163  0.5547 -0.7030  0.3015
12124SOL    HW140734   4.162   5.732   4.254  0.4038 -0.9456  0.3544
12124SOL    HW240735   4.198   5.786   4.117  3.5195 -1.0936  1.0585
12125SOL     OW40736   4.001   5.770   0.949  0.0183  0.1783  0.2687
12125SOL    HW140737   4.017   5.797   0.859  0.7075  0.1956  0.3919
12125SOL    HW240738   4.067   5.815   1.001 -1.7538  1.9924  1.1219
12126SOL     OW40739   3.814  10.594   2.350  0.5878 -0.2170  0.2560
12126SOL    HW140740   3.831  10.609   2.443  0.1922  0.3863  0.2377
12126SOL    HW240741   3.790  10.680   2.316 -0.7241 -0.6961 -0.0934
12127SOL     OW40742   5.614  10.111   7.755  0.1860 -0.0708  0.2380
12127SOL    HW140743   5.691  10.055   7.764  0.2207  0.1099  1.1983
12127SOL    HW240744   5.650  10.199   7.740  0.1934  0.1161  1.2853
12128SOL     OW40745   5.666   9.697   7.196  0.2949  0.2296 -0.2207
12128SOL    HW140746   5.629   9.766   7.251  0.7049 -0.6556  1.2424
12128SOL    HW240747   5.760   9.711   7.199  0.4318 -0.7092  0.5925
12129SOL     OW40748   8.538   4.078   2.516 -0.5957 -0.0127  0.0954
12129SOL    HW140749   8.617   4.125   2.489 -0.4078  1.1522  2.4719
12129SOL    HW240750   8.480   4.146   2.550 -1.6694 -1.1252  0.5455
12130SOL     OW40751   3.752   7.633   2.329  0.7989 -0.0562 -0.2212
12130SOL    HW140752   3.732   7.725   2.347  1.9789  0.3300 -0.7614
12130SOL    HW240753   3.727   7.586   2.408  0.1258  0.7200  0.0363
12131SOL     OW40754   9.771   8.512   7.400 -0.2875 -0.2231  0.0858
12131SOL    HW140755   9.746   8.602   7.421 -0.2871 -0.3089  0.4582
12131SOL    HW240756   9.804   8.476   7.482  0.9593 -0.1498 -0.3619
12132SOL     OW40757   5.868   4.074   4.524  0.0979 -0.1514  0.4873
12132SOL    HW140758   5.870   4.156   4.573 -1.1771  0.1682  0.0387
12132SOL    HW240759   5.940   4.022   4.560  3.3918  2.5068 -1.6095
12133SOL     OW40760   3.409  10.460   2.776 -0.3783 -0.2805  0.6232
12133SOL    HW140761   3.358  10.536   2.749 -0.7093 -0.6326  0.2390
12133SOL    HW240762   3.462  10.438   2.699 -1.4579 -1.4012  0.1748
12134SOL     OW40763   0.078   8.033   1.004  0.2298  0.5813 -0.1894
12134SOL    HW140764   0.138   8.094   1.048  0.3617  1.1446 -1.1187
12134SOL    HW240765   0.134   7.979   0.949  0.2255 -1.0760  1.3565
12135SOL     OW40766   1.269   7.889   7.635 -0.0403 -0.2633  0.3573
12135SOL    HW140767   1.279   7.982   7.654 -0.8882 -0.2846  0.9422
12135SOL    HW240768   1.259   7.885   7.540  0.4632  0.1924  0.2818
12136SOL     OW40769   4.107   7.377   3.868 -0.3213 -0.0213  0.2750
12136SOL    HW140770   4.145   7.463   3.885  0.1921  0.3196 -2.1515
12136SOL    HW240771   4.018   7.395   3.839  0.1734 -0.1255 -1.4553
12137SOL     OW40772   8.396   8.778   8.272  0.4552  0.5681  0.1015
12137SOL    HW140773   8.491   8.771   8.260  0.1681  0.2784 -2.6439
12137SOL    HW240774   8.371   8.694   8.311  1.1653  0.1035 -0.4150
12138SOL     OW40775   9.346   0.622   0.966  0.3320  0.1457  0.7261
12138SOL    HW140776   9.423   0.578   1.003  1.2120  0.0951 -1.0401
12138SOL    HW240777   9.381   0.672   0.892 -1.5029 -0.9147 -0.9605
12139SOL     OW40778   7.952   8.881   0.139 -0.3223 -0.3982  0.0112
12139SOL    HW140779   7.895   8.856   0.066  0.4227 -4.3945  0.6056
12139SOL    HW240780   7.891   8.902   0.210 -1.0484 -0.6624 -0.5135
12140SOL     OW40781   9.680   1.361  10.114  0.0896 -0.0045 -0.0568
12140SOL    HW140782   9.752   1.419  10.090 -0.9143  1.2885 -0.0977
12140SOL    HW240783   9.636   1.342  10.031  0.5744 -1.0732 -0.0789
12141SOL     OW40784  10.216   9.874   1.838 -0.3295  0.2354 -0.4934
12141SOL    HW140785  10.237   9.968   1.834  3.3741 -0.1032  3.0623
12141SOL    HW240786  10.173   9.863   1.923  1.6469 -1.4506  0.3947
12142SOL     OW40787   8.775   3.884   6.722 -0.0212 -0.1636  0.0867
12142SOL    HW140788   8.771   3.942   6.645 -1.5482 -0.4910 -0.1159
12142SOL    HW240789   8.787   3.797   6.685  1.2409 -0.1275  0.3465
12143SOL     OW40790   2.389   8.770   8.502 -0.1252  0.4620  0.5556
12143SOL    HW140791   2.321   8.836   8.517 -2.1967 -1.6625  1.1372
12143SOL    HW240792   2.420   8.788   8.414 -0.9871  1.8982  0.5060
12144SOL     OW40793   8.123   5.973   8.152  0.0656 -0.5686  0.2734
12144SOL    HW140794   8.132   5.990   8.058  0.5505 -0.5329  0.3248
12144SOL    HW240795   8.190   6.028   8.193 -3.4606  3.7236  1.0890
12145SOL     OW40796   4.753   6.204  10.918 -0.5339  0.0852 -0.4782
12145SOL    HW140797   4.783   6.134  10.861 -0.5325  0.1410 -0.5468
12145SOL    HW240798   4.662   6.182  10.937 -1.1250  1.0407 -2.0258
12146SOL     OW40799   7.551   9.606   2.046 -0.4005 -0.1920 -0.0150
12146SOL    HW140800   7.562   9.600   2.141 -0.6399 -0.6062 -0.0102
12146SOL    HW240801   7.492   9.680   2.033  0.8903  0.8807  0.0651
12147SOL     OW40802   1.695   1.200   3.014 -0.7270  0.2268  0.0675
12147SOL    HW140803   1.617   1.147   3.025  0.2911 -1.0296  1.5942
12147SOL    HW240804   1.703   1.211   2.919 -2.4509 -0.0292 -0.1452
12148SOL     OW40805   3.588   2.758   4.905 -0.3774  0.2015 -0.2179
12148SOL    HW140806   3.626   2.681   4.948 -1.1784 -0.4071 -0.5690
12148SOL    HW240807   3.649   2.780   4.835  0.4943  0.6670  0.6649
12149SOL     OW40808   3.006   7.837   1.365  0.0965  0.0416  0.0678
12149SOL    HW140809   2.933   7.786   1.400 -0.2252  0.2177 -0.3418
12149SOL    HW240810   2.979   7.928   1.374 -1.3831  0.1209 -3.3895
12150SOL     OW40811   3.444  10.835  10.775  0.0721  0.2971 -0.4044
12150SOL    HW140812   3.484  10.783  10.845 -1.8456 -1.7364 -0.6947
12150SOL    HW240813   3.518  10.869  10.725  1.4550  0.2967  1.5253
12151SOL     OW40814   9.191   5.750   3.288 -0.2466  0.0875 -0.1332
12151SOL    HW140815   9.284   5.746   3.307 -0.4478 -1.0617  0.6888
12151SOL    HW240816   9.153   5.676   3.335 -1.6050  0.6510 -0.2803
12152SOL     OW40817   2.309   7.144   6.071  0.0809 -0.1565  0.1281
12152SOL    HW140818   2.269   7.230   6.069 -0.5300 -0.4585 -1.4130
12152SOL    HW240819   2.242   7.087   6.107 -0.1457 -0.2908 -0.4963
12153SOL     OW40820   4.331   2.375   5.084 -0.0278  0.0332 -0.1496
12153SOL    HW140821   4.247   2.341   5.114 -0.6438 -0.3569 -2.1275
12153SOL    HW240822   4.325   2.370   4.988  2.3788 -0.3321 -0.3355
12154SOL     OW40823   8.683   4.885   3.728  0.1303 -0.7412  0.2214
12154SOL    HW140824   8.755   4.873   3.666  1.3464 -0.8870  1.6034
12154SOL    HW240825   8.723   4.873   3.814 -1.5553 -0.7913  1.0429
12155SOL     OW40826   8.363   4.592   9.068  0.1783 -0.4828  0.2537
12155SOL    HW140827   8.400   4.553   8.989 -1.6088  2.4636 -2.2918
12155SOL    HW240828   8.270   4.571   9.065 -0.3122  1.4347  0.3049
12156SOL     OW40829   0.902   3.791   9.163 -0.1141 -0.5455  0.4630
12156SOL    HW140830   0.974   3.732   9.141 -0.6978 -1.0922 -0.0428
12156SOL    HW240831   0.925   3.875   9.124 -0.7926 -1.3061 -1.6991
12157SOL     OW40832   4.683   1.234   5.314 -0.0711  0.2732 -0.0185
12157SOL    HW140833   4.751   1.167   5.307 -2.1863 -2.0736  0.1638
12157SOL    HW240834   4.650   1.245   5.225 -1.2660 -0.7274  0.2686
12158SOL     OW40835   4.940   3.727  10.559  0.2767  0.2434  0.5449
12158SOL    HW140836   4.989   3.731  10.477  0.8833 -0.6598  0.8544
12158SOL    HW240837   5.008   3.724  10.627 -0.2096 -0.2821  1.0139
12159SOL     OW40838  10.307   9.917  10.063  0.0877  0.8449  0.2286
12159SOL    HW140839  10.263   9.958  10.138  1.2527  0.8321  0.9575
12159SOL    HW240840  10.350   9.990  10.018  1.3184  0.5864  0.9400
12160SOL     OW40841   8.539   5.133  10.493 -0.1483 -0.0865 -0.2936
12160SOL    HW140842   8.624   5.167  10.467  0.3194 -1.7538 -1.0612
12160SOL    HW240843   8.557   5.079  10.570 -0.5707 -0.1593 -0.2403
12161SOL     OW40844   4.313   6.605   1.966  0.0845  0.1652 -0.2987
12161SOL    HW140845   4.270   6.536   1.916 -1.8372  1.1032 -0.0077
12161SOL    HW240846   4.266   6.608   2.050  1.3417  0.5965  0.4269
12162SOL     OW40847   7.413   6.510   7.660 -0.1599  0.5009 -0.5759
12162SOL    HW140848   7.402   6.596   7.701  2.3091  0.7222 -0.2337
12162SOL    HW240849   7.455   6.457   7.728  0.3147 -0.3334 -1.5073
12163SOL     OW40850  10.022  10.659   9.177  0.1058  0.1546  0.4546
12163SOL    HW140851  10.059  10.637   9.092 -1.6732 -2.6819  0.2712
12163SOL    HW240852   9.974  10.741   9.162 -0.1152 -0.2451 -1.2648
12164SOL     OW40853   1.932   7.435   2.497 -0.2943 -0.4071  0.3476
12164SOL    HW140854   1.883   7.516   2.514 -0.9705 -0.8746  0.6538
12164SOL    HW240855   2.023   7.459   2.513 -0.3854  0.5363 -0.4513
12165SOL     OW40856   7.354   1.456   1.632  0.2093  0.3101 -0.2155
12165SOL    HW140857   7.264   1.475   1.606  0.6024  1.4869 -0.7867
12165SOL    HW240858   7.384   1.536   1.675  0.6601 -0.4367  0.9115
12166SOL     OW40859   7.300   7.551   6.097 -0.2947  0.3733 -0.4370
12166SOL    HW140860   7.313   7.565   6.003 -0.6211  0.3077 -0.4944
12166SOL    HW240861   7.209   7.522   6.105  0.1099 -0.9267 -0.2405
12167SOL     OW40862   4.786  10.816   8.579 -0.3180  0.0188  0.1715
12167SOL    HW140863   4.752  10.822   8.668  1.1401 -0.3424  0.7698
12167SOL    HW240864   4.834  10.733   8.576 -1.4315 -0.6106 -1.3524
12168SOL     OW40865   0.333   3.810   1.281 -0.2437  0.3262 -0.1370
12168SOL    HW140866   0.392   3.884   1.267  1.7734 -0.9471  1.1229
12168SOL    HW240867   0.254   3.849   1.318  0.6620  1.8756  0.2765
12169SOL     OW40868   4.859   0.416   2.787 -0.0106  0.3022  0.1049
12169SOL    HW140869   4.822   0.376   2.866  1.8218  0.5542  1.1632
12169SOL    HW240870   4.863   0.509   2.807  1.5055  0.2385  0.2162
12170SOL     OW40871   8.784   1.617   3.984  0.2338 -0.0108  0.1918
12170SOL    HW140872   8.870   1.577   3.995 -0.1621 -0.6191  1.1959
12170SOL    HW240873   8.788   1.659   3.898  0.8310 -1.7743 -0.6856
12171SOL     OW40874   8.506   1.699   2.655  0.3322 -0.1411 -0.1586
12171SOL    HW140875   8.556   1.620   2.674  1.0203  0.6902  1.6471
12171SOL    HW240876   8.569   1.758   2.615 -0.4220 -0.8114 -2.5170
12172SOL     OW40877   7.033   2.116   9.324 -0.2564 -0.4726  0.0556
12172SOL    HW140878   6.995   2.183   9.267 -1.9484 -1.8708 -0.5529
12172SOL    HW240879   7.125   2.111   9.298 -0.0454  1.6395  0.1967
12173SOL     OW40880   6.809   3.808   4.598 -0.1707  0.0361  0.5904
12173SOL    HW140881   6.860   3.816   4.678  0.0663 -2.2825  0.7539
12173SOL    HW240882   6.737   3.749   4.620 -0.3423 -0.3176 -0.7652
12174SOL     OW40883   4.877   2.509   5.236  0.7328 -0.1505 -0.1689
12174SOL    HW140884   4.802   2.558   5.269  1.8069  1.0495  0.5895
12174SOL    HW240885   4.857   2.417   5.256 -0.5802  0.1347 -0.1138
12175SOL     OW40886   8.006   6.907   8.478  0.3460 -0.8962  0.7376
12175SOL    HW140887   8.026   6.902   8.571 -1.5425 -3.6340  1.1208
12175SOL    HW240888   8.025   6.819   8.445 -0.8837 -0.5612 -1.0068
12176SOL     OW40889   0.511  10.197   8.996 -0.0560 -0.1944  0.0174
12176SOL    HW140890   0.584  10.250   9.025  0.0858 -1.1204  1.4713
12176SOL    HW240891   0.549  10.137   8.931  0.5528 -0.8197  0.9255
12177SOL     OW40892   8.507   1.411   0.013 -0.1341  1.0340 -0.6564
12177SOL    HW140893   8.586   1.462  -0.007  0.3001  1.4140  1.7203
12177SOL    HW240894   8.477   1.445   0.097 -1.0042 -1.2249  0.0374
12178SOL     OW40895   6.210   9.738   8.773  0.4547 -0.1774 -0.1052
12178SOL    HW140896   6.300   9.739   8.808  0.0525 -0.8801  1.0067
12178SOL    HW240897   6.158   9.696   8.842 -0.3144 -2.0465 -1.7184
12179SOL     OW40898   9.845   1.936   6.319  0.0481 -0.6598 -0.3427
12179SOL    HW140899   9.901   1.928   6.241 -1.5381 -0.5690 -1.5572
12179SOL    HW240900   9.794   1.854   6.319  0.4660 -0.9352  0.9876
12180SOL     OW40901   3.551   2.394   3.468 -0.0848  0.6113  0.6326
12180SOL    HW140902   3.533   2.413   3.560 -1.5198  1.1525  0.2659
12180SOL    HW240903   3.526   2.302   3.457 -0.6906  0.7787  0.6003
12181SOL     OW40904  10.112   1.245   5.121  0.1765  0.6338  0.3470
12181SOL    HW140905  10.147   1.314   5.065  0.3012  0.6905  0.4934
12181SOL    HW240906  10.144   1.267   5.209  1.6165 -0.4998  0.1529
12182SOL     OW40907   6.413   8.663  10.659  0.1604  0.5116 -0.2995
12182SOL    HW140908   6.431   8.716  10.581  1.2206 -0.2739 -0.6040
12182SOL    HW240909   6.373   8.583  10.625 -2.7118  1.5672  0.2457
12183SOL     OW40910   8.467  11.090   1.652 -0.3306  0.3315  0.7118
12183SOL    HW140911   8.520  11.132   1.720 -0.5742  1.0683  0.4540
12183SOL    HW240912   8.516  11.105   1.571  0.0444 -0.6903  0.7280
12184SOL     OW40913  10.091   0.072   3.505 -0.0090 -0.4268 -0.0273
12184SOL    HW140914  10.137   0.007   3.452  1.7042  0.0729  0.7879
12184SOL    HW240915  10.046   0.020   3.572  2.6425 -0.7556  1.6044
12185SOL     OW40916   4.749  10.421   1.895  0.0425 -0.1032 -0.2878
12185SOL    HW140917   4.796  10.392   1.817  0.4347  1.1741 -0.5492
12185SOL    HW240918   4.796  10.499   1.925  0.6813 -1.2737  2.0006
12186SOL     OW40919   4.988   2.483   7.587  0.1159 -0.2526 -0.4162
12186SOL    HW140920   4.983   2.400   7.540 -0.7015 -0.1399 -0.5444
12186SOL    HW240921   5.080   2.509   7.580  0.0176 -0.2330 -1.9616
12187SOL     OW40922   5.423   9.356   4.508 -0.1843 -0.0190  0.1854
12187SOL    HW140923   5.436   9.433   4.452  0.5737  0.1585  0.5931
12187SOL    HW240924   5.348   9.379   4.563 -0.6257 -0.0015 -0.4012
12188SOL     OW40925   8.036   2.144   7.277  0.4241  0.3310 -0.9788
12188SOL    HW140926   7.941   2.151   7.266  0.2085  1.4659  1.1232
12188SOL    HW240927   8.052   2.050   7.286 -1.0361  0.2752  2.1153
12189SOL     OW40928   1.238   8.974   6.454 -0.3394  0.5708 -0.4652
12189SOL    HW140929   1.308   9.022   6.499  0.0587  0.3688 -0.8602
12189SOL    HW240930   1.279   8.892   6.426 -1.5105 -0.9557  1.9499
12190SOL     OW40931   9.913   6.125   6.887  0.3754 -0.3229  0.1179
12190SOL    HW140932   9.870   6.130   6.972 -0.0162  2.4887 -0.1745
12190SOL    HW240933   9.843   6.140   6.824  0.9347 -0.8228 -0.6393
12191SOL     OW40934   4.230   8.244   4.310 -0.0255 -0.2362 -0.0343
12191SOL    HW140935   4.281   8.247   4.391 -2.0982 -0.0491  1.3383
12191SOL    HW240936   4.267   8.314   4.256  1.0871 -0.0495  0.9136
12192SOL     OW40937   7.274   0.094   0.081  0.1604  0.1977  0.3844
12192SOL    HW140938   7.212   0.136   0.021  1.6052 -0.9843 -2.1221
12192SOL    HW240939   7.324   0.035   0.025 -0.0381 -2.9430  3.2492
12193SOL     OW40940   1.812   9.483  10.580 -0.1875  0.2604  0.2497
12193SOL    HW140941   1.721   9.513  10.585 -0.7910 -1.6859  2.4645
12193SOL    HW240942   1.810   9.407  10.523  0.1489  0.5086 -0.0982
12194SOL     OW40943   6.517   1.910   5.736  0.6136  0.3501 -0.2492
12194SOL    HW140944   6.447   1.857   5.773 -0.2842  1.2352 -0.6325
12194SOL    HW240945   6.534   1.977   5.803  1.0571  0.1848 -0.1895
12195SOL     OW40946   4.363  10.253   0.944 -0.2812  0.4506  0.3017
12195SOL    HW140947   4.454  10.262   0.915 -0.5026  0.6413 -0.3387
12195SOL    HW240948   4.328  10.181   0.890 -0.3686  0.0384  0.8967
12196SOL     OW40949   8.319   9.931   9.667  0.1077  0.4880 -0.1388
12196SOL    HW140950   8.390   9.889   9.619  1.8448  1.5098  1.4326
12196SOL    HW240951   8.288   9.863   9.727  1.3531  0.7118  0.7909
12197SOL     OW40952   6.178   7.385   2.423  0.3051 -0.2740  0.4870
12197SOL    HW140953   6.231   7.404   2.345  1.9327 -1.4701  1.2304
12197SOL    HW240954   6.088   7.405   2.397  1.1205  2.3109 -0.7001
12198SOL     OW40955   1.022   7.184   9.087 -0.7722  0.1894  0.0364
12198SOL    HW140956   1.002   7.277   9.081 -0.8807  0.1472 -0.2908
12198SOL    HW240957   1.112   7.176   9.056  0.3884  0.5848  2.9488
12199SOL     OW40958   5.026   8.782   0.581  0.1723  0.1558  0.0824
12199SOL    HW140959   4.994   8.869   0.556 -0.0936  0.2598  0.7667
12199SOL    HW240960   4.967   8.721   0.537 -0.3575  0.3368  0.5316
12200SOL     OW40961   4.292   5.714   7.002  0.1164 -0.2045  0.8184
12200SOL    HW140962   4.386   5.700   7.013  0.0294 -0.6497  1.0458
12200SOL    HW240963   4.285   5.784   6.937  0.6086  0.2300  1.2285
12201SOL     OW40964   9.414   6.877   6.217 -0.2137  0.0160  0.3062
12201SOL    HW140965   9.411   6.791   6.175  1.3077  0.1321 -0.0955
12201SOL    HW240966   9.401   6.939   6.145 -1.8818  0.1404  0.6779
12202SOL     OW40967   5.003   4.955   5.496  0.2347 -0.1594 -0.0104
12202SOL    HW140968   5.087   4.924   5.461  1.3603  0.9398  1.5504
12202SOL    HW240969   5.002   4.925   5.587 -0.8700  0.2081  0.1193
12203SOL     OW40970   2.781   4.111   7.545 -0.1479 -0.9963  0.2450
12203SOL    HW140971   2.796   4.147   7.632 -0.0112 -0.4091 -0.0180
12203SOL    HW240972   2.818   4.022   7.549  0.7354 -0.6247  0.5012
12204SOL     OW40973   5.062  10.569   3.919 -0.3136  0.2418  0.3060
12204SOL    HW140974   5.019  10.618   3.990  1.1571 -0.7029  1.9200
12204SOL    HW240975   5.027  10.608   3.839 -2.9088  0.5921  1.5083
12205SOL     OW40976   2.747   4.375   0.750  0.1975 -0.0968 -0.1139
12205SOL    HW140977   2.719   4.419   0.831 -0.0378  0.2213 -0.3642
12205SOL    HW240978   2.835   4.344   0.769  1.2671  2.3705 -0.6269
12206SOL     OW40979   5.379   3.553   7.348  0.0185  0.4582 -0.3310
12206SOL    HW140980   5.336   3.474   7.314  1.1846 -0.4583  0.2924
12206SOL    HW240981   5.364   3.550   7.442  0.7347  0.5669 -0.2104
12207SOL     OW40982   7.200  10.826   0.631 -0.1301  0.2492  0.0006
12207SOL    HW140983   7.243  10.889   0.689  1.2162 -0.1285 -0.5592
12207SOL    HW240984   7.208  10.742   0.676 -0.6284  0.2323  0.0651
12208SOL     OW40985   2.018   0.519   1.446 -0.4804  0.6186 -0.1895
12208SOL    HW140986   1.968   0.464   1.508  0.8674  0.4780  0.8063
12208SOL    HW240987   2.096   0.467   1.426  0.0859  1.5396 -0.4097
12209SOL     OW40988   5.252   6.623  10.032  0.5711 -0.6142  0.6132
12209SOL    HW140989   5.215   6.599  10.117  0.2557 -0.9342  0.3873
12209SOL    HW240990   5.300   6.545  10.003  0.1573 -0.7275  0.2154
12210SOL     OW40991   3.136   8.099   3.371  0.2725  0.1184  0.4837
12210SOL    HW140992   3.190   8.132   3.443  0.3407  0.9434  0.0665
12210SOL    HW240993   3.189   8.112   3.293 -0.9856  2.1510 -0.0966
12211SOL     OW40994   2.738   8.026   2.980 -0.4259 -0.3033  0.0614
12211SOL    HW140995   2.829   8.054   2.973 -0.1487 -1.0510  0.5657
12211SOL    HW240996   2.688   8.107   2.972  0.2397  0.0260 -0.9750
12212SOL     OW40997   8.697   6.608   0.917  0.1489 -0.2639  0.2645
12212SOL    HW140998   8.727   6.517   0.912 -0.6521 -0.6828  2.2283
12212SOL    HW240999   8.650   6.622   0.835  1.4011 -1.1715 -0.6457
12213SOL     OW41000   0.211   6.982   0.133  0.3338  0.4501  0.0107
12213SOL    HW141001   0.272   7.050   0.103  1.2870 -0.6672 -0.6748
12213SOL    HW241002   0.126   7.026   0.135  1.1188  2.0008  0.8373
12214SOL     OW41003   5.525   4.187   1.973  0.0011  0.6052 -0.3983
12214SOL    HW141004   5.478   4.104   1.969 -0.9910  1.1863 -1.2090
12214SOL    HW241005   5.602   4.174   1.917 -0.5322  0.4613 -1.1082
12215SOL     OW41006   7.186   8.214   6.208 -0.3742  0.2904  0.1694
12215SOL    HW141007   7.192   8.271   6.285 -0.8425 -0.7852  1.0232
12215SOL    HW241008   7.164   8.274   6.136 -2.5780  1.0086  1.3427
12216SOL     OW41009   3.102   2.755   8.152  0.2891 -0.0657  0.3202
12216SOL    HW141010   3.197   2.757   8.164  0.4504  2.4478 -0.7811
12216SOL    HW241011   3.070   2.831   8.200 -0.3876  2.6642 -3.8574
12217SOL     OW41012   4.344  10.667   2.041  0.2376 -0.2611 -0.0458
12217SOL    HW141013   4.356  10.711   2.124 -1.6585  0.0411  0.1238
12217SOL    HW241014   4.312  10.579   2.064 -2.7408  0.6142 -0.3659
12218SOL     OW41015   3.081   3.125   2.599  0.2318 -0.5015 -0.1762
12218SOL    HW141016   3.028   3.116   2.678 -1.2564 -0.5538 -1.1496
12218SOL    HW241017   3.102   3.036   2.573 -1.5045 -0.6412 -1.2593
12219SOL     OW41018   1.512   0.568   4.712  0.0405 -0.8396 -0.1546
12219SOL    HW141019   1.454   0.629   4.668  1.1200  0.1750 -0.2214
12219SOL    HW241020   1.566   0.531   4.642  2.1167  1.1647  0.2792
12220SOL     OW41021   1.705   9.555   9.770  0.1339  0.0487  0.2657
12220SOL    HW141022   1.615   9.523   9.766  0.3226 -0.4832  0.1832
12220SOL    HW241023   1.702   9.642   9.729 -0.3672  0.1010  0.4085
12221SOL     OW41024   0.980   1.897   2.131 -0.2419  0.1338  0.2880
12221SOL    HW141025   1.039   1.888   2.206  0.8047  1.2677 -0.3622
12221SOL    HW241026   0.975   1.809   2.095  2.6009  0.2761 -0.7221
12222SOL     OW41027   1.784   5.162   4.731 -0.1196 -0.1450  0.0317
12222SOL    HW141028   1.747   5.244   4.762 -1.3117 -0.9313  0.7870
12222SOL    HW241029   1.818   5.182   4.644  0.0415  1.2449  0.3882
12223SOL     OW41030   6.647   2.266   3.467 -0.4072 -0.6422 -0.0655
12223SOL    HW141031   6.648   2.247   3.561 -0.3582  0.2092  0.1144
12223SOL    HW241032   6.733   2.237   3.436  0.0821  0.2618  0.4094
12224SOL     OW41033  10.583   8.019   5.007  0.0135  0.3803 -0.0264
12224SOL    HW141034  10.533   8.026   5.088 -0.1815  0.4018 -0.1468
12224SOL    HW241035  10.528   7.967   4.949  1.7899 -3.0930  1.1360
12225SOL     OW41036   7.240   6.482   4.292  0.1054 -0.1649 -0.5910
12225SOL    HW141037   7.239   6.520   4.204 -0.8295 -0.6537 -0.8055
12225SOL    HW241038   7.170   6.528   4.339  0.9890  0.5150  0.0962
12226SOL     OW41039   9.914   1.498  10.067 -0.4696  0.0918  0.1357
12226SOL    HW141040   9.946   1.471   9.980  0.7338  0.0741  0.5657
12226SOL    HW241041   9.950   1.586  10.080  0.4692 -0.4147  1.1427
12227SOL     OW41042   6.053   4.608   0.457  0.4478  0.3474 -0.6930
12227SOL    HW141043   6.056   4.519   0.421  0.6959  0.1416 -0.1838
12227SOL    HW241044   6.126   4.611   0.519 -0.2088  0.5544  0.0899
12228SOL     OW41045   0.424   5.940   1.448 -0.0742  0.1067 -0.0027
12228SOL    HW141046   0.385   5.857   1.476  0.6527  0.0451  0.8707
12228SOL    HW241047   0.362   6.007   1.478 -0.4218 -0.0822 -0.2828
12229SOL     OW41048   7.552   3.800   4.817  0.3808  0.4146 -0.5387
12229SOL    HW141049   7.500   3.832   4.891 -0.6162 -0.9050 -0.6195
12229SOL    HW241050   7.643   3.817   4.841  0.1251 -0.5504  1.3004
12230SOL     OW41051   9.439   3.683   8.924 -0.0674 -0.2900 -0.3085
12230SOL    HW141052   9.509   3.625   8.894 -2.0853 -1.7750 -2.5143
12230SOL    HW241053   9.363   3.658   8.871 -2.2281  1.3924  1.7986
12231SOL     OW41054   1.084   7.069  10.879  0.3185  0.2472  0.6071
12231SOL    HW141055   1.103   7.142  10.938  1.2946  0.3484  0.1845
12231SOL    HW241056   1.143   7.083  10.804 -0.2019 -0.4228  0.0630
12232SOL     OW41057   0.829   5.962   9.125 -0.1625  0.1810  0.2767
12232SOL    HW141058   0.847   5.974   9.218 -0.0748 -0.2256  0.3133
12232SOL    HW241059   0.800   5.871   9.117  0.1766  0.1021 -0.1410
12233SOL     OW41060   1.587   2.845   8.191 -0.0048 -0.2202 -0.3259
12233SOL    HW141061   1.679   2.850   8.166 -0.0303 -0.1715 -0.4107
12233SOL    HW241062   1.549   2.928   8.163  0.0416 -0.0168  0.1908
12234SOL     OW41063   9.282   5.469   0.083  0.2580 -0.4438  0.4018
12234SOL    HW141064   9.298   5.376   0.067 -1.0246 -0.4326 -1.0502
12234SOL    HW241065   9.357   5.513   0.044  1.5785 -0.8905  2.2855
12235SOL     OW41066   9.660   7.547   6.693 -0.0631  0.1976  0.5817
12235SOL    HW141067   9.704   7.573   6.613 -1.7345 -0.9557 -0.7887
12235SOL    HW241068   9.585   7.606   6.700  0.2998  0.5743  1.5654
12236SOL     OW41069  10.564   3.655   0.738 -0.2615  0.2804 -0.0293
12236SOL    HW141070  10.510   3.619   0.808  0.3483 -1.4007 -0.3511
12236SOL    HW241071  10.512   3.726   0.700 -1.0405  0.5069  1.4187
12237SOL     OW41072   5.378   4.996   6.549 -0.0172 -0.2439  0.3630
12237SOL    HW141073   5.363   4.912   6.504  1.1027 -0.3545  0.1696
12237SOL    HW241074   5.382   4.973   6.642 -0.4914 -0.2853  0.3758
12238SOL     OW41075   2.942   4.898  11.075 -0.0673 -0.0274 -0.0143
12238SOL    HW141076   2.986   4.885  11.159  0.8571  0.6069 -0.3788
12238SOL    HW241077   2.852   4.922  11.097  0.8147  2.7754  0.8960
12239SOL     OW41078   1.778   8.512   6.256  0.1452  0.0821  0.1533
12239SOL    HW141079   1.684   8.517   6.239 -0.2138 -1.2306  1.4459
12239SOL    HW241080   1.817   8.581   6.203 -1.7487  1.9350  1.0230
12240SOL     OW41081   5.415   4.657   3.071  0.1652  0.4227 -0.0795
12240SOL    HW141082   5.463   4.609   3.003  0.0103  0.2327 -0.0576
12240SOL    HW241083   5.449   4.622   3.153 -0.1339  0.1599 -0.0645
12241SOL     OW41084   6.079   2.727   8.804  0.2249 -0.3197 -0.1501
12241SOL    HW141085   6.024   2.796   8.766  1.8162  0.4073 -1.2495
12241SOL    HW241086   6.160   2.731   8.753  0.2161 -3.3122 -0.5696
12242SOL     OW41087   9.905   9.082   2.232  0.0000 -0.0192  0.0819
12242SOL    HW141088   9.952   8.999   2.226 -1.2400 -0.7433 -0.0960
12242SOL    HW241089   9.948   9.139   2.168  2.1404  0.1804  1.6055
12243SOL     OW41090   6.946   0.394   0.397  0.3668 -0.0340  0.3335
12243SOL    HW141091   6.946   0.343   0.316 -0.7049 -0.6867  0.7270
12243SOL    HW241092   7.010   0.350   0.453 -0.0491 -0.5550  0.4144
12244SOL     OW41093   3.827  10.835   1.507  0.0919  0.3599 -0.1042
12244SOL    HW141094   3.890  10.801   1.571 -1.3789  0.9409  1.7149
12244SOL    HW241095   3.770  10.893   1.557 -0.7652  1.3138 -2.0758
12245SOL     OW41096   8.474   5.316   2.023 -0.2626  0.0463 -0.1124
12245SOL    HW141097   8.524   5.276   2.095  1.5431  1.6205 -0.4288
12245SOL    HW241098   8.519   5.286   1.944 -0.7173  0.3458 -0.4868
12246SOL     OW41099   4.795   6.333   2.726  0.1693 -0.3613 -0.3535
12246SOL    HW141100   4.820   6.419   2.694 -0.6786 -0.3029 -0.9064
12246SOL    HW241101   4.806   6.338   2.821  0.9856  0.0537 -0.4614
12247SOL     OW41102   7.143   2.645  10.056 -0.1526  0.7192  1.0451
12247SOL    HW141103   7.211   2.651   9.989  0.8508  0.8897  2.0425
12247SOL    HW241104   7.189   2.663  10.138 -1.0882 -0.7453  1.9308
12248SOL     OW41105   7.783   4.213   8.720 -0.0037  0.0879  0.4108
12248SOL    HW141106   7.859   4.270   8.707 -0.1894  0.2798  0.1638
12248SOL    HW241107   7.796   4.176   8.808  1.8414 -2.0710 -0.6532
12249SOL     OW41108   0.015  10.809   8.332  0.1710 -0.0724  0.2620
12249SOL    HW141109   0.061  10.770   8.257  0.8119  1.5807 -0.2546
12249SOL    HW241110   0.083  10.858   8.379 -0.6610  0.7256  0.6616
12250SOL     OW41111   5.926   1.943   4.418  0.3594  0.1123  0.7468
12250SOL    HW141112   5.918   1.931   4.513  2.6242  1.2878  1.1528
12250SOL    HW241113   6.011   1.905   4.396  0.5125  1.1372 -0.5526
12251SOL     OW41114  10.492   1.734   6.451  0.3438 -0.0173 -0.3370
12251SOL    HW141115  10.558   1.677   6.490 -2.3625 -3.1531  0.1411
12251SOL    HW241116  10.486   1.808   6.511  2.2507 -0.4493  0.4607
12252SOL     OW41117   2.154   6.620   7.189  0.3232  0.3116 -0.5339
12252SOL    HW141118   2.131   6.530   7.164 -2.4609  1.1376 -1.2750
12252SOL    HW241119   2.117   6.674   7.120 -0.0199  2.1567  1.0258
12253SOL     OW41120   0.090  10.324   0.989  0.2827 -0.4641 -0.1963
12253SOL    HW141121   0.089  10.282   1.075 -0.1825  0.2937  0.1791
12253SOL    HW241122   0.112  10.253   0.928 -0.4179 -1.2293  0.4214
12254SOL     OW41123   8.950   6.949   7.653 -0.1510  0.4256  0.5170
12254SOL    HW141124   8.913   6.944   7.741  0.6778 -1.2101  0.8051
12254SOL    HW241125   9.025   6.890   7.654  1.6183  2.5275 -0.4901
12255SOL     OW41126  10.282   8.783   4.629 -0.1775 -0.0976 -0.6581
12255SOL    HW141127  10.334   8.714   4.588 -0.5847 -1.0942  0.4607
12255SOL    HW241128  10.345   8.831   4.683  0.2580  0.9108 -2.0122
12256SOL     OW41129  10.774   9.430   5.278 -0.0607 -0.4789  0.1878
12256SOL    HW141130  10.730   9.505   5.237  1.8053 -0.1594 -1.3669
12256SOL    HW241131  10.728   9.418   5.361 -1.1755  1.6461 -0.0500
12257SOL     OW41132   9.482   0.145   8.006  0.3267  0.1794  0.0400
12257SOL    HW141133   9.403   0.195   8.023  0.5951  1.0345 -1.0664
12257SOL    HW241134   9.452   0.067   7.959  0.0362 -0.0895  0.6583
12258SOL     OW41135   4.151   6.187   1.512  0.2158  1.0550 -0.0615
12258SOL    HW141136   4.224   6.137   1.475  0.2574  0.8589  0.2890
12258SOL    HW241137   4.084   6.122   1.533 -0.0180  1.2223 -0.2741
12259SOL     OW41138   2.600   9.703   4.398 -0.0916  0.2946  0.1676
12259SOL    HW141139   2.687   9.665   4.385  0.0785  0.5088  0.6729
12259SOL    HW241140   2.611   9.763   4.472 -0.2991  1.4958 -0.7400
12260SOL     OW41141   1.420   9.208  10.115 -0.0486  0.4464  0.7788
12260SOL    HW141142   1.454   9.217  10.204  0.4013 -1.7903  0.8859
12260SOL    HW241143   1.404   9.114  10.104 -1.8618  0.8911 -0.8823
12261SOL     OW41144   5.532   1.583   2.411  0.1697 -0.0839 -0.3886
12261SOL    HW141145   5.501   1.671   2.433  0.3182 -0.3696  1.0236
12261SOL    HW241146   5.507   1.572   2.319  0.7751  1.6948 -0.8114
12262SOL     OW41147   4.015   2.817   2.550  0.1063  0.2890 -0.1224
12262SOL    HW141148   4.047   2.823   2.460  0.6144 -1.0910 -0.0517
12262SOL    HW241149   4.026   2.725   2.574 -2.6731  0.0020  0.3809
12263SOL     OW41150   7.272   0.824   5.372 -0.2209 -0.2350  0.2174
12263SOL    HW141151   7.239   0.771   5.445  0.0767  1.2620  1.4948
12263SOL    HW241152   7.343   0.875   5.410  0.0866  0.4270 -1.1845
12264SOL     OW41153   4.518   0.982   3.694 -0.1807 -0.2156  0.0852
12264SOL    HW141154   4.429   1.008   3.669  0.6090  1.6057 -1.0597
12264SOL    HW241155   4.554   1.060   3.736  0.8440 -0.9696  0.6334
12265SOL     OW41156   7.894   9.866   3.711 -0.6856 -0.0363 -0.2214
12265SOL    HW141157   7.957   9.807   3.752  0.3158  0.8414 -0.4444
12265SOL    HW241158   7.859   9.918   3.783 -0.0039  0.5112 -0.2682
12266SOL     OW41159   0.770   3.049   6.423  0.0361  0.3078 -0.8749
12266SOL    HW141160   0.680   3.076   6.403 -0.3141  0.7121  1.0275
12266SOL    HW241161   0.803   3.117   6.482  0.9704 -0.7340 -0.1560
12267SOL     OW41162  10.731   3.382   9.550 -0.7123  0.1543  0.1283
12267SOL    HW141163  10.696   3.356   9.635  1.1101 -1.1413  0.5591
12267SOL    HW241164  10.668   3.350   9.487 -1.9539  0.8824  0.9651
12268SOL     OW41165   2.962   8.449   2.419  0.4608  0.1310  0.2625
12268SOL    HW141166   3.024   8.381   2.444  0.2694  0.4161  1.5591
12268SOL    HW241167   2.980   8.465   2.326  1.5737 -0.5572  0.3488
12269SOL     OW41168   0.659   1.895   6.730 -0.2521 -0.2726  0.1747
12269SOL    HW141169   0.570   1.883   6.764 -0.7427 -0.0016 -0.9929
12269SOL    HW241170   0.707   1.818   6.761 -0.4603  0.3343  2.1365
12270SOL     OW41171   8.264   0.181   6.564 -0.5444 -0.1837 -0.4075
12270SOL    HW141172   8.232   0.176   6.654 -0.0481  0.7240 -0.1685
12270SOL    HW241173   8.352   0.218   6.571 -0.3055 -0.5609 -1.2275
12271SOL     OW41174   3.910   1.482   8.102  0.1177 -0.8012  0.3825
12271SOL    HW141175   4.001   1.458   8.082  1.1173  0.9921  2.3690
12271SOL    HW241176   3.914   1.520   8.190 -2.2106  1.1980 -0.2654
12272SOL     OW41177   3.261   0.392   8.986 -0.1272  0.0812  0.6872
12272SOL    HW141178   3.265   0.349   8.901 -1.4019  0.1900  0.5468
12272SOL    HW241179   3.276   0.322   9.049 -1.4553 -0.4723  0.4345
12273SOL     OW41180   3.983   2.004   6.228 -1.1366  0.4803 -0.3826
12273SOL    HW141181   3.964   1.920   6.270  1.2255 -0.5076 -1.1467
12273SOL    HW241182   4.035   1.981   6.151 -1.7716  2.5620 -1.5013
12274SOL     OW41183   4.791   0.014   2.986 -0.3742  0.0411 -0.3702
12274SOL    HW141184   4.741  -0.016   2.910 -2.6452 -1.0296  1.4221
12274SOL    HW241185   4.758   0.102   3.003 -0.2668  0.0750 -0.3392
12275SOL     OW41186   0.704   7.663   6.678  0.6579 -0.6684  0.3344
12275SOL    HW141187   0.717   7.574   6.646 -0.9105 -0.3601 -1.3015
12275SOL    HW241188   0.707   7.717   6.600  2.0790  0.8338  1.3557
12276SOL     OW41189   7.717   4.183  10.138 -0.1415 -0.1892 -0.1496
12276SOL    HW141190   7.768   4.112  10.178 -1.0535 -1.1841 -0.7186
12276SOL    HW241191   7.753   4.193  10.050  0.6393  0.7511  0.2543
12277SOL     OW41192  10.535   3.876   4.934  0.2363 -0.0899  0.4480
12277SOL    HW141193  10.628   3.894   4.924  0.0585  0.5710 -0.1040
12277SOL    HW241194  10.531   3.787   4.969  1.1814  1.0115  3.7147
12278SOL     OW41195   9.854   1.148   4.875 -0.4081 -0.0820 -1.0084
12278SOL    HW141196   9.773   1.102   4.896  0.2293 -0.8934 -0.2127
12278SOL    HW241197   9.920   1.078   4.871  1.0957  0.8731  2.6297
12279SOL     OW41198   3.831   6.829   2.770 -0.8825  0.4586  0.4656
12279SOL    HW141199   3.775   6.755   2.750 -3.5275  2.6687 -1.0185
12279SOL    HW241200   3.881   6.845   2.690  1.0096 -0.6637  1.3421
12280SOL     OW41201   9.106   3.214   1.690 -0.4547  0.3171  0.6296
12280SOL    HW141202   9.051   3.210   1.769 -0.4961  1.4941  0.6775
12280SOL    HW241203   9.061   3.275   1.632 -1.0170 -1.3742 -0.8093
12281SOL     OW41204   6.831   4.159   8.064  0.1032  0.1268  0.4036
12281SOL    HW141205   6.853   4.251   8.074  0.2350  0.0706  0.6271
12281SOL    HW241206   6.915   4.114   8.056  0.0436  0.0084  0.4343
12282SOL     OW41207   0.910   8.059   4.145  0.4296 -0.1134 -0.3447
12282SOL    HW141208   1.000   8.076   4.119  1.3057 -0.2759  2.2825
12282SOL    HW241209   0.877   8.144   4.174 -0.3028 -0.0496 -1.3260
12283SOL     OW41210   4.743   3.955   0.613 -0.2052  0.2738 -0.2159
12283SOL    HW141211   4.715   3.927   0.700  1.4653  0.4666  0.4252
12283SOL    HW241212   4.706   3.891   0.554  0.8539 -1.4528  0.9086
12284SOL     OW41213   2.138   7.665   2.235  0.9386  0.0252 -0.3876
12284SOL    HW141214   2.047   7.642   2.215  1.2706 -2.0737  0.2169
12284SOL    HW241215   2.181   7.669   2.150  0.1570  1.8419 -0.7421
12285SOL     OW41216   5.165   5.721  10.656 -0.2318  0.1654  0.3675
12285SOL    HW141217   5.125   5.645  10.699 -0.1607 -0.7079 -1.0487
12285SOL    HW241218   5.249   5.732  10.701 -1.9682  2.1346  3.4948
12286SOL     OW41219   8.007   3.377   9.377 -0.7034  0.5791 -0.1903
12286SOL    HW141220   8.004   3.285   9.405  2.0837  0.4652  0.0129
12286SOL    HW241221   7.937   3.420   9.427 -0.9992 -1.1047  0.9319
12287SOL     OW41222   0.912  10.308   5.610 -0.5253  0.3747 -0.0873
12287SOL    HW141223   0.920  10.372   5.680 -1.5324  0.4775 -0.0569
12287SOL    HW241224   0.993  10.317   5.560  0.0681  0.5112  0.8760
12288SOL     OW41225   2.772   4.299   2.931  0.1597 -0.1812 -0.1042
12288SOL    HW141226   2.820   4.335   2.857 -1.0093  0.1320 -0.7361
12288SOL    HW241227   2.688   4.345   2.930  0.7105  1.0555  2.4175
12289SOL     OW41228   2.228   9.487   8.519  0.3849  0.3131  0.3938
12289SOL    HW141229   2.205   9.441   8.599  0.4917  0.0575  0.2798
12289SOL    HW241230   2.320   9.466   8.505 -0.0607 -1.0895 -0.7303
12290SOL     OW41231   8.406  10.945   8.085  0.3328  0.0707  0.1775
12290SOL    HW141232   8.466  11.000   8.034 -2.0814  1.6013 -1.2156
12290SOL    HW241233   8.462  10.905   8.152  2.8708  1.4040 -0.9784
12291SOL     OW41234   0.483   5.898   6.879  0.2187  0.5823  1.0223
12291SOL    HW141235   0.497   5.992   6.888  0.7780  0.4933  1.1181
12291SOL    HW241236   0.469   5.885   6.785 -1.6356  0.9820  1.1933
12292SOL     OW41237   9.928   2.969   0.548  0.3984  0.7122 -0.5450
12292SOL    HW141238   9.893   3.055   0.569 -1.0052 -0.3002  1.6006
12292SOL    HW241239   9.969   2.939   0.629  2.7739  0.1643 -1.8482
12293SOL     OW41240   3.371   8.002   1.985 -0.0779 -0.0249 -0.6058
12293SOL    HW141241   3.343   8.086   1.950  0.6546 -0.1773 -1.6034
12293SOL    HW241242   3.410   7.956   1.910  0.0663 -1.0167  0.0497
12294SOL     OW41243   5.857   5.865   0.040  0.1165 -0.5058 -0.0386
12294SOL    HW141244   5.836   5.920  -0.035 -0.9088 -0.1584  0.4814
12294SOL    HW241245   5.852   5.776   0.007  1.0828 -0.3228 -0.7168
12295SOL     OW41246   4.278   9.101   2.517 -0.2340 -0.4433  0.7120
12295SOL    HW141247   4.310   9.101   2.427 -0.6269  0.5315  0.5607
12295SOL    HW241248   4.187   9.130   2.510 -0.0295  0.4361  1.4987
12296SOL     OW41249   0.767   5.634   2.828  0.5709 -0.3417 -0.2070
12296SOL    HW141250   0.765   5.541   2.806  0.6649 -0.4656  0.2974
12296SOL    HW241251   0.792   5.637   2.921 -0.0758  0.1529 -0.0355
12297SOL     OW41252   0.457   8.618   8.371  0.1698  0.4991  0.3074
12297SOL    HW141253   0.546   8.583   8.361 -0.2666 -0.3040 -1.0033
12297SOL    HW241254   0.400   8.543   8.353 -0.8289  0.3637  3.4708
12298SOL     OW41255   1.577   2.089   7.875 -0.1097 -0.4883  0.3329
12298SOL    HW141256   1.508   2.116   7.936 -0.2098 -0.1825  0.0877
12298SOL    HW241257   1.624   2.170   7.856  0.4721 -0.7340  0.6890
12299SOL     OW41258   9.203   0.430   6.476  0.2056  0.3029  0.0696
12299SOL    HW141259   9.144   0.471   6.413  0.7495  0.8635 -0.0776
12299SOL    HW241260   9.258   0.372   6.424  0.4223  0.4988  0.0837
12300SOL     OW41261   5.880   5.327   7.501 -0.1463  0.6251 -0.3846
12300SOL    HW141262   5.959   5.368   7.466  0.6644  0.1809  0.8662
12300SOL    HW241263   5.867   5.369   7.586 -0.6493 -0.0376 -0.1295
12301SOL     OW41264   8.366  10.248  10.177 -0.1528 -0.4018  0.1223
12301SOL    HW141265   8.455  10.279  10.157  0.2486  0.0035  2.2606
12301SOL    HW241266   8.378  10.159  10.210 -0.4425 -0.1564  0.9322
12302SOL     OW41267  10.275   8.109  10.260 -0.3364  0.3050  0.1048
12302SOL    HW141268  10.218   8.053  10.208 -1.5988  0.4783  1.2533
12302SOL    HW241269  10.347   8.051  10.287 -1.3245 -0.6343  0.7912
12303SOL     OW41270   7.787   5.936   2.047  0.5001  0.1946 -0.2525
12303SOL    HW141271   7.720   5.954   2.114  1.1161 -0.2478  0.4997
12303SOL    HW241272   7.740   5.889   1.979 -0.0090  0.0859  0.1659
12304SOL     OW41273   8.085   3.260   9.048  0.1374  0.0948  0.0897
12304SOL    HW141274   8.118   3.250   8.958  1.3977  0.2580  0.5114
12304SOL    HW241275   8.127   3.340   9.079 -1.6670  1.0211  0.2576
12305SOL     OW41276   2.904   0.577   2.673 -0.4288  0.1824  0.0724
12305SOL    HW141277   2.833   0.545   2.729 -0.0683  0.7137  0.8544
12305SOL    HW241278   2.860   0.617   2.598 -0.9272 -0.3561  0.0703
12306SOL     OW41279   9.980   6.168   0.664  0.5934  0.1904 -0.0838
12306SOL    HW141280   9.966   6.191   0.572  0.2836  0.3107 -0.0059
12306SOL    HW241281   9.936   6.084   0.674  0.3333  0.3422  0.0421
12307SOL     OW41282   9.456   2.410   3.403  0.3558  0.0865  0.4177
12307SOL    HW141283   9.433   2.494   3.442  0.7612 -0.4557  1.8886
12307SOL    HW241284   9.452   2.425   3.308  1.4002  2.0364  0.6262
12308SOL     OW41285  11.024   1.108   6.760 -0.3624  0.3674  0.5826
12308SOL    HW141286  10.972   1.028   6.753 -0.1765  0.2519  0.4941
12308SOL    HW241287  11.030   1.125   6.854 -0.8086  0.5491  0.5813
12309SOL     OW41288   9.473   1.469   3.812  0.6356  0.1330  0.1395
12309SOL    HW141289   9.525   1.543   3.780  0.2565  0.4975  0.3540
12309SOL    HW241290   9.537   1.410   3.850  0.8691  0.7050  0.6504
12310SOL     OW41291   4.625   7.479   5.535 -0.5609 -0.0147 -0.4832
12310SOL    HW141292   4.531   7.491   5.531 -0.7123 -1.2479 -0.9609
12310SOL    HW241293   4.652   7.468   5.444 -0.2874 -1.8726 -0.2143
12311SOL     OW41294   3.811  10.976  10.367 -0.4957 -0.4669  0.3223
12311SOL    HW141295   3.737  10.917  10.378 -0.1577 -1.4811 -2.1833
12311SOL    HW241296   3.786  11.033  10.294  1.1919 -0.9333 -0.6788
12312SOL     OW41297   9.324   8.648   8.065  0.0682 -0.1830 -0.0558
12312SOL    HW141298   9.382   8.575   8.044  1.6244  1.7128 -2.8496
12312SOL    HW241299   9.243   8.629   8.017 -0.1655 -0.8592  0.5899
12313SOL     OW41300   4.033   8.029  10.271  0.5680 -0.0805 -0.1953
12313SOL    HW141301   4.072   7.951  10.231  2.3498  0.0064  1.2791
12313SOL    HW241302   3.982   7.995  10.344 -2.0407 -0.1617 -1.9030
12314SOL     OW41303   8.029   9.617   7.519  0.5345  1.0653  0.0734
12314SOL    HW141304   8.058   9.659   7.438  1.1758 -0.6822 -0.6563
12314SOL    HW241305   7.974   9.544   7.490 -0.3395  1.2076  1.2795
12315SOL     OW41306   1.433   8.374   2.791 -0.1182 -0.3958  0.6489
12315SOL    HW141307   1.350   8.422   2.787 -0.3199 -0.6685  1.4936
12315SOL    HW241308   1.500   8.442   2.792 -0.0151 -0.0637 -4.0355
12316SOL     OW41309   5.658   6.959   5.393 -0.6545  0.5283  0.0894
12316SOL    HW141310   5.585   6.908   5.356 -0.6745 -0.4045  1.3550
12316SOL    HW241311   5.617   7.015   5.459 -0.0980 -1.1061  1.9151
12317SOL     OW41312   5.166   6.568   2.769  0.6192 -0.1493  0.0971
12317SOL    HW141313   5.124   6.618   2.699 -2.7155 -2.1885  0.4596
12317SOL    HW241314   5.134   6.479   2.757  4.3734 -1.8088  0.9729
12318SOL     OW41315  10.777  10.635   5.225  0.7272 -0.4261 -0.0573
12318SOL    HW141316  10.697  10.597   5.188  1.2591 -0.2881 -1.4301
12318SOL    HW241317  10.748  10.715   5.269 -0.1221 -1.3357  1.0644
12319SOL     OW41318   3.091   4.932   5.590  0.0936  0.0991  0.2744
12319SOL    HW141319   3.011   4.899   5.549  0.9340 -0.1878 -1.1805
12319SOL    HW241320   3.073   5.024   5.608 -1.4351 -0.4987  2.2502
12320SOL     OW41321   3.937   4.345   4.371  0.8847 -0.4402 -0.2705
12320SOL    HW141322   3.906   4.292   4.297 -0.9887  1.7176 -1.1312
12320SOL    HW241323   3.948   4.433   4.335  2.0651  0.2159  1.5538
12321SOL     OW41324  10.856   3.651   3.454  0.1132 -0.4211  0.3088
12321SOL    HW141325  10.814   3.724   3.408  0.4386 -0.0485  0.5917
12321SOL    HW241326  10.937   3.688   3.489 -0.6319 -0.3945  2.1089
12322SOL     OW41327   1.233   7.793   5.607 -0.3260  0.1558  0.5970
12322SOL    HW141328   1.280   7.798   5.524 -0.8427 -0.2172  0.2827
12322SOL    HW241329   1.272   7.863   5.660 -0.3109  0.7002 -0.1160
12323SOL     OW41330   1.700   4.968   7.605  0.1633 -0.2661 -0.8872
12323SOL    HW141331   1.696   4.873   7.618  0.4843 -0.8248 -3.9905
12323SOL    HW241332   1.783   4.994   7.646  0.1883 -1.3414 -0.2027
12324SOL     OW41333  10.254   6.690   8.899  0.4463 -0.4126  0.3020
12324SOL    HW141334  10.210   6.739   8.830 -0.1628  2.1746  2.3749
12324SOL    HW241335  10.333   6.741   8.919 -0.7999  0.5486  3.3454
12325SOL     OW41336   0.004   1.631   4.043 -0.0461  0.3778 -0.3125
12325SOL    HW141337   0.073   1.575   4.078 -1.0646 -1.0304 -0.5085
12325SOL    HW241338   0.047   1.716   4.029  1.1186  0.1356  1.5183
12326SOL     OW41339  10.975   2.763   5.227  0.0383 -0.0940 -0.2517
12326SOL    HW141340  10.911   2.801   5.287  1.2246  0.4155  0.7364
12326SOL    HW241341  10.923   2.709   5.168 -1.1761 -0.7218  1.3124
12327SOL     OW41342   1.664  11.091   3.410  0.0925 -0.4557 -0.2883
12327SOL    HW141343   1.591  11.137   3.369  0.7779 -0.3811 -1.4870
12327SOL    HW241344   1.724  11.161   3.438 -1.1868 -0.3911  2.6012
12328SOL     OW41345  10.047   0.938   8.175  0.0393 -0.0101 -0.1835
12328SOL    HW141346  10.066   0.850   8.207  1.8381  0.6050  0.5853
12328SOL    HW241347   9.996   0.924   8.095 -1.9956 -1.6618  1.2795
12329SOL     OW41348   1.640   9.011   1.592 -0.1108  0.4411 -0.5853
12329SOL    HW141349   1.733   9.008   1.612 -0.3684  1.2676  0.8457
12329SOL    HW241350   1.613   9.101   1.612 -1.5721 -0.2562  0.8500
12330SOL     OW41351   6.172   4.732   9.089 -0.0706 -0.0847  0.2298
12330SOL    HW141352   6.107   4.722   9.019 -1.2837 -1.1905  1.4566
12330SOL    HW241353   6.252   4.696   9.052 -0.2527  0.8321 -1.1375
12331SOL     OW41354   7.118   4.472   3.436  0.1767 -0.1776 -0.1995
12331SOL    HW141355   7.036   4.430   3.408 -0.0442 -0.2593  0.5571
12331SOL    HW241356   7.104   4.565   3.418 -0.2358 -0.1433  0.2971
12332SOL     OW41357   3.307   3.773   6.488  0.4851 -0.4586 -0.0684
12332SOL    HW141358   3.346   3.803   6.405 -0.9868  0.1264 -0.5786
12332SOL    HW241359   3.288   3.680   6.473  0.5438 -0.4420 -0.2503
12333SOL     OW41360   2.611   6.303   8.676  0.2312 -0.0041  0.5943
12333SOL    HW141361   2.625   6.397   8.664 -0.3988  0.3079  2.0740
12333SOL    HW241362   2.566   6.296   8.760 -3.3737 -1.3001 -1.2226
12334SOL     OW41363   2.243   4.482   6.426 -0.5291 -0.0980 -0.3471
12334SOL    HW141364   2.320   4.538   6.427 -1.0743  0.6806  0.9623
12334SOL    HW241365   2.197   4.502   6.508 -3.2465  1.0331 -1.9964
12335SOL     OW41366  11.081   1.270   9.755  0.0698  0.2797  0.4835
12335SOL    HW141367  11.010   1.332   9.736 -1.2755 -1.4796 -0.4786
12335SOL    HW241368  11.070   1.249   9.848 -1.9764 -1.4369 -0.0670
12336SOL     OW41369   0.138  10.002   1.815 -0.4215 -0.8722  0.4041
12336SOL    HW141370   0.163  10.036   1.901 -2.0835 -0.1232  0.6367
12336SOL    HW241371   0.043  10.012   1.812 -0.3821 -0.6366 -1.6304
12337SOL     OW41372   4.175   9.573   8.599 -0.5910  0.0009 -0.5966
12337SOL    HW141373   4.156   9.651   8.547 -0.0343  0.6241  0.1059
12337SOL    HW241374   4.171   9.604   8.690  2.8132  0.0088 -0.3330
12338SOL     OW41375   4.378   8.462   9.768 -0.2230  0.4967  0.6519
12338SOL    HW141376   4.447   8.416   9.815 -1.1118 -0.2036  1.3028
12338SOL    HW241377   4.382   8.552   9.801 -0.9073 -0.0071  2.1977
12339SOL     OW41378  10.243   4.323   2.723 -0.3355  0.0529  0.9597
12339SOL    HW141379  10.167   4.266   2.727  0.5518 -1.2555 -0.0320
12339SOL    HW241380  10.207   4.411   2.735 -2.1959 -0.3927 -0.7458
12340SOL     OW41381   7.252   6.493   0.945 -0.1299  0.3178  0.0426
12340SOL    HW141382   7.174   6.517   0.895 -1.0981 -0.3559  1.1765
12340SOL    HW241383   7.304   6.441   0.883 -1.6676 -1.1829 -0.0844
12341SOL     OW41384   3.631   9.498   5.417 -0.1733 -0.7256 -0.7382
12341SOL    HW141385   3.720   9.464   5.405 -0.1943 -1.6753  1.3184
12341SOL    HW241386   3.623   9.568   5.353  2.2873 -0.1892 -0.5561
12342SOL     OW41387   3.165   5.829  10.996 -0.7611  0.1591 -0.9253
12342SOL    HW141388   3.115   5.853  11.074 -0.4942  0.6820 -0.9099
12342SOL    HW241389   3.233   5.896  10.990 -0.5788 -0.0675 -1.4222
12343SOL     OW41390   1.654   9.022   0.677  0.1821 -0.7286  0.6073
12343SOL    HW141391   1.702   8.940   0.665  0.6865 -0.2716 -0.6267
12343SOL    HW241392   1.703   9.086   0.625 -2.1889 -0.4202 -1.4284
12344SOL     OW41393   8.286   6.504   0.752  0.0157  0.3642  0.1380
12344SOL    HW141394   8.301   6.437   0.819  0.4438  0.8743  0.5604
12344SOL    HW241395   8.190   6.508   0.744 -0.0450  0.3185  0.7431
12345SOL     OW41396   6.273   6.128  10.017 -0.1107  0.7144 -0.3654
12345SOL    HW141397   6.295   6.035  10.011  1.4929  0.8475  1.9963
12345SOL    HW241398   6.332   6.171   9.955  0.7525  0.3421  0.1892
12346SOL     OW41399   4.664   9.893   6.601 -0.2464 -0.2567 -0.3468
12346SOL    HW141400   4.635   9.962   6.542  1.4264 -0.9929 -2.1348
12346SOL    HW241401   4.618   9.814   6.570  0.6489 -0.6521 -0.6838
12347SOL     OW41402   7.390   5.997   1.325  0.1863 -0.2186 -0.5302
12347SOL    HW141403   7.446   5.952   1.261 -0.6969 -2.8750  0.4456
12347SOL    HW241404   7.435   5.985   1.409 -0.6536 -0.3322 -0.0855
12348SOL     OW41405   2.676   4.931   2.546  0.1277 -0.0450  0.0635
12348SOL    HW141406   2.713   4.862   2.602  0.7516 -1.9872 -2.5600
12348SOL    HW241407   2.589   4.899   2.523 -0.8070  1.5451  1.1526
12349SOL     OW41408   7.516  11.095   8.355  0.3876  0.4090 -0.2468
12349SOL    HW141409   7.495  11.026   8.292  3.1282 -0.6926 -0.0853
12349SOL    HW241410   7.488  11.176   8.311  0.8154 -0.4552 -2.2130
12350SOL     OW41411   4.253   9.353   6.383  0.3872  0.2560  0.1543
12350SOL    HW141412   4.302   9.272   6.379 -0.1970 -0.1556  0.9530
12350SOL    HW241413   4.175   9.337   6.330 -0.9394 -0.6163  2.2055
12351SOL     OW41414   0.135  10.936   7.064  0.7174  0.3211  0.7914
12351SOL    HW141415   0.197  10.965   7.131 -0.7193  0.3071  2.2094
12351SOL    HW241416   0.096  10.857   7.101 -0.6556  0.7369  0.3098
12352SOL     OW41417  10.923   0.139   7.897  0.1817  0.0041  0.0529
12352SOL    HW141418  10.879   0.213   7.938 -0.6494  0.5602 -1.7492
12352SOL    HW241419  11.015   0.150   7.920 -0.0500  1.1011  0.5342
12353SOL     OW41420   3.726   7.603   2.956  0.2409 -0.3896 -0.0917
12353SOL    HW141421   3.683   7.522   2.984 -1.1862  0.5670  0.6256
12353SOL    HW241422   3.699   7.614   2.865 -0.3010 -0.2702  0.0800
12354SOL     OW41423   5.948   1.246   2.658  0.6763 -0.8469 -0.2033
12354SOL    HW141424   5.856   1.269   2.668  0.6687 -0.7868 -0.4307
12354SOL    HW241425   5.953   1.201   2.574  0.7456 -1.3966  0.0872
12355SOL     OW41426   1.326   7.004   0.827 -0.0200  1.8965  0.4817
12355SOL    HW141427   1.284   7.083   0.793 -1.0958  0.9703 -0.4011
12355SOL    HW241428   1.254   6.943   0.843  0.8516  0.8231  0.4505
12356SOL     OW41429   0.466  10.264   2.932 -0.1239  0.0107 -0.1271
12356SOL    HW141430   0.488  10.345   2.885 -1.9242  1.3314  1.1335
12356SOL    HW241431   0.370  10.258   2.926 -0.4307  0.0172  2.8570
12357SOL     OW41432   7.319   3.472   2.946 -0.4569 -0.0352 -0.2616
12357SOL    HW141433   7.254   3.454   3.014 -0.1560 -1.1958 -0.2559
12357SOL    HW241434   7.393   3.511   2.994 -0.1258 -1.1250  0.1523
12358SOL     OW41435   0.733   9.850   9.644 -0.0337  0.1781  0.4558
12358SOL    HW141436   0.783   9.787   9.591 -0.7447 -0.4380  0.4908
12358SOL    HW241437   0.788   9.928   9.647  1.9359 -1.1600  2.2590
12359SOL     OW41438   5.091  10.696   1.350 -0.2596 -0.0176 -0.0394
12359SOL    HW141439   5.154  10.743   1.295  0.4175  0.0782  0.7895
12359SOL    HW241440   5.088  10.747   1.431  1.3667 -1.9437  1.3643
12360SOL     OW41441   3.554  10.162   2.210 -0.3723 -0.1729  0.2835
12360SOL    HW141442   3.627  10.223   2.204 -2.6334  2.9122  1.6839
12360SOL    HW241443   3.556  10.130   2.300 -0.4689 -0.4574  0.1879
12361SOL     OW41444   1.091   5.601   7.834  0.0263  0.6778 -0.1045
12361SOL    HW141445   1.020   5.664   7.847 -0.8327 -0.4366  0.8075
12361SOL    HW241446   1.137   5.632   7.756  0.7336  3.4352  1.2843
12362SOL     OW41447   6.036   5.885   7.688  0.0321 -0.2826 -0.5471
12362SOL    HW141448   6.124   5.849   7.678 -0.3299 -1.3807  0.0307
12362SOL    HW241449   6.042   5.944   7.763  0.4609  0.2581 -1.0106
12363SOL     OW41450   2.503   4.902   8.751 -0.1898 -0.2107 -0.4628
12363SOL    HW141451   2.450   4.901   8.671 -1.0544  0.4869  0.0865
12363SOL    HW241452   2.593   4.908   8.719 -0.3505 -2.1901 -1.4297
12364SOL     OW41453   8.316   0.054   5.470  0.1803 -0.4859  0.4328
12364SOL    HW141454   8.361   0.089   5.393 -1.3233  0.8935  0.1148
12364SOL    HW241455   8.260   0.126   5.500 -1.4605 -1.9364  1.0583
12365SOL     OW41456   7.387   2.556   3.469  0.3652 -0.2407  0.3195
12365SOL    HW141457   7.392   2.533   3.376  0.6973 -1.8100  0.6983
12365SOL    HW241458   7.301   2.524   3.497 -0.5330  1.8950  0.1614
12366SOL     OW41459   7.815  11.099  10.887  0.5790 -0.5432  0.1815
12366SOL    HW141460   7.731  11.097  10.842 -0.1073 -1.0035  1.4167
12366SOL    HW241461   7.865  11.028  10.848  0.1537 -0.6771 -0.1281
12367SOL     OW41462   1.072   5.393   9.710 -0.3003  0.0161  0.6832
12367SOL    HW141463   1.006   5.449   9.668  0.0660 -0.6286 -0.7905
12367SOL    HW241464   1.021   5.325   9.753 -0.6369 -0.3097 -0.2015
12368SOL     OW41465   3.465   8.757   7.562 -0.5331 -0.0076 -0.1211
12368SOL    HW141466   3.543   8.783   7.610  0.2386 -0.6645 -0.9682
12368SOL    HW241467   3.392   8.780   7.619  0.3019  0.1936  0.8922
12369SOL     OW41468   4.251  10.140   2.899  0.1981  0.1042  0.0608
12369SOL    HW141469   4.258  10.232   2.926 -0.7895  0.4674 -0.8442
12369SOL    HW241470   4.191  10.101   2.962  0.1065  0.2468  0.0640
12370SOL     OW41471   9.152   3.525   5.782 -0.6635 -0.9403 -0.5010
12370SOL    HW141472   9.097   3.482   5.717  0.6784 -0.7512 -1.7996
12370SOL    HW241473   9.139   3.474   5.862 -2.7630 -0.8393 -0.7429
12371SOL     OW41474   4.236   6.426   9.946  0.0390 -0.1083  0.3651
12371SOL    HW141475   4.200   6.513   9.960  0.9414  0.5917 -1.4015
12371SOL    HW241476   4.165   6.377   9.904 -0.6409 -0.4311  1.8042
12372SOL     OW41477   2.496   8.709   1.771 -0.0735 -0.7234  0.0004
12372SOL    HW141478   2.430   8.735   1.707  0.5966 -0.2704 -0.5190
12372SOL    HW241479   2.567   8.773   1.761  0.4025 -1.1296  0.6258
12373SOL     OW41480  10.741   5.956   6.908  0.1388  0.0509 -0.8007
12373SOL    HW141481  10.722   6.044   6.941 -1.8358 -0.1065 -1.3660
12373SOL    HW241482  10.775   5.970   6.820  1.3443  0.2868 -0.3153
12374SOL     OW41483   4.775  10.925   3.535 -0.6293  0.0259 -0.0966
12374SOL    HW141484   4.838  10.973   3.482 -0.0300 -1.5704 -0.8850
12374SOL    HW241485   4.704  10.987   3.550  0.2573  1.2455 -0.8013
12375SOL     OW41486  10.406   0.394   1.503  0.5532  0.1984  0.0839
12375SOL    HW141487  10.401   0.479   1.546  2.6376  0.7714 -0.6672
12375SOL    HW241488  10.433   0.414   1.413  2.7761 -1.2818  0.3278
12376SOL     OW41489   0.518   4.622   4.759 -0.2376 -0.1704  0.5837
12376SOL    HW141490   0.495   4.557   4.826 -2.4524 -0.5679 -0.4930
12376SOL    HW241491   0.444   4.622   4.699  1.1673  1.0375 -1.2406
12377SOL     OW41492   9.670   5.600   5.813  0.2158  0.2364 -0.5310
12377SOL    HW141493   9.737   5.535   5.831 -0.7647 -0.6801 -0.0462
12377SOL    HW241494   9.711   5.662   5.752  1.6432 -0.0032  0.1524
12378SOL     OW41495   5.838   4.641  10.300 -0.0874  0.3341 -0.8113
12378SOL    HW141496   5.797   4.722  10.270 -1.6499 -0.1667 -0.1071
12378SOL    HW241497   5.907   4.670  10.359 -1.5440  1.1616  0.5760
12379SOL     OW41498   4.987   2.103   9.655  0.7049  0.0433 -0.1049
12379SOL    HW141499   4.930   2.177   9.634  0.2365 -0.4162 -0.4734
12379SOL    HW241500   4.942   2.027   9.618  1.2871 -0.3979  0.0860
12380SOL     OW41501   4.516   4.345   5.752  0.4873  0.0683  0.2260
12380SOL    HW141502   4.536   4.436   5.730  1.7027 -0.2838 -0.1899
12380SOL    HW241503   4.437   4.325   5.702  0.5562  0.7152 -0.1491
12381SOL     OW41504   2.821   9.305  10.871  0.2701  0.2869 -0.1521
12381SOL    HW141505   2.839   9.272  10.959 -0.9139  2.3834  0.9520
12381SOL    HW241506   2.814   9.226  10.817  1.2288 -1.0429  1.5629
12382SOL     OW41507   7.169   2.448   2.799 -0.4619  0.2452 -0.1874
12382SOL    HW141508   7.145   2.374   2.743 -0.4113 -0.0670  0.1985
12382SOL    HW241509   7.089   2.501   2.805 -1.0651 -0.7379  1.0168
12383SOL     OW41510   4.124   5.123   1.800 -0.2396  0.6196  0.3891
12383SOL    HW141511   4.138   5.115   1.895 -0.0781  2.0373  0.5000
12383SOL    HW241512   4.050   5.065   1.783 -0.3494  0.4301  1.4003
12384SOL     OW41513   5.238   6.333   7.403  0.4195  0.4299  0.0793
12384SOL    HW141514   5.325   6.297   7.385  1.3578  2.2883  0.6607
12384SOL    HW241515   5.247   6.427   7.384 -0.9905  0.9313  1.6946
12385SOL     OW41516   6.240   3.839   6.258  0.2761 -0.6202 -0.0230
12385SOL    HW141517   6.164   3.831   6.316  0.1392 -0.2331 -0.1478
12385SOL    HW241518   6.281   3.753   6.260  0.4839 -0.5027  0.9398
12386SOL     OW41519  10.148   3.336   3.979  0.6952  0.1185 -0.1499
12386SOL    HW141520  10.213   3.267   3.973  1.4367  0.7042  0.8601
12386SOL    HW241521  10.085   3.305   4.044  0.3509 -0.1180 -0.5834
12387SOL     OW41522   8.530   4.273   1.395 -0.0757 -0.0023  0.0058
12387SOL    HW141523   8.539   4.360   1.434  0.5161  0.3663 -0.9156
12387SOL    HW241524   8.440   4.247   1.414  0.1830  0.1532  1.5955
12388SOL     OW41525   8.007   8.705   2.240  0.1376  0.0088 -0.7225
12388SOL    HW141526   7.935   8.745   2.193 -0.9704 -0.8376  0.1945
12388SOL    HW241527   8.030   8.768   2.309 -0.0552  0.0769 -0.7202
12389SOL     OW41528   8.086   9.928   6.384 -0.1167 -0.3484  0.5178
12389SOL    HW141529   8.076   9.858   6.448 -1.6625  0.5237  1.2876
12389SOL    HW241530   8.011   9.985   6.399  0.9922  1.3920 -0.1813
12390SOL     OW41531   8.977   1.086   9.401 -0.0749  0.4642  0.3428
12390SOL    HW141532   8.915   1.013   9.407  0.8745 -0.5563 -1.4276
12390SOL    HW241533   8.941   1.142   9.332  1.0888 -0.3290 -0.9661
12391SOL     OW41534  10.457   4.297   2.304 -0.3023 -0.3548  0.3232
12391SOL    HW141535  10.484   4.206   2.296 -0.9610 -0.4464 -1.0416
12391SOL    HW241536  10.365   4.293   2.330 -0.9738 -0.1313 -1.8707
12392SOL     OW41537   7.377   5.811   7.661  0.4643 -0.1462 -0.3987
12392SOL    HW141538   7.421   5.859   7.591  0.3148  2.1056  0.9341
12392SOL    HW241539   7.446   5.792   7.724  0.0228  1.1901  0.5387
12393SOL     OW41540  10.350  10.065   5.669 -0.0198 -0.5109 -0.0792
12393SOL    HW141541  10.389  10.076   5.582  0.7467  0.8421  0.4006
12393SOL    HW241542  10.291   9.990   5.660  0.1777 -0.5035 -1.7102
12394SOL     OW41543   0.165   4.324   8.437 -0.1557  0.0979  0.4105
12394SOL    HW141544   0.158   4.392   8.505  1.8567  1.6737 -0.8720
12394SOL    HW241545   0.086   4.335   8.384  0.4067  1.8894 -0.1240
12395SOL     OW41546   2.821   5.814   8.066  0.1739  0.1153 -0.3288
12395SOL    HW141547   2.887   5.850   8.007 -0.3261 -0.0801 -1.0160
12395SOL    HW241548   2.779   5.891   8.103  0.5555  0.2401 -0.1483
12396SOL     OW41549  10.514   9.875   7.837  0.2373  0.3974  0.1877
12396SOL    HW141550  10.421   9.896   7.839 -0.1372 -1.0568  1.9195
12396SOL    HW241551  10.558   9.958   7.822 -1.3478  0.8475 -2.6749
12397SOL     OW41552   5.325   8.365   5.766 -0.3494  0.2880 -0.1206
12397SOL    HW141553   5.419   8.383   5.769  0.5952 -3.3443 -1.6273
12397SOL    HW241554   5.303   8.336   5.854  0.3073 -0.1484 -0.0922
12398SOL     OW41555  11.013   1.434   1.608 -0.8025  0.4775  0.7914
12398SOL    HW141556  11.076   1.413   1.676 -0.5649 -0.6873  0.2482
12398SOL    HW241557  11.024   1.528   1.592 -1.0849  0.8498  2.5525
12399SOL     OW41558   9.839   8.265   0.193  0.3696  0.1248 -0.5469
12399SOL    HW141559   9.879   8.261   0.106 -2.2982 -2.1234 -1.8325
12399SOL    HW241560   9.793   8.349   0.195  0.9058  0.4381 -1.0825
12400SOL     OW41561   4.161   3.418   2.000  0.2448  0.1789 -0.4528
12400SOL    HW141562   4.134   3.445   1.912 -1.8257 -1.8644 -0.5358
12400SOL    HW241563   4.197   3.330   1.988 -0.2008 -0.1813  0.7445
12401SOL     OW41564  11.058   9.935   2.095 -0.3854  0.1544 -0.0302
12401SOL    HW141565  11.030   9.848   2.120  1.4280 -0.4501  0.0343
12401SOL    HW241566  11.025   9.946   2.005 -0.7533 -0.5229  0.0192
12402SOL     OW41567   7.297   0.248   4.007 -0.4489  0.3471 -0.1927
12402SOL    HW141568   7.299   0.159   3.971 -0.7587 -1.0867  3.0173
12402SOL    HW241569   7.207   0.260   4.037  0.4141  0.1507  2.7930
12403SOL     OW41570   0.044   8.587   3.202  0.4312 -0.2572  0.0761
12403SOL    HW141571   0.082   8.534   3.132 -0.4951 -1.2585  0.3065
12403SOL    HW241572   0.034   8.674   3.163  0.0358 -0.7654 -1.0110
12404SOL     OW41573   0.457   0.454   3.682  0.2205 -0.3496  0.0465
12404SOL    HW141574   0.546   0.489   3.678  0.6724 -1.0939  2.2335
12404SOL    HW241575   0.468   0.364   3.711 -1.2529 -0.3588  0.6825
12405SOL     OW41576   0.062   5.549  11.051 -0.0426 -0.7389 -0.1376
12405SOL    HW141577   0.105   5.482  10.998 -1.6932 -0.9972 -1.2535
12405SOL    HW241578  -0.020   5.567  11.004  0.6604  2.6422 -0.3447
12406SOL     OW41579   3.136   9.363   7.969 -0.1609  0.1413  0.0336
12406SOL    HW141580   3.218   9.319   7.994 -0.0672 -0.6279 -1.4672
12406SOL    HW241581   3.164   9.447   7.933 -0.0634  0.0887 -0.0160
12407SOL     OW41582   3.662   8.577   9.633 -0.2697  0.2622 -0.1679
12407SOL    HW141583   3.687   8.637   9.563 -0.4309 -0.4683 -0.8648
12407SOL    HW241584   3.594   8.521   9.594  0.5825 -1.0341  0.1398
12408SOL     OW41585   8.413   1.224   9.775  0.1867 -0.2822 -0.0088
12408SOL    HW141586   8.384   1.200   9.687  0.7881  1.1971 -0.6459
12408SOL    HW241587   8.333   1.253   9.820  0.0421  0.0113 -0.4485
12409SOL     OW41588   4.441  10.946   8.612  0.1970  0.0901 -0.0759
12409SOL    HW141589   4.480  10.920   8.695  1.8104  1.0015 -0.4992
12409SOL    HW241590   4.515  10.955   8.552 -0.8862 -0.1916 -1.5286
12410SOL     OW41591   8.198   9.709   8.680  0.5934  0.5921 -0.0275
12410SOL    HW141592   8.263   9.744   8.741 -1.5954  1.0395  2.2232
12410SOL    HW241593   8.117   9.707   8.730 -0.7870 -1.6509 -2.1118
12411SOL     OW41594   3.852   2.428   3.676 -0.0735  0.1236 -0.4203
12411SOL    HW141595   3.827   2.345   3.636  1.3996 -0.0980 -0.9293
12411SOL    HW241596   3.769   2.464   3.710 -0.7457 -1.5269 -0.1998
12412SOL     OW41597   9.672   1.815   5.651 -0.2174 -0.2504 -0.0766
12412SOL    HW141598   9.676   1.829   5.556 -0.4850  0.0708 -0.0416
12412SOL    HW241599   9.751   1.858   5.684 -0.2381 -0.1721 -0.1290
12413SOL     OW41600   6.122   9.667   9.027 -0.6377  0.2920  0.2221
12413SOL    HW141601   6.130   9.573   9.039 -0.1330  0.3309  0.2036
12413SOL    HW241602   6.158   9.705   9.107  1.2701  0.5111 -0.6829
12414SOL     OW41603   4.236  10.054   6.266 -0.3719 -0.8307  0.2752
12414SOL    HW141604   4.327  10.067   6.293 -0.5034 -0.6760  0.6526
12414SOL    HW241605   4.185  10.076   6.344 -0.7826  0.0787 -0.2482
12415SOL     OW41606   6.078   6.331   5.281  0.5894  0.2006 -0.5593
12415SOL    HW141607   6.078   6.294   5.192  0.6257 -1.5769  0.1448
12415SOL    HW241608   6.129   6.269   5.333  1.6467  1.8864  0.4647
12416SOL     OW41609   9.141   8.521   9.844  0.0316 -0.1432 -0.3430
12416SOL    HW141610   9.198   8.461   9.797  1.1590  0.8779 -0.3207
12416SOL    HW241611   9.076   8.549   9.779  0.2936 -0.3806 -0.7090
12417SOL     OW41612  10.148   3.579   2.707  0.2383 -0.2111  0.1343
12417SOL    HW141613  10.113   3.663   2.736 -0.6002 -0.7907  0.8206
12417SOL    HW241614  10.242   3.596   2.694 -0.1097  1.1071 -0.8280
12418SOL     OW41615   6.383   8.507   5.155  0.0643 -0.2554 -0.5209
12418SOL    HW141616   6.317   8.438   5.161  2.0115 -2.4434 -2.0499
12418SOL    HW241617   6.378   8.537   5.064  1.3325 -0.7453 -0.7896
12419SOL     OW41618   1.630   7.755   3.600 -0.2726  0.8787  0.2951
12419SOL    HW141619   1.625   7.676   3.546 -2.4206  0.9160  0.3246
12419SOL    HW241620   1.699   7.808   3.559  0.5326 -0.5749 -0.3034
12420SOL     OW41621   8.358   8.833   9.528  0.4064 -0.4273 -0.2859
12420SOL    HW141622   8.436   8.790   9.562  0.4363 -1.3291 -1.4636
12420SOL    HW241623   8.288   8.768   9.537 -0.3500  0.5084  1.1488
12421SOL     OW41624   8.564   5.113   2.992  0.0801 -0.6487 -0.4917
12421SOL    HW141625   8.566   5.191   2.937  1.7860  0.4049  0.9536
12421SOL    HW241626   8.592   5.143   3.078 -1.0143 -2.5254  0.6027
12422SOL     OW41627   6.998   1.075   5.370 -0.2984  0.2278 -0.0487
12422SOL    HW141628   7.092   1.061   5.362 -0.0480  1.1108  1.0914
12422SOL    HW241629   6.977   1.041   5.457 -0.9038  0.6692 -0.0174
12423SOL     OW41630   8.026   1.357   8.356  0.4032 -0.5427  0.1238
12423SOL    HW141631   8.111   1.359   8.312 -0.0149  0.2762 -0.6850
12423SOL    HW241632   8.030   1.430   8.418 -0.0492  0.0958 -0.5886
12424SOL     OW41633  10.456   1.932   7.002 -0.2615  0.3252  0.5892
12424SOL    HW141634  10.382   1.962   7.054  0.1009  1.9388  0.2197
12424SOL    HW241635  10.457   1.989   6.926  0.5205 -0.5968 -0.1151
12425SOL     OW41636  10.392   2.708   4.265 -0.2429  0.1551  0.6010
12425SOL    HW141637  10.445   2.630   4.248  1.2742  1.1675  0.5486
12425SOL    HW241638  10.306   2.686   4.230  1.1039 -0.1733 -2.8414
12426SOL     OW41639   7.826   7.998   1.645  0.1154  0.5823  0.2927
12426SOL    HW141640   7.740   8.028   1.673  1.0070  3.4521  0.2973
12426SOL    HW241641   7.888   8.052   1.695  1.9406 -1.1962  0.0982
12427SOL     OW41642   7.137   5.349   5.332  0.0484 -0.3256  0.2374
12427SOL    HW141643   7.050   5.387   5.321 -1.0412 -2.4196  1.0872
12427SOL    HW241644   7.124   5.278   5.394  1.7683 -2.5643 -1.7766
12428SOL     OW41645  10.664   2.895   5.045 -0.5732 -0.3867  0.4752
12428SOL    HW141646  10.677   2.860   4.957 -1.2422 -1.3350  0.7370
12428SOL    HW241647  10.630   2.983   5.030 -0.6301 -0.5166 -0.2208
12429SOL     OW41648  10.644   6.219   4.183 -0.0824 -0.3843 -0.4629
12429SOL    HW141649  10.595   6.241   4.263  2.8718  0.2781  1.3327
12429SOL    HW241650  10.577   6.203   4.117 -2.7905 -2.5664  2.5195
12430SOL     OW41651   0.205   3.627   2.640  0.5213  0.3634 -0.1380
12430SOL    HW141652   0.253   3.681   2.704 -0.2099  0.5110  0.2950
12430SOL    HW241653   0.195   3.684   2.564  2.2461 -0.1358 -0.7867
12431SOL     OW41654   8.206   7.034   5.020  0.3703  0.4482 -0.2705
12431SOL    HW141655   8.282   7.031   5.077  0.3615 -2.6047 -0.2289
12431SOL    HW241656   8.242   7.047   4.932  0.8507  0.1913 -0.1161
12432SOL     OW41657   2.054   0.547   2.328  0.2914  0.7653  0.1736
12432SOL    HW141658   1.959   0.530   2.328  0.3579  0.2127 -1.3519
12432SOL    HW241659   2.092   0.469   2.288  1.0547  2.2784 -2.3037
12433SOL     OW41660  10.151   7.102   9.920 -0.7227  0.3546  0.3205
12433SOL    HW141661  10.177   7.177   9.866 -0.9582 -1.2969 -2.2724
12433SOL    HW241662  10.232   7.052   9.932 -0.7903  0.4046  0.9931
12434SOL     OW41663   4.420  10.180   5.750 -0.1368  0.3013  0.4080
12434SOL    HW141664   4.447  10.154   5.838  1.2895 -2.4765 -0.7570
12434SOL    HW241665   4.500  10.182   5.699 -1.3358 -2.9816 -1.9213
12435SOL     OW41666   8.943   1.192   4.726 -0.6249 -0.2181  0.2527
12435SOL    HW141667   8.942   1.127   4.797 -2.3317 -1.0011 -0.4462
12435SOL    HW241668   8.857   1.186   4.686 -0.8097  2.4143  0.0635
12436SOL     OW41669   3.928   1.294   3.200 -0.9207 -0.1920  0.0874
12436SOL    HW141670   3.949   1.212   3.245 -2.2232  0.5740  2.1811
12436SOL    HW241671   3.921   1.359   3.270 -2.9682  1.0723 -1.1959
12437SOL     OW41672   5.790   6.748   5.031  0.4229 -0.7829  0.1331
12437SOL    HW141673   5.698   6.743   5.002  0.1196  2.6217  0.1035
12437SOL    HW241674   5.794   6.689   5.107 -1.3174 -2.2583 -0.8141
12438SOL     OW41675   4.077   6.021   8.552 -0.0175 -0.2656  0.3856
12438SOL    HW141676   4.024   5.942   8.558 -0.1316 -0.2797 -0.6613
12438SOL    HW241677   4.076   6.044   8.459 -0.2286  1.1346  0.7066
12439SOL     OW41678   4.359   1.713   3.361  0.0618  0.0895 -0.0075
12439SOL    HW141679   4.348   1.742   3.270  0.6785 -2.5905 -1.0347
12439SOL    HW241680   4.453   1.719   3.376 -0.1474  1.5346  0.8687
12440SOL     OW41681   9.626   3.357   6.227  0.5205  0.5143  0.1323
12440SOL    HW141682   9.633   3.389   6.317  1.9884 -1.1193  0.6447
12440SOL    HW241683   9.601   3.265   6.237  2.3160 -0.1371 -1.0474
12441SOL     OW41684  10.250   5.301   2.310  0.1481  0.6401 -0.0464
12441SOL    HW141685  10.335   5.267   2.283  0.1063  0.2459  0.3128
12441SOL    HW241686  10.271   5.374   2.369  0.2354  0.7847 -0.2544
12442SOL     OW41687   2.589   9.196   0.035 -0.1423  0.0820 -0.4357
12442SOL    HW141688   2.581   9.290   0.016  0.7660  0.1478 -0.5223
12442SOL    HW241689   2.621   9.158  -0.047  0.9460 -0.0741  0.0490
12443SOL     OW41690   9.524   9.177   0.201  0.0900 -0.6292  0.9824
12443SOL    HW141691   9.608   9.219   0.180  0.7524 -2.8287 -1.2500
12443SOL    HW241692   9.475   9.178   0.119 -1.8931  0.0892  2.1072
12444SOL     OW41693  10.459   4.115   9.060  0.1035 -0.3992 -0.1786
12444SOL    HW141694  10.402   4.044   9.030  0.8539  0.0004 -2.8093
12444SOL    HW241695  10.412   4.195   9.035  0.2492  0.0030  0.8075
12445SOL     OW41696   4.758   3.935   5.622 -0.1886 -0.6849  0.3508
12445SOL    HW141697   4.713   3.940   5.707 -0.4196  1.0697  0.1475
12445SOL    HW241698   4.689   3.908   5.561 -0.1416 -1.4347  0.6171
12446SOL     OW41699   6.225   5.890   2.281 -0.2543  0.1087 -0.1230
12446SOL    HW141700   6.173   5.810   2.286 -0.6380  0.2653 -1.2371
12446SOL    HW241701   6.304   5.871   2.331 -1.4870 -0.0263  1.8734
12447SOL     OW41702   4.173   1.451   7.952 -0.3469  0.2544  0.4775
12447SOL    HW141703   4.124   1.504   7.889 -1.1937 -2.5335 -1.4129
12447SOL    HW241704   4.256   1.434   7.909  1.5031  2.9274  2.6495
12448SOL     OW41705   7.521   7.514   9.921 -0.3169 -0.0479 -0.0061
12448SOL    HW141706   7.605   7.551   9.893 -0.2685 -0.2598 -0.1447
12448SOL    HW241707   7.484   7.476   9.841  0.4576 -1.9077  0.4448
12449SOL     OW41708   2.427   9.638   2.981 -0.1530 -0.1251  1.0734
12449SOL    HW141709   2.453   9.621   2.891  2.8141  1.9912  1.3705
12449SOL    HW241710   2.363   9.709   2.975 -0.0263 -0.0469  0.6256
12450SOL     OW41711   0.847   6.974   3.164  0.4818 -0.0025  0.2135
12450SOL    HW141712   0.866   6.915   3.237 -0.3577 -0.7192 -0.1228
12450SOL    HW241713   0.857   7.062   3.201  1.8386 -0.3428  0.7011
12451SOL     OW41714   8.955   8.687   4.039  0.0941 -0.5717  0.2896
12451SOL    HW141715   8.902   8.765   4.051  0.6723 -0.3158  1.2485
12451SOL    HW241716   9.029   8.698   4.098  0.4117 -1.6412  0.1199
12452SOL     OW41717   8.983   2.679  10.739  0.3581  0.2597 -0.0309
12452SOL    HW141718   8.956   2.703  10.827 -0.4318  1.0627 -0.4749
12452SOL    HW241719   8.916   2.617  10.709  0.0399  0.7880 -0.4357
12453SOL     OW41720  10.567  10.244   4.980 -0.3963 -0.1263  0.0883
12453SOL    HW141721  10.492  10.218   4.926  0.2944 -1.7206 -0.1575
12453SOL    HW241722  10.637  10.183   4.954  1.1035  1.5371  0.0594
12454SOL     OW41723   7.903  10.492   2.348 -0.2552  0.2092  0.4659
12454SOL    HW141724   7.849  10.510   2.271  0.5946 -1.4498 -0.5913
12454SOL    HW241725   7.991  10.518   2.321 -0.1862  1.1251  1.4956
12455SOL     OW41726  10.983   0.604   3.780  0.7505  0.2313  0.2054
12455SOL    HW141727  10.952   0.675   3.724  1.2619 -0.1072 -0.5168
12455SOL    HW241728  10.936   0.617   3.863  0.7989  1.3799  0.0770
12456SOL     OW41729   0.436   4.294   4.565 -0.1696 -0.0300 -0.6260
12456SOL    HW141730   0.503   4.241   4.522  0.4082 -0.0046  0.2154
12456SOL    HW241731   0.366   4.231   4.587  0.8390 -0.6388  1.0470
12457SOL     OW41732   7.432   5.386   2.591 -0.8070 -0.8672 -0.4840
12457SOL    HW141733   7.397   5.474   2.604  1.1788 -0.2166  0.9273
12457SOL    HW241734   7.450   5.354   2.680 -0.2765 -2.1634 -1.0345
12458SOL     OW41735   2.334   6.419   8.516  0.2802  0.4532  0.4893
12458SOL    HW141736   2.249   6.461   8.521 -0.4295 -0.8947  0.1801
12458SOL    HW241737   2.364   6.413   8.607 -1.3243 -1.6942  0.9502
12459SOL     OW41738   4.736   9.302   4.710  0.2877  0.0403 -0.0929
12459SOL    HW141739   4.673   9.244   4.752 -0.9873  2.0368  0.8734
12459SOL    HW241740   4.816   9.293   4.762  0.3163 -1.2355 -0.3173
12460SOL     OW41741  11.086   4.610   4.932  0.5167 -0.0482  0.3350
12460SOL    HW141742  11.053   4.698   4.918 -2.6142 -1.3246 -1.3515
12460SOL    HW241743  11.072   4.594   5.025 -0.9292  0.5209  0.2374
12461SOL     OW41744   4.182   8.675   3.590  0.3437 -0.0536 -0.0994
12461SOL    HW141745   4.120   8.695   3.660  0.1134 -0.0789 -0.2966
12461SOL    HW241746   4.210   8.585   3.609  0.3938 -0.0084  0.0441
12462SOL     OW41747   8.681   7.472   8.116 -0.2887 -0.9783  0.1781
12462SOL    HW141748   8.613   7.429   8.065 -0.6274 -0.6772  0.3695
12462SOL    HW241749   8.642   7.555   8.143  1.0775  0.4867 -2.0137
12463SOL     OW41750  11.076   9.582  10.909  0.0127 -0.0066  0.3719
12463SOL    HW141751  11.034   9.499  10.889  2.5040 -1.2725 -0.0352
12463SOL    HW241752  11.084   9.581  11.005 -1.6344  0.7005  0.5530
12464SOL     OW41753   2.340   4.057   7.129  0.1843 -0.2550  0.2060
12464SOL    HW141754   2.413   4.004   7.161  0.8200  1.4888  1.7871
12464SOL    HW241755   2.283   4.068   7.205 -0.8826 -0.2073 -0.5839
12465SOL     OW41756   9.935  10.327   9.034  0.0809 -0.7389 -0.0602
12465SOL    HW141757   9.884  10.292   8.961  0.2925 -0.8789 -0.1431
12465SOL    HW241758   9.871  10.373   9.089 -0.0174 -0.3163 -0.5236
12466SOL     OW41759   3.464   6.050   0.653  0.3031 -0.1181  0.1324
12466SOL    HW141760   3.499   6.071   0.566 -0.4779  1.2113  0.1124
12466SOL    HW241761   3.382   6.004   0.636  1.5954 -2.6272  0.1877
12467SOL     OW41762  10.814   0.843  11.020  0.5823 -0.2280 -0.0766
12467SOL    HW141763  10.773   0.795  11.093  0.3491 -0.5413 -0.4098
12467SOL    HW241764  10.741   0.865  10.963  0.8680 -0.7578 -0.6593
12468SOL     OW41765   9.787  10.431   2.279 -0.4725  0.4464  0.5637
12468SOL    HW141766   9.768  10.513   2.325  1.7504  0.8979  0.7746
12468SOL    HW241767   9.714  10.374   2.301 -0.4205  1.2514  3.1896
12469SOL     OW41768   2.141   7.949   8.952 -0.0899  0.0786 -0.3298
12469SOL    HW141769   2.102   8.032   8.924  0.3809  0.1421 -0.8205
12469SOL    HW241770   2.236   7.964   8.946  0.0183 -0.1813  0.5141
12470SOL     OW41771   6.583   4.765   8.911  0.1423 -0.4083 -0.2541
12470SOL    HW141772   6.562   4.807   8.994  0.0473 -1.3855  0.2251
12470SOL    HW241773   6.679   4.761   8.910  0.1752  0.2259 -0.5217
12471SOL     OW41774   4.197   3.596   6.470  0.8135  0.1916 -0.7162
12471SOL    HW141775   4.258   3.528   6.442  0.0743 -1.0226  0.4850
12471SOL    HW241776   4.110   3.555   6.462  0.4970 -0.2839  3.0036
12472SOL     OW41777  10.096   1.039   2.474 -0.3461 -0.6655  0.1808
12472SOL    HW141778  10.182   1.062   2.510  1.1707 -1.9706 -2.3299
12472SOL    HW241779  10.070   1.117   2.425 -0.0117 -0.6742 -0.0169
12473SOL     OW41780   6.323   3.355   5.688 -0.4333 -0.1254 -0.1740
12473SOL    HW141781   6.374   3.291   5.737 -0.9523  0.5623  1.3211
12473SOL    HW241782   6.381   3.383   5.618  0.7296 -0.3755  0.6533
12474SOL     OW41783   5.754   8.446   1.107  0.1304  0.4338 -0.4583
12474SOL    HW141784   5.689   8.515   1.097 -1.1850 -0.7024  0.0084
12474SOL    HW241785   5.708   8.366   1.084  1.9281 -0.2133 -2.1021
12475SOL     OW41786   3.054   2.213   4.186 -0.5799 -0.0345  0.4854
12475SOL    HW141787   3.131   2.220   4.129  1.0918  1.7615  2.7298
12475SOL    HW241788   2.981   2.242   4.132  0.8283  1.0529 -0.9222
12476SOL     OW41789   7.011   1.248   8.043  0.1534 -0.0079  0.5656
12476SOL    HW141790   7.073   1.304   8.089 -0.4168  1.0656  0.0468
12476SOL    HW241791   7.039   1.252   7.952 -0.6492  0.4476  0.3374
12477SOL     OW41792   6.838   3.610   7.178  0.1632 -0.5673  0.0694
12477SOL    HW141793   6.823   3.666   7.102 -0.0171 -0.5536  0.1131
12477SOL    HW241794   6.919   3.563   7.159 -0.9597 -2.1577 -1.1059
12478SOL     OW41795   9.037   9.265   2.495  0.6939 -0.4900 -0.4777
12478SOL    HW141796   9.046   9.198   2.427 -0.6351 -0.7865 -0.3888
12478SOL    HW241797   9.050   9.217   2.577 -1.1519 -0.8893 -0.3574
12479SOL     OW41798   4.184   6.455   4.309  0.2826 -0.0080 -0.5164
12479SOL    HW141799   4.269   6.431   4.346 -0.1516  1.2197  1.3867
12479SOL    HW241800   4.205   6.499   4.227  1.4750  0.0257 -0.2049
12480SOL     OW41801   4.886   6.119   6.086  0.7610  0.3789 -0.4055
12480SOL    HW141802   4.865   6.163   6.169  1.0632 -1.2768  0.5898
12480SOL    HW241803   4.885   6.190   6.021 -0.3115  1.5887  0.8490
12481SOL     OW41804   6.278   5.919   5.318  0.4399 -0.2699  0.5601
12481SOL    HW141805   6.230   5.951   5.395  0.5523 -0.3540  0.6651
12481SOL    HW241806   6.331   5.993   5.290 -0.6581  0.2353 -0.2935
12482SOL     OW41807   6.251   6.368  10.889 -0.3173 -0.2729 -0.0828
12482SOL    HW141808   6.281   6.391  10.801  0.1295  1.0766  0.3994
12482SOL    HW241809   6.281   6.278  10.902  1.6947  0.2954 -0.4427
12483SOL     OW41810   3.583   7.508   0.221  0.0588 -0.2702 -0.2272
12483SOL    HW141811   3.502   7.466   0.252  1.5453 -1.1549  3.0066
12483SOL    HW241812   3.613   7.559   0.297  2.6983 -0.3005 -1.1604
12484SOL     OW41813   7.540   4.425   1.232 -0.1899  0.0005 -0.6796
12484SOL    HW141814   7.533   4.334   1.202  0.8666 -0.8749  1.4888
12484SOL    HW241815   7.627   4.431   1.270 -0.5221  1.7139 -0.0904
12485SOL     OW41816   8.409   7.515   8.264 -0.6424 -0.2554  0.2106
12485SOL    HW141817   8.384   7.474   8.347  2.1312  0.4664  1.5170
12485SOL    HW241818   8.422   7.441   8.205  1.2306 -1.1376  1.6290
12486SOL     OW41819   2.211   8.486   9.242 -0.6227  0.2818  0.3847
12486SOL    HW141820   2.271   8.412   9.254 -1.6133 -0.9664 -1.8314
12486SOL    HW241821   2.253   8.541   9.176 -1.4768 -0.1474 -0.5374
12487SOL     OW41822   5.079   2.752   3.142 -0.1306  0.0370  0.2055
12487SOL    HW141823   5.050   2.839   3.168 -2.1248 -0.8487  1.0779
12487SOL    HW241824   5.130   2.767   3.062 -0.1644  2.0138  0.5129
12488SOL     OW41825   9.947   0.140   2.788  0.6033 -0.3348  0.2469
12488SOL    HW141826   9.921   0.160   2.878  1.1529 -0.7417  0.4985
12488SOL    HW241827  10.027   0.089   2.796  0.9847  0.1215 -0.4992
12489SOL     OW41828   3.928   3.559   2.005  0.2706 -0.8064  0.1153
12489SOL    HW141829   3.953   3.485   2.061  3.8286  0.6178  0.6801
12489SOL    HW241830   3.969   3.541   1.921 -0.1679 -0.2132 -0.2332
12490SOL     OW41831   8.186   7.751   3.136  0.4174 -0.4520  0.4452
12490SOL    HW141832   8.111   7.699   3.163 -0.6917  0.8850  0.0585
12490SOL    HW241833   8.159   7.842   3.151  1.7447  0.0880 -0.2416
12491SOL     OW41834   7.195   1.376   7.257  0.1379  0.3197  0.3407
12491SOL    HW141835   7.257   1.352   7.326 -0.4684 -0.4391  0.6429
12491SOL    HW241836   7.195   1.301   7.198 -2.4081 -0.9226  1.7402
12492SOL     OW41837   2.846   9.973   4.012 -0.0048 -0.7715  0.8547
12492SOL    HW141838   2.815  10.049   4.062  1.7377  0.2417  0.4937
12492SOL    HW241839   2.924   9.943   4.059  1.3743 -0.1169 -0.8973
12493SOL     OW41840   3.590  10.338   0.401  0.0507 -0.1463 -0.0878
12493SOL    HW141841   3.659  10.280   0.434  0.3293 -1.0354 -2.0920
12493SOL    HW241842   3.623  10.426   0.417  0.8809 -0.5502  0.5141
12494SOL     OW41843   2.814   4.749   2.674  0.1325  0.2364  0.2689
12494SOL    HW141844   2.844   4.666   2.637 -1.0504 -1.1459  2.2505
12494SOL    HW241845   2.756   4.724   2.746  1.1241  2.7797  2.0765
12495SOL     OW41846   7.065   6.358   7.008 -0.2614 -0.4181  0.2838
12495SOL    HW141847   7.121   6.419   7.056  0.9753 -0.2991 -1.2250
12495SOL    HW241848   7.004   6.414   6.960  1.1504 -0.2922 -1.4373
12496SOL     OW41849   6.820   1.236   1.260  0.1148 -0.1762 -0.1906
12496SOL    HW141850   6.843   1.276   1.343 -0.3942  2.7202 -1.3358
12496SOL    HW241851   6.896   1.182   1.238  1.4210  1.1129  0.9101
12497SOL     OW41852   4.871   6.834   7.165  0.0121  0.1667 -0.0894
12497SOL    HW141853   4.847   6.743   7.149  0.6530 -0.0356  0.0853
12497SOL    HW241854   4.918   6.833   7.249  1.1142  0.4584 -0.6817
12498SOL     OW41855   1.992   5.982   7.673  0.4449  0.1129 -0.2639
12498SOL    HW141856   1.898   5.992   7.689  0.3185  0.8108 -1.3149
12498SOL    HW241857   2.032   5.991   7.760 -0.3152  2.0564 -0.0537
12499SOL     OW41858   2.116   6.745  10.928 -0.5180 -0.5921  0.0957
12499SOL    HW141859   2.181   6.814  10.939  0.4467 -0.7237 -3.3754
12499SOL    HW241860   2.127   6.689  11.004  2.1950  0.4013  0.5527
12500SOL     OW41861   7.118   3.917   1.917  0.3029  0.1162  0.1316
12500SOL    HW141862   7.028   3.919   1.885 -0.7404 -1.9276  2.5821
12500SOL    HW241863   7.168   3.879   1.845 -0.7468  1.2261 -1.2464
12501SOL     OW41864   5.352   4.462   8.753  0.1621  0.2046  0.3632
12501SOL    HW141865   5.327   4.554   8.740 -1.1851 -0.2680 -0.5619
12501SOL    HW241866   5.439   4.456   8.713 -0.4310  0.7223 -1.0739
12502SOL     OW41867   7.150   9.957   0.361  0.2356  0.4495  0.6098
12502SOL    HW141868   7.149  10.021   0.433  1.2106  0.5667  0.5304
12502SOL    HW241869   7.226   9.981   0.309  0.2867 -0.4375  0.2615
12503SOL     OW41870   7.719   7.946   0.003 -0.2195  0.3282  0.5798
12503SOL    HW141871   7.802   7.915   0.039  0.8451  0.0398 -1.8962
12503SOL    HW241872   7.711   8.035   0.037  1.9267  0.9339 -0.2821
12504SOL     OW41873   9.426   4.219   7.831  0.3449  0.1078  0.7732
12504SOL    HW141874   9.486   4.151   7.802  1.0607  0.3014  1.7489
12504SOL    HW241875   9.345   4.202   7.782  0.8236 -0.8370  0.2799
12505SOL     OW41876   5.858   7.594   7.771 -0.3189 -0.6710  0.1088
12505SOL    HW141877   5.842   7.623   7.861  1.1168 -0.4085  0.3021
12505SOL    HW241878   5.914   7.517   7.780 -0.0521 -0.5607 -0.5703
12506SOL     OW41879   4.766   5.814   1.027  0.2779  0.0424 -0.1914
12506SOL    HW141880   4.820   5.888   1.055 -2.1792  1.4661  1.2090
12506SOL    HW241881   4.737   5.773   1.109 -1.8544  0.2602 -0.7720
12507SOL     OW41882   3.233   1.156   9.848 -0.2419  0.1701  0.1446
12507SOL    HW141883   3.144   1.123   9.839 -0.6359  0.9702  0.9954
12507SOL    HW241884   3.227   1.248   9.819  0.2300  0.3228  0.5194
12508SOL     OW41885  11.068   6.334   7.724 -0.6617 -0.1505  0.3873
12508SOL    HW141886  10.989   6.358   7.675  0.2803 -0.8706 -1.5821
12508SOL    HW241887  11.046   6.249   7.764 -0.8483 -0.4010 -0.2389
12509SOL     OW41888   7.600   7.753   1.446  0.2391 -0.1197 -0.0558
12509SOL    HW141889   7.668   7.687   1.454  0.1455 -0.1346  0.7070
12509SOL    HW241890   7.519   7.707   1.467  0.0691  0.0382 -0.3581
12510SOL     OW41891   5.489   7.633   7.090  0.1185 -0.0574 -0.0116
12510SOL    HW141892   5.536   7.571   7.033 -2.3861 -2.0970 -0.0204
12510SOL    HW241893   5.529   7.621   7.176  1.5989  0.4836 -0.5945
12511SOL     OW41894   4.552   9.688   2.273 -0.0429 -0.7924 -0.4963
12511SOL    HW141895   4.497   9.627   2.323  1.5058 -2.3140 -0.5249
12511SOL    HW241896   4.533   9.774   2.310 -3.8567 -0.8856 -1.8351
12512SOL     OW41897   7.727   9.259   4.231  0.0445 -0.2711  0.6260
12512SOL    HW141898   7.749   9.167   4.222  0.2472 -0.2855  1.1988
12512SOL    HW241899   7.803   9.306   4.196  0.7284 -0.3241  1.9659
12513SOL     OW41900   4.046   5.013   8.052 -0.5634  0.0663  0.3136
12513SOL    HW141901   4.049   5.059   8.136 -0.8383  1.2066 -0.2805
12513SOL    HW241902   4.135   4.978   8.041 -0.0125  1.3847  0.3067
12514SOL     OW41903   9.098   0.846   4.857  0.0910 -0.1779 -0.2280
12514SOL    HW141904   9.045   0.852   4.937  0.1768 -0.3038 -0.1633
12514SOL    HW241905   9.033   0.836   4.787  0.0797 -1.6632 -0.0209
12515SOL     OW41906   3.297   5.567   9.543 -0.5030  0.0590 -0.4578
12515SOL    HW141907   3.364   5.517   9.589 -0.4033  1.8974  1.5994
12515SOL    HW241908   3.222   5.567   9.603 -0.7236  1.7506 -0.6799
12516SOL     OW41909   5.222  10.915   9.056  0.0856 -0.2260  0.7098
12516SOL    HW141910   5.195  11.007   9.049 -0.9846 -0.5728  0.0011
12516SOL    HW241911   5.313  10.919   9.086 -0.1940  1.0399  1.4546
12517SOL     OW41912   9.679   6.850   6.025  0.0024  0.7846 -1.0316
12517SOL    HW141913   9.669   6.844   6.120 -0.6860  0.1591 -1.1306
12517SOL    HW241914   9.726   6.932   6.010  0.4605  0.6934 -0.1323
12518SOL     OW41915   7.657   2.342   8.662  0.1732 -0.1393  0.1708
12518SOL    HW141916   7.617   2.281   8.601 -0.5576  1.3833 -0.9394
12518SOL    HW241917   7.751   2.323   8.659 -0.0314 -1.0811 -0.2638
12519SOL     OW41918   4.208   2.590   4.032 -0.0674  0.2049 -0.4365
12519SOL    HW141919   4.268   2.659   4.003  0.8538 -0.4705 -0.1928
12519SOL    HW241920   4.266   2.519   4.059 -0.7216  1.0121  3.8015
12520SOL     OW41921   1.123   0.260   2.720 -0.2311 -0.1830 -0.4874
12520SOL    HW141922   1.041   0.210   2.712  0.3221 -1.0874 -0.6450
12520SOL    HW241923   1.098   0.338   2.771 -0.9606 -1.0097  0.4867
12521SOL     OW41924   6.302   3.495   2.352 -0.0325 -0.1840 -0.5286
12521SOL    HW141925   6.327   3.477   2.262  1.9496  2.1319 -0.5610
12521SOL    HW241926   6.209   3.518   2.348 -0.2557 -1.2142 -1.7718
12522SOL     OW41927   5.117   2.370   9.430 -0.2322 -0.1302 -0.0259
12522SOL    HW141928   5.089   2.446   9.379  1.0778  0.9304  0.7804
12522SOL    HW241929   5.157   2.312   9.366  1.2180  1.1016 -0.2995
12523SOL     OW41930   5.421   2.464   2.538 -0.6574 -0.0517 -0.0885
12523SOL    HW141931   5.490   2.415   2.582  0.3084  1.9098  0.7344
12523SOL    HW241932   5.468   2.531   2.487 -1.8664 -0.4482 -1.8255
12524SOL     OW41933   8.594   1.685   5.419  0.0366  0.0202 -0.4908
12524SOL    HW141934   8.646   1.675   5.498  1.1872 -0.4147 -1.2862
12524SOL    HW241935   8.609   1.775   5.391  0.2436 -0.0621 -0.6429
12525SOL     OW41936   6.054  10.100   8.883 -0.2600 -0.0625 -0.2885
12525SOL    HW141937   6.074  10.069   8.971  1.5826  1.6689 -0.0210
12525SOL    HW241938   5.961  10.122   8.887 -0.6580 -1.7224  0.6351
12526SOL     OW41939   2.773   8.650   4.731  0.3725 -0.1593 -0.1828
12526SOL    HW141940   2.747   8.568   4.773  0.7829  0.0586  0.4986
12526SOL    HW241941   2.867   8.655   4.743  0.3436  0.4514 -0.1551
12527SOL     OW41942   7.793   8.661   8.762 -0.1377 -0.5724  0.3600
12527SOL    HW141943   7.710   8.632   8.799 -0.1122  0.0605  0.9378
12527SOL    HW241944   7.772   8.688   8.672 -0.6511 -0.0014  0.6419
12528SOL     OW41945   8.711   9.554   8.300 -0.4318 -0.1714 -0.8047
12528SOL    HW141946   8.670   9.471   8.272  0.3462 -0.4793 -1.0434
12528SOL    HW241947   8.691   9.560   8.393  0.3442 -1.1346 -0.5614
12529SOL     OW41948   8.331   9.137  10.024  0.1379  0.0212  0.4174
12529SOL    HW141949   8.270   9.093  10.084 -0.7061 -2.3582 -1.9688
12529SOL    HW241950   8.398   9.071  10.006  0.3598  0.6470 -1.2073
12530SOL     OW41951   9.492   1.778   0.150 -0.1910 -0.4283 -0.1489
12530SOL    HW141952   9.434   1.756   0.222 -1.2950 -1.9742 -1.4441
12530SOL    HW241953   9.494   1.874   0.149 -0.6079 -0.3765  1.5409
12531SOL     OW41954   1.528   3.170   6.640  0.6227  0.1994  0.6068
12531SOL    HW141955   1.565   3.257   6.654 -0.1401  0.7814 -0.7324
12531SOL    HW241956   1.490   3.174   6.552  0.6901 -1.5360  0.4544
12532SOL     OW41957   5.901   3.142   8.654  0.1160  0.0940  0.0141
12532SOL    HW141958   5.915   3.235   8.671  1.8256 -0.2542  0.7333
12532SOL    HW241959   5.815   3.138   8.613  0.6430  2.1671 -1.5052
12533SOL     OW41960   4.356   7.879   1.967 -0.2837 -0.4633  0.1407
12533SOL    HW141961   4.437   7.899   2.015 -1.4202 -0.8392  2.3318
12533SOL    HW241962   4.296   7.949   1.992 -1.2616 -1.2898  0.1290
12534SOL     OW41963   1.881   7.527   8.538  0.5558 -0.4127  0.1791
12534SOL    HW141964   1.834   7.609   8.554  1.0496  0.1971 -1.3622
12534SOL    HW241965   1.964   7.538   8.584  0.8453  0.1888 -0.4695
12535SOL     OW41966   8.002   2.203   5.425 -0.2856 -0.1097 -0.1718
12535SOL    HW141967   7.920   2.158   5.401 -0.0878 -0.9518  0.6596
12535SOL    HW241968   7.993   2.291   5.388 -1.6555 -0.1239  0.0645
12536SOL     OW41969   5.240   7.938   2.969 -0.5026 -0.4198  0.1503
12536SOL    HW141970   5.332   7.957   2.953 -0.6057 -0.0038  0.0219
12536SOL    HW241971   5.215   8.000   3.038 -0.5749 -0.8247  0.4889
12537SOL     OW41972   6.702   7.877   2.127 -0.1440 -0.1094 -0.2359
12537SOL    HW141973   6.718   7.876   2.222  2.6261 -0.5844 -0.6139
12537SOL    HW241974   6.745   7.957   2.096 -1.3187  0.2156 -1.0738
12538SOL     OW41975   3.600  10.518   6.223 -0.1012  0.2847  0.6241
12538SOL    HW141976   3.632  10.595   6.175  0.2780 -1.3495 -1.9738
12538SOL    HW241977   3.678  10.479   6.261  0.7717 -1.7879 -2.8199
12539SOL     OW41978   3.175   4.696   2.246 -0.3193 -0.2943  0.5735
12539SOL    HW141979   3.123   4.680   2.167 -1.4602  1.0194  0.9975
12539SOL    HW241980   3.244   4.756   2.218  0.5412 -1.4417  0.1693
12540SOL     OW41981   7.263   9.929   7.907  0.5477  0.6848 -0.1133
12540SOL    HW141982   7.294   9.862   7.968  1.9600  1.2372 -0.1961
12540SOL    HW241983   7.260   9.885   7.822  2.9231  1.0731 -0.4523
12541SOL     OW41984   9.482   5.095   1.834 -0.3564  0.7735 -0.4996
12541SOL    HW141985   9.465   5.028   1.900  1.1049 -0.1717 -1.0446
12541SOL    HW241986   9.397   5.109   1.792 -0.6093 -1.0729 -0.6852
12542SOL     OW41987   0.066   1.883   0.903  0.3456  0.1617  0.0851
12542SOL    HW141988  -0.021   1.881   0.862  0.2072 -1.3729  0.3985
12542SOL    HW241989   0.121   1.928   0.839 -0.6256  0.9707 -0.2135
12543SOL     OW41990  10.852  10.268   1.692  0.1884  0.4322  0.1783
12543SOL    HW141991  10.763  10.245   1.716  0.4226 -0.1108  0.5456
12543SOL    HW241992  10.858  10.363   1.708 -0.5376  0.6144 -0.5652
12544SOL     OW41993   6.595   4.521  10.087  0.1802  0.4712 -0.3392
12544SOL    HW141994   6.582   4.615  10.095 -2.0355  0.1893 -0.2119
12544SOL    HW241995   6.514   4.482  10.120 -0.1087 -1.3780 -2.9316
12545SOL     OW41996   8.863   1.542   0.957 -0.2672 -0.3331  0.4368
12545SOL    HW141997   8.868   1.450   0.983 -1.0846 -0.5701 -0.2110
12545SOL    HW241998   8.836   1.588   1.036 -2.8709 -1.0552  0.0683
12546SOL     OW41999   3.309   3.133   4.121 -0.5043 -0.2892  0.4957
12546SOL    HW142000   3.271   3.045   4.127 -0.5880 -0.1526  3.2091
12546SOL    HW242001   3.234   3.191   4.116 -0.5846 -0.2345  1.9497
12547SOL     OW42002  10.564   3.981   6.696 -0.3520  0.0215  0.5297
12547SOL    HW142003  10.492   4.031   6.735 -0.2516  1.4703 -0.9799
12547SOL    HW242004  10.533   3.960   6.608  0.2760 -1.1609  0.5782
12548SOL     OW42005   5.779  10.451   1.319 -0.4096  0.1299 -0.2482
12548SOL    HW142006   5.824  10.415   1.395 -0.7805 -1.8808 -0.9242
12548SOL    HW242007   5.693  10.409   1.320 -0.9373  1.1422 -1.0098
12549SOL     OW42008  10.181   8.206   5.000 -0.3173 -0.0860  1.1821
12549SOL    HW142009  10.263   8.247   4.970  0.6290 -2.9885 -0.5474
12549SOL    HW242010  10.124   8.209   4.924  0.2701 -3.0257  0.5303
12550SOL     OW42011   8.225   3.152   8.791  0.0898 -0.0755 -0.0068
12550SOL    HW142012   8.302   3.191   8.752  0.8468  0.9265  2.3171
12550SOL    HW242013   8.160   3.149   8.720  0.6950  3.4169 -0.8687
12551SOL     OW42014  10.082   6.179   1.040 -0.3404 -0.4174 -0.3471
12551SOL    HW142015  10.134   6.164   0.961  1.7637  0.6346  0.7579
12551SOL    HW242016  10.122   6.121   1.106 -0.5486  0.4193  0.5327
12552SOL     OW42017   2.564   3.907   7.172  0.5280  0.2155  0.2306
12552SOL    HW142018   2.639   3.861   7.134 -0.5281 -0.4738 -1.0693
12552SOL    HW242019   2.604   3.974   7.228  2.1067 -0.4333 -0.0477
12553SOL     OW42020   6.980   0.441  11.065 -0.0634 -0.5360  0.0003
12553SOL    HW142021   6.939   0.513  11.017  2.7211  1.8679  0.9323
12553SOL    HW242022   6.934   0.439  11.149  0.2874  0.6776  0.2400
12554SOL     OW42023   4.533   8.201   1.364 -0.3027  0.3362 -0.3732
12554SOL    HW142024   4.485   8.252   1.430  0.2251  0.7230 -0.2806
12554SOL    HW242025   4.616   8.248   1.353  0.1917 -0.4978 -0.3020
12555SOL     OW42026   0.774   4.154   2.083 -0.4183  0.3526 -0.3713
12555SOL    HW142027   0.721   4.082   2.050 -0.5917  0.0597  0.4986
12555SOL    HW242028   0.714   4.206   2.137 -0.0320  0.4942 -0.0643
12556SOL     OW42029   4.692   0.906   5.989  0.2598  0.4743 -0.3835
12556SOL    HW142030   4.763   0.854   6.026  1.7043  1.0823 -2.1765
12556SOL    HW242031   4.724   0.997   5.994 -0.4459  0.7761 -1.0811
12557SOL     OW42032  10.517   2.734  11.091  0.0333 -0.1338 -0.5962
12557SOL    HW142033  10.574   2.697  11.025  2.2098  0.2205  0.9793
12557SOL    HW242034  10.537   2.827  11.091 -1.8562  0.3282 -1.1706
12558SOL     OW42035   6.131   0.058   8.717  0.1579  0.3450 -0.0206
12558SOL    HW142036   6.157   0.038   8.628  1.5138 -1.1989  0.6691
12558SOL    HW242037   6.175   0.140   8.737  0.9741 -0.0113 -0.3266
12559SOL     OW42038  10.121  10.918   9.289  0.1299  0.1177  0.1676
12559SOL    HW142039  10.176  10.847   9.256  0.0379  0.4293 -0.7035
12559SOL    HW242040  10.141  10.993   9.232  0.0023  0.7046  0.8717
12560SOL     OW42041   8.136   3.595   7.535 -0.2119 -0.2165 -0.2943
12560SOL    HW142042   8.083   3.589   7.456  0.8029  0.3363 -1.0349
12560SOL    HW242043   8.128   3.686   7.563  0.6477 -0.0301 -0.6332
12561SOL     OW42044   7.196   4.150   3.479  0.1487 -0.1540  0.0370
12561SOL    HW142045   7.139   4.152   3.403 -0.1500 -0.6641  0.2378
12561SOL    HW242046   7.139   4.123   3.551  0.4246  0.3372  0.4426
12562SOL     OW42047   4.201   4.714   0.688  0.6962 -0.3346 -0.8963
12562SOL    HW142048   4.292   4.687   0.699  0.3270 -0.6807  2.1613
12562SOL    HW242049   4.203   4.809   0.700  0.5801 -0.4317 -0.0707
12563SOL     OW42050   2.103   9.635   4.097 -0.2957  0.3922 -0.5900
12563SOL    HW142051   2.150   9.595   4.023 -0.1454 -0.0411 -0.2612
12563SOL    HW242052   2.155   9.612   4.174 -0.9218  0.1006 -0.2447
12564SOL     OW42053   2.652   6.864   1.681 -0.1676  0.6614  0.6571
12564SOL    HW142054   2.599   6.836   1.606  0.2614  1.3146  0.0903
12564SOL    HW242055   2.643   6.959   1.681 -1.0795  0.6000  2.1429
12565SOL     OW42056   6.053   9.111   7.043  0.1002 -0.2404 -0.1637
12565SOL    HW142057   6.120   9.099   7.109 -0.6819  0.1497  0.7219
12565SOL    HW242058   5.980   9.057   7.072 -0.2779 -0.0225 -0.6792
12566SOL     OW42059   9.886   5.715   6.537 -0.2911 -0.2586  0.0598
12566SOL    HW142060   9.846   5.656   6.472  0.1449 -1.5697  0.9372
12566SOL    HW242061   9.896   5.798   6.490 -2.4048 -0.3832 -0.7166
12567SOL     OW42062   5.210   7.099   5.521 -0.5436 -0.0819  0.5087
12567SOL    HW142063   5.173   7.169   5.467 -2.3930 -0.5302  1.1300
12567SOL    HW242064   5.300   7.091   5.490 -1.0637  0.7466 -1.4227
12568SOL     OW42065   4.484   2.379   8.391 -0.3347  0.5558 -0.6692
12568SOL    HW142066   4.570   2.416   8.408  0.0698  0.0422 -1.5129
12568SOL    HW242067   4.426   2.419   8.456  0.6281  0.5561  0.2024
12569SOL     OW42068   9.211   3.319  10.456 -0.1308 -0.3207  0.1347
12569SOL    HW142069   9.284   3.336  10.516 -0.4128 -0.3513  0.4937
12569SOL    HW242070   9.166   3.243  10.495  0.2184 -0.9225 -0.6085
12570SOL     OW42071   4.106   9.065   3.667 -0.0472  0.0943 -0.0395
12570SOL    HW142072   4.172   8.995   3.663 -0.8078 -0.7486  1.3350
12570SOL    HW242073   4.156   9.144   3.689  0.4020 -0.7938  2.4478
12571SOL     OW42074  10.497   3.114  10.204  0.0153 -0.5144 -0.2544
12571SOL    HW142075  10.437   3.057  10.156  0.5721 -0.0018 -1.6266
12571SOL    HW242076  10.479   3.202  10.169 -0.2505  0.0444  1.2178
12572SOL     OW42077   0.412   7.490   7.286  0.3077 -0.1549  0.3107
12572SOL    HW142078   0.355   7.538   7.347 -0.0066 -2.1047  1.6423
12572SOL    HW242079   0.458   7.427   7.341 -0.0109 -2.0240 -1.4541
12573SOL     OW42080   8.323   7.494   1.103 -0.1561  0.3339 -0.2984
12573SOL    HW142081   8.239   7.457   1.131 -0.1423  0.2567 -0.3543
12573SOL    HW242082   8.338   7.455   1.017  0.2152 -0.0990 -0.0373
12574SOL     OW42083   8.136   6.146   0.030  0.3450  0.2683  0.4964
12574SOL    HW142084   8.111   6.235   0.056 -1.2530  0.5766 -1.7566
12574SOL    HW242085   8.052   6.103   0.012  1.1771 -1.1127 -0.1602
12575SOL     OW42086   3.567   9.303   2.769  0.0052  0.2893  0.6689
12575SOL    HW142087   3.647   9.278   2.814 -0.6110 -1.6950  0.7521
12575SOL    HW242088   3.500   9.306   2.837 -0.2398  0.7811  0.4156
12576SOL     OW42089   6.251   7.599  10.061 -0.0271 -0.5839  0.6470
12576SOL    HW142090   6.341   7.627  10.049  0.0122 -1.3261 -1.1263
12576SOL    HW242091   6.207   7.623   9.980 -1.0488 -1.5974  0.8679
12577SOL     OW42092   5.697   9.603   2.354  0.7746 -0.3986 -0.7111
12577SOL    HW142093   5.712   9.546   2.430  0.0240 -1.0555 -1.0339
12577SOL    HW242094   5.732   9.688   2.380 -1.6260  0.0882  1.3853
12578SOL     OW42095  11.027   1.986   1.200  0.3102 -0.0186  0.2650
12578SOL    HW142096  10.986   2.013   1.118 -0.5816 -2.0208 -0.0150
12578SOL    HW242097  11.029   2.065   1.254 -0.4907  0.9762 -1.1224
12579SOL     OW42098   2.288   9.334  11.003  0.0554  0.3300  0.5797
12579SOL    HW142099   2.379   9.364  11.009  0.3893 -0.6588  0.7483
12579SOL    HW242100   2.263   9.351  10.912  0.3472  0.7829  0.5822
12580SOL     OW42101   4.419   6.999   9.702  0.5615  0.0640 -1.1314
12580SOL    HW142102   4.465   7.019   9.783 -0.8757  0.9206 -0.4792
12580SOL    HW242103   4.471   7.043   9.634  0.5443  1.3287 -0.3741
12581SOL     OW42104   7.883   6.840  10.002 -0.1982 -0.2787  0.2332
12581SOL    HW142105   7.800   6.867  10.042  0.5202  2.6774 -0.0465
12581SOL    HW242106   7.857   6.787   9.926 -1.8044  0.1529  0.4543
12582SOL     OW42107  10.461   1.689   0.282 -0.0585  0.0196  0.4039
12582SOL    HW142108  10.445   1.752   0.212  0.3014  0.4364  0.6994
12582SOL    HW242109  10.489   1.741   0.357 -1.2422 -0.3299  1.1276
12583SOL     OW42110   2.717   6.214   4.914  0.0409  0.3786  0.0118
12583SOL    HW142111   2.634   6.185   4.950  1.1638  0.5093  2.9954
12583SOL    HW242112   2.750   6.138   4.866  0.1123 -1.2551  2.4671
12584SOL     OW42113   8.982   4.977   5.470 -0.1540 -0.1105  0.4078
12584SOL    HW142114   9.023   4.950   5.388 -1.9494  0.3142 -0.6760
12584SOL    HW242115   8.948   4.895   5.507 -0.7620 -0.1012 -0.1087
12585SOL     OW42116   5.186   8.112   3.516  0.0927  0.0753 -0.4341
12585SOL    HW142117   5.168   8.087   3.425  1.5017 -1.1926 -0.3961
12585SOL    HW242118   5.267   8.066   3.538  0.5817  1.5249  0.9955
12586SOL     OW42119   4.922   3.254  10.031 -0.3140 -0.0844  0.1515
12586SOL    HW142120   4.887   3.196  10.098  0.3379 -1.0137 -0.2879
12586SOL    HW242121   4.913   3.205   9.949  2.7161 -0.7779  0.0920
12587SOL     OW42122   7.333   7.375   7.083 -0.2936 -0.2885 -0.5504
12587SOL    HW142123   7.427   7.389   7.067  0.4898 -1.8631  2.0082
12587SOL    HW242124   7.322   7.280   7.075 -1.5169 -0.2037 -0.0384
12588SOL     OW42125   9.403   5.083   3.694  0.4941  0.6504 -0.9151
12588SOL    HW142126   9.374   5.074   3.785  0.1993  2.2010 -0.8334
12588SOL    HW242127   9.497   5.099   3.700  0.4001  1.1754 -0.8639
12589SOL     OW42128   1.123   6.079   7.812 -0.3749  0.2409 -0.4426
12589SOL    HW142129   1.176   6.033   7.878  0.1635  0.6020 -0.6152
12589SOL    HW242130   1.103   6.012   7.747  1.2730  0.4601 -1.2211
12590SOL     OW42131   2.170   7.531   1.416 -0.1191  0.5722 -0.4162
12590SOL    HW142132   2.149   7.439   1.434 -0.5858  0.6331 -0.6199
12590SOL    HW242133   2.112   7.555   1.343 -0.4425  1.2010  0.0327
12591SOL     OW42134   3.943   3.497   5.185 -0.0613 -0.1426 -0.7094
12591SOL    HW142135   4.010   3.431   5.168  2.2186  0.5307  3.8540
12591SOL    HW242136   3.861   3.449   5.180  1.1620 -2.3211 -1.5742
12592SOL     OW42137   4.467   3.624   7.603  0.3106 -0.0469 -0.1563
12592SOL    HW142138   4.457   3.658   7.514 -2.4188  2.2467  0.8725
12592SOL    HW242139   4.393   3.564   7.614  0.2197  0.2248  0.7620
12593SOL     OW42140   2.431   8.263   5.969 -0.4506 -0.0215 -0.1178
12593SOL    HW142141   2.357   8.201   5.967 -0.2873 -0.2282 -2.4343
12593SOL    HW242142   2.504   8.214   5.932  0.3207  0.8260  0.2498
12594SOL     OW42143   3.121   6.340   7.591  0.5362 -0.7555 -0.0287
12594SOL    HW142144   3.076   6.414   7.630  0.8486 -0.4950 -0.1589
12594SOL    HW242145   3.071   6.319   7.512 -0.5590 -1.7850  0.9172
12595SOL     OW42146   5.548   2.891   7.009  0.0226 -0.9174 -0.0664
12595SOL    HW142147   5.553   2.939   7.091  2.5645 -1.9880  0.5187
12595SOL    HW242148   5.593   2.809   7.027 -1.1592 -2.0562 -1.9930
12596SOL     OW42149   9.229  11.072   2.108 -0.1531 -0.8129 -0.0610
12596SOL    HW142150   9.322  11.052   2.101 -0.1831 -0.7811 -0.6537
12596SOL    HW242151   9.222  11.132   2.182  0.4835  0.3017 -0.8850
12597SOL     OW42152   2.592   7.895   5.683  0.5818 -0.0316 -0.2896
12597SOL    HW142153   2.688   7.893   5.675  0.5707 -0.6584 -0.3361
12597SOL    HW242154   2.565   7.806   5.661 -0.0617  0.2916 -0.8179
12598SOL     OW42155   7.378   6.328   0.781  0.0898  0.7596  0.6579
12598SOL    HW142156   7.450   6.371   0.735  0.5550 -0.5264  0.1341
12598SOL    HW242157   7.345   6.264   0.719 -0.7698  0.5589  1.3085
12599SOL     OW42158   5.621   8.040   5.266  0.5068 -0.1271 -0.2629
12599SOL    HW142159   5.705   8.084   5.251  2.3261 -3.2562 -0.1687
12599SOL    HW242160   5.605   7.992   5.184 -1.6542  0.9821 -0.5645
12600SOL     OW42161   4.577   1.286  10.972  0.1242 -0.6619  0.2153
12600SOL    HW142162   4.609   1.375  10.979  0.0603 -0.6434  0.2756
12600SOL    HW242163   4.502   1.291  10.912  0.6509 -0.8153 -0.4586
12601SOL     OW42164   4.975   1.333   5.052 -0.2747 -0.1145 -0.7067
12601SOL    HW142165   5.059   1.308   5.090 -1.1094 -0.8282  0.7638
12601SOL    HW242166   4.950   1.259   4.997 -0.3883 -0.3313 -0.3668
12602SOL     OW42167   8.180   3.985   1.346  0.0447  0.3089 -0.0625
12602SOL    HW142168   8.144   3.944   1.424 -0.6375 -0.4872 -0.7807
12602SOL    HW242169   8.253   4.038   1.378 -0.2610  0.0405  1.1113
12603SOL     OW42170   2.702   5.255   0.503  0.1133 -0.2439 -0.6271
12603SOL    HW142171   2.644   5.327   0.528  0.0072 -1.1138  1.8197
12603SOL    HW242172   2.765   5.248   0.574  1.0877 -1.5865 -1.5725
12604SOL     OW42173   5.013   4.157   1.493  0.2143 -0.3848 -0.0378
12604SOL    HW142174   4.996   4.097   1.420 -2.2200 -0.2870  0.3631
12604SOL    HW242175   5.064   4.228   1.454 -1.1392 -0.2629 -1.7123
12605SOL     OW42176   5.801  10.073   7.166  0.1740  0.2849 -0.4161
12605SOL    HW142177   5.850  10.115   7.236 -2.7802 -1.4333  2.9984
12605SOL    HW242178   5.714  10.113   7.170 -0.2462 -0.2267 -2.8174
12606SOL     OW42179  10.375   3.097   1.839  0.2101  0.0021 -0.6175
12606SOL    HW142180  10.363   3.192   1.839 -0.4813 -0.0803 -0.5385
12606SOL    HW242181  10.323   3.066   1.765 -1.2243 -0.5079  0.5576
12607SOL     OW42182   6.147   0.174   5.626 -0.7948 -0.3157 -0.0449
12607SOL    HW142183   6.153   0.162   5.531 -0.4181  1.0879 -0.2211
12607SOL    HW242184   6.085   0.107   5.655 -0.4538 -1.1635 -1.1859
12608SOL     OW42185   2.557   8.197   3.564  0.0095  0.6130  0.7458
12608SOL    HW142186   2.615   8.122   3.554  1.9729  2.2188 -0.6564
12608SOL    HW242187   2.499   8.194   3.488 -1.2122 -0.4935  1.6835
12609SOL     OW42188   3.276   0.909   8.046 -0.1261  0.1733  0.5016
12609SOL    HW142189   3.202   0.957   8.010 -0.5790 -0.3377  0.7431
12609SOL    HW242190   3.237   0.841   8.100  0.5143 -0.2098  0.4941
12610SOL     OW42191   1.198   8.139  10.886  0.7489  0.2944  0.0291
12610SOL    HW142192   1.199   8.177  10.974 -0.8230  2.4335 -0.7743
12610SOL    HW242193   1.218   8.046  10.900  0.8862  0.6126  2.5780
12611SOL     OW42194   8.632  10.249   4.034  0.1514  0.4880 -0.7260
12611SOL    HW142195   8.590  10.304   3.969 -1.8680 -0.4424 -0.2869
12611SOL    HW242196   8.559  10.211   4.085  1.4333 -2.1194 -0.6452
12612SOL     OW42197   4.432  10.785   8.234  0.2103  0.1745 -0.5616
12612SOL    HW142198   4.343  10.751   8.223  0.0286  0.1602  0.7594
12612SOL    HW242199   4.430  10.872   8.195 -0.7017  0.6005  0.3913
12613SOL     OW42200   0.152   7.966   1.330  0.4765  0.4057  0.4737
12613SOL    HW142201   0.166   7.903   1.401  0.4007 -0.4987 -0.2999
12613SOL    HW242202   0.180   8.050   1.367  1.0527 -0.1582  1.3578
12614SOL     OW42203   1.025   4.141   2.853 -1.0552  0.3786 -0.1185
12614SOL    HW142204   0.971   4.063   2.867  0.7729 -0.8763  0.2999
12614SOL    HW242205   1.084   4.117   2.782  0.8453  0.5913  1.2999
12615SOL     OW42206   2.323  10.502  10.417 -0.8116  0.5795 -0.1463
12615SOL    HW142207   2.372  10.429  10.379 -0.5623  0.8748 -0.3958
12615SOL    HW242208   2.278  10.542  10.343 -2.2172 -0.2791  0.2163
12616SOL     OW42209   5.559   0.254   5.696 -0.1752 -0.2587 -0.3759
12616SOL    HW142210   5.608   0.173   5.679  0.7962 -0.2198  1.9197
12616SOL    HW242211   5.573   0.307   5.618  0.4140 -1.6875 -1.2931
12617SOL     OW42212   0.276   8.542   6.903 -0.0480 -0.5513 -0.0566
12617SOL    HW142213   0.195   8.585   6.876  0.1847  0.1634  0.3434
12617SOL    HW242214   0.300   8.486   6.830 -0.5277 -0.2224 -0.4714
12618SOL     OW42215   6.053   2.340   0.169  0.1722  0.6158 -0.1788
12618SOL    HW142216   6.016   2.259   0.205  0.1425  1.0739  0.8437
12618SOL    HW242217   6.056   2.325   0.075 -0.5268 -0.2888 -0.0669
12619SOL     OW42218   8.072  10.825   5.278  0.5508 -0.0672 -0.5373
12619SOL    HW142219   8.151  10.829   5.331  0.5833 -0.1953 -0.5768
12619SOL    HW242220   8.079  10.743   5.229  1.4140  0.9039 -2.1281
12620SOL     OW42221   5.912   6.832   2.795  0.2283 -0.4474 -0.0308
12620SOL    HW142222   5.821   6.853   2.777 -0.7417 -0.6804  3.6843
12620SOL    HW242223   5.919   6.738   2.777 -0.2769 -0.4261 -0.3370
12621SOL     OW42224  10.032   9.870   7.659 -0.0294 -0.1952 -0.1580
12621SOL    HW142225   9.993   9.860   7.746 -0.9884 -0.0965 -0.5568
12621SOL    HW242226   9.965   9.916   7.609 -0.0079 -1.3556 -1.2979
12622SOL     OW42227   9.482   8.044  10.440  0.4793 -0.5814 -0.0485
12622SOL    HW142228   9.501   8.132  10.472  1.7004 -0.5125 -0.8829
12622SOL    HW242229   9.405   8.055  10.385 -0.3490 -0.3387  1.1222
12623SOL     OW42230   6.756   3.468   6.818 -0.5144  0.4302  0.3248
12623SOL    HW142231   6.695   3.484   6.890  0.9310 -1.2724  2.0182
12623SOL    HW242232   6.838   3.508   6.847  0.1621 -0.5107 -0.2380
12624SOL     OW42233  10.806   9.457  10.910 -0.3671  0.3180  0.2817
12624SOL    HW142234  10.780   9.391  10.975  0.5179  0.3220  0.6608
12624SOL    HW242235  10.815   9.538  10.961  2.6777 -0.1545  0.7061
12625SOL     OW42236   6.006   8.191   2.457 -0.1689  0.1589 -0.0582
12625SOL    HW142237   5.969   8.218   2.541 -0.4735  1.3196 -0.5491
12625SOL    HW242238   5.950   8.232   2.391 -0.6019 -1.6230 -0.8722
12626SOL     OW42239   9.003  10.165   7.406 -0.3857  0.0356  0.0002
12626SOL    HW142240   9.029  10.257   7.413  0.0987 -0.1709  1.1190
12626SOL    HW242241   8.937  10.153   7.474  1.3599 -1.0243  1.5967
12627SOL     OW42242  10.689   4.598   2.314  0.1721 -0.4899  0.4649
12627SOL    HW142243  10.681   4.526   2.377  1.6662 -0.7731  0.3438
12627SOL    HW242244  10.598   4.623   2.296 -0.3813  0.8589  4.1615
12628SOL     OW42245   3.531   3.925   4.822  0.2542  0.1992 -0.1842
12628SOL    HW142246   3.472   3.858   4.856  1.3770 -1.1326 -0.7639
12628SOL    HW242247   3.526   3.996   4.886  0.3816 -1.1693  1.4088
12629SOL     OW42248   3.593   6.535   1.342  0.1458  0.4786 -0.2871
12629SOL    HW142249   3.678   6.520   1.384  0.0537 -0.8491 -0.5349
12629SOL    HW242250   3.530   6.489   1.397 -0.0863 -0.5361 -1.3638
12630SOL     OW42251   5.924   2.096   0.282  0.2646  0.2974  0.1151
12630SOL    HW142252   5.914   2.037   0.357 -0.9010  0.6928  0.2906
12630SOL    HW242253   5.851   2.074   0.224 -0.3355  1.7114  0.2879
12631SOL     OW42254   2.157   1.212   6.989 -0.5058  0.1955 -0.2360
12631SOL    HW142255   2.173   1.268   6.913  0.1698 -0.0244 -0.2607
12631SOL    HW242256   2.093   1.148   6.959 -0.6661  0.4518 -0.4474
12632SOL     OW42257   2.965   9.834   4.840  0.9531 -0.2394  0.6263
12632SOL    HW142258   3.036   9.827   4.776 -0.4940  0.6186 -1.1648
12632SOL    HW242259   2.941   9.927   4.840 -0.1282 -0.5019  1.2537
12633SOL     OW42260   8.149   4.844   6.112 -0.2654  0.1955 -0.2056
12633SOL    HW142261   8.141   4.855   6.207  1.3521 -0.2347  0.0165
12633SOL    HW242262   8.076   4.893   6.075  0.6891  2.7814  1.1430
12634SOL     OW42263   0.156   2.767   2.134  0.5533  0.2064  0.0910
12634SOL    HW142264   0.198   2.808   2.209 -3.6274 -1.9186  4.0495
12634SOL    HW242265   0.157   2.674   2.154  0.6011 -0.7158 -3.4397
12635SOL     OW42266   3.457   6.764   6.602 -0.0895  0.0490 -0.2543
12635SOL    HW142267   3.375   6.773   6.554 -0.5325 -0.3463  0.4086
12635SOL    HW242268   3.489   6.854   6.611 -0.6374  0.2430 -0.2094
12636SOL     OW42269   7.907   0.756   5.768 -0.6062  0.3403 -0.0792
12636SOL    HW142270   7.824   0.745   5.722  0.2969 -0.4802 -1.5818
12636SOL    HW242271   7.957   0.817   5.713 -0.5516  1.5998  1.3097
12637SOL     OW42272   0.906   8.168   1.049 -0.4241  0.0687  0.3907
12637SOL    HW142273   0.900   8.106   1.122 -1.8628  0.1268  0.3632
12637SOL    HW242274   0.822   8.214   1.051  0.3440  1.5284 -0.0345
12638SOL     OW42275   7.385   3.573   5.105 -0.2604  0.2204 -0.0125
12638SOL    HW142276   7.471   3.555   5.142 -0.6731  0.0737  0.8874
12638SOL    HW242277   7.396   3.657   5.059  1.1011 -1.1391 -2.3676
12639SOL     OW42278   1.725   4.494   3.204  0.4676  0.0757 -0.1621
12639SOL    HW142279   1.681   4.496   3.119 -1.7559  0.5508  0.9296
12639SOL    HW242280   1.683   4.563   3.255  1.7314 -0.2106  1.3548
12640SOL     OW42281   0.177   6.055   0.096 -0.2286  0.2336 -0.3298
12640SOL    HW142282   0.145   6.141   0.070 -0.9392  0.2237  0.4733
12640SOL    HW242283   0.156   5.998   0.022 -1.2634  0.4149 -0.1844
12641SOL     OW42284   4.920   3.490   8.049  0.2097  0.3549  0.2571
12641SOL    HW142285   5.014   3.475   8.049  0.5558  1.9285  3.2055
12641SOL    HW242286   4.884   3.416   8.097  0.2790  1.1587  1.5761
12642SOL     OW42287   0.839   3.731   7.393  0.1475 -0.2152 -0.3838
12642SOL    HW142288   0.808   3.789   7.323  0.6272  1.0690  0.4178
12642SOL    HW242289   0.923   3.768   7.419 -0.0360 -0.6257  0.8804
12643SOL     OW42290   5.482  10.462   1.080  0.1321 -0.4774  0.6427
12643SOL    HW142291   5.523  10.390   1.033 -1.9948 -2.0368  0.9972
12643SOL    HW242292   5.480  10.432   1.172 -0.4267  0.1747  0.8529
12644SOL     OW42293   7.995   6.988   4.320  0.4097  0.2937  0.1589
12644SOL    HW142294   7.931   6.967   4.388  1.8744 -0.8226  1.2484
12644SOL    HW242295   8.034   7.071   4.349 -0.8273  1.2492 -0.7705
12645SOL     OW42296   3.369   8.296   4.464  0.0989 -0.4450  0.0712
12645SOL    HW142297   3.300   8.316   4.400 -0.0877  0.0953  0.4324
12645SOL    HW242298   3.415   8.221   4.427 -0.2409 -0.3700 -0.5198
12646SOL     OW42299   7.567   2.062   1.632  0.2843  0.1266  0.2511
12646SOL    HW142300   7.642   2.047   1.690  1.4696  0.9889 -1.0008
12646SOL    HW242301   7.582   2.002   1.559 -0.4004  0.1225  0.1096
12647SOL     OW42302   7.365   7.566   8.175  0.2162 -0.1979 -0.3633
12647SOL    HW142303   7.316   7.484   8.175 -3.6297  1.8710  0.2768
12647SOL    HW242304   7.354   7.601   8.087  0.1124  0.5380 -0.0659
12648SOL     OW42305   5.383   5.851   4.165 -0.0675  0.0911 -0.2659
12648SOL    HW142306   5.413   5.900   4.242 -1.7665 -1.1060  1.2520
12648SOL    HW242307   5.447   5.780   4.156  0.6633  0.7717 -0.5562
12649SOL     OW42308   3.652   4.588   2.086 -0.3443 -1.1179  0.2498
12649SOL    HW142309   3.643   4.497   2.114  1.3822 -1.1135  0.9646
12649SOL    HW242310   3.663   4.637   2.168  0.2060 -0.4775 -0.1946
12650SOL     OW42311   9.350   4.911   0.938  1.1372  0.4465  0.5253
12650SOL    HW142312   9.395   4.883   0.858  1.8178  1.9180  0.3594
12650SOL    HW242313   9.319   4.829   0.978  2.6588 -0.4964 -0.1339
12651SOL     OW42314   4.203   8.156   3.583 -0.1423  0.1526  0.3055
12651SOL    HW142315   4.177   8.100   3.656  0.2602  0.1947  0.4843
12651SOL    HW242316   4.298   8.159   3.588 -0.1772  1.2027  0.5475
12652SOL     OW42317   1.925   8.482   1.034  0.2753 -0.6566 -0.2746
12652SOL    HW142318   1.894   8.550   1.094 -0.8430 -2.3537  1.1839
12652SOL    HW242319   1.922   8.523   0.948 -2.1411  0.5765  0.3165
12653SOL     OW42320  10.731   3.650   1.490  0.4870 -0.5798  0.0310
12653SOL    HW142321  10.771   3.686   1.411  0.0519 -1.8614 -0.8117
12653SOL    HW242322  10.702   3.726   1.540  2.4848  0.3164 -0.1098
12654SOL     OW42323   3.246   3.510   2.799 -0.6308  0.4090  0.1368
12654SOL    HW142324   3.235   3.492   2.892  1.7967  0.0912  0.4298
12654SOL    HW242325   3.340   3.525   2.788 -0.0345 -3.8418 -2.9525
12655SOL     OW42326   4.535   7.809  10.441 -0.1058  0.1138  0.3616
12655SOL    HW142327   4.577   7.835  10.522  2.1111  1.3361 -1.0933
12655SOL    HW242328   4.479   7.883  10.418 -1.5127 -0.6371  1.2063
12656SOL     OW42329   8.323   7.161  10.119  0.3917  0.0635 -0.4835
12656SOL    HW142330   8.270   7.156  10.039 -0.2828  0.4033 -0.0628
12656SOL    HW242331   8.266   7.128  10.188  0.2787  1.5809  0.1889
12657SOL     OW42332   9.279   3.835   7.321 -0.2510 -0.2462 -0.1711
12657SOL    HW142333   9.322   3.782   7.254 -0.9874  0.1437 -0.9723
12657SOL    HW242334   9.310   3.798   7.404  1.9407  0.2750 -0.6781
12658SOL     OW42335   1.398  10.901   3.113 -0.5705 -0.0112 -0.1445
12658SOL    HW142336   1.389  10.880   3.020  0.6762  2.3188 -0.8692
12658SOL    HW242337   1.316  10.947   3.135  0.4465  2.4778 -1.1045
12659SOL     OW42338   8.954   2.267  10.856 -0.1227  0.3309 -0.2571
12659SOL    HW142339   8.978   2.177  10.877  2.4275  0.4475 -2.1614
12659SOL    HW242340   9.004   2.320  10.918  0.6824  0.4661 -1.0029
12660SOL     OW42341  10.596   1.782   5.013  0.0464 -0.1390 -0.5372
12660SOL    HW142342  10.530   1.846   4.987  1.7546  1.5151 -1.0506
12660SOL    HW242343  10.610   1.798   5.107 -1.9366 -2.1563  0.1992
12661SOL     OW42344  10.356   8.480   9.317 -0.0957  0.1171  0.3916
12661SOL    HW142345  10.316   8.567   9.314 -0.8144 -0.2223  0.1799
12661SOL    HW242346  10.355   8.457   9.410 -0.9208 -0.1327  0.3259
12662SOL     OW42347   9.712   0.904  10.142  0.0238 -0.2963 -0.3005
12662SOL    HW142348   9.742   0.977  10.087  0.8753 -0.9249 -0.6892
12662SOL    HW242349   9.689   0.835  10.081  1.2557 -1.1093  0.1044
12663SOL     OW42350   9.438  10.963   6.132 -0.1397 -0.0648 -0.2947
12663SOL    HW142351   9.342  10.955   6.131 -0.0793 -0.8778 -0.0334
12663SOL    HW242352   9.462  10.970   6.040 -0.4670  0.3299 -0.3511
12664SOL     OW42353   5.481   3.907   8.106  0.1188 -0.6743 -0.7537
12664SOL    HW142354   5.499   3.961   8.183  0.6718 -2.3760  0.3706
12664SOL    HW242355   5.524   3.952   8.034  0.3990  0.4665  0.0957
12665SOL     OW42356   5.381  11.020   1.610 -0.0257 -0.4979  0.1420
12665SOL    HW142357   5.358  11.084   1.543  0.1065 -0.4101  0.1804
12665SOL    HW242358   5.300  11.005   1.658 -0.3921 -1.3494 -0.7016
12666SOL     OW42359   2.588   8.500   1.926 -0.3353  0.1989  0.4369
12666SOL    HW142360   2.570   8.581   1.878  2.0089  1.3208  1.3362
12666SOL    HW242361   2.506   8.450   1.919 -0.9197  1.3638 -2.5669
12667SOL     OW42362   1.995   1.497   4.468  0.2448 -0.7825 -0.1451
12667SOL    HW142363   1.999   1.409   4.432 -0.9731 -0.5269 -0.9861
12667SOL    HW242364   2.042   1.492   4.551  1.8617 -1.7448 -1.0867
12668SOL     OW42365   9.121   9.782   3.675  0.3298 -0.5076  0.5344
12668SOL    HW142366   9.053   9.716   3.664  0.6659 -0.9374  0.9493
12668SOL    HW242367   9.108   9.816   3.764  0.0875  0.0713  0.2826
12669SOL     OW42368   7.821   7.606   7.189  0.7477 -0.0712  0.2406
12669SOL    HW142369   7.884   7.622   7.259  2.2542 -3.2994 -0.1772
12669SOL    HW242370   7.840   7.673   7.124  1.8264  0.7346  1.3229
12670SOL     OW42371   2.556   4.175   4.517  0.2042 -0.1843  0.1896
12670SOL    HW142372   2.484   4.237   4.515  0.3084 -0.0623  0.1740
12670SOL    HW242373   2.628   4.223   4.558 -0.1169 -0.7271  1.4623
12671SOL     OW42374   8.450   5.631   8.964 -0.1855 -0.1766  0.6526
12671SOL    HW142375   8.481   5.716   8.994  1.0563 -0.4461  0.1819
12671SOL    HW242376   8.529   5.583   8.940 -0.8468 -1.5360  1.0667
12672SOL     OW42377   6.519   2.286   4.267  0.0954 -0.8246  0.2730
12672SOL    HW142378   6.518   2.302   4.362 -0.7120 -1.4210  0.3787
12672SOL    HW242379   6.547   2.195   4.259  0.0553 -0.8086 -0.0560
12673SOL     OW42380   3.474   5.258   6.991 -0.1763 -0.0106  0.1295
12673SOL    HW142381   3.448   5.315   6.919  1.6424  1.2206  0.3890
12673SOL    HW242382   3.511   5.181   6.948 -1.6543 -0.5752 -0.2133
12674SOL     OW42383   5.421   0.849   7.454 -0.0862  0.2754 -0.1801
12674SOL    HW142384   5.331   0.840   7.423 -0.5187  0.2891  1.0127
12674SOL    HW242385   5.454   0.759   7.459 -0.6362  0.1237  1.0444
12675SOL     OW42386   2.376   4.023   5.574 -0.0769 -0.1987  0.0962
12675SOL    HW142387   2.443   3.984   5.630 -0.0526 -1.1550 -0.5707
12675SOL    HW242388   2.296   4.021   5.627  0.4670  1.3337  1.0517
12676SOL     OW42389   9.475   2.228   8.433 -0.3109  0.2102 -0.3922
12676SOL    HW142390   9.553   2.261   8.476 -0.3799  0.3252 -0.3560
12676SOL    HW242391   9.444   2.157   8.489 -0.1515  0.0709 -0.4817
12677SOL     OW42392   1.022   7.657   5.411  0.1277  0.0365  0.7318
12677SOL    HW142393   1.025   7.565   5.386  0.7084  0.5918 -1.4787
12677SOL    HW242394   1.113   7.680   5.428  0.3304  0.7437 -1.0937
12678SOL     OW42395   6.791   5.167   8.404  0.0012 -0.0105 -0.0765
12678SOL    HW142396   6.749   5.107   8.343  1.4413 -0.5760 -0.5385
12678SOL    HW242397   6.732   5.242   8.407 -1.5104 -1.1439  0.0209
12679SOL     OW42398   1.072   1.301   9.947  0.1730  0.5957 -0.3420
12679SOL    HW142399   1.051   1.208   9.937 -1.8640  0.7366  1.8889
12679SOL    HW242400   1.168   1.302   9.957  0.0368 -1.8865  3.8737
12680SOL     OW42401   9.901  10.946   9.025 -0.8514  0.4260 -0.6066
12680SOL    HW142402   9.845  11.021   9.006 -1.5683  0.6824  2.1334
12680SOL    HW242403   9.971  10.981   9.081 -0.7502 -0.7755  0.0692
12681SOL     OW42404   9.748   0.048   9.297 -0.6564  0.2063 -0.3564
12681SOL    HW142405   9.818   0.077   9.356 -1.1880  0.0788  0.3554
12681SOL    HW242406   9.711  -0.029   9.340 -2.8087  1.6457  0.5509
12682SOL     OW42407   9.380   2.110   1.853  0.6246 -0.0497  0.3649
12682SOL    HW142408   9.344   2.171   1.918  0.6697  1.0992 -0.6673
12682SOL    HW242409   9.315   2.040   1.849  0.6456 -0.1761  1.6857
12683SOL     OW42410   8.827   5.807   6.391 -0.0194 -0.0651  0.1282
12683SOL    HW142411   8.837   5.731   6.333  1.8737 -0.1386  0.4787
12683SOL    HW242412   8.771   5.777   6.462  0.0491 -0.8933 -0.1608
12684SOL     OW42413  10.033   9.777   7.067 -0.1118 -0.3070 -0.4002
12684SOL    HW142414   9.983   9.708   7.111 -0.5255 -0.1707 -0.6589
12684SOL    HW242415  10.025   9.758   6.974  0.2543 -0.2389 -0.4487
12685SOL     OW42416   8.262   9.917   7.486  0.4079  0.4331 -0.0409
12685SOL    HW142417   8.264   9.890   7.394  0.5765 -1.5642  0.5098
12685SOL    HW242418   8.169   9.919   7.508  0.4043  0.0569 -0.0194
12686SOL     OW42419   1.402   5.032   7.120  0.5339  0.4461  0.0830
12686SOL    HW142420   1.425   4.946   7.155  0.2734 -0.1054 -1.0605
12686SOL    HW242421   1.354   5.075   7.191 -1.1012 -1.1361 -0.0078
12687SOL     OW42422   1.293   3.825   0.494  0.5380  0.0634  0.0873
12687SOL    HW142423   1.220   3.831   0.556  0.3429 -0.7746 -0.0410
12687SOL    HW242424   1.370   3.850   0.545  0.1564  1.0650  0.1952
12688SOL     OW42425   5.863   6.535   2.494 -0.0907  0.1915 -0.4742
12688SOL    HW142426   5.851   6.629   2.510 -1.8095 -0.3283  1.9536
12688SOL    HW242427   5.958   6.524   2.486  0.0543  2.3333 -2.6798
12689SOL     OW42428   5.937   3.535  10.968 -0.1669  0.2399 -0.1391
12689SOL    HW142429   5.937   3.501  10.879  1.8004  0.5421 -0.2937
12689SOL    HW242430   5.963   3.461  11.023  3.6650  1.1538 -0.4282
12690SOL     OW42431   0.736   0.074   5.754  0.1070 -0.3968  0.2506
12690SOL    HW142432   0.808   0.019   5.722  0.8873  0.6261  0.2006
12690SOL    HW242433   0.682   0.015   5.806 -0.0946 -1.6362 -1.2988
12691SOL     OW42434   5.544   3.734   2.873 -0.6691 -0.7147  0.0374
12691SOL    HW142435   5.560   3.818   2.916 -0.5348 -0.5772 -0.2742
12691SOL    HW242436   5.451   3.737   2.850 -0.8491 -0.9739  0.7044
12692SOL     OW42437   0.749   6.328   9.558 -0.1601 -0.4330 -0.3612
12692SOL    HW142438   0.818   6.299   9.617  0.6850  1.4304 -0.3798
12692SOL    HW242439   0.795   6.359   9.480 -0.9940  0.8137 -0.3823
12693SOL     OW42440   2.606   6.566  10.306 -0.1775  0.0728  0.3163
12693SOL    HW142441   2.532   6.512  10.278  0.4889 -0.9996  0.6025
12693SOL    HW242442   2.637   6.607  10.225 -0.1903 -0.5979 -0.0322
12694SOL     OW42443   8.129   2.457   8.507  0.3183  0.1704  0.4475
12694SOL    HW142444   8.153   2.500   8.425  1.1969  0.2042  0.7092
12694SOL    HW242445   8.213   2.440   8.551 -0.1950  2.5891  2.6094
12695SOL     OW42446   6.632   6.847   0.133 -0.1940 -0.3415  0.0460
12695SOL    HW142447   6.719   6.878   0.156 -0.4268  0.3609  0.0016
12695SOL    HW242448   6.614   6.887   0.048 -2.1849  2.9101  1.7870
12696SOL     OW42449   8.340   1.474   4.031  0.0023 -0.4064  0.3364
12696SOL    HW142450   8.257   1.477   3.984 -0.0990  0.4662  0.5661
12696SOL    HW242451   8.363   1.565   4.047 -0.5137 -0.6705  2.9590
12697SOL     OW42452  10.754   1.943   5.796 -0.3619 -0.3646 -1.0213
12697SOL    HW142453  10.670   1.982   5.818 -0.4861 -0.5507 -1.1641
12697SOL    HW242454  10.768   1.875   5.862  1.6919  2.4398  1.7275
12698SOL     OW42455   6.591   1.273   7.115 -0.1922  0.2875  0.2457
12698SOL    HW142456   6.682   1.248   7.128 -0.1743  0.7048  0.9828
12698SOL    HW242457   6.591   1.368   7.124 -0.6432  0.3286 -0.1417
12699SOL     OW42458   6.765   5.637   9.622  0.3826 -0.1155  0.7737
12699SOL    HW142459   6.749   5.700   9.552  1.2885  1.5739  2.0015
12699SOL    HW242460   6.679   5.604   9.645  0.0620 -0.6594 -1.0585
12700SOL     OW42461   4.389   5.181   0.357 -0.0772  0.1289 -0.0395
12700SOL    HW142462   4.450   5.107   0.353  2.3840  1.7654  2.8163
12700SOL    HW242463   4.419   5.241   0.289 -0.6892 -0.4773 -0.8719
12701SOL     OW42464   5.483   7.218   5.255 -0.0560  0.0920 -0.0655
12701SOL    HW142465   5.469   7.123   5.258  0.2854  0.0262 -0.5113
12701SOL    HW242466   5.434   7.247   5.179 -0.5501  0.3479  0.3413
12702SOL     OW42467   5.768   6.384   9.438 -0.5826  0.0490  0.0848
12702SOL    HW142468   5.762   6.379   9.533 -1.7712  1.0768  0.0872
12702SOL    HW242469   5.689   6.431   9.411  0.0820  0.3990 -1.3554
12703SOL     OW42470   5.589  10.391   3.587  0.0538 -0.4714  0.7561
12703SOL    HW142471   5.607  10.388   3.681  1.1140 -0.5756  0.5608
12703SOL    HW242472   5.636  10.469   3.556  0.4294 -0.9247  0.1703
12704SOL     OW42473   4.399   0.027   4.179 -0.0771  0.1977 -0.0642
12704SOL    HW142474   4.367   0.072   4.256 -1.0141 -0.0929 -0.2738
12704SOL    HW242475   4.404   0.094   4.111  1.7816  0.6963  0.4952
12705SOL     OW42476   9.732   1.078   4.581  0.0735 -0.4256  0.5931
12705SOL    HW142477   9.736   1.164   4.623  2.5332  0.7606 -1.8280
12705SOL    HW242478   9.711   1.018   4.653 -0.2786  1.9818  2.6371
12706SOL     OW42479   0.393   3.026   0.303 -0.3988 -0.2215  0.3691
12706SOL    HW142480   0.298   3.009   0.305 -0.8212  1.5769 -1.2856
12706SOL    HW242481   0.423   2.984   0.223  0.2646 -0.9708  1.0027
12707SOL     OW42482  10.075   8.402   8.522  0.3502  0.5773  0.1025
12707SOL    HW142483  10.063   8.495   8.539 -0.4762  0.1322  2.3899
12707SOL    HW242484   9.995   8.361   8.556  1.2826 -1.0731  0.4172
12708SOL     OW42485   3.740   0.525   1.727  0.6523  0.4427  0.1163
12708SOL    HW142486   3.728   0.614   1.757 -0.6688 -0.1360  1.4143
12708SOL    HW242487   3.740   0.472   1.807 -0.2398 -0.8801 -0.7197
12709SOL     OW42488   1.454   9.860   5.865 -0.2493 -0.2849  0.0194
12709SOL    HW142489   1.390   9.925   5.895  0.3893  1.1234 -1.5129
12709SOL    HW242490   1.403   9.802   5.808 -0.0064  1.6930 -2.3958
12710SOL     OW42491   5.480   8.705   7.309  0.1363 -0.3754  0.4364
12710SOL    HW142492   5.412   8.759   7.348  0.3809 -0.2329  0.6645
12710SOL    HW242493   5.453   8.615   7.329 -0.6712 -0.3849 -0.5966
12711SOL     OW42494   5.989   5.014  10.019 -0.0150  0.5385  0.4882
12711SOL    HW142495   5.922   5.077  10.047 -0.9664  0.0472 -0.5791
12711SOL    HW242496   5.943   4.955   9.959  1.4945  0.5007 -0.7023
12712SOL     OW42497   4.769   1.941   8.419  0.5769 -0.0847 -0.1589
12712SOL    HW142498   4.715   1.878   8.465 -0.7527  1.2359  0.1754
12712SOL    HW242499   4.744   1.932   8.327  1.0731 -0.6747 -0.2405
12713SOL     OW42500  10.336   0.254   6.114 -0.0322 -0.5775 -0.1488
12713SOL    HW142501  10.404   0.199   6.153  0.6533 -0.7822 -1.6006
12713SOL    HW242502  10.296   0.298   6.189  0.9769 -1.2581  0.8246
12714SOL     OW42503   7.821   4.079   4.375 -0.2765  0.2423  0.4842
12714SOL    HW142504   7.850   4.160   4.334 -2.4430  1.9121  2.0230
12714SOL    HW242505   7.860   4.082   4.463 -1.8395  0.5847  1.1914
12715SOL     OW42506   9.462   2.146   3.825  0.9210 -0.0326  0.3163
12715SOL    HW142507   9.548   2.181   3.802 -0.2687  2.1222 -1.2484
12715SOL    HW242508   9.401   2.217   3.806 -1.4774 -2.2123 -0.7568
12716SOL     OW42509   2.825   1.448   9.228 -0.0942  0.3092  0.8012
12716SOL    HW142510   2.816   1.430   9.135  0.1646 -2.0649  1.1671
12716SOL    HW242511   2.839   1.542   9.234 -3.7648  1.1249 -1.2542
12717SOL     OW42512   0.207   3.857   6.074  0.3085  0.5166 -0.4631
12717SOL    HW142513   0.210   3.777   6.126 -2.2819  0.8314  0.3000
12717SOL    HW242514   0.297   3.891   6.078  1.1334 -1.5809  0.3586
12718SOL     OW42515   4.348   3.348   4.160  0.0795 -0.7609  0.0209
12718SOL    HW142516   4.395   3.382   4.236 -1.1427  0.2858  0.3262
12718SOL    HW242517   4.289   3.281   4.195  1.1552 -1.9426 -0.3394
12719SOL     OW42518   5.476   7.318   7.699 -0.1196 -0.2495 -0.3649
12719SOL    HW142519   5.560   7.317   7.745 -0.0021  0.2915 -0.5564
12719SOL    HW242520   5.414   7.349   7.764 -0.8671 -3.8409  0.8633
12720SOL     OW42521   6.944   3.874   6.309 -0.3054 -0.3214  0.1357
12720SOL    HW142522   7.009   3.903   6.373 -0.7786 -0.9832  0.9372
12720SOL    HW242523   6.883   3.821   6.360 -1.2982  0.0352 -0.6683
12721SOL     OW42524   3.562   0.407   1.990 -0.0960 -0.1685 -0.4338
12721SOL    HW142525   3.544   0.327   2.039  0.4702 -0.9194 -1.4080
12721SOL    HW242526   3.607   0.463   2.052 -1.7360 -0.0267  0.6846
12722SOL     OW42527   8.922   4.183   0.901 -0.3815  0.3023  0.2880
12722SOL    HW142528   8.914   4.104   0.847 -2.3797  0.4960  0.2237
12722SOL    HW242529   8.937   4.150   0.990  2.7474 -0.0232 -0.2485
12723SOL     OW42530   8.636   0.769   6.049  0.1593  0.0303  0.4845
12723SOL    HW142531   8.600   0.857   6.046  0.6705  0.2180 -1.2012
12723SOL    HW242532   8.560   0.711   6.049 -0.1989  0.4303  2.3773
12724SOL     OW42533   7.690   2.172   2.648 -0.8858 -0.4800 -0.3422
12724SOL    HW142534   7.673   2.080   2.669  0.6378 -0.5363  0.8449
12724SOL    HW242535   7.639   2.221   2.714 -1.3075 -0.4755 -0.6669
12725SOL     OW42536   9.712   3.454   3.786  0.3280  0.3247 -0.1074
12725SOL    HW142537   9.805   3.446   3.810 -0.0333 -4.1484  0.6573
12725SOL    HW242538   9.714   3.462   3.690  1.4484  1.7049 -0.0136
12726SOL     OW42539   9.488   3.374   5.977  0.4253  0.8690 -0.1381
12726SOL    HW142540   9.481   3.310   5.906 -0.6503 -0.1508  0.8600
12726SOL    HW242541   9.531   3.327   6.048  0.9761  1.7123  0.1047
12727SOL     OW42542   0.261   9.494   2.001 -0.1624  0.1568  0.2130
12727SOL    HW142543   0.230   9.584   1.994 -0.9891 -0.1164  0.1995
12727SOL    HW242544   0.279   9.482   2.094 -0.8454  0.0922  0.3434
12728SOL     OW42545   9.867   2.060   7.472  0.4620  0.1088  0.4470
12728SOL    HW142546   9.910   2.143   7.490  0.7125 -0.0824  0.7334
12728SOL    HW242547   9.867   2.013   7.556 -0.0598 -0.0047  0.3896
12729SOL     OW42548   3.762   8.205   7.815  0.0511  0.3033  0.4459
12729SOL    HW142549   3.843   8.197   7.865  0.4256 -2.5001 -0.4387
12729SOL    HW242550   3.742   8.298   7.817  2.7015  0.9417  1.6075
12730SOL     OW42551   0.105   3.334   0.966  0.3897 -0.1909  0.0701
12730SOL    HW142552   0.184   3.317   0.915  2.0083  0.7021  2.1099
12730SOL    HW242553   0.066   3.248   0.979 -0.6084 -0.3756 -3.2868
12731SOL     OW42554   1.595   3.474   2.762  0.0541  0.2645  0.3391
12731SOL    HW142555   1.682   3.438   2.780 -0.2160  0.1830  1.5325
12731SOL    HW242556   1.549   3.403   2.717  0.9586  0.7104 -1.3868
12732SOL     OW42557   0.790   1.002   3.697 -0.5058  0.8582 -0.2800
12732SOL    HW142558   0.799   0.974   3.788  1.6235 -1.4863 -1.0994
12732SOL    HW242559   0.722   0.945   3.660  1.4684 -1.1530 -1.0808
12733SOL     OW42560   0.816   1.329   3.480 -0.0117  0.1926  0.1570
12733SOL    HW142561   0.893   1.281   3.510  0.8889  1.2557 -0.4236
12733SOL    HW242562   0.787   1.281   3.402 -0.2245 -0.4687  0.6291
12734SOL     OW42563  10.730   0.831   4.491 -0.1063 -0.1553  0.0439
12734SOL    HW142564  10.731   0.823   4.396 -1.3317 -1.2497  0.0945
12734SOL    HW242565  10.821   0.816   4.518  0.7885  2.6065 -1.0716
12735SOL     OW42566   3.018   6.538   0.892 -0.1292  0.3662  0.3618
12735SOL    HW142567   3.045   6.569   0.979  1.5168  0.6567 -0.2158
12735SOL    HW242568   3.100   6.532   0.843 -0.5881 -2.9183 -0.2216
12736SOL     OW42569   2.512   6.370  10.689 -0.5805 -0.2533 -0.1149
12736SOL    HW142570   2.426   6.406  10.710 -0.6967 -0.7722  0.3146
12736SOL    HW242571   2.569   6.447  10.683 -0.9448  0.0481  0.2025
12737SOL     OW42572   0.213   3.696   2.295  0.6278  0.1258 -0.6605
12737SOL    HW142573   0.184   3.776   2.339  0.9002  1.3385 -2.5587
12737SOL    HW242574   0.133   3.645   2.283  0.1147  1.0078 -1.1342
12738SOL     OW42575  11.031   9.810   8.122 -0.1444 -0.0440 -0.7913
12738SOL    HW142576  11.011   9.767   8.039 -0.4629  0.0920 -0.7884
12738SOL    HW242577  11.111   9.860   8.104  0.2405 -0.6498 -0.7861
12739SOL     OW42578   3.578   5.298   1.186  0.1720 -0.0776  0.3033
12739SOL    HW142579   3.553   5.311   1.095  0.6346  0.3163  0.2302
12739SOL    HW242580   3.662   5.343   1.195 -1.2570  2.6085  1.6586
12740SOL     OW42581   8.499   3.171   7.342  0.7934  0.3067  0.1419
12740SOL    HW142582   8.571   3.176   7.279  1.5770 -1.1148  0.8867
12740SOL    HW242583   8.420   3.177   7.289  1.4456  0.2326 -0.8572
12741SOL     OW42584   6.551   8.511   8.162  0.4849  0.5440 -0.2430
12741SOL    HW142585   6.635   8.482   8.125 -0.0546 -1.0627 -0.2850
12741SOL    HW242586   6.561   8.606   8.172  1.7290  0.6183 -1.7307
12742SOL     OW42587   9.027   5.731   9.409 -0.1873 -0.0319 -0.0450
12742SOL    HW142588   8.964   5.802   9.417 -0.8014 -0.6475  0.6610
12742SOL    HW242589   8.979   5.660   9.367  0.1698 -0.3371  0.0515
12743SOL     OW42590   2.891   9.522  10.348 -0.0042  0.5351  0.0982
12743SOL    HW142591   2.815   9.469  10.324 -0.8477  1.0821  1.4182
12743SOL    HW242592   2.930   9.476  10.423  0.9510  0.2896 -0.5340
12744SOL     OW42593   4.983   6.077   1.715 -0.4783 -0.6669 -0.0468
12744SOL    HW142594   4.931   6.078   1.796 -1.3824 -2.8445 -0.5078
12744SOL    HW242595   5.009   5.985   1.705  2.4221  0.1233 -0.5459
12745SOL     OW42596   2.817   2.537   9.502 -0.1636  0.2074  0.2650
12745SOL    HW142597   2.814   2.539   9.598  2.0071 -2.3128  0.4743
12745SOL    HW242598   2.910   2.534   9.481 -0.6238 -1.7716 -1.8121
12746SOL     OW42599   3.335   5.490   5.540  0.2765  0.0173 -0.0770
12746SOL    HW142600   3.422   5.477   5.576  0.3009  1.7347  0.5668
12746SOL    HW242601   3.349   5.546   5.464 -0.2175 -0.2335 -0.3605
12747SOL     OW42602   8.099   6.181   1.836  0.3504 -0.1868  0.1561
12747SOL    HW142603   8.092   6.090   1.807  0.8299  0.1099 -0.9419
12747SOL    HW242604   8.167   6.180   1.903  1.2023 -0.4600 -0.6886
12748SOL     OW42605   1.440  10.422   2.456 -0.0207  0.3983  0.5003
12748SOL    HW142606   1.366  10.367   2.482 -0.6971  0.9284 -0.2407
12748SOL    HW242607   1.419  10.450   2.367  1.3324  0.1384  0.0780
12749SOL     OW42608   6.753   2.132   1.199  0.2773  0.1653  0.2107
12749SOL    HW142609   6.789   2.053   1.238 -1.5150 -0.5527  0.4964
12749SOL    HW242610   6.680   2.102   1.146 -1.3648  1.7215  1.4528
12750SOL     OW42611  10.800   1.866   8.118 -0.0253  0.2215  0.2718
12750SOL    HW142612  10.849   1.897   8.043  1.3181  0.2191  1.1187
12750SOL    HW242613  10.832   1.919   8.192 -2.2625  1.1688  0.6500
12751SOL     OW42614   7.121  10.772   8.846  0.6832  0.1631  0.1955
12751SOL    HW142615   7.121  10.690   8.896 -2.4909 -0.1742 -0.1432
12751SOL    HW242616   7.163  10.835   8.904  1.6169 -1.3173  1.1894
12752SOL     OW42617   3.357   9.275   4.023 -0.3441 -0.4034 -0.3373
12752SOL    HW142618   3.429   9.242   4.076 -0.6981 -0.5644  0.0540
12752SOL    HW242619   3.278   9.239   4.064 -0.5390 -2.4465 -2.2712
12753SOL     OW42620   9.946   6.188   8.878  0.0498 -0.0568  0.9323
12753SOL    HW142621   9.909   6.229   8.799  2.3431  0.6616  0.1328
12753SOL    HW242622   9.926   6.249   8.948 -1.8528 -0.6054  0.9009
12754SOL     OW42623   8.174   3.531   7.129  0.0696  0.1812  0.1096
12754SOL    HW142624   8.134   3.582   7.199 -2.0817 -0.6608 -0.4339
12754SOL    HW242625   8.207   3.597   7.068  2.1284  0.9353  1.8925
12755SOL     OW42626  10.067   1.125   7.430  0.0214 -0.4084 -0.2081
12755SOL    HW142627  10.093   1.039   7.462  0.9907 -0.4989 -1.2035
12755SOL    HW242628   9.998   1.107   7.366  0.5448 -0.4797 -0.7531
12756SOL     OW42629   2.462   0.298   3.759  0.2769 -0.0638 -0.0855
12756SOL    HW142630   2.542   0.278   3.711  0.0935 -2.2285  0.3955
12756SOL    HW242631   2.493   0.327   3.845  0.5800 -0.8296  0.0786
12757SOL     OW42632   3.739   2.644   5.840 -0.0826  0.6472 -0.8631
12757SOL    HW142633   3.711   2.595   5.763  1.7906  0.9924 -1.8322
12757SOL    HW242634   3.795   2.714   5.805  3.7284 -1.2299  0.9135
12758SOL     OW42635   0.986   3.395   6.147  0.0168 -0.1030  0.1873
12758SOL    HW142636   0.916   3.334   6.169  1.2639 -1.7320 -0.0892
12758SOL    HW242637   0.969   3.472   6.200 -1.3103 -0.9288  1.0160
12759SOL     OW42638   7.577   5.757   9.827  0.3390  0.2507  0.0668
12759SOL    HW142639   7.550   5.806   9.749  1.7472  0.2451 -0.4428
12759SOL    HW242640   7.552   5.813   9.901  0.2806  0.9021 -0.4437
12760SOL     OW42641  10.558   9.397   8.185  0.2971  0.1598  0.4736
12760SOL    HW142642  10.592   9.370   8.270 -0.5707  1.1023  1.1464
12760SOL    HW242643  10.635   9.424   8.136  1.3206 -3.7774 -0.4290
12761SOL     OW42644   4.770   9.454   2.526 -0.0227  0.0784 -0.1072
12761SOL    HW142645   4.708   9.384   2.548 -2.2361  2.1999  0.8418
12761SOL    HW242646   4.781   9.502   2.608  3.4669 -0.5550 -0.0772
12762SOL     OW42647   3.582   5.082   6.369  0.2020  0.1949 -0.3365
12762SOL    HW142648   3.531   5.143   6.317 -1.6309 -0.7534  0.2725
12762SOL    HW242649   3.554   4.995   6.339  0.6423 -0.3517  0.7749
12763SOL     OW42650   9.285   3.424   6.164 -0.0430 -0.2829 -0.1910
12763SOL    HW142651   9.335   3.370   6.103 -0.1474 -0.8172  0.1838
12763SOL    HW242652   9.194   3.417   6.134  0.0178  0.1586 -0.4854
12764SOL     OW42653   9.493   4.564   1.073 -0.3291  0.0576 -0.4292
12764SOL    HW142654   9.582   4.599   1.074  0.1521 -1.1375  0.3551
12764SOL    HW242655   9.484   4.524   0.987  0.0864 -0.2746 -0.3235
12765SOL     OW42656   0.003   0.874   2.860  0.2014  0.1141 -0.0686
12765SOL    HW142657   0.053   0.924   2.924  0.3620 -0.3096  0.1410
12765SOL    HW242658   0.070   0.838   2.801  0.1712 -0.6109  0.3227
12766SOL     OW42659   0.638  10.644   9.794 -0.1201  0.2888  0.2590
12766SOL    HW142660   0.629  10.573   9.730 -0.9905  1.9383 -1.5558
12766SOL    HW242661   0.548  10.670   9.814  0.1812  0.7645  1.0302
12767SOL     OW42662   9.419  10.061   3.523 -0.1245 -0.6134 -0.6809
12767SOL    HW142663   9.337  10.105   3.498  0.3112  0.9621  0.4913
12767SOL    HW242664   9.391   9.981   3.568 -1.0660  0.2194  0.2776
12768SOL     OW42665   7.821   8.970   1.078 -0.1462 -0.1184  0.0645
12768SOL    HW142666   7.766   9.047   1.064 -1.9544 -1.4380 -0.6180
12768SOL    HW242667   7.864   8.956   0.994 -0.5668 -0.3773 -0.1134
12769SOL     OW42668   4.113   6.271   4.922  0.4989  0.4836 -0.0405
12769SOL    HW142669   4.171   6.207   4.880  0.6971  1.3111 -1.0690
12769SOL    HW242670   4.026   6.232   4.917  0.7053  0.0250 -0.0974
12770SOL     OW42671   5.766  10.306   2.542 -0.1856 -0.0368 -0.5010
12770SOL    HW142672   5.732  10.396   2.548  0.1005  0.0311  0.1261
12770SOL    HW242673   5.857  10.316   2.515  0.4102 -0.0259  1.3799
12771SOL     OW42674   8.230   0.381   4.410  0.0292  0.2709  0.8107
12771SOL    HW142675   8.166   0.403   4.477 -1.7876 -1.9474 -0.0776
12771SOL    HW242676   8.216   0.446   4.341 -0.7560  0.2637  0.9590
12772SOL     OW42677   8.953   9.667   8.209 -0.0383  0.3088  0.2022
12772SOL    HW142678   9.026   9.608   8.190  0.1349  0.6972 -0.3560
12772SOL    HW242679   8.885   9.610   8.245  0.3801 -0.1215  0.3196
12773SOL     OW42680   9.869   8.268   8.615 -0.4609 -0.3956 -0.1503
12773SOL    HW142681   9.782   8.294   8.647  0.4595  1.1587  1.2572
12773SOL    HW242682   9.918   8.245   8.694  0.7075 -0.2685 -0.8123
12774SOL     OW42683   7.991   5.498   4.133 -0.3065 -0.2190  0.3183
12774SOL    HW142684   8.013   5.473   4.043  0.3605 -0.6809  0.6003
12774SOL    HW242685   7.914   5.555   4.124  1.4379  2.1128 -0.7785
12775SOL     OW42686   6.797   9.465   0.031 -0.2560  0.0911  0.1454
12775SOL    HW142687   6.816   9.539   0.088 -2.2254 -0.2200  1.3151
12775SOL    HW242688   6.824   9.388   0.081  1.6802 -0.0408 -1.0169
12776SOL     OW42689   6.312   5.886   0.078  0.2176  0.1934  0.2473
12776SOL    HW142690   6.274   5.974   0.090 -1.1696 -0.5257  1.5383
12776SOL    HW242691   6.238   5.832   0.051  1.1658 -0.4907 -1.0557
12777SOL     OW42692   9.787   7.544   0.254  0.3514 -0.1008  0.4492
12777SOL    HW142693   9.741   7.513   0.332  0.2639  0.3394  0.5739
12777SOL    HW242694   9.831   7.624   0.283  0.4325 -0.0124  0.0822
12778SOL     OW42695   8.903   4.074  10.119 -0.2745 -0.0609 -0.5644
12778SOL    HW142696   8.994   4.059  10.147  0.3571  0.6463 -2.1130
12778SOL    HW242697   8.911   4.131  10.043 -1.9456 -1.2587 -1.6991
12779SOL     OW42698   5.594   3.354   2.345 -0.5171 -0.2615  0.1342
12779SOL    HW142699   5.602   3.329   2.253  0.1146 -0.5838  0.2765
12779SOL    HW242700   5.502   3.380   2.354 -0.1620  1.5980 -1.0252
12780SOL     OW42701   0.910   3.895  10.869 -0.2061  0.4219  0.4986
12780SOL    HW142702   0.952   3.896  10.955  0.6343  0.9938  0.0998
12780SOL    HW242703   0.966   3.839  10.816 -0.7130  0.0823  0.3220
12781SOL     OW42704   4.329   6.017   1.406  0.0153 -0.2535  0.8916
12781SOL    HW142705   4.303   5.935   1.447  1.4323 -1.3033 -0.1857
12781SOL    HW242706   4.274   6.023   1.328  0.5682 -0.6966  0.4577
12782SOL     OW42707  10.685  10.766   1.414  0.1269 -0.7440 -0.5382
12782SOL    HW142708  10.748  10.770   1.342  2.0121 -1.7105  0.9513
12782SOL    HW242709  10.685  10.675   1.442  1.1797 -0.0604  2.0534
12783SOL     OW42710   0.045   7.932   3.436 -0.1819 -0.1372 -0.2064
12783SOL    HW142711  -0.048   7.918   3.419 -0.5922  0.1217  1.5750
12783SOL    HW242712   0.053   8.026   3.452  0.5165 -0.0535 -0.9926
12784SOL     OW42713   3.537   7.481   4.097  0.0895 -0.5994  0.4789
12784SOL    HW142714   3.493   7.524   4.170  0.5841  1.2183 -0.2285
12784SOL    HW242715   3.467   7.460   4.036 -0.1091 -0.2599  0.5871
12785SOL     OW42716   4.739   7.901   3.491  0.0515 -0.7407  0.0931
12785SOL    HW142717   4.775   7.928   3.407 -0.6319  1.3074  0.3992
12785SOL    HW242718   4.664   7.846   3.469  0.5209 -1.1089 -0.6103
12786SOL     OW42719   6.701   9.407   9.808 -0.3018  0.3506 -0.1548
12786SOL    HW142720   6.697   9.408   9.713  0.3187 -1.9360 -0.2467
12786SOL    HW242721   6.771   9.468   9.830  2.2802 -1.9766 -1.4168
12787SOL     OW42722   3.574   8.960  10.911 -0.1494 -0.1441  0.7488
12787SOL    HW142723   3.512   8.998  10.848 -0.2167 -0.7348  0.4558
12787SOL    HW242724   3.620   9.036  10.947 -0.5810  0.2512  0.4826
12788SOL     OW42725   1.763   8.064  10.849 -0.0576  0.6778  0.4625
12788SOL    HW142726   1.761   8.133  10.782  1.2027  0.2964  0.0043
12788SOL    HW242727   1.852   8.069  10.885  1.8123 -3.5492 -2.6910
12789SOL     OW42728   0.820   8.164   3.134  0.1687  0.0014  0.0579
12789SOL    HW142729   0.888   8.135   3.195 -0.1390  0.2258  0.5219
12789SOL    HW242730   0.845   8.254   3.111 -0.1030  0.1801  0.4374
12790SOL     OW42731   7.367  10.629   7.797 -0.1605  0.2370 -0.7247
12790SOL    HW142732   7.352  10.573   7.721  3.0401 -0.7385 -0.8005
12790SOL    HW242733   7.377  10.568   7.870  1.1070  0.8333 -0.3764
12791SOL     OW42734   5.485   4.718   2.246  0.3051  0.0741  0.0668
12791SOL    HW142735   5.434   4.725   2.165 -0.0985 -1.5854  0.1565
12791SOL    HW242736   5.420   4.705   2.314  0.7903 -1.2952  0.2880
12792SOL     OW42737   0.368   5.451   4.075  0.3835 -0.3850  0.3366
12792SOL    HW142738   0.440   5.402   4.035  0.6237 -0.0530  0.3558
12792SOL    HW242739   0.321   5.489   4.000  0.7201  0.0792  0.3579
12793SOL     OW42740   9.693   3.192   8.113 -0.0156 -0.1347  0.4447
12793SOL    HW142741   9.786   3.180   8.093  0.2481  2.6427 -0.4508
12793SOL    HW242742   9.664   3.107   8.145  2.2332 -1.7669 -1.5391
12794SOL     OW42743   0.626   4.993   4.211 -0.2097 -0.1778 -0.2865
12794SOL    HW142744   0.691   4.992   4.281 -1.5703 -1.3833  1.0239
12794SOL    HW242745   0.676   5.015   4.132  2.1598 -2.8175  0.3104
12795SOL     OW42746   7.549   8.563   8.836 -0.3884 -0.5567  0.1610
12795SOL    HW142747   7.491   8.570   8.760 -1.2362 -0.3313  0.8146
12795SOL    HW242748   7.495   8.524   8.904  0.5489 -1.3499  0.4727
12796SOL     OW42749  10.814   4.024   5.259 -0.2585 -0.4307  0.9731
12796SOL    HW142750  10.751   4.000   5.327 -0.2683 -1.3730  0.6452
12796SOL    HW242751  10.895   3.981   5.286 -0.3841 -1.2111  0.1470
12797SOL     OW42752  10.999   2.411   6.512  0.3190 -0.3374  0.1224
12797SOL    HW142753  11.030   2.340   6.455  1.2246  0.7875 -0.8387
12797SOL    HW242754  10.907   2.392   6.527  0.7696 -2.2635  0.7361
12798SOL     OW42755   1.963   6.296   3.577 -0.0540  0.5719 -0.7757
12798SOL    HW142756   1.963   6.379   3.530 -0.3930  1.5594  0.8925
12798SOL    HW242757   1.946   6.230   3.509  1.4930  1.6966 -2.3342
12799SOL     OW42758   6.053   5.506   1.878 -0.5948  0.3270  0.2397
12799SOL    HW142759   6.095   5.420   1.874  1.3272  1.2304  0.1174
12799SOL    HW242760   6.036   5.519   1.971 -0.1361  0.1572  0.3511
12800SOL     OW42761  10.089   8.768  10.242 -0.7118 -0.0137 -0.0142
12800SOL    HW142762  10.136   8.807  10.168  1.0506 -0.8398  0.6321
12800SOL    HW242763  10.076   8.676  10.215 -1.3126  0.0279  0.1282
12801SOL     OW42764   4.603   3.789   5.010 -0.0470  0.1897  0.1719
12801SOL    HW142765   4.640   3.759   5.093  0.9919 -0.4788 -0.5011
12801SOL    HW242766   4.605   3.711   4.954  2.6305  1.4120 -1.6195
12802SOL     OW42767   7.798   5.480   3.053  0.2859  0.6048  0.6941
12802SOL    HW142768   7.861   5.419   3.014 -0.5174 -0.1294  0.4957
12802SOL    HW242769   7.764   5.433   3.129 -1.1887  0.2800 -0.1109
12803SOL     OW42770   1.646   4.731   3.321  0.1015 -0.4207 -0.2082
12803SOL    HW142771   1.553   4.717   3.303 -0.2212 -0.5809  1.4861
12803SOL    HW242772   1.649   4.771   3.408  1.5774  0.4907 -0.6320
12804SOL     OW42773   6.495   0.473   3.322  0.0821  0.0844 -0.4649
12804SOL    HW142774   6.408   0.512   3.313 -0.2889 -0.9974 -2.0924
12804SOL    HW242775   6.543   0.535   3.377 -0.4657  2.8862 -2.8174
12805SOL     OW42776   1.096   5.270   0.228 -0.0974  0.6034 -0.2076
12805SOL    HW142777   1.134   5.192   0.189  0.8688  0.4895  0.9013
12805SOL    HW242778   1.149   5.286   0.307 -0.3202  2.3161 -0.3599
12806SOL     OW42779   9.665   2.617  10.298 -0.0668 -0.2744  0.0570
12806SOL    HW142780   9.588   2.606  10.242 -0.6205 -1.0305  0.9300
12806SOL    HW242781   9.734   2.646  10.238 -0.7067 -0.7786 -0.9700
12807SOL     OW42782   8.258   1.134   6.717  0.1656 -0.9654 -0.5047
12807SOL    HW142783   8.313   1.057   6.701  1.7412 -0.3364  1.4660
12807SOL    HW242784   8.315   1.194   6.764 -1.2441  1.1586 -1.3678
12808SOL     OW42785   9.535  10.509   2.589 -0.5460 -0.2829 -0.0460
12808SOL    HW142786   9.579  10.425   2.590 -2.1920 -1.2722  3.0937
12808SOL    HW242787   9.457  10.495   2.535 -1.7358 -1.4238  1.8542
12809SOL     OW42788   0.626   7.816   1.332 -0.5010 -0.4487 -0.0886
12809SOL    HW142789   0.547   7.850   1.374 -0.4397  0.1096 -0.4164
12809SOL    HW242790   0.594   7.768   1.256 -0.7082 -2.5433  1.2362
12810SOL     OW42791   4.969   5.156   4.597  0.3616 -0.5799 -0.6807
12810SOL    HW142792   4.999   5.245   4.617 -1.3577 -0.0615 -0.2403
12810SOL    HW242793   4.977   5.149   4.502  0.9375 -0.1322 -0.6741
12811SOL     OW42794  10.331   3.408   0.225 -0.1685 -0.0325  0.2271
12811SOL    HW142795  10.262   3.380   0.166 -0.1756  1.9757 -0.8200
12811SOL    HW242796  10.409   3.359   0.197 -0.6478 -0.6293 -0.0747
12812SOL     OW42797   7.728   7.579   8.944  0.1816 -0.0320  0.0029
12812SOL    HW142798   7.715   7.649   8.880 -1.7901  1.3337  1.7422
12812SOL    HW242799   7.651   7.524   8.934 -0.1877  0.2381  1.1884
12813SOL     OW42800   1.885   1.074   5.329  0.0591 -0.0448  0.3943
12813SOL    HW142801   1.881   1.013   5.403  0.3046 -0.4162  0.1100
12813SOL    HW242802   1.864   1.159   5.366  0.2212 -0.2223  0.9004
12814SOL     OW42803   5.235  10.772   9.388 -0.2134 -0.2630 -0.1806
12814SOL    HW142804   5.159  10.713   9.388  0.4031 -1.0830  1.0887
12814SOL    HW242805   5.216  10.834   9.317 -1.7395 -0.8655 -0.3449
12815SOL     OW42806   4.917   8.521   1.517 -0.7044  0.5010 -0.5319
12815SOL    HW142807   4.926   8.544   1.610  1.7120  1.0227 -0.8319
12815SOL    HW242808   4.902   8.605   1.473  0.7735  0.6056 -0.8656
12816SOL     OW42809   0.820   2.094   4.873 -0.1800 -0.2030  0.2389
12816SOL    HW142810   0.829   2.032   4.946 -1.6448 -1.7239 -0.7864
12816SOL    HW242811   0.823   2.039   4.795 -0.4213  1.1685 -0.7712
12817SOL     OW42812   2.115   5.781   3.883  0.1425 -0.5237  0.3544
12817SOL    HW142813   2.168   5.720   3.934 -0.2633 -0.8469  0.3985
12817SOL    HW242814   2.178   5.832   3.832  0.7142  1.1326  2.5748
12818SOL     OW42815   8.770   2.813   5.494 -0.4230  0.4002 -0.2518
12818SOL    HW142816   8.692   2.757   5.486  0.9741 -1.9247  1.1542
12818SOL    HW242817   8.763   2.851   5.582 -0.0940  0.3707 -0.2121
12819SOL     OW42818   0.063   9.804   3.785 -0.4475  0.2423  0.2349
12819SOL    HW142819   0.038   9.714   3.762 -0.7350  0.5968 -0.8841
12819SOL    HW242820   0.157   9.799   3.801  0.1028  0.2054 -2.4814
12820SOL     OW42821   5.437   8.461   8.763 -0.4005  1.0825  0.0426
12820SOL    HW142822   5.353   8.456   8.717  1.0460  4.0105 -3.3753
12820SOL    HW242823   5.431   8.540   8.817 -0.2635  0.5656  0.8312
12821SOL     OW42824   7.135   1.798   4.377 -0.8452  0.0796 -0.2738
12821SOL    HW142825   7.179   1.714   4.389 -0.3975  0.3746  0.2065
12821SOL    HW242826   7.068   1.800   4.444 -0.2839  0.4674  0.2912
12822SOL     OW42827   5.890  10.197   7.687 -0.1630  0.3235  0.0682
12822SOL    HW142828   5.930  10.194   7.774 -1.5072 -0.2523  0.6948
12822SOL    HW242829   5.879  10.106   7.662 -0.7605  0.4751 -0.2380
12823SOL     OW42830   7.001   6.837   7.997  0.2042 -0.0100  0.4223
12823SOL    HW142831   6.956   6.917   8.027  0.0609  0.2553 -0.4875
12823SOL    HW242832   7.091   6.849   8.026 -0.1109 -0.1591  1.5175
12824SOL     OW42833   8.849   8.142   8.777 -0.4662  0.0095 -0.1550
12824SOL    HW142834   8.817   8.053   8.760 -3.1221  0.8357  0.1126
12824SOL    HW242835   8.896   8.166   8.697 -1.3349 -0.9724 -0.9952
12825SOL     OW42836   2.597   6.649   4.893  0.4859 -0.6308  0.7083
12825SOL    HW142837   2.590   6.744   4.907  0.0219 -0.9003  2.5845
12825SOL    HW242838   2.556   6.611   4.970 -3.1031 -2.4174 -1.8331
12826SOL     OW42839  10.862   3.150   2.233  0.4836  0.0431 -0.3878
12826SOL    HW142840  10.939   3.115   2.279 -0.1932 -0.1592  0.5956
12826SOL    HW242841  10.813   3.199   2.299  0.9761  2.2487 -1.5369
12827SOL     OW42842   3.281   6.407   2.445  0.1797 -0.1646 -0.0039
12827SOL    HW142843   3.235   6.448   2.371  2.1792  1.4610 -0.4489
12827SOL    HW242844   3.222   6.419   2.520 -0.6251  0.7937 -0.7675
12828SOL     OW42845   5.933   5.091   0.194  0.1722 -0.3015  0.2481
12828SOL    HW142846   6.013   5.142   0.208  1.8812 -2.0373 -2.1439
12828SOL    HW242847   5.917   5.097   0.100 -1.7096 -1.1610  0.4648
12829SOL     OW42848   4.267   5.619   1.126  0.2356  0.0442  0.7682
12829SOL    HW142849   4.256   5.574   1.042  2.9876  0.5150  0.0507
12829SOL    HW242850   4.337   5.570   1.170 -1.2960 -0.3234  2.9438
12830SOL     OW42851   6.712  10.344   9.665 -0.5211 -0.1123  0.4081
12830SOL    HW142852   6.682  10.254   9.679 -0.4040 -0.1817  0.2146
12830SOL    HW242853   6.668  10.372   9.584 -0.2190 -0.1462  0.2313
12831SOL     OW42854   7.908   8.110   9.505  0.1875 -0.4607  0.2019
12831SOL    HW142855   7.890   8.017   9.496  1.8465 -0.6888 -1.2904
12831SOL    HW242856   7.928   8.139   9.416 -0.7146  1.4318  0.5677
12832SOL     OW42857   8.240   1.395  10.952 -0.0143 -0.2616  0.3446
12832SOL    HW142858   8.173   1.341  10.991 -0.6187  1.7791  2.3632
12832SOL    HW242859   8.315   1.337  10.939 -1.0569 -1.8243  1.1639
12833SOL     OW42860   0.860   7.505   1.956  0.2703 -0.2015  0.0227
12833SOL    HW142861   0.815   7.588   1.941  0.6580 -0.2035 -1.2744
12833SOL    HW242862   0.792   7.447   1.990 -0.4402  0.1300 -0.7845
12834SOL     OW42863   0.434   8.616  10.957 -0.3485 -0.7291 -0.2359
12834SOL    HW142864   0.418   8.631  10.864  0.0411  1.5174  0.0071
12834SOL    HW242865   0.521   8.577  10.961 -0.0772 -0.1833 -0.7670
12835SOL     OW42866   0.846   1.200   2.898 -0.1543  0.5170 -0.3394
12835SOL    HW142867   0.851   1.238   2.985  0.5394  1.2400 -0.6838
12835SOL    HW242868   0.932   1.161   2.883 -0.3700  0.1206 -0.5832
12836SOL     OW42869  10.750   6.365   8.290 -0.2905  0.1100 -0.1395
12836SOL    HW142870  10.724   6.337   8.202  0.0331 -1.0659  0.1282
12836SOL    HW242871  10.667   6.386   8.333 -0.4054  5.8152 -2.2208
12837SOL     OW42872   6.352   3.695   7.622 -0.2155  0.1573 -0.0588
12837SOL    HW142873   6.327   3.705   7.530 -0.6435  1.2573  0.1603
12837SOL    HW242874   6.269   3.690   7.669  0.0021 -1.0306  0.2185
12838SOL     OW42875   8.191   2.536   8.798  0.0449  0.7745  0.3397
12838SOL    HW142876   8.275   2.503   8.765  0.3442  0.6428  1.2084
12838SOL    HW242877   8.164   2.601   8.733  0.7430  0.7111 -0.0276
12839SOL     OW42878   8.687   3.876   1.949 -0.1061 -0.1768  0.1912
12839SOL    HW142879   8.643   3.791   1.947  1.4921 -1.0338 -0.9127
12839SOL    HW242880   8.779   3.855   1.934  0.2712  1.7825 -0.5098
12840SOL     OW42881   9.793   6.121   2.738  0.1930 -0.2859  0.1141
12840SOL    HW142882   9.835   6.041   2.769  0.2608 -0.3154 -0.0543
12840SOL    HW242883   9.746   6.154   2.814  0.9957  0.0643  0.4698
12841SOL     OW42884   1.194   9.898   8.558  0.2720  0.0285  0.1797
12841SOL    HW142885   1.143   9.931   8.484  0.8411  1.9821  0.6027
12841SOL    HW242886   1.172   9.956   8.631 -1.0779 -2.4446  1.9350
12842SOL     OW42887   6.708   5.696   5.849 -0.3316  0.0733  0.1724
12842SOL    HW142888   6.670   5.716   5.934 -1.4448 -2.0087  0.2437
12842SOL    HW242889   6.796   5.663   5.869 -0.3812  0.1188  0.4749
12843SOL     OW42890   8.219   1.295   6.493 -0.0950  0.0517  0.4034
12843SOL    HW142891   8.216   1.226   6.427  3.5958  1.4105 -1.4781
12843SOL    HW242892   8.229   1.249   6.577 -0.4903 -1.6844 -0.4709
12844SOL     OW42893   7.317   8.182   6.645 -0.6637  0.3893  0.3630
12844SOL    HW142894   7.281   8.203   6.731  0.0376 -0.5244  0.9051
12844SOL    HW242895   7.268   8.105   6.616  2.5794 -2.7772  2.4304
12845SOL     OW42896   9.749   5.404   9.434  0.0626 -0.0027 -0.0702
12845SOL    HW142897   9.732   5.427   9.343  0.1660  1.2084  0.1929
12845SOL    HW242898   9.838   5.370   9.435  2.2578  4.8705  0.2449
12846SOL     OW42899   7.893  11.079   7.864 -0.2020 -0.0271  0.6516
12846SOL    HW142900   7.854  10.995   7.840 -1.2631  0.2004  1.4971
12846SOL    HW242901   7.911  11.072   7.957  2.1646 -0.2343  0.2382
12847SOL     OW42902  11.011   9.470   0.630 -0.6862  0.5738  0.2192
12847SOL    HW142903  10.953   9.418   0.575 -0.3534 -0.0078  0.4125
12847SOL    HW242904  11.019   9.420   0.711 -1.2404  1.4631  0.8361
12848SOL     OW42905  10.432  10.201   0.080 -0.0708 -0.2781 -0.4521
12848SOL    HW142906  10.475  10.280   0.047 -0.1436 -0.2625 -0.5089
12848SOL    HW242907  10.475  10.185   0.164 -0.4660  0.1606 -0.1630
12849SOL     OW42908   6.419   9.130   4.502 -0.1321  0.2880  0.3303
12849SOL    HW142909   6.424   9.045   4.459 -1.5586  0.4127 -0.1554
12849SOL    HW242910   6.385   9.110   4.590  0.9153  0.2228  0.7261
12850SOL     OW42911   0.776   7.107   5.274 -1.0052  0.0036 -0.4366
12850SOL    HW142912   0.704   7.050   5.302 -1.1196 -0.6143 -1.9054
12850SOL    HW242913   0.826   7.124   5.354 -2.5244  0.0923  0.5407
12851SOL     OW42914   9.062   5.381   4.206 -0.4997 -0.5621 -0.0572
12851SOL    HW142915   9.156   5.362   4.205 -0.6253 -1.2139 -0.2941
12851SOL    HW242916   9.021   5.296   4.189 -1.1252 -0.2422 -0.1614
12852SOL     OW42917  10.293  10.527   7.801  0.1291  0.1330  0.1320
12852SOL    HW142918  10.238  10.561   7.872  1.4858  2.1281  0.3202
12852SOL    HW242919  10.233  10.517   7.727 -0.9104  0.0193  0.9613
12853SOL     OW42920  10.534   1.467   5.126 -0.6171  0.6782 -0.7600
12853SOL    HW142921  10.512   1.384   5.168 -0.2548  1.2911  0.7079
12853SOL    HW242922  10.602   1.445   5.062 -0.8620 -0.2105 -0.7250
12854SOL     OW42923   7.843  10.928   5.455  0.4030  0.3760 -0.2035
12854SOL    HW142924   7.887  10.975   5.384 -0.8650  1.4074 -0.3352
12854SOL    HW242925   7.914  10.901   5.513  1.2608  1.5583 -0.6527
12855SOL     OW42926   2.840   3.992   3.729 -0.4682  0.0649 -0.6129
12855SOL    HW142927   2.897   4.052   3.680  0.8596 -0.4672  0.2442
12855SOL    HW242928   2.892   3.965   3.804 -1.4899 -1.2309 -0.3355
12856SOL     OW42929   5.463   2.037   5.417  0.5897 -0.2815  0.2999
12856SOL    HW142930   5.505   2.110   5.372 -1.2829  0.7717  0.1664
12856SOL    HW242931   5.514   1.961   5.391  1.0021  0.6183 -1.7339
12857SOL     OW42932   6.788   1.452   4.984  0.0168 -0.0683  0.3108
12857SOL    HW142933   6.785   1.458   5.079 -0.4308  1.4623  0.2249
12857SOL    HW242934   6.697   1.443   4.957 -0.0248  1.1086 -0.0243
12858SOL     OW42935   0.062   2.547   6.314 -0.7329  0.2978 -0.3467
12858SOL    HW142936   0.050   2.463   6.358  0.9744  0.5131  0.6386
12858SOL    HW242937   0.004   2.607   6.359 -0.8495 -0.0361 -0.0493
12859SOL     OW42938  10.764   6.021   7.883  0.5632 -0.1447 -0.2665
12859SOL    HW142939  10.745   5.997   7.974  0.8660  0.2340 -0.1009
12859SOL    HW242940  10.683   6.061   7.851  0.5142 -0.1198 -0.1105
12860SOL     OW42941   7.056   6.763   7.050 -0.8888  0.0773  0.4445
12860SOL    HW142942   6.995   6.707   7.003 -0.2980  1.2464 -1.8790
12860SOL    HW242943   7.122   6.702   7.085 -0.0245 -0.7388 -2.3601
12861SOL     OW42944   4.099   1.650   8.435  0.2008 -0.0850 -0.3695
12861SOL    HW142945   4.104   1.558   8.461  1.2206  0.1329  0.2554
12861SOL    HW242946   4.104   1.649   8.340  0.3492 -0.6650 -0.3588
12862SOL     OW42947   8.752  10.569   5.034  0.3809  0.1738 -0.0586
12862SOL    HW142948   8.774  10.661   5.051 -2.3526  0.5820  1.8787
12862SOL    HW242949   8.735  10.566   4.940 -0.3828  1.8785 -0.0129
12863SOL     OW42950   3.549   0.135   9.416  0.2968  0.1000 -0.2365
12863SOL    HW142951   3.479   0.097   9.469  1.5054 -1.9184  0.0372
12863SOL    HW242952   3.518   0.223   9.394 -2.0398 -0.5119  0.3348
12864SOL     OW42953   3.585  10.882   6.912  0.2171  0.3635  0.0246
12864SOL    HW142954   3.552  10.971   6.918  0.5257  0.3694  2.1535
12864SOL    HW242955   3.507  10.827   6.920  0.3437  0.4266  2.2217
12865SOL     OW42956   2.307   5.911   6.566  0.6347  0.0499 -0.2351
12865SOL    HW142957   2.284   5.896   6.658  1.6963  0.1778  0.0619
12865SOL    HW242958   2.370   5.842   6.545  0.2108 -0.1317 -0.9505
12866SOL     OW42959   1.258   9.470   9.604  0.7654 -0.4201 -0.1967
12866SOL    HW142960   1.234   9.553   9.564  0.5962  0.2558  1.2551
12866SOL    HW242961   1.279   9.492   9.695 -1.5673 -2.2731  0.9021
12867SOL     OW42962   1.923   4.483   2.143 -0.4235 -0.5150 -0.0389
12867SOL    HW142963   1.850   4.422   2.137 -1.0357  0.0953  0.9825
12867SOL    HW242964   1.970   4.457   2.223  0.5482 -0.9631 -0.7308
12868SOL     OW42965   6.164   0.396   7.791 -0.2756 -0.4369  0.3021
12868SOL    HW142966   6.164   0.444   7.875 -2.1930  1.2678 -0.5790
12868SOL    HW242967   6.241   0.428   7.746 -0.6452  0.6439  0.3993
12869SOL     OW42968   8.381   5.843   7.854  0.3482 -0.6984  1.1137
12869SOL    HW142969   8.300   5.806   7.889  0.1114 -1.5663 -0.2617
12869SOL    HW242970   8.411   5.778   7.790  0.7920  0.7573 -0.2138
12870SOL     OW42971   8.420   3.066   3.195 -0.0236  0.4549  0.2681
12870SOL    HW142972   8.477   3.121   3.248 -0.1302  0.9866 -0.1604
12870SOL    HW242973   8.384   3.125   3.128 -1.5230  0.2596  0.8610
12871SOL     OW42974   1.934  10.452   4.369 -0.5727  0.0448 -0.3661
12871SOL    HW142975   1.973  10.452   4.281 -0.7581 -1.1425 -0.4706
12871SOL    HW242976   1.948  10.363   4.401 -1.2367  0.2315  0.4834
12872SOL     OW42977   4.344   2.373   3.667 -0.1989 -0.0686 -0.1001
12872SOL    HW142978   4.413   2.422   3.712 -0.7415  0.3143  0.3270
12872SOL    HW242979   4.343   2.288   3.711 -0.3043  0.0873  0.2063
12873SOL     OW42980   7.932  10.945   3.271  0.4650 -0.3278 -0.1147
12873SOL    HW142981   7.885  10.873   3.228  2.1469 -1.5591 -0.0003
12873SOL    HW242982   7.993  10.975   3.204 -0.4419  1.2680 -0.2706
12874SOL     OW42983   9.743   3.137   3.707 -0.9311 -0.3213  0.2668
12874SOL    HW142984   9.720   3.070   3.642  0.0833 -0.5964  0.1776
12874SOL    HW242985   9.788   3.204   3.657 -0.8850 -0.1355  0.5556
12875SOL     OW42986   7.506   0.022   3.575  0.1309 -0.4753 -0.0384
12875SOL    HW142987   7.596  -0.005   3.556  0.0722  0.5487 -2.0006
12875SOL    HW242988   7.508   0.117   3.569 -1.0600 -0.4352  0.0243
12876SOL     OW42989   7.470   3.805  10.214  0.4843  0.0901  0.7619
12876SOL    HW142990   7.447   3.808  10.307  0.3901 -0.5663  0.7628
12876SOL    HW242991   7.429   3.884  10.177 -0.6215 -0.3297  1.0335
12877SOL     OW42992   2.641   0.478   6.337  0.7228 -0.2275  0.5309
12877SOL    HW142993   2.618   0.388   6.314 -0.7191  0.3570 -0.5453
12877SOL    HW242994   2.576   0.504   6.403 -1.0525  1.0036 -1.5308
12878SOL     OW42995   1.763   3.687   0.196  0.3271  0.2070 -0.4773
12878SOL    HW142996   1.776   3.597   0.169  1.6675  0.7777 -1.8821
12878SOL    HW242997   1.772   3.686   0.292 -0.4436 -1.2245 -0.4002
12879SOL     OW42998   3.496   6.996   4.258  0.3788  0.2398  0.1451
12879SOL    HW142999   3.458   7.035   4.179 -0.9317  0.8097  1.0147
12879SOL    HW243000   3.591   7.001   4.244  0.1718  0.0925 -1.4882
12880SOL     OW43001   5.077   9.763   4.019 -0.3829  0.1691 -0.4474
12880SOL    HW143002   5.105   9.842   4.065 -1.4389  0.6821 -0.6510
12880SOL    HW243003   5.150   9.702   4.030  0.1410  0.9081  0.3440
12881SOL     OW43004   5.999   7.354   7.863  0.0171  0.2969 -0.3496
12881SOL    HW143005   6.074   7.412   7.876  0.5275 -0.1185 -1.3822
12881SOL    HW243006   6.037   7.272   7.831 -0.6915 -0.6094  1.0135
12882SOL     OW43007   1.663   5.171   1.332 -0.1723 -0.4845 -0.7135
12882SOL    HW143008   1.684   5.123   1.252  0.3061 -0.6056 -0.5159
12882SOL    HW243009   1.744   5.215   1.356  0.3235 -2.1301  0.8804
12883SOL     OW43010   4.453   8.676   0.392  0.3896  0.4506  0.1397
12883SOL    HW143011   4.506   8.607   0.430  1.4633  0.2932 -1.5644
12883SOL    HW243012   4.502   8.706   0.316 -2.5186 -0.6462 -2.4003
12884SOL     OW43013   7.802   0.884   9.173  0.6498 -0.4254 -0.2030
12884SOL    HW143014   7.810   0.796   9.211 -0.2017 -0.9971 -1.2625
12884SOL    HW243015   7.763   0.937   9.242  1.1933 -0.8797  0.4569
12885SOL     OW43016   5.401   9.293   5.407 -0.7950 -0.5347  0.0560
12885SOL    HW143017   5.417   9.374   5.360  1.6642 -1.1722 -0.3487
12885SOL    HW243018   5.481   9.242   5.396 -1.0050 -1.7243  2.9474
12886SOL     OW43019   3.716   5.002   8.030 -0.0116 -0.3275  0.1114
12886SOL    HW143020   3.695   4.938   8.098 -0.6164 -0.2866 -0.0283
12886SOL    HW243021   3.678   5.084   8.062  0.9684  0.0269  0.4053
12887SOL     OW43022   7.485   1.266   3.570 -0.0842 -0.4262  0.6749
12887SOL    HW143023   7.514   1.176   3.557 -1.8019 -1.0254  0.7000
12887SOL    HW243024   7.458   1.269   3.662  0.2769  0.2291  0.7680
12888SOL     OW43025   5.234   8.358   6.031  0.9399 -0.8099 -0.2087
12888SOL    HW143026   5.180   8.280   6.047  1.4797 -1.2450 -0.4598
12888SOL    HW243027   5.267   8.383   6.117  1.0222 -1.0505 -0.1699
12889SOL     OW43028   3.148   1.259   8.281  0.4637 -0.7950  0.1779
12889SOL    HW143029   3.096   1.244   8.202  0.0701 -2.7445  0.7354
12889SOL    HW243030   3.121   1.345   8.312 -0.5364 -0.6753 -0.9634
12890SOL     OW43031   6.337   9.937   3.376  0.0426  0.6992 -0.3036
12890SOL    HW143032   6.402  10.006   3.358  0.7674  0.0978 -0.0469
12890SOL    HW243033   6.357   9.908   3.465 -0.4968  0.4143 -0.2733
12891SOL     OW43034   9.391   1.939   4.239  0.2535  0.2125  0.1605
12891SOL    HW143035   9.394   1.868   4.175 -0.5717  0.0976  0.2337
12891SOL    HW243036   9.347   1.900   4.315 -0.4266  0.8553  0.1129
12892SOL     OW43037   9.511   0.810   0.190 -0.3010 -0.1707  0.0990
12892SOL    HW143038   9.595   0.855   0.198  0.4597 -1.4758 -0.3610
12892SOL    HW243039   9.454   0.874   0.148  0.8700  0.2347 -0.9210
12893SOL     OW43040   0.748   3.546   6.446  0.4389  0.4877 -0.6309
12893SOL    HW143041   0.690   3.471   6.436 -0.1169  0.4488  2.1177
12893SOL    HW243042   0.794   3.553   6.362  0.8909 -3.2477 -0.8470
12894SOL     OW43043   1.713   9.031   1.096 -0.1154 -0.7529  0.3906
12894SOL    HW143044   1.798   8.990   1.080  0.3701 -0.3933  1.8714
12894SOL    HW243045   1.699   9.089   1.021  1.9892  0.8521  1.1583
12895SOL     OW43046   5.220   6.204   1.556  0.7308  0.2800  0.0203
12895SOL    HW143047   5.141   6.200   1.609  0.6141 -1.5412 -0.2309
12895SOL    HW243048   5.213   6.286   1.507 -2.0259 -0.7961 -1.5526
12896SOL     OW43049   2.736   9.023   0.671  0.5094 -0.4625 -0.3605
12896SOL    HW143050   2.825   9.057   0.661  0.6260 -0.0709  1.6220
12896SOL    HW243051   2.738   8.938   0.626  1.5576  0.0075 -1.2689
12897SOL     OW43052   2.701   8.090   0.785 -0.0775  0.0077 -0.4710
12897SOL    HW143053   2.701   8.008   0.835 -3.0093  0.5398  0.5555
12897SOL    HW243054   2.744   8.153   0.842 -1.2943  0.0513  0.4361
12898SOL     OW43055   7.538   2.601   2.033 -0.7109  0.8364 -0.0281
12898SOL    HW143056   7.578   2.654   1.964 -1.3950  2.3699  0.6921
12898SOL    HW243057   7.549   2.654   2.112  1.2949 -1.4626  1.3877
12899SOL     OW43058   7.747   1.015  10.958 -0.2347 -0.3082  0.0819
12899SOL    HW143059   7.740   0.922  10.979  2.3454 -0.8437 -1.0522
12899SOL    HW243060   7.834   1.040  10.990 -0.2885  1.3307 -0.9619
12900SOL     OW43061   1.510   4.437   7.025 -0.3605 -0.4221 -0.9666
12900SOL    HW143062   1.457   4.516   7.029  0.1693  0.0614 -2.7482
12900SOL    HW243063   1.449   4.366   7.041 -0.3994  0.3385  3.7455
12901SOL     OW43064   9.651   8.155   9.316 -0.1000 -1.0103 -0.8719
12901SOL    HW143065   9.624   8.100   9.390  2.5070 -1.4143 -0.1359
12901SOL    HW243066   9.578   8.149   9.254 -1.4578 -2.3350  0.7669
12902SOL     OW43067   9.302   0.841   8.683 -0.2785 -0.2132 -0.5601
12902SOL    HW143068   9.354   0.761   8.680 -0.9736 -0.6930  0.0110
12902SOL    HW243069   9.211   0.811   8.679 -0.5519  0.5364 -0.1209
12903SOL     OW43070   8.750   8.892   1.724 -0.0077  0.0033  0.2176
12903SOL    HW143071   8.701   8.851   1.796 -1.9720 -0.7139 -1.4407
12903SOL    HW243072   8.741   8.986   1.740  1.4621 -0.1161  2.0712
12904SOL     OW43073   1.291   6.041   3.438 -0.3055 -0.1066 -0.3465
12904SOL    HW143074   1.254   6.121   3.403 -1.0057  0.1884  1.0240
12904SOL    HW243075   1.372   6.028   3.388  1.2227  2.8822  1.1011
12905SOL     OW43076   8.607   8.120   0.665 -0.0400  0.3618 -0.2408
12905SOL    HW143077   8.631   8.028   0.649 -2.4485 -0.4355  0.2996
12905SOL    HW243078   8.611   8.129   0.760  1.7420  1.3380 -0.3697
12906SOL     OW43079   2.812   1.359   4.079  0.5098  0.4004 -0.3640
12906SOL    HW143080   2.798   1.453   4.090  0.3535  0.3102  0.2617
12906SOL    HW243081   2.866   1.351   4.000  0.6307  1.0213 -0.3448
12907SOL     OW43082  10.102   0.803   5.719  0.1942  0.5857 -0.0578
12907SOL    HW143083  10.080   0.729   5.662 -0.7111  2.0506 -1.6930
12907SOL    HW243084  10.197   0.799   5.727  0.0391 -1.9022  1.5725
12908SOL     OW43085   9.641   0.789   8.004  0.1914  0.0327 -0.5166
12908SOL    HW143086   9.605   0.713   8.050  0.1382 -0.3697 -1.1936
12908SOL    HW243087   9.569   0.851   8.000  0.3660  0.3052  0.4313
12909SOL     OW43088  10.347   3.133   3.945  0.4075 -0.5184  0.0800
12909SOL    HW143089  10.404   3.191   3.894  0.4981 -1.2305 -0.6436
12909SOL    HW243090  10.370   3.150   4.036  0.1432  0.8845 -0.0896
12910SOL     OW43091   5.327   3.027   6.609 -0.5078 -0.2140 -0.1201
12910SOL    HW143092   5.407   3.067   6.575 -0.1998 -0.9179 -0.2525
12910SOL    HW243093   5.297   2.970   6.538 -1.0304 -0.0892 -0.0054
12911SOL     OW43094   9.682   8.104   0.334 -0.4731  0.3935 -0.2572
12911SOL    HW143095   9.757   8.145   0.290 -2.1715  1.4570 -2.3625
12911SOL    HW243096   9.698   8.010   0.325  1.1447  0.5679  0.3699
12912SOL     OW43097   1.602   7.678   1.613 -0.2637 -0.3516  1.0350
12912SOL    HW143098   1.530   7.616   1.620  0.2265 -0.7930  2.3215
12912SOL    HW243099   1.589   7.741   1.684  2.2722 -2.2487  3.3959
12913SOL     OW43100   9.794   2.174  10.636  0.2488 -0.0432  0.0370
12913SOL    HW143101   9.803   2.265  10.605  1.9467 -0.2677 -0.2224
12913SOL    HW243102   9.741   2.131  10.568  0.4801  0.4579 -0.4675
12914SOL     OW43103   7.811  10.636   3.485 -0.0505  0.6326 -0.1091
12914SOL    HW143104   7.811  10.569   3.417 -0.5693  0.9471 -0.4270
12914SOL    HW243105   7.724  10.629   3.526  0.0136  0.8871  0.0767
12915SOL     OW43106   9.448   3.295   1.303 -0.5128  0.5554 -0.7898
12915SOL    HW143107   9.506   3.371   1.300  4.1218 -2.5466 -0.4052
12915SOL    HW243108   9.452   3.264   1.394 -0.6006 -1.2149 -1.3333
12916SOL     OW43109   2.332  10.124   4.767  0.1608  0.1960 -0.7658
12916SOL    HW143110   2.252  10.083   4.735  1.0390 -2.2063 -0.1021
12916SOL    HW243111   2.306  10.213   4.792 -2.3143 -0.5527 -0.4418
12917SOL     OW43112   3.835   7.012   4.223 -0.2212 -0.6458  0.3516
12917SOL    HW143113   3.927   7.002   4.248  0.6819  0.6018 -2.0800
12917SOL    HW243114   3.837   7.015   4.127 -2.6867  0.4371  0.2571
12918SOL     OW43115  10.146  10.718   2.187 -0.0037 -0.4660  0.8247
12918SOL    HW143116  10.167  10.749   2.275 -0.3579  2.1529  0.0748
12918SOL    HW243117  10.185  10.783   2.129 -3.1932  0.1833 -0.8115
12919SOL     OW43118   0.194   4.795   1.864 -0.5173 -0.4214  0.8729
12919SOL    HW143119   0.224   4.791   1.955  1.4354  0.1846  0.3168
12919SOL    HW243120   0.273   4.816   1.814 -2.0106  1.9986 -0.6949
12920SOL     OW43121   8.683   4.865   2.954  0.0977  0.1402  0.3118
12920SOL    HW143122   8.678   4.825   2.867  1.6166 -1.1480  0.7625
12920SOL    HW243123   8.642   4.950   2.943 -2.3438 -1.0981 -0.9477
12921SOL     OW43124   4.701   7.549   4.329 -0.8921  0.9594 -0.2659
12921SOL    HW143125   4.622   7.562   4.382 -0.7718 -0.6893  0.3675
12921SOL    HW243126   4.678   7.479   4.268  0.0943  0.3985 -0.0168
12922SOL     OW43127   7.226   2.510   9.707 -0.0414 -0.4681  0.4028
12922SOL    HW143128   7.312   2.550   9.719  0.0289 -0.8460  1.2485
12922SOL    HW243129   7.229   2.470   9.620  0.2872  0.3484  0.0226
12923SOL     OW43130   9.385   8.366   7.117 -0.6285  0.4410  0.3685
12923SOL    HW143131   9.346   8.433   7.173 -2.3287  0.5399 -0.8519
12923SOL    HW243132   9.363   8.393   7.028 -0.6014 -1.2719 -0.2012
12924SOL     OW43133   7.891   0.050   8.864  0.9721  0.7276 -0.5555
12924SOL    HW143134   7.978   0.055   8.903  0.5495  0.8375  0.3955
12924SOL    HW243135   7.866  -0.042   8.872  0.8634  0.7588 -0.5361
12925SOL     OW43136   4.396   1.161   9.467 -0.5202  0.7052 -0.0910
12925SOL    HW143137   4.302   1.161   9.451 -0.4646  2.6019 -0.7430
12925SOL    HW243138   4.405   1.197   9.556 -0.4035  1.4018 -0.3745
12926SOL     OW43139   6.143  10.278   6.760 -0.1377  0.3167 -0.0851
12926SOL    HW143140   6.176  10.233   6.682 -1.6184  1.0253 -1.1687
12926SOL    HW243141   6.217  10.277   6.821  1.0178 -0.4020 -1.4266
12927SOL     OW43142   9.203   1.103   3.373 -0.0232 -0.0910  0.2196
12927SOL    HW143143   9.280   1.051   3.346  0.7730  0.7808  0.7714
12927SOL    HW243144   9.174   1.145   3.292  1.4424  1.3167  0.3597
12928SOL     OW43145   6.439   8.099   6.220  0.3581  0.0768 -0.1541
12928SOL    HW143146   6.347   8.104   6.244  0.7950  2.4023  1.3951
12928SOL    HW243147   6.444   8.143   6.135  0.2438  1.9712  0.7449
12929SOL     OW43148   9.075  10.894   0.604  0.0344 -0.1036 -0.1695
12929SOL    HW143149   9.094  10.983   0.576 -1.2119 -0.1405 -1.2270
12929SOL    HW243150   8.980  10.885   0.594 -0.0655 -1.0776  1.3591
12930SOL     OW43151   4.727   7.428   7.021 -0.4248 -0.0429  0.3849
12930SOL    HW143152   4.731   7.360   7.088  3.6832  0.2902  0.7255
12930SOL    HW243153   4.767   7.505   7.061  2.4678  0.0948 -2.3653
12931SOL     OW43154   5.331   2.764   3.409 -0.0346 -0.4060  0.3389
12931SOL    HW143155   5.318   2.857   3.396 -0.4141 -0.5133 -0.0601
12931SOL    HW243156   5.245   2.725   3.392 -0.3377 -0.6559  2.1915
12932SOL     OW43157   6.007   1.825   3.456 -0.1530 -0.5071  0.2939
12932SOL    HW143158   6.018   1.841   3.362  1.1341  0.2904  0.5591
12932SOL    HW243159   5.913   1.814   3.467 -0.6307  1.9742 -0.7199
12933SOL     OW43160  10.711   1.137   6.863  0.3692  0.4506  0.2771
12933SOL    HW143161  10.621   1.165   6.845  0.7083  0.2578 -2.0334
12933SOL    HW243162  10.721   1.056   6.813  1.6932  0.2483  0.8476
12934SOL     OW43163   8.621   4.036   0.585  0.3541 -0.4172  0.1010
12934SOL    HW143164   8.704   3.989   0.574 -0.4619 -2.0030  0.3443
12934SOL    HW243165   8.568   3.977   0.640 -0.6268  0.9433  0.6621
12935SOL     OW43166   3.496   3.462   1.505 -0.4689  0.0706 -0.4133
12935SOL    HW143167   3.505   3.537   1.446 -1.9430 -0.4521 -1.3521
12935SOL    HW243168   3.560   3.399   1.474  2.1405  1.5675  1.5331
12936SOL     OW43169   9.828   9.595   9.637 -0.3098  0.1389  0.3181
12936SOL    HW143170   9.902   9.557   9.588  0.4322  2.0095 -0.0882
12936SOL    HW243171   9.759   9.529   9.630  0.6897 -0.8436 -0.9069
12937SOL     OW43172   3.747   0.303   5.335  0.4015  0.0349  0.2448
12937SOL    HW143173   3.670   0.346   5.374  1.0140  0.6766  0.7838
12937SOL    HW243174   3.733   0.310   5.241 -0.1857  0.1874  0.3388
12938SOL     OW43175   0.437   4.676  10.292 -0.0789 -0.3241  0.2470
12938SOL    HW143176   0.377   4.603  10.279  0.2981 -0.4819 -0.6993
12938SOL    HW243177   0.458   4.674  10.385 -0.0677 -1.4226  0.2242
12939SOL     OW43178   3.511   8.008   1.484  0.3733  0.0184 -0.2785
12939SOL    HW143179   3.442   8.074   1.480  0.0075 -0.2052  1.4554
12939SOL    HW243180   3.494   7.952   1.408 -0.4467  0.8268 -0.7124
12940SOL     OW43181  10.413   2.177   8.479 -0.2454  0.0621 -0.0756
12940SOL    HW143182  10.345   2.124   8.438 -1.2763  0.5052  1.0067
12940SOL    HW243183  10.485   2.116   8.494 -1.4872 -1.1355  1.3306
12941SOL     OW43184   3.222   5.439   2.092  0.3001  0.0148 -0.7019
12941SOL    HW143185   3.311   5.461   2.065  1.0029 -1.6258  0.1567
12941SOL    HW243186   3.217   5.467   2.183  0.4337 -1.1719 -0.3143
12942SOL     OW43187  10.061   1.632   9.729 -0.3650 -0.8435 -0.0348
12942SOL    HW143188  10.056   1.541   9.758  1.7363 -1.7977 -2.3122
12942SOL    HW243189  10.005   1.635   9.652 -0.1997 -0.2700 -0.1356
12943SOL     OW43190   3.068   0.106   2.754 -0.5284  0.5178 -0.1901
12943SOL    HW143191   2.983   0.140   2.728 -0.1875  1.4050 -0.1946
12943SOL    HW243192   3.064   0.098   2.849  0.0538  2.5731  0.0609
12944SOL     OW43193   3.979   3.768  10.010  0.4728  0.3664 -0.3659
12944SOL    HW143194   3.951   3.762   9.919  1.1518 -0.9442 -0.5112
12944SOL    HW243195   3.991   3.862  10.025 -1.9521  0.8439 -0.8828
12945SOL     OW43196   6.509   1.661   9.371 -0.0510  0.1967 -0.3807
12945SOL    HW143197   6.570   1.589   9.385 -1.4783 -1.2950 -1.5383
12945SOL    HW243198   6.427   1.632   9.410 -0.5137  1.4468 -0.3691
12946SOL     OW43199   3.465   6.033   0.123  0.3662  0.4293 -0.0891
12946SOL    HW143200   3.482   5.984   0.043  1.9629  0.9715 -0.1034
12946SOL    HW243201   3.546   6.027   0.173 -0.4657  0.4395  1.3183
12947SOL     OW43202   5.423   2.380   8.506 -0.4428  0.5069 -0.2106
12947SOL    HW143203   5.478   2.306   8.530 -0.3737  0.2226 -1.1869
12947SOL    HW243204   5.434   2.388   8.411 -1.7775  0.6803 -0.3796
12948SOL     OW43205   2.470   0.962   6.331  0.2625  0.1296  0.3423
12948SOL    HW143206   2.402   1.019   6.295  0.9955 -0.7173 -2.6994
12948SOL    HW243207   2.552   1.007   6.308  0.7773 -0.6434  0.6499
12949SOL     OW43208   4.009   6.667   1.752 -0.1183  0.4416 -0.5775
12949SOL    HW143209   3.964   6.699   1.674 -0.7092 -0.2897 -0.5439
12949SOL    HW243210   4.059   6.592   1.721  0.8838  1.0798 -0.5569
12950SOL     OW43211   4.357   0.948   2.798  0.1841 -0.5769  0.1030
12950SOL    HW143212   4.411   1.004   2.854 -0.9800  0.8333 -0.1381
12950SOL    HW243213   4.379   0.859   2.826 -1.5610  0.0052  4.1093
12951SOL     OW43214   3.227   7.358   4.868  0.2107 -0.2616  0.9853
12951SOL    HW143215   3.315   7.390   4.887  0.1189  0.0162  0.9376
12951SOL    HW243216   3.179   7.367   4.950 -0.1182  0.7183  0.7056
12952SOL     OW43217   4.052   8.622   9.992 -0.1199 -0.2981 -0.3411
12952SOL    HW143218   4.135   8.617  10.039 -0.3085 -1.8381 -0.1106
12952SOL    HW243219   3.985   8.614  10.060 -0.5165  1.9116 -0.4126
12953SOL     OW43220  10.761  11.025   7.878  0.8217 -0.1379  0.3206
12953SOL    HW143221  10.827  11.093   7.867  1.1421 -0.5120 -0.0825
12953SOL    HW243222  10.810  10.948   7.905  0.5292 -0.3636  0.2107
12954SOL     OW43223   8.043   6.357   0.995  0.0846  0.1193  0.0977
12954SOL    HW143224   8.109   6.424   1.016  1.1624 -1.0600  0.6406
12954SOL    HW243225   8.078   6.277   1.034  0.9137 -1.7025 -3.9046
12955SOL     OW43226   7.545   2.533   6.453 -0.3897  0.2798  0.2856
12955SOL    HW143227   7.520   2.587   6.528 -0.5251 -0.7252  0.9786
12955SOL    HW243228   7.501   2.574   6.379  1.6438  2.7410  0.2898
12956SOL     OW43229   5.071   8.168   3.155 -0.0887 -0.2632  0.0021
12956SOL    HW143230   5.034   8.214   3.080  0.2408 -0.3436 -0.2167
12956SOL    HW243231   5.004   8.104   3.179  0.4966 -1.4548 -1.3547
12957SOL     OW43232  10.273   9.567   6.775 -0.5227 -0.3373  0.0416
12957SOL    HW143233  10.265   9.533   6.686  2.0563  0.1529 -0.4609
12957SOL    HW243234  10.254   9.492   6.831 -2.0698 -0.6856 -0.8932
12958SOL     OW43235   2.632   7.464   4.095  0.0298  0.0815  0.2826
12958SOL    HW143236   2.656   7.551   4.064  0.6921  0.8361  2.6428
12958SOL    HW243237   2.686   7.452   4.174 -1.8142 -1.4197  1.4006
12959SOL     OW43238   3.750   6.094  10.723  0.2629  0.1364  0.0424
12959SOL    HW143239   3.666   6.075  10.765  0.4225  0.7411  0.6663
12959SOL    HW243240   3.727   6.147  10.647  0.2288  4.2918  2.5808
12960SOL     OW43241   7.323   6.082   2.983  0.0846 -0.1449  0.2804
12960SOL    HW143242   7.248   6.142   2.977  1.5864  1.7602 -0.1168
12960SOL    HW243243   7.355   6.093   3.073  1.0478  0.5145 -0.1358
12961SOL     OW43244   3.171   0.657   1.836 -0.0594 -0.0900  0.8209
12961SOL    HW143245   3.138   0.620   1.917  0.7283  3.0193  2.7548
12961SOL    HW243246   3.252   0.609   1.818  0.1618 -0.3378  2.3457
12962SOL     OW43247   6.938   1.918   6.273 -0.7373 -0.3324 -0.4131
12962SOL    HW143248   6.896   1.857   6.211 -1.0756  1.8291 -2.4746
12962SOL    HW243249   7.013   1.953   6.225 -2.7240  3.6998 -0.9962
12963SOL     OW43250   1.565   7.718   5.510  0.0404 -0.1362 -0.2814
12963SOL    HW143251   1.550   7.628   5.538 -1.0412 -0.2846 -1.2310
12963SOL    HW243252   1.595   7.763   5.589  0.3883 -1.2687  0.2615
12964SOL     OW43253   2.662   0.052   9.046 -0.0554 -0.0125 -0.5874
12964SOL    HW143254   2.676  -0.030   9.093 -1.2862 -0.8208 -1.5659
12964SOL    HW243255   2.611   0.027   8.969 -0.2858  1.6487 -1.0118
12965SOL     OW43256  10.245   8.907  10.022  0.1316  0.1970 -0.2393
12965SOL    HW143257  10.224   8.932   9.932 -0.0806  0.0373 -0.2355
12965SOL    HW243258  10.340   8.912  10.026  0.3977 -2.4010 -1.2638
12966SOL     OW43259   3.846   9.741   1.626  0.0528 -0.2209  0.0256
12966SOL    HW143260   3.830   9.806   1.558  1.0910  0.2524  0.2122
12966SOL    HW243261   3.759   9.714   1.655 -0.4346  1.8486  0.6663
12967SOL     OW43262   7.253   5.167   4.124 -0.1325  0.0055  0.0010
12967SOL    HW143263   7.194   5.119   4.066 -0.0828  0.0648 -0.0977
12967SOL    HW243264   7.195   5.209   4.188 -0.2634  0.7159 -0.5672
12968SOL     OW43265   0.516   3.587   2.700 -0.1155 -0.0474  0.5429
12968SOL    HW143266   0.544   3.598   2.609 -2.8522  0.0921 -0.3644
12968SOL    HW243267   0.504   3.677   2.732 -1.4649 -0.0793  0.2063
12969SOL     OW43268   8.630   1.180   1.441  0.7358  0.0955  0.5629
12969SOL    HW143269   8.699   1.134   1.394  1.5393  0.4864  1.3220
12969SOL    HW243270   8.646   1.160   1.533  0.4781  1.0352  0.8271
12970SOL     OW43271   1.616   3.522   5.008  0.3927 -0.0084 -0.4319
12970SOL    HW143272   1.540   3.515   5.066 -1.5785  1.2098 -2.6922
12970SOL    HW243273   1.685   3.560   5.063 -1.3378  1.0246  1.1332
12971SOL     OW43274   2.311   6.642   9.999  0.0292 -0.6116 -0.0042
12971SOL    HW143275   2.301   6.704  10.070 -2.3501  0.4520 -1.1582
12971SOL    HW243276   2.287   6.557  10.037 -3.2773  0.2390  0.1000
12972SOL     OW43277   3.120   9.733   0.137 -0.1497  0.7394 -0.0290
12972SOL    HW143278   3.185   9.801   0.157  1.8482 -1.6139  2.2215
12972SOL    HW243279   3.069   9.724   0.217 -0.4368 -0.2973 -0.3118
12973SOL     OW43280   5.546  10.997  10.396 -0.0791  0.4802  0.0608
12973SOL    HW143281   5.617  10.950  10.438  0.4757  0.4040 -0.9259
12973SOL    HW243282   5.523  10.943  10.320  0.2895  1.5636 -0.8575
12974SOL     OW43283   0.624   1.341   5.340  0.4366  0.0589  0.4134
12974SOL    HW143284   0.559   1.403   5.373  0.9321  0.2470  1.0445
12974SOL    HW243285   0.613   1.343   5.245 -0.9859 -0.4577  0.5336
12975SOL     OW43286   2.204   7.724   2.680  0.2884  0.2668  0.3177
12975SOL    HW143287   2.251   7.801   2.713  0.2257 -0.2531  1.6732
12975SOL    HW243288   2.112   7.746   2.692  0.2822 -0.4178  1.7256
12976SOL     OW43289   0.594   8.992  10.344 -0.0590 -0.6358 -0.3201
12976SOL    HW143290   0.643   8.998  10.426 -1.3555 -0.5720  0.4719
12976SOL    HW243291   0.593   9.082  10.311 -0.0729 -0.5518 -0.0915
12977SOL     OW43292   5.148   6.532  10.266  0.2621 -0.4754  0.3540
12977SOL    HW143293   5.058   6.560  10.282  0.6409  0.6414  0.7012
12977SOL    HW243294   5.174   6.488  10.347 -0.3028 -1.7824 -0.1509
12978SOL     OW43295  10.452   1.844   0.513 -0.8261  0.0307 -0.5261
12978SOL    HW143296  10.535   1.877   0.547 -1.3967  0.5905  0.3556
12978SOL    HW243297  10.425   1.909   0.448 -1.1077  0.4285 -0.0192
12979SOL     OW43298   2.417   7.317  10.606 -0.6112  0.0120 -0.5675
12979SOL    HW143299   2.404   7.395  10.551  0.8437  0.9273  0.3155
12979SOL    HW243300   2.489   7.271  10.563  0.3717  0.6074  0.3827
12980SOL     OW43301  10.307   0.732   2.746  0.6989 -0.2867 -0.3809
12980SOL    HW143302  10.235   0.756   2.687  1.2175 -0.0650 -0.9343
12980SOL    HW243303  10.343   0.815   2.776 -0.5318 -0.3663  1.5008
12981SOL     OW43304   0.423   8.981   0.497  0.0967 -0.1909  0.6030
12981SOL    HW143305   0.385   9.063   0.467 -0.6576 -1.1199 -1.1039
12981SOL    HW243306   0.379   8.963   0.581  2.5646  2.6701  2.7537
12982SOL     OW43307   2.692   0.477   2.796  0.3019 -0.0131  0.2837
12982SOL    HW143308   2.628   0.481   2.867  0.0787 -2.0662  0.2399
12982SOL    HW243309   2.653   0.419   2.732  1.6172 -0.1939 -0.3883
12983SOL     OW43310   3.928   9.408   7.418  0.0179 -0.0129  0.5330
12983SOL    HW143311   3.968   9.494   7.410 -0.9151  0.3743 -0.1369
12983SOL    HW243312   3.922   9.393   7.513 -0.1566  0.8307  0.6637
12984SOL     OW43313   4.597   2.177   1.140  0.1476  0.0983 -0.2172
12984SOL    HW143314   4.574   2.096   1.185 -1.3236 -0.3255 -1.6646
12984SOL    HW243315   4.596   2.244   1.209  1.8469 -1.1448  1.0808
12985SOL     OW43316   4.239   7.352   4.149  0.1235  0.4491  0.0867
12985SOL    HW143317   4.202   7.300   4.221  1.7393 -0.7594  0.1009
12985SOL    HW243318   4.183   7.330   4.074 -0.4769  0.3128  0.5588
12986SOL     OW43319   6.076   2.337   3.738  0.2269 -0.0338  0.2346
12986SOL    HW143320   6.162   2.322   3.777 -0.0301 -0.4909  0.6361
12986SOL    HW243321   6.060   2.431   3.750  0.8342  0.1297 -0.1935
12987SOL     OW43322   3.537   5.883  10.054 -0.0124  0.0435  0.1701
12987SOL    HW143323   3.471   5.918   9.995  2.0110  1.7621 -1.2139
12987SOL    HW243324   3.567   5.802  10.011  1.0772  1.0120 -0.9595
12988SOL     OW43325   9.746   9.310   6.132 -0.1595  0.4540  0.0610
12988SOL    HW143326   9.705   9.280   6.213 -0.9598  0.4002 -0.3610
12988SOL    HW243327   9.747   9.406   6.140  1.5805  0.4126  1.0041
12989SOL     OW43328   8.641   6.988   9.036  0.1908  0.1750  0.3181
12989SOL    HW143329   8.615   6.896   9.040  0.1709  0.1506 -0.2134
12989SOL    HW243330   8.700   7.000   9.110  0.3399 -0.3174  0.2842
12990SOL     OW43331   6.218   9.908   4.137 -0.1111 -0.4277 -0.2135
12990SOL    HW143332   6.302   9.954   4.141  0.3503 -1.1776 -0.9731
12990SOL    HW243333   6.160   9.967   4.090  0.4533 -0.5656 -1.1124
12991SOL     OW43334   6.396   6.964   3.719 -0.2453 -0.4564  0.2170
12991SOL    HW143335   6.409   6.933   3.629  0.3004 -0.2472  0.2213
12991SOL    HW243336   6.305   6.941   3.739 -0.5678  0.0680 -0.6089
12992SOL     OW43337   1.084   8.833   9.545  0.7859  0.6105 -0.1289
12992SOL    HW143338   1.071   8.912   9.494  0.3873 -0.8470 -2.4125
12992SOL    HW243339   1.021   8.770   9.509 -0.1438 -0.2902  2.7396
12993SOL     OW43340   8.632   0.503   4.606 -0.0396  0.9029  0.2957
12993SOL    HW143341   8.629   0.549   4.690  0.5014  1.4353  0.0289
12993SOL    HW243342   8.717   0.526   4.569 -0.1425  0.4101 -0.2530
12994SOL     OW43343   1.690   4.260   3.611  0.3935 -0.2767 -0.4809
12994SOL    HW143344   1.673   4.351   3.635 -0.3100 -1.2849  3.4892
12994SOL    HW243345   1.785   4.256   3.600  0.5083  0.8097 -0.0437
12995SOL     OW43346  10.146   7.935   5.083 -0.1796  0.0131  0.0569
12995SOL    HW143347  10.191   8.019   5.098  0.9314 -0.2166 -1.7396
12995SOL    HW243348  10.079   7.955   5.018  0.4085 -0.5765 -0.7435
12996SOL     OW43349   0.722   5.091   5.643 -0.2799 -0.4066  0.0419
12996SOL    HW143350   0.775   5.134   5.577 -1.4357  0.8626 -0.1058
12996SOL    HW243351   0.748   4.999   5.639  1.6293  0.1134 -0.2349
12997SOL     OW43352   4.400   2.088   4.994  0.5071  0.0354 -0.1985
12997SOL    HW143353   4.357   2.070   4.911  0.2939  0.1136 -0.1039
12997SOL    HW243354   4.493   2.072   4.976  0.6486  1.4316 -0.8357
12998SOL     OW43355   0.616   5.516   9.468 -0.2489  0.3201  0.0514
12998SOL    HW143356   0.549   5.498   9.534  2.0060 -1.0778  2.1036
12998SOL    HW243357   0.567   5.550   9.393 -3.1706 -0.1552  1.6073
12999SOL     OW43358   2.282   3.320   8.062 -0.2746  0.2574  0.4139
12999SOL    HW143359   2.219   3.362   8.121 -0.4012  0.9481 -0.2119
12999SOL    HW243360   2.243   3.328   7.975  0.3498  0.0623  0.1076
13000SOL     OW43361   5.945   3.027   1.702 -0.4169 -0.0778  0.3699
13000SOL    HW143362   5.978   3.115   1.721 -1.4061  0.3922 -0.0161
13000SOL    HW243363   6.022   2.979   1.673  0.1028  0.7253  0.3729
13001SOL     OW43364   9.429   8.627   1.575 -0.1835  0.5022 -0.1879
13001SOL    HW143365   9.423   8.546   1.626  0.7117  1.0350  0.8081
13001SOL    HW243366   9.519   8.628   1.543 -0.7849  0.0560 -2.0533
13002SOL     OW43367   6.138   9.186   7.938  0.6538  0.4070 -0.4930
13002SOL    HW143368   6.130   9.180   8.033  0.5063  0.4935 -0.5003
13002SOL    HW243369   6.137   9.280   7.920 -0.0416  0.3715 -0.6450
13003SOL     OW43370   8.656   3.594  11.076  0.1367  0.3601 -0.6402
13003SOL    HW143371   8.649   3.566  11.167  0.3902 -0.2578 -0.8031
13003SOL    HW243372   8.566   3.614  11.051  0.0860  0.6869 -0.2076
13004SOL     OW43373   5.879   7.408   1.350 -0.5032 -0.4858  0.8231
13004SOL    HW143374   5.829   7.409   1.432 -1.2948  0.3076  0.3493
13004SOL    HW243375   5.970   7.404   1.378 -0.7744 -0.5895  1.7411
13005SOL     OW43376   4.671   2.672   5.281 -0.5805 -0.2261 -0.0823
13005SOL    HW143377   4.619   2.750   5.300 -1.0728 -0.4965 -0.3182
13005SOL    HW243378   4.639   2.641   5.196  1.5684  0.9493 -1.4199
13006SOL     OW43379   9.774   5.124   2.987  0.2379  0.2410 -0.5865
13006SOL    HW143380   9.857   5.138   2.942  1.4219 -1.4830  0.9193
13006SOL    HW243381   9.793   5.141   3.079  0.0421 -3.7322  0.3861
13007SOL     OW43382   7.669   3.568   5.235  0.2811  0.0098  0.3116
13007SOL    HW143383   7.691   3.516   5.157  1.1444 -0.4201  0.8265
13007SOL    HW243384   7.729   3.642   5.232 -0.6831  0.7906 -0.2075
13008SOL     OW43385   3.614   6.742   9.288 -0.0231  0.5887  0.2519
13008SOL    HW143386   3.599   6.826   9.331  3.6046  0.7232  1.5728
13008SOL    HW243387   3.584   6.677   9.352 -1.7276  0.7808 -0.2910
13009SOL     OW43388  10.083   9.694   7.474  0.3045 -0.9411 -0.0044
13009SOL    HW143389  10.060   9.757   7.542 -1.0044  0.9180 -2.0481
13009SOL    HW243390  10.001   9.675   7.430  1.1365 -1.9705 -1.1791
13010SOL     OW43391   9.437   6.345   6.849  0.0534 -0.5885 -0.0827
13010SOL    HW143392   9.387   6.415   6.892  0.4742 -0.4716  0.2252
13010SOL    HW243393   9.390   6.329   6.768 -0.2343 -0.1703 -0.0037
13011SOL     OW43394   1.576  10.218  10.505 -0.8586 -0.6185  0.5826
13011SOL    HW143395   1.549  10.159  10.435 -2.6896 -1.0853  1.6248
13011SOL    HW243396   1.514  10.202  10.575  0.1296  0.7859  1.8390
13012SOL     OW43397   6.459   9.254   9.626  0.5091 -0.4671  0.0935
13012SOL    HW143398   6.487   9.207   9.705  1.0848  0.1192  0.2450
13012SOL    HW243399   6.448   9.186   9.560 -1.2532 -1.1437  1.0192
13013SOL     OW43400   4.357   5.201   7.526  0.1072  0.0367 -0.1410
13013SOL    HW143401   4.348   5.285   7.481  0.1870  0.0533 -0.1260
13013SOL    HW243402   4.303   5.141   7.475 -0.1546  0.1522 -0.0057
13014SOL     OW43403   6.096   8.870   9.523 -0.1580  0.5565  0.0693
13014SOL    HW143404   6.031   8.932   9.557  0.0056  0.7831 -0.0282
13014SOL    HW243405   6.052   8.785   9.527 -0.5133  0.7274 -0.1272
13015SOL     OW43406   6.606   0.427   2.768  0.4256  0.1185 -0.4227
13015SOL    HW143407   6.697   0.411   2.792 -0.1029 -0.1295  1.6117
13015SOL    HW243408   6.582   0.505   2.817 -0.5495  0.0019 -0.6909
13016SOL     OW43409  10.092   4.342   8.019  0.0403 -0.1816 -0.0674
13016SOL    HW143410  10.173   4.392   8.026  0.8323 -1.4526  0.2108
13016SOL    HW243411  10.108   4.280   7.947 -0.9645  0.0334 -0.4980
13017SOL     OW43412   9.448   2.837   8.479 -0.2482 -0.5196  0.2397
13017SOL    HW143413   9.490   2.785   8.548 -0.5943  0.0998  0.9290
13017SOL    HW243414   9.476   2.927   8.496 -0.0632 -0.3975 -0.6389
13018SOL     OW43415   0.234   8.548   4.441  0.3165  0.4179  0.0074
13018SOL    HW143416   0.225   8.544   4.345  1.0190 -1.1014 -0.0367
13018SOL    HW243417   0.150   8.515   4.474 -0.0369  1.2273 -0.0757
13019SOL     OW43418   0.093   8.913   6.901  0.3832 -0.1619  0.6114
13019SOL    HW143419   0.063   8.825   6.880  0.8064 -0.4066  1.0104
13019SOL    HW243420   0.078   8.964   6.821 -1.2123 -0.2336  0.8391
13020SOL     OW43421   6.695  10.292   2.790 -0.3595  0.0995 -0.2218
13020SOL    HW143422   6.773  10.312   2.841 -0.7630  1.6738 -0.1642
13020SOL    HW243423   6.722  10.304   2.699 -0.5830  0.9328 -0.1901
13021SOL     OW43424   3.277   4.917   2.799 -0.2928 -0.2389 -0.1183
13021SOL    HW143425   3.363   4.893   2.767  0.0432  0.6003  0.1301
13021SOL    HW243426   3.261   4.857   2.872  0.0651 -0.4253 -0.1920
13022SOL     OW43427   9.338   2.968   7.387 -0.0005 -0.5849  0.0645
13022SOL    HW143428   9.413   2.998   7.438 -0.1783  1.3484 -0.6979
13022SOL    HW243429   9.356   2.877   7.367  2.9888  0.2482 -1.5281
13023SOL     OW43430  10.391   3.264   6.927  0.4676  0.3451  0.3809
13023SOL    HW143431  10.352   3.291   7.010 -0.2700  0.4670  0.0062
13023SOL    HW243432  10.394   3.168   6.932 -1.9445  0.1610 -0.4448
13024SOL     OW43433   3.808   7.446   3.776 -0.1877  0.1928  1.3285
13024SOL    HW143434   3.808   7.431   3.870 -0.3276 -0.9746  1.1624
13024SOL    HW243435   3.743   7.514   3.762 -0.3118  0.2278  2.0609
13025SOL     OW43436   4.343   0.978   3.406 -0.2854  0.1688  0.1645
13025SOL    HW143437   4.307   0.926   3.478  0.0640  0.6619  0.7070
13025SOL    HW243438   4.333   1.069   3.434  0.3095  0.3533 -0.1842
13026SOL     OW43439   2.296   0.956   9.359 -0.6982  0.2376 -0.4200
13026SOL    HW143440   2.276   1.035   9.309 -3.3875  0.0511  0.1746
13026SOL    HW243441   2.278   0.884   9.299 -1.1705  0.0614 -0.0805
13027SOL     OW43442   4.857  10.883   7.248 -0.1223  0.2251  0.5423
13027SOL    HW143443   4.880  10.945   7.317  0.0740  1.5504 -0.6850
13027SOL    HW243444   4.769  10.853   7.271  0.0307  0.4650  1.4784
13028SOL     OW43445   1.534   5.239   9.916  0.0823  0.0557 -0.8678
13028SOL    HW143446   1.616   5.288   9.909 -0.5128  1.4311  0.8656
13028SOL    HW243447   1.520   5.231  10.010 -2.6439  1.4678 -1.0653
13029SOL     OW43448   0.943   5.927   2.202 -0.3396  0.0443 -0.4843
13029SOL    HW143449   0.851   5.917   2.176 -0.5847 -0.5940  0.5506
13029SOL    HW243450   0.990   5.864   2.147 -0.8152 -1.1170  0.3877
13030SOL     OW43451  10.820   4.547   1.054  0.5752 -0.1795  0.5242
13030SOL    HW143452  10.741   4.540   1.106  0.6700  0.3740  0.7512
13030SOL    HW243453  10.860   4.630   1.081 -0.9362  1.7622 -2.5967
13031SOL     OW43454   6.792   8.450   6.588  0.1644 -0.2379  0.6415
13031SOL    HW143455   6.822   8.364   6.560  0.5657  0.3162 -0.7037
13031SOL    HW243456   6.696   8.442   6.588  0.1466 -0.3750 -0.6407
13032SOL     OW43457  10.701   7.645   1.217 -1.2755 -0.2634 -0.3186
13032SOL    HW143458  10.691   7.709   1.287 -1.9672  1.2971 -1.7690
13032SOL    HW243459  10.795   7.636   1.206 -1.1640  0.4678 -0.0502
13033SOL     OW43460   1.139   2.785   1.095  0.2362 -0.1119  0.1837
13033SOL    HW143461   1.105   2.706   1.053  0.7679 -0.7677  0.9467
13033SOL    HW243462   1.220   2.804   1.049 -0.4898  0.6978 -0.7863
13034SOL     OW43463   6.640   4.682   7.020 -0.0645 -0.2758 -0.4552
13034SOL    HW143464   6.668   4.763   7.063  0.1966 -0.2729 -0.6253
13034SOL    HW243465   6.615   4.624   7.091  0.1080 -0.1761 -0.3118
13035SOL     OW43466   6.605   1.513   0.540  0.3276 -0.5417  0.0805
13035SOL    HW143467   6.555   1.453   0.483 -0.8043  0.5730 -0.1489
13035SOL    HW243468   6.608   1.468   0.624 -1.6577 -0.3850  0.2856
13036SOL     OW43469   8.105   3.820   9.760  0.1727 -0.0994  0.2470
13036SOL    HW143470   8.177   3.780   9.809 -1.2507 -1.2060  1.5691
13036SOL    HW243471   8.075   3.892   9.815 -0.9407 -0.8601  0.6752
13037SOL     OW43472   9.354   3.384   5.580  0.2564  0.6052  0.6275
13037SOL    HW143473   9.280   3.329   5.605  1.6760 -0.0261  4.1073
13037SOL    HW243474   9.345   3.463   5.633  1.2014  1.2608 -0.1370
13038SOL     OW43475   5.317   7.553   4.134 -0.4614 -0.0602  0.0068
13038SOL    HW143476   5.238   7.602   4.158  0.6110  1.4489  0.5815
13038SOL    HW243477   5.352   7.599   4.058  0.2692 -0.2718  0.2046
13039SOL     OW43478   8.719   7.094   9.689  0.3111  0.3837 -0.1495
13039SOL    HW143479   8.628   7.066   9.690  0.9239 -1.7771  0.2214
13039SOL    HW243480   8.716   7.186   9.717 -1.5506 -0.3298  2.3923
13040SOL     OW43481   6.272   2.449   6.182  0.2453 -0.1595  1.0193
13040SOL    HW143482   6.297   2.541   6.169  1.5195 -0.6292 -0.0922
13040SOL    HW243483   6.331   2.418   6.250 -2.5933  0.7431  4.1324
13041SOL     OW43484   5.895   3.435   2.344 -0.8652  0.4589 -0.0416
13041SOL    HW143485   5.809   3.476   2.352 -1.7866 -1.3043 -0.3628
13041SOL    HW243486   5.877   3.348   2.309  0.8998 -0.6349  1.5834
13042SOL     OW43487   9.031   4.207   8.596  0.5736 -0.1799 -0.3093
13042SOL    HW143488   9.090   4.270   8.553 -1.3418  0.6210 -1.9175
13042SOL    HW243489   8.991   4.159   8.524 -1.0058 -0.4358  0.6930
13043SOL     OW43490   9.820   6.537   3.680  0.3172 -0.5354 -0.1931
13043SOL    HW143491   9.766   6.616   3.678  1.0888 -0.0018 -0.7919
13043SOL    HW243492   9.829   6.517   3.773 -0.0128 -0.0037 -0.0411
13044SOL     OW43493  10.002   8.230   1.320 -0.1399  0.1018 -0.1312
13044SOL    HW143494  10.080   8.247   1.372 -0.6876 -1.2625  1.2232
13044SOL    HW243495   9.937   8.292   1.354  0.1242  0.7224 -0.7408
13045SOL     OW43496   7.132  10.859   1.275  0.5021  0.2715  0.3519
13045SOL    HW143497   7.048  10.847   1.320 -0.4823 -1.9277 -1.7904
13045SOL    HW243498   7.197  10.863   1.344 -1.3838  3.5224  2.2092
13046SOL     OW43499   8.891   6.502   7.999  0.1864  0.6589  0.3935
13046SOL    HW143500   8.940   6.439   7.946  1.8162 -0.0768  2.6253
13046SOL    HW243501   8.802   6.465   8.004  1.2831 -2.1005  2.3374
13047SOL     OW43502   9.168   8.660  10.339 -0.3101 -0.5062  0.3896
13047SOL    HW143503   9.232   8.590  10.326 -0.3793 -0.6248  0.6782
13047SOL    HW243504   9.134   8.678  10.251  0.9101  0.3157  0.0687
13048SOL     OW43505   9.392   2.812   2.144 -0.5828 -0.2150  0.1807
13048SOL    HW143506   9.370   2.896   2.104  2.3931 -0.6161 -2.7568
13048SOL    HW243507   9.327   2.751   2.108 -0.2189  0.1409 -1.1581
13049SOL     OW43508   0.560   5.636   1.077 -0.3130  0.3290 -0.1689
13049SOL    HW143509   0.579   5.559   1.022  1.2681  0.9847 -0.5879
13049SOL    HW243510   0.465   5.642   1.077 -0.4071 -0.6157 -1.5602
13050SOL     OW43511   5.390   9.762   5.694 -0.3022  0.2770 -0.4564
13050SOL    HW143512   5.413   9.824   5.625 -0.5370 -0.4941 -1.2505
13050SOL    HW243513   5.463   9.700   5.698 -1.1164 -0.7838 -1.3438
13051SOL     OW43514   2.405   6.612   1.521  0.3909 -0.0241  0.2805
13051SOL    HW143515   2.367   6.591   1.606 -0.5257 -1.0861 -0.3667
13051SOL    HW243516   2.331   6.642   1.468  0.7359 -0.5177 -0.4933
13052SOL     OW43517  10.933   2.008   6.708 -0.4760  0.0757 -0.1017
13052SOL    HW143518  10.977   2.003   6.623 -0.2594  1.5729 -0.1005
13052SOL    HW243519  10.968   2.087   6.749  1.8033 -2.1808  2.7728
13053SOL     OW43520   9.688   3.480   3.516 -0.5455  0.3187  0.4936
13053SOL    HW143521   9.615   3.542   3.520 -0.4096  0.4997  0.2008
13053SOL    HW243522   9.744   3.513   3.445 -0.9533 -0.6501 -0.3139
13054SOL     OW43523  11.031   4.809  10.114  0.0460  0.1655  0.1289
13054SOL    HW143524  11.066   4.720  10.121  0.7302  0.3621 -0.6978
13054SOL    HW243525  11.088   4.862  10.170 -0.5479  0.0454  0.8678
13055SOL     OW43526   6.374   0.833   6.282  0.0627 -0.5107  0.0235
13055SOL    HW143527   6.431   0.868   6.213 -1.0471  0.2464 -0.5577
13055SOL    HW243528   6.431   0.821   6.357  0.7577  1.5399 -0.0960
13056SOL     OW43529   7.236   1.940  10.035  0.5783 -0.4590  0.0707
13056SOL    HW143530   7.182   1.920   9.958  2.8849 -2.0746 -1.2532
13056SOL    HW243531   7.232   2.035  10.042  0.5463 -0.2201 -2.3015
13057SOL     OW43532   2.522   7.813   7.940  0.0916 -0.1512  0.2434
13057SOL    HW143533   2.570   7.857   8.010 -0.5842 -0.4613  0.9238
13057SOL    HW243534   2.563   7.842   7.859 -0.9693  2.5338  0.5841
13058SOL     OW43535   3.104   4.076   8.197 -0.4112 -0.3524  0.5493
13058SOL    HW143536   3.016   4.043   8.214 -0.1780 -0.4599  1.6046
13058SOL    HW243537   3.163   4.007   8.229  0.0826 -0.7927 -1.1680
13059SOL     OW43538  10.187   8.410   7.547  0.7234 -0.3484 -0.2772
13059SOL    HW143539  10.153   8.495   7.572 -1.3511 -1.2241  0.0489
13059SOL    HW243540  10.239   8.428   7.468  2.0872  1.4873  0.9617
13060SOL     OW43541   2.740   8.330   5.528  0.3485 -0.2207  0.2572
13060SOL    HW143542   2.814   8.391   5.523  0.6750 -0.5032  1.3398
13060SOL    HW243543   2.741   8.284   5.444  0.1476  1.1846 -0.5569
13061SOL     OW43544   9.927   5.303   1.886  0.1436  0.1315  0.7375
13061SOL    HW143545   9.985   5.374   1.912 -1.1582  1.2946  0.5765
13061SOL    HW243546   9.841   5.343   1.880 -0.4687 -1.2469 -0.3346
13062SOL     OW43547   2.973   7.373   1.089 -0.3432 -0.0845 -0.0461
13062SOL    HW143548   2.961   7.442   1.154  1.4022 -0.2053  0.4417
13062SOL    HW243549   2.912   7.396   1.018  2.9650  4.4428 -1.9367
13063SOL     OW43550   7.359   5.648   5.631  0.5390  0.2305  0.2809
13063SOL    HW143551   7.312   5.616   5.554  0.4998 -0.4743  0.5847
13063SOL    HW243552   7.298   5.632   5.703  0.1755  1.7968  0.3416
13064SOL     OW43553   0.336  10.410  10.025  0.2422  0.0626  0.0597
13064SOL    HW143554   0.377  10.496  10.030  0.7672 -0.1715 -0.1456
13064SOL    HW243555   0.275  10.416   9.951 -0.4015  0.5391  0.6259
13065SOL     OW43556   8.395   7.476   9.375  0.2889  0.7713 -0.1198
13065SOL    HW143557   8.419   7.422   9.299 -0.2850  0.1050  0.1617
13065SOL    HW243558   8.426   7.426   9.450  2.7562  2.3850  0.0606
13066SOL     OW43559  10.252   2.718   2.495 -0.0448  0.0170 -0.1172
13066SOL    HW143560  10.333   2.764   2.471 -0.4122 -0.4271 -2.4218
13066SOL    HW243561  10.186   2.787   2.500 -0.3325 -0.0280 -2.3339
13067SOL     OW43562  10.537   9.801   4.009 -0.0443 -0.1826 -0.2773
13067SOL    HW143563  10.516   9.819   3.917  0.6001  3.2222  0.1215
13067SOL    HW243564  10.479   9.857   4.059  0.9876 -0.4789  1.3355
13068SOL     OW43565   3.938   0.468   6.224 -0.4393  0.3578 -0.7637
13068SOL    HW143566   4.031   0.485   6.241 -0.2630  0.3699 -1.6953
13068SOL    HW243567   3.916   0.526   6.151 -1.7056  1.8410  0.7026
13069SOL     OW43568   3.653   5.324   5.561  0.4317 -0.0293  0.0003
13069SOL    HW143569   3.614   5.389   5.618  0.0951  2.4916 -2.8372
13069SOL    HW243570   3.579   5.270   5.532  0.4582 -0.6904  1.1125
13070SOL     OW43571  11.110   9.265  10.211 -0.1999 -0.0997  0.3943
13070SOL    HW143572  11.069   9.257  10.297  0.1925 -1.1267  0.4976
13070SOL    HW243573  11.204   9.260  10.228  0.1430  3.3327  0.2870
13071SOL     OW43574   6.445   1.796   6.963 -0.1013 -0.2063  0.6686
13071SOL    HW143575   6.487   1.782   7.048 -0.4193 -1.3499  0.6585
13071SOL    HW243576   6.448   1.710   6.921  3.6876  1.0569 -2.2199
13072SOL     OW43577   1.267   6.244   3.058 -0.2768  0.2607 -0.3073
13072SOL    HW143578   1.313   6.304   3.117 -0.0735  0.5774 -0.7859
13072SOL    HW243579   1.180   6.282   3.048 -0.1863  0.4064 -0.5188
13073SOL     OW43580   2.310   8.664   9.972  0.2533 -0.5597  0.2993
13073SOL    HW143581   2.389   8.613   9.957 -0.4925 -1.3133 -1.3502
13073SOL    HW243582   2.311   8.730   9.902 -0.8203 -0.9245 -0.0869
13074SOL     OW43583   6.239   6.083   2.099  0.1514  0.2269  0.3556
13074SOL    HW143584   6.192   6.147   2.153 -1.1430  0.1426 -0.5952
13074SOL    HW243585   6.239   6.003   2.151  0.6061  0.6396  1.0065
13075SOL     OW43586   3.896   2.119   2.599 -0.4433 -0.0781 -0.3712
13075SOL    HW143587   3.801   2.109   2.586 -0.8142  1.3306  0.9049
13075SOL    HW243588   3.906   2.124   2.694  1.0265 -0.9679 -0.4579
13076SOL     OW43589   8.551   3.804   2.482  0.4530  0.4778 -0.4529
13076SOL    HW143590   8.644   3.808   2.504  0.4043  2.0819 -0.4207
13076SOL    HW243591   8.523   3.895   2.477 -1.3152  0.0241  0.3139
13077SOL     OW43592   9.977   1.347   4.708 -0.2831 -0.4486 -0.6741
13077SOL    HW143593   9.899   1.395   4.677 -0.5428 -1.7176 -2.1070
13077SOL    HW243594   9.945   1.296   4.782 -0.5646 -0.1753 -0.6018
13078SOL     OW43595   3.062   7.242   5.354 -0.0201  0.1203 -0.3663
13078SOL    HW143596   2.990   7.257   5.415  0.0242  0.9376 -0.5084
13078SOL    HW243597   3.141   7.248   5.407  0.0095  0.6336 -0.4695
13079SOL     OW43598   6.877   5.009   6.474 -0.0277 -0.1012  0.1249
13079SOL    HW143599   6.961   5.055   6.477  0.1844 -0.5033  0.7180
13079SOL    HW243600   6.827   5.047   6.547  0.0554 -0.6192  0.4574
13080SOL     OW43601   6.411   7.371   0.553 -0.3017  0.0551  0.3311
13080SOL    HW143602   6.407   7.348   0.460 -1.3438 -0.9733  0.5991
13080SOL    HW243603   6.388   7.290   0.599  0.0634  0.5779  1.4860
13081SOL     OW43604   6.551   0.795   4.543 -0.1586 -0.7053 -0.0791
13081SOL    HW143605   6.481   0.762   4.487  0.3184 -1.5035 -0.2231
13081SOL    HW243606   6.574   0.881   4.506 -0.1874 -1.0039 -0.8069
13082SOL     OW43607   5.367   2.048   4.551  0.4152  0.3995 -0.1157
13082SOL    HW143608   5.394   1.965   4.591 -0.4788  0.8330  1.4745
13082SOL    HW243609   5.444   2.104   4.557  1.0830 -0.3466 -1.3677
13083SOL     OW43610  10.217   3.779   9.515  0.1122 -0.1134  0.1391
13083SOL    HW143611  10.231   3.798   9.423  1.1957 -0.7837  0.1521
13083SOL    HW243612  10.159   3.703   9.515  0.2696 -0.2316  0.0204
13084SOL     OW43613   8.036   9.618   9.900 -0.6096 -0.1157 -0.6705
13084SOL    HW143614   8.069   9.567   9.974 -0.1110  0.1723 -0.6908
13084SOL    HW243615   7.942   9.600   9.899 -0.4184 -1.1895 -0.8001
13085SOL     OW43616   7.409  10.455   7.130  0.0485  0.4062  0.4108
13085SOL    HW143617   7.412  10.500   7.045  1.4302 -0.7799 -0.2076
13085SOL    HW243618   7.476  10.500   7.183 -0.5218  0.8718  0.7510
13086SOL     OW43619   9.016   9.109   4.296 -0.3356 -0.2202  0.0859
13086SOL    HW143620   9.046   9.199   4.309  0.1948 -0.3041 -0.4801
13086SOL    HW243621   9.058   9.059   4.366  2.0408 -0.5728 -1.4648
13087SOL     OW43622   7.487   6.388   7.903  0.2900  0.2288 -0.3731
13087SOL    HW143623   7.447   6.304   7.882  1.7115 -0.4246 -0.5881
13087SOL    HW243624   7.420   6.435   7.952  0.2148 -1.8710  1.6841
13088SOL     OW43625   0.838   9.034   4.368  0.1679 -0.2113 -0.1886
13088SOL    HW143626   0.912   8.975   4.356 -0.0751 -0.6262  0.2815
13088SOL    HW243627   0.797   9.038   4.282  2.7782  2.9242 -1.4807
13089SOL     OW43628   0.832   2.925   7.980  0.0738  0.0681 -0.3108
13089SOL    HW143629   0.776   2.977   8.038  1.0128  2.2062 -1.2238
13089SOL    HW243630   0.899   2.888   8.038 -0.7298 -0.3390  0.3812
13090SOL     OW43631   0.512  10.685   0.774 -0.0574  0.6359  0.0156
13090SOL    HW143632   0.516  10.754   0.840 -1.3104  1.1330 -0.3999
13090SOL    HW243633   0.463  10.614   0.816  1.7834 -0.3183  0.6769
13091SOL     OW43634   2.830   7.110   0.547 -0.3311 -0.2414  0.0741
13091SOL    HW143635   2.859   7.093   0.637  0.8016 -0.2396 -0.2765
13091SOL    HW243636   2.760   7.047   0.532  0.5361 -1.3080  0.4247
13092SOL     OW43637   7.425   0.642   0.474  0.4767  0.1053 -0.5380
13092SOL    HW143638   7.479   0.719   0.453  0.7265  0.5446  1.4783
13092SOL    HW243639   7.335   0.674   0.470  0.5337  0.2475 -0.6847
13093SOL     OW43640   0.090   4.195   5.321  0.0008 -0.0933 -0.0236
13093SOL    HW143641   0.104   4.236   5.407  0.6979 -0.6040  0.1190
13093SOL    HW243642   0.006   4.150   5.329  0.8031 -1.5116  0.9713
13094SOL     OW43643  10.387   2.658   6.977  0.3494 -0.3446 -0.1961
13094SOL    HW143644  10.346   2.715   6.913 -0.3393 -0.2214  0.3371
13094SOL    HW243645  10.459   2.616   6.930  0.2917  0.2691 -0.8451
13095SOL     OW43646   1.166   6.704   8.657  0.2150  0.0774  0.3859
13095SOL    HW143647   1.180   6.770   8.725 -1.4557  1.4948 -0.5716
13095SOL    HW243648   1.134   6.627   8.705  0.5551  0.5218  1.3587
13096SOL     OW43649   4.393   1.684   6.970 -0.6975 -0.5530 -0.1549
13096SOL    HW143650   4.381   1.614   6.906  1.4253  0.8998 -2.3193
13096SOL    HW243651   4.481   1.668   7.005 -0.1227  1.0450 -0.7843
13097SOL     OW43652  10.519   5.965   3.097  0.0931  0.5120  0.0589
13097SOL    HW143653  10.464   6.009   3.032 -0.8253 -0.0672  0.4198
13097SOL    HW243654  10.523   6.025   3.171  1.5070  1.3680 -0.6728
13098SOL     OW43655   2.038   7.191   0.845  0.0066 -0.1860 -0.9934
13098SOL    HW143656   2.131   7.169   0.837  0.0963 -0.7852  1.0399
13098SOL    HW243657   1.996   7.143   0.774  1.2756  0.5083 -2.2760
13099SOL     OW43658   7.976   6.427   0.441  0.2414  0.3041 -0.4163
13099SOL    HW143659   7.893   6.382   0.425 -1.1729  2.9028 -0.7504
13099SOL    HW243660   8.019   6.428   0.356 -1.4919  2.8770 -1.3561
13100SOL     OW43661  10.756   0.119   3.112 -0.5825  0.7329  0.3673
13100SOL    HW143662  10.661   0.105   3.110 -0.7290  0.9059  3.0129
13100SOL    HW243663  10.775   0.141   3.203  2.1419 -0.1068  0.0727
13101SOL     OW43664   7.012   7.248   3.796  0.2606  0.0809  0.4407
13101SOL    HW143665   7.083   7.311   3.808  1.4124 -1.0591 -0.1059
13101SOL    HW243666   7.027   7.211   3.710 -1.0773 -0.1242  0.2727
13102SOL     OW43667   9.745   8.440   8.191 -0.5326  0.4075 -0.0746
13102SOL    HW143668   9.754   8.523   8.144 -1.9656  1.1438  0.8869
13102SOL    HW243669   9.675   8.456   8.254 -1.7069 -1.9328 -0.7087
13103SOL     OW43670   7.434   0.319   4.676  0.1443  0.0739  0.1425
13103SOL    HW143671   7.460   0.285   4.761  1.0932  0.4785  0.0236
13103SOL    HW243672   7.413   0.240   4.625  2.3551 -0.3841 -0.1413
13104SOL     OW43673   9.814   9.160   3.600 -0.2556 -0.2613 -0.1800
13104SOL    HW143674   9.819   9.251   3.568  1.2086  0.3976  1.7498
13104SOL    HW243675   9.836   9.107   3.523 -2.3376  0.8734 -1.6862
13105SOL     OW43676   7.483   8.859   2.665 -0.2043 -0.1999  0.5020
13105SOL    HW143677   7.404   8.908   2.687 -0.7962 -0.7879 -0.2196
13105SOL    HW243678   7.472   8.775   2.710 -0.4326 -0.6149 -0.2914
13106SOL     OW43679   7.473  11.031   7.869 -0.0254 -0.5743 -0.1047
13106SOL    HW143680   7.496  11.031   7.962  1.5078  2.0046 -0.3636
13106SOL    HW243681   7.551  11.067   7.825 -0.7981 -1.4642 -2.3698
13107SOL     OW43682   5.154  10.809   5.129  0.0968 -0.7046 -0.3080
13107SOL    HW143683   5.200  10.839   5.207  0.3409  2.0390 -1.3963
13107SOL    HW243684   5.063  10.800   5.157  0.6117 -2.6729  0.9597
13108SOL     OW43685   3.415   5.750   1.135  0.6123 -0.2928 -0.2974
13108SOL    HW143686   3.390   5.672   1.185  0.3983 -0.0596 -0.0347
13108SOL    HW243687   3.404   5.822   1.197  0.9168 -0.0671 -0.5070
13109SOL     OW43688   5.949   6.173   2.721 -0.1709 -0.1876  0.5062
13109SOL    HW143689   5.872   6.228   2.710  0.6346  1.2016  1.4177
13109SOL    HW243690   5.953   6.155   2.815 -0.6223 -2.1641  0.1841
13110SOL     OW43691   2.792   7.654   8.211 -0.7201 -0.0861  0.0625
13110SOL    HW143692   2.749   7.737   8.191 -0.5437  0.2624  1.0958
13110SOL    HW243693   2.848   7.674   8.286  1.1713 -0.5495 -1.1785
13111SOL     OW43694   4.897   3.898   1.859  0.1889  0.5711  0.3225
13111SOL    HW143695   4.888   3.823   1.917  1.8719 -0.2652 -0.4312
13111SOL    HW243696   4.943   3.963   1.911 -2.2208  1.5984  1.3482
13112SOL     OW43697   8.240   5.692   4.307 -0.0831 -0.2048 -0.1982
13112SOL    HW143698   8.269   5.602   4.295  0.1834  0.0697 -1.8565
13112SOL    HW243699   8.185   5.689   4.386  0.7582 -1.5923  0.3871
13113SOL     OW43700   4.629   5.797   5.207  0.3994  0.5867  0.1112
13113SOL    HW143701   4.604   5.732   5.141 -0.0095  1.1218 -0.2737
13113SOL    HW243702   4.557   5.797   5.270 -0.9110  2.4527 -1.2370
13114SOL     OW43703   7.530   3.446   4.303  0.0331 -0.1173  0.1042
13114SOL    HW143704   7.561   3.509   4.239 -1.1098 -1.1111 -1.5018
13114SOL    HW243705   7.525   3.363   4.255  0.4964 -1.2270  1.8655
13115SOL     OW43706   2.395   3.988   9.750 -0.0557  0.0665  0.4030
13115SOL    HW143707   2.467   3.988   9.814  0.7365 -1.5168 -0.4191
13115SOL    HW243708   2.381   4.080   9.730 -0.1211  0.6049  2.6060
13116SOL     OW43709   8.461   6.180   6.323 -0.2586 -0.2782  0.4686
13116SOL    HW143710   8.425   6.231   6.250 -0.1228 -1.1731 -0.2438
13116SOL    HW243711   8.384   6.135   6.360 -0.3921  0.4973  1.1472
13117SOL     OW43712   2.317   9.238   3.910 -0.1018  0.2893 -0.2304
13117SOL    HW143713   2.252   9.168   3.909 -0.4051  0.5180  1.1067
13117SOL    HW243714   2.303   9.282   3.994  2.2949 -0.1375  0.4577
13118SOL     OW43715   1.102   7.423   3.736  0.3150  0.1536  0.1562
13118SOL    HW143716   1.110   7.510   3.775 -1.3197  1.0781 -1.4222
13118SOL    HW243717   1.143   7.430   3.650 -0.6941 -0.3261 -0.3831
13119SOL     OW43718   4.584   8.160   7.592  0.5314 -0.3768  0.1479
13119SOL    HW143719   4.661   8.156   7.648  0.2031  0.1232  0.6435
13119SOL    HW243720   4.520   8.211   7.642  1.1377  2.4243 -1.7654
13120SOL     OW43721   5.546   9.116   5.004  0.1006 -0.4377 -0.6067
13120SOL    HW143722   5.471   9.069   4.967  1.3843 -2.4029 -0.8163
13120SOL    HW243723   5.614   9.110   4.937  1.7318 -2.1058  1.0951
13121SOL     OW43724   7.902   6.118   8.099 -0.0063 -0.3573 -0.4576
13121SOL    HW143725   7.822   6.078   8.135 -0.4163 -0.2015 -1.1792
13121SOL    HW243726   7.968   6.048   8.103 -0.3017 -0.6295 -0.2800
13122SOL     OW43727   7.759   4.159   3.907  0.0316  0.8827  0.1565
13122SOL    HW143728   7.722   4.140   3.994 -0.4775 -0.4840 -0.3286
13122SOL    HW243729   7.694   4.214   3.864  0.7039  2.3562  0.9415
13123SOL     OW43730   8.063   6.961   0.606  0.4014 -0.5899  0.2171
13123SOL    HW143731   8.073   6.915   0.522 -0.3240 -0.4288  0.0331
13123SOL    HW243732   7.982   6.925   0.642 -1.1792  1.7714 -0.7440
13124SOL     OW43733   9.758   9.924  10.979 -0.0636  0.2631  0.6116
13124SOL    HW143734   9.675   9.885  10.951 -0.0851 -0.3934  1.5585
13124SOL    HW243735   9.801   9.856  11.031  0.9800  0.6734  0.3093
13125SOL     OW43736   7.068   5.369   7.407 -0.5120 -0.1641  0.2842
13125SOL    HW143737   7.043   5.407   7.491 -0.8092 -0.6340  0.4111
13125SOL    HW243738   7.046   5.437   7.343 -0.2970  0.1879  0.5839
13126SOL     OW43739   3.292   6.066  11.009 -0.0344 -0.3463 -0.2542
13126SOL    HW143740   3.331   6.135  11.063  0.8639 -1.1672  0.1841
13126SOL    HW243741   3.223   6.110  10.959 -0.6427  0.4996  1.2869
13127SOL     OW43742   5.572   3.506   4.903 -0.0245 -0.5756  0.2385
13127SOL    HW143743   5.607   3.506   4.814  0.6773 -0.7254  0.5089
13127SOL    HW243744   5.571   3.598   4.928  0.3089 -0.5812  0.2770
13128SOL     OW43745   7.652   6.420   2.062  0.3907  0.1654  0.3697
13128SOL    HW143746   7.689   6.418   1.973  0.2168 -0.1685  0.3039
13128SOL    HW243747   7.680   6.338   2.102 -0.4605 -0.2019  0.2390
13129SOL     OW43748   2.519   8.132   7.343  0.1700  0.5305  0.0492
13129SOL    HW143749   2.481   8.203   7.290  2.2311  2.6270  1.1996
13129SOL    HW243750   2.480   8.143   7.429  1.2532  0.9209  0.4970
13130SOL     OW43751   9.301   7.131   4.664 -0.3319  0.7143  0.3484
13130SOL    HW143752   9.267   7.124   4.575 -0.2705 -1.7228  0.4490
13130SOL    HW243753   9.394   7.112   4.656  0.3476  3.4430  0.6141
13131SOL     OW43754   9.452   9.496   4.250  0.4095  0.0541 -0.6679
13131SOL    HW143755   9.436   9.431   4.182  1.3340 -0.6823 -0.1880
13131SOL    HW243756   9.452   9.447   4.331  1.4084  0.5940 -0.3243
13132SOL     OW43757   6.460  10.162   4.587  0.8703 -0.0422  0.0084
13132SOL    HW143758   6.435  10.072   4.603 -0.2671  0.2641  0.0298
13132SOL    HW243759   6.382  10.203   4.549  0.2162  1.7474  2.9295
13133SOL     OW43760   5.005   8.678   9.684  0.6975  0.3678 -0.6422
13133SOL    HW143761   5.027   8.761   9.642  1.8904  0.0139 -0.7586
13133SOL    HW243762   4.922   8.652   9.644 -1.5645  3.1138  1.7897
13134SOL     OW43763   5.489   2.638   8.556  0.2073 -0.2220 -0.0416
13134SOL    HW143764   5.473   2.546   8.533  1.0970 -0.1075 -1.2834
13134SOL    HW243765   5.440   2.688   8.491  0.5442  0.1669 -0.0017
13135SOL     OW43766   6.168   6.797  10.664  0.3701  0.0306 -0.1651
13135SOL    HW143767   6.119   6.857  10.608 -0.0099 -1.6353 -1.7196
13135SOL    HW243768   6.255   6.837  10.673 -0.2172  1.3488 -0.1879
13136SOL     OW43769   5.305   5.858   6.847 -0.6960  0.4130  0.2007
13136SOL    HW143770   5.277   5.924   6.783 -0.2940  0.6035  0.2206
13136SOL    HW243771   5.349   5.908   6.916 -1.7304  0.2902  0.9838
13137SOL     OW43772   3.232   8.947   3.662  0.0543  0.1770  0.2760
13137SOL    HW143773   3.294   9.013   3.693  1.0406 -1.2970  1.6294
13137SOL    HW243774   3.189   8.988   3.587  2.8219  1.2398 -0.8940
13138SOL     OW43775   6.673   9.563   9.037 -0.3098 -0.4398  0.3972
13138SOL    HW143776   6.751   9.611   9.065 -1.7129  2.7103 -0.5988
13138SOL    HW243777   6.683   9.553   8.943 -1.0909 -0.0250  0.2624
13139SOL     OW43778   7.003   8.259   5.256 -0.0362  0.1354 -0.2194
13139SOL    HW143779   6.984   8.351   5.239 -1.7564 -0.3084 -0.8446
13139SOL    HW243780   7.080   8.241   5.201 -0.7557  0.7595 -1.4723
13140SOL     OW43781  10.678   7.327   0.423  0.0731  0.2149 -0.6897
13140SOL    HW143782  10.772   7.315   0.431  0.0057 -0.0468 -0.2655
13140SOL    HW243783  10.660   7.412   0.464 -0.0669 -0.4196  0.5938
13141SOL     OW43784   8.570   6.786   3.496  0.2994 -0.3155  0.1617
13141SOL    HW143785   8.602   6.872   3.467 -1.8664  0.0712 -1.3297
13141SOL    HW243786   8.515   6.806   3.572  0.5724 -0.5335  0.4219
13142SOL     OW43787   4.097   4.365   5.342 -0.0736  0.0971 -0.4844
13142SOL    HW143788   4.149   4.385   5.265 -0.9562  0.0288 -1.1027
13142SOL    HW243789   4.025   4.427   5.340 -1.1673 -1.1411 -0.7823
13143SOL     OW43790   4.859   2.420  10.319  0.2677  0.2370  0.0642
13143SOL    HW143791   4.874   2.489  10.383  1.2692  0.9347 -0.8859
13143SOL    HW243792   4.912   2.346  10.350 -0.9399 -0.2056  1.1733
13144SOL     OW43793   2.685   8.741   7.503 -0.3312 -0.6114  0.0865
13144SOL    HW143794   2.613   8.787   7.460 -0.1644 -0.9414 -0.5518
13144SOL    HW243795   2.764   8.772   7.458  0.1983  1.5747  2.3207
13145SOL     OW43796   5.152   8.099  10.209 -0.0940  0.0111 -0.1097
13145SOL    HW143797   5.172   8.175  10.154  0.1282  0.5855  0.7347
13145SOL    HW243798   5.155   8.024  10.150 -1.2083  0.7483 -1.1646
13146SOL     OW43799   4.490   8.312   5.917  0.4052  0.1771  0.2889
13146SOL    HW143800   4.497   8.288   6.010 -0.4549  1.3324  0.6697
13146SOL    HW243801   4.571   8.361   5.899  1.0645 -0.9315  0.1266
13147SOL     OW43802   9.307   6.686   6.048 -0.6244 -0.1165  0.2710
13147SOL    HW143803   9.252   6.744   5.994  0.1497 -0.2441 -0.6801
13147SOL    HW243804   9.315   6.606   5.996 -1.8860 -1.2275  1.6734
13148SOL     OW43805   6.008   4.545   1.652  0.3125  0.4485  0.2677
13148SOL    HW143806   5.938   4.495   1.610  0.3822  1.1783 -0.7650
13148SOL    HW243807   5.966   4.626   1.682  0.3650  0.1376  1.2101
13149SOL     OW43808   5.499   5.734   7.893  0.2670  0.0271  0.4119
13149SOL    HW143809   5.578   5.784   7.912  0.4016  0.0312 -0.1457
13149SOL    HW243810   5.503   5.659   7.952  0.9335 -0.2273  0.0459
13150SOL     OW43811   6.170   3.814   2.646  0.6855  0.4251  0.1985
13150SOL    HW143812   6.216   3.770   2.718 -0.3334  0.0558  0.6449
13150SOL    HW243813   6.160   3.746   2.579 -0.1576  0.1981  0.5476
13151SOL     OW43814   8.348   1.207   3.781  0.6269 -0.2443 -0.0123
13151SOL    HW143815   8.391   1.202   3.866  1.4406  0.4631 -0.3627
13151SOL    HW243816   8.420   1.215   3.718  0.0627 -1.1561 -0.8164
13152SOL     OW43817   3.633   7.536   1.144  0.1989  0.6020  0.1434
13152SOL    HW143818   3.713   7.501   1.104  0.7543 -0.4549  2.0446
13152SOL    HW243819   3.650   7.630   1.153  0.5943  0.6310 -0.8564
13153SOL     OW43820   6.366   4.997   4.023  0.6453 -0.5757 -0.0573
13153SOL    HW143821   6.293   5.056   4.004  0.5239 -0.5712  0.4057
13153SOL    HW243822   6.442   5.054   4.027  0.5936 -0.5071 -0.0342
13154SOL     OW43823   7.539   6.792   5.399 -0.5650  0.0529 -0.4510
13154SOL    HW143824   7.592   6.735   5.344 -0.2766  2.4979 -2.9534
13154SOL    HW243825   7.562   6.768   5.489  0.8431 -2.4507 -1.3997
13155SOL     OW43826   1.486   6.694   4.858  0.1384 -0.0611  0.1347
13155SOL    HW143827   1.398   6.732   4.864  0.3293  0.7942 -1.6962
13155SOL    HW243828   1.495   6.641   4.937 -1.5641  0.7857  0.9525
13156SOL     OW43829   4.014   7.046   2.872  0.3042  0.2394  0.3816
13156SOL    HW143830   3.932   7.014   2.834  0.1534 -0.1646  1.0406
13156SOL    HW243831   4.054   7.099   2.802 -0.1865 -0.1223 -0.1793
13157SOL     OW43832   4.917   3.217   7.973 -0.2941  0.1810  0.5489
13157SOL    HW143833   4.955   3.252   7.892 -0.0606  0.4278  0.7614
13157SOL    HW243834   4.972   3.141   7.994  1.0543  1.3775  1.6458
13158SOL     OW43835   3.159  10.154  10.063 -0.1426  0.7262  0.2774
13158SOL    HW143836   3.172  10.249  10.069  3.0241  0.4355 -0.3199
13158SOL    HW243837   3.242  10.116  10.092 -0.5937 -1.8140 -1.3765
13159SOL     OW43838   1.214   0.584   4.259  0.6055 -0.2631 -0.3716
13159SOL    HW143839   1.255   0.543   4.335  0.0311 -0.6119 -0.2450
13159SOL    HW243840   1.173   0.511   4.212 -1.8121  0.3106  0.6998
13160SOL     OW43841   3.366  10.880  10.214 -0.0167  0.0052 -0.0019
13160SOL    HW143842   3.418  10.898  10.135 -0.9799  1.4980 -0.3422
13160SOL    HW243843   3.283  10.925  10.199 -0.2594  0.2559  1.8424
13161SOL     OW43844   2.568   5.789   0.080 -0.1119 -0.1429  0.1231
13161SOL    HW143845   2.623   5.714   0.104  0.2601  0.0013 -0.2664
13161SOL    HW243846   2.478   5.757   0.089  0.0400 -1.0167 -1.2164
13162SOL     OW43847   6.231   4.742   8.263  0.3848  0.5173  0.3573
13162SOL    HW143848   6.222   4.678   8.192  0.2716  0.7434  0.1631
13162SOL    HW243849   6.206   4.825   8.222  1.2553  0.8101  0.3997
13163SOL     OW43850   6.896   2.365   1.196 -0.2459 -0.0812 -0.3254
13163SOL    HW143851   6.831   2.300   1.168  1.5418 -1.5188 -1.3683
13163SOL    HW243852   6.978   2.315   1.203  0.6170  1.4854  1.7703
13164SOL     OW43853   0.375  10.362   0.255  0.1101  1.0633 -0.0190
13164SOL    HW143854   0.419  10.416   0.189  0.9346  1.7085  1.0164
13164SOL    HW243855   0.447  10.320   0.302 -0.4535  0.7375  0.5588
13165SOL     OW43856   2.307   8.272   0.352 -0.1675  0.1438  0.0553
13165SOL    HW143857   2.245   8.240   0.417  1.0118  1.0883  1.7272
13165SOL    HW243858   2.314   8.201   0.288  0.0472 -1.6495  1.9605
13166SOL     OW43859   0.089  10.660   6.467 -0.2686  0.2705  0.6727
13166SOL    HW143860   0.077  10.736   6.523  2.6394  0.2098  1.4942
13166SOL    HW243861   0.070  10.585   6.523  0.0456  0.2871  0.7998
13167SOL     OW43862   5.286   8.237   6.494 -0.2313  0.0761  0.5031
13167SOL    HW143863   5.220   8.170   6.506 -0.9575  0.6537 -0.1557
13167SOL    HW243864   5.342   8.204   6.425  0.0234 -0.3018  0.8872
13168SOL     OW43865   5.678   3.142   7.368  0.0439  0.4219  0.0135
13168SOL    HW143866   5.731   3.062   7.375  1.1448  1.2085  0.8754
13168SOL    HW243867   5.588   3.110   7.360  0.2445 -0.9084  2.2423
13169SOL     OW43868   5.721   3.259   8.321  0.2467  0.2020  0.0868
13169SOL    HW143869   5.746   3.341   8.364  0.2258  2.5579 -3.8889
13169SOL    HW243870   5.641   3.232   8.366 -0.4909  3.1161  0.7693
13170SOL     OW43871   1.466   3.107   3.779  0.0112 -0.3286 -0.1057
13170SOL    HW143872   1.431   3.058   3.705  0.4374 -0.5063 -0.1929
13170SOL    HW243873   1.427   3.066   3.856  1.9071 -2.1797 -0.0303
13171SOL     OW43874   2.160   7.922   1.034  0.5154  0.1819 -0.4604
13171SOL    HW143875   2.167   7.844   0.979  1.0260  1.3306 -2.1043
13171SOL    HW243876   2.227   7.909   1.101  0.4508 -0.8825 -0.5786
13172SOL     OW43877   6.352   5.539   6.364 -0.3866  0.5827  0.5917
13172SOL    HW143878   6.348   5.444   6.374  1.9946  0.3470 -0.1318
13172SOL    HW243879   6.323   5.555   6.274 -0.7919  0.5711  0.7151
13173SOL     OW43880   1.890   9.458   0.867 -0.4551 -0.1467 -0.2338
13173SOL    HW143881   1.973   9.488   0.830 -0.4402  0.5519  0.3525
13173SOL    HW243882   1.843   9.539   0.890 -0.4192 -0.5673  1.3768
13174SOL     OW43883   9.639   7.056   0.477 -0.1582  0.3659  0.3329
13174SOL    HW143884   9.633   6.976   0.529 -1.1143  0.9376  1.1279
13174SOL    HW243885   9.674   7.122   0.537 -1.2184  1.0194  0.2532
13175SOL     OW43886   5.688   7.891   0.054 -0.1462  0.0344  0.2028
13175SOL    HW143887   5.610   7.946   0.045  0.7004  1.2755  0.1495
13175SOL    HW243888   5.759   7.953   0.072  0.4850 -1.2315  2.4073
13176SOL     OW43889   3.890   2.996   5.612 -0.2414 -0.2250 -0.1382
13176SOL    HW143890   3.890   2.965   5.703 -2.2510  1.0638  0.3601
13176SOL    HW243891   3.831   2.936   5.567  0.2623 -0.4795 -0.4669
13177SOL     OW43892   9.142   3.001   9.988 -0.4182  0.0529  0.0593
13177SOL    HW143893   9.091   3.061   9.933  0.6101  0.2560 -0.7100
13177SOL    HW243894   9.177   2.936   9.926  0.1218 -0.1702  0.5876
13178SOL     OW43895   9.385   8.506   2.879  0.0807  0.0717  0.1066
13178SOL    HW143896   9.420   8.560   2.808  0.0660 -0.5002 -0.3445
13178SOL    HW243897   9.450   8.437   2.890  0.6222  0.7482  1.3906
13179SOL     OW43898  10.655  10.219   5.228 -0.4301  0.2565  0.1069
13179SOL    HW143899  10.744  10.254   5.223  0.7151 -2.5208 -0.4848
13179SOL    HW243900  10.614  10.245   5.146  2.0456 -3.6919 -2.7116
13180SOL     OW43901   6.663   3.642   3.389  0.2560  0.9076  0.1806
13180SOL    HW143902   6.571   3.649   3.416  0.2660  0.9055  0.2147
13180SOL    HW243903   6.674   3.712   3.324 -0.1995 -0.1069 -1.0430
13181SOL     OW43904   2.996   4.460   7.209  0.1244  0.0588  0.8731
13181SOL    HW143905   3.091   4.451   7.202  0.0980  0.3116  0.2103
13181SOL    HW243906   2.973   4.532   7.150 -0.8874 -2.1723 -1.6284
13182SOL     OW43907   3.788   4.771   7.183  0.2775 -0.1486 -0.0393
13182SOL    HW143908   3.777   4.865   7.191 -0.5706 -0.3328  1.2375
13182SOL    HW243909   3.857   4.760   7.117  0.0875  1.3369 -0.5141
13183SOL     OW43910   6.524   7.181   6.708 -0.1352  0.4767 -0.5781
13183SOL    HW143911   6.500   7.211   6.796 -1.6792  0.3230 -0.9113
13183SOL    HW243912   6.442   7.188   6.658  0.3290 -0.9375 -1.5821
13184SOL     OW43913   0.727   6.438   0.922 -0.0967 -0.7913  0.6907
13184SOL    HW143914   0.720   6.517   0.976 -1.7286 -0.7996  0.5697
13184SOL    HW243915   0.690   6.369   0.977  0.8839 -1.3760  0.6183
13185SOL     OW43916   7.728   9.410   1.368  0.3854  0.7078 -0.2763
13185SOL    HW143917   7.645   9.458   1.368 -1.6182 -2.4267  1.5351
13185SOL    HW243918   7.788   9.468   1.415 -1.6438  1.8716  1.0675
13186SOL     OW43919   4.024  10.544   2.960  0.2355 -0.2530 -0.0868
13186SOL    HW143920   4.007  10.548   3.054  0.7077 -0.4363  0.0055
13186SOL    HW243921   3.938  10.531   2.921  0.1641 -1.2579  0.3830
13187SOL     OW43922   6.737   6.608   1.301  0.4598 -0.5607  0.4535
13187SOL    HW143923   6.689   6.672   1.353 -1.6326 -0.9031 -0.9244
13187SOL    HW243924   6.786   6.661   1.238 -0.2120 -0.2694  0.1702
13188SOL     OW43925   9.871   3.443   6.135 -0.9202  0.7594 -0.7534
13188SOL    HW143926   9.776   3.440   6.147 -0.7043  0.2853  1.2695
13188SOL    HW243927   9.904   3.369   6.185  0.6512  2.2215  0.5203
13189SOL     OW43928   5.944  10.370   3.819  0.7040  0.4238 -0.1196
13189SOL    HW143929   5.923  10.442   3.760 -1.3081  0.3625  0.4548
13189SOL    HW243930   5.995  10.309   3.766 -1.4814  0.1129 -1.9825
13190SOL     OW43931   1.175   2.234   8.075  0.0760  0.5737  0.2723
13190SOL    HW143932   1.106   2.264   8.134 -1.5828 -0.4663 -1.0714
13190SOL    HW243933   1.162   2.140   8.068  2.1261  0.2052  0.5406
13191SOL     OW43934   0.887   3.516   0.607  0.2831  0.4041  0.1856
13191SOL    HW143935   0.846   3.445   0.557  2.7182 -0.1050 -1.2872
13191SOL    HW243936   0.839   3.595   0.582 -0.4209 -0.2909 -0.6939
13192SOL     OW43937   6.535   9.811   9.789  0.0595  0.1011 -0.4642
13192SOL    HW143938   6.507   9.730   9.745 -0.7608 -0.3612  0.8440
13192SOL    HW243939   6.502   9.802   9.879  0.2333  1.7564 -0.2034
13193SOL     OW43940   3.560   9.209  10.824 -0.0684 -0.3541 -0.2108
13193SOL    HW143941   3.645   9.248  10.803  0.0950 -0.5708  0.0357
13193SOL    HW243942   3.538   9.158  10.746 -0.4536  0.5067 -0.6775
13194SOL     OW43943   0.914   7.634   1.449 -0.3096 -0.0546  0.0825
13194SOL    HW143944   0.917   7.664   1.540  0.5037 -0.2946  0.1463
13194SOL    HW243945   0.826   7.599   1.438  0.2448 -2.0480  1.4575
13195SOL     OW43946   4.515   0.679   0.983 -0.4054  0.8942  0.0551
13195SOL    HW143947   4.423   0.698   1.000 -0.6006  1.9692 -1.8233
13195SOL    HW243948   4.516   0.587   0.955 -0.8461  0.7556  0.4888
13196SOL     OW43949   7.441   0.870  10.639  0.4728  0.1728 -0.4259
13196SOL    HW143950   7.369   0.928  10.613  1.5905  1.0526 -1.6371
13196SOL    HW243951   7.518   0.927  10.642  1.2906 -0.9247  0.0072
13197SOL     OW43952   8.857   5.762   4.844  0.3280 -0.1541 -0.5905
13197SOL    HW143953   8.897   5.703   4.907  0.2465  0.0744 -0.3190
13197SOL    HW243954   8.928   5.787   4.784  0.4375 -0.2603 -0.5037
13198SOL     OW43955   0.641   1.694   6.503  0.2867  0.2130 -0.6482
13198SOL    HW143956   0.610   1.642   6.577  1.1240  1.1393  0.3855
13198SOL    HW243957   0.631   1.635   6.427 -1.7163 -0.3360 -0.0321
13199SOL     OW43958   9.761   9.293  10.259 -0.6941  0.1645 -0.4057
13199SOL    HW143959   9.833   9.258  10.206 -2.0221 -0.0580 -2.1310
13199SOL    HW243960   9.725   9.216  10.303 -1.9442 -0.2911 -2.1442
13200SOL     OW43961   0.871   0.174   8.273  0.3583 -0.3612 -0.1345
13200SOL    HW143962   0.848   0.116   8.201  0.3011  0.9001 -1.1682
13200SOL    HW243963   0.787   0.199   8.312  0.1973  0.8882 -1.2160
13201SOL     OW43964   3.813   5.138   4.393 -0.0706  0.2022 -0.2352
13201SOL    HW143965   3.757   5.215   4.404 -0.7638  0.1211 -2.5440
13201SOL    HW243966   3.889   5.171   4.345  0.8937 -0.1003  1.0341
13202SOL     OW43967   2.013   9.875   8.103 -0.1288  0.1011  0.7959
13202SOL    HW143968   2.093   9.924   8.084  0.6029 -1.4385 -0.2240
13202SOL    HW243969   2.019   9.854   8.196  0.4070  0.4134  0.8325
13203SOL     OW43970  10.373   0.799   7.520 -0.1095 -0.2254 -0.3571
13203SOL    HW143971  10.326   0.797   7.604 -0.6948 -0.6310 -0.6838
13203SOL    HW243972  10.373   0.708   7.491  2.9358 -0.6798  0.7258
13204SOL     OW43973  11.036   5.979   0.873  0.3061  0.5255  0.0760
13204SOL    HW143974  11.020   6.051   0.935  1.5034 -0.4148  1.5643
13204SOL    HW243975  11.065   6.023   0.793 -0.3264  1.7530  0.4835
13205SOL     OW43976   0.254   6.730   0.049 -0.3526  0.3647 -0.4463
13205SOL    HW143977   0.251   6.812   0.098 -0.5919 -0.2047  0.5443
13205SOL    HW243978   0.266   6.756  -0.042 -0.3024  1.4857 -0.1372
13206SOL     OW43979   0.972   6.508   1.738 -0.3033 -0.2326  0.1849
13206SOL    HW143980   1.044   6.445   1.731  0.6882  0.8566  0.2638
13206SOL    HW243981   0.919   6.476   1.810  0.7167 -0.4731  0.8555
13207SOL     OW43982   5.042   9.336   6.018  0.8053 -0.5164  0.9118
13207SOL    HW143983   4.955   9.375   6.005  0.8177  0.2121  2.6292
13207SOL    HW243984   5.040   9.256   5.967  0.2027  0.9329 -1.4973
13208SOL     OW43985   6.564   0.646   6.949 -0.0658  0.1862  0.3830
13208SOL    HW143986   6.613   0.660   7.030  1.3649  0.7316 -0.5502
13208SOL    HW243987   6.590   0.560   6.918  0.3241  0.4758 -0.1149
13209SOL     OW43988  11.034   0.531   4.380 -0.4973 -0.2103  0.1792
13209SOL    HW143989  11.071   0.517   4.467  3.4051  0.5594 -1.1243
13209SOL    HW243990  11.039   0.626   4.366  0.6684 -0.4536 -1.4437
13210SOL     OW43991   8.058   1.891   7.164  0.0035 -0.2149  0.5874
13210SOL    HW143992   8.149   1.865   7.172  0.4489  0.9615 -0.3101
13210SOL    HW243993   8.011   1.811   7.141  0.8873 -0.7267  0.5480
13211SOL     OW43994  10.867   4.314   6.165 -0.3044  0.7239 -0.0525
13211SOL    HW143995  10.961   4.301   6.173 -0.4212 -0.1023  0.0400
13211SOL    HW243996  10.831   4.287   6.250 -0.6617  0.6511 -0.2222
13212SOL     OW43997   7.026  10.754   3.632  0.0662  0.5269  0.0060
13212SOL    HW143998   6.986  10.830   3.590  1.2858  0.0063 -2.2524
13212SOL    HW243999   7.082  10.792   3.700  0.7369  1.7182 -1.1388
13213SOL     OW44000   5.719  10.085   0.382  0.3983 -0.5623  0.7851
13213SOL    HW144001   5.684  10.171   0.406  0.4508 -0.5962  0.9851
13213SOL    HW244002   5.731  10.039   0.466  1.9467 -0.1470  0.8338
13214SOL     OW44003   8.408   5.258   7.190 -0.1561 -0.2049  0.1762
13214SOL    HW144004   8.355   5.229   7.116 -0.6506  1.9810 -0.4229
13214SOL    HW244005   8.488   5.206   7.186  0.7657  1.2235 -3.2372
13215SOL     OW44006   7.086   2.327   1.657  0.0573  0.0059  0.8977
13215SOL    HW144007   7.129   2.292   1.579  2.0089 -0.4883  2.1213
13215SOL    HW244008   6.993   2.327   1.636  0.6003  1.4430 -2.0513
13216SOL     OW44009   7.805  10.485   2.118 -0.0768 -0.5737  0.3074
13216SOL    HW144010   7.751  10.538   2.059 -0.3996  1.1017  2.0298
13216SOL    HW244011   7.841  10.416   2.062 -2.8432 -0.9352 -1.2253
13217SOL     OW44012   9.090  10.316   9.999 -0.2991 -0.6524  0.3055
13217SOL    HW144013   9.114  10.345   9.910 -0.3749 -1.3465  0.0492
13217SOL    HW244014   8.996  10.301   9.995  0.0808 -3.4711 -0.3643
13218SOL     OW44015   1.392   9.594   1.967 -0.4779  0.0675 -0.0960
13218SOL    HW144016   1.400   9.680   2.008  1.1975  0.0767 -0.3713
13218SOL    HW244017   1.432   9.534   2.029 -0.1857 -0.2805 -0.6132
13219SOL     OW44018   8.220   1.578   0.423 -0.2404  0.4799  0.3126
13219SOL    HW144019   8.143   1.521   0.424  0.0182  0.1290  1.0604
13219SOL    HW244020   8.193   1.656   0.471  0.5000 -0.5296  2.4827
13220SOL     OW44021   4.696   6.569  10.560  0.2186  0.0832  0.5179
13220SOL    HW144022   4.654   6.491  10.524 -0.3171 -0.2210  1.7651
13220SOL    HW244023   4.648   6.588  10.641  0.4743  1.5850  0.3572
13221SOL     OW44024   1.181   2.985   5.372 -0.3404 -0.4186 -0.1088
13221SOL    HW144025   1.210   2.915   5.314 -0.4998 -1.9049  1.5347
13221SOL    HW244026   1.087   2.990   5.360 -0.5207 -1.4372  0.7232
13222SOL     OW44027   8.870   8.272   3.029  0.3755 -0.0896  0.4552
13222SOL    HW144028   8.807   8.260   3.100  1.4387  1.8643  1.8377
13222SOL    HW244029   8.916   8.353   3.052  0.9628  0.4601 -2.3419
13223SOL     OW44030   7.766   0.300   8.395  0.0489  0.2998  0.0122
13223SOL    HW144031   7.849   0.309   8.441 -0.0770  2.8584 -0.1325
13223SOL    HW244032   7.788   0.252   8.315  1.1624 -0.0528  0.5123
13224SOL     OW44033   7.853   6.428   7.357  0.0781  0.3682  0.3659
13224SOL    HW144034   7.851   6.482   7.435  1.7586  0.0923  0.6534
13224SOL    HW244035   7.901   6.481   7.293 -0.4111  0.1982 -0.1458
13225SOL     OW44036   0.096   3.361   4.165 -0.2198 -0.0101  0.3615
13225SOL    HW144037   0.032   3.430   4.147 -1.0257 -0.3164  1.8874
13225SOL    HW244038   0.179   3.408   4.176 -0.6006  0.6314  0.5396
13226SOL     OW44039  10.492   4.725   9.798  0.0832 -0.0969 -0.3949
13226SOL    HW144040  10.416   4.671   9.778  0.7773 -1.9139  1.4854
13226SOL    HW244041  10.494   4.729   9.894  0.3675  2.9314 -0.4295
13227SOL     OW44042   5.998   6.018   4.796 -0.0216 -0.0695 -0.3052
13227SOL    HW144043   5.983   5.956   4.725  2.3503 -0.5010 -0.4894
13227SOL    HW244044   5.989   6.104   4.756  1.3448 -0.3066 -1.1886
13228SOL     OW44045  10.020   1.137   8.733 -0.0045 -0.0915  0.2113
13228SOL    HW144046   9.952   1.127   8.665  0.8669 -1.7727 -0.4819
13228SOL    HW244047   9.971   1.138   8.815 -0.9629  0.1480 -0.3384
13229SOL     OW44048   6.496   7.791   5.366 -0.1140 -0.2894  0.3058
13229SOL    HW144049   6.459   7.874   5.397 -3.6874 -2.0263  1.1298
13229SOL    HW244050   6.445   7.770   5.288  1.4919 -1.2397 -0.5277
13230SOL     OW44051   6.028   2.276   9.861 -0.0697 -0.6280  0.5629
13230SOL    HW144052   5.933   2.279   9.867 -0.0358  0.3633  0.6482
13230SOL    HW244053   6.047   2.254   9.770 -0.3841 -1.8012  0.7644
13231SOL     OW44054   9.767   6.425   5.674 -0.1771  0.9387 -0.4385
13231SOL    HW144055   9.760   6.498   5.736  0.1501  0.1171  0.6048
13231SOL    HW244056   9.854   6.433   5.637  0.4905  0.1761  0.8882
13232SOL     OW44057   7.773  11.066   8.432  0.1692  0.2050  0.0370
13232SOL    HW144058   7.821  11.029   8.358  1.8252 -1.1840  1.7049
13232SOL    HW244059   7.681  11.052   8.410  0.6321 -4.1447  0.0517
13233SOL     OW44060  10.851  10.122   2.324 -0.2138  0.1592 -0.5771
13233SOL    HW144061  10.822  10.198   2.273  0.2985 -0.0719 -1.2175
13233SOL    HW244062  10.773  10.068   2.333 -0.4715  0.5357 -0.5168
13234SOL     OW44063   8.744   7.782   2.711 -0.1961 -0.1505  0.1143
13234SOL    HW144064   8.800   7.760   2.785  0.6144  2.0394  0.2186
13234SOL    HW244065   8.801   7.775   2.634 -0.4760 -0.3842 -0.0768
13235SOL     OW44066   8.307   4.423   7.947 -0.1980  0.1379  0.4590
13235SOL    HW144067   8.365   4.448   8.019 -0.5840  0.0136  0.8169
13235SOL    HW244068   8.224   4.467   7.966 -0.4161 -0.1943  0.2906
13236SOL     OW44069   9.638   4.631   4.937  0.2127 -0.0807  0.1183
13236SOL    HW144070   9.636   4.631   4.841 -1.6579 -0.6699  0.1169
13236SOL    HW244071   9.591   4.552   4.962 -1.7226  1.4187  1.5113
13237SOL     OW44072  10.427   3.945  10.755 -0.2485 -0.2347  0.0114
13237SOL    HW144073  10.454   4.025  10.800 -0.3768  0.3917 -0.9833
13237SOL    HW244074  10.423   3.970  10.662 -2.2148 -0.8507 -0.1086
13238SOL     OW44075   7.350   7.210   3.573  0.2535 -0.3691 -0.1177
13238SOL    HW144076   7.387   7.243   3.492  1.9833 -0.1443  0.7058
13238SOL    HW244077   7.421   7.158   3.612 -0.7506 -1.0076  0.9293
13239SOL     OW44078   3.191   5.924  10.711  0.0717 -0.0750  0.6762
13239SOL    HW144079   3.165   5.893  10.625 -1.1192 -0.1625  1.0459
13239SOL    HW244080   3.263   5.867  10.737  0.4815 -0.0012 -0.2786
13240SOL     OW44081   8.377   6.490   0.284 -0.1842 -0.3508  0.3929
13240SOL    HW144082   8.407   6.416   0.231 -1.1939 -1.0849  0.8356
13240SOL    HW244083   8.362   6.453   0.371 -1.1961  0.2570  0.4903
13241SOL     OW44084   4.864   7.519   7.609 -0.3536  0.1919 -0.3566
13241SOL    HW144085   4.879   7.428   7.583 -2.7063 -0.0571 -1.0576
13241SOL    HW244086   4.890   7.521   7.701 -0.7168 -1.3409 -0.1841
13242SOL     OW44087   1.988   1.336   6.714  0.6172  0.4080 -0.0175
13242SOL    HW144088   1.960   1.257   6.668  0.9618  0.5378 -0.4544
13242SOL    HW244089   1.909   1.367   6.758  0.6490 -0.5944  0.7828
13243SOL     OW44090   8.450   8.116  10.862  0.4386 -0.0749  0.1204
13243SOL    HW144091   8.369   8.134  10.814 -0.5951  0.5875  2.0101
13243SOL    HW244092   8.488   8.203  10.878  1.4730 -0.3681 -0.5966
13244SOL     OW44093   6.845   7.242   5.923 -0.9263  0.6023 -0.1908
13244SOL    HW144094   6.804   7.257   6.009  1.3133 -0.6437  1.1903
13244SOL    HW244095   6.922   7.299   5.922 -0.3096 -0.2091 -0.8920
13245SOL     OW44096   4.440   4.000   3.135 -0.0287  0.5518 -0.1605
13245SOL    HW144097   4.499   4.030   3.066  2.1063  0.3535  1.4617
13245SOL    HW244098   4.416   4.081   3.181 -2.0580  0.7776 -1.5025
13246SOL     OW44099   1.746   8.351   9.645 -0.1857  0.0686 -0.1317
13246SOL    HW144100   1.748   8.366   9.550  2.4873  0.7152 -0.0683
13246SOL    HW244101   1.753   8.256   9.654  0.5831  0.0679 -0.6115
13247SOL     OW44102   4.188   3.035   8.593 -0.3084  0.3130  0.7376
13247SOL    HW144103   4.193   3.080   8.677  0.9650  1.8910 -0.1374
13247SOL    HW244104   4.230   3.094   8.531 -0.0970 -1.3555 -0.7954
13248SOL     OW44105   0.391   8.263  10.644 -0.3318 -0.2163 -0.0656
13248SOL    HW144106   0.451   8.243  10.573  1.4599 -2.0409  1.7988
13248SOL    HW244107   0.325   8.194  10.640  0.1798 -0.7466  0.4322
13249SOL     OW44108   2.165   8.817   3.779  0.0242  0.3648 -0.5986
13249SOL    HW144109   2.239   8.781   3.730 -0.8393 -1.9071 -0.3915
13249SOL    HW244110   2.189   8.805   3.871 -1.6803 -3.3259 -0.4294
13250SOL     OW44111   3.833   7.632   9.871 -0.4681 -0.3005 -0.1474
13250SOL    HW144112   3.783   7.675   9.800  1.0356 -0.7435 -1.5349
13250SOL    HW244113   3.766   7.604   9.933 -1.8461  0.2849 -1.2986
13251SOL     OW44114   9.910   4.146   0.281  0.1948 -0.6133  0.4036
13251SOL    HW144115   9.996   4.106   0.266 -0.0346 -1.0740  0.2995
13251SOL    HW244116   9.849   4.072   0.281 -0.2205 -0.2741  0.3295
13252SOL     OW44117   9.824   2.248   1.844  0.0123  0.5047 -0.0567
13252SOL    HW144118   9.862   2.334   1.861 -1.1080  1.2118 -1.0132
13252SOL    HW244119   9.899   2.189   1.841  0.9289  1.6601 -0.6549
13253SOL     OW44120  10.904  10.158   5.714 -0.2139 -0.6867  0.2704
13253SOL    HW144121  10.934  10.122   5.797  0.5679 -0.2243  0.1958
13253SOL    HW244122  10.849  10.232   5.737 -0.2978 -0.7847  0.3841
13254SOL     OW44123   1.758  10.400   8.732 -0.6186 -0.0717  0.0207
13254SOL    HW144124   1.770  10.317   8.779  1.7800 -0.3594 -0.9225
13254SOL    HW244125   1.752  10.466   8.801 -1.8212 -0.9306  0.7727
13255SOL     OW44126   6.782   8.946   4.759 -0.1699 -0.0905  0.8094
13255SOL    HW144127   6.801   9.030   4.717  0.0394 -0.4154  0.2560
13255SOL    HW244128   6.794   8.964   4.853 -3.2143  1.3434  1.0331
13256SOL     OW44129   4.697   3.182   6.108  0.7307  0.5554 -0.1142
13256SOL    HW144130   4.664   3.119   6.043  0.0025 -0.1122  0.8762
13256SOL    HW244131   4.679   3.141   6.192  0.3632  2.0489  0.5584
13257SOL     OW44132   1.786   5.261  10.465 -0.1441 -0.3865 -0.5347
13257SOL    HW144133   1.831   5.245  10.548 -3.0908  1.5019  1.6671
13257SOL    HW244134   1.704   5.212  10.473 -1.5336  1.6587 -1.1773
13258SOL     OW44135   8.289   4.189  10.071  0.5818 -0.0707  0.4199
13258SOL    HW144136   8.346   4.191   9.994 -0.4167 -0.3285 -0.3421
13258SOL    HW244137   8.344   4.222  10.142  2.1853 -1.8275  0.0697
13259SOL     OW44138   5.084   4.435   6.722  0.0459  0.0830  0.5096
13259SOL    HW144139   5.087   4.375   6.647 -0.3066 -0.7868  1.1801
13259SOL    HW244140   5.065   4.379   6.797  0.9858  0.8535  1.3601
13260SOL     OW44141   8.866   5.661   4.469 -0.0954 -0.6781  0.4226
13260SOL    HW144142   8.888   5.641   4.378 -0.1738 -1.5925  0.5948
13260SOL    HW244143   8.796   5.726   4.462  1.6286  1.2478 -0.1311
13261SOL     OW44144   3.534   8.190  10.090 -0.0762 -0.1203  0.0527
13261SOL    HW144145   3.453   8.141  10.103  0.9700 -1.2646  3.6277
13261SOL    HW244146   3.532   8.259  10.157  1.5093  0.3684 -0.3471
13262SOL     OW44147  10.079   3.471   5.789 -0.2596 -0.1815  0.4086
13262SOL    HW144148   9.994   3.506   5.764 -0.4179 -0.4341  0.5861
13262SOL    HW244149  10.126   3.546   5.825 -0.5304 -0.1133  0.6204
13263SOL     OW44150   5.420   9.589   7.021 -1.0303 -0.0917 -0.3806
13263SOL    HW144151   5.461   9.514   7.064 -0.3851 -0.1846 -1.1268
13263SOL    HW244152   5.444   9.664   7.075 -1.6974 -0.4165  0.3838
13264SOL     OW44153   5.749   4.391   2.689 -0.2508  0.2087 -0.1704
13264SOL    HW144154   5.783   4.469   2.645  0.1291  0.3977  0.4496
13264SOL    HW244155   5.729   4.331   2.617  1.0477  0.2265 -0.5832
13265SOL     OW44156   7.267   7.119  10.298 -0.0205  0.2137 -0.5317
13265SOL    HW144157   7.221   7.103  10.380 -1.7491  0.5932 -1.3962
13265SOL    HW244158   7.269   7.215  10.290  0.0712  0.1772 -0.9755
13266SOL     OW44159   1.630  10.657   6.460  0.6165  0.1969 -0.4354
13266SOL    HW144160   1.694  10.649   6.530  0.4050 -1.4606 -0.4042
13266SOL    HW244161   1.606  10.567   6.438 -2.7377  0.7119  0.4923
13267SOL     OW44162   5.423   0.289   6.368 -0.1295  0.1360 -0.3277
13267SOL    HW144163   5.353   0.275   6.432 -0.3895 -0.3072 -0.6997
13267SOL    HW244164   5.480   0.213   6.378  0.3586  0.5422  0.0402
13268SOL     OW44165  10.585   2.315   4.416  0.6320  0.4088 -0.4559
13268SOL    HW144166  10.528   2.344   4.487  0.0295  2.8464 -1.8303
13268SOL    HW244167  10.673   2.318   4.453  0.4009  2.3185  0.0208
13269SOL     OW44168   4.172   4.775  10.006  0.6019 -0.6194 -0.0019
13269SOL    HW144169   4.249   4.734  10.045  1.9150  1.6163 -0.0551
13269SOL    HW244170   4.204   4.818   9.927 -0.6423  0.5155  0.0657
13270SOL     OW44171   7.520   5.819   6.740  0.6408  0.4320  0.6152
13270SOL    HW144172   7.446   5.869   6.775 -1.0518 -1.5005 -0.0238
13270SOL    HW244173   7.526   5.742   6.797  0.9444 -0.3658 -0.4711
13271SOL     OW44174   4.599   5.348   2.927  0.0529 -0.3125 -0.1592
13271SOL    HW144175   4.609   5.343   2.832  0.0528  0.5370 -0.2110
13271SOL    HW244176   4.543   5.425   2.942 -0.4307 -0.7824  0.4966
13272SOL     OW44177   0.713   6.267   7.654  0.0273 -0.1895 -0.3829
13272SOL    HW144178   0.677   6.304   7.573 -2.6880 -0.6302  0.5208
13272SOL    HW244179   0.687   6.175   7.652  2.0663 -0.8014 -0.1169
13273SOL     OW44180   2.422   4.779   7.247  0.1724 -0.0814  0.2798
13273SOL    HW144181   2.327   4.773   7.237  0.2786 -2.1493 -0.0872
13273SOL    HW244182   2.437   4.764   7.340  0.1520 -0.1017  0.2798
13274SOL     OW44183   6.514   2.595  10.577  0.8849  0.1746  0.3621
13274SOL    HW144184   6.454   2.531  10.538 -0.2202  0.6178  1.2846
13274SOL    HW244185   6.521   2.664  10.511  0.5908 -0.0116  0.1336
13275SOL     OW44186  10.084   2.295   5.632 -0.0470  0.1213  0.2775
13275SOL    HW144187   9.989   2.305   5.638 -0.2973 -1.1650 -0.9511
13275SOL    HW244188  10.110   2.353   5.561 -0.1038 -0.4837 -0.2419
13276SOL     OW44189   2.319   3.486   7.540  0.6051 -0.1289  0.4832
13276SOL    HW144190   2.315   3.493   7.635  1.4055  1.6560  0.4257
13276SOL    HW244191   2.367   3.564   7.512 -0.8331  0.1349 -1.4850
13277SOL     OW44192   7.659   3.451   0.033 -0.1946  0.3553 -0.0575
13277SOL    HW144193   7.653   3.450   0.128 -1.7853 -0.4260 -0.1261
13277SOL    HW244194   7.722   3.520   0.013  0.8600 -0.1036  1.5718
13278SOL     OW44195   2.911   7.756   3.853 -0.1652  0.4270 -0.1513
13278SOL    HW144196   2.889   7.832   3.908  0.2350 -0.6904  1.6215
13278SOL    HW244197   2.866   7.774   3.770 -0.7967  2.1855  0.5079
13279SOL     OW44198   5.357   4.241   7.858  0.0936 -0.4352  0.4468
13279SOL    HW144199   5.332   4.157   7.897  0.5836 -0.4622  0.7256
13279SOL    HW244200   5.377   4.296   7.934 -0.8429  0.1406  0.2871
13280SOL     OW44201   1.782   7.397   8.190 -0.2188 -0.1883 -0.4203
13280SOL    HW144202   1.815   7.479   8.154 -0.0121  0.4773  1.2035
13280SOL    HW244203   1.716   7.368   8.127 -0.4261  1.3056 -0.9325
13281SOL     OW44204   0.953   9.390   3.966 -0.0366  0.0442 -0.5223
13281SOL    HW144205   0.970   9.449   4.039 -1.5873 -0.0252 -0.0575
13281SOL    HW244206   0.882   9.432   3.917 -0.4760 -0.9287 -0.7466
13282SOL     OW44207   2.825   4.050  10.376  0.1257  0.0100 -0.1341
13282SOL    HW144208   2.786   3.977  10.328  0.4841  0.4310 -1.0864
13282SOL    HW244209   2.919   4.041  10.362  0.2477  0.0519  0.6269
13283SOL     OW44210  10.334   9.022   5.148  0.0401  0.4512 -0.3668
13283SOL    HW144211  10.345   9.101   5.096 -2.2260  0.7631 -0.4804
13283SOL    HW244212  10.349   9.050   5.238 -0.8249  1.0538 -0.3965
13284SOL     OW44213  10.577   5.853   3.562 -0.2032  0.2923 -1.0304
13284SOL    HW144214  10.564   5.945   3.539 -0.5349  0.0943 -1.6681
13284SOL    HW244215  10.561   5.849   3.656 -1.3670  0.6985 -1.1911
13285SOL     OW44216   4.819   9.682  10.708  0.3586  0.1633 -0.2959
13285SOL    HW144217   4.811   9.774  10.684 -0.2157 -0.2696 -1.9249
13285SOL    HW244218   4.863   9.683  10.793 -0.3027  1.9548  0.0701
13286SOL     OW44219   2.560   0.235  10.838  0.0056 -0.0615 -0.1927
13286SOL    HW144220   2.536   0.304  10.900 -1.7621 -0.1256 -0.7671
13286SOL    HW244221   2.633   0.272  10.788  0.1537  0.7449  0.5989
13287SOL     OW44222   1.677   3.324   7.340  0.2238  0.6650  0.5401
13287SOL    HW144223   1.649   3.412   7.315  0.9033  0.6684 -0.2748
13287SOL    HW244224   1.637   3.266   7.276  0.0841  0.4149  0.8477
13288SOL     OW44225   1.640   4.069   6.081  0.4028 -0.0903 -0.4725
13288SOL    HW144226   1.685   4.140   6.127  0.2936 -0.6736  0.5651
13288SOL    HW244227   1.633   4.100   5.990 -0.8234  1.8037  0.2108
13289SOL     OW44228   3.095   4.316   1.463  0.3842  0.4090  0.4118
13289SOL    HW144229   3.095   4.377   1.537  1.5511 -0.2681  1.0031
13289SOL    HW244230   3.150   4.359   1.397 -0.4491  0.8968  0.0178
13290SOL     OW44231  10.590   6.034   2.673  0.3052 -0.7653  0.4783
13290SOL    HW144232  10.606   6.127   2.689 -2.3059 -0.3562  1.0936
13290SOL    HW244233  10.677   5.994   2.680  1.5056  1.5945  0.1742
13291SOL     OW44234   6.320   2.862   5.727  0.0467 -0.3189  0.2573
13291SOL    HW144235   6.389   2.917   5.690 -0.7397  0.0791 -0.6545
13291SOL    HW244236   6.340   2.858   5.821 -0.4110  2.3155  0.5418
13292SOL     OW44237   7.565  10.624   3.591  0.0281 -0.0945  0.3251
13292SOL    HW144238   7.515  10.697   3.555 -0.2451 -0.3798  0.1162
13292SOL    HW244239   7.524  10.608   3.676 -1.0837 -1.1435 -0.3730
13293SOL     OW44240   2.352   3.361   2.916 -0.0562 -0.0741  0.5186
13293SOL    HW144241   2.277   3.386   2.969 -0.3756 -0.0783  0.0719
13293SOL    HW244242   2.336   3.269   2.894  0.4998 -0.3228  1.1271
13294SOL     OW44243   7.224   5.939   6.630 -0.4287  0.0821 -0.3198
13294SOL    HW144244   7.188   5.936   6.719 -0.3596  2.3949 -0.1514
13294SOL    HW244245   7.261   6.027   6.622  2.8199 -1.2409 -1.4381
13295SOL     OW44246   0.547   3.557   9.964 -0.5081  0.3550 -0.0682
13295SOL    HW144247   0.458   3.527   9.941  0.1314  0.3561 -2.8795
13295SOL    HW244248   0.585   3.586   9.881  2.2140  0.1736  1.0090
13296SOL     OW44249   9.168   6.800   5.783 -0.1957  0.6257  0.0678
13296SOL    HW144250   9.197   6.755   5.704 -0.8526  3.6743 -2.0934
13296SOL    HW244251   9.221   6.880   5.786 -2.2952  2.0614  0.9467
13297SOL     OW44252   1.316   6.317   9.797 -0.7313 -0.2870 -0.0423
13297SOL    HW144253   1.411   6.312   9.795 -0.6697  0.2492  0.9174
13297SOL    HW244254   1.292   6.346   9.709  0.0919  0.9600  0.1201
13298SOL     OW44255   9.299   4.596   2.767  0.6842 -0.6948 -0.2554
13298SOL    HW144256   9.328   4.543   2.693 -2.1288 -1.5906 -0.8317
13298SOL    HW244257   9.257   4.534   2.827 -1.4896  0.6293 -0.3071
13299SOL     OW44258   0.743   7.794   3.242 -0.1968  0.2473 -0.0764
13299SOL    HW144259   0.705   7.848   3.311 -0.2377 -0.0587  0.1436
13299SOL    HW244260   0.713   7.835   3.160  0.7314  1.2419  0.0626
13300SOL     OW44261   9.399   6.033   8.010  0.5036  0.4388  0.3613
13300SOL    HW144262   9.370   5.943   7.998 -1.1701  0.6330  2.2598
13300SOL    HW244263   9.392   6.073   7.924  1.2515 -1.2128 -0.5063
13301SOL     OW44264   3.999   1.237   5.054  0.5468 -0.2022 -0.4008
13301SOL    HW144265   3.992   1.281   5.138  1.8121  0.2923 -0.5275
13301SOL    HW244266   3.948   1.157   5.064  1.4463 -0.6186  1.1528
13302SOL     OW44267   6.970   1.090   2.620  0.0436  0.0713 -0.1976
13302SOL    HW144268   6.999   1.177   2.592  2.0963 -0.4018  0.3059
13302SOL    HW244269   7.050   1.047   2.652 -1.2993 -1.2084  1.6462
13303SOL     OW44270   7.941   2.791  10.477 -0.0276  0.0413  0.3718
13303SOL    HW144271   7.952   2.854  10.549 -1.1711 -0.0213  0.6196
13303SOL    HW244272   7.968   2.707  10.514 -1.1051 -0.0829  0.9092
13304SOL     OW44273  10.744   9.796   0.706 -0.1020  0.0518  0.0499
13304SOL    HW144274  10.670   9.744   0.739 -0.6925 -0.1206 -1.4598
13304SOL    HW244275  10.755   9.866   0.770 -0.3465 -1.0011  1.2813
13305SOL     OW44276   9.833   3.554   5.623  0.3238  0.2661  0.4089
13305SOL    HW144277   9.825   3.646   5.648 -0.3641  0.2847  0.1533
13305SOL    HW244278   9.777   3.545   5.546  2.9116  0.3869 -1.6405
13306SOL     OW44279   3.841   9.325   8.754 -0.0886  0.4278  0.6993
13306SOL    HW144280   3.774   9.361   8.697 -1.2885  0.3445  2.0156
13306SOL    HW244281   3.924   9.348   8.711 -0.7368  4.3621  1.1649
13307SOL     OW44282   6.118   2.481   1.300  0.3403 -0.0069 -0.8255
13307SOL    HW144283   6.035   2.471   1.347  1.2478 -0.8324  0.6805
13307SOL    HW244284   6.116   2.412   1.233  0.4645 -1.0682  0.2382
13308SOL     OW44285   9.951   7.585  10.048 -0.0073 -0.2328 -0.2474
13308SOL    HW144286  10.003   7.613   9.973 -1.7786 -1.4320 -2.0408
13308SOL    HW244287   9.861   7.610  10.025 -0.8479 -2.2037  0.6447
13309SOL     OW44288  10.486   4.120   5.960  0.3043 -0.4608 -0.9782
13309SOL    HW144289  10.519   4.182   5.895  0.1371 -0.0466 -0.6722
13309SOL    HW244290  10.524   4.150   6.043 -1.0944  0.2327 -0.5619
13310SOL     OW44291   9.884   3.329   1.688 -0.3677 -0.3579 -0.3791
13310SOL    HW144292   9.904   3.422   1.700  1.7192 -0.7857 -0.0355
13310SOL    HW244293   9.866   3.320   1.595 -1.4426  0.5127 -0.2719
13311SOL     OW44294   1.909   9.462   0.219  0.0380 -0.4280 -0.0106
13311SOL    HW144295   1.879   9.509   0.141 -0.1152 -0.6081 -0.0604
13311SOL    HW244296   1.969   9.396   0.186 -2.1731 -2.4316 -0.3239
13312SOL     OW44297   1.851   8.382   3.439 -0.3963  0.1001 -0.5098
13312SOL    HW144298   1.865   8.342   3.353  1.2941 -2.4671  0.8248
13312SOL    HW244299   1.806   8.315   3.490  1.4041  0.2978  1.4772
13313SOL     OW44300  11.072   7.702   5.114 -0.3550 -0.6917 -0.2153
13313SOL    HW144301  11.038   7.689   5.203 -0.2112 -2.4750 -0.3750
13313SOL    HW244302  11.078   7.613   5.078 -1.8466  0.0751 -2.5732
13314SOL     OW44303   7.592   8.475   0.545 -0.3171  0.0328  0.5494
13314SOL    HW144304   7.591   8.569   0.561  0.0874  0.1686 -0.1835
13314SOL    HW244305   7.652   8.439   0.610 -0.5088  0.2763  0.8602
13315SOL     OW44306   6.428   8.797   9.119  0.1598  0.2621  0.2323
13315SOL    HW144307   6.371   8.874   9.116  1.0180  0.8956 -0.2295
13315SOL    HW244308   6.398   8.742   9.047 -0.7512 -0.0640  0.8452
13316SOL     OW44309   7.330   6.271   9.372  0.1900  0.2745  0.8882
13316SOL    HW144310   7.296   6.282   9.283  0.5405 -0.3095  0.6763
13316SOL    HW244311   7.402   6.335   9.377  0.8939 -0.4557  0.3622
13317SOL     OW44312   6.120   9.417   9.185  0.0384 -0.5877 -0.2985
13317SOL    HW144313   6.186   9.396   9.251  0.2454  1.0527  0.0633
13317SOL    HW244314   6.072   9.336   9.171  0.9050 -1.3115  0.8448
13318SOL     OW44315   4.900  10.318   0.651  0.1041 -0.3628  0.6579
13318SOL    HW144316   4.872  10.400   0.693  2.1029  1.0355 -0.5290
13318SOL    HW244317   4.991  10.307   0.681  0.0514 -1.8483  0.3303
13319SOL     OW44318   6.696   7.810  10.793 -0.9759 -0.0443 -0.0461
13319SOL    HW144319   6.705   7.814  10.888 -1.2655  1.2979 -0.0603
13319SOL    HW244320   6.602   7.807  10.778 -0.9255 -0.4397 -0.2908
13320SOL     OW44321   6.789   7.756   4.989  0.3496  0.4251 -0.5079
13320SOL    HW144322   6.824   7.839   4.956  2.1217 -0.3481 -0.6648
13320SOL    HW244323   6.798   7.695   4.916 -1.2156  0.1488 -0.4850
13321SOL     OW44324   0.689   8.796   9.842  0.1961  0.2763  0.2239
13321SOL    HW144325   0.721   8.824   9.756 -2.7650 -0.3873 -1.1987
13321SOL    HW244326   0.671   8.878   9.888 -0.8163  0.6985 -0.8699
13322SOL     OW44327   7.718   1.037   4.369  0.2489  0.0808  0.0583
13322SOL    HW144328   7.695   0.997   4.453 -1.2636  2.1201  0.6886
13322SOL    HW244329   7.655   1.000   4.307 -0.8028  1.0184  0.5313
13323SOL     OW44330   5.861   7.572   6.424 -0.0227  0.5240  0.2924
13323SOL    HW144331   5.795   7.550   6.359  1.2680 -2.0424 -0.2989
13323SOL    HW244332   5.826   7.648   6.470 -2.0959  0.9042 -1.7610
13324SOL     OW44333   7.757   3.303   9.766  0.3865 -0.0552 -0.9759
13324SOL    HW144334   7.737   3.219   9.809 -1.1308 -0.0870 -1.6716
13324SOL    HW244335   7.724   3.369   9.827 -0.9864 -0.0764 -1.6553
13325SOL     OW44336  10.057  10.852   0.685 -0.4145 -0.2815 -0.5035
13325SOL    HW144337   9.976  10.887   0.721 -0.6270 -0.2572 -0.9985
13325SOL    HW244338  10.124  10.913   0.714 -0.6098 -0.1639 -0.2973
13326SOL     OW44339   0.911   4.835   1.249 -0.5679  0.1836 -0.1572
13326SOL    HW144340   0.930   4.899   1.317 -2.3591  0.9424 -0.3293
13326SOL    HW244341   0.886   4.756   1.298  0.6986 -0.1125  0.0471
13327SOL     OW44342   0.009   3.641   9.849  0.2005 -0.3424 -0.0951
13327SOL    HW144343   0.015   3.682   9.762 -0.1457  0.7884  0.3963
13327SOL    HW244344   0.099   3.640   9.881  0.3641 -0.9728 -0.5481
13328SOL     OW44345   5.540   1.802  10.607 -0.2026 -0.5022  0.0558
13328SOL    HW144346   5.579   1.765  10.687  0.5127 -0.0192 -0.0607
13328SOL    HW244347   5.498   1.727  10.564  1.0882 -1.1537 -0.1016
13329SOL     OW44348   2.407  10.262   0.140  0.2839 -0.1866  0.9606
13329SOL    HW144349   2.326  10.283   0.093  0.2649 -2.0189  0.1032
13329SOL    HW244350   2.378  10.229   0.225  0.2308  0.9247  1.3920
13330SOL     OW44351   5.378   1.188   3.597  0.4458  0.0344  0.6942
13330SOL    HW144352   5.420   1.230   3.522  0.6536  2.1933  1.9359
13330SOL    HW244353   5.434   1.114   3.617  1.9701  1.0616  0.3951
13331SOL     OW44354   3.658   2.224   7.158  0.2908 -0.0935  0.5075
13331SOL    HW144355   3.686   2.132   7.166 -0.3796 -0.5617 -1.7806
13331SOL    HW244356   3.723   2.273   7.209  2.3087 -1.6146 -0.4255
13332SOL     OW44357   6.174   6.860   9.657  0.2399 -0.7446  0.2475
13332SOL    HW144358   6.161   6.872   9.752 -0.0713  0.5938  0.0552
13332SOL    HW244359   6.250   6.913   9.636  0.7292 -1.5884 -0.1497
13333SOL     OW44360  11.091   3.712   3.567 -0.5824 -0.2380 -0.3115
13333SOL    HW144361  11.033   3.708   3.642 -0.1988 -0.1458 -0.0034
13333SOL    HW244362  11.146   3.634   3.575 -1.2006 -0.7678 -1.0540
13334SOL     OW44363   2.121   4.516   4.706  0.0804 -0.2921  0.3259
13334SOL    HW144364   2.041   4.510   4.654 -0.8941  1.6343  1.5060
13334SOL    HW244365   2.171   4.587   4.665 -0.6839  1.2230  1.9237
13335SOL     OW44366   3.228   1.794   2.623 -0.0281  0.4486  0.0417
13335SOL    HW144367   3.282   1.751   2.558  1.1182  1.2548  0.4174
13335SOL    HW244368   3.176   1.724   2.663  1.7086 -0.5680  0.5815
13336SOL     OW44369   9.000   9.370   0.146 -0.5612  0.1229 -0.1283
13336SOL    HW144370   8.988   9.422   0.066  0.8533 -0.3600 -0.6915
13336SOL    HW244371   8.946   9.292   0.132  0.5085 -0.4744 -1.1325
13337SOL     OW44372   8.700   4.873   9.879 -0.0881 -0.1855 -0.1211
13337SOL    HW144373   8.751   4.948   9.910 -0.3468 -0.8424  2.1037
13337SOL    HW244374   8.626   4.867   9.940  0.1584 -2.4581  0.0517
13338SOL     OW44375   8.449   3.117   4.800  0.4024 -0.5750 -0.3647
13338SOL    HW144376   8.500   3.193   4.772 -1.9738  1.3497  0.2438
13338SOL    HW244377   8.362   3.132   4.763 -0.3932 -2.5218  0.5887
13339SOL     OW44378   7.451   4.923  10.027 -0.2597  0.0677  0.1062
13339SOL    HW144379   7.455   5.009  10.067  0.9745  0.2298 -0.3223
13339SOL    HW244380   7.529   4.878  10.059 -1.2715 -1.1834  0.9415
13340SOL     OW44381   8.673  11.079   6.526  0.4798  0.0501 -0.1026
13340SOL    HW144382   8.750  11.026   6.504  0.5463  0.0134  0.2031
13340SOL    HW244383   8.681  11.093   6.620  0.0988  0.0298 -0.0661
13341SOL     OW44384   6.459   7.313  10.008 -0.6014  0.4577 -0.3392
13341SOL    HW144385   6.466   7.400   9.968  2.2873  0.5215  0.0909
13341SOL    HW244386   6.473   7.327  10.101 -0.0155 -0.4609 -0.2700
13342SOL     OW44387   4.157   0.143   3.233  0.8613 -0.4257  0.5681
13342SOL    HW144388   4.130   0.053   3.218  0.2393 -0.1756  0.1535
13342SOL    HW244389   4.161   0.182   3.145  2.0354 -0.3019  0.6630
13343SOL     OW44390  11.045   7.384   5.956 -0.0983  0.1987 -0.1305
13343SOL    HW144391  11.136   7.402   5.934 -0.1413  0.5030 -0.0799
13343SOL    HW244392  11.003   7.471   5.956 -0.8974 -0.1218 -2.3744
13344SOL     OW44393   0.289   0.241   8.110 -0.5492  0.6806 -0.3802
13344SOL    HW144394   0.269   0.179   8.181  0.4930  1.3283  0.5146
13344SOL    HW244395   0.254   0.325   8.141  0.3131  1.0623 -0.4129
13345SOL     OW44396   4.940   1.463   6.577  0.9423  0.8196 -0.1506
13345SOL    HW144397   5.033   1.440   6.575  0.3996 -1.7822  0.7854
13345SOL    HW244398   4.895   1.388   6.538 -0.8272  1.7184  0.0341
13346SOL     OW44399   5.959   1.946   5.962 -0.4975 -0.2685 -0.1758
13346SOL    HW144400   5.958   1.861   5.917  0.1124  0.3380 -1.3848
13346SOL    HW244401   6.029   1.938   6.027 -0.6503 -0.7928 -0.0712
13347SOL     OW44402  10.835   3.688   9.857 -0.0806  0.0568 -0.3185
13347SOL    HW144403  10.786   3.646   9.786 -1.6426  0.2575  0.5899
13347SOL    HW244404  10.924   3.655   9.848 -0.5866 -1.0690 -1.4681
13348SOL     OW44405   3.881   3.223   7.089  0.6678  0.5319 -0.3534
13348SOL    HW144406   3.924   3.183   7.013  0.2260  0.0759 -0.3687
13348SOL    HW244407   3.901   3.164   7.161 -0.0006  0.2633 -0.3790
13349SOL     OW44408   0.448   7.616   1.655  0.3721  0.1989 -0.0306
13349SOL    HW144409   0.429   7.706   1.681  4.2296  2.0040 -2.5165
13349SOL    HW244410   0.398   7.604   1.574  0.0937  0.2199  0.1368
13350SOL     OW44411   9.029   9.931   1.340 -0.0335 -0.3048  0.5710
13350SOL    HW144412   9.050   9.900   1.252  1.1147  1.1729  0.2669
13350SOL    HW244413   8.941   9.899   1.357 -0.5080 -0.1651 -1.3527
13351SOL     OW44414   6.530   5.133   5.115  0.1032  0.7907 -0.3564
13351SOL    HW144415   6.581   5.076   5.058 -1.6574 -0.4134 -0.8147
13351SOL    HW244416   6.501   5.205   5.059 -0.0730  0.5911 -0.5231
13352SOL     OW44417   9.874   3.956   8.993 -0.1584 -0.3107 -0.5868
13352SOL    HW144418   9.922   4.022   9.042 -1.1292 -1.5139  2.2085
13352SOL    HW244419   9.785   3.991   8.986 -0.3583 -0.7370 -0.2370
13353SOL     OW44420  10.247   1.351   4.647  0.6440 -0.1319 -0.2347
13353SOL    HW144421  10.280   1.262   4.636  0.8147 -0.3095  1.3853
13353SOL    HW244422  10.153   1.340   4.663  0.7978 -0.1014  0.7457
13354SOL     OW44423   8.165   0.963   2.613  0.3598  0.0841 -0.2120
13354SOL    HW144424   8.148   1.022   2.539  1.8733 -0.3156 -0.9314
13354SOL    HW244425   8.102   0.892   2.601 -1.0291  1.1875  0.2808
13355SOL     OW44426   4.007   3.783   1.356 -0.4312 -0.4995 -0.4061
13355SOL    HW144427   4.095   3.745   1.356 -0.5696 -0.8258  0.2604
13355SOL    HW244428   4.022   3.877   1.344 -0.0926 -0.7558 -2.3364
13356SOL     OW44429   5.794   7.955   2.768 -0.2529 -0.1453 -0.6262
13356SOL    HW144430   5.856   7.884   2.751 -0.1359 -0.4588  0.9450
13356SOL    HW244431   5.846   8.035   2.759  0.9392 -0.4473  2.4288
13357SOL     OW44432   7.611   7.444   7.046  0.2884  0.4969  0.0558
13357SOL    HW144433   7.669   7.459   6.971 -0.2276 -0.4720 -0.5545
13357SOL    HW244434   7.667   7.402   7.111  0.7761  1.4715  0.2843
13358SOL     OW44435   5.262  10.163   8.415 -0.2385 -0.5668 -0.6082
13358SOL    HW144436   5.235  10.231   8.477  0.1558 -1.2939  0.3616
13358SOL    HW244437   5.344  10.195   8.378 -0.4353 -0.1731 -0.7135
13359SOL     OW44438   5.815   6.523   6.071  0.1358 -0.2448 -0.1542
13359SOL    HW144439   5.903   6.560   6.059  0.8448 -0.9324  2.3776
13359SOL    HW244440   5.771   6.539   5.988  1.8964  2.1902 -0.7406
13360SOL     OW44441   7.290   9.734   4.837  0.4350  0.0516  0.1377
13360SOL    HW144442   7.346   9.798   4.793  0.7802 -0.4310 -0.1264
13360SOL    HW244443   7.262   9.779   4.918 -0.4278  1.0421 -0.6742
13361SOL     OW44444  10.551   0.826   5.045 -0.1817 -0.3123  0.1308
13361SOL    HW144445  10.528   0.764   4.976  1.1321 -1.0324  0.3148
13361SOL    HW244446  10.484   0.812   5.113 -0.0715 -1.3333  0.0472
13362SOL     OW44447   7.666   7.037  10.693 -0.4659 -0.7365 -0.0504
13362SOL    HW144448   7.702   7.038  10.782 -1.4040 -0.8205  0.3386
13362SOL    HW244449   7.576   7.006  10.703 -0.3702 -1.4175 -1.1220
13363SOL     OW44450   9.781   7.198   6.160  0.3880 -0.2901  0.1144
13363SOL    HW144451   9.845   7.147   6.210 -0.4092 -1.3926  0.0630
13363SOL    HW244452   9.728   7.242   6.227 -0.0486 -0.9757  0.2368
13364SOL     OW44453   0.165   9.839   2.736 -0.6732  0.1583 -0.4197
13364SOL    HW144454   0.136   9.748   2.745 -0.7887  0.3495  1.5098
13364SOL    HW244455   0.252   9.841   2.777 -1.2536  1.1743  0.8266
13365SOL     OW44456   6.622  10.648   2.136 -0.1792  0.4386 -0.3127
13365SOL    HW144457   6.553  10.613   2.192  0.1320  0.6226  0.1917
13365SOL    HW244458   6.681  10.574   2.122  2.0168  1.3507  3.0822
13366SOL     OW44459   2.362   8.986   3.525  0.1822  0.4333  0.2592
13366SOL    HW144460   2.387   8.979   3.433 -1.2923 -2.9331 -0.0408
13366SOL    HW244461   2.418   9.054   3.560  2.3946  0.2801 -2.6000
13367SOL     OW44462   5.817   8.671   5.436  0.2991 -0.3864  0.4861
13367SOL    HW144463   5.856   8.589   5.465  1.6571  0.0538  0.0193
13367SOL    HW244464   5.887   8.735   5.447 -0.9587  0.8750  1.5315
13368SOL     OW44465  10.813   5.234   2.072  1.1483  0.4551  0.1161
13368SOL    HW144466  10.886   5.248   2.132  0.3193 -0.4055  1.3801
13368SOL    HW244467  10.736   5.263   2.122  0.0863 -2.8327  0.6249
13369SOL     OW44468   3.649   9.846   6.794 -0.2168  0.1388  0.3211
13369SOL    HW144469   3.653   9.758   6.830  0.8800 -1.1772 -2.7473
13369SOL    HW244470   3.725   9.891   6.832  0.3357 -0.8434  0.3930
13370SOL     OW44471   2.791   6.143   7.234 -0.2287 -0.0577 -0.0481
13370SOL    HW144472   2.724   6.133   7.302  0.4181  0.5930  0.6959
13370SOL    HW244473   2.864   6.185   7.278  0.2561  0.2571 -1.1270
13371SOL     OW44474   6.899   4.922   8.904 -0.6384 -0.6170 -0.1349
13371SOL    HW144475   6.993   4.933   8.920 -0.5866  2.8205 -1.7788
13371SOL    HW244476   6.894   4.875   8.821 -0.4275 -1.2321  0.1914
13372SOL     OW44477   8.763   0.515   2.411  0.4414 -0.3978  0.1914
13372SOL    HW144478   8.806   0.461   2.344  0.9467 -1.5477  1.3998
13372SOL    HW244479   8.672   0.520   2.383  0.9565  0.5547 -1.4569
13373SOL     OW44480   1.846   1.104   1.028  0.4319 -0.4153 -0.3794
13373SOL    HW144481   1.834   1.108   1.122 -0.1435 -0.5445 -0.4445
13373SOL    HW244482   1.807   1.184   0.995  0.2728 -0.5575 -0.5413
13374SOL     OW44483   8.496   4.922   7.049 -0.2466 -0.0341 -0.0518
13374SOL    HW144484   8.472   4.938   7.140  1.3920  1.5443  0.1555
13374SOL    HW244485   8.559   4.850   7.053  0.2323  0.3920  0.1311
13375SOL     OW44486   0.104   1.225   7.690 -1.2992 -0.0910 -0.8692
13375SOL    HW144487   0.036   1.293   7.688  0.9922  2.3594 -0.9921
13375SOL    HW244488   0.179   1.267   7.732  0.3995 -2.4571 -1.3190
13376SOL     OW44489   1.515   0.039   4.832 -0.2766  0.0229 -0.2140
13376SOL    HW144490   1.582   0.030   4.900  0.6955 -1.8800 -1.3275
13376SOL    HW244491   1.461  -0.040   4.842 -1.1449  0.5597 -0.5888
13377SOL     OW44492   5.157   2.486   7.844 -0.2936  0.5534  0.1511
13377SOL    HW144493   5.163   2.462   7.937 -0.5870  1.5256  0.4279
13377SOL    HW244494   5.064   2.477   7.823 -0.2842  0.7074  0.0457
13378SOL     OW44495  10.086   9.041   8.104 -0.3708  0.4704 -0.0160
13378SOL    HW144496  10.159   9.034   8.042  0.2393  2.2487  0.4539
13378SOL    HW244497  10.104   9.121   8.153 -0.9468 -0.7826  2.3619
13379SOL     OW44498   5.360   4.959   1.847 -0.5567  0.8823 -0.6215
13379SOL    HW144499   5.355   4.901   1.772 -0.0466  0.8481 -0.6315
13379SOL    HW244500   5.283   4.937   1.900  0.9610 -1.6693  0.7102
13380SOL     OW44501   3.406   3.159   0.063 -0.2491 -0.0148 -0.3320
13380SOL    HW144502   3.361   3.090   0.014  1.2907 -1.0029 -0.4025
13380SOL    HW244503   3.412   3.124   0.152 -1.0308  0.8181  0.0681
13381SOL     OW44504   9.022   4.726   0.059 -0.6094  0.4494  0.4292
13381SOL    HW144505   9.025   4.799  -0.004  0.4031 -0.8453 -1.0887
13381SOL    HW244506   8.975   4.657   0.013  2.3140 -1.4264  0.0425
13382SOL     OW44507   1.088   0.249   3.503  0.4401  0.2665 -0.2313
13382SOL    HW144508   1.123   0.163   3.478  0.4183 -0.1149  1.0115
13382SOL    HW244509   1.160   0.309   3.489  0.7108 -0.0822 -0.3461
13383SOL     OW44510   5.658   6.116   4.104 -0.2882 -0.0567  0.5396
13383SOL    HW144511   5.572   6.155   4.122  0.4940  2.6129 -0.9777
13383SOL    HW244512   5.718   6.163   4.162  0.8059  1.7354 -1.9044
13384SOL     OW44513   1.309  10.145   2.859  0.6557 -0.6982  0.0945
13384SOL    HW144514   1.374  10.200   2.815  0.5951  0.2651  1.1426
13384SOL    HW244515   1.281  10.082   2.793  2.1206 -0.6667 -0.5824
13385SOL     OW44516   6.248   6.359   9.681 -0.1539  0.0887  0.5576
13385SOL    HW144517   6.284   6.425   9.622  0.6300 -0.9693 -0.1635
13385SOL    HW244518   6.169   6.400   9.717 -0.3688  0.9515 -0.8320
13386SOL     OW44519   8.045   3.394   7.761 -0.2604  0.7893 -0.0021
13386SOL    HW144520   8.101   3.454   7.712  0.5298  0.3896  0.3685
13386SOL    HW244521   8.099   3.369   7.837 -0.9321  0.3478  0.3408
13387SOL     OW44522   0.404   0.452  10.643  0.7481  0.4025  0.1298
13387SOL    HW144523   0.392   0.489  10.731  1.0026  1.1509 -0.1392
13387SOL    HW244524   0.377   0.523  10.584  0.7100 -0.0478 -0.3999
13388SOL     OW44525   9.449  11.034   3.417 -0.4165  0.3327 -0.1416
13388SOL    HW144526   9.513  11.070   3.355 -1.7239  0.1966 -1.6443
13388SOL    HW244527   9.387  11.105   3.432 -1.9679 -0.6019 -1.6759
13389SOL     OW44528   8.553   0.294   5.401 -0.6638 -0.3289  0.7149
13389SOL    HW144529   8.557   0.244   5.483  0.9462  0.5374  1.2193
13389SOL    HW244530   8.535   0.384   5.428 -0.5633 -0.1109  0.0801
13390SOL     OW44531  10.664   2.781   4.786 -0.2174  0.0533  0.0155
13390SOL    HW144532  10.650   2.844   4.716 -3.0490  0.6368  0.9519
13390SOL    HW244533  10.711   2.709   4.745  1.8180  2.0935 -1.4395
13391SOL     OW44534   2.879  10.872   3.384  0.3978 -0.4607 -0.4679
13391SOL    HW144535   2.952  10.816   3.357  0.5709  0.6158 -2.4359
13391SOL    HW244536   2.920  10.944   3.432  0.6420 -0.0578 -1.2453
13392SOL     OW44537   5.913   8.917   0.208 -0.4669 -0.0846  0.4287
13392SOL    HW144538   5.822   8.913   0.237 -0.4835  1.4197  0.6740
13392SOL    HW244539   5.961   8.947   0.285  0.2814 -1.0386  0.3532
13393SOL     OW44540   0.635   8.753   7.674 -0.2474  0.0177 -0.5030
13393SOL    HW144541   0.593   8.839   7.671  1.0510  0.7893  1.3332
13393SOL    HW244542   0.675   8.749   7.761  1.0950 -1.7844 -1.1386
13394SOL     OW44543   1.396   4.138   8.552  0.3621  0.1162 -0.5301
13394SOL    HW144544   1.431   4.049   8.563 -0.6313 -0.0981  1.2245
13394SOL    HW244545   1.302   4.126   8.544  0.0947  1.0380  0.7855
13395SOL     OW44546   1.683   2.540   6.313 -0.4792  0.1552  0.1830
13395SOL    HW144547   1.624   2.614   6.330 -1.7305 -0.8450  0.3028
13395SOL    HW244548   1.697   2.500   6.398  1.5013  1.1722  0.3768
13396SOL     OW44549   6.970   0.645   8.121 -0.7975  0.0756 -0.0385
13396SOL    HW144550   6.991   0.564   8.167 -0.3540 -0.7389 -1.6054
13396SOL    HW244551   7.051   0.671   8.079 -0.9373  1.3635  0.4479
13397SOL     OW44552   7.786   7.286   1.250 -0.1475  0.6883 -0.3134
13397SOL    HW144553   7.796   7.230   1.173  0.2919  1.1241 -0.5816
13397SOL    HW244554   7.787   7.226   1.324  0.5639  0.3546 -0.5798
13398SOL     OW44555  11.069   8.891   8.399 -0.1909  0.3505  0.5177
13398SOL    HW144556  11.064   8.972   8.450  0.9878  0.3840  0.6014
13398SOL    HW244557  11.018   8.910   8.320 -0.4519  0.9505  0.8236
13399SOL     OW44558  10.541   5.158   5.604  0.2509  0.1120 -0.0418
13399SOL    HW144559  10.448   5.183   5.605  0.0906 -0.4287  1.2276
13399SOL    HW244560  10.586   5.237   5.635  0.1209  0.0842  0.2236
13400SOL     OW44561   3.438   6.370   2.065  0.5045  0.5266  0.0306
13400SOL    HW144562   3.374   6.301   2.076  0.7270  0.5545  1.6512
13400SOL    HW244563   3.521   6.324   2.052  0.5475  0.4963  0.4239
13401SOL     OW44564   4.419   1.440   0.534 -0.6420  0.4063  0.3499
13401SOL    HW144565   4.367   1.440   0.454 -1.6101 -0.3226  0.9519
13401SOL    HW244566   4.363   1.482   0.599 -0.3351 -0.0478  0.9189
13402SOL     OW44567   1.233   8.998   0.060  0.4583  0.6269  0.2125
13402SOL    HW144568   1.265   8.913   0.089  0.0011 -0.1445 -1.3892
13402SOL    HW244569   1.294   9.061   0.098  0.2683 -0.3123  2.2041
13403SOL     OW44570   2.111   5.088   5.628 -0.7619 -0.6254  0.2522
13403SOL    HW144571   2.187   5.106   5.572 -0.7162 -1.1545  0.1427
13403SOL    HW244572   2.048   5.046   5.570 -1.2193 -0.0133  0.2963
13404SOL     OW44573   9.352   1.223   5.930 -0.5805 -0.6641  0.3866
13404SOL    HW144574   9.306   1.194   5.851 -1.0720 -0.7034  0.6779
13404SOL    HW244575   9.352   1.146   5.987 -2.0790 -0.0880  1.2530
13405SOL     OW44576   4.596   6.225   0.271 -0.6091  0.0726  0.3632
13405SOL    HW144577   4.515   6.255   0.230 -1.0419 -0.2370  0.9818
13405SOL    HW244578   4.585   6.131   0.281 -0.3245  0.0808  0.7802
13406SOL     OW44579   9.157   6.634   4.194 -0.1024 -0.4461 -0.2478
13406SOL    HW144580   9.235   6.592   4.228  1.5629  0.9843 -2.0416
13406SOL    HW244581   9.131   6.581   4.118 -0.6316 -0.6761  0.0880
13407SOL     OW44582   3.755   7.032   5.505  0.5458 -0.2349 -0.4118
13407SOL    HW144583   3.850   7.024   5.499  0.5106 -1.1129  0.1335
13407SOL    HW244584   3.723   7.012   5.417  0.9227  1.2792 -0.9303
13408SOL     OW44585   0.699  10.047   4.561  0.3972  0.4037 -0.9789
13408SOL    HW144586   0.714  10.137   4.532 -0.3996 -0.0845 -3.0899
13408SOL    HW244587   0.787  10.012   4.577  0.6676  1.7927  0.7588
13409SOL     OW44588   9.599   3.816   0.786  0.1737  0.7516 -0.1791
13409SOL    HW144589   9.694   3.804   0.774 -0.0503 -2.4267  0.4858
13409SOL    HW244590   9.587   3.810   0.881 -0.7605  0.7598 -0.2953
13410SOL     OW44591  10.483   4.100   7.005  0.1335  0.2285  0.6039
13410SOL    HW144592  10.485   4.130   7.095 -0.4366  0.8501  0.4174
13410SOL    HW244593  10.429   4.021   7.006  1.5917 -0.7969  1.0896
13411SOL     OW44594   0.953   4.313  10.549 -0.7174 -0.3614 -0.3810
13411SOL    HW144595   0.931   4.255  10.476 -0.9674 -0.3717 -0.2976
13411SOL    HW244596   1.046   4.295  10.566 -0.1383  0.9554 -1.8843
13412SOL     OW44597   2.502   4.174   0.906  0.4709 -0.1287 -0.7742
13412SOL    HW144598   2.485   4.189   0.812 -1.4058 -0.9637 -0.6262
13412SOL    HW244599   2.550   4.091   0.908 -1.1784 -1.1568 -0.9742
13413SOL     OW44600  10.074   2.183   3.125  0.2572 -0.4492  0.3845
13413SOL    HW144601  10.109   2.268   3.100  0.4481 -0.9566 -1.1799
13413SOL    HW244602   9.986   2.202   3.157 -0.2143  0.2385 -1.2043
13414SOL     OW44603   0.984   7.727   3.337  0.3529 -0.6123 -0.3848
13414SOL    HW144604   0.896   7.749   3.307  0.4974  0.3673 -0.1326
13414SOL    HW244605   0.996   7.778   3.417 -0.4630 -4.0091  2.1421
13415SOL     OW44606   7.271   8.392   5.974  0.2092  0.4462  0.6803
13415SOL    HW144607   7.264   8.422   5.883 -1.5014 -0.2316  0.5469
13415SOL    HW244608   7.352   8.342   5.976 -0.0273 -0.0439 -0.6631
13416SOL     OW44609   3.577   6.257   7.726 -0.1508  0.2414  0.4536
13416SOL    HW144610   3.599   6.298   7.642  1.0207  0.0741  0.6550
13416SOL    HW244611   3.598   6.165   7.713 -1.7227 -0.1294  0.3574
13417SOL     OW44612   4.868   1.121   2.124  0.0656  0.5728 -0.0324
13417SOL    HW144613   4.904   1.040   2.162 -1.3417  0.2958  0.8051
13417SOL    HW244614   4.777   1.123   2.155 -0.1906  2.0152 -0.8005
13418SOL     OW44615   3.597   4.794   3.761  0.5283 -0.5166 -0.6548
13418SOL    HW144616   3.672   4.805   3.818  0.1044 -1.3302  0.0840
13418SOL    HW244617   3.605   4.864   3.696  2.1348 -0.8326 -0.8333
13419SOL     OW44618   8.047  10.304   5.561 -0.6172 -0.5591 -0.5356
13419SOL    HW144619   8.006  10.269   5.640  0.7135 -0.8944  0.0225
13419SOL    HW244620   8.052  10.229   5.502  1.2434 -1.0897  0.2546
13420SOL     OW44621   8.329   9.609   1.034  0.5661  0.6472 -0.0728
13420SOL    HW144622   8.377   9.544   1.085 -1.2498  0.1372  1.0907
13420SOL    HW244623   8.324   9.573   0.946  0.9799 -0.0017  0.1678
13421SOL     OW44624   8.333   3.984   2.322 -0.4255  0.1054 -0.2747
13421SOL    HW144625   8.301   3.944   2.403 -1.2455  2.4966  0.6869
13421SOL    HW244626   8.383   4.060   2.352  0.4176  0.2684 -1.9978
13422SOL     OW44627   0.950  10.333   8.837 -0.0130 -0.1031  0.2890
13422SOL    HW144628   1.018  10.396   8.814  1.0176 -2.0893 -2.8287
13422SOL    HW244629   0.981  10.292   8.917  0.7562  1.2884  0.7320
13423SOL     OW44630   6.257   2.298   2.635 -0.4448  0.3969  0.2253
13423SOL    HW144631   6.260   2.218   2.583 -1.1787  0.8438 -0.5393
13423SOL    HW244632   6.186   2.349   2.596  0.9429  2.0680 -0.2889
13424SOL     OW44633   0.917   9.963   5.203 -0.3478 -0.1593  0.2199
13424SOL    HW144634   0.866   9.984   5.125 -0.3630  1.8288  0.6952
13424SOL    HW244635   0.953   9.876   5.187 -0.8254 -0.0251 -1.7364
13425SOL     OW44636  10.838   7.760  10.524  0.6818  0.6709  0.1669
13425SOL    HW144637  10.847   7.726  10.613 -0.3792  2.1261  0.8717
13425SOL    HW244638  10.928   7.766  10.491  1.0295 -0.8026  0.7464
13426SOL     OW44639   8.461   4.780   8.894 -0.0714 -0.0104  0.2738
13426SOL    HW144640   8.555   4.785   8.880 -0.0894 -1.1259 -0.3803
13426SOL    HW244641   8.447   4.826   8.977  0.9329  0.8640 -0.0176
13427SOL     OW44642   1.206   1.804   9.048 -0.3610 -0.1090 -0.1156
13427SOL    HW144643   1.274   1.871   9.049  0.0745 -0.5198 -1.0886
13427SOL    HW244644   1.194   1.782   9.141  0.1338  0.6544  0.1462
13428SOL     OW44645   8.562   0.888   2.982 -0.0207 -0.2034 -0.5380
13428SOL    HW144646   8.556   0.939   3.063  2.7050 -1.6272  0.6783
13428SOL    HW244647   8.477   0.902   2.939 -1.3219  1.1425  2.2151
13429SOL     OW44648   4.559   5.097   3.360 -0.0655  0.4895 -0.2268
13429SOL    HW144649   4.556   5.192   3.369  2.1379  0.8144 -2.1125
13429SOL    HW244650   4.468   5.072   3.341 -0.9405  1.9878  1.6922
13430SOL     OW44651   1.254   3.658  10.255  0.1112 -0.6692 -0.3936
13430SOL    HW144652   1.231   3.709  10.178  0.1322  0.2333  0.1914
13430SOL    HW244653   1.303   3.583  10.220 -0.6321 -0.7362 -1.3282
13431SOL     OW44654  10.113   9.198   2.035 -0.5850 -0.7881 -0.0213
13431SOL    HW144655  10.142   9.137   1.967  0.8264  0.9161 -1.0377
13431SOL    HW244656  10.117   9.284   1.993  0.5530  0.3681  2.2855
13432SOL     OW44657   8.656   7.394   2.628  0.5463 -0.2471  0.1176
13432SOL    HW144658   8.683   7.428   2.714  0.8505  1.2732 -0.5556
13432SOL    HW244659   8.578   7.445   2.605  0.0614 -1.1193 -0.2214
13433SOL     OW44660   1.242   9.036   7.723  0.6269  0.3530  0.9589
13433SOL    HW144661   1.152   9.029   7.689  0.8745  0.0690  0.3457
13433SOL    HW244662   1.232   9.028   7.817 -0.1574  1.9217  1.0473
13434SOL     OW44663   0.606   0.744   7.355  0.0816  0.3717  0.6883
13434SOL    HW144664   0.540   0.791   7.406 -0.9765  0.6485 -0.8734
13434SOL    HW244665   0.668   0.812   7.328 -0.6068  0.6247 -0.2825
13435SOL     OW44666   3.071   0.167   4.770 -0.4069 -0.0814 -0.0454
13435SOL    HW144667   2.980   0.194   4.763 -0.5222 -0.8404 -2.0990
13435SOL    HW244668   3.107   0.223   4.839 -1.0306  4.2319 -2.7869
13436SOL     OW44669   2.831   3.837   6.132  0.0912  0.2862 -0.1248
13436SOL    HW144670   2.751   3.791   6.155 -0.4062  0.8159 -0.7420
13436SOL    HW244671   2.890   3.820   6.205 -1.0598  1.0362  1.0368
13437SOL     OW44672   7.927   5.785   7.798 -0.1670 -0.5094  0.2784
13437SOL    HW144673   8.020   5.799   7.816 -0.1311  0.1357 -0.3800
13437SOL    HW244674   7.889   5.765   7.884  0.2202  1.3064  0.9202
13438SOL     OW44675   6.985   5.851   5.655  0.5953 -0.3174 -0.5723
13438SOL    HW144676   6.895   5.846   5.622 -0.3143 -1.4170  1.8344
13438SOL    HW244677   7.032   5.784   5.606  0.1276  0.1866 -1.7733
13439SOL     OW44678   4.691   5.721   7.813 -0.0620  0.4389 -0.7029
13439SOL    HW144679   4.702   5.640   7.763  0.3074 -0.9954  1.5767
13439SOL    HW244680   4.747   5.784   7.768 -1.1527 -0.2079 -3.1512
13440SOL     OW44681   3.420   7.823   4.452 -0.2152 -0.2785 -0.0853
13440SOL    HW144682   3.379   7.769   4.384 -0.7399 -0.1900  0.1575
13440SOL    HW244683   3.423   7.766   4.529 -0.2300 -0.1581  0.0045
13441SOL     OW44684   9.664   6.921   1.194  0.7184 -0.3582 -0.5581
13441SOL    HW144685   9.726   6.905   1.123  0.6940 -0.3839 -0.5731
13441SOL    HW244686   9.651   7.016   1.194  1.2256 -0.2761 -0.1674
13442SOL     OW44687   1.290   1.435   7.713  0.5385  0.2773 -0.1071
13442SOL    HW144688   1.232   1.481   7.652  1.4527  1.7118  0.0715
13442SOL    HW244689   1.372   1.484   7.711  1.0457 -0.4544  1.2604
13443SOL     OW44690   8.131   8.290   6.385 -0.2000 -0.7616 -0.1727
13443SOL    HW144691   8.072   8.246   6.446  0.1063 -0.4637  0.3406
13443SOL    HW244692   8.204   8.230   6.374 -1.8302 -2.4442 -2.9948
13444SOL     OW44693   0.122   1.831   3.573  0.0286  0.4402  0.4531
13444SOL    HW144694   0.128   1.736   3.570  0.0642  0.4111  1.2157
13444SOL    HW244695   0.210   1.861   3.550 -0.3814  0.3405 -1.3574
13445SOL     OW44696   4.894   0.656   6.989  0.8479  0.0664  0.0916
13445SOL    HW144697   4.920   0.667   6.898 -1.5483  2.3342 -0.4723
13445SOL    HW244698   4.946   0.721   7.037 -1.1880  2.3406 -0.5402
13446SOL     OW44699   5.384   8.363   7.853  0.5401  0.4482 -0.1352
13446SOL    HW144700   5.355   8.450   7.826  1.4129  0.1231 -2.3537
13446SOL    HW244701   5.480   8.367   7.845  0.5324 -0.9977 -1.3421
13447SOL     OW44702   8.335   5.880   9.036  0.2404  0.2081  0.2612
13447SOL    HW144703   8.275   5.865   8.963 -1.1545 -0.4564  1.4990
13447SOL    HW244704   8.371   5.967   9.019 -0.8090  0.4807 -0.6977
13448SOL     OW44705   9.292   7.528   2.594  0.3449 -0.0884  0.4073
13448SOL    HW144706   9.207   7.490   2.615  0.3130  0.1966  0.8012
13448SOL    HW244707   9.320   7.570   2.675  0.8876 -0.2299  0.2948
13449SOL     OW44708   7.738   5.692   0.959 -0.1273 -0.0376  0.1467
13449SOL    HW144709   7.711   5.602   0.976 -0.9593  0.2097  0.1848
13449SOL    HW244710   7.665   5.729   0.909  1.7487 -0.4604 -3.2070
13450SOL     OW44711   3.800   9.910   4.512  0.0684  0.2940 -0.0163
13450SOL    HW144712   3.774   9.822   4.483  0.9748  0.0433 -0.0874
13450SOL    HW244713   3.781   9.911   4.605  0.3959 -0.1043  0.0554
13451SOL     OW44714   4.088   4.551   7.772 -0.6331 -0.3088 -0.1658
13451SOL    HW144715   4.054   4.638   7.750  1.4648  0.4720 -0.5213
13451SOL    HW244716   4.115   4.558   7.864 -0.0973 -0.4403 -0.3083
13452SOL     OW44717   3.538   0.052   2.748 -0.6716 -0.2298 -0.1886
13452SOL    HW144718   3.536   0.131   2.802 -0.8901 -0.1522 -0.3064
13452SOL    HW244719   3.470  -0.004   2.785  0.6310 -1.1058  0.9893
13453SOL     OW44720   1.675   2.909   1.980  0.3451  0.0786 -0.4574
13453SOL    HW144721   1.694   3.001   1.962  1.1467 -0.1756 -0.9763
13453SOL    HW244722   1.650   2.873   1.895  4.4927 -1.2228 -1.3895
13454SOL     OW44723   5.386   6.281  10.779 -0.6684  0.6681 -0.4806
13454SOL    HW144724   5.327   6.226  10.830 -1.5728  1.7034 -0.3654
13454SOL    HW244725   5.387   6.365  10.826  1.6527  0.4171  0.0604
13455SOL     OW44726   3.754   9.821   3.287  0.2953 -0.4222  0.1069
13455SOL    HW144727   3.747   9.803   3.380 -0.9365  1.7278  0.5010
13455SOL    HW244728   3.685   9.885   3.269  1.4806  0.4026 -1.9546
13456SOL     OW44729   2.607   3.129   5.099 -0.6771 -0.2201 -0.2536
13456SOL    HW144730   2.668   3.062   5.067 -0.6921 -0.0659 -0.6067
13456SOL    HW244731   2.622   3.131   5.194  1.8858  1.7462 -0.5769
13457SOL     OW44732   2.991  10.005   9.478  0.4681 -0.4990  0.3322
13457SOL    HW144733   3.067  10.064   9.481  0.5146 -0.5271 -0.2007
13457SOL    HW244734   3.006   9.943   9.550 -0.1358  0.7980  1.6255
13458SOL     OW44735   1.607  10.352   9.252  0.3334 -0.0241  0.3819
13458SOL    HW144736   1.693  10.394   9.244 -0.3514  1.1246 -1.6805
13458SOL    HW244737   1.627  10.265   9.288  2.1476  0.8135  1.5506
13459SOL     OW44738   1.758  10.217   5.603 -0.6298  0.3079  0.0170
13459SOL    HW144739   1.747  10.192   5.512 -1.2220  1.1163 -0.1477
13459SOL    HW244740   1.851  10.204   5.622 -0.4016  0.6400 -0.8516
13460SOL     OW44741   0.538   2.527   5.726 -0.2988  0.2025 -0.0196
13460SOL    HW144742   0.544   2.621   5.740 -0.6768  0.5559 -1.9829
13460SOL    HW244743   0.448   2.505   5.751 -0.8213  0.7357 -1.3202
13461SOL     OW44744   9.427   1.128   7.003  0.2778  0.0016 -0.1661
13461SOL    HW144745   9.406   1.056   6.943  0.7682 -0.8692  0.6762
13461SOL    HW244746   9.413   1.091   7.090 -0.9281  1.4010  0.2794
13462SOL     OW44747   2.712   5.960   0.225  0.0591 -0.2081 -0.4052
13462SOL    HW144748   2.648   5.914   0.170  1.3843 -1.0465 -1.3095
13462SOL    HW244749   2.689   5.936   0.315 -0.9732 -0.3793 -0.7049
13463SOL     OW44750   1.026   9.181   4.125 -0.0662  0.4803 -0.1243
13463SOL    HW144751   1.027   9.237   4.203 -0.6895  1.0724 -0.5178
13463SOL    HW244752   0.991   9.238   4.056  1.5518  0.3153 -1.1177
13464SOL     OW44753   8.783   4.119   8.096  0.1273  0.2303  0.3293
13464SOL    HW144754   8.759   4.051   8.033  1.5890 -1.0189  1.0512
13464SOL    HW244755   8.844   4.175   8.047  0.6856 -0.3102  0.3894
13465SOL     OW44756   1.073  10.412   0.748  0.1975 -0.2919 -0.1006
13465SOL    HW144757   1.054  10.374   0.834  0.4934 -0.2096  0.0036
13465SOL    HW244758   0.992  10.402   0.698 -0.1209  0.0648  0.3372
13466SOL     OW44759   3.260   6.510   0.621  0.7230  0.3102 -0.3899
13466SOL    HW144760   3.175   6.491   0.582 -0.1366  1.0925  1.0451
13466SOL    HW244761   3.308   6.556   0.552 -0.5789  1.2175 -0.7144
13467SOL     OW44762   7.203   7.508   3.898 -0.0033 -0.0972  0.5586
13467SOL    HW144763   7.285   7.482   3.856  0.2400  1.4277  0.0555
13467SOL    HW244764   7.204   7.461   3.982  0.6964 -1.1994 -0.0319
13468SOL     OW44765  10.024   7.997   6.889 -0.2399 -0.4429  0.3491
13468SOL    HW144766  10.019   7.920   6.945 -1.2528 -1.4059 -0.9789
13468SOL    HW244767  10.117   8.004   6.867 -0.2189 -1.7547 -0.0998
13469SOL     OW44768   9.875   3.356   2.503 -0.3797  0.3732 -0.1551
13469SOL    HW144769   9.792   3.404   2.500 -0.0330  1.0335  0.4426
13469SOL    HW244770   9.930   3.398   2.437 -0.5191 -0.0644 -0.5510
13470SOL     OW44771   0.076   8.473   3.442 -0.4285 -0.0349 -0.1425
13470SOL    HW144772   0.155   8.513   3.480 -1.1398  0.6477  0.6386
13470SOL    HW244773   0.064   8.518   3.359  0.1194 -0.2937 -0.3707
13471SOL     OW44774   6.199   8.183   7.092  0.5691  0.4725  0.1492
13471SOL    HW144775   6.168   8.129   7.165  1.8852 -0.0305  0.3708
13471SOL    HW244776   6.208   8.270   7.129  1.4491  0.1737  0.6716
13472SOL     OW44777   0.738   8.780   1.545 -0.0426 -0.2601  0.2602
13472SOL    HW144778   0.767   8.870   1.554 -1.4990  0.4926 -1.8044
13472SOL    HW244779   0.717   8.752   1.635  0.4260  1.4331  0.9327
13473SOL     OW44780   5.370   8.174   4.215  0.3760 -0.0351 -0.1108
13473SOL    HW144781   5.398   8.162   4.306  0.2763 -0.4567 -0.1343
13473SOL    HW244782   5.321   8.095   4.194  0.2010  0.1614 -0.4609
13474SOL     OW44783   8.773   1.631  10.774 -0.1704  0.0711  0.4131
13474SOL    HW144784   8.724   1.683  10.837 -0.3095  0.0646  0.3092
13474SOL    HW244785   8.859   1.618  10.815  0.3644  1.5700 -0.1605
13475SOL     OW44786   9.486   7.483   4.494 -0.1887  0.0527  0.1338
13475SOL    HW144787   9.422   7.412   4.486 -2.7245  2.1913  0.0395
13475SOL    HW244788   9.441   7.560   4.457  2.2889  1.7894  0.4954
13476SOL     OW44789   3.658   1.832   6.959 -0.5896  0.5149 -0.1797
13476SOL    HW144790   3.735   1.845   6.904 -1.4208 -0.1077 -1.5686
13476SOL    HW244791   3.588   1.878   6.913 -1.5416 -0.9337 -0.2493
13477SOL     OW44792   4.471   7.401   1.992 -0.1517 -0.2562 -0.1135
13477SOL    HW144793   4.474   7.386   2.087  0.9249  0.1494 -0.0692
13477SOL    HW244794   4.423   7.483   1.982  1.8270  1.0067  0.2726
13478SOL     OW44795   0.359   5.259   9.891  0.2041  0.6429 -0.0782
13478SOL    HW144796   0.430   5.249   9.955  0.9227 -3.0252 -1.2022
13478SOL    HW244797   0.404   5.257   9.806 -1.1620 -1.0904 -0.7976
13479SOL     OW44798   9.258   9.352   7.627  0.3486 -0.1351 -0.0797
13479SOL    HW144799   9.228   9.307   7.548 -1.0270 -0.3571  0.5528
13479SOL    HW244800   9.331   9.298   7.658  2.4709  1.1631 -2.3846
13480SOL     OW44801   7.562   7.621   7.224 -0.0291 -0.9664 -0.7166
13480SOL    HW144802   7.552   7.545   7.167 -0.6748 -0.7042 -0.9697
13480SOL    HW244803   7.656   7.634   7.232  0.0765 -0.9205 -1.8464
13481SOL     OW44804   7.333   5.404   3.983  0.3458  0.6716  0.2441
13481SOL    HW144805   7.428   5.412   3.987  0.3713  1.3351 -1.1561
13481SOL    HW244806   7.316   5.313   4.006  1.4475  0.1297 -0.9762
13482SOL     OW44807   5.391   3.308   7.530  0.1029  0.6918  0.0244
13482SOL    HW144808   5.411   3.247   7.601  1.3897  0.5159 -0.4622
13482SOL    HW244809   5.475   3.324   7.488 -0.7104  0.3622 -1.8130
13483SOL     OW44810   3.490   1.998   3.715  0.7485  0.1642 -0.0347
13483SOL    HW144811   3.437   1.949   3.651 -0.6211  0.0294  1.1544
13483SOL    HW244812   3.463   1.963   3.800  1.6525  1.1851  0.6910
13484SOL     OW44813  10.148   4.418   4.684 -0.3508  0.3287 -0.0665
13484SOL    HW144814  10.061   4.407   4.721  0.7022 -1.7452  2.0371
13484SOL    HW244815  10.190   4.483   4.740 -0.0689  0.2664 -0.2029
13485SOL     OW44816   8.047   1.822   1.765 -0.0689  0.4209 -0.2506
13485SOL    HW144817   8.059   1.736   1.803  0.5548  0.3731 -0.5366
13485SOL    HW244818   8.123   1.834   1.708  0.0561  1.3191  0.0821
13486SOL     OW44819  10.319   1.954   5.501  0.3834  0.0510  0.5634
13486SOL    HW144820  10.413   1.969   5.489  0.4025  1.4651  2.0512
13486SOL    HW244821  10.299   1.996   5.585 -1.5257 -0.4836  0.4191
13487SOL     OW44822  11.082   6.865  10.894  0.3868  0.0975  0.4567
13487SOL    HW144823  11.002   6.898  10.936 -0.8470  0.1670 -1.7832
13487SOL    HW244824  11.051   6.816  10.819  2.4547 -0.9601  0.2245
13488SOL     OW44825   3.561   7.562   7.900  0.2123 -0.2590 -0.6722
13488SOL    HW144826   3.531   7.471   7.896  2.3248 -1.1978  1.8333
13488SOL    HW244827   3.656   7.556   7.906  0.3914  2.1062  0.0524
13489SOL     OW44828   1.895   4.230   8.063  0.2699  0.7146 -0.2371
13489SOL    HW144829   1.897   4.278   8.146 -2.5169 -0.0568  0.3979
13489SOL    HW244830   1.871   4.141   8.089  2.5265 -0.3914 -1.6497
13490SOL     OW44831   5.535   0.533   7.888  0.2793  0.0924  0.3006
13490SOL    HW144832   5.519   0.627   7.875  1.1164  0.2197  0.1810
13490SOL    HW244833   5.625   0.519   7.859  0.0239 -0.8322 -0.0650
13491SOL     OW44834   0.857   0.765   6.698  0.1619  0.0018 -0.2894
13491SOL    HW144835   0.902   0.700   6.751 -1.5304 -0.1486  1.0548
13491SOL    HW244836   0.910   0.844   6.706  1.4846 -0.8011 -0.7933
13492SOL     OW44837   9.508  11.086   9.550 -0.7102  0.3628 -0.2070
13492SOL    HW144838   9.465  11.070   9.466 -1.5083  0.3812  0.1914
13492SOL    HW244839   9.449  11.144   9.597  0.3867  1.4675 -0.1581
13493SOL     OW44840   0.201   7.768  10.146 -0.2676  0.2012 -0.2549
13493SOL    HW144841   0.216   7.762  10.241  0.0431  0.2484 -0.3000
13493SOL    HW244842   0.289   7.767  10.108 -0.4362 -2.6618 -0.7358
13494SOL     OW44843   4.848   7.750   8.632  0.1566 -0.2972  0.4618
13494SOL    HW144844   4.817   7.668   8.671 -0.9379 -0.1840 -0.1334
13494SOL    HW244845   4.814   7.819   8.689 -1.4054 -0.1336 -0.6197
13495SOL     OW44846   7.253   0.952   6.771  0.1646 -0.0500  0.4885
13495SOL    HW144847   7.290   0.883   6.716  0.0007  1.0614 -1.0932
13495SOL    HW244848   7.233   0.909   6.854  3.0315 -1.1635  0.6913
13496SOL     OW44849   0.009   8.086   2.947 -0.1979  0.9521  0.3952
13496SOL    HW144850  -0.035   8.128   2.873  2.9121 -0.0445 -2.2192
13496SOL    HW244851   0.032   7.998   2.915  1.8148  0.6993  2.2989
13497SOL     OW44852   1.138   0.808   5.815 -1.0719  0.0986  0.2204
13497SOL    HW144853   1.189   0.864   5.873  1.1801 -0.1821 -1.3311
13497SOL    HW244854   1.141   0.852   5.730  1.0342 -2.3343 -1.1440
13498SOL     OW44855   7.990   9.857  10.217  0.0074 -0.3628 -0.2053
13498SOL    HW144856   8.007   9.878  10.126 -0.7282  0.0640 -0.2503
13498SOL    HW244857   7.940   9.776  10.215 -0.5114 -0.0411 -0.2052
13499SOL     OW44858   2.115   0.958   6.132  0.3331 -0.2704 -0.3880
13499SOL    HW144859   2.162   1.023   6.080 -0.7198 -0.4819 -1.6659
13499SOL    HW244860   2.031   1.000   6.151 -0.0513 -0.9502 -0.5597
13500SOL     OW44861   1.544   5.217  10.748 -0.2880  0.2168 -0.0098
13500SOL    HW144862   1.590   5.188  10.669 -0.7312  1.5722 -0.7910
13500SOL    HW244863   1.512   5.136  10.788  1.5339 -0.6410 -0.2006
13501SOL     OW44864  10.812   7.892   6.931  0.1605 -0.0281  0.1351
13501SOL    HW144865  10.764   7.811   6.948  0.0676  0.1419  0.6895
13501SOL    HW244866  10.746   7.952   6.896  0.1660 -0.0915  0.0147
13502SOL     OW44867   1.478   4.510   9.235 -0.3125  0.0327  0.5524
13502SOL    HW144868   1.436   4.581   9.187 -1.9575 -0.9047  0.5454
13502SOL    HW244869   1.415   4.438   9.232  0.9107 -1.1241  1.3673
13503SOL     OW44870  10.867   3.980   5.734 -0.1090  0.1175  0.1456
13503SOL    HW144871  10.885   4.054   5.792 -0.8120 -0.0212  0.5664
13503SOL    HW244872  10.953   3.944   5.712  0.2515  1.1982 -0.2628
13504SOL     OW44873   5.894   0.194  10.460  0.7454  0.0809  0.6753
13504SOL    HW144874   5.870   0.139  10.386  2.1074 -0.0499  0.3138
13504SOL    HW244875   5.815   0.195  10.515  0.7503 -2.4591  0.8496
13505SOL     OW44876   7.119   4.461   0.915 -0.0629 -0.1914 -0.3616
13505SOL    HW144877   7.058   4.491   0.982  0.2615 -0.0833 -0.1110
13505SOL    HW244878   7.160   4.384   0.954  0.1618 -0.0995 -0.4190
13506SOL     OW44879   8.934   2.103   0.184 -0.0002  0.0110 -0.3419
13506SOL    HW144880   8.958   2.195   0.195 -0.5090 -0.0435  1.4395
13506SOL    HW244881   9.017   2.056   0.191 -0.2097 -0.0404  4.1249
13507SOL     OW44882   0.682   8.598   5.067 -0.2586  0.0439  0.1821
13507SOL    HW144883   0.599   8.644   5.053  0.0084  1.5933  2.9695
13507SOL    HW244884   0.735   8.619   4.990 -1.8184  0.4690 -0.8224
13508SOL     OW44885   9.631   6.058   6.697  0.4598  0.7089 -0.3872
13508SOL    HW144886   9.652   6.145   6.665 -1.7008  1.2016 -0.5914
13508SOL    HW244887   9.558   6.071   6.757 -1.1119 -1.0869 -1.7593
13509SOL     OW44888   1.739   2.550   7.140 -0.1477  0.0503 -0.5516
13509SOL    HW144889   1.690   2.473   7.111  0.0023 -0.0141 -0.6342
13509SOL    HW244890   1.681   2.624   7.119 -0.2298 -0.0282 -0.6036
13510SOL     OW44891   9.544   2.018   2.179 -0.1217  0.0165  0.3309
13510SOL    HW144892   9.492   2.090   2.145 -1.1773 -0.4673  0.8915
13510SOL    HW244893   9.480   1.952   2.206  0.7619 -0.5104  1.2115
13511SOL     OW44894   8.328   9.738   0.045  0.7474 -0.2485  0.3775
13511SOL    HW144895   8.362   9.826   0.062  1.9672 -0.8207  1.0329
13511SOL    HW244896   8.287   9.711   0.127  0.4842 -0.3501  0.2155
13512SOL     OW44897   6.506   3.232   8.084  0.0225 -0.4419  0.2728
13512SOL    HW144898   6.467   3.297   8.143  0.6825 -0.0897  0.3360
13512SOL    HW244899   6.596   3.263   8.070 -0.1498 -0.4696 -1.0056
13513SOL     OW44900   2.590  10.373   2.408 -0.0609 -0.1267  0.4526
13513SOL    HW144901   2.674  10.327   2.404 -0.7511 -1.7647  2.8676
13513SOL    HW244902   2.610  10.461   2.376  2.0729 -1.0609 -1.0646
13514SOL     OW44903   2.822   9.813   5.325 -0.7820  0.0439  0.0059
13514SOL    HW144904   2.851   9.729   5.290  0.5221  0.5982 -0.3423
13514SOL    HW244905   2.727   9.811   5.318 -0.7335 -1.1510 -0.5744
13515SOL     OW44906   8.394  10.507   4.776  0.2491 -0.2105 -0.6189
13515SOL    HW144907   8.355  10.591   4.803  2.4437  0.8459 -0.5090
13515SOL    HW244908   8.379  10.503   4.682  0.9180  0.8015 -0.7940
13516SOL     OW44909   5.465   6.394   8.663 -0.7786 -0.2019 -0.0590
13516SOL    HW144910   5.497   6.331   8.599  0.5682 -0.6755  1.0262
13516SOL    HW244911   5.381   6.358   8.693 -1.1453 -0.2576 -1.1165
13517SOL     OW44912   6.166   6.179   6.563 -0.0396 -0.5695  0.4120
13517SOL    HW144913   6.073   6.159   6.553  0.2797 -1.4796 -0.9275
13517SOL    HW244914   6.168   6.255   6.622 -1.5168 -1.6812  2.0071
13518SOL     OW44915   5.855   8.012   4.862  0.0283 -0.3325 -0.6830
13518SOL    HW144916   5.843   8.105   4.879  1.0374 -0.2333 -0.3876
13518SOL    HW244917   5.857   8.004   4.767 -0.3035 -0.0913 -0.7115
13519SOL     OW44918   5.640   7.403   4.587  0.4262 -0.2763  0.3062
13519SOL    HW144919   5.723   7.420   4.543  0.1731 -0.7093 -0.3552
13519SOL    HW244920   5.573   7.439   4.528  0.0821 -0.8819  0.3126
13520SOL     OW44921   9.287   1.530   3.629  0.2945 -0.0149 -0.1281
13520SOL    HW144922   9.349   1.512   3.699  1.1964 -0.3812 -0.9885
13520SOL    HW244923   9.260   1.444   3.597  1.1519  0.1240 -1.2901
13521SOL     OW44924   9.501  10.541  10.166  0.1310 -0.2198 -0.3665
13521SOL    HW144925   9.537  10.527  10.254  0.5573  0.6324 -0.3854
13521SOL    HW244926   9.558  10.489  10.109  1.6146  1.3783 -0.4363
13522SOL     OW44927   4.385   2.153   3.826 -0.0160 -0.1804 -0.1323
13522SOL    HW144928   4.382   2.070   3.875 -2.3227  1.6443  3.1601
13522SOL    HW244929   4.468   2.193   3.852 -0.5457  0.1017  1.1821
13523SOL     OW44930   4.261   9.924   2.724  0.0321 -0.1502 -0.0634
13523SOL    HW144931   4.342   9.918   2.674  0.2109  2.1520 -0.1697
13523SOL    HW244932   4.272  10.001   2.779 -2.4969  1.0014 -0.9557
13524SOL     OW44933   5.056   5.576   6.247  0.7366 -0.0700 -0.0154
13524SOL    HW144934   4.975   5.597   6.200  0.2844 -0.7599  0.4506
13524SOL    HW244935   5.049   5.623   6.330  0.5720 -0.5524  0.2457
13525SOL     OW44936   0.973   0.631   3.628 -0.0393 -0.6517 -0.5258
13525SOL    HW144937   0.885   0.633   3.665  0.2290  0.9048  0.1451
13525SOL    HW244938   1.030   0.613   3.703  0.2598 -0.9778 -0.8288
13526SOL     OW44939   2.459  10.112   3.647  0.0731  0.3291 -0.6238
13526SOL    HW144940   2.527  10.148   3.590  0.3102  0.7393 -0.0921
13526SOL    HW244941   2.464  10.165   3.727 -0.0631 -0.4188 -0.1114
13527SOL     OW44942   1.737   5.010   6.322 -0.0041 -0.4365  0.3330
13527SOL    HW144943   1.643   5.003   6.310 -0.0124 -0.5429  0.4580
13527SOL    HW244944   1.747   5.046   6.411  0.0432  0.7114 -0.1145
13528SOL     OW44945   1.621   3.369   9.540 -0.0213  0.6434  0.7142
13528SOL    HW144946   1.683   3.310   9.582 -1.6635 -1.9065 -0.2072
13528SOL    HW244947   1.662   3.389   9.455  0.8983  1.5517  1.3395
13529SOL     OW44948   1.390   3.911   1.700  0.4371  0.2795 -0.3405
13529SOL    HW144949   1.483   3.903   1.681  0.5121  0.2800  0.0159
13529SOL    HW244950   1.372   3.840   1.762 -0.1483 -0.7350 -1.6235
13530SOL     OW44951   8.085   8.508   7.908  0.3120  0.5547  0.0827
13530SOL    HW144952   8.036   8.585   7.936 -1.1679  0.7298 -2.6766
13530SOL    HW244953   8.022   8.436   7.914  0.7820  0.1109 -0.1766
13531SOL     OW44954   8.196   7.705   3.923  0.2957  0.6812  0.0664
13531SOL    HW144955   8.157   7.656   3.995  0.1311 -0.2691 -0.6564
13531SOL    HW244956   8.247   7.774   3.966  1.2698 -0.6657  1.1400
13532SOL     OW44957   2.792   0.153   4.732  0.3159  0.0992 -0.0322
13532SOL    HW144958   2.748   0.128   4.651  0.0278 -1.6716  0.6335
13532SOL    HW244959   2.725   0.142   4.800  0.3868  2.0557  0.4299
13533SOL     OW44960   3.298  10.063   2.531 -0.0019 -0.0715 -0.3162
13533SOL    HW144961   3.315  10.153   2.559  1.3925 -0.6747  0.8779
13533SOL    HW244962   3.300  10.012   2.612 -1.1899 -1.1477 -0.9199
13534SOL     OW44963  10.350   2.217   0.126 -0.0613 -0.2130 -0.1893
13534SOL    HW144964  10.277   2.276   0.109  0.4334  0.1992 -0.9455
13534SOL    HW244965  10.392   2.205   0.041  0.3777 -0.9562  0.1135
13535SOL     OW44966   6.167   0.097   2.150 -0.3983  0.1329 -0.1144
13535SOL    HW144967   6.098   0.144   2.102 -0.5676  0.5259  0.5056
13535SOL    HW244968   6.126   0.015   2.177 -0.7094  0.4689  0.4608
13536SOL     OW44969   1.870   6.875   5.031  0.4319 -0.5067  0.7287
13536SOL    HW144970   1.906   6.848   5.115  0.7679 -1.2372  0.3574
13536SOL    HW244971   1.810   6.804   5.006  0.9762 -0.7126 -0.0371
13537SOL     OW44972   6.296  10.415   5.261 -0.1338 -0.0574 -0.2425
13537SOL    HW144973   6.223  10.353   5.264 -0.4980  0.2442 -1.7617
13537SOL    HW244974   6.329  10.408   5.171  1.2671  0.3281  0.2208
13538SOL     OW44975   6.658   2.998   9.133  0.0935 -0.3974 -0.4772
13538SOL    HW144976   6.636   3.038   9.217 -0.4421  0.2047 -0.8966
13538SOL    HW244977   6.574   2.966   9.100  0.1912  0.0037 -1.1116
13539SOL     OW44978   4.237   5.334   8.500 -0.4848 -0.2801 -0.2940
13539SOL    HW144979   4.235   5.430   8.497 -0.6389 -0.2971 -1.0360
13539SOL    HW244980   4.240   5.313   8.593  1.1209  0.4905 -0.1325
13540SOL     OW44981  10.199   6.243   2.580 -0.1167  0.4297 -0.6661
13540SOL    HW144982  10.235   6.303   2.645  0.2985  0.0720 -0.5601
13540SOL    HW244983  10.251   6.259   2.501  1.6070 -1.4050  0.0048
13541SOL     OW44984   8.977   3.135   9.841 -0.0052  0.2996 -0.5177
13541SOL    HW144985   8.915   3.166   9.908 -0.4439 -0.9746 -0.3103
13541SOL    HW244986   8.951   3.183   9.762  1.0977  2.5257  0.3601
13542SOL     OW44987  10.892   0.604   0.381 -0.3226 -0.1749  0.0076
13542SOL    HW144988  10.871   0.651   0.300  0.2078 -1.4075 -0.8820
13542SOL    HW244989  10.950   0.663   0.429  2.0472 -0.6766 -2.0243
13543SOL     OW44990   4.719   8.020   9.677  0.4780  0.2926  0.2603
13543SOL    HW144991   4.694   8.079   9.606  2.2170 -0.0864 -0.6996
13543SOL    HW244992   4.687   7.934   9.650 -2.0071  0.6800  1.6336
13544SOL     OW44993   9.503   2.772   5.725  0.4547  0.6669  0.0079
13544SOL    HW144994   9.421   2.753   5.770  0.7256  2.2813  1.2911
13544SOL    HW244995   9.476   2.805   5.639 -0.1523 -0.4770 -0.2567
13545SOL     OW44996   6.338   0.892   0.852 -0.9636  0.0320 -0.1520
13545SOL    HW144997   6.297   0.903   0.766 -0.2580 -1.0141 -0.6363
13545SOL    HW244998   6.308   0.968   0.903 -1.8949  0.3265 -1.1140
13546SOL     OW44999   1.751   2.381   3.444 -0.3912  0.2863 -0.3630
13546SOL    HW145000   1.699   2.300   3.450  0.9175 -0.6683 -1.2787
13546SOL    HW245001   1.729   2.430   3.523 -1.8619 -0.5738 -0.2048
13547SOL     OW45002   8.434   0.837   5.235  0.2433 -0.4650  0.4891
13547SOL    HW145003   8.423   0.771   5.167 -0.4664  0.5315 -0.4044
13547SOL    HW245004   8.346   0.849   5.271  0.3901 -0.1169  0.7398
13548SOL     OW45005   1.027   8.971   6.781  0.7573  0.3420  0.0605
13548SOL    HW145006   0.939   8.954   6.813  1.0728 -0.3679  0.5732
13548SOL    HW245007   1.061   8.885   6.757  0.9010  0.7346 -1.2340
13549SOL     OW45008   1.393   8.459   8.368  0.2864 -0.2488  0.3721
13549SOL    HW145009   1.460   8.450   8.436  2.0658 -1.7183 -1.4720
13549SOL    HW245010   1.431   8.522   8.306  0.1568 -1.3838 -0.8881
13550SOL     OW45011   0.165   7.363   4.390 -0.0906 -0.5314 -0.4919
13550SOL    HW145012   0.111   7.287   4.412 -1.1084  0.2008 -0.3980
13550SOL    HW245013   0.195   7.396   4.475  1.6487 -1.7166 -0.6001
13551SOL     OW45014   4.723   2.180  10.054  0.1123 -0.1731 -0.1368
13551SOL    HW145015   4.799   2.232  10.027  2.0928 -2.3593  0.8525
13551SOL    HW245016   4.748   2.145  10.140 -2.2443 -0.5955  0.4330
13552SOL     OW45017   9.763   3.300   5.764  0.0326 -0.0886  0.6051
13552SOL    HW145018   9.757   3.395   5.771 -0.0159 -0.1255  1.1318
13552SOL    HW245019   9.697   3.276   5.699 -1.5747  0.0414  2.1166
13553SOL     OW45020   1.109   3.500  10.480  0.1925 -0.3502 -0.7763
13553SOL    HW145021   1.108   3.553  10.400  1.1197 -0.0927 -0.6189
13553SOL    HW245022   1.096   3.564  10.550  0.5327 -0.4349 -0.6395
13554SOL     OW45023   8.742   6.384  10.328 -0.6502 -0.2626  0.5229
13554SOL    HW145024   8.788   6.300  10.331  1.9470  1.0401  0.0348
13554SOL    HW245025   8.781   6.430  10.254 -1.6917  1.5556  1.0360
13555SOL     OW45026   7.081   8.936   5.378 -0.3321 -0.2871  0.0268
13555SOL    HW145027   7.069   8.972   5.466  0.6203  2.1215 -0.7228
13555SOL    HW245028   7.141   8.862   5.390 -2.8938 -2.2401  1.7468
13556SOL     OW45029   6.994   0.959   9.848  0.0676 -0.1278 -0.3208
13556SOL    HW145030   6.973   0.926   9.760  0.4252 -2.6048  0.4308
13556SOL    HW245031   6.925   0.923   9.904  1.0856 -0.4921  0.7365
13557SOL     OW45032   3.507   6.864   0.065  0.5236  0.7560 -0.3286
13557SOL    HW145033   3.584   6.863   0.123 -0.0671  1.2399  0.4830
13557SOL    HW245034   3.457   6.787   0.090  0.7450  0.4206 -0.8852
13558SOL     OW45035   1.656   5.558   9.517  0.1412 -0.1368  0.0016
13558SOL    HW145036   1.677   5.579   9.608 -2.4533 -0.4145  0.7432
13558SOL    HW245037   1.692   5.470   9.504  1.2584  0.2326  0.4757
13559SOL     OW45038   9.292   9.313   4.859 -0.0923 -0.2809 -0.0362
13559SOL    HW145039   9.339   9.232   4.845  2.6058  1.4952 -2.1828
13559SOL    HW245040   9.224   9.314   4.792 -0.8205 -1.1736  0.6661
13560SOL     OW45041   5.858   4.517   3.258  0.2056  0.0261  0.3116
13560SOL    HW145042   5.785   4.478   3.210  1.3368 -0.6439 -0.9116
13560SOL    HW245043   5.933   4.462   3.237  1.4104  1.6130  0.2851
13561SOL     OW45044   7.792   3.862   4.965  0.3339  0.0211 -0.0030
13561SOL    HW145045   7.845   3.942   4.958  0.1832  0.5513  3.1680
13561SOL    HW245046   7.853   3.792   4.942  1.2588  0.8638 -0.2505
13562SOL     OW45047   8.453   8.923   4.188 -0.6950 -0.0929 -0.4479
13562SOL    HW145048   8.446   8.903   4.281  1.4477 -0.0013 -0.2138
13562SOL    HW245049   8.367   8.958   4.165 -1.0592  0.5915  1.6752
13563SOL     OW45050   6.365   7.457   6.864 -0.4770 -0.1862  0.5495
13563SOL    HW145051   6.351   7.503   6.781 -0.4952 -1.7011 -0.3200
13563SOL    HW245052   6.277   7.443   6.898 -0.5247 -0.4230  0.3324
13564SOL     OW45053   7.507   2.708   0.066 -0.3945  0.2902  0.0334
13564SOL    HW145054   7.592   2.666   0.050  0.1255  1.8572 -1.7617
13564SOL    HW245055   7.444   2.655   0.018 -0.2591 -0.2363  0.4315
13565SOL     OW45056   9.676  10.811   8.928  0.2177  0.8458  0.3758
13565SOL    HW145057   9.758  10.811   8.976 -0.4896  0.8852  1.6300
13565SOL    HW245058   9.689  10.875   8.858  1.7648 -0.2669 -0.4015
13566SOL     OW45059   8.059   4.177   2.905 -0.8125 -0.3226 -0.0912
13566SOL    HW145060   8.149   4.179   2.935 -0.6271 -0.6786 -0.6196
13566SOL    HW245061   8.049   4.255   2.850 -0.5900 -0.7148 -0.6963
13567SOL     OW45062   5.608   0.934   3.781 -0.8590  0.2224  0.3187
13567SOL    HW145063   5.540   0.932   3.849 -3.4708 -0.2271 -2.1060
13567SOL    HW245064   5.644   0.845   3.781 -2.1414 -0.3239 -0.0461
13568SOL     OW45065   1.868   4.027   1.633  0.0366 -0.1656 -0.0521
13568SOL    HW145066   1.801   4.059   1.573  1.2218 -0.1185 -1.3817
13568SOL    HW245067   1.944   4.082   1.616  0.0614  0.6903  2.3937
13569SOL     OW45068   7.497   5.611   9.221  0.2794 -0.2671 -0.6231
13569SOL    HW145069   7.454   5.685   9.179  1.1919  0.3494 -0.4966
13569SOL    HW245070   7.586   5.612   9.186 -0.0875 -2.1891 -1.7341
13570SOL     OW45071   4.866   0.051   7.097  0.2991  0.5087  0.1739
13570SOL    HW145072   4.894  -0.019   7.155 -2.3116  0.1817  1.2118
13570SOL    HW245073   4.793   0.093   7.144 -0.0017  2.1545 -1.6046
13571SOL     OW45074   2.513   8.106  11.066  0.0829 -0.8607 -0.6888
13571SOL    HW145075   2.532   8.020  11.028  0.3292 -1.6352  1.0532
13571SOL    HW245076   2.449   8.087  11.135  1.9534 -0.0774  1.3862
13572SOL     OW45077   2.828   3.436   0.508  0.1358 -0.0457 -0.4677
13572SOL    HW145078   2.867   3.481   0.434  0.9553  2.1368  1.1855
13572SOL    HW245079   2.874   3.471   0.585  0.0611 -2.9497  1.0441
13573SOL     OW45080   5.844   0.708   7.368  0.7697  0.4270 -0.5143
13573SOL    HW145081   5.895   0.636   7.405  0.4914  0.1185 -0.7203
13573SOL    HW245082   5.818   0.676   7.281  0.0894  0.5124 -0.3432
13574SOL     OW45083   3.508   7.030   6.632  0.3630  0.1563  0.7398
13574SOL    HW145084   3.588   7.060   6.675 -0.4964  1.0630  1.7727
13574SOL    HW245085   3.482   7.102   6.575  0.8150 -0.5460 -0.3978
13575SOL     OW45086   8.361   2.580   3.981  0.6679  0.5095 -0.0357
13575SOL    HW145087   8.352   2.632   3.901 -1.5470 -1.2333 -1.0202
13575SOL    HW245088   8.271   2.557   4.005  1.1192  1.7690  3.5901
13576SOL     OW45089   3.569   3.032   8.163 -0.6714  0.1688 -0.1743
13576SOL    HW145090   3.514   2.962   8.127  1.3099 -1.5039 -0.1223
13576SOL    HW245091   3.619   2.990   8.233 -0.3821  1.9982  0.7815
13577SOL     OW45092   2.281   9.558   3.884 -0.1579 -0.0525  0.1937
13577SOL    HW145093   2.375   9.571   3.894 -0.1784  0.6849 -0.4107
13577SOL    HW245094   2.273   9.475   3.837  0.1788 -0.2444  0.4724
13578SOL     OW45095   4.111   1.582   4.506 -0.1627 -0.1671  0.0405
13578SOL    HW145096   4.044   1.555   4.568  0.3810  1.5882  1.4603
13578SOL    HW245097   4.193   1.549   4.542  0.2610  1.5594  0.7709
13579SOL     OW45098   3.738   2.993   2.316  0.1085 -0.7036  0.0465
13579SOL    HW145099   3.692   3.077   2.318  0.3449 -0.4737 -1.8108
13579SOL    HW245100   3.733   2.960   2.405  0.8989  1.7603  1.0789
13580SOL     OW45101   5.971   2.869  10.702 -0.0117  0.5255 -0.5063
13580SOL    HW145102   5.998   2.783  10.733 -0.1464  0.0625 -1.6022
13580SOL    HW245103   5.880   2.856  10.674 -0.0524  1.0410 -0.6188
13581SOL     OW45104   4.765   0.057   8.568  0.0321  0.1823 -0.0878
13581SOL    HW145105   4.693   0.050   8.630 -0.2003  1.5058 -0.1784
13581SOL    HW245106   4.737   0.005   8.493 -0.6846  0.3829  0.0269
13582SOL     OW45107   6.385   6.635   3.161  0.3507  0.1413 -0.3121
13582SOL    HW145108   6.471   6.644   3.203 -0.1993 -1.4520  1.2372
13582SOL    HW245109   6.350   6.724   3.161  0.1550  0.1933  3.1940
13583SOL     OW45110   5.689   3.599   8.807 -0.0183 -0.2660  0.0606
13583SOL    HW145111   5.681   3.688   8.772  0.9720  0.4572  1.5451
13583SOL    HW245112   5.615   3.591   8.867  0.8766  0.2570  1.2782
13584SOL     OW45113   0.574   6.910   1.295 -0.1209  0.0048 -0.0551
13584SOL    HW145114   0.632   6.985   1.307  0.2757 -0.5475  1.9301
13584SOL    HW245115   0.630   6.834   1.311 -1.3980 -0.5317  2.4744
13585SOL     OW45116   7.097   8.930   8.244  0.0491 -0.0365 -0.1392
13585SOL    HW145117   7.098   8.933   8.339 -1.3137 -1.1924 -0.0540
13585SOL    HW245118   7.091   9.021   8.216  1.9167  0.4140  0.8197
13586SOL     OW45119   7.374   7.815   0.484 -0.1546  0.7777 -0.0316
13586SOL    HW145120   7.400   7.907   0.479  1.3066  0.3521 -1.0991
13586SOL    HW245121   7.295   7.808   0.430  1.1653  0.9775 -2.0933
13587SOL     OW45122   5.754  10.816  10.503 -0.1783 -0.1595 -0.1558
13587SOL    HW145123   5.748  10.827  10.597 -1.4687  0.3160 -0.2747
13587SOL    HW245124   5.826  10.873  10.476 -0.6665  0.7150  0.3752
13588SOL     OW45125   6.242   5.465   5.805  0.2260  0.5770  0.4927
13588SOL    HW145126   6.224   5.422   5.721  0.6320 -0.3662  0.8724
13588SOL    HW245127   6.159   5.459   5.852  0.1030  0.7775  0.3067
13589SOL     OW45128   4.013   5.814   9.491  0.2600 -0.3399  0.0922
13589SOL    HW145129   4.077   5.750   9.463 -2.7917 -2.9450 -1.6097
13589SOL    HW245130   4.000   5.798   9.585  0.9132 -0.8780  0.0888
13590SOL     OW45131  10.117  11.015   4.366 -0.1099 -0.0016  0.4524
13590SOL    HW145132  10.029  10.996   4.397 -0.8042  2.3981  0.1603
13590SOL    HW245133  10.174  10.971   4.429 -1.5113 -0.3369  1.5357
13591SOL     OW45134   9.580   7.140   2.754  0.0687 -0.0243  0.3509
13591SOL    HW145135   9.650   7.116   2.814  1.1969 -1.1249 -1.3193
13591SOL    HW245136   9.617   7.209   2.699 -0.0770 -0.6761 -0.6044
13592SOL     OW45137   5.363   0.506   3.425  0.2547 -0.0378 -0.3170
13592SOL    HW145138   5.335   0.432   3.370 -0.0181 -0.7274  0.7226
13592SOL    HW245139   5.458   0.495   3.431  0.1256 -0.8203  0.5289
13593SOL     OW45140   2.765   0.475   6.032  0.2138 -0.7588 -0.0106
13593SOL    HW145141   2.723   0.519   6.105 -0.0881 -1.6243  0.3558
13593SOL    HW245142   2.841   0.529   6.011 -0.2116 -0.0204  0.3426
13594SOL     OW45143   1.287   3.546   7.422  0.3517 -0.4875 -0.5411
13594SOL    HW145144   1.378   3.571   7.438 -0.0311 -0.2148  1.4428
13594SOL    HW245145   1.249   3.537   7.509 -2.0335  1.1923 -1.3150
13595SOL     OW45146   7.656   4.149   3.164 -0.0630  0.4786  0.1148
13595SOL    HW145147   7.680   4.225   3.216 -0.3970  1.0495 -0.5562
13595SOL    HW245148   7.738   4.120   3.124  0.0981  0.3557  0.5232
13596SOL     OW45149   2.284   4.844   7.906  0.1202  0.0471 -0.0369
13596SOL    HW145150   2.331   4.764   7.880 -1.8494 -0.7980 -1.2557
13596SOL    HW245151   2.264   4.830   7.999 -0.1824 -0.9068 -0.2255
13597SOL     OW45152   0.763   0.188   9.933  0.2000  0.1571 -0.4111
13597SOL    HW145153   0.687   0.217   9.984  0.4396  0.6012 -0.3070
13597SOL    HW245154   0.839   0.218   9.982  0.4602  2.6853 -2.1413
13598SOL     OW45155   5.993   2.872   9.499  0.0239  0.0294 -0.6478
13598SOL    HW145156   5.958   2.958   9.476 -0.6718 -0.2141 -0.5285
13598SOL    HW245157   6.085   2.888   9.518  0.0150  0.6636 -1.1094
13599SOL     OW45158  10.613   1.354  10.122 -0.0468  0.5241 -0.9642
13599SOL    HW145159  10.591   1.279  10.067 -0.7599  1.1963 -1.6293
13599SOL    HW245160  10.529   1.383  10.157  0.3015  0.6234 -0.1980
13600SOL     OW45161   4.848   5.995   5.021  0.3608 -0.2905  0.2585
13600SOL    HW145162   4.936   5.985   5.058  1.0036  1.6607 -0.6263
13600SOL    HW245163   4.789   5.963   5.090  1.7303 -1.7712  0.8114
13601SOL     OW45164   1.140   7.050   5.235  0.4269  0.6230 -0.0136
13601SOL    HW145165   1.050   7.073   5.213  1.0116  1.9681 -1.1134
13601SOL    HW245166   1.157   7.094   5.319  0.2867  0.9640 -0.1640
13602SOL     OW45167   7.761   1.076  10.378  0.2409  0.1747 -0.2578
13602SOL    HW145168   7.695   1.145  10.373  0.6821  0.5511 -0.9162
13602SOL    HW245169   7.753   1.042  10.468 -0.9459  0.1068 -0.3729
13603SOL     OW45170   9.173  10.790   0.980 -0.3332 -0.5832  0.0176
13603SOL    HW145171   9.176  10.695   0.968  0.1231 -0.4240 -1.3030
13603SOL    HW245172   9.081  10.813   0.966 -0.9142 -1.0470  2.5490
13604SOL     OW45173   1.572   0.170   1.417  0.4941  0.0259  0.2381
13604SOL    HW145174   1.525   0.253   1.410  0.5411  0.0119 -0.2732
13604SOL    HW245175   1.551   0.123   1.336  1.6546  0.1609 -0.1659
13605SOL     OW45176   8.985   0.413   6.158 -0.7325  0.8845  0.0493
13605SOL    HW145177   9.079   0.405   6.138 -0.5578 -0.7161  1.3358
13605SOL    HW245178   8.974   0.506   6.179  0.9975  0.8125  1.6616
13606SOL     OW45179   1.076   0.105   6.607 -0.3756  0.0578  0.6614
13606SOL    HW145180   1.074   0.088   6.702 -0.9878  0.2901  0.6926
13606SOL    HW245181   1.061   0.199   6.599 -0.3642  0.0306  0.3275
13607SOL     OW45182   8.219   6.177   6.439 -0.2674 -0.3131 -0.1786
13607SOL    HW145183   8.247   6.236   6.509  0.9491 -0.8242 -0.2138
13607SOL    HW245184   8.138   6.137   6.472 -0.3723  0.3722  0.4036
13608SOL     OW45185   2.590  10.790  10.761 -0.1173 -0.5576  0.1756
13608SOL    HW145186   2.652  10.722  10.788 -2.0436 -2.4945  0.0203
13608SOL    HW245187   2.550  10.755  10.681 -1.2791  0.7006  0.1723
13609SOL     OW45188   1.135  10.208   5.292  0.0503  0.4972  0.7963
13609SOL    HW145189   1.055  10.260   5.291 -0.6483 -0.4469  2.3749
13609SOL    HW245190   1.122  10.147   5.365  1.6338 -0.5955  0.2126
13610SOL     OW45191   1.572  10.550   0.589  0.5019  0.2064  0.7288
13610SOL    HW145192   1.601  10.627   0.539  0.1159  0.8470  1.4562
13610SOL    HW245193   1.519  10.587   0.660 -1.4154 -0.8730 -0.0825
13611SOL     OW45194   9.374   3.048   4.458  0.2283  0.1002  0.2855
13611SOL    HW145195   9.415   3.003   4.531  4.1792 -0.7854 -2.1477
13611SOL    HW245196   9.353   2.978   4.396 -2.7791  0.8402  0.3462
13612SOL     OW45197   0.795   5.891   4.750 -0.7296  0.0237 -0.3917
13612SOL    HW145198   0.731   5.871   4.682 -0.5379  1.3432 -0.9841
13612SOL    HW245199   0.752   5.957   4.805 -0.1430  0.4393 -0.4155
13613SOL     OW45200  11.017   6.895   1.893 -0.4767  0.6171  0.0426
13613SOL    HW145201  11.007   6.801   1.907 -0.1178  0.6016  0.1776
13613SOL    HW245202  10.937   6.920   1.845 -2.8157  1.0443  3.7513
13614SOL     OW45203   8.848   0.923   2.830 -0.4854 -1.5127 -0.0335
13614SOL    HW145204   8.790   0.870   2.885  1.2390 -2.5689  0.8527
13614SOL    HW245205   8.907   0.966   2.891  1.3257 -2.5322 -0.9827
13615SOL     OW45206   3.772   0.505   9.011  0.7886  0.6478 -0.4227
13615SOL    HW145207   3.795   0.516   9.103  1.6906  0.4737 -0.6225
13615SOL    HW245208   3.679   0.481   9.013  0.2572  2.6203  0.3138
13616SOL     OW45209   9.354   5.080   7.152  0.4035  0.4426 -0.1330
13616SOL    HW145210   9.392   5.084   7.065 -2.1124  0.5670 -1.3165
13616SOL    HW245211   9.260   5.085   7.137 -0.1829 -0.9064  2.5099
13617SOL     OW45212   1.930   0.278   8.401 -0.4839  0.1372  0.1330
13617SOL    HW145213   1.961   0.189   8.421  0.3847  0.2258 -0.7903
13617SOL    HW245214   1.936   0.284   8.306 -0.6947  1.1402  0.1811
13618SOL     OW45215   1.077   3.712  10.669 -0.6176 -0.3672  0.3912
13618SOL    HW145216   1.166   3.705  10.706 -0.1404  0.0836 -0.6316
13618SOL    HW245217   1.081   3.789  10.612 -1.2952 -1.1078 -0.6902
13619SOL     OW45218  10.978   2.789   2.264  0.1198 -0.0321  0.3106
13619SOL    HW145219  10.960   2.874   2.225  0.0766 -0.3274 -0.3298
13619SOL    HW245220  11.073   2.786   2.273  0.1795 -0.1922 -0.3212
13620SOL     OW45221   0.092   3.590   0.609 -0.7643  0.2573  0.6313
13620SOL    HW145222   0.053   3.593   0.696  2.1487 -1.0126  2.1513
13620SOL    HW245223   0.139   3.674   0.602 -0.1956 -0.0424  0.7515
13621SOL     OW45224   4.441   7.935   5.100 -0.1985  0.4205  0.3871
13621SOL    HW145225   4.396   8.020   5.094 -1.9036 -0.5202 -1.2347
13621SOL    HW245226   4.457   7.923   5.193 -2.7447  1.1590  0.9948
13622SOL     OW45227  10.278   5.619   5.984 -0.2664 -0.2614 -0.6921
13622SOL    HW145228  10.323   5.600   5.901  2.1760  0.0385  0.4671
13622SOL    HW245229  10.255   5.712   5.979 -0.5002 -0.3450 -1.1889
13623SOL     OW45230   3.432   7.996   4.737  0.3374 -0.1174 -0.8640
13623SOL    HW145231   3.363   8.026   4.679 -0.7360 -1.4788 -0.3478
13623SOL    HW245232   3.513   8.016   4.690 -0.3477  1.8741 -1.3047
13624SOL     OW45233   1.705  10.427   3.378 -0.9226 -0.0771 -0.5673
13624SOL    HW145234   1.628  10.481   3.360 -1.2245  0.1930  1.3920
13624SOL    HW245235   1.672  10.353   3.430  0.1964  0.3490  0.8086
13625SOL     OW45236   0.750   5.571   4.956  0.3785  0.4789 -0.2351
13625SOL    HW145237   0.732   5.589   4.864 -0.2182  1.7354  0.0994
13625SOL    HW245238   0.666   5.542   4.992  0.9824 -1.6807 -0.4183
13626SOL     OW45239   8.737   9.031   5.104 -0.2379 -0.7028  0.2206
13626SOL    HW145240   8.748   9.099   5.170  0.4250 -0.3093 -0.2886
13626SOL    HW245241   8.644   9.034   5.082 -0.4051 -0.6307  0.9042
13627SOL     OW45242   9.457   9.464   8.173 -0.5523  0.1021 -0.0663
13627SOL    HW145243   9.473   9.497   8.261  1.7938 -0.9717 -0.0259
13627SOL    HW245244   9.429   9.542   8.123  0.2849  1.1881  1.0994
13628SOL     OW45245   6.739   3.132   8.497  0.3189  0.0012  0.5818
13628SOL    HW145246   6.788   3.134   8.415 -0.5476 -1.3011  0.0120
13628SOL    HW245247   6.756   3.045   8.534 -0.0358  0.2395  1.3332
13629SOL     OW45248   2.955   4.748   3.135  0.1639  0.3744  0.0908
13629SOL    HW145249   2.863   4.759   3.162  0.2069 -1.8796  1.4611
13629SOL    HW245250   2.975   4.827   3.086 -2.3977  1.1268  0.0786
13630SOL     OW45251   6.499   3.267   0.630  0.3537 -0.4023  0.2298
13630SOL    HW145252   6.556   3.334   0.669  0.9861 -1.6632  1.5398
13630SOL    HW245253   6.508   3.280   0.536  2.9922 -0.6601  0.3799
13631SOL     OW45254   1.830  10.807   3.569 -0.2560 -0.0011 -0.0241
13631SOL    HW145255   1.830  10.768   3.656 -2.7419  2.4894  1.2479
13631SOL    HW245256   1.886  10.885   3.577 -0.1627  0.0221 -0.7925
13632SOL     OW45257   4.578   4.740   2.732  0.1074 -0.5009 -0.1226
13632SOL    HW145258   4.552   4.829   2.707  1.6435 -0.4730 -1.8253
13632SOL    HW245259   4.500   4.687   2.714 -0.4184  0.3061 -0.2831
13633SOL     OW45260   9.882   6.506   3.943 -0.1464  0.0672  0.2657
13633SOL    HW145261   9.947   6.460   3.995 -0.3744  1.3361  1.7698
13633SOL    HW245262   9.798   6.481   3.981 -0.3277  0.9344  0.4562
13634SOL     OW45263   1.723   2.606   7.808  0.0070 -0.5239  0.0086
13634SOL    HW145264   1.696   2.634   7.720 -0.7092  1.1259  0.7030
13634SOL    HW245265   1.804   2.557   7.794 -1.4776 -2.6674 -1.8192
13635SOL     OW45266   2.479   0.214   3.419  0.6166 -0.3264 -0.7547
13635SOL    HW145267   2.559   0.198   3.469 -0.2157  0.0436  0.7719
13635SOL    HW245268   2.484   0.306   3.393 -0.5170  0.5390  1.7593
13636SOL     OW45269   0.139   9.248   9.714  0.2728 -0.0804 -0.0437
13636SOL    HW145270   0.084   9.209   9.646 -0.1415 -1.8990  1.2782
13636SOL    HW245271   0.076   9.283   9.777  0.6568  1.6081 -0.5211
13637SOL     OW45272   1.550   5.905   9.049  0.5979  0.6434 -0.2287
13637SOL    HW145273   1.568   5.902   9.143  2.3209 -1.6533 -0.5511
13637SOL    HW245274   1.500   5.826   9.031  1.8137  0.1154 -1.4767
13638SOL     OW45275   1.485   6.538  10.767  0.4284  0.1578  0.7284
13638SOL    HW145276   1.401   6.535  10.720  1.6190 -2.0986 -1.4843
13638SOL    HW245277   1.479   6.467  10.831  0.8817 -0.4115  0.1393
13639SOL     OW45278   4.171   0.583   1.813  0.6247 -0.7371 -0.6429
13639SOL    HW145279   4.255   0.627   1.802  0.3209  0.0957  0.2547
13639SOL    HW245280   4.155   0.542   1.728  1.0880  0.6164 -1.4300
13640SOL     OW45281   1.212   5.949   8.806  0.0482 -0.0135 -0.2889
13640SOL    HW145282   1.214   6.002   8.727 -0.8399 -0.4841 -0.6356
13640SOL    HW245283   1.276   5.990   8.864  0.9642  0.1311 -1.3730
13641SOL     OW45284   9.698   0.645   8.923 -0.2471  0.0356  0.5729
13641SOL    HW145285   9.608   0.636   8.955  0.4939 -0.7522  2.5883
13641SOL    HW245286   9.715   0.564   8.876 -1.3180  1.1701 -1.9756
13642SOL     OW45287   8.938   7.371   9.397  0.4599  0.2378 -0.1094
13642SOL    HW145288   8.864   7.383   9.338  1.5785 -1.2423 -1.8979
13642SOL    HW245289   9.011   7.345   9.341  1.4742 -1.7357  1.9490
13643SOL     OW45290   5.592   2.974   7.915  0.0202 -0.6423  0.5409
13643SOL    HW145291   5.540   3.025   7.977 -0.6643  0.5101 -0.9125
13643SOL    HW245292   5.560   2.884   7.925 -2.6437  0.0895 -0.5891
13644SOL     OW45293   8.531   6.701   6.675 -0.0189 -0.3819  0.4851
13644SOL    HW145294   8.527   6.734   6.585 -1.9833 -0.4054  0.5041
13644SOL    HW245295   8.587   6.624   6.670  0.1636 -0.1945 -0.6691
13645SOL     OW45296   1.150  10.965   6.600  0.1824 -0.5676 -0.2720
13645SOL    HW145297   1.215  10.959   6.530 -1.4304  0.5897 -1.9745
13645SOL    HW245298   1.120  11.056   6.597  0.0547 -0.4764  1.9766
13646SOL     OW45299  10.397   3.666   0.079  0.4429  0.2163 -0.3646
13646SOL    HW145300  10.467   3.631   0.024 -0.7390 -1.0774 -1.1319
13646SOL    HW245301  10.365   3.590   0.128 -2.1906  0.0943 -2.0506
13647SOL     OW45302   1.493   3.379   8.045  0.0124  0.0089  0.1600
13647SOL    HW145303   1.553   3.445   8.080  0.4470 -1.1900  1.8398
13647SOL    HW245304   1.421   3.377   8.109 -0.8325  0.0339 -0.7747
13648SOL     OW45305   3.300   3.155   7.819 -0.8382 -0.1945  0.3549
13648SOL    HW145306   3.208   3.128   7.816 -0.8787 -0.3192  2.1612
13648SOL    HW245307   3.315   3.181   7.909  1.1377 -0.9596  0.2908
13649SOL     OW45308   3.649  10.943   1.679  0.0172  0.3381  0.2468
13649SOL    HW145309   3.584  10.996   1.634  0.3148  0.6818  0.2192
13649SOL    HW245310   3.605  10.859   1.695  0.1400 -0.0501 -1.3119
13650SOL     OW45311   3.019   1.565   9.065 -0.4371 -0.0531  0.5425
13650SOL    HW145312   3.049   1.558   8.974 -1.4324 -1.9676  0.3078
13650SOL    HW245313   2.970   1.647   9.067  1.8665  1.4296  0.1020
13651SOL     OW45314   3.078   6.124   3.609  0.0496 -0.3658 -0.0060
13651SOL    HW145315   3.154   6.067   3.599  1.3007  1.5245 -2.6889
13651SOL    HW245316   3.111   6.200   3.656 -0.5573 -0.1877  0.1357
13652SOL     OW45317   8.391   9.742  10.343 -0.0695  0.3094 -1.0564
13652SOL    HW145318   8.445   9.812  10.381 -0.4049 -0.3289  0.6889
13652SOL    HW245319   8.343   9.785  10.272  1.1263  1.3943 -1.2599
13653SOL     OW45320   5.900   8.365   6.059 -0.2920 -0.3499 -0.2685
13653SOL    HW145321   5.950   8.423   6.118  0.6218 -0.8151 -0.5665
13653SOL    HW245322   5.818   8.350   6.105  0.2454 -0.3772  0.7124
13654SOL     OW45323   0.328   3.391   9.189  0.4960 -0.1389 -0.2619
13654SOL    HW145324   0.304   3.353   9.104  1.1998 -1.1318 -0.0293
13654SOL    HW245325   0.281   3.337   9.253 -4.8156  3.8885  0.0016
13655SOL     OW45326   2.725   9.918   1.326 -0.0424 -0.1620  0.2828
13655SOL    HW145327   2.752   9.895   1.237 -1.4948  0.1058 -0.2604
13655SOL    HW245328   2.638   9.880   1.335 -0.0662  0.1389  1.4683
13656SOL     OW45329   0.439   5.965   0.290  0.1923 -0.3366 -0.3703
13656SOL    HW145330   0.367   6.011   0.246  0.7348  0.0493 -0.8667
13656SOL    HW245331   0.518   6.008   0.258  0.7034 -1.4821 -0.6899
13657SOL     OW45332   3.175   5.178   8.856 -0.2562  0.3715 -0.1884
13657SOL    HW145333   3.098   5.128   8.829 -2.2306  1.7778  2.3551
13657SOL    HW245334   3.238   5.111   8.882 -2.3608 -0.9635  1.9727
13658SOL     OW45335   4.356   7.832  10.091  1.1784  0.0836  0.2703
13658SOL    HW145336   4.443   7.793  10.102  2.0114  2.0655  1.0476
13658SOL    HW245337   4.356   7.864  10.000  0.8626 -0.7893 -0.0489
13659SOL     OW45338  10.552  10.662   6.440 -0.2914  0.0321  0.4909
13659SOL    HW145339  10.605  10.704   6.508 -0.1955  0.0584  0.4022
13659SOL    HW245340  10.605  10.670   6.360 -1.8451  3.1699 -0.3902
13660SOL     OW45341   0.312   5.257   7.080 -0.4593  0.1878  0.1270
13660SOL    HW145342   0.341   5.343   7.048  0.3560  0.5917  1.8513
13660SOL    HW245343   0.319   5.200   7.003  0.3140  1.3580 -0.7120
13661SOL     OW45344   5.655   7.646   1.580 -0.1773 -0.0165  0.0868
13661SOL    HW145345   5.585   7.644   1.645 -1.8036 -1.7093 -1.5843
13661SOL    HW245346   5.714   7.574   1.605 -0.2601 -0.0292  0.2417
13662SOL     OW45347   4.391   7.949   5.387  0.2562  0.6899 -0.1393
13662SOL    HW145348   4.428   7.968   5.473  1.7633 -0.8736 -0.3755
13662SOL    HW245349   4.297   7.965   5.397  0.0364 -1.4049  2.4535
13663SOL     OW45350   8.504   2.307   7.965 -0.3430  0.6458  0.2294
13663SOL    HW145351   8.562   2.376   7.996 -1.7737  2.1433 -0.2834
13663SOL    HW245352   8.476   2.335   7.878 -1.7881 -0.0245  0.4412
13664SOL     OW45353   4.024   6.125   1.810 -0.1334 -0.3420  0.2578
13664SOL    HW145354   4.024   6.036   1.776  1.6000 -0.6386  0.9390
13664SOL    HW245355   3.997   6.116   1.901 -1.3003  0.0267 -0.0292
13665SOL     OW45356   4.209   3.816  10.654  0.5544  0.6405 -0.0595
13665SOL    HW145357   4.123   3.845  10.623  0.2877 -1.0254 -1.0306
13665SOL    HW245358   4.227   3.870  10.731 -0.4907  2.3303 -0.9456
13666SOL     OW45359   3.734   1.504   5.678 -0.3492 -0.3169 -0.6527
13666SOL    HW145360   3.752   1.409   5.679  1.3279 -0.0789  1.7216
13666SOL    HW245361   3.695   1.521   5.764  1.9600  1.4971  0.1255
13667SOL     OW45362  11.072   9.126   5.774  0.6239  0.7695 -0.2455
13667SOL    HW145363  11.052   9.088   5.689  2.7668 -0.0172 -0.4699
13667SOL    HW245364  11.144   9.073   5.808  1.0172  2.1666  1.2578
13668SOL     OW45365   2.548   4.804   2.305 -0.3480 -0.2717  0.1164
13668SOL    HW145366   2.615   4.737   2.295  1.3189  0.9127  2.3613
13668SOL    HW245367   2.493   4.796   2.227 -0.1575 -4.0943  0.2040
13669SOL     OW45368   7.426   5.028   7.316  0.1718  0.1693  0.4575
13669SOL    HW145369   7.391   5.005   7.230  0.1343 -0.7128  0.6946
13669SOL    HW245370   7.519   5.008   7.311  0.5764  2.0167 -0.0024
13670SOL     OW45371   1.858   6.089   3.363  0.3663  0.4263  0.3139
13670SOL    HW145372   1.890   6.007   3.326 -0.8273  0.3796 -0.6871
13670SOL    HW245373   1.763   6.086   3.349  0.1234  1.3089  1.6362
13671SOL     OW45374   4.085   4.782   4.250  0.0565  0.1540  0.0178
13671SOL    HW145375   4.115   4.844   4.316  2.2090 -0.2712 -0.5158
13671SOL    HW245376   4.076   4.833   4.170 -3.4076  0.8739  0.6667
13672SOL     OW45377   2.456   6.917   9.976  0.3954  0.6468  0.3765
13672SOL    HW145378   2.531   6.927   9.918 -0.4653 -0.6324 -1.0155
13672SOL    HW245379   2.421   6.831   9.956 -1.5820  1.2930  0.8284
13673SOL     OW45380   6.886  10.837  10.637  0.6568 -0.1457 -0.5172
13673SOL    HW145381   6.822  10.851  10.567 -0.1258  2.4072  0.5763
13673SOL    HW245382   6.858  10.757  10.680  0.9680 -1.6059 -2.8675
13674SOL     OW45383   7.521   9.475   7.059  0.2182  0.0008  0.1658
13674SOL    HW145384   7.449   9.433   7.107  0.9709  0.3864  1.7002
13674SOL    HW245385   7.589   9.488   7.125  0.4426  2.6482 -0.4784
13675SOL     OW45386   1.998   1.328   3.010  0.1273 -0.3440  0.2399
13675SOL    HW145387   2.075   1.311   3.063 -1.0072  0.5504  2.2963
13675SOL    HW245388   1.945   1.248   3.017 -0.5890  0.2054  1.5776
13676SOL     OW45389   6.591   4.178  10.959 -0.3273  0.2861 -0.2923
13676SOL    HW145390   6.631   4.238  10.896  1.0520  0.2609  0.5265
13676SOL    HW245391   6.513   4.225  10.990 -0.8660  0.4167 -1.7764
13677SOL     OW45392   0.907  10.231  10.055  0.6235  0.0027 -0.5916
13677SOL    HW145393   0.974  10.171  10.088 -1.2870 -1.9180 -0.0103
13677SOL    HW245394   0.869  10.270  10.133 -0.9295 -1.2230 -0.6887
13678SOL     OW45395   0.787   6.201   3.300  0.3219 -0.4215  0.1364
13678SOL    HW145396   0.800   6.282   3.250 -3.0091 -0.2241 -0.6626
13678SOL    HW245397   0.855   6.203   3.367  1.0057  2.5290 -0.4807
13679SOL     OW45398   6.587   1.718   4.678  0.9417 -0.6341  0.2166
13679SOL    HW145399   6.646   1.644   4.689  3.2263  0.6931 -1.9777
13679SOL    HW245400   6.529   1.692   4.607  2.6607  0.0792 -1.5437
13680SOL     OW45401   2.988   4.738  10.870 -0.1708  0.2933 -0.3936
13680SOL    HW145402   2.917   4.762  10.811 -1.4198  0.2718  1.0429
13680SOL    HW245403   2.981   4.800  10.943  1.3805  0.3719 -0.2836
13681SOL     OW45404   7.358   2.459   2.989 -0.2463 -0.0003 -0.4734
13681SOL    HW145405   7.338   2.420   3.075 -1.8708  0.2108 -0.7101
13681SOL    HW245406   7.278   2.444   2.938  1.0286 -0.9773 -2.2898
13682SOL     OW45407   0.490   7.601   7.868 -0.0435 -0.5181  0.2708
13682SOL    HW145408   0.494   7.678   7.925  1.5708 -0.5706  0.2690
13682SOL    HW245409   0.502   7.636   7.780  2.0578 -0.8652  0.3809
13683SOL     OW45410   9.112   5.692   7.412  0.4207  0.2799 -0.3601
13683SOL    HW145411   9.175   5.655   7.474 -0.2117 -0.5006 -0.1711
13683SOL    HW245412   9.043   5.728   7.467  1.2965  2.3239 -0.5108
13684SOL     OW45413   7.591   4.786   2.010 -0.0441  0.2023  0.1198
13684SOL    HW145414   7.678   4.767   2.046  0.5136  0.9902 -0.7751
13684SOL    HW245415   7.540   4.815   2.086  0.3805 -0.5599  0.7070
13685SOL     OW45416  10.082   0.230   3.072 -0.4515 -0.5927 -0.3149
13685SOL    HW145417  10.007   0.275   3.032  0.1445  1.4775  0.7120
13685SOL    HW245418  10.063   0.233   3.166  0.9256  0.0742 -0.0383
13686SOL     OW45419  10.333   1.176   2.594  0.1757 -0.3049  0.2076
13686SOL    HW145420  10.345   1.241   2.526  0.7306  0.9904  1.5025
13686SOL    HW245421  10.310   1.226   2.672 -1.2678 -1.8001  0.8148
13687SOL     OW45422   4.311   4.668   5.768  0.2873 -0.0954  0.1723
13687SOL    HW145423   4.392   4.679   5.720  0.4169 -0.0743  0.3936
13687SOL    HW245424   4.294   4.755   5.806 -0.5634  0.2744 -0.9986
13688SOL     OW45425  10.813   4.193   9.368 -0.0670  0.0669 -0.0406
13688SOL    HW145426  10.864   4.162   9.443 -0.6561 -3.2328 -0.8409
13688SOL    HW245427  10.724   4.204   9.403 -0.7212 -3.0612 -0.4469
13689SOL     OW45428  10.145   2.377   4.144 -0.2318 -0.0296 -0.1563
13689SOL    HW145429  10.073   2.400   4.086  0.5030  1.4543 -0.5137
13689SOL    HW245430  10.178   2.294   4.110 -0.1868  0.5212 -1.5107
13690SOL     OW45431  10.356   6.315   6.081  0.1982  0.2087  1.2042
13690SOL    HW145432  10.357   6.256   6.157  1.5226 -0.7987  0.4396
13690SOL    HW245433  10.408   6.270   6.015  0.7138  1.9608  0.3627
13691SOL     OW45434  10.464   0.539   8.901 -0.1305 -0.1695 -0.0748
13691SOL    HW145435  10.523   0.528   8.826  0.0987 -2.1638  0.3369
13691SOL    HW245436  10.380   0.565   8.862  0.6263  1.2692 -0.7865
13692SOL     OW45437   8.985   3.751   4.244 -0.3166  0.2092 -0.4797
13692SOL    HW145438   9.073   3.734   4.210 -0.3667 -1.9995  0.2987
13692SOL    HW245439   9.000   3.797   4.327  0.0297  1.1232 -1.0420
13693SOL     OW45440   9.766   9.982   6.493  0.0473  0.2972 -0.6886
13693SOL    HW145441   9.748  10.057   6.437 -1.1825  0.5496  0.0213
13693SOL    HW245442   9.720  10.000   6.574 -0.7070 -1.4380 -0.6817
13694SOL     OW45443   6.340   7.891  11.008 -0.2001  0.4639  0.1512
13694SOL    HW145444   6.293   7.827  11.060 -0.7828 -1.4786 -2.5272
13694SOL    HW245445   6.307   7.976  11.037 -1.7398 -0.6056  1.6802
13695SOL     OW45446   3.826   2.776   1.746 -0.1336  0.3034  0.4128
13695SOL    HW145447   3.754   2.830   1.715  0.2840 -0.1698 -1.5005
13695SOL    HW245448   3.794   2.686   1.740  0.4203  0.1197  0.0798
13696SOL     OW45449   7.987   7.240   5.338 -0.5476 -0.1405  0.1732
13696SOL    HW145450   7.945   7.172   5.391 -0.0554  0.0326  0.7956
13696SOL    HW245451   8.044   7.287   5.399 -0.4369  0.4615 -0.3744
13697SOL     OW45452   2.876   4.535   9.389  0.6021  0.4296  0.0380
13697SOL    HW145453   2.832   4.471   9.445 -0.1418  1.9245  1.2466
13697SOL    HW245454   2.825   4.536   9.308  1.9770 -2.1153 -0.9388
13698SOL     OW45455   1.321   5.409   1.452 -0.3440  0.1514  0.5388
13698SOL    HW145456   1.368   5.347   1.396 -0.8538  1.0218 -0.9154
13698SOL    HW245457   1.246   5.360   1.484  0.0559 -0.4186  0.6208
13699SOL     OW45458   0.276   3.805   0.565 -0.8262  0.1088 -0.0679
13699SOL    HW145459   0.325   3.874   0.519 -1.7221  0.8337  0.0350
13699SOL    HW245460   0.340   3.735   0.576  0.1368  0.9419 -0.1093
13700SOL     OW45461   2.983   8.270  10.522 -0.6956 -0.0316 -0.2094
13700SOL    HW145462   2.938   8.283  10.606 -1.1292 -0.4718 -0.3694
13700SOL    HW245463   3.072   8.301  10.538 -1.0960  1.0280  0.0534
13701SOL     OW45464  10.967   5.718   2.638 -0.3398 -0.1064  0.3394
13701SOL    HW145465  11.013   5.725   2.721 -2.3980  2.9957  1.3982
13701SOL    HW245466  11.023   5.764   2.575 -0.6925  1.2698  1.0085
13702SOL     OW45467   5.519   9.200  10.907 -0.6646  0.4465  0.3570
13702SOL    HW145468   5.426   9.220  10.898 -0.9139 -0.8801 -0.1809
13702SOL    HW245469   5.522   9.119  10.958 -0.0464 -1.6073 -2.6948
13703SOL     OW45470   5.915   8.676   4.892 -0.9864 -0.3295  0.4777
13703SOL    HW145471   5.883   8.707   4.977 -0.1586  0.3458  0.5576
13703SOL    HW245472   5.890   8.744   4.830 -0.0101  0.0709  0.4939
13704SOL     OW45473   7.232   5.102   0.295 -0.0915  0.0195 -0.0892
13704SOL    HW145474   7.282   5.069   0.370  1.3670 -0.2759 -1.1395
13704SOL    HW245475   7.238   5.197   0.303 -1.7628  0.0619  1.2974
13705SOL     OW45476   1.338   9.729   2.292 -1.0395 -0.5002  0.2936
13705SOL    HW145477   1.328   9.802   2.230 -0.1360 -0.5915  0.0289
13705SOL    HW245478   1.432   9.723   2.306 -1.1450 -1.3442  0.6505
13706SOL     OW45479  10.976   3.243   9.632 -0.1651 -0.1126 -0.0808
13706SOL    HW145480  11.061   3.286   9.617  0.5227 -1.1170  0.8118
13706SOL    HW245481  10.916   3.291   9.575  1.2553 -0.2492 -1.8110
13707SOL     OW45482   6.024   5.077   6.503  0.4271  0.5366  0.1903
13707SOL    HW145483   6.052   5.057   6.414 -1.5578  0.6746 -0.5253
13707SOL    HW245484   6.064   5.162   6.521  1.6682  0.0551 -0.1566
13708SOL     OW45485   8.432   5.601   0.359  0.0978 -0.2047 -0.0061
13708SOL    HW145486   8.393   5.545   0.427 -0.0378 -2.3026 -1.7017
13708SOL    HW245487   8.361   5.618   0.298  0.9204 -0.9850 -1.2252
13709SOL     OW45488   9.491   1.664   1.634  0.1817  0.1791  0.1773
13709SOL    HW145489   9.496   1.669   1.730  0.5873  1.2082  0.1194
13709SOL    HW245490   9.400   1.684   1.613  0.2723  0.7639  0.3188
13710SOL     OW45491   7.534   7.393   4.869  0.0425 -0.0444  0.2630
13710SOL    HW145492   7.572   7.308   4.849  2.0135  0.9604 -0.5360
13710SOL    HW245493   7.473   7.410   4.797 -3.0144 -2.1307  2.0860
13711SOL     OW45494  10.151   0.671   6.428 -0.5360  0.0353 -0.1150
13711SOL    HW145495  10.197   0.745   6.389 -0.5084  0.6053  0.9559
13711SOL    HW245496  10.096   0.711   6.496  0.1563 -1.0116  1.0923
13712SOL     OW45497  11.019   9.975   0.818 -0.2389 -0.1024  0.5735
13712SOL    HW145498  11.107  10.008   0.840  0.0297 -0.9177  0.7714
13712SOL    HW245499  10.963  10.006   0.890 -0.1799  0.6666  0.2994
13713SOL     OW45500   1.603  10.119   2.988 -0.1808  0.0838  0.1837
13713SOL    HW145501   1.552  10.191   3.024  0.9557 -0.0333  2.1424
13713SOL    HW245502   1.624  10.064   3.063  0.5861 -1.2783 -0.9803
13714SOL     OW45503   5.830   4.560   0.767 -0.4204  0.4029 -0.2840
13714SOL    HW145504   5.785   4.501   0.707 -0.1657 -1.1835  1.0085
13714SOL    HW245505   5.896   4.505   0.810 -0.1695  1.6227  0.9699
13715SOL     OW45506   3.439   6.427   7.878 -0.1690  0.0030 -0.1587
13715SOL    HW145507   3.370   6.373   7.918 -1.0635  0.8247 -0.5602
13715SOL    HW245508   3.478   6.370   7.812 -0.8337 -0.2984 -0.3014
13716SOL     OW45509  10.357   8.689   0.068 -0.3591  0.7530  0.3323
13716SOL    HW145510  10.409   8.614   0.039 -2.7182 -1.1345  0.7132
13716SOL    HW245511  10.331   8.732  -0.014 -1.3347 -0.5563 -0.0839
13717SOL     OW45512   0.138   0.237   5.455 -0.2994  0.3801 -0.0499
13717SOL    HW145513   0.210   0.284   5.412 -0.6906  0.3245 -0.7812
13717SOL    HW245514   0.180   0.161   5.495 -0.1283 -0.4289 -1.6734
13718SOL     OW45515   8.181   1.264   9.902  0.6684 -0.1353  0.1801
13718SOL    HW145516   8.176   1.350   9.943  0.1398  0.3471 -0.8543
13718SOL    HW245517   8.112   1.213   9.944  0.2337  0.3015 -0.0030
13719SOL     OW45518   1.893   4.051   9.300 -0.0444  0.3782 -0.3863
13719SOL    HW145519   1.811   4.070   9.346  1.0683  0.3269  1.7465
13719SOL    HW245520   1.951   4.123   9.323  1.3953 -1.0078  0.5143
13720SOL     OW45521   0.486  10.861   2.435  0.3672 -0.1877  0.3603
13720SOL    HW145522   0.490  10.843   2.529  2.2086 -1.0542  0.1595
13720SOL    HW245523   0.555  10.806   2.397 -0.7760 -0.3585 -1.5914
13721SOL     OW45524  10.917   1.257   0.177  0.9009  0.1480 -0.1168
13721SOL    HW145525  10.845   1.299   0.129  0.8787 -1.1121 -1.2688
13721SOL    HW245526  10.909   1.164   0.154  2.6203 -0.0770  0.1044
13722SOL     OW45527   6.025   4.222   5.944 -0.7711 -0.1369 -0.2808
13722SOL    HW145528   6.001   4.304   5.986 -4.1178 -1.4210  0.6223
13722SOL    HW245529   5.982   4.225   5.859  0.4941 -0.3213 -0.9653
13723SOL     OW45530   6.470   8.355   8.556  0.3667 -0.4665 -0.4352
13723SOL    HW145531   6.522   8.286   8.516 -1.5351 -1.7847 -0.7546
13723SOL    HW245532   6.387   8.354   8.508 -0.2857  1.0048  0.5732
13724SOL     OW45533   8.699   3.256   5.412  0.4191 -0.1055 -0.1528
13724SOL    HW145534   8.768   3.287   5.353  0.8076 -1.3097 -0.3573
13724SOL    HW245535   8.746   3.215   5.484 -0.0412 -2.1820 -0.9656
13725SOL     OW45536   8.726   6.630   3.308  0.2019  0.0123  0.0477
13725SOL    HW145537   8.698   6.686   3.380  1.9877  0.3284  0.5662
13725SOL    HW245538   8.646   6.609   3.260 -0.6548  2.2191  0.4036
13726SOL     OW45539   7.740  10.099  10.582 -0.4401  0.0050  0.3376
13726SOL    HW145540   7.752  10.180  10.531  2.1305 -0.4449  0.1085
13726SOL    HW245541   7.646  10.096  10.600 -0.8420  2.2141 -1.0148
13727SOL     OW45542   2.407   8.852   8.236  0.1179 -0.2303 -0.0979
13727SOL    HW145543   2.352   8.899   8.173 -1.5037 -2.6169 -0.5949
13727SOL    HW245544   2.496   8.869   8.206 -0.5502 -0.0828 -2.1474
13728SOL     OW45545   2.915   9.091   8.968 -0.9297  0.4917  0.1207
13728SOL    HW145546   2.889   9.049   9.050 -1.8029  0.5088 -0.1382
13728SOL    HW245547   2.908   9.185   8.986  0.0690  0.5174  0.3984
13729SOL     OW45548   2.063   0.954   8.216  0.5348 -0.4867 -0.0700
13729SOL    HW145549   2.128   0.935   8.148  2.2428  1.7130  0.8388
13729SOL    HW245550   2.085   0.896   8.288  0.6854 -0.6321 -0.2321
13730SOL     OW45551   3.705   4.029  10.170  0.3834 -0.5762  0.4712
13730SOL    HW145552   3.765   4.023  10.245 -0.3746 -0.4100  1.0953
13730SOL    HW245553   3.619   4.045  10.208 -0.2590 -1.8884 -0.3594
13731SOL     OW45554  10.157   5.471   0.027 -0.1981  0.1163  0.2326
13731SOL    HW145555  10.165   5.387   0.072  0.2641  0.2702  0.4326
13731SOL    HW245556  10.207   5.532   0.080  0.9598  0.1509 -0.8648
13732SOL     OW45557   6.305   7.162   8.343 -0.2547 -0.1966  0.2515
13732SOL    HW145558   6.247   7.238   8.331  0.4860  0.3496  0.0240
13732SOL    HW245559   6.313   7.123   8.256  0.3499  0.2159  0.1093
13733SOL     OW45560   3.209   5.489   2.513  0.2283 -0.3867  0.1202
13733SOL    HW145561   3.260   5.517   2.590  1.1210  1.2646 -0.9912
13733SOL    HW245562   3.214   5.564   2.453 -3.1377 -0.3315 -0.2916
13734SOL     OW45563   5.366   4.696   0.211 -0.4499 -0.0120 -0.2724
13734SOL    HW145564   5.308   4.640   0.160 -1.3201 -0.0485  0.7371
13734SOL    HW245565   5.327   4.698   0.298  1.9233 -1.3875  0.9276
13735SOL     OW45566   5.695   3.832   9.617 -0.6930 -0.7572  0.4861
13735SOL    HW145567   5.655   3.782   9.689 -0.0999 -2.3026 -0.2065
13735SOL    HW245568   5.783   3.853   9.648 -0.4314 -1.4378  0.2334
13736SOL     OW45569   0.980   2.843   0.235  0.3892 -0.1549 -0.2522
13736SOL    HW145570   0.959   2.752   0.255  1.7461 -0.6935 -1.1079
13736SOL    HW245571   1.032   2.873   0.310 -1.4581  0.4856  0.8278
13737SOL     OW45572   5.163  11.032   3.250  0.1928  0.3854  0.5348
13737SOL    HW145573   5.100  10.960   3.248  0.3166  0.2959 -0.3267
13737SOL    HW245574   5.249  10.989   3.247  0.2711  0.5565  0.3066
13738SOL     OW45575   1.628   2.640   5.285  0.0457  0.2091 -0.2561
13738SOL    HW145576   1.623   2.566   5.225 -0.9950  0.8491 -0.9930
13738SOL    HW245577   1.596   2.606   5.369 -0.5595 -0.1297 -0.6221
13739SOL     OW45578  10.011   6.334   9.148 -0.0068 -0.2351 -0.2572
13739SOL    HW145579  10.053   6.389   9.081 -0.9316  0.6395 -0.1390
13739SOL    HW245580  10.080   6.273   9.175  1.4399  1.6262  0.4879
13740SOL     OW45581   4.819   6.492   3.641 -1.1324 -0.4420 -0.1122
13740SOL    HW145582   4.745   6.438   3.671 -0.7110 -0.7174  0.4488
13740SOL    HW245583   4.831   6.467   3.549 -0.2623 -2.1222  0.4102
13741SOL     OW45584   0.034   3.527   2.108  0.1718 -0.0039  0.1178
13741SOL    HW145585   0.109   3.483   2.068 -1.2879 -1.6970 -0.9093
13741SOL    HW245586  -0.009   3.572   2.036  0.9452  2.1734  0.9543
13742SOL     OW45587  10.885   6.274   6.509  0.0217  0.1777 -0.0697
13742SOL    HW145588  10.950   6.340   6.487  0.6129 -0.8672 -1.6722
13742SOL    HW245589  10.886   6.270   6.605  0.8312  1.6121  0.0064
13743SOL     OW45590   6.287   4.931   3.518 -0.0896 -0.6670  0.3716
13743SOL    HW145591   6.274   5.021   3.487  2.4379 -0.6413 -0.9154
13743SOL    HW245592   6.364   4.937   3.574 -0.4513 -1.9049  1.0303
13744SOL     OW45593   0.280   4.027   5.529 -0.0556  0.1504  0.0368
13744SOL    HW145594   0.272   4.100   5.468 -2.1028 -0.2237 -0.2107
13744SOL    HW245595   0.266   4.067   5.615 -0.4706  0.1765 -0.0391
13745SOL     OW45596   2.282   8.105   5.186  0.3227 -0.7225 -0.2347
13745SOL    HW145597   2.353   8.066   5.238  0.1478 -1.4985 -0.5575
13745SOL    HW245598   2.240   8.166   5.246  1.8665  0.5105 -0.3346
13746SOL     OW45599   7.722   4.350   2.525 -0.4593  0.3764  0.3354
13746SOL    HW145600   7.689   4.365   2.614  2.1814  2.1673  1.1509
13746SOL    HW245601   7.779   4.426   2.508 -0.7273  0.0030 -2.8498
13747SOL     OW45602   4.162   1.942  10.388  0.4241  0.4169 -0.1076
13747SOL    HW145603   4.188   1.888  10.314 -0.0472  1.1991 -0.8685
13747SOL    HW245604   4.066   1.943  10.385  0.3825  0.1788  0.7295
13748SOL     OW45605   1.574   6.239   9.758  0.1260 -0.1029  0.0888
13748SOL    HW145606   1.627   6.168   9.795 -0.7302 -0.5332  0.5183
13748SOL    HW245607   1.630   6.316   9.764  1.1687 -0.7848 -0.6237
13749SOL     OW45608   0.347  10.495   6.781 -0.0064 -0.4543  0.1252
13749SOL    HW145609   0.347  10.453   6.695  1.0022 -0.4309  0.1080
13749SOL    HW245610   0.407  10.442   6.834  0.2050  0.1488  0.5006
13750SOL     OW45611   4.105   6.184  10.798  0.1243 -0.3560  0.1929
13750SOL    HW145612   4.155   6.213  10.722  1.6490 -2.9615  0.0854
13750SOL    HW245613   4.026   6.145  10.761 -0.2201  0.3937  0.1199
13751SOL     OW45614   1.680   1.178   0.066 -0.3201 -0.6250 -0.9917
13751SOL    HW145615   1.753   1.212   0.118 -1.3275  1.3465 -0.7639
13751SOL    HW245616   1.635   1.117   0.125  0.6236 -1.1896 -0.8372
13752SOL     OW45617   5.321   7.697   3.898 -0.0260  0.2900  0.0676
13752SOL    HW145618   5.392   7.664   3.842  2.4026  4.2042  0.5053
13752SOL    HW245619   5.247   7.705   3.838  0.0903 -2.7635 -0.6873
13753SOL     OW45620   9.978   2.150   1.506  0.2516  0.1734  0.0904
13753SOL    HW145621  10.022   2.140   1.590  0.3435 -0.5492 -0.0374
13753SOL    HW245622   9.885   2.139   1.527  0.3979 -2.1105 -0.1763
13754SOL     OW45623   3.911   1.536   3.032 -0.3206  0.1429 -0.0859
13754SOL    HW145624   3.983   1.483   2.998  1.6448  1.2954  2.0124
13754SOL    HW245625   3.890   1.497   3.116 -1.5418  0.3916 -0.2606
13755SOL     OW45626  10.810  11.028  10.820 -0.4354 -0.1954  0.6040
13755SOL    HW145627  10.832  11.099  10.760 -1.8216 -0.2238  0.0274
13755SOL    HW245628  10.840  11.059  10.906 -1.0806  1.1227  0.3785
13756SOL     OW45629   7.656   5.679   7.435 -0.5514 -0.3405 -0.2890
13756SOL    HW145630   7.688   5.766   7.414  0.4311 -0.9169 -1.2924
13756SOL    HW245631   7.566   5.693   7.465 -0.3937  1.0133 -0.3880
13757SOL     OW45632   1.571   7.773   2.599 -0.4119  0.0135 -0.6048
13757SOL    HW145633   1.632   7.844   2.577  1.0774 -1.4413 -1.4311
13757SOL    HW245634   1.587   7.756   2.692  0.5460 -0.3907 -0.8235
13758SOL     OW45635   3.968   3.309   2.556 -0.4629 -0.3051 -0.6071
13758SOL    HW145636   3.909   3.356   2.498 -0.1774  0.0777 -0.5927
13758SOL    HW245637   4.031   3.266   2.498  0.1242  0.4856 -0.5695
13759SOL     OW45638   0.049   9.175   7.812 -0.3725  0.1362 -0.6841
13759SOL    HW145639  -0.010   9.213   7.877  0.3237  0.4524 -0.2331
13759SOL    HW245640   0.135   9.211   7.833  0.2747 -1.4761 -0.3934
13760SOL     OW45641   6.172   1.818   4.522  0.5041  0.3310 -0.7088
13760SOL    HW145642   6.261   1.786   4.508  0.3125  0.1817 -1.6137
13760SOL    HW245643   6.178   1.871   4.601  1.3249  0.0435 -0.5702
13761SOL     OW45644   6.316   0.766   5.769  0.0568 -0.3784 -0.2351
13761SOL    HW145645   6.331   0.815   5.849  3.7236 -1.6558  0.0700
13761SOL    HW245646   6.221   0.759   5.762 -0.5134  2.9016  1.9549
13762SOL     OW45647   5.053   5.781  10.410  0.0382 -0.1509 -0.2647
13762SOL    HW145648   5.113   5.831  10.355 -0.5157  0.4987 -0.2867
13762SOL    HW245649   5.099   5.772  10.494  0.8978 -1.1719 -0.8196
13763SOL     OW45650   9.347   1.013   0.121  0.3571  0.3806 -0.3933
13763SOL    HW145651   9.257   0.983   0.111 -0.4897  1.9003  1.9317
13763SOL    HW245652   9.340   1.108   0.131  2.0492  0.3881  1.3030
13764SOL     OW45653   9.073   5.470   4.927  0.1377 -0.2965  0.2597
13764SOL    HW145654   9.158   5.515   4.925 -0.9295  1.8395  0.5443
13764SOL    HW245655   9.047   5.464   4.835  0.9759 -1.8192  0.0853
13765SOL     OW45656   3.595   9.278   1.353  0.4245 -0.2545  0.0662
13765SOL    HW145657   3.640   9.314   1.429  2.2920 -2.3941  0.0682
13765SOL    HW245658   3.513   9.243   1.388 -0.0504  1.2869  0.5527
13766SOL     OW45659   8.889   9.382   7.571  0.1646  0.1826 -0.0922
13766SOL    HW145660   8.919   9.471   7.590 -0.2187  0.3638 -0.3233
13766SOL    HW245661   8.821   9.393   7.504 -1.8474 -0.0207  1.8028
13767SOL     OW45662   0.025   2.860   5.446  0.1853 -0.4930 -0.4362
13767SOL    HW145663  -0.065   2.885   5.423  0.1762 -0.0480  0.0639
13767SOL    HW245664   0.035   2.772   5.410 -0.0095 -0.0504 -1.6205
13768SOL     OW45665   6.851   7.203  10.352  0.2864  0.5957  0.1066
13768SOL    HW145666   6.837   7.283  10.300  0.1689 -0.2721 -1.2696
13768SOL    HW245667   6.764   7.164  10.361  0.5395 -0.2076 -0.6856
13769SOL     OW45668   9.509   3.125   6.182 -0.1929 -0.0243  0.1307
13769SOL    HW145669   9.562   3.057   6.222 -0.3271 -0.9506 -1.2080
13769SOL    HW245670   9.423   3.085   6.170 -0.1457  0.2092 -1.0880
13770SOL     OW45671   3.065   4.627   4.832  0.6222 -0.0741 -0.0519
13770SOL    HW145672   3.100   4.706   4.873  0.4133  0.3250 -0.6309
13770SOL    HW245673   3.065   4.562   4.902 -0.2464  0.7470  0.7428
13771SOL     OW45674   2.414   6.369   3.546 -0.1838 -0.2357  0.4700
13771SOL    HW145675   2.406   6.413   3.462 -0.5253 -1.2054 -0.0235
13771SOL    HW245676   2.434   6.439   3.608 -1.2886  0.7039 -0.1810
13772SOL     OW45677   7.431   3.522   8.229  0.0803 -0.0225 -0.1626
13772SOL    HW145678   7.521   3.553   8.218 -0.7500  2.2513 -1.2378
13772SOL    HW245679   7.387   3.592   8.279 -1.0968 -1.0838  0.3538
13773SOL     OW45680   8.733  10.777   8.285  0.3213  0.1217  0.0385
13773SOL    HW145681   8.735  10.724   8.205 -1.3701  1.1962 -0.7813
13773SOL    HW245682   8.642  10.771   8.315  0.9574 -0.3919  2.0208
13774SOL     OW45683   1.794   4.986   7.326  0.1411  0.3304  0.7461
13774SOL    HW145684   1.747   4.966   7.407  0.1159  1.1689  0.9458
13774SOL    HW245685   1.732   4.963   7.256  0.6210 -1.5890  0.9057
13775SOL     OW45686   5.210   1.199   3.223  0.6836 -0.2446  0.1676
13775SOL    HW145687   5.271   1.176   3.153 -0.2275  0.4452 -0.8731
13775SOL    HW245688   5.175   1.115   3.253  0.6455 -0.5056 -0.5964
13776SOL     OW45689   4.232   0.110   6.549  0.1416  0.7480  0.3617
13776SOL    HW145690   4.238   0.015   6.546  3.1486  0.8446 -1.9470
13776SOL    HW245691   4.286   0.135   6.625 -0.3592  0.6452  0.7560
13777SOL     OW45692   1.714   8.392   0.435 -0.4594 -0.3851  0.3037
13777SOL    HW145693   1.779   8.438   0.383  0.7432  0.3317  2.3541
13777SOL    HW245694   1.642   8.455   0.445 -0.6996 -0.5260 -0.4187
13778SOL     OW45695   2.734   3.809  10.235  0.2121  0.2544  0.0602
13778SOL    HW145696   2.640   3.794  10.235  0.5058 -2.1543 -1.2565
13778SOL    HW245697   2.759   3.805  10.142  1.6272  0.7484  0.3969
13779SOL     OW45698  10.312   5.094   8.344  0.2787 -0.8039  0.1106
13779SOL    HW145699  10.350   5.136   8.268 -0.7214 -1.3415 -0.7159
13779SOL    HW245700  10.257   5.024   8.308 -0.2083 -1.0699  1.3144
13780SOL     OW45701   2.404  10.765   0.273 -0.0817 -0.0119 -0.3434
13780SOL    HW145702   2.420  10.743   0.365  0.6677 -1.5467 -0.8078
13780SOL    HW245703   2.487  10.801   0.242  0.0736 -0.6807 -0.7325
13781SOL     OW45704  10.905   9.344   1.419  0.0846 -0.1449 -0.0832
13781SOL    HW145705  10.966   9.284   1.461 -0.7023 -0.3886  0.7334
13781SOL    HW245706  10.824   9.335   1.469 -1.0065 -0.7219 -1.8604
13782SOL     OW45707   0.085   5.488   9.414 -0.0391 -0.7737 -0.2582
13782SOL    HW145708   0.089   5.583   9.412 -0.8954 -0.7310 -0.2483
13782SOL    HW245709   0.099   5.461   9.323 -0.8247 -0.5892 -0.4343
13783SOL     OW45710   3.419   5.692   0.868 -0.1062 -0.1756  0.3272
13783SOL    HW145711   3.445   5.723   0.954  0.1080  0.1487  0.1513
13783SOL    HW245712   3.326   5.712   0.862  0.2406  1.5061 -0.2065
13784SOL     OW45713   5.251   0.619   7.717 -0.1297 -0.0999 -0.7008
13784SOL    HW145714   5.158   0.613   7.694 -0.4975  1.2098  0.3781
13784SOL    HW245715   5.264   0.552   7.784 -0.5726  0.4619 -0.0402
13785SOL     OW45716   9.413   9.578  10.753 -0.1641 -0.0798 -0.1028
13785SOL    HW145717   9.355   9.569  10.678  1.7553  0.5265 -1.7360
13785SOL    HW245718   9.381   9.513  10.816 -2.6590  0.3408 -0.8252
13786SOL     OW45719   3.967   5.555   7.417  0.1370  0.2792 -0.3654
13786SOL    HW145720   4.026   5.629   7.427 -0.6895  0.9132 -0.0574
13786SOL    HW245721   3.909   5.578   7.345 -0.2784  0.0526 -0.1164
13787SOL     OW45722   5.383   5.698   9.398  0.6467  0.1105  0.3107
13787SOL    HW145723   5.363   5.606   9.380 -0.8264  0.6819 -1.2954
13787SOL    HW245724   5.435   5.726   9.323  1.9090  0.3558  1.2657
13788SOL     OW45725   6.230   1.726   2.819 -0.3156 -0.2542 -0.8365
13788SOL    HW145726   6.184   1.786   2.760 -0.7401  1.0343  0.7341
13788SOL    HW245727   6.166   1.658   2.840 -1.4792  1.3195  1.0269
13789SOL     OW45728   9.538   6.748   5.646 -0.2247 -0.1895 -0.2787
13789SOL    HW145729   9.556   6.806   5.572  0.3099  0.0107  0.0009
13789SOL    HW245730   9.443   6.736   5.644 -0.2020 -0.3090 -1.0840
13790SOL     OW45731   9.037   6.557  10.283 -0.2209 -0.3326 -0.1012
13790SOL    HW145732   9.122   6.515  10.288 -0.5864 -1.1098 -0.2543
13790SOL    HW245733   9.003   6.533  10.196 -0.3806  0.3830 -0.2387
13791SOL     OW45734   7.589   5.003   6.489 -0.5841 -0.0294  0.0741
13791SOL    HW145735   7.603   4.980   6.581 -0.9033 -2.1017 -0.3550
13791SOL    HW245736   7.499   4.976   6.471  0.1747 -1.7597 -1.4062
13792SOL     OW45737   6.737   2.055   6.474  0.3014  0.1761  0.0906
13792SOL    HW145738   6.830   2.034   6.486  0.2803 -0.0019 -0.0536
13792SOL    HW245739   6.694   2.020   6.551  0.6719  2.4313  1.4238
13793SOL     OW45740   8.404   9.955   2.459  0.1121 -0.3578  0.2650
13793SOL    HW145741   8.406   9.882   2.521  1.5704 -0.7353 -0.1844
13793SOL    HW245742   8.313   9.985   2.460 -0.4263 -1.9207  0.7672
13794SOL     OW45743   6.331  10.619   3.450 -0.6080 -0.3742  0.0415
13794SOL    HW145744   6.365  10.708   3.443  0.5297 -0.8001 -0.0787
13794SOL    HW245745   6.322  10.604   3.544  0.4983 -0.5888  0.1253
13795SOL     OW45746   3.313   3.655   2.324 -0.2994 -0.5947  0.5639
13795SOL    HW145747   3.287   3.709   2.399  0.2272  2.0291 -1.0302
13795SOL    HW245748   3.381   3.705   2.280 -1.2147 -1.5826 -2.2115
13796SOL     OW45749  10.562   2.997   2.529 -0.0255 -0.3627 -0.0890
13796SOL    HW145750  10.534   2.920   2.478 -0.9306 -0.7524  0.9539
13796SOL    HW245751  10.611   2.961   2.602  0.6977  0.1545 -0.3079
13797SOL     OW45752   9.713   4.353   0.381 -0.4233 -0.0491  0.1630
13797SOL    HW145753   9.667   4.305   0.450 -0.4934  1.0783  0.9290
13797SOL    HW245754   9.781   4.293   0.350  0.4172 -0.1632  2.0864
13798SOL     OW45755   0.900   9.788   4.654  0.1807 -0.5889 -0.4964
13798SOL    HW145756   0.976   9.737   4.685  0.9499  1.1524  0.6410
13798SOL    HW245757   0.832   9.769   4.719  0.7987  0.5907  0.5385
13799SOL     OW45758   0.464   3.029   6.350  0.1295 -0.4159  0.3369
13799SOL    HW145759   0.393   3.092   6.363  0.2382 -0.3462  0.5953
13799SOL    HW245760   0.500   3.050   6.263 -1.8650 -2.1160 -1.0050
13800SOL     OW45761   3.929   0.968   4.658  0.0901  0.1677 -0.3973
13800SOL    HW145762   3.988   0.924   4.719 -0.2942 -0.8473 -0.7362
13800SOL    HW245763   3.964   0.946   4.572 -1.0842 -0.9067 -0.6177
13801SOL     OW45764   5.637   6.592   2.906  0.2716  0.1798  0.0545
13801SOL    HW145765   5.712   6.649   2.925  0.3287  0.5709 -1.2830
13801SOL    HW245766   5.631   6.591   2.811 -0.3849 -1.2119  0.0851
13802SOL     OW45767   5.949   4.814   8.152 -0.5320  0.2144  0.5600
13802SOL    HW145768   6.037   4.849   8.139 -1.8453  3.8269  0.0373
13802SOL    HW245769   5.924   4.779   8.067 -0.2525  0.9469  0.1673
13803SOL     OW45770   5.984   7.765   0.207 -0.0359  0.0076  0.2988
13803SOL    HW145771   5.942   7.737   0.288  0.7827 -0.3964  0.5931
13803SOL    HW245772   5.965   7.858   0.201  0.2254  0.1177  1.1526
13804SOL     OW45773   6.421   8.930   6.222  0.6754  0.3615  0.5066
13804SOL    HW145774   6.499   8.946   6.276  0.0628 -2.1353  2.2623
13804SOL    HW245775   6.451   8.868   6.156  0.7630  1.4275 -0.4986
13805SOL     OW45776  10.960   3.176  10.922 -0.0394  0.3601 -0.6626
13805SOL    HW145777  11.052   3.201  10.916 -0.2429  1.1285 -0.8206
13805SOL    HW245778  10.928   3.221  11.000 -1.4127  4.1532 -3.1000
13806SOL     OW45779   0.459   1.946   3.222  0.1415 -0.4608 -0.8300
13806SOL    HW145780   0.545   1.977   3.195  0.7940 -1.6065 -0.1538
13806SOL    HW245781   0.445   1.866   3.172  0.2849 -1.2595  0.3560
13807SOL     OW45782  10.983  10.809   9.895  0.4802  0.1032  0.1712
13807SOL    HW145783  10.920  10.772   9.958  0.2125  0.3159  0.0296
13807SOL    HW245784  10.951  10.898   9.879  1.2687  0.5009  0.7152
13808SOL     OW45785   2.838   8.881   7.321 -0.4951 -0.0362 -0.4171
13808SOL    HW145786   2.811   8.929   7.243 -1.9404  2.3578  1.4245
13808SOL    HW245787   2.920   8.839   7.295 -0.3922  1.4641 -2.9116
13809SOL     OW45788   8.264   4.724   7.733 -0.1277  0.0417  0.1352
13809SOL    HW145789   8.281   4.766   7.818 -0.1071 -0.2750  0.2871
13809SOL    HW245790   8.340   4.669   7.718  0.1350  0.5256 -0.3582
13810SOL     OW45791  10.718   3.767   9.583 -0.3788 -0.7059 -0.0436
13810SOL    HW145792  10.669   3.707   9.639 -0.7472 -0.2508  0.1238
13810SOL    HW245793  10.776   3.710   9.533 -1.6501 -1.3422 -0.8431
13811SOL     OW45794   5.211   4.279  10.144 -0.4082  0.6258 -0.0376
13811SOL    HW145795   5.225   4.198  10.194 -1.3714 -0.7782 -1.8904
13811SOL    HW245796   5.300   4.308  10.121 -0.0368 -1.2292 -1.2388
13812SOL     OW45797   2.464   2.080   6.895 -0.0672  0.2667  0.4168
13812SOL    HW145798   2.465   2.051   6.987  1.2316 -2.8770 -0.4589
13812SOL    HW245799   2.554   2.068   6.865 -0.1814  2.4194 -1.0165
13813SOL     OW45800   7.491   2.393   2.189  0.2825 -0.1258 -0.5990
13813SOL    HW145801   7.410   2.437   2.214  0.3993 -0.2071 -0.0695
13813SOL    HW245802   7.532   2.453   2.126 -0.2432 -0.1446 -0.9691
13814SOL     OW45803   2.886   3.757   4.401 -0.3102 -0.8387 -0.0164
13814SOL    HW145804   2.978   3.754   4.426  0.0946 -2.2663 -1.4648
13814SOL    HW245805   2.852   3.836   4.443  2.1976  1.1771 -1.4934
13815SOL     OW45806   1.982   3.271   1.342  0.3439  0.1188  0.6213
13815SOL    HW145807   1.922   3.341   1.368  0.9695  0.9468 -0.0855
13815SOL    HW245808   1.952   3.245   1.255  0.0588 -0.5643  0.9205
13816SOL     OW45809   8.714   6.693   5.566 -0.3408  0.1608  0.2168
13816SOL    HW145810   8.728   6.702   5.472  0.7932  0.9206  0.4328
13816SOL    HW245811   8.790   6.736   5.606 -1.2513  0.6761  1.4865
13817SOL     OW45812   2.951  10.693   1.483  0.0683 -0.1376  0.4212
13817SOL    HW145813   2.928  10.785   1.468  2.0695  0.3866  0.3933
13817SOL    HW245814   2.977  10.660   1.397  0.7268 -0.3233  0.6906
13818SOL     OW45815   1.747   7.758   7.532 -0.3810 -0.0505 -0.0125
13818SOL    HW145816   1.834   7.763   7.492 -0.7288 -0.2083 -0.8069
13818SOL    HW245817   1.733   7.845   7.568  0.0033  0.0527 -0.1023
13819SOL     OW45818   8.238   3.265   6.232 -0.6317  0.3709 -0.8697
13819SOL    HW145819   8.327   3.277   6.265 -1.1503 -1.6244  1.5747
13819SOL    HW245820   8.248   3.213   6.152  0.3963 -0.1258 -0.4283
13820SOL     OW45821   6.207  10.099   5.522 -0.2473 -0.2079  0.2035
13820SOL    HW145822   6.193  10.135   5.610 -0.8620 -0.3171  0.1506
13820SOL    HW245823   6.145  10.145   5.467 -0.4626 -0.7550 -0.0179
13821SOL     OW45824   1.982  10.434   0.859  0.0490 -0.1887  0.1894
13821SOL    HW145825   2.032  10.482   0.794  1.1547 -0.0067  1.1509
13821SOL    HW245826   1.926  10.375   0.807  0.7221  0.1173 -0.9165
13822SOL     OW45827   0.628   0.786   1.351  0.2008 -0.2416 -0.6384
13822SOL    HW145828   0.577   0.759   1.274 -0.8160 -1.2970  0.3508
13822SOL    HW245829   0.572   0.849   1.396  1.1206  0.9605 -1.1383
13823SOL     OW45830   0.765   0.686   3.253  0.0930 -0.1528 -0.3972
13823SOL    HW145831   0.805   0.622   3.311  0.6616  0.4948 -0.0628
13823SOL    HW245832   0.839   0.733   3.213 -0.3098  0.4201 -0.4909
13824SOL     OW45833   6.268   9.134   1.264 -0.7414  0.7952  0.1541
13824SOL    HW145834   6.205   9.205   1.255 -0.9156  0.4972 -1.2281
13824SOL    HW245835   6.259   9.105   1.355 -1.0661  2.1491  0.5857
13825SOL     OW45836   6.921   7.136   9.834 -0.1251  0.2510  0.6312
13825SOL    HW145837   6.960   7.216   9.869  0.6059  0.3680 -0.4113
13825SOL    HW245838   6.885   7.092   9.911 -1.4548  2.0513  1.0922
13826SOL     OW45839  10.500   2.877   4.046  0.2672  0.2207  0.2195
13826SOL    HW145840  10.513   2.917   3.960 -0.8180 -0.1652 -0.1444
13826SOL    HW245841  10.563   2.920   4.103  0.8215  0.6650 -0.7148
13827SOL     OW45842   8.016   4.671   2.048 -0.6806  0.4165 -0.1811
13827SOL    HW145843   8.031   4.765   2.056  1.3545  0.1509 -0.4979
13827SOL    HW245844   8.049   4.633   2.129 -2.4706  0.0238  0.4194
13828SOL     OW45845   4.510   1.099   7.655  0.2157 -0.4291  0.0688
13828SOL    HW145846   4.603   1.085   7.635  0.2405  1.6688 -1.6983
13828SOL    HW245847   4.484   1.169   7.596 -3.1335 -2.5207 -1.1932
13829SOL     OW45848   0.090   4.757   8.747  0.5877  0.8159 -0.0894
13829SOL    HW145849   0.182   4.740   8.725  0.1772 -0.4015 -0.9449
13829SOL    HW245850   0.042   4.737   8.667 -0.6165 -0.4438  0.9142
13830SOL     OW45851   2.608   2.802   9.905  0.1003  0.2006  0.3872
13830SOL    HW145852   2.639   2.879   9.954 -1.9531 -0.1372  2.4320
13830SOL    HW245853   2.614   2.828   9.813  3.8443  1.0061  0.7162
13831SOL     OW45854   0.662   1.361   5.628 -0.1671 -0.5445 -0.0741
13831SOL    HW145855   0.628   1.450   5.638  3.5077  0.8972  1.5035
13831SOL    HW245856   0.622   1.312   5.701  1.2164  1.1513  1.9586
13832SOL     OW45857   3.197   6.778   8.872 -0.0106  0.2133 -0.3055
13832SOL    HW145858   3.212   6.869   8.845 -0.0960  0.3805  0.1953
13832SOL    HW245859   3.268   6.729   8.830 -0.6079  0.3329 -1.4887
13833SOL     OW45860  10.474  10.901   5.670  0.6147  0.3072 -0.2124
13833SOL    HW145861  10.527  10.827   5.641 -0.2054 -0.0700 -0.7582
13833SOL    HW245862  10.466  10.888   5.765  0.1674 -0.5135 -0.3541
13834SOL     OW45863   5.341   7.853   7.735  0.5612  0.8803  0.6830
13834SOL    HW145864   5.436   7.837   7.741  0.7572  1.1770 -1.0992
13834SOL    HW245865   5.324   7.917   7.804  1.6979  0.9632  0.9198
13835SOL     OW45866   5.369   7.004   0.325  1.0004  0.2092  1.1211
13835SOL    HW145867   5.309   7.012   0.399  0.0215 -0.4763  0.4285
13835SOL    HW245868   5.454   7.029   0.360  0.2500  1.6420  2.0294
13836SOL     OW45869   1.688   5.576   8.053  0.0106 -0.2596  0.5951
13836SOL    HW145870   1.762   5.599   7.997 -0.2436  0.2457  0.4704
13836SOL    HW245871   1.667   5.656   8.101 -0.6607 -0.3092  0.3953
13837SOL     OW45872   9.533   4.000   8.291  0.3294 -1.2522  0.9006
13837SOL    HW145873   9.455   3.952   8.264  1.2201 -1.6934 -1.0651
13837SOL    HW245874   9.500   4.069   8.349 -1.4873 -1.5259  0.2640
13838SOL     OW45875   2.782   5.310   8.036 -0.0641 -0.3187  0.1170
13838SOL    HW145876   2.782   5.403   8.014  1.0672 -0.4507 -0.5239
13838SOL    HW245877   2.698   5.278   8.006 -0.7885  0.6428  1.0390
13839SOL     OW45878   6.093   8.049   8.235  0.2333  0.6835 -0.4233
13839SOL    HW145879   5.999   8.028   8.237  0.3942 -0.0025  0.5410
13839SOL    HW245880   6.135   7.973   8.275  1.0715  1.6835  0.6650
13840SOL     OW45881   7.277   6.634   3.256  0.1361 -0.5898 -0.0479
13840SOL    HW145882   7.277   6.591   3.342  0.9037 -3.1080 -1.2205
13840SOL    HW245883   7.360   6.682   3.254 -1.1926  2.0218  1.6837
13841SOL     OW45884   3.553   6.295   0.162  0.4414 -0.3649 -0.0318
13841SOL    HW145885   3.462   6.321   0.145  0.1084 -1.3773  0.1328
13841SOL    HW245886   3.567   6.219   0.105  2.3632  1.8628 -2.8211
13842SOL     OW45887   3.688   4.233   5.443 -0.5361 -0.4476 -0.1581
13842SOL    HW145888   3.711   4.246   5.351  1.5529 -1.8021  0.1040
13842SOL    HW245889   3.742   4.297   5.490 -1.5425  0.1931  0.1501
13843SOL     OW45890   6.285   4.523   1.564  0.2270  0.3115  0.3423
13843SOL    HW145891   6.191   4.528   1.547  0.3990  0.7843 -0.5154
13843SOL    HW245892   6.325   4.577   1.496  1.1814 -0.5219  0.2081
13844SOL     OW45893   8.987   4.378   5.587 -0.2307 -0.0390 -0.0650
13844SOL    HW145894   8.967   4.424   5.505  0.7428  0.0734 -0.2552
13844SOL    HW245895   9.080   4.359   5.581 -0.2774 -0.5598  0.7645
13845SOL     OW45896   3.439   2.317   1.625 -0.5258  0.2224 -0.1697
13845SOL    HW145897   3.445   2.412   1.612 -1.4260  0.6017  1.8122
13845SOL    HW245898   3.395   2.285   1.546 -0.6877  1.5237 -0.6393
13846SOL     OW45899   0.307  10.142  10.564 -0.1375 -0.2085 -0.2873
13846SOL    HW145900   0.254  10.200  10.620 -0.7376 -0.3974 -0.6523
13846SOL    HW245901   0.243  10.095  10.512  0.3933 -0.5811 -0.6040
13847SOL     OW45902   5.363   9.610   6.561 -0.2424 -0.6288  0.4594
13847SOL    HW145903   5.344   9.631   6.470 -2.1352 -0.1091  0.9293
13847SOL    HW245904   5.302   9.665   6.611  1.0893 -0.5353  2.0603
13848SOL     OW45905   1.933   0.460   6.943 -0.5422  0.1066 -0.1778
13848SOL    HW145906   1.920   0.498   7.029 -1.1619  1.3176 -0.7784
13848SOL    HW245907   1.885   0.377   6.946 -2.6023  1.2242 -0.0789
13849SOL     OW45908   6.827   4.987   2.497  0.1722 -0.4728  0.7787
13849SOL    HW145909   6.845   4.896   2.518 -0.8379 -1.2170 -1.2701
13849SOL    HW245910   6.892   5.010   2.431  0.9879  0.6123  1.9124
13850SOL     OW45911   9.980   0.575   5.559 -0.6310 -0.3602  0.2594
13850SOL    HW145912   9.981   0.580   5.463 -0.4128 -0.9108  0.2279
13850SOL    HW245913   9.976   0.481   5.578 -1.6797 -0.2182  0.7855
13851SOL     OW45914   0.323  11.076   4.309  0.0420 -0.2673 -0.0244
13851SOL    HW145915   0.376  11.119   4.242 -1.9437  1.8972 -0.3244
13851SOL    HW245916   0.338  10.982   4.295 -0.5953  0.0493 -3.8099
13852SOL     OW45917   9.027   3.378   7.768  0.5017  0.1373 -0.3475
13852SOL    HW145918   8.991   3.310   7.711 -0.6758  0.5071 -0.0775
13852SOL    HW245919   9.019   3.341   7.857  0.9822  0.1401 -0.3043
13853SOL     OW45920   2.533   4.202   4.938  0.1743  0.5117  0.5187
13853SOL    HW145921   2.465   4.255   4.981  0.1535  1.5661 -0.7542
13853SOL    HW245922   2.580   4.264   4.883 -0.0705 -0.8560 -1.3156
13854SOL     OW45923   7.143  10.353   6.701  0.2880  0.0094 -0.3952
13854SOL    HW145924   7.133  10.299   6.622 -0.8064  0.2122 -0.4083
13854SOL    HW245925   7.176  10.293   6.767 -1.8944 -0.9624 -0.1169
13855SOL     OW45926   5.705   3.577   4.660  0.0876 -0.1864 -0.1510
13855SOL    HW145927   5.798   3.578   4.683  0.0515 -0.3964  0.0099
13855SOL    HW245928   5.681   3.669   4.656  0.3166 -0.1290 -0.2461
13856SOL     OW45929  10.281   2.241   9.398 -0.8254  0.0781  0.1526
13856SOL    HW145930  10.239   2.278   9.321 -0.5328 -0.0987 -0.0903
13856SOL    HW245931  10.229   2.164   9.420 -1.0781  0.2878  0.3051
13857SOL     OW45932   5.579   7.184   1.473 -0.2405 -0.0031  0.2438
13857SOL    HW145933   5.546   7.094   1.478 -0.8627  0.1962 -0.1527
13857SOL    HW245934   5.575   7.206   1.380  1.8901 -0.2804  0.0336
13858SOL     OW45935   9.901   3.832  10.877 -0.0909 -0.5912 -0.2808
13858SOL    HW145936   9.982   3.870  10.841 -0.4941  1.0160  0.4388
13858SOL    HW245937   9.848   3.813  10.800 -0.0343  0.7064 -0.6610
13859SOL     OW45938   0.815   1.580   4.141  0.0966 -0.3450 -0.4004
13859SOL    HW145939   0.853   1.493   4.154  0.1193 -0.5469 -1.7004
13859SOL    HW245940   0.777   1.602   4.227  0.2079 -1.5685 -0.0105
13860SOL     OW45941   1.014   2.097   1.294 -0.0811  0.2930 -0.0387
13860SOL    HW145942   1.069   2.028   1.331  0.8117  0.8109 -0.3689
13860SOL    HW245943   1.060   2.178   1.316 -0.3685  0.6963 -0.8851
13861SOL     OW45944   8.164  10.239   3.466  0.4802  0.0948 -0.7091
13861SOL    HW145945   8.232  10.174   3.484  0.6024  0.4149  0.0289
13861SOL    HW245946   8.082  10.195   3.489  0.4314 -0.2903 -1.5988
13862SOL     OW45947   6.405   1.801   8.892  0.2157  0.2155  0.2923
13862SOL    HW145948   6.384   1.753   8.812 -1.6930  2.7472 -0.8227
13862SOL    HW245949   6.368   1.747   8.962 -0.5655 -0.6479 -0.7537
13863SOL     OW45950  10.956   1.354   5.115 -0.0365  0.1656  0.3692
13863SOL    HW145951  11.012   1.425   5.148 -1.7614  0.8306  2.0695
13863SOL    HW245952  10.968   1.283   5.177 -0.4097 -0.0179  0.2327
13864SOL     OW45953  10.876   4.456   2.893 -0.1636 -0.4412  0.5369
13864SOL    HW145954  10.917   4.539   2.871  0.1185 -0.5653  0.5970
13864SOL    HW245955  10.938   4.412   2.950  0.0314 -1.0182 -0.0998
13865SOL     OW45956   6.408   8.368   3.791  1.0066 -0.0602 -0.2269
13865SOL    HW145957   6.371   8.396   3.707  1.2877 -1.0567 -0.6962
13865SOL    HW245958   6.433   8.449   3.834 -0.9917  0.6014 -0.2343
13866SOL     OW45959  10.321   5.974   0.393  0.6511  0.7584  0.0125
13866SOL    HW145960  10.411   5.940   0.394  0.2005 -0.7025 -2.2848
13866SOL    HW245961  10.331   6.066   0.369  1.5268  0.4468 -0.8962
13867SOL     OW45962   4.593   6.112   1.083 -0.0248 -0.3833  0.0085
13867SOL    HW145963   4.625   6.143   0.999 -0.7427 -1.5654 -0.7222
13867SOL    HW245964   4.672   6.090   1.132  0.3987  0.4277 -0.2968
13868SOL     OW45965   4.842   7.302   1.228  0.2693  0.4457  0.4706
13868SOL    HW145966   4.775   7.341   1.285 -0.0531  1.4862 -0.5871
13868SOL    HW245967   4.827   7.342   1.143  1.3592 -0.3700 -0.1266
13869SOL     OW45968   9.278   3.104   6.029 -0.2379 -0.5155  0.5604
13869SOL    HW145969   9.251   3.017   6.002  0.3604 -0.8966  1.1533
13869SOL    HW245970   9.335   3.134   5.958 -1.6144  0.0106 -0.3524
13870SOL     OW45971   2.033   2.226   3.207  0.0399 -0.0508 -0.1626
13870SOL    HW145972   2.031   2.234   3.112 -0.8237  0.9511 -0.0733
13870SOL    HW245973   2.079   2.304   3.237 -0.2705 -0.0314  0.2789
13871SOL     OW45974   4.043   8.837  10.243  0.0738  0.7615 -0.2219
13871SOL    HW145975   4.127   8.793  10.231  0.3070  0.1646  2.8892
13871SOL    HW245976   4.016   8.814  10.332 -3.7457  0.3774 -1.2977
13872SOL     OW45977   8.315   8.293   3.390 -0.6927  0.3929  0.4223
13872SOL    HW145978   8.355   8.320   3.473  0.3850 -0.2731  0.1466
13872SOL    HW245979   8.231   8.340   3.387  0.0674  1.8594  1.0202
13873SOL     OW45980   1.440   6.693   2.257 -0.3632 -0.1474 -0.3457
13873SOL    HW145981   1.509   6.689   2.191 -0.6443  0.5034 -0.6864
13873SOL    HW245982   1.437   6.786   2.282 -0.5511 -0.3180  0.2664
13874SOL     OW45983   7.800   2.658   9.161  0.1922  0.0571 -0.2753
13874SOL    HW145984   7.795   2.605   9.082  1.0417  1.4156 -1.2860
13874SOL    HW245985   7.745   2.734   9.142  1.0263  0.7785  0.1259
13875SOL     OW45986   4.842   4.992   2.759  0.0712  0.2141  0.4626
13875SOL    HW145987   4.804   5.061   2.812 -0.6276  1.3594 -1.4145
13875SOL    HW245988   4.770   4.931   2.743  0.2307 -0.0301  0.6644
13876SOL     OW45989   3.290   3.665   5.744 -0.2729 -0.2817  0.5416
13876SOL    HW145990   3.323   3.600   5.806  1.6683  0.2381  0.1020
13876SOL    HW245991   3.325   3.749   5.775 -0.9172  0.2658 -0.1584
13877SOL     OW45992   7.731   1.130   0.440 -0.1992 -0.0047 -0.1502
13877SOL    HW145993   7.812   1.087   0.468 -0.1255 -0.1646 -0.6007
13877SOL    HW245994   7.717   1.199   0.505  0.7902  0.6165 -0.5628
13878SOL     OW45995   1.339   2.538   2.088  0.0409  0.3980  0.6438
13878SOL    HW145996   1.248   2.566   2.092  0.4315  1.7317  0.9419
13878SOL    HW245997   1.335   2.443   2.086 -1.4533  0.3993 -2.4195
13879SOL     OW45998   6.608   9.967   2.807  0.1399 -0.3249 -0.0762
13879SOL    HW145999   6.567  10.015   2.879  0.1962 -0.7264  0.2257
13879SOL    HW246000   6.700   9.960   2.833  0.3703  0.4177 -0.6667
13880SOL     OW46001  10.265   9.558   0.571 -0.3215  0.1650  0.3505
13880SOL    HW146002  10.330   9.549   0.501  1.0743  0.6366  1.5082
13880SOL    HW246003  10.200   9.490   0.554  1.2838 -1.3537 -0.0431
13881SOL     OW46004   5.019   7.443   7.142  0.3702  0.2249  0.3928
13881SOL    HW146005   5.061   7.453   7.057  0.3600  2.7201  0.6242
13881SOL    HW246006   5.055   7.361   7.177  3.0319  0.9175 -0.5284
13882SOL     OW46007   5.559   9.669  10.624  0.0270  0.0148 -0.1271
13882SOL    HW146008   5.572   9.580  10.657  0.6062  0.7000  1.6196
13882SOL    HW246009   5.523   9.657  10.537 -1.1533 -1.9355  0.5648
13883SOL     OW46010   5.709   7.859   7.190 -0.2459  0.3731  0.4164
13883SOL    HW146011   5.782   7.920   7.175 -0.4293 -0.0682 -3.0867
13883SOL    HW246012   5.639   7.892   7.134 -1.7582 -0.8217  1.5330
13884SOL     OW46013   6.283   4.879   7.137  0.2994  0.1432 -0.1923
13884SOL    HW146014   6.197   4.896   7.097  0.8382  1.0466 -1.0285
13884SOL    HW246015   6.289   4.784   7.143 -1.7751  0.0704  2.1787
13885SOL     OW46016   5.911   4.524   1.968 -0.5842 -0.2774  0.5838
13885SOL    HW146017   5.852   4.562   1.903 -2.7529 -0.2446  2.4433
13885SOL    HW246018   5.853   4.492   2.037  1.5957 -0.2293  2.5613
13886SOL     OW46019  10.055   2.204   8.689  0.5795 -0.1515 -0.7191
13886SOL    HW146020  10.030   2.157   8.610 -0.9478 -0.6683  0.0212
13886SOL    HW246021  10.110   2.143   8.738  1.3514  0.0920 -1.2594
13887SOL     OW46022   0.115  10.467   8.321  0.2756  0.6350  0.4959
13887SOL    HW146023   0.117  10.476   8.226  0.7059 -0.3033  0.4002
13887SOL    HW246024   0.142  10.376   8.337 -0.6466  0.5111  1.4731
13888SOL     OW46025   6.393  11.017   5.362 -0.2009 -0.1521 -0.2480
13888SOL    HW146026   6.357  10.928   5.357  0.7285 -0.6038  0.8295
13888SOL    HW246027   6.470  11.009   5.417 -1.2186  1.6801  1.5734
13889SOL     OW46028  10.688   4.038  10.390 -0.0825  0.3878  0.4746
13889SOL    HW146029  10.658   4.077  10.472 -1.7284  1.2456 -0.4836
13889SOL    HW246030  10.609   3.998  10.352  0.7954 -0.6205 -0.3632
13890SOL     OW46031   2.300   4.760   0.047  0.4124 -0.3385  0.7513
13890SOL    HW146032   2.340   4.841   0.080 -0.7366  0.6652 -0.1956
13890SOL    HW246033   2.340   4.747  -0.039  0.9906 -1.1003  1.1243
13891SOL     OW46034  10.689   4.977   8.193 -0.3954 -0.0101 -0.4094
13891SOL    HW146035  10.654   5.038   8.258  1.1214 -0.4776  0.9220
13891SOL    HW246036  10.779   5.007   8.178  0.3480 -1.8110  0.1717
13892SOL     OW46037   8.456  10.751   8.345 -0.0853  0.1118 -0.6565
13892SOL    HW146038   8.362  10.735   8.344 -0.1737  0.5785 -0.2101
13892SOL    HW246039   8.476  10.773   8.437  0.5091 -0.2999 -0.6812
13893SOL     OW46040   0.732   9.748   0.712  0.2226 -0.3270  0.6590
13893SOL    HW146041   0.749   9.842   0.700 -1.0066  0.0519  1.6080
13893SOL    HW246042   0.818   9.708   0.714  0.7624  0.7405 -0.0669
13894SOL     OW46043   0.112  10.083   4.596 -0.3550  0.5070  0.1324
13894SOL    HW146044   0.069  10.139   4.661  1.9212  3.9368 -1.0492
13894SOL    HW246045   0.077  10.112   4.512  1.3521  0.6597 -0.5736
13895SOL     OW46046   8.932   8.737   7.126  0.6053 -0.1373 -0.3313
13895SOL    HW146047   8.975   8.654   7.103  2.4108  0.6879 -0.1181
13895SOL    HW246048   8.938   8.741   7.222  0.2194  0.0986 -0.3154
13896SOL     OW46049   8.430   4.119   0.342 -0.4407  0.5757  0.4246
13896SOL    HW146050   8.458   4.083   0.427  0.5011 -1.6892 -0.7462
13896SOL    HW246051   8.339   4.092   0.334  0.0497 -1.0660 -0.1201
13897SOL     OW46052  10.927   3.962  10.480  0.1047 -0.0120  0.0472
13897SOL    HW146053  10.838   3.991  10.457  0.2272  0.1080 -0.2784
13897SOL    HW246054  10.929   3.965  10.576 -0.8018 -1.6779  0.1551
13898SOL     OW46055  10.879  10.829   6.622  0.6531 -0.0832 -0.0379
13898SOL    HW146056  10.852  10.894   6.557  0.7694  0.8145  0.7896
13898SOL    HW246057  10.974  10.834   6.623  0.6461  0.0193  0.3066
13899SOL     OW46058   0.693   5.721   6.931  0.1461 -0.0748 -0.2513
13899SOL    HW146059   0.624   5.787   6.924  0.0886  0.2026  2.2893
13899SOL    HW246060   0.680   5.681   7.016 -0.0497 -3.7352 -1.8177
13900SOL     OW46061   3.696   1.168   2.463  0.1766 -0.4411  0.2011
13900SOL    HW146062   3.677   1.241   2.522  0.1571  0.7293 -1.1806
13900SOL    HW246063   3.637   1.098   2.491  0.9110 -0.3105  2.2082
13901SOL     OW46064   7.612   9.363   5.901  0.7424 -0.0297  0.3093
13901SOL    HW146065   7.641   9.389   5.814  1.1462  1.5238  0.8758
13901SOL    HW246066   7.592   9.270   5.892 -1.5768  0.5838 -2.0465
13902SOL     OW46067   4.786   3.907  10.682  0.2108 -0.2983  0.5259
13902SOL    HW146068   4.707   3.920  10.630 -0.8067  0.7684  2.2228
13902SOL    HW246069   4.832   3.835  10.639  0.0008  1.1824 -2.4206
13903SOL     OW46070   8.407   4.386   0.941 -0.1689  0.0256 -0.4457
13903SOL    HW146071   8.375   4.402   0.853 -0.4469  0.3936 -0.2792
13903SOL    HW246072   8.503   4.392   0.934  0.1193 -3.5813 -1.4704
13904SOL     OW46073   1.829  10.968   9.980  0.1327  0.0438 -0.2077
13904SOL    HW146074   1.875  10.926  10.052  1.7696 -0.1098 -1.2889
13904SOL    HW246075   1.766  11.026  10.022 -0.3781 -1.5176  1.3230
13905SOL     OW46076  10.240   5.901   1.606  0.1810 -0.2556  0.4402
13905SOL    HW146077  10.207   5.863   1.524  1.7580  0.2975 -0.4998
13905SOL    HW246078  10.322   5.945   1.581 -0.3722  1.7777  1.9047
13906SOL     OW46079   7.999   5.932   2.760  0.6120  0.4895 -0.0555
13906SOL    HW146080   8.085   5.907   2.728  0.0972 -0.9827 -0.4038
13906SOL    HW246081   8.010   5.945   2.854  0.9201 -1.3009  0.1897
13907SOL     OW46082   9.337  11.028   4.801  0.3776  0.3186 -0.1817
13907SOL    HW146083   9.252  11.005   4.841  1.3387 -1.3146  1.0672
13907SOL    HW246084   9.352  10.959   4.737  0.7996  0.5493 -0.3328
13908SOL     OW46085   7.736  10.919  10.385 -0.0881  0.5837  0.0961
13908SOL    HW146086   7.641  10.930  10.382  0.0391  1.6308 -0.4146
13908SOL    HW246087   7.750  10.843  10.441 -1.2423  0.2250 -0.0854
13909SOL     OW46088   8.067   9.358   3.793  0.0521  0.0294 -0.3098
13909SOL    HW146089   7.987   9.305   3.790 -0.3394  0.6177 -0.6056
13909SOL    HW246090   8.125   9.310   3.852 -0.7940 -0.0441  0.5059
13910SOL     OW46091   2.846   5.672   0.448 -0.0611  0.1634  0.1602
13910SOL    HW146092   2.822   5.759   0.480  1.6594  0.5031  0.5904
13910SOL    HW246093   2.831   5.613   0.522 -0.1377  0.2685  0.2282
13911SOL     OW46094   3.824   7.383   0.300  0.2143  0.6492  0.6125
13911SOL    HW146095   3.752   7.397   0.239  0.4004 -1.0861 -0.0732
13911SOL    HW246096   3.884   7.324   0.253  0.9976  0.3072  1.9806
13912SOL     OW46097   2.514  10.829   7.489 -0.2040 -0.0438 -0.0779
13912SOL    HW146098   2.527  10.910   7.441  0.1684 -0.1705 -0.1964
13912SOL    HW246099   2.581  10.831   7.557 -1.9958  1.1188  1.7790
13913SOL     OW46100   7.924   4.453   7.029 -0.1868  0.7949  0.2723
13913SOL    HW146101   8.004   4.402   7.044 -0.7603 -0.3068 -0.2719
13913SOL    HW246102   7.930   4.526   7.091  1.5368  1.0979 -0.2086
13914SOL     OW46103  10.791   3.387   7.553  0.1999 -0.2519  0.0771
13914SOL    HW146104  10.800   3.473   7.512 -0.5582 -0.1512  0.1093
13914SOL    HW246105  10.769   3.328   7.481  1.6316 -0.6131 -0.1018
13915SOL     OW46106  10.818   7.392   9.015 -0.7742  0.7557 -0.2002
13915SOL    HW146107  10.835   7.425   8.927  0.2742  2.3860  0.5698
13915SOL    HW246108  10.744   7.445   9.046 -1.8864 -0.5778 -0.4629
13916SOL     OW46109   9.040   6.654   1.531  0.0241  0.3943  0.4859
13916SOL    HW146110   8.972   6.655   1.463 -0.9671 -0.4427  1.4428
13916SOL    HW246111   9.072   6.564   1.531  1.5428  0.9087 -0.3275
13917SOL     OW46112   1.464   3.069   8.033  0.4518 -0.2403  0.4664
13917SOL    HW146113   1.522   3.144   8.018 -0.4757  0.5038  0.5321
13917SOL    HW246114   1.376   3.102   8.017 -0.1756 -0.7424  2.5290
13918SOL     OW46115   4.635   2.374   3.156  0.0842 -0.5148 -0.6956
13918SOL    HW146116   4.572   2.334   3.215  0.6961 -0.1482  0.2246
13918SOL    HW246117   4.718   2.330   3.175  0.4394  0.1098 -0.7590
13919SOL     OW46118   1.972  10.132   5.423 -0.5014 -0.1388 -0.0237
13919SOL    HW146119   1.974  10.200   5.356 -1.1600  0.0570  0.1448
13919SOL    HW246120   2.007  10.174   5.502  2.7155 -1.0757 -0.8147
13920SOL     OW46121   8.598   3.170   7.785 -0.0824  0.9390 -0.0671
13920SOL    HW146122   8.643   3.209   7.860 -0.7651  2.9753 -0.6529
13920SOL    HW246123   8.505   3.173   7.808 -0.1778  0.0030 -0.3014
13921SOL     OW46124   0.729   2.273   4.207 -0.8888  0.0461 -0.2019
13921SOL    HW146125   0.652   2.247   4.157 -0.6531 -1.2315  0.0411
13921SOL    HW246126   0.696   2.294   4.294 -1.1066  0.6937 -0.4413
13922SOL     OW46127   1.038   8.555   7.535  0.9254 -0.0574 -0.2407
13922SOL    HW146128   1.112   8.509   7.493  1.2292  0.6428 -0.4883
13922SOL    HW246129   1.073   8.642   7.556  0.2382  0.1965 -0.1419
13923SOL     OW46130   1.381   7.282   6.895  0.3723  0.5283 -0.5430
13923SOL    HW146131   1.336   7.339   6.833 -1.3237 -1.5072 -1.3281
13923SOL    HW246132   1.469   7.272   6.858 -0.3563 -0.0044 -2.2372
13924SOL     OW46133   0.676   8.766   8.879  0.1106 -0.4686 -0.3332
13924SOL    HW146134   0.757   8.721   8.899  1.0180  0.5519 -1.5475
13924SOL    HW246135   0.701   8.858   8.867 -1.1178 -0.2172 -1.2266
13925SOL     OW46136   0.214   0.833   3.307 -0.6549 -0.3650 -0.2688
13925SOL    HW146137   0.255   0.782   3.238 -1.0038 -0.8670 -0.1139
13925SOL    HW246138   0.287   0.861   3.363 -0.5233 -1.4141  0.1155
13926SOL     OW46139   9.586   1.833   2.769 -0.7698  0.8146  0.0725
13926SOL    HW146140   9.674   1.847   2.732  1.0286 -0.2749  3.4524
13926SOL    HW246141   9.554   1.921   2.789  0.1260  1.1872 -0.0718
13927SOL     OW46142  10.165   4.285   0.480  0.1067  0.3318  0.1401
13927SOL    HW146143  10.109   4.245   0.547  0.3359  0.3196  0.3249
13927SOL    HW246144  10.153   4.229   0.403  1.2385 -0.7266  0.7023
13928SOL     OW46145   6.390   3.688   3.908 -0.6828 -0.3324  0.4915
13928SOL    HW146146   6.296   3.674   3.905 -1.1776  2.1506  1.5235
13928SOL    HW246147   6.401   3.769   3.958  1.9005  0.2512 -0.8008
13929SOL     OW46148   7.490   4.462   6.698  0.5116  0.0575 -0.2194
13929SOL    HW146149   7.578   4.474   6.662  0.0563 -0.0999 -1.4386
13929SOL    HW246150   7.504   4.420   6.783  1.5810 -0.5156 -0.6619
13930SOL     OW46151   3.002   4.446  10.608 -0.3093 -0.5226  0.4818
13930SOL    HW146152   2.912   4.475  10.590 -0.0455 -0.3481 -0.5905
13930SOL    HW246153   3.013   4.368  10.555 -0.2835 -1.3756  1.6980
13931SOL     OW46154   6.752   8.931   4.414  0.0907  0.6985 -0.4737
13931SOL    HW146155   6.744   8.986   4.492 -2.5606  1.8119 -1.4187
13931SOL    HW246156   6.846   8.913   4.407  0.6327  2.1769  1.8611
13932SOL     OW46157   1.082   9.936   1.973  0.0377 -0.1473  0.3696
13932SOL    HW146158   1.155   9.981   2.016 -0.6830 -1.4918  3.2701
13932SOL    HW246159   1.013  10.002   1.967  1.3903  1.1757 -2.5192
13933SOL     OW46160   4.053   2.048   3.116 -0.3110  0.2506  0.0005
13933SOL    HW146161   4.057   2.042   3.211  0.5816 -2.7454 -0.1320
13933SOL    HW246162   4.050   2.142   3.098 -0.0625  0.9080  2.9449
13934SOL     OW46163  10.112  10.573  10.089  0.5421  0.1169 -0.7836
13934SOL    HW146164  10.018  10.589  10.092  0.5312 -0.1093  0.4731
13934SOL    HW246165  10.125  10.528  10.005 -0.6989 -1.2290 -0.3018
13935SOL     OW46166   6.911   8.235   4.437  0.4447  0.2383  0.3755
13935SOL    HW146167   6.859   8.178   4.494  0.5676 -0.6251 -0.3591
13935SOL    HW246168   6.987   8.182   4.413 -0.9592 -0.5395 -2.8754
13936SOL     OW46169   8.757   7.415   1.559  0.0280 -0.4949 -0.3103
13936SOL    HW146170   8.754   7.361   1.639  0.7445  0.0242  0.0746
13936SOL    HW246171   8.825   7.480   1.576 -2.6778  2.4103  0.4070
13937SOL     OW46172   5.939   3.460   7.999  0.3136 -0.0900 -0.3734
13937SOL    HW146173   5.967   3.537   8.048 -2.7135  0.6734  0.3619
13937SOL    HW246174   6.012   3.398   8.009  2.0969  2.0019  0.4787
13938SOL     OW46175   5.206   4.791  10.613  0.7424 -0.3301 -0.6480
13938SOL    HW146176   5.164   4.865  10.658  0.4495 -1.4869  1.0470
13938SOL    HW246177   5.288   4.777  10.661 -0.0211 -2.1956  0.2100
13939SOL     OW46178  10.948   6.575   2.787  0.5399 -0.2805 -0.3688
13939SOL    HW146179  10.917   6.487   2.811 -1.2904  0.5590  0.5680
13939SOL    HW246180  11.005   6.600   2.860  1.0291 -0.6648 -0.6152
13940SOL     OW46181   8.152   9.039   1.916 -0.0534  0.3127  0.2402
13940SOL    HW146182   8.218   8.991   1.865  0.7815  3.1991 -1.6381
13940SOL    HW246183   8.194   9.053   2.001 -0.0185 -1.5317  0.5563
13941SOL     OW46184   2.857   6.470  10.853  0.1175  0.6812 -0.9619
13941SOL    HW146185   2.944   6.464  10.812  1.0522 -0.7692  1.1075
13941SOL    HW246186   2.831   6.379  10.868  0.2063  1.0969  2.3352
13942SOL     OW46187  10.106   1.079   6.075  0.4685  0.1530  0.2260
13942SOL    HW146188  10.041   1.137   6.035  1.0761  1.9103  1.6482
13942SOL    HW246189  10.081   1.074   6.167  1.2577 -0.6850  0.4112
13943SOL     OW46190  10.055   8.957  11.045  0.0305 -0.2331 -0.4125
13943SOL    HW146191  10.073   8.927  10.956 -2.4753  1.5004 -1.6371
13943SOL    HW246192   9.999   8.888  11.082 -0.0364 -0.3215 -0.6771
13944SOL     OW46193   1.860  10.681  10.382  0.1916  0.0820  0.2466
13944SOL    HW146194   1.951  10.688  10.409  0.2493 -0.7840  0.3054
13944SOL    HW246195   1.833  10.594  10.412  0.0856 -0.7180 -2.0256
13945SOL     OW46196   2.522   5.343   0.935  0.1083 -0.7479 -0.0845
13945SOL    HW146197   2.559   5.397   0.866 -0.3642 -1.1455 -0.6591
13945SOL    HW246198   2.597   5.312   0.985  0.3340  2.3750  1.7767
13946SOL     OW46199   8.629   8.859   6.113 -0.2353  0.3859 -0.1184
13946SOL    HW146200   8.622   8.913   6.192 -1.8321 -0.7290  0.5618
13946SOL    HW246201   8.542   8.864   6.073  0.1678 -0.1408 -1.0958
13947SOL     OW46202   1.814  10.220   1.707 -0.2184 -0.4347 -0.4507
13947SOL    HW146203   1.721  10.202   1.722  0.0239 -1.3457 -0.0038
13947SOL    HW246204   1.829  10.305   1.748 -1.0848  0.2228 -1.4345
13948SOL     OW46205   9.422   5.754   1.580 -0.4634  0.7798  0.2488
13948SOL    HW146206   9.340   5.706   1.569 -0.3490  0.4985  0.6113
13948SOL    HW246207   9.490   5.689   1.562 -0.3137  0.8957  0.3956
13949SOL     OW46208   4.555   9.599   6.648 -0.1643 -0.4469 -0.2009
13949SOL    HW146209   4.593   9.594   6.560 -0.3289 -0.5390 -0.2684
13949SOL    HW246210   4.470   9.640   6.634 -0.9664 -2.0544 -0.3472
13950SOL     OW46211   9.183   9.551   4.455  0.1506  0.2011 -0.0485
13950SOL    HW146212   9.144   9.510   4.532 -0.6405 -1.4216 -1.2576
13950SOL    HW246213   9.273   9.518   4.454 -0.3119 -1.0885 -0.6911
13951SOL     OW46214   7.126   5.283  10.445 -0.0107  0.5198  0.1488
13951SOL    HW146215   7.094   5.371  10.465  1.0049  1.1754 -0.9996
13951SOL    HW246216   7.159   5.289  10.356 -1.7125 -1.5439 -0.7201
13952SOL     OW46217   5.592   3.824   9.364 -0.2774  0.4913  0.3791
13952SOL    HW146218   5.638   3.811   9.447  0.1051 -2.8338 -0.2147
13952SOL    HW246219   5.512   3.773   9.372 -1.7059  2.4862 -0.3203
13953SOL     OW46220   1.184   7.654   3.109 -0.1118  0.0601 -0.4418
13953SOL    HW146221   1.138   7.730   3.145  0.6608  0.7777 -0.9117
13953SOL    HW246222   1.242   7.626   3.179 -0.8305 -0.4893 -0.0517
13954SOL     OW46223   1.929   1.396   6.150 -0.2544  0.4228 -0.2443
13954SOL    HW146224   1.883   1.470   6.189  1.9972  0.8806  1.8513
13954SOL    HW246225   1.962   1.429   6.066 -0.1712  1.4704  0.1805
13955SOL     OW46226   9.096   5.217   5.253 -0.1078  0.2496 -0.3192
13955SOL    HW146227   9.169   5.278   5.267 -0.2953  0.1925  1.0873
13955SOL    HW246228   9.125   5.160   5.183  1.6280 -0.3877  0.8664
13956SOL     OW46229   1.064  10.241   3.905  0.3703 -0.5714 -0.4436
13956SOL    HW146230   1.063  10.155   3.863 -1.9926 -0.2794 -1.1421
13956SOL    HW246231   1.027  10.301   3.840 -0.1522  0.5362  0.8013
13957SOL     OW46232   8.550   2.134   2.891 -0.1862  0.2006 -0.2394
13957SOL    HW146233   8.624   2.122   2.950  0.3163  0.6812 -0.7608
13957SOL    HW246234   8.589   2.142   2.804 -0.7143  2.0852 -0.3479
13958SOL     OW46235   7.221   3.524   5.852  0.1822 -0.0424 -0.1909
13958SOL    HW146236   7.156   3.491   5.914  0.2617 -0.1045 -0.1415
13958SOL    HW246237   7.278   3.580   5.904 -0.0889  0.3605 -0.3181
13959SOL     OW46238   0.400   8.013   2.907  0.1054 -0.4272 -0.3349
13959SOL    HW146239   0.495   8.014   2.895  0.6024  0.7608  2.7169
13959SOL    HW246240   0.374   7.923   2.889  1.6267 -0.5831 -2.0662
13960SOL     OW46241   3.490   4.640   6.935 -0.5463  0.2659  0.1156
13960SOL    HW146242   3.442   4.700   6.993 -1.8309  0.7089 -1.3207
13960SOL    HW246243   3.558   4.694   6.896 -0.4109  0.2614  0.3445
13961SOL     OW46244   1.050   8.767   1.593  0.5053 -0.2346 -0.4902
13961SOL    HW146245   0.963   8.762   1.554  0.3018 -1.6720  0.0821
13961SOL    HW246246   1.105   8.805   1.524 -0.2205 -0.9382 -1.4892
13962SOL     OW46247   1.321   7.174   1.779  0.5647  0.4640 -0.3516
13962SOL    HW146248   1.351   7.265   1.772  1.1134  0.2820 -0.4022
13962SOL    HW246249   1.281   7.156   1.694  0.2966  0.7132 -0.2803
13963SOL     OW46250   7.918   4.578   3.716  0.1196 -0.3130 -0.0589
13963SOL    HW146251   7.835   4.589   3.762  0.3271 -1.0410  0.5195
13963SOL    HW246252   7.920   4.485   3.693  0.4805 -0.1643 -0.6435
13964SOL     OW46253   8.108   0.079   9.031 -0.3160  0.4775 -0.7597
13964SOL    HW146254   8.116   0.167   9.068 -0.5846  0.2022 -0.0502
13964SOL    HW246255   8.199   0.051   9.017 -0.1774  0.1847  0.6330
13965SOL     OW46256   5.448   2.452   7.923 -0.6825  0.3298 -0.4008
13965SOL    HW146257   5.420   2.422   7.837 -0.5201  1.7324 -0.9631
13965SOL    HW246258   5.515   2.390   7.950 -0.6881 -0.0773 -1.3157
13966SOL     OW46259   6.251   6.094   4.394  0.0071 -0.0597 -0.2023
13966SOL    HW146260   6.250   6.116   4.300  0.0742 -0.1077 -0.2149
13966SOL    HW246261   6.159   6.080   4.416  0.1509 -2.2930 -0.7953
13967SOL     OW46262   1.791   7.483   5.871  0.4673  0.0075 -0.3569
13967SOL    HW146263   1.757   7.510   5.786  0.1264 -1.4730 -0.7239
13967SOL    HW246264   1.718   7.439   5.914  0.2907  1.7139  1.2183
13968SOL     OW46265   7.637   4.848  10.351  0.3736  0.1410 -0.3211
13968SOL    HW146266   7.688   4.865  10.271 -0.0899  3.3178 -0.1015
13968SOL    HW246267   7.550   4.883  10.332  0.6551  2.4424  1.9559
13969SOL     OW46268   5.508   9.443   3.539  0.8100 -0.3700 -0.1633
13969SOL    HW146269   5.564   9.370   3.515 -0.7466 -1.5340 -0.3863
13969SOL    HW246270   5.569   9.513   3.562  2.3390 -1.5850 -0.3510
13970SOL     OW46271   4.673   8.510   3.978  0.5877 -0.9087  0.1119
13970SOL    HW146272   4.722   8.545   3.904  1.3948 -1.7532  0.2304
13970SOL    HW246273   4.583   8.539   3.963  0.6054 -1.5815 -1.5492
13971SOL     OW46274   2.357   8.887   8.909 -0.3500 -0.1644  0.1335
13971SOL    HW146275   2.379   8.915   8.820 -0.5974  1.0678  0.4433
13971SOL    HW246276   2.421   8.932   8.964 -0.4599 -0.5915  0.6158
13972SOL     OW46277   0.998   2.357   5.271  0.4775 -0.0464 -0.5635
13972SOL    HW146278   1.086   2.377   5.303  0.1056  0.1300  0.4059
13972SOL    HW246279   1.009   2.337   5.178  1.7487 -1.5373 -0.1299
13973SOL     OW46280   8.152   3.918   7.231  0.3564  0.0854 -0.0697
13973SOL    HW146281   8.140   3.841   7.286 -2.3253 -1.7051 -2.8400
13973SOL    HW246282   8.195   3.884   7.152 -2.2543  0.9761 -2.0035
13974SOL     OW46283  10.669   0.933   3.456 -0.2834  0.0537 -0.5744
13974SOL    HW146284  10.585   0.941   3.412  0.5183  2.3828 -1.8168
13974SOL    HW246285  10.718   0.869   3.404 -0.0174  1.3965 -2.0341
13975SOL     OW46286   2.148   6.194   9.486 -0.4310  0.0974  0.1106
13975SOL    HW146287   2.079   6.144   9.529  1.1012 -1.9368  0.3987
13975SOL    HW246288   2.189   6.244   9.557  0.3145 -1.0898  0.5479
13976SOL     OW46289   5.619   0.424   3.462 -0.2619  0.0556 -0.6083
13976SOL    HW146290   5.666   0.475   3.528 -0.1877 -1.5573  0.6460
13976SOL    HW246291   5.674   0.348   3.445 -0.9385 -0.2621 -1.4806
13977SOL     OW46292   5.402   1.846   3.545  1.1590  0.7780  0.3838
13977SOL    HW146293   5.366   1.808   3.626 -3.5080  0.6501 -1.4004
13977SOL    HW246294   5.409   1.771   3.485  1.9995  1.2457 -0.1148
13978SOL     OW46295   1.594   7.124   3.856 -0.2267 -0.8557 -0.1154
13978SOL    HW146296   1.522   7.145   3.797  0.7081 -1.5214 -1.5569
13978SOL    HW246297   1.667   7.179   3.825 -0.6636  1.6640  2.8061
13979SOL     OW46298  11.008   6.389   9.348 -0.0473  0.1449  0.4620
13979SOL    HW146299  11.081   6.404   9.409  0.1615 -0.9630  0.5087
13979SOL    HW246300  11.033   6.309   9.301 -1.3485 -0.4074  0.6647
13980SOL     OW46301   9.228   2.801   7.745  0.0280  0.2503 -0.1271
13980SOL    HW146302   9.310   2.818   7.700 -1.8477  2.4708 -3.0440
13980SOL    HW246303   9.212   2.879   7.798 -1.8019  1.5877 -2.4443
13981SOL     OW46304   3.661   6.986   5.234 -0.3216  0.7182 -0.4079
13981SOL    HW146305   3.597   6.946   5.293  0.9347 -2.2708 -0.9166
13981SOL    HW246306   3.608   7.042   5.176 -2.2720 -0.4313  0.1634
13982SOL     OW46307   6.005   5.880   9.378  0.2238  0.1116  0.1861
13982SOL    HW146308   5.991   5.961   9.329  0.6302 -0.2343 -0.5134
13982SOL    HW246309   6.008   5.907   9.470 -0.1286  0.8220 -0.0073
13983SOL     OW46310   7.814   3.859   4.218 -0.1896 -0.6869 -0.5370
13983SOL    HW146311   7.818   3.946   4.258 -1.4547 -0.9758  0.2659
13983SOL    HW246312   7.879   3.862   4.148 -1.1864  1.3677 -1.4575
13984SOL     OW46313   8.969   5.959   6.659 -0.0547  0.3400  0.3311
13984SOL    HW146314   8.961   6.051   6.635 -0.1793  0.7505  1.8759
13984SOL    HW246315   8.884   5.937   6.697  0.4531  0.0000  1.2939
13985SOL     OW46316   4.312   1.312  10.874 -0.6417  0.6111  0.5061
13985SOL    HW146317   4.278   1.369  10.804 -0.7457  1.1959  1.0289
13985SOL    HW246318   4.244   1.246  10.884 -0.1199 -0.1579 -0.7220
13986SOL     OW46319   9.897  10.913   3.427 -0.0265  0.1607 -0.6435
13986SOL    HW146320   9.984  10.873   3.434 -0.3055 -0.1390  3.0559
13986SOL    HW246321   9.845  10.851   3.376  0.9305 -1.6312  0.4883
13987SOL     OW46322   9.327   5.208   0.395 -0.0960  0.1782  0.1145
13987SOL    HW146323   9.249   5.196   0.340  0.3692  0.3376 -0.5894
13987SOL    HW246324   9.319   5.140   0.462 -1.5784  1.0830  0.9340
13988SOL     OW46325   2.502   2.277   4.359  0.1301  0.0496 -0.0472
13988SOL    HW146326   2.515   2.289   4.265  0.8977 -2.1314 -0.2566
13988SOL    HW246327   2.528   2.187   4.376  0.4095  0.5256  2.3492
13989SOL     OW46328  10.092   3.791   5.651  0.2179 -0.7317 -0.2748
13989SOL    HW146329  10.121   3.881   5.632  0.2138 -1.0679 -2.0995
13989SOL    HW246330  10.157   3.758   5.713 -0.0254  0.6438  0.7874
13990SOL     OW46331   2.169   2.449   3.264  0.2763 -0.5900 -0.2647
13990SOL    HW146332   2.226   2.421   3.335 -0.7673  0.4687  1.0345
13990SOL    HW246333   2.111   2.514   3.303 -1.7022 -1.4726 -1.5681
13991SOL     OW46334   2.637   4.292   3.184  0.2488 -0.4684  0.5485
13991SOL    HW146335   2.586   4.223   3.141  0.8631 -0.2788 -0.5205
13991SOL    HW246336   2.715   4.302   3.129  0.9068  0.0266  1.5356
13992SOL     OW46337   0.714  10.570   1.839 -0.4207  0.0932  0.1835
13992SOL    HW146338   0.734  10.477   1.835 -0.6151  0.0501  0.1861
13992SOL    HW246339   0.639  10.581   1.781  0.0270  0.3708 -0.3496
13993SOL     OW46340   5.093   9.923   7.308  0.5865  0.0117  0.2121
13993SOL    HW146341   5.019   9.942   7.365  1.4326 -0.2954  1.4626
13993SOL    HW246342   5.057   9.873   7.235 -0.2376 -1.1479  1.4023
13994SOL     OW46343   4.997   9.771   9.337  0.3630  0.0489 -0.5969
13994SOL    HW146344   5.049   9.800   9.412 -0.8079 -1.1434  0.7432
13994SOL    HW246345   5.060   9.724   9.281  1.3329  1.2901 -0.5871
13995SOL     OW46346   8.347  11.005   9.169  0.2946  0.1357 -0.5425
13995SOL    HW146347   8.271  10.983   9.115 -0.4065  0.6860  0.1921
13995SOL    HW246348   8.421  10.964   9.125 -0.1731  0.9894 -2.2217
13996SOL     OW46349   3.159   7.672  10.195  0.4116  0.5654  0.1910
13996SOL    HW146350   3.249   7.682  10.163  0.3214  1.1626  0.1117
13996SOL    HW246351   3.123   7.599  10.144  1.3765 -0.8034  1.4022
13997SOL     OW46352   6.313   4.949   6.851  0.0469  0.2583  0.3837
13997SOL    HW146353   6.340   4.941   6.942  1.3263  0.5456  0.0511
13997SOL    HW246354   6.291   4.859   6.825  0.8957 -0.0348  0.6290
13998SOL     OW46355   4.468   4.644   1.636  0.4089  0.0334  0.6411
13998SOL    HW146356   4.427   4.560   1.657  2.2098 -1.2529 -0.7507
13998SOL    HW246357   4.521   4.665   1.713 -0.1351 -0.0048  1.0363
13999SOL     OW46358   9.416   8.888   6.405  0.1846  0.2104 -0.6430
13999SOL    HW146359   9.335   8.939   6.410  0.1526  0.3296 -1.9494
13999SOL    HW246360   9.428   8.854   6.493  0.2523  2.5451  0.3171
14000SOL     OW46361   4.944   4.117   0.826 -0.2451 -0.4897 -0.9781
14000SOL    HW146362   4.922   4.085   0.739 -0.0418  0.2744 -1.3236
14000SOL    HW246363   4.932   4.042   0.883 -1.1277 -0.7935 -1.5482
14001SOL     OW46364   1.581   7.486   5.015 -0.4677 -0.1276 -0.4602
14001SOL    HW146365   1.625   7.537   5.083  0.1023 -1.8823  0.5589
14001SOL    HW246366   1.645   7.484   4.943  0.5376 -1.3639  0.4180
14002SOL     OW46367  10.816   9.447   6.925 -0.3109 -0.5418  0.4178
14002SOL    HW146368  10.722   9.458   6.938 -0.1978  0.8080  0.3071
14002SOL    HW246369  10.826   9.428   6.832 -0.4093  0.5597  0.1682
14003SOL     OW46370   0.640   7.689   6.126 -0.2765  0.1996 -0.0027
14003SOL    HW146371   0.710   7.688   6.191 -0.2764 -0.3280 -0.0065
14003SOL    HW246372   0.671   7.632   6.056 -0.8150 -0.2508  0.1169
14004SOL     OW46373   3.561   3.443   7.756 -0.0321 -0.0974  0.6654
14004SOL    HW146374   3.575   3.408   7.844  1.0469  0.7290  0.8419
14004SOL    HW246375   3.509   3.522   7.770 -0.3997 -0.3019  0.4879
14005SOL     OW46376   2.483   0.218   6.861  0.6345 -0.4375  0.2526
14005SOL    HW146377   2.537   0.287   6.821  0.9984 -0.1332  1.2571
14005SOL    HW246378   2.503   0.222   6.954  0.3526 -1.6451  0.3828
14006SOL     OW46379   6.604   6.063   3.011 -0.5274  0.0174 -0.1854
14006SOL    HW146380   6.509   6.066   3.010 -0.5403 -0.1404 -1.4542
14006SOL    HW246381   6.629   6.129   3.076 -1.4942  0.3243 -0.1040
14007SOL     OW46382   9.952   6.876  10.452 -0.0543 -0.1630 -0.4629
14007SOL    HW146383   9.952   6.818  10.528  0.8131 -0.6285 -0.8178
14007SOL    HW246384  10.017   6.840  10.393  2.4477  2.5561  0.3748
14008SOL     OW46385  10.381   1.622   2.374 -0.5349  0.0312 -0.6535
14008SOL    HW146386  10.423   1.627   2.460 -0.2800 -1.9798 -0.6294
14008SOL    HW246387  10.371   1.714   2.347  3.9457  0.7258 -0.7011
14009SOL     OW46388   8.147   1.422  10.255 -0.4627  0.7307  0.1860
14009SOL    HW146389   8.231   1.377  10.262 -1.0620 -0.4633  0.1240
14009SOL    HW246390   8.106   1.410  10.341 -2.2742 -2.3879 -0.9243
14010SOL     OW46391   0.422   5.638   5.294 -0.0462  0.1757 -0.6849
14010SOL    HW146392   0.374   5.568   5.338  0.8136  0.4541  0.7527
14010SOL    HW246393   0.354   5.699   5.265 -0.6494  0.0493  0.4022
14011SOL     OW46394   5.002   3.035   1.552  0.3595 -0.2391  0.1023
14011SOL    HW146395   4.927   3.002   1.503 -0.3276 -0.3892  1.2188
14011SOL    HW246396   4.981   3.017   1.644  1.2428  0.7627  0.5266
14012SOL     OW46397   9.308   2.415  10.607  0.7046 -0.0898 -0.3934
14012SOL    HW146398   9.291   2.500  10.647  1.2546 -0.0547 -0.2281
14012SOL    HW246399   9.389   2.427  10.558  0.6637 -0.4581 -0.5570
14013SOL     OW46400   1.678   8.835   6.291  0.0342 -0.2960  0.1083
14013SOL    HW146401   1.745   8.899   6.269  0.7913 -1.4925 -1.2751
14013SOL    HW246402   1.704   8.803   6.378  1.8784 -1.4272 -0.7937
14014SOL     OW46403   3.459   0.162   9.140 -0.0321 -0.2583  0.0827
14014SOL    HW146404   3.552   0.183   9.142 -0.3413  1.7764 -2.0277
14014SOL    HW246405   3.424   0.200   9.222  0.5029  2.1378 -0.7086
14015SOL     OW46406   0.569   3.140   0.745  0.2445  0.0527 -0.2844
14015SOL    HW146407   0.625   3.110   0.674  0.8765  0.3811  0.0660
14015SOL    HW246408   0.589   3.080   0.817  0.1461  0.1733 -0.1572
14016SOL     OW46409   9.119  10.592   3.299  0.2606 -0.1607 -0.1576
14016SOL    HW146410   9.178  10.659   3.334 -0.3661 -0.1044  0.8171
14016SOL    HW246411   9.039  10.600   3.351 -0.5788 -0.3243 -1.3741
14017SOL     OW46412   2.053   3.701  11.041  0.4428 -0.1089  0.3410
14017SOL    HW146413   2.103   3.667  10.967  1.4048  0.3027  0.7935
14017SOL    HW246414   2.045   3.794  11.023 -0.5256 -0.2327  0.0727
14018SOL     OW46415   8.237   5.864   4.887 -0.4254 -0.2458 -0.3235
14018SOL    HW146416   8.280   5.875   4.801 -0.8145  3.5700 -0.2149
14018SOL    HW246417   8.147   5.892   4.872 -1.6671 -3.4474  0.5495
14019SOL     OW46418   4.953   6.967   0.297  0.4849  0.5355  0.2329
14019SOL    HW146419   4.942   6.970   0.392  0.2231  1.3587  0.1846
14019SOL    HW246420   4.943   6.875   0.274  1.0821  0.2570  1.0646
14020SOL     OW46421   4.282   2.350   5.574  0.0904 -0.0789 -0.1858
14020SOL    HW146422   4.331   2.388   5.646 -1.5932  1.0239  0.4492
14020SOL    HW246423   4.317   2.393   5.496 -0.7574  1.7526  0.3851
14021SOL     OW46424   7.428   5.051   8.168  0.3803  0.3557  0.4902
14021SOL    HW146425   7.452   4.959   8.171 -1.8372 -0.2787  0.2309
14021SOL    HW246426   7.393   5.063   8.079  0.8726  1.5275  0.4351
14022SOL     OW46427   0.366   0.647  10.926  0.3361  0.0861  0.3633
14022SOL    HW146428   0.304   0.578  10.950  0.3434 -0.1863 -0.3598
14022SOL    HW246429   0.316   0.706  10.869  0.5936  0.1539  0.2055
14023SOL     OW46430   4.193   9.423   4.082  0.2156 -0.2441  0.1046
14023SOL    HW146431   4.203   9.339   4.036  1.1679 -0.2527  0.3083
14023SOL    HW246432   4.248   9.484   4.032  0.1077  0.0868  0.3917
14024SOL     OW46433   5.119   3.931   6.324  0.5919  0.5364 -0.1267
14024SOL    HW146434   5.194   3.871   6.334 -0.0416 -0.1310  0.7229
14024SOL    HW246435   5.048   3.875   6.294  0.3780  1.1475 -0.7908
14025SOL     OW46436   5.007   8.680   5.173  0.2332 -0.0116  0.2235
14025SOL    HW146437   4.994   8.589   5.147  0.4918 -0.1689  0.6331
14025SOL    HW246438   5.081   8.678   5.233  1.4144  0.7018 -1.1405
14026SOL     OW46439   3.772   2.794   8.057 -0.2426  0.6606  0.5044
14026SOL    HW146440   3.811   2.876   8.028 -2.9765  1.6279 -0.7436
14026SOL    HW246441   3.733   2.814   8.142  0.7312  0.0821  1.1041
14027SOL     OW46442   4.869   9.040   7.605  0.3664 -0.2211  0.3119
14027SOL    HW146443   4.912   9.117   7.641 -0.9620  1.3789 -1.3498
14027SOL    HW246444   4.790   9.029   7.658 -1.1669  1.6475 -1.4135
14028SOL     OW46445  10.232   3.905   1.530  0.0128  0.4012 -0.1635
14028SOL    HW146446  10.283   3.979   1.497  0.9115  1.0337  2.4633
14028SOL    HW246447  10.290   3.861   1.592 -2.2019  0.5316  2.1899
14029SOL     OW46448   7.800   4.677   6.029  0.7948 -0.0009 -0.1975
14029SOL    HW146449   7.771   4.586   6.022  1.9115 -0.3983  0.1492
14029SOL    HW246450   7.723   4.729   6.005 -0.4730 -0.9727  1.5786
14030SOL     OW46451   6.729   3.111   0.513 -0.2748 -0.6492  0.0265
14030SOL    HW146452   6.797   3.045   0.501  0.4769 -0.4554  2.4803
14030SOL    HW246453   6.726   3.124   0.608 -0.2493  2.9743 -0.3255
14031SOL     OW46454   1.198   6.140  10.943 -0.2999 -0.4926  0.5893
14031SOL    HW146455   1.173   6.199  11.014 -0.7600 -0.2016  0.1914
14031SOL    HW246456   1.120   6.134  10.889  0.2316 -0.2336 -0.2220
14032SOL     OW46457  11.011  10.767   0.679  0.2501  0.4826  0.5079
14032SOL    HW146458  10.991  10.851   0.721  0.0570  0.9384 -0.4802
14032SOL    HW246459  11.099  10.746   0.710 -0.5263 -0.0521  2.5015
14033SOL     OW46460   1.499   8.619   8.183  0.5110 -0.1214  0.5139
14033SOL    HW146461   1.551   8.693   8.216 -0.0694 -0.2995  1.9135
14033SOL    HW246462   1.550   8.585   8.110  1.0491  1.3377  0.1783
14034SOL     OW46463   0.296   0.715   0.123  0.2710  0.1067 -0.3514
14034SOL    HW146464   0.262   0.755   0.043  0.3590  0.3404 -0.2720
14034SOL    HW246465   0.301   0.787   0.186 -2.0669 -0.4891  0.6266
14035SOL     OW46466   0.484  10.976   6.388  0.1477 -0.3632  0.3543
14035SOL    HW146467   0.527  10.907   6.438  2.2452  0.8585  0.3747
14035SOL    HW246468   0.527  10.974   6.302  0.3110  0.9525  0.3876
14036SOL     OW46469   8.658   1.466   2.688  0.2404  0.3630  0.1699
14036SOL    HW146470   8.615   1.386   2.657 -2.2707  2.2552 -1.6722
14036SOL    HW246471   8.731   1.479   2.628  0.5110 -0.4045  0.3230
14037SOL     OW46472   0.457   6.539   4.736  0.2559  0.4667  0.3759
14037SOL    HW146473   0.548   6.539   4.763  0.9917 -1.3888 -1.8533
14037SOL    HW246474   0.432   6.447   4.734 -0.8284  0.7455 -1.5598
14038SOL     OW46475   3.377   7.207   5.743  0.0753 -0.3622 -0.4797
14038SOL    HW146476   3.423   7.126   5.720 -0.0952 -0.5547 -0.1648
14038SOL    HW246477   3.340   7.189   5.830 -0.1485 -0.0248 -0.5026
14039SOL     OW46478   6.883   5.573   8.956  0.9173  0.3717  0.2943
14039SOL    HW146479   6.861   5.485   8.987  2.2073  0.3370  1.2050
14039SOL    HW246480   6.875   5.567   8.861 -2.4518  0.2759  0.4620
14040SOL     OW46481   7.264  10.774   7.234  0.3350 -0.1237  0.1743
14040SOL    HW146482   7.239  10.824   7.157 -0.2367 -3.0937 -1.7576
14040SOL    HW246483   7.356  10.752   7.220  0.4315 -0.0840  0.7176
14041SOL     OW46484   4.043   1.166   2.112 -0.7346  0.5138 -0.1360
14041SOL    HW146485   3.950   1.146   2.100 -1.5112  2.0772  2.4649
14041SOL    HW246486   4.074   1.103   2.176  0.1433 -0.2387 -1.2632
14042SOL     OW46487   9.943   1.860   7.317  0.3507 -0.2044  0.0768
14042SOL    HW146488   9.857   1.819   7.313 -0.3201  1.2282 -1.1721
14042SOL    HW246489   9.929   1.940   7.368  1.2830 -0.6541  1.0960
14043SOL     OW46490   4.115   2.046   5.910 -0.5821 -0.4043 -0.2666
14043SOL    HW146491   4.099   2.138   5.889  0.3968 -0.2294 -0.3117
14043SOL    HW246492   4.045   1.998   5.865 -1.8721  0.3962  0.8175
14044SOL     OW46493   1.658   5.331   0.965 -0.4534  0.6621  0.0021
14044SOL    HW146494   1.610   5.370   0.892 -0.0952 -0.3409 -0.7860
14044SOL    HW246495   1.594   5.275   1.008 -0.6095  1.1042  0.3625
14045SOL     OW46496   4.902   4.655   3.461 -0.1800  0.2965  0.2098
14045SOL    HW146497   4.836   4.601   3.506  0.5747  0.3415  1.4153
14045SOL    HW246498   4.852   4.706   3.398 -1.1505 -0.5074  0.3017
14046SOL     OW46499  10.908   0.294   0.599 -0.0606  0.3074  0.5144
14046SOL    HW146500  10.845   0.232   0.565  0.8430 -1.1123  1.3420
14046SOL    HW246501  10.856   0.356   0.650 -0.6981 -1.7006  2.4713
14047SOL     OW46502   1.762   2.816   9.151 -0.2079  0.3062 -0.2762
14047SOL    HW146503   1.711   2.897   9.151  1.2314  1.2642 -0.8621
14047SOL    HW246504   1.749   2.779   9.239 -1.3637  0.8445 -0.2031
14048SOL     OW46505   0.674   4.888   9.931  0.2959 -0.2866 -0.1288
14048SOL    HW146506   0.675   4.956   9.864 -0.3432  0.9797  1.1098
14048SOL    HW246507   0.745   4.829   9.905  0.5861  0.5982 -1.4668
14049SOL     OW46508   6.379   3.817   2.818 -0.4308  0.3240 -0.1662
14049SOL    HW146509   6.426   3.817   2.901 -0.6451  0.1064 -0.0432
14049SOL    HW246510   6.447   3.833   2.752 -0.3936  1.4165  0.1183
14050SOL     OW46511   6.780  10.645   3.357  0.1174 -0.1208 -0.1338
14050SOL    HW146512   6.808  10.648   3.448  1.5895 -1.4026 -0.4992
14050SOL    HW246513   6.847  10.695   3.309 -0.9274  0.9959 -0.4633
14051SOL     OW46514   5.940   2.562   3.133 -0.1725 -0.0998 -0.0770
14051SOL    HW146515   5.981   2.624   3.194  0.1294  0.2228 -0.6000
14051SOL    HW246516   5.947   2.478   3.177 -3.8767  0.6444  2.4023
14052SOL     OW46517   8.806   8.432   0.566 -0.1696 -0.1894 -0.2518
14052SOL    HW146518   8.831   8.413   0.657 -0.5588  0.7148  0.0546
14052SOL    HW246519   8.716   8.464   0.572 -0.2319 -0.2191 -0.9709
14053SOL     OW46520   7.528  10.931   0.549 -0.1016 -0.1108 -0.0796
14053SOL    HW146521   7.479  10.851   0.531 -0.1112 -0.2232  0.4298
14053SOL    HW246522   7.461  10.999   0.554 -0.2460 -0.3111  0.8953
14054SOL     OW46523   1.814   1.170   7.756 -0.3398 -0.6563  0.1232
14054SOL    HW146524   1.799   1.264   7.746  1.6762 -0.1861  0.9382
14054SOL    HW246525   1.739   1.139   7.808  0.3568  1.1025  2.3635
14055SOL     OW46526   9.573   1.321   8.590  0.9126 -0.0874 -0.5144
14055SOL    HW146527   9.529   1.242   8.620 -0.8152  1.0038  0.0540
14055SOL    HW246528   9.532   1.340   8.505  0.6207  0.6722 -0.2162
14056SOL     OW46529   9.250   1.485   1.538  0.5870  0.2786 -0.1733
14056SOL    HW146530   9.172   1.460   1.489 -0.3530  0.7103  1.0527
14056SOL    HW246531   9.239   1.579   1.553  1.5127  0.4082 -0.2802
14057SOL     OW46532   7.505   3.391  10.311 -0.1784  0.0790 -0.1293
14057SOL    HW146533   7.535   3.479  10.291 -2.0706  0.3266 -2.2240
14057SOL    HW246534   7.584   3.337  10.305  0.2145  0.7861 -4.7405
14058SOL     OW46535   0.468   3.909   4.000 -0.1089  0.1581 -0.2560
14058SOL    HW146536   0.441   4.001   3.994  0.0219  0.2940  0.9810
14058SOL    HW246537   0.391   3.860   3.971 -1.7040  0.5382  2.9265
14059SOL     OW46538   9.104   8.050   2.197 -0.1156  0.4687  0.0491
14059SOL    HW146539   9.037   8.112   2.226 -1.3043 -0.3643 -0.8164
14059SOL    HW246540   9.185   8.102   2.195 -0.8386  1.6624  0.5304
14060SOL     OW46541   8.627   2.125   6.458  0.7191 -0.6407 -0.0052
14060SOL    HW146542   8.552   2.100   6.405  1.3881 -1.6951 -0.5067
14060SOL    HW246543   8.603   2.099   6.547 -0.1044  0.4333  0.0936
14061SOL     OW46544  10.624   8.434   0.437  0.0567  0.1919 -0.5723
14061SOL    HW146545  10.551   8.389   0.480 -0.6141  0.8142 -1.0541
14061SOL    HW246546  10.701   8.382   0.461 -0.4957 -0.2882  0.2044
14062SOL     OW46547   1.047   5.308   6.986 -0.3544  0.0232  0.3524
14062SOL    HW146548   1.021   5.217   6.975 -1.2093  0.4357 -1.5356
14062SOL    HW246549   1.043   5.323   7.081 -0.5444 -1.7814  0.6626
14063SOL     OW46550   9.869   4.007   7.883  0.3612 -0.0144 -0.2539
14063SOL    HW146551   9.805   3.970   7.944  0.2167  0.8400  0.1276
14063SOL    HW246552   9.820   4.017   7.801  1.1233 -3.2619 -1.2917
14064SOL     OW46553   3.879   6.948   7.575 -0.1081 -0.0880 -0.3082
14064SOL    HW146554   3.835   6.865   7.554 -1.5463  0.4686  0.3428
14064SOL    HW246555   3.856   7.006   7.503  0.9166 -0.2473 -0.7738
14065SOL     OW46556   7.668   3.839   1.657 -0.3101  0.1102  0.5620
14065SOL    HW146557   7.590   3.790   1.684 -0.9657  0.6562 -0.2891
14065SOL    HW246558   7.740   3.798   1.705 -0.9619 -1.1186  0.5202
14066SOL     OW46559   4.461   4.914   9.577 -0.0678 -0.1614  0.0983
14066SOL    HW146560   4.514   4.988   9.550 -0.5537  0.2713  0.3171
14066SOL    HW246561   4.517   4.865   9.637  0.6619 -0.5943 -0.9013
14067SOL     OW46562   4.238   9.913   5.102  0.5499 -0.2158 -0.1716
14067SOL    HW146563   4.270   9.824   5.089  0.3971 -0.1705 -0.8565
14067SOL    HW246564   4.284   9.943   5.181 -1.4257 -1.8452  1.7116
14068SOL     OW46565   7.595  10.519   2.418 -0.3427  0.3201  0.3065
14068SOL    HW146566   7.573  10.426   2.418  0.1464  0.2012 -0.3311
14068SOL    HW246567   7.685  10.523   2.388 -0.4676  1.0235  0.0034
14069SOL     OW46568   8.435   4.432   7.022  0.2360  0.0644 -0.4099
14069SOL    HW146569   8.529   4.430   7.004 -0.0650 -3.1992 -2.4227
14069SOL    HW246570   8.428   4.432   7.117  2.1942  1.7841 -0.2031
14070SOL     OW46571   1.950   7.430   7.828 -0.2501 -0.1430  0.1499
14070SOL    HW146572   1.915   7.345   7.804 -1.4444  0.5267 -0.5780
14070SOL    HW246573   1.997   7.460   7.750  2.9215 -1.4281  1.3931
14071SOL     OW46574   7.962   0.805   1.619  0.0377  0.3071 -0.1366
14071SOL    HW146575   8.044   0.838   1.654  0.5920 -0.9968 -0.1528
14071SOL    HW246576   7.916   0.769   1.695 -0.1540  0.2862 -0.2616
14072SOL     OW46577   2.288   7.065  11.041 -0.3261 -0.0504 -0.3632
14072SOL    HW146578   2.195   7.087  11.042 -0.0972  0.9252  0.6751
14072SOL    HW246579   2.329   7.137  10.994  0.0213  0.0471  0.0850
14073SOL     OW46580   6.680   6.822   7.654 -0.1057  0.4889 -0.6705
14073SOL    HW146581   6.702   6.779   7.737 -0.5470  0.5691 -0.5063
14073SOL    HW246582   6.746   6.890   7.644  0.5297 -0.1436 -0.8703
14074SOL     OW46583   8.813  10.163   2.547 -0.2255 -0.1638 -0.0414
14074SOL    HW146584   8.813  10.242   2.600 -0.6467 -0.4552  0.3975
14074SOL    HW246585   8.836  10.093   2.608 -0.4140 -0.4616 -0.3063
14075SOL     OW46586   0.620   7.893   9.367  0.8120 -0.6137 -0.0254
14075SOL    HW146587   0.683   7.937   9.310  0.5541  2.9041  2.1215
14075SOL    HW246588   0.535   7.924   9.337  0.5566 -0.2623  1.0235
14076SOL     OW46589   5.232   7.639   2.741  0.5491  0.1600  0.4577
14076SOL    HW146590   5.231   7.574   2.671  1.1349  1.6755 -1.0284
14076SOL    HW246591   5.287   7.710   2.707  1.4760  0.6398  2.7619
14077SOL     OW46592   4.943   1.782   4.968 -0.5386  0.2324  0.4130
14077SOL    HW146593   5.032   1.817   4.971 -0.6615  0.5017  1.1760
14077SOL    HW246594   4.937   1.723   5.043 -1.5866  1.6851  1.5416
14078SOL     OW46595   7.183   6.903   6.006 -0.3061 -0.0786  0.2278
14078SOL    HW146596   7.126   6.869   5.937  1.2904 -0.5808 -0.8905
14078SOL    HW246597   7.237   6.969   5.962  1.0010 -0.6744  0.8950
14079SOL     OW46598   5.529   1.822   5.038 -0.2635  0.3511  0.2949
14079SOL    HW146599   5.585   1.756   4.997 -2.4599 -0.2847 -1.9241
14079SOL    HW246600   5.567   1.834   5.125  3.1596 -0.1395 -0.9586
14080SOL     OW46601   7.159   1.621   1.925 -0.5554  0.5259  0.7869
14080SOL    HW146602   7.149   1.608   2.020 -0.2827 -0.9193  0.6458
14080SOL    HW246603   7.206   1.704   1.917  0.7323 -0.0490  1.9959
14081SOL     OW46604   0.878   5.192   1.781  0.4207  0.6256 -0.0190
14081SOL    HW146605   0.802   5.162   1.831 -0.2022 -0.2053 -1.4080
14081SOL    HW246606   0.860   5.284   1.764  0.4688  0.8267  0.9437
14082SOL     OW46607   8.887  10.079   6.969  0.3219 -0.5238  0.3728
14082SOL    HW146608   8.935  10.026   6.906  0.4036  0.8056 -0.7415
14082SOL    HW246609   8.956  10.128   7.015  0.2128 -0.9040  0.9436
14083SOL     OW46610  10.873   9.526   9.023 -0.3004  0.0926  0.4940
14083SOL    HW146611  10.919   9.599   8.981 -0.6784 -2.0358 -4.2319
14083SOL    HW246612  10.938   9.488   9.082  1.0034  2.1512  0.5072
14084SOL     OW46613   1.645  10.684   5.920 -0.2975  0.9765 -0.0957
14084SOL    HW146614   1.648  10.680   5.825 -3.0049  1.6906 -0.3083
14084SOL    HW246615   1.631  10.593   5.948 -0.7486  0.9231 -0.4860
14085SOL     OW46616   8.262   7.666   4.569  0.3054 -0.3082  0.7069
14085SOL    HW146617   8.222   7.747   4.601  0.4467 -0.0260  0.1723
14085SOL    HW246618   8.355   7.675   4.591  0.6611  0.5076 -0.9960
14086SOL     OW46619   3.738   7.007  10.100 -0.2293  0.3345  0.4786
14086SOL    HW146620   3.814   6.992  10.044  1.2472 -1.6178  2.7923
14086SOL    HW246621   3.667   6.958  10.059  0.1878  0.7664 -0.8110
14087SOL     OW46622  10.771   0.233   8.775  0.2873  0.0678 -0.4466
14087SOL    HW146623  10.721   0.243   8.694 -0.9714  1.8386  0.4912
14087SOL    HW246624  10.794   0.140   8.778 -1.4596 -0.4484 -1.7978
14088SOL     OW46625  10.882   3.766   4.057  0.5531 -0.0170 -0.0730
14088SOL    HW146626  10.850   3.856   4.057  0.8480  0.1453  1.9620
14088SOL    HW246627  10.825   3.720   4.119  2.1440 -0.4968  1.1131
14089SOL     OW46628  11.024   7.746   2.122 -0.1117 -0.2030  0.3363
14089SOL    HW146629  11.049   7.731   2.031  0.5259  2.2311  0.0332
14089SOL    HW246630  10.931   7.723   2.126  0.5345 -3.3729 -0.0718
14090SOL     OW46631   9.037  11.107  10.898  0.3512 -0.2194  0.0868
14090SOL    HW146632   9.043  11.019  10.936  2.5402 -0.9968 -1.7954
14090SOL    HW246633   9.104  11.158  10.943 -0.0212  0.1114  0.2707
14091SOL     OW46634   8.456   0.533   5.550  0.2639  0.2510 -0.1617
14091SOL    HW146635   8.372   0.560   5.587 -0.6729 -1.3515 -0.9727
14091SOL    HW246636   8.521   0.561   5.613 -0.6698  3.2973 -0.4118
14092SOL     OW46637   8.061   2.716   7.544 -0.5040  0.4371 -0.5839
14092SOL    HW146638   7.994   2.653   7.515  0.3571 -0.6547 -0.2821
14092SOL    HW246639   8.037   2.736   7.634 -0.4462  0.0832 -0.4899
14093SOL     OW46640   7.923   6.419   3.347 -0.2411 -0.0866 -0.3006
14093SOL    HW146641   7.978   6.498   3.342  0.7071 -0.7803 -1.6531
14093SOL    HW246642   7.897   6.402   3.256  0.4154 -1.8845 -0.2011
14094SOL     OW46643   6.450  10.738   0.735  0.2169 -0.3196  0.2289
14094SOL    HW146644   6.475  10.794   0.663 -0.1375 -3.0193 -2.1800
14094SOL    HW246645   6.363  10.769   0.761  0.6725  1.1619  0.0523
14095SOL     OW46646   7.739   5.222   8.962  0.3078  0.0657 -0.1405
14095SOL    HW146647   7.706   5.133   8.948  0.4744 -0.0719  0.3293
14095SOL    HW246648   7.665   5.278   8.937  0.5993 -0.1473 -1.6133
14096SOL     OW46649   7.205   7.695   9.853 -0.2172  0.3943  0.3288
14096SOL    HW146650   7.149   7.678   9.778 -0.9375 -0.5085  1.0451
14096SOL    HW246651   7.265   7.764   9.824 -1.7065  1.4006 -0.4531
14097SOL     OW46652   1.964   9.927   3.146 -0.1102 -0.7402  0.1653
14097SOL    HW146653   1.870   9.912   3.152 -0.0572 -0.8136  0.9281
14097SOL    HW246654   1.976  10.018   3.175 -0.0443 -0.3995 -0.8912
14098SOL     OW46655   3.597   9.397   8.233  0.3687  0.1959 -0.5663
14098SOL    HW146656   3.636   9.411   8.146  0.0148  0.8456 -0.6288
14098SOL    HW246657   3.612   9.480   8.279  2.4879 -0.8495  0.7727
14099SOL     OW46658   9.314   7.201   4.985 -0.1959  0.1521  0.1575
14099SOL    HW146659   9.219   7.203   4.998 -0.6201  0.7870 -2.4403
14099SOL    HW246660   9.345   7.134   5.046 -2.0291  1.1865  2.4028
14100SOL     OW46661   5.212   9.499   9.408  0.4182 -0.2754 -0.2362
14100SOL    HW146662   5.265   9.441   9.354 -0.3791 -3.0351  1.7449
14100SOL    HW246663   5.232   9.473   9.498 -1.1157  1.5540  0.7032
14101SOL     OW46664   0.580   9.344   2.101 -0.1601  0.0205  0.2404
14101SOL    HW146665   0.505   9.402   2.109 -0.8176 -0.4448 -1.8633
14101SOL    HW246666   0.587   9.300   2.186 -2.2415  0.1015  0.4835
14102SOL     OW46667   7.479  10.192  10.896 -0.2484  0.5841  0.3277
14102SOL    HW146668   7.483  10.148  10.811 -1.5023 -1.6458  1.3427
14102SOL    HW246669   7.415  10.142  10.946  1.0729  1.2859  2.9077
14103SOL     OW46670   8.217  11.067   2.567  0.4595 -0.1971 -0.0304
14103SOL    HW146671   8.233  11.110   2.651  1.4363  1.1181 -0.8389
14103SOL    HW246672   8.263  10.983   2.573  0.3836 -0.1852  0.7930
14104SOL     OW46673   4.692   2.923   2.270  0.4305 -0.3457 -0.4991
14104SOL    HW146674   4.607   2.879   2.277 -0.8057  2.1309  1.8619
14104SOL    HW246675   4.751   2.868   2.323 -0.7298 -0.0215  1.2143
14105SOL     OW46676   1.959   0.986   3.914 -0.3483 -0.1133 -0.1071
14105SOL    HW146677   1.954   0.945   3.828 -3.6210  0.2212 -0.2074
14105SOL    HW246678   1.965   0.913   3.976 -1.9703 -0.6116 -0.4867
14106SOL     OW46679  10.642   1.042   6.382  0.0372  0.4472 -0.2370
14106SOL    HW146680  10.619   1.111   6.320  0.6616  0.7552 -0.1269
14106SOL    HW246681  10.723   1.004   6.348 -0.6799 -0.7437 -0.7086
14107SOL     OW46682   7.897  10.809   9.752  0.3976  1.2467 -0.3141
14107SOL    HW146683   7.959  10.737   9.750 -0.9381  0.0419 -0.3171
14107SOL    HW246684   7.916  10.856   9.834  1.2389  0.8646 -0.2868
14108SOL     OW46685   0.225   0.836   4.741 -0.0121 -0.7709  0.1670
14108SOL    HW146686   0.272   0.916   4.719 -0.3972 -0.5376  0.1935
14108SOL    HW246687   0.133   0.862   4.746 -0.1757 -1.2746 -0.1264
14109SOL     OW46688   1.812   9.306   6.835  0.0413 -0.0241 -0.2160
14109SOL    HW146689   1.908   9.314   6.829  0.3089 -1.1663  1.8164
14109SOL    HW246690   1.790   9.342   6.921 -1.2646 -0.5086 -0.3234
14110SOL     OW46691  10.375   9.268   5.629 -0.3554  0.5732 -0.5623
14110SOL    HW146692  10.454   9.225   5.596  0.0964  1.1821 -0.2797
14110SOL    HW246693  10.397   9.294   5.719 -0.9856  0.4638 -0.3687
14111SOL     OW46694   1.576  10.981   3.671 -0.1546  0.7473 -0.2893
14111SOL    HW146695   1.580  11.069   3.708  0.8005  0.3919  0.4905
14111SOL    HW246696   1.656  10.973   3.619  0.8711 -0.3860  1.3729
14112SOL     OW46697   0.033   1.259   4.899  0.7412  0.0523  0.4694
14112SOL    HW146698  -0.023   1.297   4.967  0.9630 -1.1568  1.3765
14112SOL    HW246699   0.059   1.174   4.935  2.2810  0.1151 -0.4027
14113SOL     OW46700   1.636   4.554   2.954 -0.4873 -0.5413 -0.3155
14113SOL    HW146701   1.628   4.622   2.888  0.6579 -0.6550 -0.5834
14113SOL    HW246702   1.604   4.475   2.911 -0.7200 -0.4087 -0.3879
14114SOL     OW46703   6.776  10.516   4.223  0.1246  0.2839  0.6732
14114SOL    HW146704   6.834  10.486   4.293  0.6247 -0.0588  0.1158
14114SOL    HW246705   6.763  10.439   4.168  1.7163  1.1167 -0.9865
14115SOL     OW46706  10.618   3.972   4.577 -0.3067  0.6123  0.0496
14115SOL    HW146707  10.668   4.028   4.637  1.0307 -0.8390  0.3499
14115SOL    HW246708  10.620   4.018   4.494 -0.0037  1.4363  0.5037
14116SOL     OW46709   7.179   4.848   9.285 -0.3470  0.4038  0.4139
14116SOL    HW146710   7.268   4.853   9.320 -0.0071  0.5904 -0.4663
14116SOL    HW246711   7.181   4.774   9.224 -0.5317  1.0122 -0.3416
14117SOL     OW46712   2.260   6.496   6.186 -0.2090  0.1536 -0.8347
14117SOL    HW146713   2.230   6.541   6.266  1.2985 -1.0770  0.5021
14117SOL    HW246714   2.184   6.445   6.158 -1.0106  1.2147 -0.6655
14118SOL     OW46715   5.569   0.934   5.437 -0.2142  0.7031  0.2412
14118SOL    HW146716   5.647   0.899   5.479  1.0419  0.8305 -1.8355
14118SOL    HW246717   5.550   1.015   5.484  0.1707  0.0616  1.5301
14119SOL     OW46718   8.434   2.309   4.000 -0.0180  0.1577 -0.0611
14119SOL    HW146719   8.414   2.396   3.967  1.2230  0.6136  0.3368
14119SOL    HW246720   8.396   2.307   4.088 -0.2265  0.2193 -0.1490
14120SOL     OW46721   0.222   5.444   6.194 -0.4011  0.0123  0.6644
14120SOL    HW146722   0.190   5.534   6.196  0.2794  0.2453  1.4701
14120SOL    HW246723   0.287   5.440   6.263  2.2961 -0.0808 -1.7176
14121SOL     OW46724   6.633   0.597   9.810 -0.1006  0.0200 -0.0387
14121SOL    HW146725   6.560   0.536   9.812 -1.4394  1.4917 -1.1913
14121SOL    HW246726   6.625   0.641   9.726  0.9237  1.6199  0.6475
14122SOL     OW46727   7.562   9.906   0.901 -0.0530 -0.3287 -0.3809
14122SOL    HW146728   7.535   9.916   0.992  1.2094  2.3885 -0.2014
14122SOL    HW246729   7.657   9.891   0.905  0.4979  2.3991 -1.2115
14123SOL     OW46730   0.598   7.815   5.187 -0.3732 -0.3448  0.0836
14123SOL    HW146731   0.641   7.894   5.219  2.7709 -2.7304  2.2534
14123SOL    HW246732   0.527   7.799   5.250 -0.4422  0.1900  0.1523
14124SOL     OW46733  10.177   7.692   3.559 -0.1490 -0.3833  0.0992
14124SOL    HW146734  10.218   7.707   3.644  0.4996  0.3119 -0.3286
14124SOL    HW246735  10.119   7.767   3.547 -0.1647 -0.4302 -0.1159
14125SOL     OW46736   9.600   8.143   0.033 -0.6226 -0.0077  0.1633
14125SOL    HW146737   9.648   8.182   0.106 -0.4760  0.6265 -0.2625
14125SOL    HW246738   9.614   8.204  -0.040 -0.6635 -0.6966 -0.4280
14126SOL     OW46739   2.528   0.558   7.944 -0.3422  0.0078 -0.5293
14126SOL    HW146740   2.460   0.540   8.009 -0.0888  0.7582 -0.0280
14126SOL    HW246741   2.609   0.533   7.988 -0.0388  1.6961 -0.0266
14127SOL     OW46742   5.945   9.105   4.173 -0.2189 -0.2446  0.1395
14127SOL    HW146743   6.018   9.142   4.224 -0.8158  0.3429  0.5799
14127SOL    HW246744   5.944   9.013   4.197  0.0736 -0.1553  0.5132
14128SOL     OW46745   4.621   2.121   7.195 -0.6357  0.2240 -0.5153
14128SOL    HW146746   4.666   2.038   7.182 -0.7992 -0.0477  0.5476
14128SOL    HW246747   4.626   2.137   7.290  0.5306  2.0798 -0.8277
14129SOL     OW46748   1.205   8.318   9.985  0.1312  0.1395 -0.3667
14129SOL    HW146749   1.294   8.291  10.006 -0.0417 -1.3360 -1.3425
14129SOL    HW246750   1.158   8.313  10.068  0.8531  0.5258  0.0745
14130SOL     OW46751  10.310   6.018  10.692 -0.3067  0.0311 -0.2669
14130SOL    HW146752  10.301   5.929  10.728  0.4462  0.3332  0.6963
14130SOL    HW246753  10.300   6.006  10.597  2.8223 -1.5805 -0.5340
14131SOL     OW46754   8.578   8.433   2.111  0.3132 -0.0965  0.9713
14131SOL    HW146755   8.526   8.421   2.190  1.3915 -1.3786  1.5159
14131SOL    HW246756   8.658   8.383   2.127  0.9690  0.4211 -0.5399
14132SOL     OW46757   8.326   9.111  10.487  0.1291  0.3120  0.2945
14132SOL    HW146758   8.291   9.200  10.493  1.8107  0.9593  1.0056
14132SOL    HW246759   8.252   9.054  10.507 -0.6153  1.6124  1.3586
14133SOL     OW46760   8.236   6.839   6.244  0.4297 -0.1244  0.4636
14133SOL    HW146761   8.259   6.880   6.328  0.4223 -0.3388  0.5723
14133SOL    HW246762   8.167   6.777   6.266  1.3387 -1.1388  0.5305
14134SOL     OW46763  10.486   9.066  10.277  0.0436 -0.4114  0.0425
14134SOL    HW146764  10.437   9.148  10.267 -2.5719 -1.9454 -0.6667
14134SOL    HW246765  10.476   9.022  10.192 -0.4665 -2.3955  1.0847
14135SOL     OW46766   2.224   5.015   9.509 -0.2186 -0.2363 -0.1577
14135SOL    HW146767   2.227   4.965   9.427 -0.8020 -1.3105  0.4462
14135SOL    HW246768   2.281   4.965   9.569  1.1721  1.1843 -0.2244
14136SOL     OW46769   0.342   8.358   7.093  0.0356  0.1313 -0.1092
14136SOL    HW146770   0.309   8.333   7.179 -0.5167 -0.8726 -0.6030
14136SOL    HW246771   0.306   8.446   7.078 -0.9393 -0.2203  0.1307
14137SOL     OW46772  10.511   3.349   3.843  0.5382 -0.0960 -0.5223
14137SOL    HW146773  10.494   3.422   3.903  0.6897  0.7190 -1.4379
14137SOL    HW246774  10.606   3.353   3.827  0.4172  0.0578 -1.2461
14138SOL     OW46775   1.516   4.995   5.391 -0.3532  0.2578 -0.2717
14138SOL    HW146776   1.434   4.969   5.433 -0.4602 -0.6721 -1.0299
14138SOL    HW246777   1.498   4.989   5.297  0.8398 -0.8534 -0.4649
14139SOL     OW46778   6.938   1.759   4.584 -0.1258 -0.0423 -0.6665
14139SOL    HW146779   6.918   1.727   4.672  0.6091 -1.8093 -1.0821
14139SOL    HW246780   6.894   1.844   4.578  0.7366  0.6513  1.7803
14140SOL     OW46781   6.385   0.462   7.646  0.3256 -0.3085 -0.4474
14140SOL    HW146782   6.368   0.460   7.552 -1.0662  0.1413 -0.2313
14140SOL    HW246783   6.468   0.416   7.657  0.3724 -0.5945 -1.8601
14141SOL     OW46784   5.303  11.038   1.952  0.5500 -0.1319  0.3932
14141SOL    HW146785   5.280  10.966   2.010 -0.1028 -0.5389 -0.3561
14141SOL    HW246786   5.336  11.106   2.011  1.5162 -1.1583  1.0715
14142SOL     OW46787   3.947   0.346   1.648  0.6037  0.5868 -0.1760
14142SOL    HW146788   3.982   0.401   1.577  0.9619 -0.5615 -0.9265
14142SOL    HW246789   3.874   0.397   1.684 -0.3073  0.7601 -2.1157
14143SOL     OW46790   9.161   6.238  10.712 -0.5593 -0.2195 -0.0970
14143SOL    HW146791   9.143   6.257  10.805 -3.4433 -0.7843 -0.4443
14143SOL    HW246792   9.163   6.143  10.707 -1.3776 -0.2188 -0.7263
14144SOL     OW46793   5.501   5.608   4.113  0.0901 -0.4507  0.1588
14144SOL    HW146794   5.465   5.538   4.058 -0.1822 -0.4782  0.3673
14144SOL    HW246795   5.587   5.577   4.140  0.2463 -0.4146 -0.2956
14145SOL     OW46796  10.953   1.036   7.496  0.2323 -0.3404  0.4328
14145SOL    HW146797  10.977   1.046   7.404 -2.3707  0.4858 -0.2503
14145SOL    HW246798  10.942   0.942   7.508  1.3109 -0.5183  0.1223
14146SOL     OW46799   3.094   4.686   6.690  0.3150  0.0287 -0.1206
14146SOL    HW146800   3.016   4.691   6.636 -1.7550 -1.6496  2.4479
14146SOL    HW246801   3.080   4.750   6.760  1.4114 -0.0563  0.2075
14147SOL     OW46802   9.326   7.846   8.546 -0.3484  0.4228 -0.1934
14147SOL    HW146803   9.241   7.890   8.555 -0.4118  0.1391  0.6377
14147SOL    HW246804   9.385   7.915   8.514 -0.4588  1.1238  1.0617
14148SOL     OW46805  10.957   6.498   6.714  0.0755 -0.0591 -0.2096
14148SOL    HW146806  11.046   6.491   6.747  0.5455 -1.2884 -1.6199
14148SOL    HW246807  10.908   6.432   6.763 -0.2690  1.1105  1.0860
14149SOL     OW46808  10.989   0.078   7.591 -0.8263 -0.9756 -0.0824
14149SOL    HW146809  10.974  -0.014   7.569 -0.7817 -0.8049 -0.8523
14149SOL    HW246810  11.028   0.076   7.678  1.5343 -1.8467 -1.1026
14150SOL     OW46811   6.759   5.723   5.491 -0.3609 -0.1711 -0.1036
14150SOL    HW146812   6.786   5.679   5.410 -0.5839 -0.5449  0.0254
14150SOL    HW246813   6.706   5.658   5.537  0.4437 -0.2458  0.7310
14151SOL     OW46814   0.894   3.355   3.291  0.0855 -0.2078  0.0695
14151SOL    HW146815   0.923   3.265   3.304  0.3994 -0.3047 -1.1337
14151SOL    HW246816   0.945   3.406   3.354  0.3220 -0.8024  0.3663
14152SOL     OW46817   4.587   0.056   8.765 -0.3684 -0.0223  0.0560
14152SOL    HW146818   4.609   0.147   8.785 -0.1040 -0.0493 -0.1055
14152SOL    HW246819   4.518   0.034   8.828  0.7255 -0.2271  1.2181
14153SOL     OW46820   6.625   6.766   5.222  0.3905 -0.6944 -0.4900
14153SOL    HW146821   6.532   6.765   5.244  0.3617 -0.0877 -0.5513
14153SOL    HW246822   6.654   6.676   5.234  0.5980 -0.2940  2.9744
14154SOL     OW46823   5.417   4.199   1.370 -0.7421 -0.0575 -0.4109
14154SOL    HW146824   5.493   4.183   1.314 -1.2402 -0.5776 -0.9575
14154SOL    HW246825   5.342   4.191   1.311 -1.3959 -2.2111  0.5957
14155SOL     OW46826   8.926   4.190   7.843 -0.5488  0.7716  0.5970
14155SOL    HW146827   8.874   4.150   7.773  0.0530 -0.8690  1.0468
14155SOL    HW246828   8.959   4.272   7.805 -1.7926  0.8484 -0.3719
14156SOL     OW46829   9.012   0.872   8.343 -0.1611  0.1369 -0.1397
14156SOL    HW146830   9.051   0.785   8.358 -0.7582 -0.5338 -2.1544
14156SOL    HW246831   9.086   0.927   8.317 -0.0403 -0.2709 -0.6913
14157SOL     OW46832   8.742   1.844   4.471  0.1114  0.0954  0.0312
14157SOL    HW146833   8.820   1.863   4.524  0.1007 -0.7765  0.3764
14157SOL    HW246834   8.670   1.844   4.534 -0.1336  0.6010 -0.2409
14158SOL     OW46835  10.889   0.415   7.684 -0.2534 -0.2607  0.0334
14158SOL    HW146836  10.897   0.323   7.656 -0.5181 -0.7496  1.4840
14158SOL    HW246837  10.798   0.424   7.711 -0.9968  1.2227 -2.6015
14159SOL     OW46838   4.499   0.374   7.678  0.0558  0.3035  0.0351
14159SOL    HW146839   4.490   0.286   7.715  0.9945 -0.2188 -0.9222
14159SOL    HW246840   4.513   0.430   7.753  1.8589 -0.7241  0.5211
14160SOL     OW46841   1.004  10.125   9.068 -0.3656  0.0842 -0.3797
14160SOL    HW146842   1.087  10.077   9.070 -1.4327 -1.8559 -0.0760
14160SOL    HW246843   0.950  10.077   9.005 -0.5219  2.6887 -2.4045
14161SOL     OW46844   9.941   2.268   5.929  0.3888  0.3687 -0.6124
14161SOL    HW146845   9.967   2.355   5.901 -0.8041  0.3373 -1.9731
14161SOL    HW246846   9.874   2.283   5.996  1.8128  0.4573  0.8323
14162SOL     OW46847   6.793   6.492   2.795 -0.4282  0.1973  1.1679
14162SOL    HW146848   6.867   6.433   2.777 -1.3919 -1.2998  1.9197
14162SOL    HW246849   6.821   6.543   2.870  0.5535  0.9894  0.3029
14163SOL     OW46850   5.256   6.858   9.093 -0.7143 -0.1130 -0.1636
14163SOL    HW146851   5.192   6.836   9.025 -1.9714  1.2188  0.5328
14163SOL    HW246852   5.252   6.785   9.155 -0.7688 -0.5402 -0.6653
14164SOL     OW46853   8.593   6.181   1.605  0.2365  0.9343  0.3312
14164SOL    HW146854   8.506   6.142   1.594  0.4446  0.8817 -1.3518
14164SOL    HW246855   8.651   6.107   1.624 -0.0238  0.9464  1.2485
14165SOL     OW46856   8.616  10.556  10.010 -0.1287 -0.5454  0.4165
14165SOL    HW146857   8.529  10.553   9.970 -0.4412  1.0878  0.8840
14165SOL    HW246858   8.629  10.649  10.032  1.5562 -0.8284  0.7433
14166SOL     OW46859   7.152   6.890   0.562  0.3519 -0.3685 -0.1281
14166SOL    HW146860   7.119   6.800   0.558  1.3292 -0.7349 -0.1221
14166SOL    HW246861   7.109   6.934   0.488  1.8937 -1.5548 -1.8135
14167SOL     OW46862   3.550   1.113   1.331  0.1123 -0.9469 -0.2250
14167SOL    HW146863   3.560   1.050   1.260 -0.8480 -0.3515 -0.9156
14167SOL    HW246864   3.582   1.195   1.296 -2.0580 -0.2165 -0.6735
14168SOL     OW46865  10.086   7.268   5.990 -0.5059 -0.3691  0.1278
14168SOL    HW146866  10.061   7.286   6.080  0.7921 -1.3425  0.7179
14168SOL    HW246867  10.003   7.260   5.943 -1.2897 -1.8016  1.6373
14169SOL     OW46868   3.382   1.891   6.403 -0.0094 -0.3808 -0.4604
14169SOL    HW146869   3.300   1.895   6.451  0.2313  2.2515 -0.1192
14169SOL    HW246870   3.442   1.844   6.461 -0.3734  0.6414  0.7592
14170SOL     OW46871   6.546   2.359   4.527 -0.3237  0.1090  0.1113
14170SOL    HW146872   6.602   2.435   4.547  0.4199 -0.5459  0.5574
14170SOL    HW246873   6.459   2.384   4.558 -0.9625  2.2231 -2.9196
14171SOL     OW46874   9.763   9.963   9.612  0.1870 -0.6077 -0.3103
14171SOL    HW146875   9.808   9.922   9.537 -0.1194 -0.9983 -0.2832
14171SOL    HW246876   9.804  10.049   9.620  1.5314 -1.2678  0.2363
14172SOL     OW46877   2.566   2.999  10.230  0.9758 -0.1785  0.1701
14172SOL    HW146878   2.577   3.035  10.142  1.9018  1.1936  0.8037
14172SOL    HW246879   2.565   3.077  10.287 -2.8974 -0.7050  1.1284
14173SOL     OW46880   6.937   9.791   6.247 -0.2566  0.0270  0.2644
14173SOL    HW146881   6.871   9.860   6.251 -1.9166 -1.4959  0.9376
14173SOL    HW246882   6.996   9.810   6.320  0.4534  1.7332 -0.6943
14174SOL     OW46883   3.792   2.606   7.381 -0.0225  0.1750 -0.7989
14174SOL    HW146884   3.704   2.596   7.417 -0.1291 -0.2806 -1.1811
14174SOL    HW246885   3.786   2.683   7.324  0.0623  0.6963 -0.1155
14175SOL     OW46886   1.244   1.680   4.772 -0.1831 -0.4175  0.3661
14175SOL    HW146887   1.272   1.765   4.807 -0.0673  0.1846 -1.1049
14175SOL    HW246888   1.221   1.629   4.849 -1.5651  1.4000  1.2461
14176SOL     OW46889   5.090   9.061   4.943  0.2285  0.3101  0.0778
14176SOL    HW146890   5.163   9.000   4.952 -1.3348 -1.4856  1.5153
14176SOL    HW246891   5.095   9.116   5.022  1.2018  1.6208 -0.8551
14177SOL     OW46892   8.897   7.534   4.107  0.1105 -0.5400 -0.1841
14177SOL    HW146893   8.821   7.569   4.060  0.7048  0.6718 -0.2854
14177SOL    HW246894   8.891   7.574   4.194  0.3135 -0.9061 -0.0016
14178SOL     OW46895   5.716   8.874  10.953  0.1998  0.4667  0.3851
14178SOL    HW146896   5.736   8.865  10.860 -0.2861  0.3779  0.2849
14178SOL    HW246897   5.786   8.929  10.988 -0.9865  2.6810 -0.5295
14179SOL     OW46898   9.214   1.139   5.692  0.3689  0.0618 -0.7014
14179SOL    HW146899   9.222   1.199   5.618  0.9549  0.2462 -0.4989
14179SOL    HW246900   9.245   1.055   5.659 -0.5508 -0.1590 -1.0150
14180SOL     OW46901   3.461  10.578   2.018  0.2996 -0.1603  0.2549
14180SOL    HW146902   3.488  10.669   2.011  1.2697 -0.5097 -1.0276
14180SOL    HW246903   3.537  10.533   2.056  0.2114 -0.5877 -0.0595
14181SOL     OW46904   8.558   4.651   9.707 -0.0012 -0.4089  0.1908
14181SOL    HW146905   8.551   4.652   9.802  0.5512 -2.4552  0.2999
14181SOL    HW246906   8.616   4.578   9.688  1.6068  1.2090 -1.6483
14182SOL     OW46907   6.473   6.663  10.932  0.0079  0.6131  0.1268
14182SOL    HW146908   6.410   6.615  10.879 -1.0506  1.3341  0.7090
14182SOL    HW246909   6.438   6.659  11.021  0.4204  1.5975  0.3507
14183SOL     OW46910   0.202   3.082   2.082 -0.3253  0.0558 -0.1971
14183SOL    HW146911   0.274   3.098   2.021  0.5146 -1.4945  0.3270
14183SOL    HW246912   0.234   3.116   2.166 -0.8465  0.7571 -0.2700
14184SOL     OW46913   0.476   2.971   7.738 -0.5615 -0.2996 -0.5065
14184SOL    HW146914   0.500   3.036   7.804  0.5330  1.2363 -2.2939
14184SOL    HW246915   0.552   2.912   7.733 -0.6784 -0.4643 -0.3292
14185SOL     OW46916   7.125   7.668   2.341  0.2902 -0.9698 -0.3531
14185SOL    HW146917   7.218   7.666   2.319  0.4395 -1.0635  0.2638
14185SOL    HW246918   7.121   7.723   2.419 -0.0883 -1.4932 -0.0000
14186SOL     OW46919   0.314   2.192   3.545 -0.1032  0.1767  0.1873
14186SOL    HW146920   0.310   2.259   3.613 -0.5138 -1.8948  2.3153
14186SOL    HW246921   0.223   2.180   3.517 -0.3147 -0.9042  1.2938
14187SOL     OW46922   2.256   1.262   0.592  0.0314 -0.2480  0.3590
14187SOL    HW146923   2.245   1.176   0.631  0.0811  0.0270  0.9998
14187SOL    HW246924   2.332   1.254   0.534 -0.6696 -0.9325 -0.4870
14188SOL     OW46925  10.318   8.104  10.686 -0.5325 -0.8374 -0.2188
14188SOL    HW146926  10.311   8.009  10.683  0.2352 -0.8694 -2.0332
14188SOL    HW246927  10.366   8.122  10.767  0.7408 -2.1003 -0.6506
14189SOL     OW46928   5.551   7.831   8.263  0.1586  0.4576 -0.0495
14189SOL    HW146929   5.566   7.925   8.272  0.8741  0.4782 -1.2599
14189SOL    HW246930   5.610   7.804   8.192 -0.0204 -0.9060  0.2930
14190SOL     OW46931   5.780   1.931   6.899  1.0100 -0.6491  0.3017
14190SOL    HW146932   5.775   2.016   6.857  1.4639  0.5580  2.5553
14190SOL    HW246933   5.716   1.877   6.853  0.8512  0.8336 -1.2844
14191SOL     OW46934   8.628   7.749   5.094 -0.1192  0.5790  0.5057
14191SOL    HW146935   8.651   7.842   5.089  0.6340  0.3476 -1.1218
14191SOL    HW246936   8.533   7.748   5.094 -0.1416  1.3584  0.2712
14192SOL     OW46937   6.906   4.425   6.168  0.0938  0.2019 -0.2243
14192SOL    HW146938   6.886   4.432   6.261 -1.5207  1.5079 -0.6392
14192SOL    HW246939   6.859   4.497   6.127 -1.8854 -2.1583 -2.4718
14193SOL     OW46940   0.365   0.002   0.309  0.8682 -0.1104  0.2604
14193SOL    HW146941   0.414  -0.074   0.277 -0.0529 -1.2472  1.4321
14193SOL    HW246942   0.278  -0.008   0.270  1.0030  0.8575 -0.3090
14194SOL     OW46943   7.795   6.689   2.280  0.2120 -0.0939 -0.6863
14194SOL    HW146944   7.837   6.775   2.289 -0.7213  0.2666  0.4058
14194SOL    HW246945   7.727   6.702   2.215 -0.2524  0.1299 -0.1621
14195SOL     OW46946   3.765   6.814   6.659 -0.4645  0.1020 -0.7753
14195SOL    HW146947   3.757   6.856   6.744 -1.4513  0.5466 -1.0766
14195SOL    HW246948   3.690   6.754   6.655  0.6279 -1.3301 -0.5645
14196SOL     OW46949   1.562   8.863   8.394  0.5870 -0.1498 -0.3670
14196SOL    HW146950   1.653   8.865   8.424 -0.2900  1.0603  2.5458
14196SOL    HW246951   1.524   8.789   8.441  0.0893 -0.8012 -1.7609
14197SOL     OW46952   9.765   9.411   3.102  0.4972  0.1586 -0.4215
14197SOL    HW146953   9.832   9.471   3.067 -0.2304  1.4905  0.3557
14197SOL    HW246954   9.763   9.339   3.040  2.6477  0.0648 -0.4895
14198SOL     OW46955   6.732   3.338  10.416  0.3791  1.0292  1.0538
14198SOL    HW146956   6.648   3.293  10.427 -0.1236  1.1095 -1.7900
14198SOL    HW246957   6.713   3.409  10.354  2.6815  0.5698 -0.2695
14199SOL     OW46958   2.028   8.355   8.424 -0.6331 -0.1609 -0.1124
14199SOL    HW146959   1.973   8.419   8.378  1.2878  0.8213 -1.1971
14199SOL    HW246960   2.091   8.408   8.473  0.6474 -1.1831 -0.5778
14200SOL     OW46961   4.030   0.155   1.417  0.3094 -0.2564  0.0378
14200SOL    HW146962   4.011   0.248   1.417  0.8025 -0.1394 -1.0276
14200SOL    HW246963   3.946   0.113   1.398  0.2323  0.0127 -0.2223
14201SOL     OW46964   2.424   6.655   0.442  0.5367  0.4188  0.1254
14201SOL    HW146965   2.437   6.561   0.446 -0.4640  0.2957  0.7844
14201SOL    HW246966   2.329   6.667   0.446  0.7026  1.5391  2.3570
14202SOL     OW46967   5.837   7.015   4.511  0.5219  0.8643  0.0605
14202SOL    HW146968   5.928   6.998   4.489  0.2059 -0.3033 -0.4574
14202SOL    HW246969   5.827   6.980   4.600  0.0506 -1.1293 -0.7328
14203SOL     OW46970   5.186   4.751   7.158  0.6653 -0.1234 -0.2066
14203SOL    HW146971   5.252   4.684   7.175  1.3895  0.7348  0.4815
14203SOL    HW246972   5.222   4.830   7.198 -0.2993  0.6103 -0.7565
14204SOL     OW46973   4.871   0.664   8.275 -0.5670 -0.1653 -0.4751
14204SOL    HW146974   4.897   0.755   8.267 -0.1245  0.0426  2.3254
14204SOL    HW246975   4.871   0.631   8.185 -2.0339  2.8903 -1.7542
14205SOL     OW46976   2.076  10.891   2.819  0.5267  0.2408 -0.4340
14205SOL    HW146977   1.985  10.866   2.800 -0.1932  2.1945  0.2606
14205SOL    HW246978   2.088  10.870   2.911  0.1795  1.5544 -0.0629
14206SOL     OW46979   1.840   6.456   0.905  0.7228 -0.4614  0.5203
14206SOL    HW146980   1.847   6.462   1.001  1.3033 -0.5495  0.4875
14206SOL    HW246981   1.917   6.503   0.873  0.5433 -0.4591  0.0964
14207SOL     OW46982   0.554   3.580   4.426  0.0733 -0.2297  0.1225
14207SOL    HW146983   0.637   3.554   4.466  1.0601 -1.5669 -2.5088
14207SOL    HW246984   0.552   3.532   4.343 -1.8793  2.1814 -1.3582
14208SOL     OW46985   3.255   7.719   3.980  0.3342 -0.4521 -0.0738
14208SOL    HW146986   3.285   7.629   3.980  1.4467 -0.0928  0.4045
14208SOL    HW246987   3.184   7.721   4.043 -0.8985 -1.3559 -1.3632
14209SOL     OW46988   0.163   3.270   4.602  0.2341 -0.2004  0.0239
14209SOL    HW146989   0.188   3.360   4.622 -0.5580 -0.1933  1.1359
14209SOL    HW246990   0.093   3.278   4.538  0.3131 -0.0261 -0.0394
14210SOL     OW46991   0.451   4.462   1.034 -0.4185 -0.3851  0.0347
14210SOL    HW146992   0.510   4.506   0.973  0.3238 -1.1408  0.1865
14210SOL    HW246993   0.384   4.422   0.978 -0.1187 -0.5108 -0.2370
14211SOL     OW46994  11.018   5.225   0.655 -0.2400  0.6921  0.4745
14211SOL    HW146995  11.065   5.276   0.589  2.0083  0.4437  1.7922
14211SOL    HW246996  10.947   5.283   0.683 -0.0374  1.5780 -0.7421
14212SOL     OW46997   6.451   4.326   2.004 -0.0012 -0.4607  0.8952
14212SOL    HW146998   6.436   4.389   1.933  1.1364 -1.6614 -0.4892
14212SOL    HW246999   6.374   4.335   2.060 -0.0586  1.8702  0.5649
14213SOL     OW47000   1.238   4.726   7.822 -0.2777 -0.1218  0.3827
14213SOL    HW147001   1.217   4.813   7.788 -0.2171 -0.2156  0.0990
14213SOL    HW247002   1.310   4.696   7.767  0.6366  0.2161  1.3691
14214SOL     OW47003   1.463   9.861   4.664  0.5864  0.1678  0.2973
14214SOL    HW147004   1.380   9.863   4.616  1.0918  0.9755 -0.5607
14214SOL    HW247005   1.496   9.772   4.650 -0.6910 -0.5862  1.6698
14215SOL     OW47006  10.153   4.060   9.653  0.1145  0.3810  0.0451
14215SOL    HW147007  10.124   4.003   9.725  0.0635  0.4714  0.0957
14215SOL    HW247008  10.243   4.033   9.636  0.9362  1.8754  1.6778
14216SOL     OW47009   6.598   2.895   5.409 -0.4551  0.2205  0.3539
14216SOL    HW147010   6.681   2.895   5.361 -0.0306  0.8369  1.0717
14216SOL    HW247011   6.593   2.982   5.449 -1.2790  0.0660  0.6092
14217SOL     OW47012   1.755   6.928  10.084  0.6447 -0.7219 -0.5021
14217SOL    HW147013   1.779   6.857  10.143  0.2990 -0.9432 -0.6230
14217SOL    HW247014   1.820   6.996  10.100  0.2342 -0.5592  0.5253
14218SOL     OW47015   6.960   0.973   5.640 -0.3824 -0.1932 -0.1441
14218SOL    HW147016   7.031   0.941   5.696 -0.4311 -1.5269 -0.8240
14218SOL    HW247017   6.924   1.047   5.689  1.5633  0.6302  0.1424
14219SOL     OW47018   0.294   7.032   2.971 -0.3771  0.0323  0.4913
14219SOL    HW147019   0.314   7.113   3.017  2.2183  0.5305 -1.3107
14219SOL    HW247020   0.296   7.055   2.878 -0.6753 -1.8650 -0.0362
14220SOL     OW47021   8.688   6.190   8.880  0.0707 -0.5254  0.2791
14220SOL    HW147022   8.689   6.203   8.975  2.0719  1.5237  0.0653
14220SOL    HW247023   8.701   6.277   8.844  0.5553 -1.4239 -1.8415
14221SOL     OW47024   0.668   3.694  10.202 -0.2120  0.0399 -0.4587
14221SOL    HW147025   0.633   3.663  10.119 -0.9304 -1.1076  0.2382
14221SOL    HW247026   0.598   3.680  10.265  0.1562  1.3231  0.2663
14222SOL     OW47027   7.108   3.345   0.472  0.0606 -0.0994  0.2808
14222SOL    HW147028   7.097   3.269   0.529 -0.2238  0.2419  0.6860
14222SOL    HW247029   7.029   3.345   0.418  1.6737 -2.2755 -2.3970
14223SOL     OW47030   8.727   6.441  10.635 -0.2429  0.3266  0.5480
14223SOL    HW147031   8.725   6.352  10.671  0.4246 -0.0057 -0.1884
14223SOL    HW247032   8.819   6.454  10.609 -0.8345  0.1820 -1.8768
14224SOL     OW47033   3.619   3.231  10.086  0.0641  0.1577  0.6716
14224SOL    HW147034   3.706   3.196  10.108  0.4318  0.4341 -0.2838
14224SOL    HW247035   3.632   3.275  10.002 -1.2685 -0.7528 -0.0351
14225SOL     OW47036   9.386   5.034   9.887  0.1207 -0.0619 -0.0462
14225SOL    HW147037   9.332   5.019   9.965  0.5487 -1.4294  0.0182
14225SOL    HW247038   9.368   4.958   9.831  1.7182 -0.3873 -0.1627
14226SOL     OW47039   1.929   6.508   2.564  0.3253 -0.1614  0.1955
14226SOL    HW147040   1.908   6.465   2.481  1.5528 -0.4816  0.0264
14226SOL    HW247041   1.864   6.474   2.626  0.1704 -0.8916 -0.3518
14227SOL     OW47042   4.457   8.339   5.401 -0.1770  0.5262 -0.3804
14227SOL    HW147043   4.475   8.294   5.483 -1.2501 -0.9437 -0.8992
14227SOL    HW247044   4.420   8.424   5.427  0.7829  0.6506  0.6232
14228SOL     OW47045   3.172   0.097   9.080 -0.2896  0.1690  0.1500
14228SOL    HW147046   3.249   0.053   9.115  1.3648  1.1828 -1.9830
14228SOL    HW247047   3.127   0.031   9.029  2.4747  0.8089 -3.5061
14229SOL     OW47048   8.797   8.414   3.524  0.5378  0.3384  0.1566
14229SOL    HW147049   8.720   8.409   3.579  0.6677  0.6989  0.3673
14229SOL    HW247050   8.849   8.486   3.560  0.3526  0.9607 -0.7835
14230SOL     OW47051   5.497   8.168   7.475 -0.2753 -0.2045  0.4033
14230SOL    HW147052   5.556   8.103   7.435 -0.6734 -0.3619  0.0571
14230SOL    HW247053   5.540   8.192   7.557 -0.0733 -0.8427  0.4948
14231SOL     OW47054   4.330   0.049   2.241 -0.2289  0.0644  0.7690
14231SOL    HW147055   4.279   0.130   2.236  0.1351  0.2366 -1.8988
14231SOL    HW247056   4.276  -0.017   2.197  0.9832 -0.2010 -0.4012
14232SOL     OW47057   3.465   4.921   4.292  0.2292  0.3030 -1.0402
14232SOL    HW147058   3.392   4.868   4.258  0.5312  0.4881 -2.0154
14232SOL    HW247059   3.543   4.877   4.260  0.5779 -0.1040  0.3186
14233SOL     OW47060   3.632  10.777   1.236 -0.3541 -0.1092 -0.1425
14233SOL    HW147061   3.574  10.703   1.255 -0.1651 -0.1807  0.1725
14233SOL    HW247062   3.597  10.850   1.287  0.8725 -0.6247  1.5274
14234SOL     OW47063   9.797   7.121   7.916 -0.2575  0.2756 -0.4455
14234SOL    HW147064   9.804   7.033   7.879 -2.8769  0.6295 -1.9966
14234SOL    HW247065   9.765   7.175   7.844  1.6865  2.6529  0.3528
14235SOL     OW47066   0.551  10.469   5.578  0.4300 -0.2359 -0.2323
14235SOL    HW147067   0.562  10.429   5.491  1.7727  2.2010 -1.2838
14235SOL    HW247068   0.492  10.543   5.563  0.8322  0.3273  0.9034
14236SOL     OW47069   1.372   1.928   4.826 -0.1759 -0.1539 -0.5400
14236SOL    HW147070   1.378   2.020   4.852  0.4995 -0.6246  1.1093
14236SOL    HW247071   1.424   1.922   4.746 -0.5065  0.9563 -0.8590
14237SOL     OW47072   2.893   9.656   0.827  0.5712 -0.2607  0.3091
14237SOL    HW147073   2.846   9.694   0.754 -1.0758 -1.3219  0.7712
14237SOL    HW247074   2.908   9.729   0.887 -0.8436  0.0403  0.3204
14238SOL     OW47075   2.101   5.533   6.164  0.1180 -0.1819  0.3330
14238SOL    HW147076   2.195   5.546   6.180  0.1112 -1.4962  1.6579
14238SOL    HW247077   2.093   5.439   6.145 -1.1254 -0.4871  2.1187
14239SOL     OW47078   1.897   4.812   5.121 -0.2654  0.1332 -0.0433
14239SOL    HW147079   1.977   4.761   5.106 -1.6059 -2.2698  0.4718
14239SOL    HW247080   1.838   4.785   5.051 -1.8696 -0.9773  1.6407
14240SOL     OW47081   3.508   7.394   9.328 -0.2162  0.2900 -0.0799
14240SOL    HW147082   3.519   7.481   9.289 -1.0818  0.2740 -0.3831
14240SOL    HW247083   3.591   7.349   9.312  0.5409  1.3178  0.7766
14241SOL     OW47084   8.247   1.320   4.329 -0.0514  0.3945  0.1786
14241SOL    HW147085   8.257   1.336   4.235  0.1277  0.2794  0.1774
14241SOL    HW247086   8.310   1.379   4.370 -0.2920  0.6119  0.2392
14242SOL     OW47087   7.763   1.863  11.022 -0.3149 -0.8391 -0.1565
14242SOL    HW147088   7.804   1.868  10.936 -0.7742 -0.9985 -0.3831
14242SOL    HW247089   7.672   1.888  11.007  0.0537  1.1803  0.6136
14243SOL     OW47090   0.257   3.876   7.066 -0.3554  0.1297 -0.0572
14243SOL    HW147091   0.239   3.966   7.095 -0.4116 -0.3085  1.3156
14243SOL    HW247092   0.343   3.881   7.025  0.5530  0.4532  1.8063
14244SOL     OW47093   0.712   1.095   2.678 -0.4905 -0.0104 -0.4744
14244SOL    HW147094   0.753   1.143   2.750 -0.1182 -0.6742 -0.2410
14244SOL    HW247095   0.659   1.028   2.721 -1.8778  0.8639 -0.7681
14245SOL     OW47096   6.436   7.209   5.311  1.0569  0.0260 -0.3089
14245SOL    HW147097   6.493   7.276   5.348  1.3967 -0.5354  0.1911
14245SOL    HW247098   6.441   7.223   5.217 -2.2759  3.5656 -0.2187
14246SOL     OW47099   7.614  10.985   4.328 -0.0647  0.0862  0.6160
14246SOL    HW147100   7.575  10.897   4.333  0.3162 -0.1695 -0.6518
14246SOL    HW247101   7.697  10.977   4.375 -0.3507 -0.0452  1.1051
14247SOL     OW47102   1.776  11.026   0.306  0.4987 -0.6767  0.0041
14247SOL    HW147103   1.715  10.976   0.360 -0.5154  0.6078  0.1068
14247SOL    HW247104   1.848  11.047   0.366  0.3710 -1.0054  0.2793
14248SOL     OW47105   9.152   2.457   3.037 -0.3568  0.0002 -0.0583
14248SOL    HW147106   9.223   2.477   2.976 -0.5474  0.3424 -0.1733
14248SOL    HW247107   9.097   2.394   2.991  0.1225 -0.6237  0.2131
14249SOL     OW47108   2.359   8.070   9.172  0.4369 -0.2429 -0.5414
14249SOL    HW147109   2.348   7.994   9.228 -2.3923  0.7386  0.4378
14249SOL    HW247110   2.409   8.132   9.225  0.6406 -0.5209 -0.4080
14250SOL     OW47111   1.242   8.956   2.142  0.2320  0.0240 -0.2231
14250SOL    HW147112   1.257   8.981   2.050 -0.4149 -0.6001 -0.5032
14250SOL    HW247113   1.329   8.962   2.183  0.4440  0.7758 -0.7552
14251SOL     OW47114   9.917   2.557   6.785  0.2249 -0.3426  0.9993
14251SOL    HW147115   9.961   2.622   6.731 -0.0721  0.1286  1.3133
14251SOL    HW247116   9.851   2.607   6.833 -2.5436 -1.3787 -1.4352
14252SOL     OW47117   4.911   3.961  10.053 -0.2303 -0.1481 -0.1735
14252SOL    HW147118   4.872   4.011  10.125  1.7419 -1.2282  1.7608
14252SOL    HW247119   4.908   4.020   9.978 -2.2734  1.0652  0.7977
14253SOL     OW47120   0.165   7.264  10.233  0.2280 -0.2247  0.2763
14253SOL    HW147121   0.127   7.296  10.314 -0.4833  1.6198 -0.7290
14253SOL    HW247122   0.254   7.298  10.233 -0.3263  1.3125 -0.4931
14254SOL     OW47123   7.170   3.249   9.116  0.7894  0.1778 -0.2109
14254SOL    HW147124   7.115   3.180   9.154 -0.7470  1.2146 -0.4503
14254SOL    HW247125   7.216   3.206   9.044 -0.3894 -0.5357 -0.5653
14255SOL     OW47126   6.909   4.185   8.545 -0.9066  0.0595  0.8338
14255SOL    HW147127   6.858   4.107   8.524  2.0249 -1.4441 -1.4363
14255SOL    HW247128   6.893   4.245   8.472  1.4885 -1.0170 -0.6852
14256SOL     OW47129   0.266   3.288   5.484 -0.0952 -0.0956  0.0126
14256SOL    HW147130   0.234   3.215   5.431 -0.7184  0.9737 -1.1294
14256SOL    HW247131   0.188   3.340   5.502  0.5541  1.0357 -0.3859
14257SOL     OW47132   7.978   9.514   0.774 -0.1019 -0.3600 -0.5845
14257SOL    HW147133   7.935   9.437   0.737  0.6030  0.4928 -3.4139
14257SOL    HW247134   7.954   9.586   0.716  0.7686  1.2101  0.9060
14258SOL     OW47135   1.151   2.961   2.281  0.1672 -0.4354 -0.0447
14258SOL    HW147136   1.209   2.890   2.308  0.8942 -0.0531 -0.5583
14258SOL    HW247137   1.080   2.918   2.234  1.2230 -0.7536 -1.4044
14259SOL     OW47138   0.110  10.870   4.004 -0.8919 -0.3475  0.1953
14259SOL    HW147139   0.201  10.863   3.975 -0.8665 -2.0100  0.5600
14259SOL    HW247140   0.093  10.964   4.007  0.2507 -0.0434 -1.5727
14260SOL     OW47141   3.554   5.471   7.172 -0.2915  0.1465 -0.3876
14260SOL    HW147142   3.502   5.411   7.120  0.4987 -1.5991  0.7350
14260SOL    HW247143   3.640   5.472   7.130 -0.3152  0.5423 -0.4326
14261SOL     OW47144   5.371   1.217   2.382 -0.0903 -0.3943  0.0262
14261SOL    HW147145   5.346   1.307   2.403  1.9301  0.3771 -0.6779
14261SOL    HW247146   5.304   1.188   2.320 -0.7034  0.6510  0.1652
14262SOL     OW47147   2.482   6.580   5.548  0.2449  0.0162  0.3467
14262SOL    HW147148   2.498   6.569   5.642 -1.5397 -1.0700  0.5715
14262SOL    HW247149   2.551   6.639   5.519  1.7471 -0.7972  2.0373
14263SOL     OW47150   4.859   4.473   9.865  0.1280  0.3074 -0.5494
14263SOL    HW147151   4.805   4.432   9.797 -1.2818  0.7966  0.2287
14263SOL    HW247152   4.866   4.406   9.934 -0.8193  0.7822  0.0235
14264SOL     OW47153   0.474   4.574  10.550 -0.4711  0.1910  0.2082
14264SOL    HW147154   0.516   4.493  10.520 -0.2884 -0.0259  1.0457
14264SOL    HW247155   0.396   4.545  10.596 -0.5239  0.5047  0.3177
14265SOL     OW47156   5.067   4.263   8.120 -0.0149  0.3623 -0.3138
14265SOL    HW147157   5.080   4.186   8.174 -0.4007 -0.3330 -1.1938
14265SOL    HW247158   5.141   4.321   8.142 -0.9416  0.7571  2.0068
14266SOL     OW47159   2.636   7.904   9.036 -0.0653 -0.0893  0.3283
14266SOL    HW147160   2.675   7.974   8.986  0.1224 -0.0773  0.4916
14266SOL    HW247161   2.664   7.919   9.126  1.0154 -1.0880  0.1806
14267SOL     OW47162   0.561   9.732   3.335  0.0099  0.0405  0.4119
14267SOL    HW147163   0.597   9.711   3.249 -1.3886  1.0636 -0.4726
14267SOL    HW247164   0.619   9.801   3.369 -0.5399  1.0568 -0.6128
14268SOL     OW47165   1.889  10.450   1.459  0.2697 -0.4047 -0.1993
14268SOL    HW147166   1.946  10.462   1.536  1.3894 -0.7086 -0.9534
14268SOL    HW247167   1.881  10.538   1.421 -0.3389 -0.2425  0.2813
14269SOL     OW47168  11.068   5.651   8.278  0.1804  0.3450  0.5678
14269SOL    HW147169  11.026   5.697   8.351 -2.5303  0.5342 -0.9513
14269SOL    HW247170  11.046   5.559   8.291 -2.4693  0.6048 -1.0941
14270SOL     OW47171   2.834   8.370   0.685  0.2710  0.6508  0.2626
14270SOL    HW147172   2.822   8.281   0.652 -0.2822  1.0149 -0.5493
14270SOL    HW247173   2.901   8.407   0.627  0.7219  0.6784  0.7889
14271SOL     OW47174   8.846   9.609   4.324 -0.7577 -0.2603  0.1865
14271SOL    HW147175   8.822   9.520   4.348  3.0329 -1.4440  0.1161
14271SOL    HW247176   8.856   9.607   4.229 -0.6961  0.2485  0.1768
14272SOL     OW47177   2.425   8.383   1.656  0.6327  0.8127 -0.1355
14272SOL    HW147178   2.438   8.337   1.739 -0.9561 -1.3805 -1.0001
14272SOL    HW247179   2.381   8.465   1.680 -0.6785 -0.2144  1.1676
14273SOL     OW47180   4.644   9.087   5.527 -1.2190 -0.2707 -0.4746
14273SOL    HW147181   4.610   9.036   5.454  1.7400 -1.3926 -1.1877
14273SOL    HW247182   4.732   9.114   5.500 -0.9926  1.4654  1.6683
14274SOL     OW47183   4.195   4.772  10.425 -0.4488  0.0508 -0.3984
14274SOL    HW147184   4.136   4.747  10.354 -0.5286 -1.1912  0.0912
14274SOL    HW247185   4.279   4.733  10.402 -0.0542  0.9838 -0.5954
14275SOL     OW47186   9.069   6.700  10.735 -0.3851 -0.5418  0.1415
14275SOL    HW147187   9.074   6.776  10.676 -0.4930  0.3667  1.2818
14275SOL    HW247188   9.020   6.635  10.685  2.4182 -1.1187 -2.1454
14276SOL     OW47189   6.200   1.440   2.016  0.3396 -0.0474 -0.2780
14276SOL    HW147190   6.227   1.515   1.964  0.4894  0.1805  0.1296
14276SOL    HW247191   6.156   1.477   2.092  0.5746 -0.3653  0.0191
14277SOL     OW47192   7.372   4.918   3.117  0.5537 -0.9565  0.3286
14277SOL    HW147193   7.327   4.963   3.045 -0.9452 -3.8634 -0.6918
14277SOL    HW247194   7.301   4.886   3.173  1.4286 -2.9324  0.3863
14278SOL     OW47195   5.547   1.806   6.776 -0.2348  0.0931 -0.0747
14278SOL    HW147196   5.585   1.731   6.730  2.8981  1.1915  0.4769
14278SOL    HW247197   5.498   1.853   6.708  0.5604 -0.6876 -1.2226
14279SOL     OW47198   6.391   3.763  10.579  0.4029 -0.0055 -0.1745
14279SOL    HW147199   6.341   3.683  10.595  1.1759 -0.3147  0.8114
14279SOL    HW247200   6.442   3.743  10.500 -0.1593 -0.1089 -0.5160
14280SOL     OW47201   7.623  10.725   8.145  0.1417 -0.5048  0.0913
14280SOL    HW147202   7.620  10.668   8.222  1.2501 -0.0453  0.4879
14280SOL    HW247203   7.702  10.778   8.157 -0.8910  1.1678 -0.2375
14281SOL     OW47204   3.731   6.710   3.158 -0.0711  0.5694  0.0672
14281SOL    HW147205   3.675   6.706   3.081  0.0156 -1.5326  0.0392
14281SOL    HW247206   3.680   6.666   3.227  1.2119 -0.7376  0.2295
14282SOL     OW47207   4.332   8.074   5.877  0.0277  0.0875 -0.2795
14282SOL    HW147208   4.389   7.998   5.871 -0.2390 -0.1463  0.1426
14282SOL    HW247209   4.392   8.149   5.884  0.2933 -0.0479 -1.0103
14283SOL     OW47210   9.729   6.604   4.481  0.5857  0.1562 -0.1788
14283SOL    HW147211   9.657   6.645   4.529 -0.4122 -2.1305  0.4549
14283SOL    HW247212   9.805   6.612   4.539  0.0839 -0.0526  0.5178
14284SOL     OW47213   6.188   5.254   3.085 -0.2592  0.8831  0.1301
14284SOL    HW147214   6.118   5.252   3.150 -0.9955  0.5412 -0.6565
14284SOL    HW247215   6.213   5.346   3.079  1.1791  0.7303  2.2897
14285SOL     OW47216   5.331   8.855   1.506 -0.6221  0.5944  0.5265
14285SOL    HW147217   5.243   8.892   1.503 -0.5095  1.2055  2.9154
14285SOL    HW247218   5.389   8.931   1.511  0.0413  0.1814 -0.4235
14286SOL     OW47219   7.955   0.084   3.689 -0.0202  0.1692  0.1276
14286SOL    HW147220   8.024   0.060   3.627 -0.6052  0.0204 -0.4716
14286SOL    HW247221   7.985   0.048   3.773  0.6768  0.1915 -0.1047
14287SOL     OW47222   9.372   2.249   5.976 -0.4856  0.1488  0.0595
14287SOL    HW147223   9.385   2.285   6.063 -2.0047  1.2959 -0.1376
14287SOL    HW247224   9.298   2.190   5.985  0.1477 -0.7070 -0.2187
14288SOL     OW47225   4.408  10.520   3.194 -0.1673 -0.1120 -0.1006
14288SOL    HW147226   4.484  10.462   3.187 -0.9864 -1.1648 -0.6825
14288SOL    HW247227   4.442  10.608   3.178  0.8548 -0.6167 -0.7688
14289SOL     OW47228   4.947   0.658   1.451  0.1491 -0.1148  0.2256
14289SOL    HW147229   4.905   0.743   1.434  2.1899  1.4693  2.4027
14289SOL    HW247230   4.891   0.617   1.517  0.9614  1.1894  1.8023
14290SOL     OW47231   9.485   8.472   4.824  0.0739 -0.3947 -0.2789
14290SOL    HW147232   9.529   8.400   4.779  1.9064  0.3037  0.2811
14290SOL    HW247233   9.404   8.434   4.858  1.1314 -2.2660  0.2768
14291SOL     OW47234   9.498   9.710   2.078  0.2526 -0.3956  0.7558
14291SOL    HW147235   9.433   9.696   2.146  1.6525  0.4774  2.3466
14291SOL    HW247236   9.570   9.651   2.101  1.9769  1.9462  1.7918
14292SOL     OW47237   5.792   8.925   0.856  0.6368  0.6521 -0.9581
14292SOL    HW147238   5.795   9.004   0.802  0.1044  1.6437  0.3881
14292SOL    HW247239   5.870   8.932   0.912 -0.3529  1.2155  0.4208
14293SOL     OW47240   8.588  10.759   5.770 -0.6098  0.1733 -0.4736
14293SOL    HW147241   8.503  10.752   5.813 -0.4247  1.8517  0.2256
14293SOL    HW247242   8.573  10.726   5.682 -2.0361  0.6037 -0.4143
14294SOL     OW47243   8.777  10.139   7.855  0.3669  0.2149 -0.6562
14294SOL    HW147244   8.753  10.099   7.938  0.8620 -0.9760 -1.0749
14294SOL    HW247245   8.748  10.230   7.863 -2.2961 -0.5942 -0.3103
14295SOL     OW47246   0.308   9.046   5.467 -0.2830  0.0732 -0.3307
14295SOL    HW147247   0.254   9.124   5.477  1.8830  1.7522 -1.0024
14295SOL    HW247248   0.351   9.035   5.552  1.2293  1.0950 -0.9256
14296SOL     OW47249   5.269   5.134   2.516  0.1328 -0.2761 -0.1557
14296SOL    HW147250   5.330   5.193   2.560  0.7346  0.0922 -1.4333
14296SOL    HW247251   5.210   5.191   2.468 -0.1726 -0.6798 -0.2646
14297SOL     OW47252   6.016   3.398   6.699  0.1963 -0.4280  0.4251
14297SOL    HW147253   6.104   3.392   6.663 -0.5412 -0.6184 -1.4679
14297SOL    HW247254   6.001   3.314   6.741  0.0915 -1.3155 -1.3184
14298SOL     OW47255   7.919   1.885   3.714 -0.1513 -0.2379 -0.0678
14298SOL    HW147256   7.851   1.834   3.671 -0.8623 -0.2868  1.0786
14298SOL    HW247257   7.990   1.891   3.649 -1.1908 -0.2794 -1.2407
14299SOL     OW47258   5.473   2.023   2.872 -0.4711  0.5857  0.4616
14299SOL    HW147259   5.477   1.947   2.814  2.2242  0.4709  0.6615
14299SOL    HW247260   5.432   1.990   2.952 -0.3403 -0.3799  0.1456
14300SOL     OW47261   5.596   7.033   3.948  0.1164  0.4314 -0.3710
14300SOL    HW147262   5.617   7.032   3.855 -0.6767 -0.4162 -0.5613
14300SOL    HW247263   5.501   7.047   3.950  0.4337  2.9902  0.4049
14301SOL     OW47264   3.024   6.669   5.657 -0.2106  0.6987 -0.0544
14301SOL    HW147265   3.066   6.680   5.572 -1.2990  0.5428 -0.6171
14301SOL    HW247266   2.972   6.590   5.648 -0.5068  0.8009  0.6960
14302SOL     OW47267   5.201  10.757   7.514 -0.0490  0.2159  0.9295
14302SOL    HW147268   5.164  10.844   7.527 -1.1139 -0.0789 -0.0643
14302SOL    HW247269   5.127  10.702   7.490  0.7517 -0.7907  0.6955
14303SOL     OW47270   9.397   5.777   3.639 -0.4078 -0.1465 -0.1467
14303SOL    HW147271   9.330   5.806   3.700 -0.3404  0.0557 -0.1660
14303SOL    HW247272   9.419   5.689   3.667 -1.3573 -0.5789 -0.7116
14304SOL     OW47273   7.571   1.715   3.301 -0.0568 -0.3670 -0.4603
14304SOL    HW147274   7.556   1.781   3.369 -0.1959 -0.5689 -0.2953
14304SOL    HW247275   7.552   1.632   3.344 -0.2533 -0.4862 -0.7760
14305SOL     OW47276   3.088   9.324   6.523  0.1892  0.1141 -0.6229
14305SOL    HW147277   3.104   9.230   6.518 -0.9577 -0.1493  0.4609
14305SOL    HW247278   3.070   9.341   6.615  1.0363  1.5203 -0.6789
14306SOL     OW47279   3.696   2.866  10.631  0.2270 -0.1223  0.3568
14306SOL    HW147280   3.790   2.856  10.616  0.2797 -1.9511  1.6380
14306SOL    HW247281   3.665   2.778  10.649 -1.7452  0.4673  0.0341
14307SOL     OW47282   7.203  10.970   9.036  0.0151 -0.3511 -0.4339
14307SOL    HW147283   7.228  11.051   8.993 -3.0806 -0.8141 -3.5951
14307SOL    HW247284   7.148  10.998   9.109  1.0692  0.3707  0.1118
14308SOL     OW47285   7.311   1.882   6.509  0.4492  0.1796  0.0979
14308SOL    HW147286   7.331   1.944   6.439  1.1654 -0.9224 -0.7041
14308SOL    HW247287   7.282   1.803   6.464 -2.3518  0.4906  1.1166
14309SOL     OW47288   9.508   5.468   4.522  0.1353  0.1918  0.8195
14309SOL    HW147289   9.490   5.397   4.584  1.6305 -0.0235  1.0402
14309SOL    HW247290   9.514   5.546   4.577  0.3252  0.1845  0.8105
14310SOL     OW47291   0.221   7.659   7.415  0.1149  0.8917 -0.3421
14310SOL    HW147292   0.219   7.705   7.499 -1.6496  0.0444  0.1417
14310SOL    HW247293   0.130   7.661   7.385  0.7391  1.3988 -2.3946
14311SOL     OW47294   5.963   4.136   8.442 -0.1816 -0.1458 -0.0740
14311SOL    HW147295   6.057   4.122   8.451  0.6072  3.8416 -0.2624
14311SOL    HW247296   5.932   4.149   8.532 -0.1377  0.4724 -0.1436
14312SOL     OW47297   8.464   2.265   9.334  0.0535  0.1362 -0.3152
14312SOL    HW147298   8.387   2.278   9.390  0.7510  1.0134  0.4759
14312SOL    HW247299   8.468   2.344   9.280  1.4333  0.9900  0.9607
14313SOL     OW47300   6.649   2.106   2.796 -0.2492  0.2866  0.0457
14313SOL    HW147301   6.606   2.166   2.857 -2.1996  0.7112 -1.6361
14313SOL    HW247302   6.684   2.036   2.852 -0.5259  1.4590  1.7673
14314SOL     OW47303   7.225  10.989   2.648  0.1086  0.1249 -0.1260
14314SOL    HW147304   7.130  10.995   2.636  0.0259  0.8224  0.7202
14314SOL    HW247305   7.236  10.979   2.743  1.0057  4.1959  0.3669
14315SOL     OW47306   9.485   4.549  10.854  0.1557 -0.6001  0.2998
14315SOL    HW147307   9.497   4.521  10.945 -0.8034  1.6931  1.1954
14315SOL    HW247308   9.390   4.561  10.845  0.4081  1.0798 -0.3869
14316SOL     OW47309   0.923   9.152   8.253  0.1646  0.4163 -0.4596
14316SOL    HW147310   0.949   9.214   8.321 -0.1100 -0.5365  0.5483
14316SOL    HW247311   0.852   9.102   8.293  2.3614 -2.6403 -0.0168
14317SOL     OW47312   4.549   8.823   9.642 -0.2042 -0.2555  0.6559
14317SOL    HW147313   4.472   8.777   9.608 -1.8134  1.1199  2.1862
14317SOL    HW247314   4.614   8.817   9.572 -1.9197 -0.9444 -0.9704
14318SOL     OW47315   9.028   7.539   7.418 -0.1194  0.4675 -0.9872
14318SOL    HW147316   9.111   7.582   7.398 -0.8647  1.5485 -1.9059
14318SOL    HW247317   9.012   7.482   7.343  0.2961 -0.5337 -0.3204
14319SOL     OW47318   3.421   1.475   4.362  0.1413 -0.0118 -0.3980
14319SOL    HW147319   3.347   1.458   4.419  0.2007 -0.3464 -0.4164
14319SOL    HW247320   3.407   1.564   4.330 -0.5480 -0.2712 -0.8456
14320SOL     OW47321   1.711   3.826   0.483 -0.0426  0.5309  0.0652
14320SOL    HW147322   1.798   3.849   0.518  0.8906  0.6348 -2.1557
14320SOL    HW247323   1.686   3.902   0.431 -1.2162  0.2282  0.1584
14321SOL     OW47324   9.785   8.725   9.990  1.0327 -0.1516 -0.2481
14321SOL    HW147325   9.742   8.652   9.945 -0.1652  0.2586  0.1653
14321SOL    HW247326   9.769   8.707  10.083  0.0562  1.0043 -0.1725
14322SOL     OW47327   1.564   6.898   5.932 -0.3930  0.6891  0.3632
14322SOL    HW147328   1.591   6.807   5.920 -0.8272  0.5594  0.3709
14322SOL    HW247329   1.601   6.924   6.017  0.1378  0.6729  0.1407
14323SOL     OW47330   6.926   5.558   5.898 -0.5762 -0.1917 -0.3332
14323SOL    HW147331   7.006   5.576   5.849  0.5822 -0.8168  1.2713
14323SOL    HW247332   6.930   5.465   5.917 -2.3958 -0.5338 -1.3873
14324SOL     OW47333   0.378   5.992   3.345 -0.1624  0.6143 -0.4666
14324SOL    HW147334   0.386   6.007   3.250 -1.7289  3.3961 -0.2676
14324SOL    HW247335   0.458   5.946   3.369  0.7519  0.7420 -2.9791
14325SOL     OW47336   7.562   2.352   2.813  0.2943  0.6709 -0.3458
14325SOL    HW147337   7.468   2.342   2.825  0.4805 -0.1042  0.6332
14325SOL    HW247338   7.593   2.387   2.897  0.9109  0.6530 -0.5643
14326SOL     OW47339  10.864   6.986  11.038 -0.2482  0.6053  0.0648
14326SOL    HW147340  10.777   7.026  11.035  0.3368  1.8808 -0.3340
14326SOL    HW247341  10.880   6.972  11.132 -0.2379  1.8270  0.2573
14327SOL     OW47342   2.968   2.800   7.013  0.6674  0.0628 -0.1005
14327SOL    HW147343   2.980   2.797   6.919  0.8768  2.3311 -0.2031
14327SOL    HW247344   2.873   2.799   7.025  0.6436 -0.4299 -0.3138
14328SOL     OW47345   1.457   2.598   9.313  0.0093  0.4830 -0.9195
14328SOL    HW147346   1.476   2.506   9.292 -1.0522  0.1216 -0.3334
14328SOL    HW247347   1.542   2.634   9.338  0.1018 -0.9232  0.9996
14329SOL     OW47348   7.085   4.112   8.867  0.5436 -0.0867 -0.2524
14329SOL    HW147349   7.010   4.167   8.890  1.2061  0.8034 -0.1443
14329SOL    HW247350   7.103   4.062   8.946  1.1257  0.9713  0.3018
14330SOL     OW47351   0.786   3.303   2.294 -0.0935  0.4233 -0.4672
14330SOL    HW147352   0.763   3.396   2.294 -0.4645  0.3354 -0.1787
14330SOL    HW247353   0.854   3.295   2.227 -0.1662  0.8756 -0.5999
14331SOL     OW47354   9.892   7.851   1.434  0.2103 -0.5218  0.4154
14331SOL    HW147355   9.971   7.904   1.427  0.0294 -0.0509  1.6434
14331SOL    HW247356   9.866   7.833   1.344  0.9138  0.5206 -0.0023
14332SOL     OW47357   9.830   4.304   9.413  0.3137  0.6437  0.5117
14332SOL    HW147358   9.872   4.296   9.498 -0.8720  2.7988  1.3737
14332SOL    HW247359   9.852   4.392   9.382 -1.6330  1.0114 -0.0147
14333SOL     OW47360   1.800  10.886   3.977 -0.4646 -0.1966  0.0075
14333SOL    HW147361   1.737  10.852   3.913 -0.6097  0.2619 -0.0968
14333SOL    HW247362   1.749  10.896   4.058 -0.7686  1.0365 -0.3134
14334SOL     OW47363   5.467   9.626   8.485 -0.4257 -0.1204  0.7105
14334SOL    HW147364   5.484   9.532   8.485  0.4825  0.0342  0.8826
14334SOL    HW247365   5.411   9.641   8.561 -1.5386 -0.6740  0.0275
14335SOL     OW47366   2.969  10.386   9.088  0.2066 -0.3147 -0.0423
14335SOL    HW147367   2.958  10.296   9.057 -2.1565  0.1738 -0.8436
14335SOL    HW247368   3.047  10.418   9.041  0.5126 -1.6327 -0.4722
14336SOL     OW47369   6.617   1.591   3.683 -0.2981  0.3901  0.2093
14336SOL    HW147370   6.662   1.663   3.729  0.3024  0.7813 -0.9538
14336SOL    HW247371   6.561   1.634   3.619 -1.5421 -0.1393  0.8965
14337SOL     OW47372   2.793  10.362   8.439 -0.4143 -0.0645  0.2298
14337SOL    HW147373   2.758  10.273   8.438  0.9574 -0.6310 -0.7307
14337SOL    HW247374   2.730  10.412   8.491 -0.4411 -1.9249  2.1207
14338SOL     OW47375   1.491   8.219   1.831  0.1100  0.2274  0.4642
14338SOL    HW147376   1.497   8.207   1.736  0.5472  1.4917  0.3041
14338SOL    HW247377   1.399   8.237   1.847  0.2045  1.0725  0.1187
14339SOL     OW47378  10.141   5.472   1.992  0.5020 -0.1234  0.7252
14339SOL    HW147379  10.141   5.566   1.973  0.4951 -0.3404 -0.3611
14339SOL    HW247380  10.232   5.445   1.981  0.3968 -0.3647  0.4569
14340SOL     OW47381   1.445   3.559   1.453 -0.4704 -0.3362 -0.3888
14340SOL    HW147382   1.416   3.469   1.466  0.3640 -0.9672 -2.5817
14340SOL    HW247383   1.529   3.564   1.499  1.0275 -1.6762 -2.7608
14341SOL     OW47384   0.397   5.619  10.862 -0.4355 -0.1270 -0.0705
14341SOL    HW147385   0.359   5.537  10.832 -1.4937  0.4032 -0.2359
14341SOL    HW247386   0.489   5.599  10.878 -0.5481 -1.1856 -0.6871
14342SOL     OW47387   3.170   4.734   5.358  0.0428 -0.0038  0.2565
14342SOL    HW147388   3.200   4.817   5.321  0.4488  0.0314  0.6551
14342SOL    HW247389   3.232   4.669   5.325  1.3993  0.2546  2.1184
14343SOL     OW47390   3.654   7.724   9.662  0.0144  0.4226  0.7820
14343SOL    HW147391   3.714   7.719   9.587 -0.3026 -0.6968  0.5940
14343SOL    HW247392   3.632   7.817   9.668 -0.1321  0.5061 -0.6539
14344SOL     OW47393   8.804   5.326   7.778 -0.1149  0.1295 -0.0909
14344SOL    HW147394   8.780   5.348   7.688  1.3931 -3.7733 -1.6484
14344SOL    HW247395   8.899   5.331   7.780 -0.1450  0.5155  1.4113
14345SOL     OW47396   9.013  10.634   1.361  0.2837  0.2405 -0.1458
14345SOL    HW147397   8.944  10.620   1.426  1.2504 -0.8671  0.7076
14345SOL    HW247398   9.012  10.728   1.344 -2.0046  0.1299 -0.8497
14346SOL     OW47399   7.880   4.537   5.476 -0.7926  0.0246  0.0799
14346SOL    HW147400   7.809   4.598   5.496 -0.2266  0.4971  0.6523
14346SOL    HW247401   7.860   4.506   5.387 -1.9881 -0.2422  0.4153
14347SOL     OW47402   1.760   6.830   9.601  0.2781  0.3266  0.2588
14347SOL    HW147403   1.671   6.825   9.564  1.3447 -1.4373 -2.3740
14347SOL    HW247404   1.799   6.907   9.560 -0.0737  1.2877  1.6599
14348SOL     OW47405   0.985   7.073   8.676 -0.1532  0.3561  0.5901
14348SOL    HW147406   0.932   7.152   8.676 -0.2053  0.3208  0.8668
14348SOL    HW247407   0.933   7.009   8.628 -0.0340  0.5401  0.2080
14349SOL     OW47408   8.993  10.637  10.322  0.5184 -0.2232  0.2264
14349SOL    HW147409   8.923  10.700  10.306  0.9765  0.3491  0.4147
14349SOL    HW247410   8.966  10.589  10.400  1.0186  1.0198  1.1966
14350SOL     OW47411   1.524  10.135   2.489  0.3446 -0.1961  0.4142
14350SOL    HW147412   1.475  10.095   2.417 -2.1399 -0.4522  2.1020
14350SOL    HW247413   1.483  10.220   2.501  2.0269  0.6548  0.3155
14351SOL     OW47414   1.416   5.646   9.014 -0.2259 -0.0887  0.3178
14351SOL    HW147415   1.349   5.690   9.066 -0.0542 -0.3332  0.7581
14351SOL    HW247416   1.464   5.593   9.078  0.3883  0.0914  0.0105
14352SOL     OW47417   6.999   8.329   2.636  0.3257  0.2469 -0.2330
14352SOL    HW147418   7.064   8.336   2.566  1.2375 -1.8390  0.3456
14352SOL    HW247419   6.937   8.263   2.606  0.8077 -0.7903  0.9252
14353SOL     OW47420  10.212   6.587   0.933  0.1636  0.2992 -0.3588
14353SOL    HW147421  10.116   6.578   0.937  0.1723  0.1170 -0.5861
14353SOL    HW247422  10.225   6.671   0.888  0.1093  0.3691 -0.2451
14354SOL     OW47423   0.733   9.468   7.806  0.2429  0.1053  0.9896
14354SOL    HW147424   0.807   9.525   7.784  0.8824 -1.0794 -0.0294
14354SOL    HW247425   0.658   9.508   7.762  1.4666 -2.2119 -3.8663
14355SOL     OW47426   7.984   0.586   0.137 -0.2852 -0.5876 -0.0268
14355SOL    HW147427   7.962   0.599   0.044 -1.5368 -1.0073  0.1915
14355SOL    HW247428   7.995   0.675   0.171 -1.5363 -0.3364 -0.2012
14356SOL     OW47429   5.358   9.007   9.339  0.7151 -0.2537 -0.3821
14356SOL    HW147430   5.405   9.013   9.422  0.3178  1.0771 -0.2150
14356SOL    HW247431   5.426   8.992   9.274  0.9615 -2.0035  0.2388
14357SOL     OW47432   1.035   3.433   4.000  0.5621 -0.2101 -0.2109
14357SOL    HW147433   0.968   3.501   3.993 -0.0207 -0.8438 -0.8771
14357SOL    HW247434   1.113   3.480   4.029  0.2966  0.8349 -1.1231
14358SOL     OW47435   7.539   0.299   1.943 -0.4718 -0.0653 -0.0584
14358SOL    HW147436   7.483   0.369   1.975 -1.2260 -1.3806  1.6304
14358SOL    HW247437   7.482   0.247   1.885  0.1602  0.8073 -1.5313
14359SOL     OW47438   6.209  10.267   5.731  0.0056 -0.4349  0.6694
14359SOL    HW147439   6.149  10.328   5.774  1.4051  0.9611  0.7505
14359SOL    HW247440   6.249  10.218   5.802 -2.1287 -2.5579  0.5436
14360SOL     OW47441   6.829   5.948   1.430 -0.6505 -0.7436 -0.0989
14360SOL    HW147442   6.735   5.934   1.440 -0.9215  1.0319  0.0560
14360SOL    HW247443   6.866   5.920   1.513 -1.1451 -0.6335  0.1610
14361SOL     OW47444   8.069  11.102   1.402  0.0754 -0.0797  0.0372
14361SOL    HW147445   8.141  11.156   1.370  0.0642 -0.2960 -0.3748
14361SOL    HW247446   8.101  11.064   1.484 -0.0308  0.7806  0.4829
14362SOL     OW47447   6.580   8.630   8.505 -0.1056  0.1765 -0.2341
14362SOL    HW147448   6.596   8.601   8.415 -3.2750 -0.7718 -0.6341
14362SOL    HW247449   6.560   8.549   8.553  2.5148  0.5467  1.6488
14363SOL     OW47450   5.904   1.026   4.403 -0.2182 -0.0697  0.3356
14363SOL    HW147451   5.938   1.035   4.314 -1.1335  0.1661  0.0021
14363SOL    HW247452   5.939   0.942   4.433  0.4934  0.0727 -0.0634
14364SOL     OW47453   0.209   1.610   1.348  0.1023 -0.0043  0.0580
14364SOL    HW147454   0.222   1.567   1.433  1.2094  0.8371  0.3435
14364SOL    HW247455   0.174   1.542   1.291  0.3539 -0.8680  0.9120
14365SOL     OW47456   0.358   5.755   9.027  0.0734  0.3062  0.3257
14365SOL    HW147457   0.390   5.835   8.985 -0.8207  0.0071 -0.9673
14365SOL    HW247458   0.318   5.705   8.956  1.2517 -1.6458  0.9491
14366SOL     OW47459   5.444  10.060   9.580  0.2539 -0.4423 -0.0115
14366SOL    HW147460   5.433   9.967   9.558 -1.0207 -0.1762 -0.5632
14366SOL    HW247461   5.383  10.075   9.651 -0.1097  0.1467 -0.4408
14367SOL     OW47462   0.458   9.404   4.754  0.0136 -0.1881  0.3793
14367SOL    HW147463   0.548   9.436   4.756  0.6821 -2.0042  2.5081
14367SOL    HW247464   0.458   9.339   4.684  0.5190 -0.6029  0.7594
14368SOL     OW47465   1.173   5.512   8.169  0.0669  0.8079 -0.1735
14368SOL    HW147466   1.153   5.432   8.121 -1.4643 -0.0497  1.7661
14368SOL    HW247467   1.237   5.486   8.235 -0.7337  1.0406  0.7288
14369SOL     OW47468   8.529   7.353  10.131 -0.5226 -0.4025 -0.2192
14369SOL    HW147469   8.464   7.284  10.118 -1.0093 -0.6905  3.0188
14369SOL    HW247470   8.487   7.417  10.188  0.6551  1.5824 -1.4353
14370SOL     OW47471  10.449  10.677   5.989 -0.4515 -0.1417  0.2419
14370SOL    HW147472  10.431  10.767   5.962  0.0691  0.2013  1.0216
14370SOL    HW247473  10.388  10.661   6.061 -1.9803 -1.1289 -1.1861
14371SOL     OW47474   4.249  10.437   6.123 -0.1526 -0.2574 -0.2962
14371SOL    HW147475   4.245  10.511   6.184 -0.2942  0.2097 -0.8687
14371SOL    HW247476   4.311  10.377   6.164 -0.6033 -0.1663  0.5462
14372SOL     OW47477   6.502   6.630   1.700  0.1570  0.4179 -0.5618
14372SOL    HW147478   6.420   6.661   1.739  0.9529 -0.1724  1.7357
14372SOL    HW247479   6.541   6.709   1.661 -0.5919  1.1090  0.0444
14373SOL     OW47480   2.820   9.172   6.081 -0.4725 -0.2074  0.5346
14373SOL    HW147481   2.842   9.248   6.028 -1.1010  0.5406  1.3172
14373SOL    HW247482   2.869   9.183   6.162  1.6782 -2.1065 -0.3949
14374SOL     OW47483   3.185   3.398   4.802 -0.3218 -0.1168  0.2581
14374SOL    HW147484   3.137   3.481   4.803 -0.4108 -0.1767  1.6021
14374SOL    HW247485   3.277   3.424   4.805 -0.3497 -0.0702  0.6973
14375SOL     OW47486   7.769   2.621  10.216 -0.2267 -0.1990  0.3353
14375SOL    HW147487   7.674   2.627  10.223 -0.3178 -0.9348 -0.1086
14375SOL    HW247488   7.796   2.570  10.293 -0.2351 -0.3150  0.2614
14376SOL     OW47489   7.570   9.028   5.725  0.2121 -0.8609 -0.0867
14376SOL    HW147490   7.657   9.018   5.685  0.0095  2.0874 -1.5201
14376SOL    HW247491   7.516   8.962   5.681  1.0948 -0.8476 -1.2476
14377SOL     OW47492   4.810   6.697   0.244 -0.2201 -0.3758  0.1961
14377SOL    HW147493   4.799   6.670   0.336 -0.5117 -4.6723 -0.8554
14377SOL    HW247494   4.723   6.689   0.206  0.1602 -0.1215 -0.7425
14378SOL     OW47495   3.595  10.669   3.287 -0.2513 -0.4193 -0.1712
14378SOL    HW147496   3.571  10.760   3.302 -2.0798 -1.1114  1.4132
14378SOL    HW247497   3.565  10.650   3.198 -0.3768  0.3584 -0.2981
14379SOL     OW47498  10.138   1.872   1.622 -0.1390 -0.4743  0.2434
14379SOL    HW147499  10.117   1.932   1.550 -1.5664 -1.6229 -0.3439
14379SOL    HW247500  10.053   1.845   1.655  0.3881  1.4563  3.6750
14380SOL     OW47501  10.312  10.147   8.108 -0.1716 -0.0515 -0.5383
14380SOL    HW147502  10.382  10.199   8.147 -0.2363  0.6685 -1.3440
14380SOL    HW247503  10.283  10.199   8.033 -0.3650 -1.1628 -1.2603
14381SOL     OW47504   5.800   6.082   1.790  0.2696 -0.2421  0.0823
14381SOL    HW147505   5.863   6.134   1.839 -0.7696  1.5418 -0.3735
14381SOL    HW247506   5.767   6.018   1.853 -0.4978  1.5193  1.5618
14382SOL     OW47507   8.832   2.203   4.541  0.2532  0.1256  0.6019
14382SOL    HW147508   8.883   2.124   4.556  1.7773  0.8255 -0.6221
14382SOL    HW247509   8.891   2.261   4.494 -1.3679  1.3690  0.0018
14383SOL     OW47510   8.516   9.823   9.485  0.2292 -0.0971  0.2077
14383SOL    HW147511   8.594   9.778   9.519 -0.3575 -0.3331  1.2805
14383SOL    HW247512   8.475   9.759   9.427 -0.8540 -1.2097  2.0839
14384SOL     OW47513   3.802   7.996   7.180 -0.4329  0.3150  0.2498
14384SOL    HW147514   3.784   7.912   7.137 -0.3897 -0.7743  2.2598
14384SOL    HW247515   3.810   8.059   7.107 -0.6861 -1.3574 -1.2913
14385SOL     OW47516   0.370   4.460   5.241  0.5559 -0.2816 -0.2923
14385SOL    HW147517   0.329   4.520   5.303 -0.6122 -1.1824 -0.1604
14385SOL    HW247518   0.298   4.431   5.185  0.8018 -2.5392  0.4604
14386SOL     OW47519   3.651   9.284   1.087  0.0072  0.1758 -0.0750
14386SOL    HW147520   3.621   9.253   1.172  2.6330 -0.3908  0.7180
14386SOL    HW247521   3.735   9.241   1.074 -0.5018 -0.1010 -3.1971
14387SOL     OW47522   3.962   2.355  10.979 -0.3133  0.2962  0.0441
14387SOL    HW147523   4.020   2.295  10.932  0.0391  1.0653 -0.5276
14387SOL    HW247524   4.006   2.371  11.062  0.7957  1.5915 -0.7466
14388SOL     OW47525  11.058   7.314   2.827  0.6822 -0.5019  0.2731
14388SOL    HW147526  11.082   7.248   2.892  2.4278  0.6592  0.8549
14388SOL    HW247527  11.084   7.397   2.865  1.0789  0.2804 -1.5789
14389SOL     OW47528   6.815   1.175   0.739  0.3100 -0.7689 -0.5218
14389SOL    HW147529   6.771   1.134   0.664  0.8207 -1.3036 -0.5400
14389SOL    HW247530   6.909   1.168   0.718  0.4203  0.1393 -0.3777
14390SOL     OW47531   9.325   8.917  10.839 -0.0875  0.3315 -0.4995
14390SOL    HW147532   9.267   8.849  10.804 -1.1059  1.0382 -0.2243
14390SOL    HW247533   9.272   8.997  10.840  0.0969  0.5236  1.9067
14391SOL     OW47534   4.090   2.430   2.257  0.7950  0.3135 -0.1423
14391SOL    HW147535   4.126   2.342   2.250  2.1478  0.6609  1.7081
14391SOL    HW247536   3.998   2.417   2.281  0.3408 -0.5654 -2.1513
14392SOL     OW47537   7.501  10.620   5.359  0.5428 -0.3183  0.1180
14392SOL    HW147538   7.545  10.536   5.350  1.2556 -0.0766  1.1774
14392SOL    HW247539   7.571  10.685   5.362  0.2435 -0.0029  2.6710
14393SOL     OW47540   5.286   3.914  10.515 -0.3340  0.2531 -0.0237
14393SOL    HW147541   5.367   3.927  10.564 -1.3181  0.5836  1.5881
14393SOL    HW247542   5.287   3.822  10.489 -1.0718 -0.7840  3.1643
14394SOL     OW47543   5.933   7.621   7.188 -0.5156  0.2289 -0.1344
14394SOL    HW147544   6.012   7.667   7.160 -0.6098  0.7535  0.4425
14394SOL    HW247545   5.861   7.680   7.163 -0.7837 -0.5302 -1.2412
14395SOL     OW47546   8.112  10.125  10.082  0.2061 -0.5644  0.1536
14395SOL    HW147547   8.202  10.153  10.100  0.3567 -0.8187 -0.1852
14395SOL    HW247548   8.122  10.035  10.050 -0.2166 -0.7816  0.6279
14396SOL     OW47549   6.838   5.660   7.729 -0.4289  0.5640 -0.1457
14396SOL    HW147550   6.774   5.662   7.800 -0.1505  0.2763  0.1192
14396SOL    HW247551   6.786   5.652   7.650 -0.7072 -0.1580  0.0985
14397SOL     OW47552   4.412   0.204   5.956  0.0907 -0.0686  0.3607
14397SOL    HW147553   4.409   0.116   5.993  1.1500 -0.5250 -0.5731
14397SOL    HW247554   4.321   0.225   5.936 -0.0321 -1.6695 -0.9863
14398SOL     OW47555   2.116   0.223  11.092  0.5081 -0.3681  1.0455
14398SOL    HW147556   2.128   0.167  11.016 -1.3352 -1.0877  1.2386
14398SOL    HW247557   2.111   0.312  11.057  0.2026 -0.6425  0.3985
14399SOL     OW47558   6.273   2.647   4.076 -0.5221  0.2600 -0.0635
14399SOL    HW147559   6.276   2.640   4.171 -0.7385 -0.5371 -0.1114
14399SOL    HW247560   6.344   2.591   4.045 -0.8994 -0.0491 -0.3905
14400SOL     OW47561   4.225   0.645   5.401 -0.4644 -0.1154 -0.3890
14400SOL    HW147562   4.158   0.592   5.443 -0.9702 -0.5232 -1.6622
14400SOL    HW247563   4.237   0.605   5.315  0.1010  1.0408 -0.8752
14401SOL     OW47564   1.850   4.668  11.115  0.0939  0.4984  0.3403
14401SOL    HW147565   1.778   4.606  11.117 -0.3769  1.0492  0.9206
14401SOL    HW247566   1.929   4.615  11.127 -0.0683 -0.2855 -1.8060
14402SOL     OW47567   9.424   4.605   1.769  0.4117 -0.1726 -0.0365
14402SOL    HW147568   9.510   4.639   1.794 -0.3510  0.7221  1.5032
14402SOL    HW247569   9.419   4.519   1.811  0.2636  0.0990  0.5076
14403SOL     OW47570   3.116   0.832   3.244  0.6634 -0.0175  0.6878
14403SOL    HW147571   3.063   0.755   3.229  2.4318 -1.3956  1.1792
14403SOL    HW247572   3.092   0.892   3.174 -2.2022 -0.1462  1.4634
14404SOL     OW47573   1.474   7.329   9.244  0.0720 -0.1620  0.1820
14404SOL    HW147574   1.481   7.241   9.206 -0.4664 -0.6009  1.0696
14404SOL    HW247575   1.457   7.314   9.336  1.0238  0.8878  0.5579
14405SOL     OW47576   4.381   9.923   1.238  0.1713  0.9603  0.3839
14405SOL    HW147577   4.378   9.829   1.220  0.9039  0.7324  1.3772
14405SOL    HW247578   4.462   9.936   1.287  0.4472  2.2348 -0.3519
14406SOL     OW47579   6.573   9.984   0.267 -0.3383  0.8502  0.0602
14406SOL    HW147580   6.574   9.961   0.174 -0.1786  1.6574 -0.1527
14406SOL    HW247581   6.519  10.063   0.272  0.6174  1.5008  0.4706
14407SOL     OW47582   8.518   5.964   9.834 -0.0385  0.0710  0.1862
14407SOL    HW147583   8.571   5.993   9.760  1.1671  1.1393  1.4200
14407SOL    HW247584   8.463   6.039   9.856 -0.6618 -0.3666  0.1791
14408SOL     OW47585   4.322   3.366   2.318 -0.3997  0.0016 -0.1905
14408SOL    HW147586   4.371   3.342   2.397 -1.2126 -0.0089  0.3227
14408SOL    HW247587   4.327   3.288   2.263  1.0075  0.3449 -0.5932
14409SOL     OW47588   2.112   9.177   4.119  0.2837  0.1771 -0.8206
14409SOL    HW147589   2.096   9.083   4.129 -2.2226  0.5214 -1.1565
14409SOL    HW247590   2.052   9.204   4.050  1.4371  1.9317 -1.1765
14410SOL     OW47591   8.368  10.413   7.025  0.1041 -0.3204  0.0307
14410SOL    HW147592   8.338  10.426   6.935  1.6039 -0.0490 -0.4512
14410SOL    HW247593   8.322  10.480   7.076  1.9579  1.9806 -1.1537
14411SOL     OW47594   2.676   2.217   9.113  0.2821  0.1734  0.4883
14411SOL    HW147595   2.691   2.209   9.208 -0.2638 -0.6098  0.5114
14411SOL    HW247596   2.754   2.179   9.073 -0.2284 -1.0470  0.6244
14412SOL     OW47597   1.862   5.113   5.109 -0.3228 -0.2090  0.1958
14412SOL    HW147598   1.899   5.065   5.035 -2.5856  0.7743 -1.6722
14412SOL    HW247599   1.937   5.133   5.165  2.0038  1.6475 -3.3044
14413SOL     OW47600   9.275   5.690   5.025  0.6940  0.2189 -0.1519
14413SOL    HW147601   9.331   5.692   4.948  0.4575  1.8186 -0.3224
14413SOL    HW247602   9.321   5.634   5.087  0.8883 -1.0884 -1.4431
14414SOL     OW47603   0.488   3.359  10.650 -0.0334  0.1970 -0.0177
14414SOL    HW147604   0.577   3.369  10.616 -0.5144  0.4865 -1.2346
14414SOL    HW247605   0.432   3.398  10.583 -1.1312 -0.5444  0.4375
14415SOL     OW47606   9.402   8.328  10.784  0.3470 -0.2986  0.0589
14415SOL    HW147607   9.458   8.308  10.859 -0.1212  2.8920  1.3920
14415SOL    HW247608   9.374   8.242  10.753  1.0889 -1.8060  3.1134
14416SOL     OW47609   6.712   4.983  10.958 -0.1700 -0.2094 -0.2478
14416SOL    HW147610   6.790   4.992  11.012 -0.3639 -1.7744  0.3710
14416SOL    HW247611   6.684   4.892  10.972 -1.2835 -0.1047 -1.5649
14417SOL     OW47612   2.196   8.333   9.841 -0.3114  0.2157 -0.0979
14417SOL    HW147613   2.160   8.300   9.758  0.8413 -2.3762  0.3555
14417SOL    HW247614   2.267   8.392   9.814 -2.4971  2.6910 -0.9283
14418SOL     OW47615   5.750   3.222   1.657 -0.8730  0.0878  0.0339
14418SOL    HW147616   5.800   3.143   1.678 -1.5501  0.2303  2.4174
14418SOL    HW247617   5.817   3.290   1.650 -0.4654 -0.2987  0.0575
14419SOL     OW47618   1.557   2.345   4.859  0.0204  0.1116 -0.0410
14419SOL    HW147619   1.513   2.411   4.806 -1.7405 -0.6241  0.4603
14419SOL    HW247620   1.580   2.275   4.798 -0.6428 -0.0636 -0.0876
14420SOL     OW47621   8.148   4.756   5.217  0.3608  0.1240 -0.3176
14420SOL    HW147622   8.111   4.841   5.239 -0.3578 -0.3680  0.4703
14420SOL    HW247623   8.242   4.770   5.212  0.1971  1.0931 -0.8550
14421SOL     OW47624   1.802   1.341   5.338 -0.3154  0.1579  0.0011
14421SOL    HW147625   1.821   1.383   5.253 -0.1289  2.0098  0.8991
14421SOL    HW247626   1.707   1.333   5.339 -0.3158  0.0581 -0.4209
14422SOL     OW47627   0.470   7.976   4.575  0.1795 -0.0731 -0.0577
14422SOL    HW147628   0.445   7.914   4.643  0.7979 -1.2317 -0.8386
14422SOL    HW247629   0.387   8.000   4.533 -0.0300 -0.7880 -0.0765
14423SOL     OW47630   6.845  11.029   6.058 -0.1353  0.0600  0.3703
14423SOL    HW147631   6.850  11.121   6.032 -0.7358  0.1189  0.4318
14423SOL    HW247632   6.751  11.013   6.068  0.0423 -0.0184  2.2618
14424SOL     OW47633   4.616   8.555   1.551  0.2883  0.0385  0.0538
14424SOL    HW147634   4.625   8.638   1.505 -0.3304 -1.3148 -2.6978
14424SOL    HW247635   4.693   8.504   1.525 -0.4951 -1.0636 -0.1922
14425SOL     OW47636   4.353   5.046  10.450 -0.6502  0.1018 -0.0421
14425SOL    HW147637   4.297   4.974  10.479 -0.6068  0.3696  0.7518
14425SOL    HW247638   4.441   5.008  10.446 -0.3392  0.4789  1.9989
14426SOL     OW47639   3.912   0.806   1.699  0.6399  0.0454  0.5113
14426SOL    HW147640   3.926   0.844   1.785 -2.3210 -0.6183  1.3981
14426SOL    HW247641   3.904   0.712   1.715  1.3197 -0.2386 -0.6796
14427SOL     OW47642   5.239   2.035   1.707  0.2373 -0.2359  0.1888
14427SOL    HW147643   5.204   2.083   1.632 -0.1671 -0.3921  0.2767
14427SOL    HW247644   5.262   1.949   1.672  0.3707 -0.1936  0.1707
14428SOL     OW47645   6.024   4.590   9.812 -0.3611 -0.2212  0.5264
14428SOL    HW147646   6.008   4.681   9.836  2.3304  0.0937  1.3913
14428SOL    HW247647   6.072   4.594   9.730  0.3504 -0.8034  0.8975
14429SOL     OW47648   1.916   7.199   6.845  0.2131  0.2781 -0.6610
14429SOL    HW147649   1.955   7.137   6.906 -1.4877  2.1132  2.5434
14429SOL    HW247650   1.934   7.285   6.882 -3.4799  1.3663 -0.9227
14430SOL     OW47651   4.945   2.521   3.186  0.1651  0.0191 -0.1154
14430SOL    HW147652   5.015   2.584   3.171  1.5619 -1.1272  1.1780
14430SOL    HW247653   4.900   2.515   3.102  2.4688 -0.1829 -1.4430
14431SOL     OW47654   4.007   4.496  10.297 -0.4403  0.3661 -0.2028
14431SOL    HW147655   3.966   4.494  10.384  2.4451  2.2059  1.3673
14431SOL    HW247656   3.960   4.565  10.250 -0.0297  1.6173  1.1283
14432SOL     OW47657   1.813   6.205   5.239  0.3212 -0.3193  0.1487
14432SOL    HW147658   1.890   6.148   5.245  1.1731  0.8586  0.8210
14432SOL    HW247659   1.849   6.294   5.243 -1.1333  0.2526  1.2883
14433SOL     OW47660   4.811   1.212   3.005  0.3106 -0.2634 -0.3895
14433SOL    HW147661   4.803   1.257   2.921  3.3533  0.6486 -0.2985
14433SOL    HW247662   4.847   1.126   2.983  1.4624  0.1112 -0.0289
14434SOL     OW47663   7.477   5.348   9.130 -0.1122 -0.2211 -0.4556
14434SOL    HW147664   7.513   5.282   9.190  0.9135 -0.4045 -1.2460
14434SOL    HW247665   7.442   5.416   9.188  2.5339  0.5249  0.4230
14435SOL     OW47666   0.475   0.705   7.825  0.0184  0.6188 -0.2720
14435SOL    HW147667   0.432   0.768   7.767 -0.4491  1.0863  0.5682
14435SOL    HW247668   0.488   0.752   7.907 -0.3847 -0.3927  0.3863
14436SOL     OW47669   1.333   4.008   2.408  0.3850 -0.0440  0.9205
14436SOL    HW147670   1.252   3.956   2.403  1.9501 -2.5480 -1.7056
14436SOL    HW247671   1.396   3.949   2.450  1.5910  0.7028  0.1982
14437SOL     OW47672   9.922   3.337   9.689  0.0827 -0.2904 -0.1992
14437SOL    HW147673   9.937   3.338   9.784 -1.0703  1.6587  0.0118
14437SOL    HW247674   9.827   3.329   9.680 -0.0741  1.8938 -1.0799
14438SOL     OW47675  11.100   5.085   5.324  0.1993 -0.6460  0.4034
14438SOL    HW147676  11.049   5.141   5.266  0.1457 -0.8885  0.2138
14438SOL    HW247677  11.176   5.060   5.273  1.7630  1.6122  1.4614
14439SOL     OW47678   4.081   0.446   7.571  0.5855 -0.7325  0.2900
14439SOL    HW147679   4.085   0.490   7.486  1.4842 -1.9230 -0.3297
14439SOL    HW247680   4.126   0.505   7.631  3.3313 -1.4669 -0.8732
14440SOL     OW47681   2.417   1.249   6.750  0.3994  0.2178 -0.1689
14440SOL    HW147682   2.470   1.260   6.829 -2.2512 -0.0241  1.7737
14440SOL    HW247683   2.349   1.187   6.775 -1.1398  0.9062 -2.3592
14441SOL     OW47684   4.610   7.918   2.847  0.3722  0.1187  0.0049
14441SOL    HW147685   4.536   7.907   2.787  0.0483 -0.9003  0.5835
14441SOL    HW247686   4.670   7.848   2.824  1.1308  0.8794 -0.3899
14442SOL     OW47687   4.901   6.463   7.348 -0.3052 -0.1085 -0.7884
14442SOL    HW147688   4.878   6.454   7.255  0.0620 -0.7090 -0.8273
14442SOL    HW247689   4.927   6.374   7.375  0.5847  0.2677 -0.3744
14443SOL     OW47690   9.889   6.986   2.602  0.0282  0.4253 -0.1337
14443SOL    HW147691   9.863   6.939   2.681  0.0480  0.9346  0.1860
14443SOL    HW247692   9.816   6.974   2.542  0.1626 -0.2524 -0.1656
14444SOL     OW47693   2.381   6.536   8.810  0.4769  0.7183 -0.6915
14444SOL    HW147694   2.322   6.612   8.807 -1.4210 -0.5976  0.5342
14444SOL    HW247695   2.347   6.482   8.882  2.7325 -0.5394 -0.4618
14445SOL     OW47696   6.150   7.787   2.293 -0.0797  0.0163  0.5746
14445SOL    HW147697   6.224   7.748   2.340 -0.2071  0.0036  0.7674
14445SOL    HW247698   6.180   7.874   2.267  0.0491 -0.0393  0.5395
14446SOL     OW47699   0.386   1.421  10.453 -0.3863 -0.0515  0.2447
14446SOL    HW147700   0.375   1.406  10.359 -0.4441  0.6090  0.1444
14446SOL    HW247701   0.469   1.378  10.475  0.4696  1.2069 -0.4410
14447SOL     OW47702   4.833   2.553   9.361 -0.0957 -0.1111  0.3937
14447SOL    HW147703   4.811   2.626   9.420 -0.7070  0.1687 -0.1605
14447SOL    HW247704   4.913   2.582   9.316 -0.1300  0.0630  0.4424
14448SOL     OW47705   6.978   1.941   1.735  0.6017  0.3741 -0.7646
14448SOL    HW147706   6.915   1.995   1.687 -0.8767  0.0825  0.7575
14448SOL    HW247707   6.959   1.851   1.708  0.5708  0.3101 -0.5310
14449SOL     OW47708   6.746   9.934   0.500  0.0886  0.3670 -0.3292
14449SOL    HW147709   6.834   9.941   0.463  0.0151 -0.8957 -0.7984
14449SOL    HW247710   6.687   9.952   0.426 -0.0496 -1.2822 -0.6607
14450SOL     OW47711   5.793   8.987   9.005  1.1702  0.2386  0.8764
14450SOL    HW147712   5.776   8.902   8.964 -1.1763  0.8135  0.5167
14450SOL    HW247713   5.821   9.043   8.932  0.4920  0.3545  0.7053
14451SOL     OW47714   9.142   3.698   6.559 -0.1754  0.0243  0.0384
14451SOL    HW147715   9.128   3.766   6.493 -0.3402  0.8741  0.9131
14451SOL    HW247716   9.208   3.736   6.618 -0.5946 -0.3841  0.7913
14452SOL     OW47717   9.499   6.949   1.900 -0.1275 -0.0031 -0.8859
14452SOL    HW147718   9.537   6.865   1.925 -1.3812  0.0317  1.3385
14452SOL    HW247719   9.560   7.014   1.933 -0.0970 -0.0005 -0.9456
14453SOL     OW47720   2.517   3.703   4.633  0.6948 -0.0580 -0.8006
14453SOL    HW147721   2.582   3.758   4.678 -0.7564  1.3568 -0.3452
14453SOL    HW247722   2.433   3.744   4.653 -0.2816 -1.2978 -2.1525
14454SOL     OW47723  10.632   6.728   9.299  0.7364 -0.1175  0.2990
14454SOL    HW147724  10.597   6.702   9.384  0.3918  0.2391  0.2677
14454SOL    HW247725  10.723   6.700   9.301  0.9401  0.5606  1.0773
14455SOL     OW47726   8.152   7.612   9.346  0.2456 -0.3086 -0.1992
14455SOL    HW147727   8.079   7.557   9.317  1.6827 -2.2023 -0.4032
14455SOL    HW247728   8.227   7.552   9.349  1.3171  1.0115  2.2710
14456SOL     OW47729   0.263   4.865   3.346  0.2769  0.2562  0.0326
14456SOL    HW147730   0.169   4.853   3.333 -0.0525  2.6124 -0.2326
14456SOL    HW247731   0.304   4.810   3.279 -1.0173  1.2804 -1.6827
14457SOL     OW47732   1.959   3.360   2.526 -0.6958  0.8027  0.1606
14457SOL    HW147733   1.980   3.339   2.435 -1.6590  1.3674 -0.2013
14457SOL    HW247734   2.004   3.292   2.577 -0.6467  0.1232 -0.7580
14458SOL     OW47735   1.304   8.534  10.806  0.3766 -0.1150  0.2120
14458SOL    HW147736   1.268   8.464  10.860 -1.8015  0.4980 -0.3244
14458SOL    HW247737   1.346   8.490  10.732 -0.6468 -0.8809  0.0708
14459SOL     OW47738   6.072   3.566   0.290  0.2241  0.5467 -0.4457
14459SOL    HW147739   5.998   3.591   0.235  0.4736  4.0854  0.5881
14459SOL    HW247740   6.147   3.612   0.253  1.3174 -0.5939  0.2679
14460SOL     OW47741   1.233  11.114   5.195  0.2111 -0.1096 -0.2253
14460SOL    HW147742   1.276  11.196   5.170  0.3511 -0.2338 -0.3947
14460SOL    HW247743   1.230  11.063   5.114  1.7261 -0.9949  0.2467
14461SOL     OW47744   1.036   1.443   7.260 -0.1606  0.0985  0.2308
14461SOL    HW147745   1.092   1.491   7.199 -2.0225 -0.7926 -2.3383
14461SOL    HW247746   1.010   1.508   7.326  0.8422  1.4576 -0.6767
14462SOL     OW47747   6.114   1.331   6.785 -0.3232  0.1439  0.1017
14462SOL    HW147748   6.187   1.271   6.769  0.1324  1.0559 -1.6246
14462SOL    HW247749   6.156   1.413   6.813 -0.7422  0.4171 -0.0540
14463SOL     OW47750   3.101   0.511   4.625 -0.4211 -0.6354  0.1286
14463SOL    HW147751   3.177   0.561   4.595 -0.7381 -0.8184 -0.9880
14463SOL    HW247752   3.070   0.465   4.548 -1.5627 -0.7140  0.6206
14464SOL     OW47753   9.311   9.193   0.827 -0.4100 -0.0023  0.1862
14464SOL    HW147754   9.295   9.175   0.919  1.2947  1.6182  0.8553
14464SOL    HW247755   9.230   9.231   0.795 -0.0805  2.2422  1.8360
14465SOL     OW47756   2.700  10.472   5.720 -0.0639 -0.2566  0.2863
14465SOL    HW147757   2.700  10.387   5.764  0.9000 -0.5222 -0.1969
14465SOL    HW247758   2.732  10.534   5.785 -1.1731 -0.1680  0.7762
14466SOL     OW47759   7.099   8.859  10.320  0.3083 -0.3442 -0.5675
14466SOL    HW147760   7.111   8.780  10.267  0.2858 -0.0811 -0.9714
14466SOL    HW247761   7.074   8.827  10.406 -0.9809 -0.7325 -1.0738
14467SOL     OW47762   1.781   5.355   9.973 -0.2723  0.1631  0.4423
14467SOL    HW147763   1.842   5.404   9.918  0.1113 -0.4750  0.2908
14467SOL    HW247764   1.834   5.320  10.044 -0.6440  0.4175  0.8540
14468SOL     OW47765   9.329   9.689   8.087  0.3138  0.5447 -0.1354
14468SOL    HW147766   9.342   9.745   8.010  1.4020 -0.1102 -0.4607
14468SOL    HW247767   9.296   9.748   8.154  0.5893  1.4028 -0.7278
14469SOL     OW47768   4.105   7.539  10.330 -0.1899 -0.4880 -0.3027
14469SOL    HW147769   4.096   7.454  10.287  0.9849 -0.3854 -0.8003
14469SOL    HW247770   4.199   7.548  10.346 -0.2765  0.7804 -0.3807
14470SOL     OW47771   7.133   8.723   1.275  0.3524 -0.0408  0.1008
14470SOL    HW147772   7.133   8.667   1.197  0.6338 -0.6836  0.5535
14470SOL    HW247773   7.199   8.683   1.333 -0.3856 -0.0113  0.9798
14471SOL     OW47774   4.044   4.323   1.333  0.1110  0.2611  0.0661
14471SOL    HW147775   4.112   4.376   1.375  0.3647  0.4608 -0.5853
14471SOL    HW247776   3.992   4.288   1.406 -0.3696  1.8006  0.4996
14472SOL     OW47777   8.078   3.809   4.449  0.4627  0.3873 -0.0054
14472SOL    HW147778   8.042   3.898   4.447  1.9494  1.0130 -2.1853
14472SOL    HW247779   8.149   3.813   4.513  0.4233  0.7148  0.0196
14473SOL     OW47780   4.940   0.894   7.450 -0.0068  0.5953 -0.1310
14473SOL    HW147781   4.996   0.818   7.465  1.6683  1.7893 -0.0277
14473SOL    HW247782   4.999   0.960   7.412 -1.2422  2.0655  0.4052
14474SOL     OW47783   4.830   6.702  10.138 -0.1409 -0.0380 -0.0596
14474SOL    HW147784   4.775   6.691  10.061 -0.8812  0.7034  0.3445
14474SOL    HW247785   4.849   6.796  10.140  2.6053 -0.4809 -1.1679
14475SOL     OW47786   0.176   6.527   9.390  0.0988 -0.5674  0.4505
14475SOL    HW147787   0.234   6.593   9.428 -1.9159  1.1158  0.7869
14475SOL    HW247788   0.186   6.537   9.296 -0.1285  0.1863  0.5031
14476SOL     OW47789   8.801   0.294   9.490  0.3830 -0.9659  0.6928
14476SOL    HW147790   8.707   0.307   9.506 -0.1019  0.2431 -2.3305
14476SOL    HW247791   8.844   0.359   9.545 -0.7031 -0.3074  0.8005
14477SOL     OW47792  10.864   2.989   1.436  0.0397 -0.1897 -0.5132
14477SOL    HW147793  10.774   3.007   1.461  0.2424  2.4015 -1.3406
14477SOL    HW247794  10.914   2.996   1.517 -0.3922 -0.6421 -0.2118
14478SOL     OW47795   9.424   0.879   2.142  0.9209 -0.0376 -0.3913
14478SOL    HW147796   9.369   0.910   2.213 -0.2704 -1.4113 -0.6543
14478SOL    HW247797   9.480   0.953   2.120  0.1982  0.9225  0.8934
14479SOL     OW47798   6.245   2.567   6.513  0.1237 -0.0446  0.0832
14479SOL    HW147799   6.167   2.549   6.566  0.0841  0.3502  0.1609
14479SOL    HW247800   6.310   2.504   6.543 -0.4012 -0.8851 -0.5055
14480SOL     OW47801  10.372   0.993   8.939 -0.3398  0.4781  0.4674
14480SOL    HW147802  10.435   0.921   8.929  2.2458  2.4645  1.1798
14480SOL    HW247803  10.287   0.950   8.942  0.8113 -2.3268 -1.7376
14481SOL     OW47804   5.537   9.440   8.102 -0.4176 -0.3917 -0.1884
14481SOL    HW147805   5.459   9.393   8.073 -0.9685  0.4073 -0.0489
14481SOL    HW247806   5.575   9.384   8.169  0.0977 -1.6018 -1.4357
14482SOL     OW47807   7.328   7.676   4.964 -0.2678 -0.4226 -0.4616
14482SOL    HW147808   7.266   7.742   4.996 -0.2036 -0.4896 -0.1976
14482SOL    HW247809   7.383   7.655   5.040 -2.2528 -3.0662  0.4077
14483SOL     OW47810   5.644   7.742   6.834 -0.3897 -0.1398 -0.2013
14483SOL    HW147811   5.718   7.688   6.863 -0.0648 -0.2070 -1.1229
14483SOL    HW247812   5.616   7.789   6.913  0.4674 -0.3150  0.2190
14484SOL     OW47813   7.033   4.303  10.204  0.2761 -0.0491 -0.3401
14484SOL    HW147814   7.050   4.283  10.111  1.8062  1.6292 -0.4553
14484SOL    HW247815   7.040   4.398  10.210 -1.6916  0.0682  1.1708
14485SOL     OW47816   0.137  11.042   4.517 -0.0632  0.1308  0.1090
14485SOL    HW147817   0.194  11.066   4.445  0.4811  0.6184  0.6967
14485SOL    HW247818   0.051  11.075   4.491  0.1721  0.4982 -0.2138
14486SOL     OW47819   8.325   7.388   4.558 -0.0780  0.2267  0.1738
14486SOL    HW147820   8.260   7.455   4.579  0.0183  0.7882 -1.2370
14486SOL    HW247821   8.342   7.344   4.642 -1.4116  0.8268  0.7876
14487SOL     OW47822   7.877   5.877   8.941 -0.3055  0.2314 -1.2419
14487SOL    HW147823   7.814   5.805   8.949 -0.4711  0.4766 -0.2388
14487SOL    HW247824   7.832   5.952   8.980  0.6562  0.3845 -0.4076
14488SOL     OW47825  10.441  10.453   1.601  0.3493  0.1468 -0.6504
14488SOL    HW147826  10.385  10.515   1.556  1.3612  2.4691  1.0571
14488SOL    HW247827  10.525  10.459   1.556  0.6692  0.6423 -0.0113
14489SOL     OW47828   7.164   8.987   8.529 -0.2250  0.5808 -0.0290
14489SOL    HW147829   7.228   8.920   8.506  0.6955  2.3193 -3.0691
14489SOL    HW247830   7.216   9.062   8.558 -1.2183  0.3032  2.8568
14490SOL     OW47831   2.055  10.185   7.121  0.0988  0.3155 -0.2655
14490SOL    HW147832   2.061  10.176   7.026 -1.1560  2.3059 -0.5885
14490SOL    HW247833   1.971  10.145   7.143  0.9113 -1.1989  0.2040
14491SOL     OW47834   9.286   5.955   8.837 -0.3749  0.1071 -0.1263
14491SOL    HW147835   9.335   5.954   8.920 -1.5548  0.9024  0.6057
14491SOL    HW247836   9.292   6.046   8.807 -1.1805  0.1503 -0.1643
14492SOL     OW47837   3.994   8.489  10.460 -0.4743 -0.2279  0.5898
14492SOL    HW147838   3.912   8.441  10.450 -0.4808  0.0244 -0.7718
14492SOL    HW247839   4.062   8.429  10.428 -0.2985  0.0637  0.4049
14493SOL     OW47840   3.271   1.697   9.171 -0.0060  0.1697  0.3835
14493SOL    HW147841   3.342   1.633   9.163 -0.0274  0.1376  0.4482
14493SOL    HW247842   3.191   1.643   9.172 -0.0708  0.2366 -0.2833
14494SOL     OW47843   1.847   0.756   6.653 -0.0059  0.2220 -0.2937
14494SOL    HW147844   1.870   0.824   6.590  0.2999  2.0637  1.6744
14494SOL    HW247845   1.790   0.696   6.604 -0.3760  1.9413 -2.1055
14495SOL     OW47846   6.353   9.681   3.281 -0.2336 -0.1835  0.3310
14495SOL    HW147847   6.401   9.641   3.353  0.9397 -0.1976 -0.4347
14495SOL    HW247848   6.344   9.773   3.306  1.4038  0.1178 -0.1131
14496SOL     OW47849  10.137  11.081   8.225  0.1804 -0.1436  0.1485
14496SOL    HW147850  10.154  11.101   8.133  1.4598 -0.9183  0.1936
14496SOL    HW247851  10.043  11.063   8.229  0.1971 -0.5613 -1.0936
14497SOL     OW47852   1.320   6.162   6.079  0.4047  0.1532  0.0294
14497SOL    HW147853   1.269   6.114   6.143  0.5026  0.7942  0.6032
14497SOL    HW247854   1.353   6.096   6.018  0.0730 -0.4234  0.4769
14498SOL     OW47855   8.769   9.506   6.861 -0.1588  0.2974  0.0144
14498SOL    HW147856   8.830   9.577   6.840  2.9014 -2.1686 -0.0545
14498SOL    HW247857   8.765   9.505   6.956 -2.5038  2.2430  0.0307
14499SOL     OW47858   9.342   8.985   7.920 -0.4087  0.3912  0.4216
14499SOL    HW147859   9.403   8.929   7.969  0.6072 -0.3372 -1.5970
14499SOL    HW247860   9.362   9.074   7.950  1.3729  0.1240  0.1431
14500SOL     OW47861   0.528   9.384   6.835  0.2465 -0.1092 -0.1005
14500SOL    HW147862   0.454   9.443   6.819  1.0464  0.7326 -0.7568
14500SOL    HW247863   0.587   9.399   6.762  2.0620  0.7794  1.4590
14501SOL     OW47864   1.223   4.571  10.974 -0.2273 -0.3974  0.0209
14501SOL    HW147865   1.299   4.620  10.943  1.8734 -1.8928  2.3591
14501SOL    HW247866   1.181   4.629  11.038 -0.9569  0.3403 -1.1033
14502SOL     OW47867   9.211   2.235   6.776 -0.5432 -0.6660 -0.1613
14502SOL    HW147868   9.284   2.296   6.763  0.7727 -2.0268  0.5512
14502SOL    HW247869   9.133   2.288   6.758  0.6234  0.6024 -1.8454
14503SOL     OW47870   2.298   6.446   6.903  0.2248  0.1970  0.0281
14503SOL    HW147871   2.218   6.431   6.853 -0.1655  0.2438  0.6220
14503SOL    HW247872   2.276   6.418   6.992  0.6334  0.8888  0.3579
14504SOL     OW47873   2.042   3.782   4.456  0.0233  0.5209 -0.5498
14504SOL    HW147874   2.014   3.785   4.364 -1.0741  2.8498 -0.2256
14504SOL    HW247875   1.987   3.713   4.495 -0.0626  0.0528 -1.4636
14505SOL     OW47876   0.633   5.804   8.126  0.0936 -0.0944 -0.2034
14505SOL    HW147877   0.595   5.873   8.180 -1.0103 -1.6007  1.0252
14505SOL    HW247878   0.727   5.811   8.139  0.0827  1.7271 -0.8370
14506SOL     OW47879   1.100   2.596   2.034  0.0069 -0.0790  0.0375
14506SOL    HW147880   1.079   2.664   2.097  0.6231  0.0359  0.1215
14506SOL    HW247881   1.021   2.587   1.981 -0.9884 -1.0372  1.5826
14507SOL     OW47882   4.717   1.789   5.478 -0.0866 -0.4685  0.0064
14507SOL    HW147883   4.747   1.703   5.450 -1.6292 -1.1327  0.2927
14507SOL    HW247884   4.786   1.822   5.536  1.2743 -0.7884 -1.3610
14508SOL     OW47885  10.129   1.096   6.561  0.1619  0.7185  0.0549
14508SOL    HW147886  10.221   1.090   6.585  0.1282  0.0485  0.0377
14508SOL    HW247887  10.082   1.098   6.644 -0.0770 -3.3761  0.2613
14509SOL     OW47888   3.104   1.303   4.735 -0.5764  0.7159 -0.0840
14509SOL    HW147889   3.060   1.386   4.755 -2.2955  0.1744 -1.4184
14509SOL    HW247890   3.055   1.238   4.786  0.3601  0.4154  0.4490
14510SOL     OW47891   7.519   9.713  10.281 -0.2472  0.0966 -0.4554
14510SOL    HW147892   7.433   9.680  10.256 -0.2580  0.0516 -0.3608
14510SOL    HW247893   7.541   9.777  10.213 -0.6301  0.5645 -0.1503
14511SOL     OW47894   2.226   8.930   7.177 -0.0265 -0.1206 -0.1274
14511SOL    HW147895   2.203   8.999   7.115 -3.6330 -0.6111  0.4641
14511SOL    HW247896   2.261   8.977   7.253  0.7445  0.7488 -0.9873
14512SOL     OW47897  10.168   7.489   8.674  0.3926 -0.6598  0.3287
14512SOL    HW147898  10.260   7.464   8.663  0.5630  0.2542 -0.3761
14512SOL    HW247899  10.166   7.542   8.753  0.5767 -0.1912  0.0225
14513SOL     OW47900   1.665  11.012   0.031 -0.5577  0.3143  0.3225
14513SOL    HW147901   1.745  11.031   0.080 -0.8244 -0.7052  1.1919
14513SOL    HW247902   1.684  10.930  -0.015 -1.1135  0.0282  0.5935
14514SOL     OW47903   4.652   4.174   5.157  0.1937  0.3637  0.0953
14514SOL    HW147904   4.732   4.167   5.210  0.0881 -1.2275  0.1084
14514SOL    HW247905   4.675   4.134   5.073 -0.9285 -1.4141  0.5631
14515SOL     OW47906   0.772   4.339   7.479 -0.1213 -0.4058  0.0759
14515SOL    HW147907   0.760   4.401   7.407  3.4613  1.6117  0.9607
14515SOL    HW247908   0.836   4.276   7.446 -0.7105 -1.2799  0.5557
14516SOL     OW47909   8.555   7.609   1.515 -0.1426 -0.2622 -0.1711
14516SOL    HW147910   8.618   7.537   1.523  1.0648  0.6919 -0.8866
14516SOL    HW247911   8.533   7.612   1.422  0.4628  0.8081 -0.2959
14517SOL     OW47912   5.694   8.885   3.578  0.8443  0.1489 -0.1327
14517SOL    HW147913   5.657   8.902   3.491  1.7128  0.0295 -0.5373
14517SOL    HW247914   5.625   8.910   3.639  0.8966  2.0856 -0.7901
14518SOL     OW47915   1.142   8.590   8.445  0.5959 -0.2696 -0.7619
14518SOL    HW147916   1.183   8.508   8.472  0.4530  0.0301  0.4271
14518SOL    HW247917   1.186   8.613   8.363  2.3351 -0.3060  0.1058
14519SOL     OW47918   8.599   8.035   8.609 -0.2824 -0.2647  0.1686
14519SOL    HW147919   8.560   8.120   8.632 -0.1909 -0.5082  1.2675
14519SOL    HW247920   8.529   7.972   8.620  0.3909 -0.7150  2.2223
14520SOL     OW47921   2.216   2.390   0.489 -0.0639  0.2988 -0.2071
14520SOL    HW147922   2.307   2.362   0.505 -0.7100 -0.9698  1.5985
14520SOL    HW247923   2.208   2.474   0.533  0.2640  0.4801 -0.4886
14521SOL     OW47924   6.697   6.959   9.488 -0.0507 -0.2395 -0.4464
14521SOL    HW147925   6.693   6.990   9.398  0.4112 -1.6854 -0.9908
14521SOL    HW247926   6.748   6.878   9.484 -0.6790 -0.7509  0.9915
14522SOL     OW47927   2.870   3.479   5.027 -0.2515  0.2364  0.2333
14522SOL    HW147928   2.872   3.568   4.992 -1.9077  0.1591 -0.1772
14522SOL    HW247929   2.959   3.462   5.057  0.0560  2.1026  0.4994
14523SOL     OW47930   1.928   0.300  10.390 -0.0226 -0.2834  0.0738
14523SOL    HW147931   1.897   0.233  10.328  1.0631 -0.6556 -0.0886
14523SOL    HW247932   1.849   0.329  10.435 -0.7448 -0.4990 -1.0090
14524SOL     OW47933   8.758   4.223   2.439 -0.5641 -0.6666  0.4097
14524SOL    HW147934   8.787   4.155   2.378 -0.6168  1.2880 -1.9773
14524SOL    HW247935   8.795   4.304   2.403 -3.3725  1.0393  1.0450
14525SOL     OW47936  10.307   8.172   3.821 -0.2048 -0.3319 -0.1925
14525SOL    HW147937  10.247   8.231   3.774  0.3034  0.5051  0.1835
14525SOL    HW247938  10.327   8.103   3.757 -0.4480  0.1514 -0.8072
14526SOL     OW47939   6.464   2.003   3.635  0.3837  0.0799  0.5909
14526SOL    HW147940   6.547   2.000   3.683  1.0881 -1.0027 -0.6413
14526SOL    HW247941   6.397   1.991   3.702  1.3657 -2.1634  1.2543
14527SOL     OW47942   9.868   0.273   7.427 -0.0293 -0.0775  0.1692
14527SOL    HW147943   9.958   0.263   7.395  0.0853 -0.1999  0.5279
14527SOL    HW247944   9.841   0.184   7.450 -0.7187 -0.2460 -1.2011
14528SOL     OW47945   6.586   9.667  10.655 -0.2055  0.3357  0.5467
14528SOL    HW147946   6.658   9.631  10.604 -2.1792 -0.0906 -2.1950
14528SOL    HW247947   6.627   9.732  10.712  2.3927 -0.3514 -0.3983
14529SOL     OW47948   9.212   5.385   2.843 -0.2479  0.1729 -0.2672
14529SOL    HW147949   9.263   5.437   2.905  0.6131 -0.6539 -0.2510
14529SOL    HW247950   9.171   5.318   2.897  0.8270 -0.7958 -0.6118
14530SOL     OW47951   6.612   8.933   3.520  0.2133  0.0247  0.2149
14530SOL    HW147952   6.655   8.856   3.482 -3.2751 -0.3795 -3.7422
14530SOL    HW247953   6.660   9.008   3.483  0.0786 -0.3823 -0.8363
14531SOL     OW47954   4.385   9.420  11.000 -0.0293 -0.5451  0.3991
14531SOL    HW147955   4.389   9.442  11.093 -2.4135  0.1452  0.4043
14531SOL    HW247956   4.307   9.366  10.991 -1.1492  1.2116 -1.4730
14532SOL     OW47957   6.280   2.507   4.892  0.0508  0.5488  0.3725
14532SOL    HW147958   6.366   2.467   4.885 -0.6956 -0.8579 -1.6247
14532SOL    HW247959   6.237   2.460   4.963  0.2976 -0.0437  0.1357
14533SOL     OW47960   7.803  10.050   6.323  0.1477 -0.2394  0.0347
14533SOL    HW147961   7.764  10.136   6.311 -1.9062 -0.6921  2.5954
14533SOL    HW247962   7.864  10.041   6.250 -2.0116  1.9869 -2.2446
14534SOL     OW47963   9.964   6.607   0.140 -0.2849 -0.1483  0.4537
14534SOL    HW147964  10.005   6.692   0.129  2.7517 -1.6807 -1.5756
14534SOL    HW247965   9.901   6.602   0.068  2.1851 -0.8613 -1.8403
14535SOL     OW47966   8.990   6.466   1.141 -0.4716  0.2865 -0.5942
14535SOL    HW147967   8.968   6.465   1.048  0.9339 -0.3417 -0.9420
14535SOL    HW247968   8.999   6.374   1.165  0.8970  0.4730 -0.2836
14536SOL     OW47969   2.369   7.121   3.553  0.2475 -0.1559 -0.3266
14536SOL    HW147970   2.346   7.079   3.636 -0.9913  0.1757 -0.4879
14536SOL    HW247971   2.447   7.073   3.523  0.7691 -0.2261  1.0495
14537SOL     OW47972   2.615   1.302   6.282  0.6267 -0.0128  0.2779
14537SOL    HW147973   2.592   1.313   6.374 -0.4232 -0.7994  0.1371
14537SOL    HW247974   2.637   1.209   6.274  0.7194  0.0507 -0.2547
14538SOL     OW47975  10.359   5.553   3.065 -0.1550 -0.6121  0.3326
14538SOL    HW147976  10.442   5.511   3.090  0.0077 -0.3943  0.1561
14538SOL    HW247977  10.384   5.619   3.001 -0.4728 -0.5752  0.2480
14539SOL     OW47978  10.128   7.719   6.741 -0.1345 -0.5691 -0.6429
14539SOL    HW147979  10.188   7.787   6.774  0.9718 -0.8350 -2.0133
14539SOL    HW247980  10.151   7.641   6.790 -0.6675 -0.2211  0.1744
14540SOL     OW47981   8.517   5.906   9.254  0.0790 -0.1802  0.2575
14540SOL    HW147982   8.534   5.896   9.161  1.6040 -1.2628  0.6182
14540SOL    HW247983   8.488   5.997   9.263 -0.3865 -0.1468 -1.2929
14541SOL     OW47984   7.532   1.458   1.392 -0.2938 -0.0331  0.3332
14541SOL    HW147985   7.486   1.418   1.466 -0.6276 -0.1619  0.0579
14541SOL    HW247986   7.517   1.552   1.403 -0.2557 -0.0430  0.4833
14542SOL     OW47987   0.020   4.144   1.738  0.6613 -0.7014 -0.1179
14542SOL    HW147988   0.106   4.184   1.750  1.2205 -1.5926 -1.0290
14542SOL    HW247989  -0.038   4.196   1.794  1.9127 -0.5594  1.0966
14543SOL     OW47990   9.981   5.286   6.510 -0.2380  0.4253  0.0437
14543SOL    HW147991  10.059   5.338   6.494 -0.0127 -0.1619 -0.8905
14543SOL    HW247992   9.932   5.335   6.576 -1.9365  3.8852 -3.3935
14544SOL     OW47993   8.076   6.889   5.783  0.3702  0.7116  0.3570
14544SOL    HW147994   8.079   6.801   5.820 -0.5310  1.2367  1.7452
14544SOL    HW247995   8.122   6.881   5.699  0.9013 -0.9115  0.7686
14545SOL     OW47996   2.466  10.267  10.741 -0.2676  0.5720  0.3173
14545SOL    HW147997   2.517  10.283  10.821  0.4083  1.0997 -0.2088
14545SOL    HW247998   2.500  10.185  10.707  0.1715  0.8786  0.0143
14546SOL     OW47999   1.176  10.296   9.283  0.1350  0.6944 -0.1948
14546SOL    HW148000   1.214  10.228   9.228  1.6337  1.3112  0.0257
14546SOL    HW248001   1.197  10.378   9.237  2.6713  1.3438  1.8699
14547SOL     OW48002   5.748   7.496   0.284 -0.1000  0.1611  0.3785
14547SOL    HW148003   5.657   7.466   0.291 -0.7181  1.9447  0.4475
14547SOL    HW248004   5.749   7.580   0.330  1.2749  0.8276 -0.8010
14548SOL     OW48005   2.973   3.319   8.932 -0.0691 -0.2395 -0.0128
14548SOL    HW148006   2.919   3.365   8.867 -1.4832 -2.8715 -0.8385
14548SOL    HW248007   2.949   3.359   9.015 -0.7328  0.9606 -0.7516
14549SOL     OW48008   1.119   5.962   3.638 -0.1586 -0.1509 -0.2869
14549SOL    HW148009   1.151   5.983   3.726 -1.8296  1.4574 -0.0093
14549SOL    HW248010   1.189   5.990   3.580  0.0217  0.9304  0.4290
14550SOL     OW48011   1.894   7.519   8.879  0.1714  0.0692 -0.0084
14550SOL    HW148012   1.900   7.615   8.879  2.0455 -0.0110 -1.1369
14550SOL    HW248013   1.945   7.492   8.955 -0.1765 -0.0697  0.1809
14551SOL     OW48014  10.158   2.173   3.457 -0.1171  0.4692 -0.2396
14551SOL    HW148015  10.142   2.234   3.385 -0.6209 -0.5835 -1.0544
14551SOL    HW248016  10.098   2.100   3.441  1.8402 -1.2090 -0.4816
14552SOL     OW48017   4.969   3.324   8.404  0.0519 -0.1950 -0.2275
14552SOL    HW148018   4.880   3.319   8.438 -0.2944 -0.9643 -1.1905
14552SOL    HW248019   5.002   3.234   8.408  0.8176  0.1005  0.2079
14553SOL     OW48020   2.283   2.715   2.970  0.0760 -0.6297  0.3924
14553SOL    HW148021   2.370   2.734   2.933  0.5676 -3.4813 -0.1292
14553SOL    HW248022   2.260   2.795   3.017  2.9193  0.3050  0.4305
14554SOL     OW48023  11.050   2.510   4.664 -0.7015 -0.0220  0.2565
14554SOL    HW148024  11.015   2.589   4.705  0.1210 -0.0358  1.0104
14554SOL    HW248025  11.097   2.542   4.586  1.1550  0.4668  1.5070
14555SOL     OW48026   8.738   4.532   8.181  0.0319 -0.1195  0.2456
14555SOL    HW148027   8.741   4.513   8.087 -1.2300  0.8218 -0.0113
14555SOL    HW248028   8.786   4.615   8.190 -1.1453  0.5953  0.1751
14556SOL     OW48029   5.401   0.594   7.002 -0.7357  0.5895  0.2019
14556SOL    HW148030   5.400   0.572   6.909  0.1201 -1.0066  0.5288
14556SOL    HW248031   5.491   0.618   7.020 -0.6700 -0.0433  0.7917
14557SOL     OW48032   2.853   2.351   3.996  0.2128  0.2892  0.1816
14557SOL    HW148033   2.818   2.427   4.041 -1.7657  2.0942 -3.9185
14557SOL    HW248034   2.793   2.280   4.018 -0.5964  1.0654  0.5112
14558SOL     OW48035   8.975   6.668   8.943 -0.0391  0.2467 -0.5756
14558SOL    HW148036   9.007   6.589   8.986  0.5197 -0.1529 -1.6854
14558SOL    HW248037   8.880   6.659   8.944 -0.0357  0.2772  0.6069
14559SOL     OW48038  10.380   9.276   3.075  0.2998  0.2086  0.1192
14559SOL    HW148039  10.404   9.358   3.118  0.0899  0.4996 -0.3073
14559SOL    HW248040  10.300   9.248   3.121 -0.5599  1.0908 -0.7757
14560SOL     OW48041   4.447   6.376   4.391 -0.0550  0.1320  0.0098
14560SOL    HW148042   4.526   6.410   4.433 -0.1106  0.0164  0.2084
14560SOL    HW248043   4.480   6.309   4.331  0.0925  0.8036 -0.6774
14561SOL     OW48044   5.666   5.071   5.406  0.6768 -0.7041  0.6905
14561SOL    HW148045   5.584   5.060   5.358  0.2756 -1.3226  1.4926
14561SOL    HW248046   5.642   5.119   5.485  1.3747  0.5035  0.1948
14562SOL     OW48047   3.208   1.466   2.574 -0.2791  0.1916 -0.1747
14562SOL    HW148048   3.154   1.387   2.573 -0.3882  0.2341 -2.7038
14562SOL    HW248049   3.157   1.530   2.625 -1.5145 -0.4927 -0.5190
14563SOL     OW48050   9.954   9.302   4.592  0.2524  0.2950 -0.1813
14563SOL    HW148051   9.976   9.346   4.674  0.4452  0.5152 -0.3502
14563SOL    HW248052   9.871   9.258   4.610  0.9020 -0.6948  0.5195
14564SOL     OW48053   1.138   4.271   4.525  0.7452 -0.1588 -0.4527
14564SOL    HW148054   1.112   4.201   4.586  1.5988 -0.3869 -0.3342
14564SOL    HW248055   1.063   4.331   4.524  0.9905  0.2349  1.3830
14565SOL     OW48056   5.911   1.008   8.319 -0.2040  0.1048 -0.4295
14565SOL    HW148057   5.860   1.073   8.270 -1.1849 -0.8784 -0.7717
14565SOL    HW248058   5.935   0.942   8.253  1.6325  0.5940 -0.2931
14566SOL     OW48059   7.902   2.405   3.031  0.1141  0.3988 -0.0045
14566SOL    HW148060   7.892   2.328   3.087  1.6421  1.3383  1.6915
14566SOL    HW248061   7.904   2.479   3.092  0.9646  1.5598 -1.3640
14567SOL     OW48062   5.669   0.458   5.069  0.1746  0.4451  0.4668
14567SOL    HW148063   5.690   0.408   4.990 -0.1219  0.8393  0.1350
14567SOL    HW248064   5.750   0.504   5.091 -0.8986  4.3452 -2.5125
14568SOL     OW48065   0.894   3.048   8.947 -0.2968 -0.5409  0.5979
14568SOL    HW148066   0.837   3.012   8.878 -0.9515  0.2977  0.6931
14568SOL    HW248067   0.835   3.069   9.018  0.1233  0.4300  0.6675
14569SOL     OW48068   3.290   6.087   1.012  0.3634  0.3558  0.2564
14569SOL    HW148069   3.291   6.151   0.941 -2.4783  0.5627  0.2537
14569SOL    HW248070   3.199   6.088   1.042  0.7269 -2.1561  1.6769
14570SOL     OW48071   5.248   2.880   6.364 -0.2894 -0.3104  0.2529
14570SOL    HW148072   5.300   2.954   6.333 -2.0530  2.2714  2.8674
14570SOL    HW248073   5.185   2.864   6.294  0.3603  0.4258 -0.5188
14571SOL     OW48074   7.690   5.027   7.611  0.2318  0.0336  0.1913
14571SOL    HW148075   7.745   4.988   7.543 -0.4487 -1.9729  0.7227
14571SOL    HW248076   7.723   5.116   7.621  1.7869 -0.3503 -1.1920
14572SOL     OW48077   6.406   0.400   6.062  0.3109 -0.0160  0.0509
14572SOL    HW148078   6.399   0.355   5.978 -1.0095 -2.2565  1.2481
14572SOL    HW248079   6.324   0.449   6.070 -0.5165 -1.4681  0.8625
14573SOL     OW48080   4.571   1.700   9.873 -0.3772  0.6016  0.1979
14573SOL    HW148081   4.580   1.793   9.853  0.8654  0.5182  0.3245
14573SOL    HW248082   4.511   1.666   9.806  0.4585  1.1645 -0.8551
14574SOL     OW48083   8.724   6.330   2.580 -0.6227  0.4111 -0.0950
14574SOL    HW148084   8.675   6.255   2.613  0.4993  0.0664  0.8342
14574SOL    HW248085   8.708   6.399   2.645 -0.4477  0.5130 -0.1596
14575SOL     OW48086   4.051   5.709   2.378 -0.7521 -0.3712  0.6173
14575SOL    HW148087   4.016   5.632   2.334 -1.4483  0.0157  0.4659
14575SOL    HW248088   4.063   5.681   2.469 -1.5339 -0.5123  0.6918
14576SOL     OW48089   2.364   2.375   7.387 -0.3875  0.2410  0.5437
14576SOL    HW148090   2.293   2.349   7.328  0.1220  1.8604 -0.8675
14576SOL    HW248091   2.323   2.378   7.473 -2.4725  2.3964 -0.3893
14577SOL     OW48092   4.023   0.104   3.640 -0.2358 -0.1011  0.0514
14577SOL    HW148093   4.083   0.175   3.615 -1.1817  1.2581  1.4835
14577SOL    HW248094   4.074   0.049   3.700  0.7007 -1.0623 -1.5291
14578SOL     OW48095   2.468   7.588   2.817  0.1541  0.2155  0.3386
14578SOL    HW148096   2.438   7.593   2.727  2.1463  0.2053 -0.3886
14578SOL    HW248097   2.443   7.671   2.856 -0.1170  0.5058 -0.4367
14579SOL     OW48098   1.383   9.167   8.951  0.2548  0.3332 -0.3119
14579SOL    HW148099   1.361   9.194   8.861 -0.6432  0.4107 -0.0791
14579SOL    HW248100   1.304   9.185   9.001  1.4620  2.3988  0.9684
14580SOL     OW48101   7.408   6.852   4.380 -0.5268 -0.2610  0.6247
14580SOL    HW148102   7.333   6.896   4.340 -1.5228 -2.4242 -0.0511
14580SOL    HW248103   7.393   6.860   4.474 -1.3816 -0.2840  0.4991
14581SOL     OW48104   9.964   1.586   5.097  0.2544  0.4180  0.2207
14581SOL    HW148105  10.041   1.541   5.065  0.0443  0.5666 -0.5005
14581SOL    HW248106   9.911   1.517   5.138  0.9619  0.3879  1.1286
14582SOL     OW48107   1.065   5.034   3.721 -0.1491 -0.0628 -0.0541
14582SOL    HW148108   1.073   5.118   3.766 -0.5621  0.0608 -0.2032
14582SOL    HW248109   1.039   4.972   3.789 -0.4691  0.0617 -0.0585
14583SOL     OW48110   7.937   2.074   3.934 -0.2531  0.1230 -0.1750
14583SOL    HW148111   7.904   2.062   3.845  1.0390  0.1376 -0.6684
14583SOL    HW248112   7.996   2.000   3.948 -1.5540 -0.7191  1.2279
14584SOL     OW48113   4.081   2.459   5.403 -0.4170  0.1462  0.0058
14584SOL    HW148114   4.000   2.414   5.428 -0.0974  1.7026  4.7598
14584SOL    HW248115   4.151   2.406   5.441  0.3021  1.7663  1.0536
14585SOL     OW48116   3.421   9.021   2.552  0.4160 -0.2391 -0.3644
14585SOL    HW148117   3.352   9.070   2.596 -1.2682 -1.8861 -1.0709
14585SOL    HW248118   3.495   9.024   2.613 -0.9392 -0.1311  1.3288
14586SOL     OW48119   4.514  11.082   4.819  0.0159 -0.4110  0.4619
14586SOL    HW148120   4.468  11.003   4.847  1.6438 -1.8492 -0.7268
14586SOL    HW248121   4.605  11.067   4.844  0.0788  1.9944  2.0088
14587SOL     OW48122   4.089   3.754   5.166  0.1312 -0.1683  0.5396
14587SOL    HW148123   4.040   3.674   5.148  0.4580 -0.1659 -0.4430
14587SOL    HW248124   4.166   3.749   5.109 -0.5093  1.4361 -0.5704
14588SOL     OW48125   3.248   4.400   7.200  0.2476 -0.0591  0.1459
14588SOL    HW148126   3.234   4.309   7.172 -1.2634  0.5342 -1.1899
14588SOL    HW248127   3.336   4.422   7.168 -0.9262  0.1894 -3.2613
14589SOL     OW48128  10.260   5.280   4.775 -0.0416  0.6261  0.3139
14589SOL    HW148129  10.165   5.273   4.782 -0.2695  0.8846 -1.9321
14589SOL    HW248130  10.280   5.254   4.685  2.1226 -0.2701  0.9847
14590SOL     OW48131   0.622   5.062   1.027  0.1948 -0.3759 -0.3576
14590SOL    HW148132   0.555   5.101   1.083  2.8754  1.7925  1.6459
14590SOL    HW248133   0.574   5.030   0.950 -3.0656  1.0043  0.9225
14591SOL     OW48134   3.279   2.303   2.068  0.0511  0.2709  0.3239
14591SOL    HW148135   3.353   2.285   2.009  0.1073 -0.3885  0.5870
14591SOL    HW248136   3.202   2.277   2.018  0.0071  0.7679  0.1260
14592SOL     OW48137   3.798   2.962   3.495  0.5133 -0.6219 -0.1633
14592SOL    HW148138   3.742   3.036   3.471  1.0485 -0.3550 -0.6081
14592SOL    HW248139   3.814   2.973   3.589 -1.0808 -1.3203  0.2379
14593SOL     OW48140  10.539   6.780   8.228  0.0529  0.5984  0.7156
14593SOL    HW148141  10.495   6.738   8.302  0.0792  0.2982  0.5604
14593SOL    HW248142  10.546   6.711   8.162 -0.7907  1.1032  0.0846
14594SOL     OW48143   8.256   1.382   3.035 -0.3922  0.3128 -0.1511
14594SOL    HW148144   8.317   1.394   3.108 -2.0090 -0.2277  1.3474
14594SOL    HW248145   8.232   1.471   3.009 -0.7032  0.5021  0.7620
14595SOL     OW48146   7.022   0.062   2.996 -0.1837  0.8313 -0.2722
14595SOL    HW148147   7.067   0.136   2.955  0.2506  0.4381 -0.5172
14595SOL    HW248148   6.929   0.080   2.983 -0.1154  1.7865  0.4622
14596SOL     OW48149   8.364   6.580   5.889  0.2854  0.2758 -0.1652
14596SOL    HW148150   8.443   6.544   5.848  1.0275 -0.2237  1.6191
14596SOL    HW248151   8.387   6.671   5.909 -0.1878  0.6141 -1.0912
14597SOL     OW48152   5.274   0.593   7.240  0.3052  0.6995 -0.3429
14597SOL    HW148153   5.205   0.547   7.192  0.5498 -0.0882  0.0455
14597SOL    HW248154   5.341   0.612   7.174 -0.4457  1.8312 -0.8067
14598SOL     OW48155   1.398   7.855   8.033 -0.3744 -0.7388  0.0546
14598SOL    HW148156   1.488   7.846   8.063 -0.1754  0.6350 -0.0924
14598SOL    HW248157   1.365   7.765   8.030 -0.1905 -1.1030  3.7240
14599SOL     OW48158   0.769   4.701   2.883 -0.8895 -0.0203 -0.2555
14599SOL    HW148159   0.705   4.734   2.946 -1.3813  1.5572 -1.5331
14599SOL    HW248160   0.811   4.780   2.848 -0.2248 -0.8949 -1.4963
14600SOL     OW48161  10.452   7.500   2.011 -0.1021  0.5873  0.2813
14600SOL    HW148162  10.426   7.583   2.050 -1.6828 -0.1945  0.9666
14600SOL    HW248163  10.421   7.433   2.072  0.7161 -0.5365 -0.4798
14601SOL     OW48164   4.309   2.620  10.097  0.6128 -0.1620 -0.2416
14601SOL    HW148165   4.297   2.705  10.139  1.0498 -1.3561  2.5301
14601SOL    HW248166   4.404   2.613  10.087  0.6287 -0.5733  0.1705
14602SOL     OW48167   8.506   0.770   9.512 -0.3021  0.1534  0.3037
14602SOL    HW148168   8.568   0.703   9.541 -0.1548  0.0973 -0.1283
14602SOL    HW248169   8.456   0.727   9.442  0.3543  0.7471 -0.5614
14603SOL     OW48170   9.255   9.888   7.093 -0.0252 -0.3210 -0.8631
14603SOL    HW148171   9.218   9.970   7.061 -0.1956  0.1879  0.5573
14603SOL    HW248172   9.194   9.821   7.063 -0.8784  0.2756 -0.5187
14604SOL     OW48173   7.654   0.091   7.757 -0.1172  0.5634  0.5105
14604SOL    HW148174   7.634   0.095   7.664  1.1491  1.8838  0.2561
14604SOL    HW248175   7.738   0.044   7.761 -0.1637  0.5163  0.9798
14605SOL     OW48176   9.416   5.356   4.117  0.0445 -0.1301 -0.7230
14605SOL    HW148177   9.436   5.433   4.170  0.1960 -0.9661  0.4810
14605SOL    HW248178   9.501   5.316   4.099 -0.1712 -2.2045  2.1222
14606SOL     OW48179   1.603   1.586   5.045 -0.2010  0.3122 -0.7004
14606SOL    HW148180   1.538   1.516   5.038 -1.8493  1.7375 -0.1831
14606SOL    HW248181   1.684   1.541   5.070 -1.2593 -1.3818 -0.1488
14607SOL     OW48182   0.046  11.063   3.683  0.0282  0.2553  0.1562
14607SOL    HW148183  -0.028  11.120   3.703 -0.0550  0.9622 -1.8473
14607SOL    HW248184   0.027  11.030   3.595  1.7424 -0.1255 -0.1057
14608SOL     OW48185   7.828   7.538   1.984  0.3733 -0.4457 -0.3046
14608SOL    HW148186   7.825   7.632   1.967 -0.1808 -0.1560  1.2435
14608SOL    HW248187   7.743   7.506   1.953  0.1700 -0.2710  0.0737
14609SOL     OW48188   3.516   6.177   3.009  0.2136  0.2224 -0.3797
14609SOL    HW148189   3.564   6.220   3.080 -0.8142  0.7821 -0.0007
14609SOL    HW248190   3.572   6.188   2.932  0.6418  0.9567  0.0262
14610SOL     OW48191   5.189   3.031   7.758 -0.3864 -0.2978  0.7926
14610SOL    HW148192   5.275   3.072   7.746 -0.6996 -0.3325 -2.5491
14610SOL    HW248193   5.209   2.939   7.775  0.3178 -0.4334 -0.5639
14611SOL     OW48194   2.768   3.719   2.632  0.3726  0.3142 -0.1109
14611SOL    HW148195   2.726   3.745   2.714 -0.5127  1.1299 -0.8003
14611SOL    HW248196   2.850   3.678   2.659 -0.4314 -0.4788  1.2383
14612SOL     OW48197   8.206   5.070   2.467 -0.0943 -0.4405 -0.0299
14612SOL    HW148198   8.261   5.091   2.543  1.4598  2.4312 -1.7760
14612SOL    HW248199   8.122   5.111   2.486  0.5430  0.9764 -0.1439
14613SOL     OW48200   9.207   7.675   9.467 -0.1432  0.3005 -0.3093
14613SOL    HW148201   9.210   7.753   9.412 -0.2247 -0.0530 -0.8267
14613SOL    HW248202   9.282   7.685   9.527 -1.1779  1.6109  0.8255
14614SOL     OW48203  10.332   1.310   4.334 -0.2195 -0.6621 -0.1138
14614SOL    HW148204  10.326   1.366   4.411 -0.4731 -1.1362  0.2207
14614SOL    HW248205  10.338   1.370   4.260 -0.9866 -0.1913  0.1951
14615SOL     OW48206   0.481   5.405  10.588 -0.7764  0.1652  0.1666
14615SOL    HW148207   0.507   5.496  10.576 -0.3362 -0.1016 -1.0840
14615SOL    HW248208   0.546   5.355  10.538 -1.4482 -0.7711  0.2065
14616SOL     OW48209   5.397   9.209   8.404 -0.5526 -0.0140 -0.6835
14616SOL    HW148210   5.482   9.229   8.365 -0.6068  1.1287 -0.2522
14616SOL    HW248211   5.356   9.294   8.417 -1.1352 -0.4638  0.5333
14617SOL     OW48212  10.985   5.017   8.408 -0.0095  0.2334 -0.4242
14617SOL    HW148213  11.060   5.076   8.415 -1.6774  2.5122 -0.7590
14617SOL    HW248214  10.946   5.037   8.323 -0.0014 -2.2508 -1.1013
14618SOL     OW48215   5.808   7.787   5.051  0.2432 -0.1056 -0.4709
14618SOL    HW148216   5.801   7.723   4.980 -1.2010  0.7909 -1.1949
14618SOL    HW248217   5.863   7.857   5.014  0.3036 -0.0863 -0.3432
14619SOL     OW48218   8.884   4.353   9.244  0.1103  0.0605 -0.0244
14619SOL    HW148219   8.842   4.281   9.291 -0.3306  2.0238  2.8687
14619SOL    HW248220   8.826   4.370   9.169 -1.6316 -0.4430  1.1500
14620SOL     OW48221   7.067   0.350  10.707 -0.2677  0.2230  0.7988
14620SOL    HW148222   7.059   0.276  10.768  2.8271 -1.2189 -0.3539
14620SOL    HW248223   7.133   0.407  10.745  0.6692  0.0333 -0.4781
14621SOL     OW48224   3.832   2.172   4.849 -0.0003 -0.4117 -0.6071
14621SOL    HW148225   3.737   2.181   4.855 -0.1431 -0.8029 -1.8772
14621SOL    HW248226   3.866   2.243   4.902 -1.0153  0.8998 -1.6314
14622SOL     OW48227   1.371   5.645  10.041  0.0078 -0.0375  0.4935
14622SOL    HW148228   1.337   5.558  10.021  1.0159 -1.0221  2.7857
14622SOL    HW248229   1.466   5.636  10.036  0.1414  1.6561 -1.8242
14623SOL     OW48230   5.970   3.308  10.408  0.4854  0.2360  0.6019
14623SOL    HW148231   5.988   3.230  10.461  2.0514 -1.3858 -2.0999
14623SOL    HW248232   5.890   3.288  10.360 -0.0058  0.9960  1.0824
14624SOL     OW48233   6.969   7.512  10.981  0.8846  0.0506 -0.3062
14624SOL    HW148234   6.981   7.430  10.933  0.8677 -0.0351 -0.1651
14624SOL    HW248235   6.877   7.535  10.967  1.4045  1.1981 -2.1634
14625SOL     OW48236   6.698   2.471   0.550 -0.2519 -0.1058  0.3788
14625SOL    HW148237   6.780   2.455   0.503 -0.9664 -0.2479 -0.8637
14625SOL    HW248238   6.653   2.386   0.551 -0.0054 -0.2513  1.8653
14626SOL     OW48239   9.990  11.047   7.819 -0.6210  0.0101  0.3404
14626SOL    HW148240   9.998  11.096   7.900 -0.1977  0.4081  0.0612
14626SOL    HW248241  10.011  11.110   7.750 -0.5369 -0.4403 -0.0520
14627SOL     OW48242   0.229   5.280   0.112  0.6849  0.2586 -0.3312
14627SOL    HW148243   0.315   5.249   0.142  0.4258 -1.4168 -1.2093
14627SOL    HW248244   0.246   5.317   0.025  0.4476 -0.5577 -0.7322
14628SOL     OW48245   7.621   5.969   2.235  0.8591  0.3828 -0.6003
14628SOL    HW148246   7.637   6.040   2.297 -0.2373 -0.1514  0.3418
14628SOL    HW248247   7.574   5.903   2.286  3.5141 -1.9247 -0.8974
14629SOL     OW48248   0.821   5.443   1.371 -0.5578 -0.6043  0.2112
14629SOL    HW148249   0.851   5.390   1.297  3.3655  0.5625  0.7012
14629SOL    HW248250   0.737   5.480   1.342  0.6561 -0.3496 -3.6434
14630SOL     OW48251   8.344   9.602   0.750 -0.3242 -0.3083  0.4233
14630SOL    HW148252   8.283   9.676   0.749 -0.2358 -0.2268 -1.0814
14630SOL    HW248253   8.326   9.555   0.669 -0.8860 -2.3969  1.6997
14631SOL     OW48254   4.859   1.736   9.095 -0.1254 -0.6858 -0.3624
14631SOL    HW148255   4.793   1.667   9.108 -0.8190  0.2744  1.7744
14631SOL    HW248256   4.888   1.725   9.005 -3.2176 -1.1582 -1.4273
14632SOL     OW48257   1.457   2.368   9.172  0.0807 -0.5578 -0.0612
14632SOL    HW148258   1.406   2.291   9.198 -0.0753 -0.4590 -0.0800
14632SOL    HW248259   1.418   2.397   9.090  0.2906 -0.5999 -0.1776
14633SOL     OW48260   5.005   4.014   9.037  0.0058 -0.6409 -0.4463
14633SOL    HW148261   4.931   3.963   9.006 -0.2420  1.3213 -3.6257
14633SOL    HW248262   4.967   4.097   9.066  0.7585 -0.4703  0.0771
14634SOL     OW48263   3.788   9.822   2.446  0.0162  0.3693 -0.1385
14634SOL    HW148264   3.695   9.802   2.459  0.0350 -0.1844 -0.7775
14634SOL    HW248265   3.788   9.903   2.396 -0.1156  0.6083  0.2474
14635SOL     OW48266   5.836   1.739   6.116 -0.1510  0.0149 -0.0468
14635SOL    HW148267   5.763   1.679   6.125 -0.3913  0.2616 -0.3290
14635SOL    HW248268   5.814   1.793   6.039  0.0032  0.5353  0.2675
14636SOL     OW48269   1.429   6.411   8.161 -0.4532 -0.0481  0.1348
14636SOL    HW148270   1.494   6.481   8.156  0.8924 -1.0957  1.6942
14636SOL    HW248271   1.366   6.440   8.226  0.0779 -0.2326  0.7450
14637SOL     OW48272   4.676   2.601   2.734  0.2261  0.0396  0.2175
14637SOL    HW148273   4.730   2.640   2.802  1.1230 -0.1935 -0.3498
14637SOL    HW248274   4.604   2.559   2.782  1.6667 -1.4781  1.1550
14638SOL     OW48275   2.020   6.015   7.307 -0.0828 -0.7488  0.1402
14638SOL    HW148276   2.082   5.947   7.333 -1.4660 -1.0575  2.9973
14638SOL    HW248277   2.053   6.095   7.348 -0.5987 -0.5369  0.1498
14639SOL     OW48278   0.035   1.803  10.256 -0.1656  0.4458  0.4208
14639SOL    HW148279  -0.005   1.792  10.169  0.3242  0.6793  0.1625
14639SOL    HW248280   0.088   1.882  10.248  0.2559  0.2016  0.7901
14640SOL     OW48281   4.329   5.058   4.279  0.1323 -0.1091 -0.3073
14640SOL    HW148282   4.341   4.994   4.209 -0.9155  2.0971 -2.6416
14640SOL    HW248283   4.258   5.022   4.332  0.1950 -1.2886 -0.9864
14641SOL     OW48284   5.018   3.537   6.508  0.0633  0.4588  0.2122
14641SOL    HW148285   4.966   3.539   6.589 -1.3430 -1.5663 -0.5575
14641SOL    HW248286   5.100   3.495   6.533  0.8988  2.4880  1.1518
14642SOL     OW48287   8.896   6.479   1.823  0.9239 -0.0735  0.6137
14642SOL    HW148288   8.860   6.567   1.814  0.7993 -0.1836  0.0148
14642SOL    HW248289   8.872   6.435   1.742  3.2084  0.1407 -0.2650
14643SOL     OW48290   5.859   1.059   6.736  0.7457 -0.0205 -0.2221
14643SOL    HW148291   5.864   1.067   6.831  1.8380  2.3897 -0.4103
14643SOL    HW248292   5.949   1.074   6.706 -0.0329  2.0534 -1.7426
14644SOL     OW48293   9.726   6.744   8.937  0.3366  0.3795 -0.2540
14644SOL    HW148294   9.673   6.765   9.014 -0.4173  1.2415 -0.9980
14644SOL    HW248295   9.675   6.775   8.863  2.2945  2.1629 -0.9518
14645SOL     OW48296   4.003   9.423   4.800  0.3742 -0.2262 -0.2277
14645SOL    HW148297   3.958   9.444   4.882  0.1084  0.2903 -0.5012
14645SOL    HW248298   4.038   9.335   4.814 -0.4573 -0.5114  0.0998
14646SOL     OW48299   3.633   0.724   8.624 -0.1995 -0.4575 -0.1097
14646SOL    HW148300   3.659   0.815   8.609 -2.1023  0.4480  1.6316
14646SOL    HW248301   3.715   0.674   8.617  0.7851  1.2520 -1.7917
14647SOL     OW48302   4.180   4.911   6.916  0.0157 -0.1066  0.3597
14647SOL    HW148303   4.228   4.860   6.981  1.2090 -0.5667 -0.8393
14647SOL    HW248304   4.145   4.985   6.966  0.5305 -0.6668  1.6059
14648SOL     OW48305   1.890  11.065   0.849  0.3319 -0.1391  0.0147
14648SOL    HW148306   1.868  11.055   0.941  2.2019 -1.0969  0.4043
14648SOL    HW248307   1.805  11.072   0.805 -0.6855 -1.8341  1.5702
14649SOL     OW48308   4.658   6.747   3.222 -0.2931 -0.1677  0.1603
14649SOL    HW148309   4.641   6.686   3.151  1.8666 -1.2150  0.4429
14649SOL    HW248310   4.579   6.800   3.229 -1.7215 -2.0531 -0.9747
14650SOL     OW48311   0.970  11.082   6.068  0.5318 -0.1226  0.2548
14650SOL    HW148312   0.963  11.086   6.164  1.5444  0.5815  0.3112
14650SOL    HW248313   1.063  11.099   6.050  0.2803  0.1152 -0.8761
14651SOL     OW48314   3.629   6.116   6.837 -0.2063  0.7594  0.1151
14651SOL    HW148315   3.545   6.156   6.812 -0.6959  0.3680  1.0689
14651SOL    HW248316   3.695   6.180   6.810 -0.8861  1.6146  0.4274
14652SOL     OW48317   1.299   4.457   3.223  0.0714 -0.2479  0.3748
14652SOL    HW148318   1.284   4.376   3.173  1.0872  0.5060 -1.2292
14652SOL    HW248319   1.372   4.436   3.281 -0.4642 -0.8337  0.8511
14653SOL     OW48320   9.386  10.385   5.486 -0.2163 -0.6482 -0.0544
14653SOL    HW148321   9.457  10.418   5.431 -1.9492  1.4930 -1.2019
14653SOL    HW248322   9.325  10.459   5.493 -1.1465 -1.5645  2.9850
14654SOL     OW48323  10.678   2.459   0.713 -0.4697 -0.7417 -0.1271
14654SOL    HW148324  10.593   2.501   0.701 -0.8094 -1.4820 -0.4273
14654SOL    HW248325  10.657   2.370   0.740  0.2496 -0.3827  1.7620
14655SOL     OW48326  10.225   4.417  10.950 -0.4129  0.1717  0.5044
14655SOL    HW148327  10.215   4.509  10.972 -0.8012  0.7218 -1.7941
14655SOL    HW248328  10.146   4.395  10.900 -0.2058 -1.3429  0.7991
14656SOL     OW48329   1.061   5.397   2.857  0.1270 -0.5071  0.0763
14656SOL    HW148330   1.109   5.479   2.842 -1.2223  0.5726  1.3302
14656SOL    HW248331   1.094   5.337   2.790  1.8184  0.7605 -0.3045
14657SOL     OW48332   0.739   9.291   7.084  0.1511  0.1261 -0.1502
14657SOL    HW148333   0.706   9.202   7.096 -1.4392  0.4899 -1.3915
14657SOL    HW248334   0.744   9.327   7.172 -0.1680 -0.8702  0.2955
14658SOL     OW48335   5.902   0.344   4.355 -0.4331  0.4221  0.1883
14658SOL    HW148336   5.819   0.388   4.374 -1.7378 -2.2603  1.3808
14658SOL    HW248337   5.909   0.346   4.260 -1.7538  0.9223  0.0753
14659SOL     OW48338   3.063  10.067   8.137  0.7801 -0.4368 -0.2519
14659SOL    HW148339   3.059  10.032   8.048 -1.7895 -2.8264  0.6785
14659SOL    HW248340   3.033   9.996   8.193  0.0088  1.7332  2.3097
14660SOL     OW48341   0.776   2.808   6.540  0.0354  0.2691  0.1639
14660SOL    HW148342   0.740   2.752   6.471  2.1041  0.0238 -0.7923
14660SOL    HW248343   0.776   2.896   6.503  2.4623 -0.0701 -0.7743
14661SOL     OW48344   9.079   2.027   8.854 -0.3578  0.3394  0.6642
14661SOL    HW148345   9.092   2.067   8.768 -1.0074 -1.0173 -0.0923
14661SOL    HW248346   9.163   2.039   8.899 -0.1958  1.5556  0.0674
14662SOL     OW48347   9.744   5.433  10.319  0.2456  0.2297 -0.0019
14662SOL    HW148348   9.792   5.439  10.237  0.2133 -0.3542 -0.0686
14662SOL    HW248349   9.794   5.371  10.372 -0.1242  0.0479  0.1413
14663SOL     OW48350   9.870   0.176   4.523 -0.1856  0.3225 -0.2928
14663SOL    HW148351   9.818   0.253   4.546 -0.4813  0.1389 -0.3396
14663SOL    HW248352   9.923   0.205   4.449  0.3429  0.7402  0.2427
14664SOL     OW48353   9.993   1.054   1.595  0.2762 -0.3047  0.6033
14664SOL    HW148354  10.074   1.082   1.639  0.3918  0.7297 -0.2418
14664SOL    HW248355   9.949   1.135   1.571 -0.0595 -0.8448 -0.6868
14665SOL     OW48356   7.902   3.406   2.971  0.5089 -0.3013  0.0192
14665SOL    HW148357   7.885   3.483   3.026  0.7526 -0.3451  0.1556
14665SOL    HW248358   7.838   3.341   3.001  1.5111 -0.7883  1.1697
14666SOL     OW48359   3.017  11.038   3.545  0.0386  0.1005 -0.1070
14666SOL    HW148360   3.065  11.041   3.627  0.3627 -0.8860 -0.2425
14666SOL    HW248361   3.039  11.120   3.500  1.6062 -0.3384 -0.1733
14667SOL     OW48362   1.078   6.604   9.835 -0.1462  0.4857  0.4917
14667SOL    HW148363   1.042   6.688   9.864 -2.7684  0.3226 -1.8500
14667SOL    HW248364   1.139   6.579   9.903 -0.8831  3.2737  2.3258
14668SOL     OW48365   8.375   8.638  10.462 -0.1546  0.9455 -0.0133
14668SOL    HW148366   8.441   8.706  10.446  3.3489 -2.2559 -0.4552
14668SOL    HW248367   8.348   8.609  10.375  0.6108 -0.1894  0.1177
14669SOL     OW48368   0.526  10.148   0.365  0.5961 -0.3789  0.2397
14669SOL    HW148369   0.586  10.135   0.438  0.6255 -0.7773  0.1468
14669SOL    HW248370   0.445  10.105   0.392 -0.3511  1.8252  1.2093
14670SOL     OW48371   2.451   8.459   6.364  0.4366  0.0916  0.2859
14670SOL    HW148372   2.386   8.432   6.429  0.8551  1.3914  1.3160
14670SOL    HW248373   2.497   8.379   6.341 -0.2301 -0.5265  1.0338
14671SOL     OW48374  10.866   6.292   4.332  0.3652  0.1849  0.1551
14671SOL    HW148375  10.918   6.215   4.351  0.6283  0.3266  0.0207
14671SOL    HW248376  10.809   6.265   4.259  2.3420  0.8869 -1.7713
14672SOL     OW48377   1.191   4.806  10.695 -0.0046 -0.2682 -0.4688
14672SOL    HW148378   1.128   4.735  10.684  0.9393 -0.9476 -1.6493
14672SOL    HW248379   1.148   4.866  10.756 -2.4650  0.0953 -2.4040
14673SOL     OW48380   1.584  10.922   0.511 -0.3855 -0.8908  0.1990
14673SOL    HW148381   1.517  10.871   0.465 -0.4536 -1.9532  1.3977
14673SOL    HW248382   1.650  10.857   0.536  1.7099  0.2855 -1.9097
14674SOL     OW48383   3.257   3.433   4.324 -0.0409 -0.7095 -0.1089
14674SOL    HW148384   3.200   3.408   4.396 -0.8807  1.0022 -0.1392
14674SOL    HW248385   3.209   3.408   4.245  0.0631 -0.8994 -0.1139
14675SOL     OW48386   2.828   6.984   2.494 -0.0522 -0.3715 -0.3203
14675SOL    HW148387   2.763   6.976   2.564 -1.4047  0.3218 -1.4410
14675SOL    HW248388   2.807   7.068   2.453  0.6060 -0.8487 -1.6552
14676SOL     OW48389   2.189  10.155   3.523  0.3932  0.3340 -0.2344
14676SOL    HW148390   2.282  10.149   3.502  0.3972 -0.8700  0.0389
14676SOL    HW248391   2.177  10.243   3.558  0.9274  1.4208 -2.6187
14677SOL     OW48392   5.900   8.109   3.217  0.6082  0.9046 -0.4363
14677SOL    HW148393   5.965   8.178   3.202  0.7106  0.6436 -1.2368
14677SOL    HW248394   5.941   8.029   3.185 -0.6253  0.9575 -2.3484
14678SOL     OW48395   7.972   3.650   8.898  0.0240 -0.7568  0.0141
14678SOL    HW148396   7.933   3.587   8.837  0.3677 -0.8783 -0.0825
14678SOL    HW248397   7.982   3.730   8.846  0.1134 -0.7950 -0.0282
14679SOL     OW48398   6.704   6.508   9.743  0.0566 -0.2506  0.0354
14679SOL    HW148399   6.741   6.559   9.815 -1.4865  0.5624  0.3018
14679SOL    HW248400   6.780   6.470   9.699  1.0570 -0.7677  2.0615
14680SOL     OW48401   2.517   7.557  10.446 -0.5018  0.7772 -0.5993
14680SOL    HW148402   2.497   7.605  10.366 -2.1552  0.7947 -0.2194
14680SOL    HW248403   2.603   7.517  10.430  0.0124  2.2185 -1.6828
14681SOL     OW48404   9.600   3.068   9.360  0.9872  0.0925 -0.0232
14681SOL    HW148405   9.521   3.116   9.387  0.7349 -0.3289  0.0001
14681SOL    HW248406   9.671   3.132   9.369  0.8140  0.1523  1.0321
14682SOL     OW48407   2.169   2.383   3.681  0.1652 -0.1573 -0.3425
14682SOL    HW148408   2.117   2.322   3.628 -0.6644 -0.7356  1.1044
14682SOL    HW248409   2.126   2.385   3.766  1.3237  0.9624  0.2588
14683SOL     OW48410   6.585   4.185   1.789  0.7397  0.5060  0.0182
14683SOL    HW148411   6.557   4.108   1.839 -0.1242  0.8750  0.1025
14683SOL    HW248412   6.568   4.259   1.847 -0.7260  0.9889 -0.9729
14684SOL     OW48413   7.215   3.642   0.964 -0.1505 -0.7000 -0.4280
14684SOL    HW148414   7.175   3.606   0.885 -0.6876 -1.5318  0.2047
14684SOL    HW248415   7.150   3.703   0.998 -1.0119 -2.1635  0.6829
14685SOL     OW48416   5.025  10.567   8.254 -0.0952  0.3594  0.5573
14685SOL    HW148417   5.017  10.652   8.297 -2.3063 -0.8103  2.7554
14685SOL    HW248418   4.940  10.554   8.212  0.1583 -0.7871  0.3626
14686SOL     OW48419   7.728  10.241   3.495 -0.3530 -0.7258 -0.8632
14686SOL    HW148420   7.669  10.168   3.475  0.4098 -1.6083 -0.0139
14686SOL    HW248421   7.812  10.198   3.513 -0.2138  0.2566  1.0061
14687SOL     OW48422   2.475   0.970   9.546 -0.2680 -0.0774 -0.1598
14687SOL    HW148423   2.534   0.902   9.515 -0.7767 -1.2029  1.1987
14687SOL    HW248424   2.408   0.977   9.478  0.5274  0.0539 -0.9442
14688SOL     OW48425   3.959   2.913   4.135 -0.2888  0.0740 -0.4570
14688SOL    HW148426   3.881   2.869   4.102 -0.3119 -0.1419 -0.1222
14688SOL    HW248427   3.925   2.989   4.182 -0.4193 -0.8523  1.0285
14689SOL     OW48428   2.763   5.280  10.604  0.5737 -0.1743 -0.1915
14689SOL    HW148429   2.756   5.356  10.662  1.2136  1.3273 -1.9797
14689SOL    HW248430   2.676   5.241  10.604  0.2111  0.6030  0.6745
14690SOL     OW48431   6.418   8.532   1.759 -0.2490 -0.0120  0.3391
14690SOL    HW148432   6.399   8.522   1.852 -1.7303 -0.6639 -0.0009
14690SOL    HW248433   6.512   8.516   1.751 -0.2343 -0.6506  1.6187
14691SOL     OW48434   9.411   2.447   1.811  0.4512 -0.1788  0.0722
14691SOL    HW148435   9.331   2.415   1.853  1.7159 -0.9665  1.9968
14691SOL    HW248436   9.482   2.422   1.871  1.8238  3.9705  0.4681
14692SOL     OW48437   4.804   5.707   9.042 -0.0750  0.0683 -0.1829
14692SOL    HW148438   4.784   5.614   9.031 -0.2383  0.0472  0.2836
14692SOL    HW248439   4.737   5.739   9.102  1.6668 -0.1819  2.0273
14693SOL     OW48440   7.049   5.351   6.569 -0.3746 -1.1129 -1.1281
14693SOL    HW148441   7.004   5.396   6.497  0.8073  0.3539 -0.9837
14693SOL    HW248442   6.990   5.361   6.644  0.0951  0.7032 -0.9687
14694SOL     OW48443   7.851   5.186   2.791  0.3471  0.4783  0.1277
14694SOL    HW148444   7.889   5.218   2.872  0.0315 -0.4406  0.6512
14694SOL    HW248445   7.771   5.238   2.780 -0.3218 -0.2990  1.1315
14695SOL     OW48446   2.781  10.961   1.221 -0.2346 -0.2661 -0.4998
14695SOL    HW148447   2.787  10.870   1.250 -0.9759  0.0433  0.6933
14695SOL    HW248448   2.868  10.982   1.187  0.3863 -0.9658  0.6147
14696SOL     OW48449   6.351   7.195   0.804 -0.1434 -0.0905 -0.0766
14696SOL    HW148450   6.256   7.189   0.813  0.0182 -1.9387  0.6431
14696SOL    HW248451   6.377   7.261   0.869 -0.9093  0.4654 -0.3117
14697SOL     OW48452   3.668  11.047   7.493  0.0912 -0.1322  0.4981
14697SOL    HW148453   3.607  11.079   7.560  0.9566  1.0047  0.7693
14697SOL    HW248454   3.613  11.031   7.416 -1.1058 -2.4367  1.7242
14698SOL     OW48455   6.053   1.775   0.530  0.0159 -0.3936 -0.8295
14698SOL    HW148456   6.122   1.737   0.476  0.6988  0.6161 -0.6779
14698SOL    HW248457   6.091   1.855   0.565 -0.9742 -0.2155 -0.1317
14699SOL     OW48458  10.233   4.724   6.375 -0.6911  0.2849  0.0940
14699SOL    HW148459  10.288   4.787   6.422 -3.9466  2.3865  1.4270
14699SOL    HW248460  10.204   4.772   6.297 -1.3222 -0.4427 -0.1308
14700SOL     OW48461   8.327   6.107   1.566  0.6679 -0.2853 -0.2532
14700SOL    HW148462   8.268   6.183   1.567 -0.0910 -0.7632 -2.6074
14700SOL    HW248463   8.289   6.046   1.629  2.0902  1.7397  2.8030
14701SOL     OW48464  10.273   3.075   1.451  0.2768 -0.2245  0.3559
14701SOL    HW148465  10.195   3.074   1.506  0.0218  0.1218 -0.0005
14701SOL    HW248466  10.313   3.161   1.467  1.0449 -0.7136  1.1733
14702SOL     OW48467  10.683   3.312   7.122 -0.4570 -0.0088  0.1599
14702SOL    HW148468  10.673   3.404   7.095 -1.0612  0.3473  1.5108
14702SOL    HW248469  10.642   3.262   7.052 -3.5511  0.9682  1.1059
14703SOL     OW48470   2.706   6.723   6.727  0.2160  0.0643 -0.1304
14703SOL    HW148471   2.690   6.817   6.730 -0.1235  0.1378 -2.6033
14703SOL    HW248472   2.622   6.683   6.748  0.2339  0.2973  0.4000
14704SOL     OW48473   5.930   9.200   4.877 -0.0222 -0.2042  0.3858
14704SOL    HW148474   6.021   9.172   4.876 -0.1051 -0.5386  1.1282
14704SOL    HW248475   5.934   9.296   4.883  0.2783 -0.2252  0.5284
14705SOL     OW48476   5.631  10.868   8.811 -0.3346 -0.7491  0.0037
14705SOL    HW148477   5.575  10.900   8.882  0.5046  0.3493  0.1955
14705SOL    HW248478   5.696  10.813   8.855 -1.4191 -2.3146 -0.2576
14706SOL     OW48479   8.190   4.566   1.280  1.3791  0.1285  0.4244
14706SOL    HW148480   8.187   4.516   1.361 -2.6135 -3.4376 -1.5712
14706SOL    HW248481   8.108   4.616   1.280  1.2623 -0.0184 -1.4059
14707SOL     OW48482  10.138   1.681  11.113 -0.4417 -0.0764  1.4154
14707SOL    HW148483  10.069   1.727  11.065 -1.7277 -0.5816  2.7147
14707SOL    HW248484  10.174   1.747  11.172 -1.0463 -0.2645  1.9993
14708SOL     OW48485   4.962   9.292   2.654 -0.6167 -0.1295  0.5353
14708SOL    HW148486   4.896   9.269   2.719 -1.3352 -0.6301 -0.3518
14708SOL    HW248487   4.912   9.319   2.577  0.2119 -0.8507 -0.2743
14709SOL     OW48488   1.163   2.168   3.514  0.0129  0.4330  0.5022
14709SOL    HW148489   1.112   2.113   3.454 -1.3446  0.3753  1.6545
14709SOL    HW248490   1.239   2.114   3.536 -0.2708 -0.1663  0.0625
14710SOL     OW48491   9.236   7.947   3.005  0.5105  0.2062 -0.3484
14710SOL    HW148492   9.208   7.982   2.921 -1.1058  0.8453  0.4268
14710SOL    HW248493   9.330   7.966   3.008  0.5587  0.3336 -1.9166
14711SOL     OW48494   8.969   7.665   9.850  0.3523  0.1357 -0.0542
14711SOL    HW148495   8.985   7.627   9.763  0.2324 -2.1346  0.8332
14711SOL    HW248496   8.880   7.637   9.872  1.1470 -1.2596  1.6658
14712SOL     OW48497   9.055   8.187   7.503 -0.0255  0.7974  0.7276
14712SOL    HW148498   8.983   8.124   7.501  1.3455 -0.8758 -1.4243
14712SOL    HW248499   9.019   8.267   7.466 -0.5248 -0.4256 -1.5897
14713SOL     OW48500   7.699   9.774   9.600 -0.2485  0.1176 -0.2991
14713SOL    HW148501   7.749   9.714   9.545  0.4305  0.6401 -0.2616
14713SOL    HW248502   7.608   9.759   9.575  0.0235  0.0842 -1.2945
14714SOL     OW48503   8.928   3.299   4.117 -0.3915 -0.0811 -0.0772
14714SOL    HW148504   8.996   3.237   4.144 -0.8525 -0.7248 -0.3458
14714SOL    HW248505   8.924   3.363   4.188 -1.6733 -1.7909  1.4900
14715SOL     OW48506   3.306   3.589   9.478 -0.1249  0.2562 -0.2589
14715SOL    HW148507   3.282   3.543   9.559  2.4421 -0.1591  0.3442
14715SOL    HW248508   3.342   3.672   9.508  0.4780  0.2643 -0.9866
14716SOL     OW48509   7.725   6.152   5.537  0.4431  0.0836  0.6452
14716SOL    HW148510   7.657   6.198   5.586  2.4101  2.4116  1.3910
14716SOL    HW248511   7.723   6.062   5.571 -1.7591  0.2413  1.0796
14717SOL     OW48512   2.973  10.302   8.044  0.2130  0.0142 -0.2777
14717SOL    HW148513   2.967  10.373   8.108  1.6822  0.1666 -0.2749
14717SOL    HW248514   2.990  10.224   8.096 -0.0814 -0.1168 -0.3766
14718SOL     OW48515  10.356   3.261   4.572 -0.1976  0.2747 -0.1598
14718SOL    HW148516  10.307   3.191   4.615  1.1034 -0.3465  0.3791
14718SOL    HW248517  10.294   3.300   4.511 -1.2446 -0.6966  0.2459
14719SOL     OW48518   5.730   5.080   1.148  0.3831 -0.3042  0.8011
14719SOL    HW148519   5.775   5.163   1.135 -1.8288  0.8797  0.3370
14719SOL    HW248520   5.643   5.104   1.179  0.3187 -2.5364  2.6472
14720SOL     OW48521   9.057   8.421  10.398  1.0872  0.2746  0.0366
14720SOL    HW148522   9.101   8.394  10.478  1.5154  1.1661  0.1210
14720SOL    HW248523   9.056   8.517  10.403 -2.6822  0.3716  1.0580
14721SOL     OW48524   2.753   1.604   4.951  0.0568 -0.1348  0.6575
14721SOL    HW148525   2.770   1.692   4.918 -0.4004 -1.2658 -3.0365
14721SOL    HW248526   2.659   1.604   4.971 -0.2984 -0.1777 -0.9038
14722SOL     OW48527   6.403   2.590   6.964 -0.1336 -0.0284 -0.7331
14722SOL    HW148528   6.450   2.643   6.899  1.4912 -1.2064 -0.5787
14722SOL    HW248529   6.469   2.568   7.029 -1.0417 -1.2824 -0.2022
14723SOL     OW48530   0.402   4.227   0.880 -0.2575  0.0257  0.7287
14723SOL    HW148531   0.382   4.216   0.787  1.9785  0.6223  0.1141
14723SOL    HW248532   0.351   4.159   0.924 -2.7150  0.8416 -0.7175
14724SOL     OW48533   6.038   4.901   1.629 -0.1193  0.2342 -0.4156
14724SOL    HW148534   6.101   4.934   1.693 -0.9772  1.2153 -0.0571
14724SOL    HW248535   5.991   4.831   1.675  1.2752 -1.1371 -0.9747
14725SOL     OW48536   2.492   0.819   7.884  0.3622  0.1851 -0.6678
14725SOL    HW148537   2.492   0.725   7.899 -0.0058  0.1875 -0.6498
14725SOL    HW248538   2.579   0.838   7.847  0.1271 -0.2970 -1.4966
14726SOL     OW48539   8.385  10.063   3.536 -0.4959 -0.0332  0.0138
14726SOL    HW148540   8.355  10.021   3.616  0.7137 -0.0862  0.4652
14726SOL    HW248541   8.463  10.112   3.563 -0.7863  0.9588 -0.8817
14727SOL     OW48542   6.820   9.578  10.524  0.1186 -0.3915 -0.2743
14727SOL    HW148543   6.896   9.623  10.488  0.1056  0.7919  1.1205
14727SOL    HW248544   6.843   9.561  10.615 -1.0651 -0.5527  0.0070
14728SOL     OW48545   2.201   3.797   0.786  0.6269 -0.0398  0.3425
14728SOL    HW148546   2.191   3.892   0.800  1.6538 -0.0255  1.1108
14728SOL    HW248547   2.161   3.757   0.863 -0.6387 -0.2811 -0.4222
14729SOL     OW48548   4.023   7.196   2.616 -0.2805 -0.6148  0.1848
14729SOL    HW148549   4.057   7.140   2.546 -3.8906 -0.5428 -1.8800
14729SOL    HW248550   4.089   7.265   2.625  1.0002 -1.4087 -2.1915
14730SOL     OW48551   8.882   7.368   7.687  0.3832  0.5048 -0.1737
14730SOL    HW148552   8.822   7.295   7.699 -0.1827  0.7859 -1.2158
14730SOL    HW248553   8.930   7.347   7.607  1.2690  0.5766  0.3184
14731SOL     OW48554   2.025   3.405  10.417 -0.2448 -0.0923 -0.2307
14731SOL    HW148555   2.059   3.344  10.352 -1.1209 -1.1948  0.3173
14731SOL    HW248556   1.932   3.381  10.426 -0.3831  0.7298  0.6657
14732SOL     OW48557   1.956   8.861   9.960  0.0150 -0.0607  0.3347
14732SOL    HW148558   2.014   8.853   9.885 -0.9256 -1.8998 -0.2770
14732SOL    HW248559   1.899   8.935   9.940  1.8087  1.5118  0.7642
14733SOL     OW48560   7.841   0.893   3.989 -0.0982 -0.3689  0.1491
14733SOL    HW148561   7.898   0.856   4.055  2.1212  1.5489 -0.5697
14733SOL    HW248562   7.818   0.819   3.933  1.8726 -1.1825  0.3541
14734SOL     OW48563   8.751   5.745   9.700 -0.5468  0.4545 -0.3132
14734SOL    HW148564   8.702   5.816   9.659  0.9592  1.5511 -0.3197
14734SOL    HW248565   8.687   5.676   9.713 -1.8423  1.4203 -1.2600
14735SOL     OW48566   6.347   9.820   2.821  0.3288  0.5949  0.5583
14735SOL    HW148567   6.442   9.835   2.828  0.8385 -0.1412 -3.0093
14735SOL    HW248568   6.312   9.902   2.787 -0.0917  0.4160  0.5539
14736SOL     OW48569   0.819   4.221   3.863 -0.5422  0.1055  0.1088
14736SOL    HW148570   0.854   4.238   3.951 -0.1040 -1.3133  0.2359
14736SOL    HW248571   0.896   4.221   3.807 -0.8440  1.2003 -0.3312
14737SOL     OW48572   0.877   6.155   6.089  1.4478  0.3796  0.0563
14737SOL    HW148573   0.895   6.103   6.167  0.9774 -1.6323 -1.1017
14737SOL    HW248574   0.872   6.245   6.121  0.4715 -0.4359  2.4803
14738SOL     OW48575   0.253   6.456   5.119 -0.0510 -0.2079 -0.1273
14738SOL    HW148576   0.318   6.505   5.069  0.7594 -1.0990  0.0155
14738SOL    HW248577   0.187   6.430   5.054 -0.3979  0.9010 -0.2307
14739SOL     OW48578   5.155   6.440   1.777  0.1884 -0.3230 -0.6655
14739SOL    HW148579   5.164   6.368   1.838 -0.3860 -1.4666 -1.8775
14739SOL    HW248580   5.233   6.435   1.722  1.2767  1.3943  0.6107
14740SOL     OW48581   9.766   0.239   6.904  0.1770  0.1539 -0.4848
14740SOL    HW148582   9.799   0.190   6.829  0.9338  0.3450 -0.2892
14740SOL    HW248583   9.748   0.172   6.970  1.0313  0.1143 -0.2835
14741SOL     OW48584   6.844   6.785   8.396  0.6056  0.0777 -0.5128
14741SOL    HW148585   6.830   6.795   8.490  0.6806 -1.1242 -0.3585
14741SOL    HW248586   6.761   6.751   8.363  0.3381  1.1786 -1.0117
14742SOL     OW48587   5.286  10.222   8.808 -0.0852 -0.3186 -0.9629
14742SOL    HW148588   5.223  10.189   8.873  1.0776  1.3322  1.1380
14742SOL    HW248589   5.252  10.308   8.783 -0.0335 -0.5560 -1.8683
14743SOL     OW48590   0.909   1.298   4.790  0.1518 -0.2426 -0.8804
14743SOL    HW148591   0.897   1.375   4.735 -0.5819 -0.0245 -0.4353
14743SOL    HW248592   0.887   1.224   4.734 -2.2757  0.0671 -0.4549
14744SOL     OW48593   3.804   3.896  10.427 -0.4475  0.0645 -0.3257
14744SOL    HW148594   3.870   3.965  10.433 -0.3262 -0.0314 -0.5604
14744SOL    HW248595   3.751   3.906  10.507  0.5820 -0.6138  0.4727
14745SOL     OW48596   0.818  10.668   3.330 -0.1753  0.5542  0.0535
14745SOL    HW148597   0.871  10.742   3.301 -0.2370  0.3371 -0.6223
14745SOL    HW248598   0.874  10.620   3.390  0.4123  0.3036 -0.6838
14746SOL     OW48599  10.464   4.362   6.565 -0.8885  0.0555 -0.0479
14746SOL    HW148600  10.430   4.343   6.478 -0.4704  0.2895 -0.2715
14746SOL    HW248601  10.438   4.288   6.619 -1.1771 -0.0763 -0.3689
14747SOL     OW48602   8.244   4.067   2.051  0.2504  0.5318 -0.5997
14747SOL    HW148603   8.281   4.023   2.128  3.5235  3.2065 -0.4512
14747SOL    HW248604   8.178   4.126   2.087 -0.3428 -0.3290 -0.2338
14748SOL     OW48605   6.234   9.347   5.604 -0.1819  0.2903  0.1680
14748SOL    HW148606   6.224   9.440   5.583  1.1421  0.6642  1.1235
14748SOL    HW248607   6.144   9.313   5.602 -0.4851  0.9507 -2.8703
14749SOL     OW48608   3.468   0.762   6.521 -0.7460  0.0157 -0.3653
14749SOL    HW148609   3.563   0.752   6.524 -0.8649 -1.7839 -1.1996
14749SOL    HW248610   3.439   0.695   6.460 -2.6915 -0.4256  0.9483
14750SOL     OW48611   5.321   7.888   9.854 -0.1908 -0.2450  0.4111
14750SOL    HW148612   5.248   7.908   9.912 -1.0972 -0.2563 -0.6874
14750SOL    HW248613   5.304   7.939   9.775  1.0192 -0.2142  0.1441
14751SOL     OW48614   5.086   3.787   9.829  0.3237  0.0230  0.1095
14751SOL    HW148615   5.088   3.786   9.925 -2.3632 -0.0478  0.2518
14751SOL    HW248616   5.104   3.878   9.805  0.9403  0.0562  0.6772
14752SOL     OW48617   9.505   8.947   3.742 -0.3052 -0.0958 -0.0232
14752SOL    HW148618   9.446   8.906   3.806  0.0360 -1.0781 -0.3216
14752SOL    HW248619   9.511   9.039   3.770  0.0538 -0.5678  1.5166
14753SOL     OW48620   7.970  10.367   7.626  0.1680  0.3412  0.4646
14753SOL    HW148621   7.987  10.305   7.697 -3.6211 -0.6475  0.7325
14753SOL    HW248622   7.996  10.321   7.547 -0.6751 -0.8364  0.8385
14754SOL     OW48623   7.263   7.830   4.231 -0.1591 -0.2369 -0.0141
14754SOL    HW148624   7.349   7.817   4.269 -0.2846 -0.6216  0.1541
14754SOL    HW248625   7.280   7.851   4.139  0.1484  0.7973  0.2726
14755SOL     OW48626   6.632   3.975   7.948  0.8965  0.2590 -0.2308
14755SOL    HW148627   6.583   3.949   8.026 -1.2538 -0.0023 -1.5942
14755SOL    HW248628   6.692   4.043   7.979  0.5231 -0.2385  1.7304
14756SOL     OW48629   4.674  10.421  10.941  1.2693  0.2875  0.5548
14756SOL    HW148630   4.634  10.455  11.021 -1.3903 -0.1042 -0.4807
14756SOL    HW248631   4.698  10.499  10.891 -1.2191  0.6897 -0.1369
14757SOL     OW48632   7.594   0.897   8.411 -0.2124  0.1077  0.8526
14757SOL    HW148633   7.605   0.903   8.505  0.7125  0.0951  0.7536
14757SOL    HW248634   7.644   0.819   8.386 -0.1798  0.3009  0.3087
14758SOL     OW48635   7.849   2.377   4.615  0.2012  0.8017 -0.2425
14758SOL    HW148636   7.904   2.340   4.684  1.0984  0.3764 -1.1735
14758SOL    HW248637   7.776   2.417   4.663  1.0372  0.9276  0.9805
14759SOL     OW48638  10.949   1.921   6.200  0.2338 -0.3122  0.4460
14759SOL    HW148639  10.902   1.956   6.124  1.1976  0.0742  0.0186
14759SOL    HW248640  10.892   1.940   6.275  0.4728  1.6579  0.1633
14760SOL     OW48641   9.342   2.396   1.359 -0.4046 -0.1143 -0.1838
14760SOL    HW148642   9.417   2.437   1.401  0.5367  0.7235 -2.5089
14760SOL    HW248643   9.337   2.309   1.398  1.1348  0.1922  0.7709
14761SOL     OW48644   8.810   9.167   0.073 -0.7825 -0.1763  0.5120
14761SOL    HW148645   8.748   9.094   0.066 -0.2501 -0.5389 -0.8455
14761SOL    HW248646   8.895   9.128   0.053 -0.3940  0.6899  0.4303
14762SOL     OW48647   9.202   6.294   0.410 -0.0058  0.0434 -0.0694
14762SOL    HW148648   9.248   6.257   0.485 -0.3891  4.8913  2.9700
14762SOL    HW248649   9.112   6.265   0.420  0.3882 -1.3047 -0.1855
14763SOL     OW48650   2.230  10.036  10.513  0.1368  0.2917  0.1863
14763SOL    HW148651   2.301   9.990  10.469 -0.5715 -0.5904 -0.0616
14763SOL    HW248652   2.214  10.113  10.459 -0.1188 -0.3119 -0.6249
14764SOL     OW48653   3.003   7.044   9.734  0.5488 -0.1492  0.6612
14764SOL    HW148654   2.979   7.069   9.823  0.0797  0.1059  0.4687
14764SOL    HW248655   2.953   6.964   9.718  0.0166  0.2366  0.3535
14765SOL     OW48656   6.508   4.147   8.813 -0.5396 -0.5217 -0.1665
14765SOL    HW148657   6.515   4.068   8.867 -0.1422 -0.4270 -0.0731
14765SOL    HW248658   6.596   4.185   8.816 -0.8488  0.1820  0.1810
14766SOL     OW48659   9.107   8.950   4.822 -0.0826  0.0305  0.9605
14766SOL    HW148660   9.059   9.022   4.863 -0.8184 -1.3000  2.5647
14766SOL    HW248661   9.081   8.952   4.730  0.0206  1.8679  0.9385
14767SOL     OW48662   6.719   8.089   0.619 -0.2963 -0.3810 -0.4061
14767SOL    HW148663   6.661   8.165   0.631  0.5485  0.1612  0.3428
14767SOL    HW248664   6.747   8.066   0.707  1.0904 -0.2642 -0.7882
14768SOL     OW48665   1.081   7.456   5.005 -0.0314  0.2715  0.2371
14768SOL    HW148666   1.169   7.453   4.966 -0.8652 -0.4819 -1.7105
14768SOL    HW248667   1.029   7.395   4.952 -2.0225  1.5803  0.5752
14769SOL     OW48668   6.103   3.428  10.775  0.2894 -0.4309 -0.0239
14769SOL    HW148669   6.043   3.390  10.711 -1.1685  0.0367  1.0121
14769SOL    HW248670   6.144   3.353  10.818  0.5621 -0.7504 -0.8076
14770SOL     OW48671   0.818   5.074   0.599  0.2904 -0.5373 -0.0098
14770SOL    HW148672   0.805   5.096   0.507 -0.1775  1.8209  0.5494
14770SOL    HW248673   0.908   5.042   0.604 -0.0496 -1.7947 -1.4371
14771SOL     OW48674   2.304   6.728   9.250  0.3347 -0.5976 -0.0369
14771SOL    HW148675   2.258   6.792   9.196  0.1344  0.1127  0.9434
14771SOL    HW248676   2.250   6.720   9.329  0.6456 -1.5742  0.0936
14772SOL     OW48677   1.270   3.021   9.512  0.0836  0.2642 -0.2592
14772SOL    HW148678   1.200   2.962   9.482 -1.5745  1.7857  0.4625
14772SOL    HW248679   1.351   2.978   9.484 -1.1159 -1.6335 -1.0071
14773SOL     OW48680   1.975   8.308   9.376  0.6941  0.3658 -0.0277
14773SOL    HW148681   2.026   8.270   9.304  3.1046  1.9825  0.6865
14773SOL    HW248682   1.884   8.304   9.346  1.3763 -1.1002 -2.1480
14774SOL     OW48683  10.948   4.307   1.129  0.2405 -0.7743  0.1826
14774SOL    HW148684  10.929   4.400   1.114  0.3283 -0.9366 -1.0812
14774SOL    HW248685  10.865   4.270   1.159 -0.1084 -0.4948 -0.4030
14775SOL     OW48686  10.317   8.341   7.766 -0.4567  0.0190 -0.0406
14775SOL    HW148687  10.273   8.358   7.682  0.1818 -1.2290 -0.6588
14775SOL    HW248688  10.269   8.267   7.803  0.0949 -0.2973  0.0507
14776SOL     OW48689   2.539   6.331   2.078  0.2794 -0.2590 -0.0490
14776SOL    HW148690   2.468   6.326   2.013 -0.4285  0.1297  0.6741
14776SOL    HW248691   2.540   6.422   2.105 -0.0076 -0.5795  1.1000
14777SOL     OW48692  10.705   1.924   8.836 -0.2244  0.0259  0.3212
14777SOL    HW148693  10.618   1.945   8.870 -1.0903 -2.8324  0.1894
14777SOL    HW248694  10.762   1.923   8.913 -0.5834  0.6112  0.5985
14778SOL     OW48695   6.413   2.893   1.352  0.3096  0.5603 -0.2307
14778SOL    HW148696   6.450   2.805   1.346 -0.4786  0.1833  0.2605
14778SOL    HW248697   6.401   2.920   1.261 -2.1623 -1.0359 -0.4814
14779SOL     OW48698   7.634   6.369   6.436  0.0682  0.2587 -0.8353
14779SOL    HW148699   7.594   6.289   6.470 -0.8157  0.2718 -1.7976
14779SOL    HW248700   7.624   6.362   6.341 -1.0513  2.0254 -0.8939
14780SOL     OW48701  10.295  10.263   0.433  0.5919  0.4562 -0.1672
14780SOL    HW148702  10.291  10.256   0.529  0.0800 -3.4050 -0.2997
14780SOL    HW248703  10.389  10.263   0.413  0.7157  2.0133  0.3106
14781SOL     OW48704   7.754   4.716   3.380 -0.0900 -0.3195 -0.2408
14781SOL    HW148705   7.846   4.710   3.407 -0.4520 -2.1715  0.7249
14781SOL    HW248706   7.742   4.809   3.359  1.2374  0.6092  2.4739
14782SOL     OW48707   8.978  10.619   8.201 -0.4124 -0.5232 -0.1645
14782SOL    HW148708   8.924  10.657   8.271 -2.2186  0.3316 -1.9297
14782SOL    HW248709   8.927  10.544   8.170 -1.0054  0.6758 -2.2970
14783SOL     OW48710   5.888   2.586   4.544  0.7731  0.1375  0.2064
14783SOL    HW148711   5.897   2.582   4.639 -0.2207 -0.1885  0.3014
14783SOL    HW248712   5.875   2.679   4.525  0.7342  0.1754  0.4200
14784SOL     OW48713  10.752   0.543   6.706  0.0701 -0.2079  0.0693
14784SOL    HW148714  10.660   0.519   6.696  0.7193 -2.1653 -1.9514
14784SOL    HW248715  10.767   0.608   6.637 -0.0965  1.3113  1.3886
14785SOL     OW48716   8.421   2.138   6.995  0.4556  0.2273  0.0274
14785SOL    HW148717   8.435   2.173   7.083  1.7946  0.7910 -0.3841
14785SOL    HW248718   8.340   2.179   6.965 -0.5907 -0.7743  1.3673
14786SOL     OW48719   7.202   9.604   6.606  0.0933 -0.1322  0.1858
14786SOL    HW148720   7.279   9.650   6.639 -0.5677  1.6040 -0.5923
14786SOL    HW248721   7.155   9.579   6.685  1.5796 -1.5285  0.6891
14787SOL     OW48722   7.405   9.974   2.075  0.3479 -0.2354 -0.4441
14787SOL    HW148723   7.422  10.058   2.117  1.0458 -1.5128  2.0607
14787SOL    HW248724   7.476   9.962   2.013  0.4099  0.8552 -0.5978
14788SOL     OW48725   1.348   2.225   4.980 -0.0777  0.4365 -0.0242
14788SOL    HW148726   1.285   2.261   4.918 -0.9093 -1.1094 -0.1264
14788SOL    HW248727   1.430   2.269   4.958  0.1103 -1.3008 -3.5120
14789SOL     OW48728   6.260   6.593   0.197 -0.0384  0.2296  0.6204
14789SOL    HW148729   6.184   6.639   0.231 -0.8663 -0.6537  0.0085
14789SOL    HW248730   6.317   6.663   0.164 -0.2069  0.9456  1.7910
14790SOL     OW48731   8.069   0.550   8.985  0.4121  0.0460  0.4047
14790SOL    HW148732   8.132   0.561   8.913  0.0295  0.0001  0.0606
14790SOL    HW248733   7.984   0.545   8.942  0.2150 -0.3710  0.8395
14791SOL     OW48734  10.848   6.879   2.339 -0.7085 -0.3171 -0.4576
14791SOL    HW148735  10.907   6.949   2.309 -1.9003  0.4750 -1.0533
14791SOL    HW248736  10.852   6.883   2.434  0.1867 -0.2702 -0.4931
14792SOL     OW48737   0.171   2.985   1.680 -0.3478  0.5915  0.0214
14792SOL    HW148738   0.076   2.975   1.690 -0.2424 -0.4244  0.0694
14792SOL    HW248739   0.185   2.987   1.585 -0.4852  1.5709  0.0080
14793SOL     OW48740   4.654   8.594   4.637  0.3412  0.3452 -0.5328
14793SOL    HW148741   4.733   8.612   4.688  0.2811  0.3876 -0.4543
14793SOL    HW248742   4.599   8.542   4.695  0.7508 -0.5910 -0.9500
14794SOL     OW48743   1.510   0.810   1.878 -0.8419  0.4710  0.2185
14794SOL    HW148744   1.461   0.806   1.797  0.8698 -1.5288 -0.8211
14794SOL    HW248745   1.488   0.729   1.924 -0.5648  0.8113  0.9685
14795SOL     OW48746   3.359   4.272   6.592  0.0295  0.5488 -0.4003
14795SOL    HW148747   3.324   4.350   6.636 -1.4871 -0.0275 -0.5292
14795SOL    HW248748   3.350   4.202   6.657  0.4009  0.2617 -0.6545
14796SOL     OW48749   9.719  10.701   2.148 -0.5570  0.4749  0.0795
14796SOL    HW148750   9.790  10.764   2.131  0.1609 -0.6745 -1.4982
14796SOL    HW248751   9.724  10.683   2.241  2.1114 -0.5056 -0.1715
14797SOL     OW48752   4.627   8.317   4.843  0.3324 -0.4956  0.0958
14797SOL    HW148753   4.700   8.293   4.786 -0.2001 -0.3742 -0.6413
14797SOL    HW248754   4.654   8.287   4.930  0.3097 -2.5181 -0.5434
14798SOL     OW48755   7.218   9.215   0.111  0.0691 -0.1907 -0.0892
14798SOL    HW148756   7.245   9.195   0.021  0.0489  0.1958 -0.1840
14798SOL    HW248757   7.298   9.247   0.153 -0.1020  0.3977 -0.2028
14799SOL     OW48758   6.836   6.932  10.297 -0.0012  0.5231  0.3135
14799SOL    HW148759   6.885   7.011  10.319 -1.1898  1.5330 -0.4620
14799SOL    HW248760   6.898   6.860  10.309  1.1056  1.5672  1.0674
14800SOL     OW48761   5.289   1.916   7.670 -0.1076 -0.1205 -0.1487
14800SOL    HW148762   5.345   1.982   7.711 -0.8027 -1.2241  2.8210
14800SOL    HW248763   5.202   1.930   7.709 -0.5047 -2.0880 -0.2273
14801SOL     OW48764   2.221   4.732   3.595 -0.3842 -0.5876  0.8678
14801SOL    HW148765   2.227   4.694   3.682 -0.5650 -0.1051  1.0924
14801SOL    HW248766   2.267   4.670   3.538  1.7234  0.1879  1.6341
14802SOL     OW48767   5.227   7.149   4.800 -0.1738  0.0830 -0.2825
14802SOL    HW148768   5.170   7.121   4.872 -0.4457 -0.2748 -0.6356
14802SOL    HW248769   5.230   7.244   4.807 -0.5852  0.0814 -0.0866
14803SOL     OW48770   6.144   6.415   6.693 -0.5698  0.6264  0.2139
14803SOL    HW148771   6.056   6.431   6.658 -0.7925 -0.0364  0.4546
14803SOL    HW248772   6.157   6.485   6.757 -0.3545  1.5508 -0.8174
14804SOL     OW48773   9.297   5.556  10.252  0.4695 -0.1905  0.5035
14804SOL    HW148774   9.303   5.478  10.307  1.0800 -0.8682 -0.5022
14804SOL    HW248775   9.218   5.542  10.199 -1.0558  1.1884  2.2383
14805SOL     OW48776   7.908   4.156   3.449 -0.0122 -0.5425 -0.3659
14805SOL    HW148777   7.813   4.156   3.450 -0.1057  1.9202 -1.2582
14805SOL    HW248778   7.933   4.066   3.430 -2.1712 -1.1112 -0.6633
14806SOL     OW48779   6.216   0.401   8.658 -0.1765 -0.4267 -0.6703
14806SOL    HW148780   6.246   0.387   8.748 -0.0958  3.0215 -0.0356
14806SOL    HW248781   6.161   0.478   8.662 -0.2994 -0.2425 -3.5886
14807SOL     OW48782   2.513   7.318   8.563  0.2617 -0.7150 -0.3064
14807SOL    HW148783   2.488   7.331   8.654  0.1388  1.2380 -0.5848
14807SOL    HW248784   2.465   7.240   8.535 -0.1369 -0.9992  1.1240
14808SOL     OW48785   7.669   7.302   5.892 -0.6441  0.2485  0.2979
14808SOL    HW148786   7.759   7.272   5.904 -0.8680 -0.4213  0.3334
14808SOL    HW248787   7.620   7.223   5.873 -1.1307  0.6855 -0.2986
14809SOL     OW48788   9.037   0.812   8.959  0.4206 -1.0099  0.3248
14809SOL    HW148789   9.027   0.725   8.997 -0.4932 -1.2710 -0.4819
14809SOL    HW248790   9.073   0.796   8.871  4.3268 -0.3323  1.5877
14810SOL     OW48791   3.279   1.296   0.224  0.0074  0.1435 -0.5015
14810SOL    HW148792   3.313   1.317   0.138 -0.1508  2.5111 -0.0541
14810SOL    HW248793   3.185   1.287   0.212  0.0519 -0.1236 -0.6599
14811SOL     OW48794   6.202   0.774   8.419  0.1858 -0.1818  0.6539
14811SOL    HW148795   6.291   0.750   8.443  0.2442  0.9498  1.6507
14811SOL    HW248796   6.212   0.837   8.347  0.1599 -0.4779  0.3878
14812SOL     OW48797   5.944   2.503   9.100  0.0528 -0.4803 -0.2053
14812SOL    HW148798   5.960   2.528   9.191  0.3914  1.1725 -0.6765
14812SOL    HW248799   5.871   2.559   9.073  2.0659  1.4855 -1.8788
14813SOL     OW48800   6.380   1.354   2.802  0.0505 -0.2002 -0.0382
14813SOL    HW148801   6.394   1.260   2.790  2.2132  0.2477 -1.5624
14813SOL    HW248802   6.295   1.371   2.761  0.6903 -1.1497 -1.8441
14814SOL     OW48803   9.906   5.330  10.061 -0.0691 -0.1557  0.1269
14814SOL    HW148804   9.870   5.273   9.994 -0.1081 -0.4425  0.3932
14814SOL    HW248805   9.975   5.379  10.016 -0.1988 -0.2349 -0.1581
14815SOL     OW48806   6.077   9.153  10.222  0.0600  0.2718  0.1209
14815SOL    HW148807   6.064   9.058  10.222  0.1658  0.2578  0.0912
14815SOL    HW248808   6.157   9.167  10.273  0.0926  0.3381  0.0515
14816SOL     OW48809  10.139   0.835   2.088 -0.1769  0.7300 -0.0944
14816SOL    HW148810  10.228   0.802   2.105 -0.4364  0.3812  0.6152
14816SOL    HW248811  10.150   0.930   2.085  0.4463  0.6395 -1.4064
14817SOL     OW48812   9.522   0.463   6.057 -0.0838  0.4136  0.1500
14817SOL    HW148813   9.602   0.497   6.017 -0.6727  1.5221 -0.1190
14817SOL    HW248814   9.453   0.524   6.030 -0.3574  1.9302  3.7186
14818SOL     OW48815   5.444   3.282   1.368 -0.5056 -0.6298 -0.4477
14818SOL    HW148816   5.390   3.309   1.294 -2.3763 -0.6836  0.8223
14818SOL    HW248817   5.386   3.229   1.422  0.6754 -0.2736  1.2744
14819SOL     OW48818   3.865   8.535   2.778 -0.4926  0.1424  0.6326
14819SOL    HW148819   3.868   8.456   2.724  1.2735 -0.6294  1.7540
14819SOL    HW248820   3.791   8.585   2.744  0.1310 -0.5857 -2.0290
14820SOL     OW48821   4.551   5.124   5.084  0.7689  0.0389 -0.4503
14820SOL    HW148822   4.642   5.108   5.062  1.1477  1.0051  0.3367
14820SOL    HW248823   4.545   5.101   5.177  0.1743 -0.1279 -0.5236
14821SOL     OW48824   0.759   4.639   1.417  0.1540  0.1910  0.2023
14821SOL    HW148825   0.693   4.644   1.486  0.0861  1.1218  0.0826
14821SOL    HW248826   0.726   4.573   1.356  0.6734 -1.3423  1.5213
14822SOL     OW48827   9.455   0.544   1.804 -0.2709 -0.1243  0.2057
14822SOL    HW148828   9.505   0.617   1.769  1.1291 -0.8361  0.6487
14822SOL    HW248829   9.450   0.481   1.731  0.9165 -0.7439  0.6277
14823SOL     OW48830   4.667   4.880   2.012 -0.4568 -0.1316  0.7826
14823SOL    HW148831   4.702   4.954   2.062  0.5211 -0.3236  0.3900
14823SOL    HW248832   4.736   4.815   2.013 -0.2913 -0.0347 -1.0614
14824SOL     OW48833   0.415   5.180   1.151  0.0754  0.1548 -0.4147
14824SOL    HW148834   0.405   5.242   1.223  2.3935 -0.8552  0.8721
14824SOL    HW248835   0.349   5.113   1.169 -0.9911  1.1221 -0.6187
14825SOL     OW48836   3.063   9.707   7.995  0.2256 -0.1585  0.0517
14825SOL    HW148837   2.968   9.703   8.007  0.3006 -0.4488  0.5495
14825SOL    HW248838   3.099   9.683   8.080  0.7481  1.0137  0.1739
14826SOL     OW48839   4.423   5.270   7.778 -0.0766 -0.4345  0.7162
14826SOL    HW148840   4.384   5.241   7.695  0.5243 -0.3033  0.3841
14826SOL    HW248841   4.388   5.357   7.792 -0.6643 -0.6974  0.9202
14827SOL     OW48842   7.091   9.632   8.034  0.4205 -0.1912  0.0876
14827SOL    HW148843   7.099   9.691   7.960  0.2041 -0.8947 -0.5114
14827SOL    HW248844   7.001   9.641   8.063  0.9124  1.2640  1.3005
14828SOL     OW48845   5.198   2.085   8.551  0.0656 -0.7182 -0.3655
14828SOL    HW148846   5.293   2.095   8.545  0.1332 -1.1079  0.0189
14828SOL    HW248847   5.164   2.174   8.556  0.5933 -0.5871  2.0956
14829SOL     OW48848   9.410   0.976   8.342  0.6589 -0.2927  0.0345
14829SOL    HW148849   9.393   0.884   8.363  2.1198 -0.8059 -0.8640
14829SOL    HW248850   9.330   1.006   8.300 -0.3789 -0.7064  1.6243
14830SOL     OW48851   8.719   0.747   6.542 -0.1685 -0.1710 -0.0800
14830SOL    HW148852   8.723   0.744   6.637  0.0478  0.4364 -0.0708
14830SOL    HW248853   8.625   0.747   6.522 -0.2397  1.1889  0.1848
14831SOL     OW48854   5.553   2.140   8.522  0.3798  0.1476  0.7700
14831SOL    HW148855   5.540   2.138   8.617  1.7624  0.3732  0.9914
14831SOL    HW248856   5.533   2.051   8.493  0.1332  0.0306  1.3043
14832SOL     OW48857  10.882   5.591  10.662 -0.8090  0.5262 -0.4261
14832SOL    HW148858  10.941   5.542  10.719 -0.8802  0.8668 -0.0502
14832SOL    HW248859  10.940   5.639  10.603 -0.6657  1.5500  0.5160
14833SOL     OW48860   8.018   6.376   8.082 -0.0082 -0.1793  0.7243
14833SOL    HW148861   8.080   6.364   8.010  0.5723  0.1954  1.1611
14833SOL    HW248862   7.963   6.297   8.078  0.6409 -0.6323  0.4858
14834SOL     OW48863   9.999   5.639   1.214 -0.2596 -0.9953 -0.6500
14834SOL    HW148864   9.945   5.700   1.163  1.7773  0.4907 -1.1761
14834SOL    HW248865   9.943   5.563   1.228 -2.5800  0.5675 -0.8541
14835SOL     OW48866   4.906   0.201   9.041  0.4259 -0.1605  0.1362
14835SOL    HW148867   4.993   0.166   9.024  0.0270 -0.0957 -2.4399
14835SOL    HW248868   4.851   0.123   9.054  0.4728 -0.2956 -0.4556
14836SOL     OW48869   8.278   3.478   0.376  0.6518 -0.0604 -0.5942
14836SOL    HW148870   8.357   3.520   0.343 -0.2873  0.1782 -2.7001
14836SOL    HW248871   8.213   3.548   0.378  0.0824 -0.5866 -0.4333
14837SOL     OW48872  10.972  10.920   7.515  0.3537  0.0262 -0.2379
14837SOL    HW148873  11.035  10.880   7.576 -0.4739 -0.8253  0.0849
14837SOL    HW248874  10.887  10.883   7.541 -0.0989  0.1496 -1.5055
14838SOL     OW48875   4.469   6.368  10.799  0.0454  0.4150 -0.8336
14838SOL    HW148876   4.548   6.374  10.746  0.3382  0.3302 -0.4052
14838SOL    HW248877   4.398   6.385  10.737  0.1185 -2.9033 -2.0020
14839SOL     OW48878  10.520   1.406   9.622 -0.1241 -0.3715  0.4363
14839SOL    HW148879  10.435   1.363   9.630  0.2721 -1.1083  0.8336
14839SOL    HW248880  10.543   1.395   9.530 -0.2279 -0.6225  0.4399
14840SOL     OW48881   2.975   4.755   0.869  0.1084  0.0768  0.3024
14840SOL    HW148882   3.010   4.695   0.803  0.7518 -1.3556  1.8574
14840SOL    HW248883   3.052   4.791   0.912 -0.2975  0.5578  0.6339
14841SOL     OW48884   0.092   3.890   1.629  0.0522  0.1982 -0.0829
14841SOL    HW148885   0.114   3.842   1.709 -1.7104 -0.4992  0.0364
14841SOL    HW248886   0.057   3.974   1.660  0.3169  0.3395 -0.1650
14842SOL     OW48887   2.958   6.223   6.970 -0.1947  0.4511 -0.5564
14842SOL    HW148888   2.905   6.162   7.023 -1.1558  1.0765 -0.7856
14842SOL    HW248889   3.024   6.256   7.032  0.7223 -1.2360 -0.5642
14843SOL     OW48890   3.310   3.149   2.376 -0.3293  0.0825 -0.1602
14843SOL    HW148891   3.378   3.171   2.312 -0.1711  0.7203  0.2214
14843SOL    HW248892   3.294   3.230   2.423 -2.5517  0.4131 -1.3394
14844SOL     OW48893   7.678   0.571   7.448  0.2351  0.0719 -0.2400
14844SOL    HW148894   7.592   0.590   7.486  0.6699  2.3980 -0.3006
14844SOL    HW248895   7.711   0.498   7.500 -1.9446 -1.2272 -0.5339
14845SOL     OW48896   1.729   8.597   6.588  0.1463  0.4806  0.3220
14845SOL    HW148897   1.737   8.568   6.679  2.6339  2.5961  0.8892
14845SOL    HW248898   1.694   8.686   6.594 -1.3923  0.0190 -0.9605
14846SOL     OW48899  10.309   0.584   8.145 -0.2440 -0.6085 -0.4764
14846SOL    HW148900  10.232   0.584   8.203  0.6083  1.8596  0.7958
14846SOL    HW248901  10.277   0.623   8.063 -1.1731 -3.0558 -1.3671
14847SOL     OW48902   8.749   1.026   3.534 -0.1992 -0.3397 -0.8077
14847SOL    HW148903   8.812   0.957   3.555 -1.4334 -0.9492  1.1707
14847SOL    HW248904   8.664   0.991   3.562 -0.9030  1.8560  0.0944
14848SOL     OW48905   4.099   2.297   6.425  0.2433 -0.5520 -0.6359
14848SOL    HW148906   4.135   2.265   6.508 -0.4182 -1.5278 -0.7076
14848SOL    HW248907   4.004   2.301   6.440  0.3066  1.9306 -0.4638
14849SOL     OW48908   7.338   9.692   9.789  0.0088  0.0190  0.6267
14849SOL    HW148909   7.383   9.755   9.845 -0.1839  0.9448 -0.2375
14849SOL    HW248910   7.329   9.614   9.844 -2.1989  1.6119  2.7059
14850SOL     OW48911  10.759   1.826   0.372 -0.0005 -0.7310 -0.2732
14850SOL    HW148912  10.801   1.762   0.429 -0.2345 -1.1604 -0.5749
14850SOL    HW248913  10.824   1.844   0.303  0.1254 -0.5223 -0.1015
14851SOL     OW48914   2.763   5.410   4.950 -0.5345 -0.5176 -0.1127
14851SOL    HW148915   2.727   5.426   4.863  1.5988  0.8612 -0.8144
14851SOL    HW248916   2.757   5.494   4.995 -0.8365 -1.0049  0.7916
14852SOL     OW48917   4.585   4.875  10.475  0.4538 -0.4161 -0.0383
14852SOL    HW148918   4.674   4.911  10.476  0.1310  0.4089 -0.5233
14852SOL    HW248919   4.593   4.793  10.524  1.2013  0.2951  1.0723
14853SOL     OW48920   3.330  10.878   8.325 -0.4151  0.0165 -0.4643
14853SOL    HW148921   3.346  10.786   8.307  0.6286  0.4061 -1.6774
14853SOL    HW248922   3.378  10.896   8.406 -0.3530 -0.4364 -0.4012
14854SOL     OW48923   4.078   0.193   6.842  0.2187 -0.1864  0.1204
14854SOL    HW148924   4.091   0.283   6.814  4.0799 -0.6864 -0.2307
14854SOL    HW248925   3.989   0.172   6.813 -0.8199  3.4350  0.2346
14855SOL     OW48926   3.748   6.577   6.255  0.1331  0.2111  0.2818
14855SOL    HW148927   3.739   6.609   6.165  0.3716 -0.7746 -0.0955
14855SOL    HW248928   3.659   6.580   6.290 -0.5333 -2.2113 -0.9652
14856SOL     OW48929   6.679   7.809   9.650  0.6005  0.5602 -0.3267
14856SOL    HW148930   6.608   7.749   9.628  1.1563 -0.8964  1.5561
14856SOL    HW248931   6.635   7.890   9.677 -0.2985  0.0387 -0.2070
14857SOL     OW48932  10.370   3.141   2.186  0.3349  0.1750  0.2329
14857SOL    HW148933  10.331   3.113   2.104  0.6154  0.9032 -0.1650
14857SOL    HW248934  10.460   3.107   2.183 -0.3229 -1.8036  1.3055
14858SOL     OW48935   0.405   7.650   5.824 -0.1245  0.4323 -0.4045
14858SOL    HW148936   0.430   7.557   5.832  0.5871  0.7156  0.8643
14858SOL    HW248937   0.460   7.682   5.752 -0.4780 -0.1490 -0.9524
14859SOL     OW48938   6.149   2.227   5.677  0.3087 -0.4100 -0.5581
14859SOL    HW148939   6.126   2.281   5.753 -0.7825 -1.9636  0.2925
14859SOL    HW248940   6.233   2.261   5.647  0.1599  1.0563  0.5703
14860SOL     OW48941   4.017   2.141   7.941 -0.4167 -0.3542 -0.0452
14860SOL    HW148942   3.998   2.222   7.987  2.8333  0.1751  0.6426
14860SOL    HW248943   3.954   2.138   7.869 -0.3144  3.0609 -0.4266
14861SOL     OW48944   2.279   3.507   8.337  0.7038  0.2908 -0.0850
14861SOL    HW148945   2.301   3.598   8.318  1.2702  0.5377  1.6628
14861SOL    HW248946   2.347   3.477   8.397 -0.9801 -0.4324  1.5496
14862SOL     OW48947   3.548   0.698   3.987 -0.6242  0.1250 -0.1228
14862SOL    HW148948   3.615   0.710   3.920 -1.7992 -0.0862 -1.3831
14862SOL    HW248949   3.567   0.613   4.025 -0.0256  0.1871 -0.2734
14863SOL     OW48950   3.527   8.075   2.224 -0.1061  0.0822  0.0052
14863SOL    HW148951   3.447   8.124   2.244  0.6957  1.0452  0.9821
14863SOL    HW248952   3.527   8.067   2.129 -1.0113  0.6826 -0.0589
14864SOL     OW48953   5.781   6.559   4.430 -0.0603 -0.2114 -0.2683
14864SOL    HW148954   5.865   6.593   4.462 -1.4209  4.3504 -0.8535
14864SOL    HW248955   5.729   6.546   4.510  0.5054 -1.0716 -0.0255
14865SOL     OW48956   3.306  11.010   4.505 -0.0894 -0.3123  0.6420
14865SOL    HW148957   3.231  11.066   4.526 -0.4823 -0.3186 -0.6446
14865SOL    HW248958   3.289  10.928   4.553 -0.6933 -0.1566  0.7008
14866SOL     OW48959   7.027   6.972  10.711 -0.4750 -0.5284  0.1989
14866SOL    HW148960   7.075   7.051  10.689 -0.0883 -1.0239 -0.7991
14866SOL    HW248961   6.966   6.959  10.638  0.5038 -1.9564 -0.4033
14867SOL     OW48962   9.600   2.386   7.130 -0.2849  0.8093 -0.2978
14867SOL    HW148963   9.642   2.461   7.172 -0.3921  0.5144  0.3509
14867SOL    HW248964   9.639   2.310   7.173 -0.7772  0.5088 -0.3776
14868SOL     OW48965   2.533   3.286   8.158  0.1988  0.2198 -0.5046
14868SOL    HW148966   2.445   3.322   8.146  0.5378  1.3641  0.3462
14868SOL    HW248967   2.542   3.223   8.087 -1.3249  0.0488 -0.5885
14869SOL     OW48968   8.149   7.950   9.612 -0.6007  0.1553 -0.1146
14869SOL    HW148969   8.147   7.936   9.707  0.8201  1.0647  0.0707
14869SOL    HW248970   8.125   8.042   9.600  2.2501  0.9538 -0.3553
14870SOL     OW48971   4.400   3.381   7.129  0.2716 -0.2767 -0.8962
14870SOL    HW148972   4.379   3.326   7.204  0.2736 -0.7949 -1.2668
14870SOL    HW248973   4.320   3.431   7.114  0.8633  1.1937  0.5713
14871SOL     OW48974   0.192   1.349   6.928  0.2432 -0.3194 -0.4426
14871SOL    HW148975   0.249   1.299   6.869 -0.2720  0.4889 -1.6659
14871SOL    HW248976   0.203   1.440   6.900 -1.1072 -0.0758 -0.2279
14872SOL     OW48977   7.248  10.687   5.666 -0.0944  0.5587  0.1630
14872SOL    HW148978   7.234  10.766   5.614  1.7514  1.0126  0.2796
14872SOL    HW248979   7.170  10.679   5.720 -1.1389  1.2256 -1.2051
14873SOL     OW48980   3.222   5.559   7.936  0.6389 -0.2103  0.2581
14873SOL    HW148981   3.179   5.473   7.939 -1.4658  0.6936 -1.2495
14873SOL    HW248982   3.272   5.558   7.854 -0.7986  0.5290 -0.6878
14874SOL     OW48983   8.154   4.632   2.281  0.1618 -0.2817 -0.1073
14874SOL    HW148984   8.103   4.688   2.340  0.6329  0.5055 -0.4367
14874SOL    HW248985   8.244   4.664   2.290  0.5422 -1.4149  0.1892
14875SOL     OW48986   6.490   3.065   9.633 -0.5529 -0.5945 -0.2684
14875SOL    HW148987   6.542   2.985   9.625 -0.7208 -0.7326  0.0108
14875SOL    HW248988   6.543   3.121   9.691  0.2143  0.0378 -1.5340
14876SOL     OW48989   7.560   0.510   2.690  0.6545 -0.1047 -0.0519
14876SOL    HW148990   7.491   0.448   2.668  0.3667 -0.5283  1.8452
14876SOL    HW248991   7.632   0.490   2.630 -0.2983 -0.6792 -1.0299
14877SOL     OW48992   9.589   2.859   3.997 -0.3570 -0.1057 -0.2071
14877SOL    HW148993   9.677   2.876   4.032 -0.8707  0.4957  0.8169
14877SOL    HW248994   9.589   2.765   3.977  0.6180 -0.0526 -0.5317
14878SOL     OW48995   4.602   2.321   5.101 -0.5742  0.4165  0.4924
14878SOL    HW148996   4.507   2.329   5.092 -0.4765  2.4153  0.7111
14878SOL    HW248997   4.635   2.321   5.011 -0.7642 -0.1557  0.4204
14879SOL     OW48998   8.094   4.981   7.751  0.2986  0.2584 -0.0386
14879SOL    HW148999   8.091   5.073   7.724 -2.3212  0.7414  1.5789
14879SOL    HW249000   8.142   4.938   7.680  1.3096  2.7693 -1.0302
14880SOL     OW49001   8.370  10.058   5.693  0.1097  0.0743  0.5590
14880SOL    HW149002   8.407   9.969   5.696  2.3161  0.8830 -0.4256
14880SOL    HW249003   8.441  10.113   5.727 -1.1413  1.5009  0.9165
14881SOL     OW49004   0.525   0.189   3.800  0.5417 -0.0980  0.1513
14881SOL    HW149005   0.583   0.156   3.732 -1.3549  0.2622 -1.7343
14881SOL    HW249006   0.438   0.162   3.773 -0.5504  2.1147  1.1544
14882SOL     OW49007   5.712   7.327   7.816  0.1914 -0.0495  0.8074
14882SOL    HW149008   5.671   7.407   7.848 -0.9955  0.3809 -1.5547
14882SOL    HW249009   5.806   7.341   7.826  0.0061  1.6692  0.3980
14883SOL     OW49010   4.593  11.072   8.150  0.2343 -0.1075  0.9301
14883SOL    HW149011   4.620  11.140   8.212 -1.0038  1.4166 -0.1351
14883SOL    HW249012   4.501  11.058   8.169 -0.2318  0.5876 -0.7369
14884SOL     OW49013   1.736   4.898   1.539 -0.0439 -0.1468 -0.9268
14884SOL    HW149014   1.821   4.862   1.565  1.1546  2.1927 -1.3740
14884SOL    HW249015   1.730   4.980   1.588 -2.7052 -0.8795  0.1339
14885SOL     OW49016   4.390  10.460   9.249 -0.5132  0.1127  0.3183
14885SOL    HW149017   4.378  10.400   9.323 -3.1158  1.7803  1.3754
14885SOL    HW249018   4.310  10.452   9.198  1.7998 -2.2309 -3.5113
14886SOL     OW49019   4.462   1.996   0.428  0.0502  0.0235  0.5221
14886SOL    HW149020   4.531   2.007   0.493 -1.9952  0.7604  2.7267
14886SOL    HW249021   4.401   1.934   0.468  0.1100 -1.8359 -2.0246
14887SOL     OW49022   7.332   4.555  10.338 -0.2563 -0.1668  0.0943
14887SOL    HW149023   7.421   4.577  10.311 -0.3430  2.7428  1.7445
14887SOL    HW249024   7.284   4.544  10.257  1.7394 -2.8221 -0.8550
14888SOL     OW49025   4.582   6.123   1.398  0.0491  0.4243 -0.0456
14888SOL    HW149026   4.595   6.049   1.339  1.5922  2.7300 -2.8222
14888SOL    HW249027   4.489   6.119   1.421 -0.2833 -1.4030 -1.4500
14889SOL     OW49028   4.247   4.435  11.103 -0.5663  0.2930 -0.3220
14889SOL    HW149029   4.332   4.416  11.142 -1.4728 -1.1221  1.0701
14889SOL    HW249030   4.242   4.378  11.026 -0.1098  0.6498 -0.6155
14890SOL     OW49031   4.748   1.461   6.238 -0.4070 -0.4374 -0.0780
14890SOL    HW149032   4.682   1.418   6.292 -1.6389  1.5063  0.0833
14890SOL    HW249033   4.832   1.427   6.271 -1.2344 -1.2360  1.2945
14891SOL     OW49034   2.040   9.672   2.218 -0.1298 -0.5324  0.0816
14891SOL    HW149035   2.012   9.727   2.291 -0.4710 -0.5139 -0.0605
14891SOL    HW249036   2.109   9.722   2.176 -0.7535  0.0073 -0.3251
14892SOL     OW49037   5.865   8.793   7.845 -0.1173 -0.1377 -0.5354
14892SOL    HW149038   5.913   8.853   7.788  1.5286  0.4529  1.3529
14892SOL    HW249039   5.892   8.817   7.933  0.5812 -3.6187  0.3379
14893SOL     OW49040   4.027   1.770   3.210  0.0416 -0.7728  0.0614
14893SOL    HW149041   4.116   1.805   3.216 -0.6388  0.9130  1.2786
14893SOL    HW249042   3.980   1.834   3.157 -0.4482 -1.6609 -0.5886
14894SOL     OW49043   8.851   1.708   3.737  0.0456 -0.0034  0.1903
14894SOL    HW149044   8.861   1.795   3.775  0.2019  0.4631 -0.8986
14894SOL    HW249045   8.935   1.690   3.696 -0.2463 -0.3368 -0.2682
14895SOL     OW49046   2.302   6.873   5.932  0.4467 -0.6774 -0.3545
14895SOL    HW149047   2.395   6.886   5.952  0.2207 -0.3194  0.5528
14895SOL    HW249048   2.257   6.932   5.993 -0.4107 -1.5339 -0.1344
14896SOL     OW49049   7.599   0.272   3.220 -0.0471 -0.2033 -0.1529
14896SOL    HW149050   7.589   0.313   3.134 -0.6158 -1.0650 -0.5124
14896SOL    HW249051   7.603   0.179   3.201 -0.7691 -0.4396  0.8048
14897SOL     OW49052   8.237  10.668  10.337  0.3748 -0.2313  0.0245
14897SOL    HW149053   8.172  10.726  10.298 -0.3471 -0.8424  0.2918
14897SOL    HW249054   8.224  10.584  10.292  0.7144 -0.4638  0.3583
14898SOL     OW49055   2.527   6.597   5.819 -0.5762  0.0409 -0.3523
14898SOL    HW149056   2.462   6.625   5.882  0.1761  1.2183 -0.0785
14898SOL    HW249057   2.595   6.554   5.871 -0.4718  0.0468 -0.4810
14899SOL     OW49058   7.799   3.782   2.072  0.0793  0.1300  0.5270
14899SOL    HW149059   7.853   3.781   2.151 -0.6094  0.0088  1.0109
14899SOL    HW249060   7.792   3.690   2.046 -0.4425  0.0731  0.8568
14900SOL     OW49061   7.461   9.788   0.101 -0.0186  0.0979  0.4225
14900SOL    HW149062   7.399   9.850   0.138  2.5418  2.4042  1.1340
14900SOL    HW249063   7.462   9.807   0.007 -0.0771  0.3747  0.4780
14901SOL     OW49064   9.415   6.418   2.331 -0.3595  0.1334  0.6514
14901SOL    HW149065   9.425   6.342   2.273 -1.0638 -0.4447  1.2627
14901SOL    HW249066   9.437   6.493   2.277  0.6384 -0.5241  0.1041
14902SOL     OW49067   5.066   0.557   4.586 -0.0920 -0.0378 -0.2514
14902SOL    HW149068   5.133   0.618   4.616  0.3122  0.5515 -2.2179
14902SOL    HW249069   5.098   0.471   4.613  0.2971  0.4198  0.8198
14903SOL     OW49070   6.391   5.482   2.682 -0.0396 -0.1910  0.2249
14903SOL    HW149071   6.468   5.436   2.716 -0.0276  0.0268  0.5003
14903SOL    HW249072   6.326   5.414   2.667 -0.1894 -0.2413  1.0840
14904SOL     OW49073  10.662   2.802   1.595 -0.1443  0.2993  0.2507
14904SOL    HW149074  10.636   2.715   1.565  0.4232  0.4970 -0.8613
14904SOL    HW249075  10.597   2.825   1.662 -0.5811 -0.7707  0.2053
14905SOL     OW49076   7.785   3.290   3.503 -0.1717  0.1435  0.1992
14905SOL    HW149077   7.757   3.245   3.583  1.0381 -0.4326  0.3248
14905SOL    HW249078   7.766   3.227   3.433  1.3691 -0.5408  0.3576
14906SOL     OW49079   3.949   7.525   3.279  0.5521  0.3548  0.5177
14906SOL    HW149080   3.927   7.561   3.365 -0.6454  1.0519 -0.0534
14906SOL    HW249081   3.913   7.588   3.217  1.3025 -0.1929 -0.5113
14907SOL     OW49082   1.216   4.280   9.622  0.1281  0.3694  0.4642
14907SOL    HW149083   1.215   4.375   9.633 -0.1857  0.5480 -1.0087
14907SOL    HW249084   1.134   4.251   9.662 -0.6016  0.9125 -0.6013
14908SOL     OW49085   3.928   7.164   1.855  0.2218  0.2997 -0.4458
14908SOL    HW149086   3.934   7.081   1.808  1.2413  0.0892  0.0279
14908SOL    HW249087   4.013   7.174   1.897 -0.3696  0.8781  0.6727
14909SOL     OW49088  10.326   5.436   4.205  0.3569 -0.0555 -0.1535
14909SOL    HW149089  10.310   5.482   4.287 -0.1926  0.7445 -0.6924
14909SOL    HW249090  10.324   5.343   4.228  1.2314  0.1823  0.9087
14910SOL     OW49091   5.270   4.078   9.243 -0.4733 -0.4152 -0.1365
14910SOL    HW149092   5.223   3.998   9.223 -1.2856  0.2981 -1.2281
14910SOL    HW249093   5.358   4.064   9.206 -0.4938 -0.9276  0.0023
14911SOL     OW49094   7.488   8.352  10.479  0.2553 -0.2426  0.0249
14911SOL    HW149095   7.469   8.291  10.550  1.6770 -0.5436  0.1806
14911SOL    HW249096   7.570   8.320  10.442 -0.0429  0.3938 -1.2251
14912SOL     OW49097   4.525   9.211   6.623 -0.0430 -0.1535  0.1893
14912SOL    HW149098   4.534   9.191   6.530 -0.4269  1.3221 -0.1820
14912SOL    HW249099   4.586   9.282   6.639 -1.5031  1.0628  0.5596
14913SOL     OW49100   6.919   6.052   1.207  0.0087 -0.1600 -0.0926
14913SOL    HW149101   6.857   6.122   1.187  0.5438  0.7382  1.2446
14913SOL    HW249102   6.894   6.021   1.294  0.7861 -0.5007  0.0230
14914SOL     OW49103   6.438   7.278   8.841 -0.3220  0.0374  0.1006
14914SOL    HW149104   6.413   7.363   8.806  1.7136  1.0838  0.9888
14914SOL    HW249105   6.473   7.230   8.766 -0.3096  0.4791 -0.1797
14915SOL     OW49106  10.718   4.898   4.026 -0.1857  0.0828 -0.3294
14915SOL    HW149107  10.768   4.886   4.107 -2.8735 -1.5851  1.2416
14915SOL    HW249108  10.773   4.862   3.957  1.3541 -0.3405  1.0651
14916SOL     OW49109   3.452   2.695   8.993  0.2791  0.2496 -0.0805
14916SOL    HW149110   3.515   2.767   8.990 -0.1715  0.6233 -0.7721
14916SOL    HW249111   3.449   2.663   8.902  1.0745 -1.1697  0.3580
14917SOL     OW49112   2.664   5.703  10.098  0.0208  0.4333  0.3191
14917SOL    HW149113   2.590   5.748  10.138  0.2510  0.4090  0.7750
14917SOL    HW249114   2.721   5.774  10.068  0.8084  0.4728  1.8181
14918SOL     OW49115   1.602   6.297   6.298 -0.2893  0.8076 -0.0640
14918SOL    HW149116   1.617   6.369   6.237 -0.8625  0.3966 -0.7086
14918SOL    HW249117   1.591   6.220   6.242 -2.4541  0.6897  0.4356
14919SOL     OW49118   2.028   5.074   2.132  0.1973 -0.0062  0.1728
14919SOL    HW149119   1.952   5.054   2.079  0.3867 -0.0473 -0.0852
14919SOL    HW249120   2.079   5.137   2.080  1.8495 -2.1863 -1.0376
14920SOL     OW49121   0.564   1.018   1.918 -0.4884  0.2874  0.6073
14920SOL    HW149122   0.574   1.021   2.013 -0.7795 -2.2850  0.7959
14920SOL    HW249123   0.589   0.929   1.894 -1.4624  0.5346 -1.6035
14921SOL     OW49124   6.134   2.088   3.070 -0.3034  0.4952  0.1452
14921SOL    HW149125   6.069   2.145   3.029 -1.2091 -0.3965  0.3357
14921SOL    HW249126   6.188   2.057   2.997 -0.6961  0.4560 -0.1301
14922SOL     OW49127   2.250  10.239   5.104 -0.1738  0.6771 -0.2864
14922SOL    HW149128   2.265  10.283   5.020 -1.3840 -0.4937 -1.1582
14922SOL    HW249129   2.313  10.280   5.164  1.7194  0.5666 -2.0757
14923SOL     OW49130   7.622   6.869   7.979 -0.0434 -0.3836 -0.5489
14923SOL    HW149131   7.700   6.889   8.031 -0.2872  0.1985 -0.3979
14923SOL    HW249132   7.573   6.952   7.975 -1.6127 -1.1685  0.9714
14924SOL     OW49133   7.919   1.868   5.265 -0.0768 -0.1300  0.0334
14924SOL    HW149134   7.883   1.853   5.353  1.1463 -0.3645  0.5247
14924SOL    HW249135   8.014   1.872   5.279  0.0145  2.3225 -0.9394
14925SOL     OW49136   9.827   1.882   2.653  0.4708  0.2039 -0.8614
14925SOL    HW149137   9.885   1.938   2.703 -1.0191  0.5336  0.5666
14925SOL    HW249138   9.886   1.826   2.602  1.9948  1.5165 -0.6077
14926SOL     OW49139   4.885   8.992  10.661  0.0839  0.2227  0.6362
14926SOL    HW149140   4.939   8.913  10.655  1.6231  1.1577  1.5879
14926SOL    HW249141   4.811   8.966  10.716 -0.7135 -1.1922 -0.9945
14927SOL     OW49142   1.512   2.934   9.439 -0.1797 -0.3088 -0.0930
14927SOL    HW149143   1.522   2.865   9.374  1.3332 -2.3824  2.1396
14927SOL    HW249144   1.590   2.925   9.495 -1.0218  1.8363  1.5597
14928SOL     OW49145   6.480   3.242  10.429  0.6559  0.4968 -0.1050
14928SOL    HW149146   6.436   3.178  10.374  0.0517  0.6337  0.2077
14928SOL    HW249147   6.476   3.205  10.517  0.6681  0.7683  0.0120
14929SOL     OW49148   1.898   7.472   6.559 -0.1495  0.1685 -0.2109
14929SOL    HW149149   1.957   7.522   6.502 -2.0368  0.5133 -1.9540
14929SOL    HW249150   1.887   7.528   6.636  1.7013  0.1128  0.1530
14930SOL     OW49151   1.857   3.184   6.402 -0.2789 -0.3930  0.2128
14930SOL    HW149152   1.946   3.169   6.370 -0.2256 -1.9736  0.9841
14930SOL    HW249153   1.865   3.258   6.462  0.5289 -0.5701  0.3325
14931SOL     OW49154   7.746   4.598   8.916  0.1766  0.6687  0.4005
14931SOL    HW149155   7.693   4.567   8.990 -0.6296 -0.4059 -0.5756
14931SOL    HW249156   7.682   4.630   8.853  0.8636  1.6982  0.2112
14932SOL     OW49157   3.792   3.303   8.782  0.0307 -0.2269 -0.1564
14932SOL    HW149158   3.834   3.228   8.825  1.8220  0.0207 -1.3768
14932SOL    HW249159   3.753   3.267   8.703  0.0629 -0.0327 -0.2614
14933SOL     OW49160   1.266   3.987   5.344 -0.1112  0.1638  0.4648
14933SOL    HW149161   1.356   4.020   5.338  0.2048 -0.8566 -0.9224
14933SOL    HW249162   1.211   4.064   5.328  0.4538  0.9665  2.1187
14934SOL     OW49163   0.169   9.060   4.504  0.1267 -0.8345  0.9808
14934SOL    HW149164   0.212   8.990   4.455  1.6501  1.1549 -0.6614
14934SOL    HW249165   0.229   9.134   4.500 -2.1674  1.1843  1.1330
14935SOL     OW49166   7.115   5.097   6.080 -0.0649  0.2976  0.2456
14935SOL    HW149167   7.058   5.032   6.120 -0.3564  0.6519  0.4069
14935SOL    HW249168   7.105   5.175   6.134  1.0866  0.1665  0.6899
14936SOL     OW49169  10.998   7.826   9.502 -0.3789  0.5646  0.1587
14936SOL    HW149170  10.969   7.886   9.433 -2.5072  0.0138  0.4863
14936SOL    HW249171  10.935   7.839   9.573  0.5437 -0.3526  1.1850
14937SOL     OW49172   2.378   4.330   1.579  0.7283 -0.1726  0.5140
14937SOL    HW149173   2.388   4.392   1.506  0.7117  1.3867  1.7744
14937SOL    HW249174   2.292   4.291   1.565 -0.3893  1.9482  0.9880
14938SOL     OW49175   1.248   7.080   3.187  0.1706  0.5252 -0.0013
14938SOL    HW149176   1.287   7.085   3.100 -1.6240  2.1398 -0.8041
14938SOL    HW249177   1.238   6.987   3.205  0.3488  0.1707 -1.6587
14939SOL     OW49178   5.074   2.436   4.032 -0.9165 -0.1760 -0.1710
14939SOL    HW149179   5.093   2.504   3.967 -1.9509  0.4466  0.1599
14939SOL    HW249180   4.981   2.446   4.051 -0.8950 -1.1499  0.5063
14940SOL     OW49181   6.540   2.953   8.747 -0.5165  0.2194  0.1277
14940SOL    HW149182   6.526   3.032   8.798  1.5381 -0.6708  2.2454
14940SOL    HW249183   6.627   2.923   8.772 -0.1776 -1.3492 -2.5387
14941SOL     OW49184   6.768   5.867   6.920 -0.4540 -0.2616 -0.4234
14941SOL    HW149185   6.802   5.942   6.870  2.8662 -0.1166  1.7659
14941SOL    HW249186   6.688   5.901   6.961 -0.4190  1.2494 -1.5102
14942SOL     OW49187   4.140  10.311   4.286  0.1419 -0.6369 -0.1519
14942SOL    HW149188   4.119  10.221   4.310  1.1283 -1.0228 -0.6773
14942SOL    HW249189   4.062  10.343   4.242 -0.8635 -0.6508  1.5489
14943SOL     OW49190   3.747   4.715   5.383 -0.6482  0.4043 -0.0118
14943SOL    HW149191   3.839   4.716   5.356 -0.2833  0.7110  1.1818
14943SOL    HW249192   3.707   4.788   5.336 -0.2844  0.2665 -0.5384
14944SOL     OW49193   5.360   5.569   8.521  0.0700  0.0624 -0.6234
14944SOL    HW149194   5.287   5.579   8.583 -0.3750 -0.2876 -1.0851
14944SOL    HW249195   5.343   5.635   8.454 -0.4962 -0.8019 -1.3679
14945SOL     OW49196   7.613   5.736   4.453  0.0064 -0.0021 -0.0582
14945SOL    HW149197   7.666   5.697   4.523 -0.0121  2.3681  1.3727
14945SOL    HW249198   7.525   5.742   4.490 -0.0386  1.1271 -0.3279
14946SOL     OW49199   0.092   2.175   2.456 -0.2067  0.2225  0.1666
14946SOL    HW149200   0.091   2.130   2.540  0.8281  1.1227  0.6863
14946SOL    HW249201   0.118   2.108   2.392  1.6838  0.1176  0.9767
14947SOL     OW49202   7.584   3.591   2.791 -0.5479  0.1098 -0.1531
14947SOL    HW149203   7.561   3.613   2.881  0.5830  3.2890 -0.5145
14947SOL    HW249204   7.510   3.622   2.739 -0.5664 -0.4143 -0.4461
14948SOL     OW49205   7.681   7.023   8.543  0.0695  0.2385 -0.1796
14948SOL    HW149206   7.672   6.946   8.487  0.0263  0.6971 -0.8089
14948SOL    HW249207   7.595   7.066   8.539 -0.1256 -0.0536  0.7301
14949SOL     OW49208  10.379   0.684   3.433  0.1797  0.3965 -0.6455
14949SOL    HW149209  10.387   0.622   3.505  1.2599  0.2764 -0.8406
14949SOL    HW249210  10.287   0.680   3.408 -0.3201  0.7791  1.0093
14950SOL     OW49211   3.660   4.417   7.466  0.7444  0.1867 -0.2358
14950SOL    HW149212   3.639   4.509   7.447 -0.0133  0.2668  0.9249
14950SOL    HW249213   3.717   4.391   7.394  0.3470  1.3397 -1.0030
14951SOL     OW49214  10.923  10.341   9.594 -0.1999  0.0477  0.2053
14951SOL    HW149215  10.993  10.310   9.536 -0.5770 -1.2979  0.4216
14951SOL    HW249216  10.850  10.282   9.576 -1.3539  1.5303 -0.1415
14952SOL     OW49217   7.956   0.458   6.829 -0.2002 -0.0795  0.1974
14952SOL    HW149218   8.007   0.537   6.813 -1.2516  0.7497  0.7590
14952SOL    HW249219   7.965   0.443   6.923  0.3284 -0.8691  0.0213
14953SOL     OW49220   0.777   8.270   9.412 -0.8929  0.2451  0.2193
14953SOL    HW149221   0.760   8.362   9.431 -0.6745  0.3325 -0.0128
14953SOL    HW249222   0.859   8.251   9.458  0.3372  0.7956 -1.6237
14954SOL     OW49223   5.306   4.886   3.075 -0.4093  0.4390 -0.0387
14954SOL    HW149224   5.355   4.804   3.078 -1.3622 -0.1808 -0.7349
14954SOL    HW249225   5.314   4.916   2.985 -0.3002  0.9691  0.1430
14955SOL     OW49226   0.922   4.623   6.444 -0.6970  0.2623  0.1605
14955SOL    HW149227   0.982   4.688   6.407 -1.7089  0.1097 -1.8785
14955SOL    HW249228   0.979   4.563   6.492  0.7907  0.2745 -1.4731
14956SOL     OW49229   9.876   7.637   7.393  0.0017 -0.0648 -0.2408
14956SOL    HW149230   9.855   7.602   7.306  1.9900  1.4734 -1.4188
14956SOL    HW249231   9.971   7.647   7.392 -0.0770  1.3185  1.6043
14957SOL     OW49232   8.511   8.792   9.026 -0.4641 -0.3423  0.2425
14957SOL    HW149233   8.556   8.875   9.013 -0.8657 -0.0427  0.7150
14957SOL    HW249234   8.538   8.762   9.112 -0.5463 -0.5585  0.1958
14958SOL     OW49235   1.332   8.179   3.381  0.1008 -0.5762 -0.2692
14958SOL    HW149236   1.302   8.234   3.453 -0.7209 -0.2892 -0.8153
14958SOL    HW249237   1.337   8.091   3.419  0.5559 -0.2865  0.3670
14959SOL     OW49238   7.586   9.428   4.974 -0.0336 -0.0683 -0.5150
14959SOL    HW149239   7.601   9.520   4.953 -0.7211  0.0985 -0.2943
14959SOL    HW249240   7.641   9.380   4.911 -0.0079  0.4783 -0.9140
14960SOL     OW49241   9.075   5.507   2.018 -0.3071  0.2419 -0.6965
14960SOL    HW149242   8.988   5.523   2.055  0.3656 -1.7074  1.9998
14960SOL    HW249243   9.134   5.561   2.071  0.4241 -0.7044 -0.5190
14961SOL     OW49244   0.542   3.073   6.876  0.4545  0.1567 -0.0129
14961SOL    HW149245   0.519   3.146   6.933  2.0444  2.0175 -1.5889
14961SOL    HW249246   0.555   3.113   6.790 -1.8231 -2.5125 -1.7698
14962SOL     OW49247   4.642   6.551   4.516  0.0683 -0.1125  0.0988
14962SOL    HW149248   4.679   6.601   4.443 -0.6337 -0.1026 -0.2498
14962SOL    HW249249   4.715   6.544   4.579  1.1679 -1.4959 -1.2607
14963SOL     OW49250   0.563   1.759   1.533  0.0986 -0.0645 -0.7442
14963SOL    HW149251   0.639   1.775   1.589  0.4728  0.0493 -1.2804
14963SOL    HW249252   0.586   1.682   1.482 -0.9936 -1.3346  0.5730
14964SOL     OW49253   2.851   6.540   7.289 -0.2828  0.1774  0.2676
14964SOL    HW149254   2.833   6.556   7.196 -0.0690  0.8124  0.3243
14964SOL    HW249255   2.788   6.596   7.335  1.1806  1.7677  0.4720
14965SOL     OW49256   3.985   1.467   2.301 -0.6305  0.5349 -0.0928
14965SOL    HW149257   4.080   1.461   2.294 -0.6564  1.3567 -1.6865
14965SOL    HW249258   3.964   1.423   2.383  1.1256  0.4217  0.3345
14966SOL     OW49259   1.631   4.859   8.469  0.3832 -0.0099  0.1622
14966SOL    HW149260   1.671   4.849   8.382  1.1821 -0.5088  0.5733
14966SOL    HW249261   1.637   4.771   8.508  1.4975  0.5694  1.3381
14967SOL     OW49262  10.525   9.132   6.156 -0.0563 -0.0582 -0.0279
14967SOL    HW149263  10.568   9.214   6.180 -1.1887  0.4334  0.3960
14967SOL    HW249264  10.590   9.065   6.176  0.1562  0.5786  1.5913
14968SOL     OW49265   5.318   9.876   4.574  0.0283  0.1427 -0.5683
14968SOL    HW149266   5.376   9.917   4.510  0.3581  0.0971 -0.2955
14968SOL    HW249267   5.354   9.901   4.659 -1.2763  1.4836 -0.3586
14969SOL     OW49268   6.078   8.402   0.522 -0.3251  0.5338  0.9653
14969SOL    HW149269   5.983   8.398   0.532 -0.3769 -0.0234  0.3230
14969SOL    HW249270   6.094   8.483   0.475 -0.6709 -0.3444 -0.7522
14970SOL     OW49271   2.786   1.053   5.419 -0.1555  0.2381 -0.4617
14970SOL    HW149272   2.704   1.059   5.370  0.5466  2.4797 -1.5184
14970SOL    HW249273   2.841   0.994   5.367 -0.7204 -0.3849 -0.3505
14971SOL     OW49274  10.887   7.890   4.579 -0.4275 -0.1600  0.5599
14971SOL    HW149275  10.937   7.917   4.656  0.0454 -0.7869  0.4815
14971SOL    HW249276  10.951   7.888   4.508 -0.8516  0.3558  0.1588
14972SOL     OW49277   1.510   5.900   0.841 -0.2363 -0.3938 -0.2320
14972SOL    HW149278   1.481   5.833   0.779 -2.1014 -0.1972  0.3881
14972SOL    HW249279   1.494   5.862   0.927  1.9113 -0.4764  0.1925
14973SOL     OW49280   1.199   3.621   0.829 -0.2539  0.1324  0.6601
14973SOL    HW149281   1.185   3.582   0.916  0.5677 -1.6519  0.0358
14973SOL    HW249282   1.152   3.564   0.769  0.1009  0.7179 -0.1939
14974SOL     OW49283   6.090   4.211   1.285  0.1626  0.1311  0.1422
14974SOL    HW149284   6.071   4.132   1.336  0.4090 -0.0211  0.0015
14974SOL    HW249285   6.004   4.251   1.270  0.0985  0.2538  0.7877
14975SOL     OW49286   8.300   4.704  10.515  0.4342 -0.2397  0.1596
14975SOL    HW149287   8.382   4.657  10.533  1.5418  1.1847 -0.9652
14975SOL    HW249288   8.299   4.774  10.580 -0.2551 -0.6292  0.5877
14976SOL     OW49289   1.854   8.669   0.267  0.1255  0.4695  0.2991
14976SOL    HW149290   1.915   8.741   0.253 -0.5233  0.8013 -1.0069
14976SOL    HW249291   1.770   8.703   0.236 -0.5000 -0.3533  1.0513
14977SOL     OW49292   5.071   8.958   1.569 -0.0866 -0.0971  0.1068
14977SOL    HW149293   5.088   9.034   1.513 -1.2832  0.3077  0.2721
14977SOL    HW249294   5.112   8.980   1.653  1.0558 -0.3859 -0.3550
14978SOL     OW49295   6.742   5.386   4.786  0.1934  0.5416  0.2609
14978SOL    HW149296   6.720   5.375   4.694  0.1255 -0.3544  0.3788
14978SOL    HW249297   6.838   5.384   4.789  0.2065  0.9044  0.1769
14979SOL     OW49298   4.016   0.514   4.312  0.3207  0.2926  0.7653
14979SOL    HW149299   4.060   0.548   4.389  0.8010  1.7538 -0.1075
14979SOL    HW249300   4.006   0.590   4.255 -0.2285 -0.7011 -0.5153
14980SOL     OW49301   0.256   4.478   1.215  1.0868  0.0609 -0.3857
14980SOL    HW149302   0.334   4.491   1.161  0.5862  1.2161 -0.8492
14980SOL    HW249303   0.277   4.519   1.299  1.8620 -1.7286  0.3658
14981SOL     OW49304  10.048   1.178   9.149 -0.6035 -0.7055 -0.9429
14981SOL    HW149305  10.093   1.094   9.160  1.2629  0.3239 -0.3068
14981SOL    HW249306   9.979   1.160   9.085 -1.2277 -3.0534  0.2594
14982SOL     OW49307   7.746   3.210   3.073 -0.1368 -0.0073  0.0865
14982SOL    HW149308   7.714   3.214   3.163 -1.8768  0.9385 -0.5193
14982SOL    HW249309   7.698   3.138   3.033 -0.4104  0.4590 -0.4421
14983SOL     OW49310   0.269   7.620   0.163 -0.4099  0.0276 -0.1903
14983SOL    HW149311   0.284   7.706   0.203  0.6651 -0.9556  1.6987
14983SOL    HW249312   0.189   7.631   0.112 -0.9908  1.8352  0.9885
14984SOL     OW49313   1.160   0.085   8.638  0.2139  0.3519  0.6758
14984SOL    HW149314   1.233   0.145   8.651  0.1209  0.9610 -1.3125
14984SOL    HW249315   1.085   0.142   8.622  0.1814 -0.2366 -1.5606
14985SOL     OW49316   0.134   3.945   9.975 -0.7339 -0.5630  0.1145
14985SOL    HW149317   0.151   3.893   9.897 -1.1605 -0.1064 -0.2905
14985SOL    HW249318   0.100   4.029   9.941 -0.8795 -0.3463  0.7806
14986SOL     OW49319   3.863   5.321   3.647 -0.0608  0.0080  0.2934
14986SOL    HW149320   3.868   5.339   3.741  0.4851  1.3750  0.0298
14986SOL    HW249321   3.813   5.395   3.612 -0.8681 -0.8581 -0.4083
14987SOL     OW49322   1.786   7.239   9.278 -0.0945 -0.4489  0.0743
14987SOL    HW149323   1.810   7.220   9.369  1.8977  3.5454  0.6307
14987SOL    HW249324   1.728   7.316   9.284 -0.8419 -0.7725 -2.0189
14988SOL     OW49325  10.956   9.005   0.695  0.5059  0.1848  0.1146
14988SOL    HW149326  10.861   9.007   0.697  0.4788  0.2150 -0.8771
14988SOL    HW249327  10.981   8.960   0.776 -0.3320  0.5267  0.5662
14989SOL     OW49328   4.401   3.995  10.500  0.1594  0.4124 -0.0117
14989SOL    HW149329   4.421   4.026  10.588  0.3733  0.7090 -0.1637
14989SOL    HW249330   4.349   3.916  10.513  3.0197 -1.5334  0.4513
14990SOL     OW49331   8.386   6.640   4.259 -0.2379 -0.2155  0.1824
14990SOL    HW149332   8.348   6.727   4.253  1.4376  0.8224  2.6716
14990SOL    HW249333   8.356   6.606   4.343  3.6239  0.5173  2.1241
14991SOL     OW49334   6.818   1.016   0.967 -0.4612 -0.3259 -0.4528
14991SOL    HW149335   6.826   1.105   0.934 -0.2098  0.4409  1.5724
14991SOL    HW249336   6.880   1.011   1.039 -1.5598 -1.6532  0.4582
14992SOL     OW49337   7.666   6.144   4.476 -0.6965  0.5329 -0.2932
14992SOL    HW149338   7.579   6.105   4.462  0.1553 -1.6047  0.0065
14992SOL    HW249339   7.677   6.146   4.571 -0.4589  0.8912 -0.3260
14993SOL     OW49340   5.104  10.947   4.074 -0.0599 -0.1691  0.0048
14993SOL    HW149341   5.047  10.874   4.099 -0.5496  0.2001 -0.0313
14993SOL    HW249342   5.093  10.954   3.979  0.0048 -0.0634  0.0053
14994SOL     OW49343   8.908   6.830   5.702 -0.3268 -0.2746 -0.2294
14994SOL    HW149344   8.912   6.922   5.677 -1.9948  0.2350  1.1889
14994SOL    HW249345   8.997   6.809   5.730  0.4100  0.4759 -1.8449
14995SOL     OW49346  10.824   4.952   8.985 -0.3060  0.0916 -0.0108
14995SOL    HW149347  10.881   4.876   8.989 -0.2841  0.1469  0.7296
14995SOL    HW249348  10.850   4.997   8.904 -0.0579 -0.4679 -0.2468
14996SOL     OW49349   0.982   2.317   7.515 -0.4647 -0.3728 -0.3459
14996SOL    HW149350   0.939   2.318   7.429  1.2701  0.6750 -1.2429
14996SOL    HW249351   1.071   2.289   7.496  0.2319  0.8669  0.9654
14997SOL     OW49352  10.960   9.058   5.009  0.4215 -0.8378 -0.2049
14997SOL    HW149353  11.047   9.079   4.975  0.1745 -1.3188 -1.1678
14997SOL    HW249354  10.911   9.140   5.002  0.0164 -1.1797 -2.1988
14998SOL     OW49355   5.318   5.293   7.275  0.1643 -0.3403 -0.2660
14998SOL    HW149356   5.393   5.271   7.219 -0.9992 -1.7394 -1.3484
14998SOL    HW249357   5.357   5.330   7.354  2.0274 -1.5581 -0.5573
14999SOL     OW49358   0.137   0.610   7.765  0.1221 -0.0204 -0.3040
14999SOL    HW149359   0.042   0.602   7.751  0.1110  0.5030 -0.5461
14999SOL    HW249360   0.146   0.656   7.848  0.1853 -1.9943  0.8293
15000SOL     OW49361   4.268   3.949   0.143  0.6245  0.1607 -0.0864
15000SOL    HW149362   4.267   4.043   0.129  1.5163  0.1948  0.0290
15000SOL    HW249363   4.178   3.921   0.126 -0.2217  1.3523  2.0446
15001SOL     OW49364  10.747   9.707   8.299 -0.6241  0.1311  0.7985
15001SOL    HW149365  10.739   9.616   8.272 -2.4012 -0.4201  2.9130
15001SOL    HW249366  10.728   9.757   8.220  2.7220 -1.1881 -1.0608
15002SOL     OW49367   7.240   6.597   7.135  0.1137 -0.0691 -0.3442
15002SOL    HW149368   7.303   6.634   7.074  0.0956  0.7469  0.1152
15002SOL    HW249369   7.292   6.575   7.213 -0.0734  0.1233 -0.1612
15003SOL     OW49370   5.991  10.151   0.361  0.0325 -0.3060  0.0897
15003SOL    HW149371   6.014  10.146   0.454 -1.1337 -0.6134  0.3735
15003SOL    HW249372   5.897  10.133   0.358 -0.3078  1.4324 -0.9777
15004SOL     OW49373   8.699   4.248   3.778  0.2773  0.6242 -0.4501
15004SOL    HW149374   8.712   4.292   3.694 -0.7530 -0.0460 -0.9812
15004SOL    HW249375   8.658   4.315   3.834 -0.5094  0.6173 -0.9928
15005SOL     OW49376   0.294   9.208   0.443 -0.8566 -0.7688  0.1855
15005SOL    HW149377   0.257   9.293   0.465 -0.3498  0.1319 -2.2019
15005SOL    HW249378   0.227   9.165   0.390 -0.0514 -0.7172 -0.9055
15006SOL     OW49379   3.716  10.434   0.947  0.1814 -0.0557 -0.3412
15006SOL    HW149380   3.663  10.509   0.919  0.3250 -0.3225 -1.3238
15006SOL    HW249381   3.807  10.466   0.942  0.4077 -0.8754 -2.7091
15007SOL     OW49382  10.814   0.053   9.625 -0.4097  0.1271 -0.2384
15007SOL    HW149383  10.891   0.079   9.676  1.4855 -2.7268 -1.3681
15007SOL    HW249384  10.846   0.046   9.535 -1.5837 -2.3829 -0.5504
15008SOL     OW49385   6.129   6.956   8.401  0.4339  0.7650 -0.6334
15008SOL    HW149386   6.110   6.909   8.320 -0.9235 -0.4896  0.3609
15008SOL    HW249387   6.188   7.026   8.375 -2.3176  2.2971 -3.2460
15009SOL     OW49388   8.094   6.781  10.364  0.6215 -0.2556  0.2161
15009SOL    HW149389   8.110   6.787  10.458 -0.2252  1.2700  0.3035
15009SOL    HW249390   8.006   6.742  10.357  0.2007  0.6800  0.1190
15010SOL     OW49391   3.550   0.607   4.726 -0.2372 -0.3092 -0.3298
15010SOL    HW149392   3.575   0.676   4.665  0.5516 -1.5763 -1.5004
15010SOL    HW249393   3.628   0.592   4.780 -0.7889  0.5016  0.7274
15011SOL     OW49394   6.516   6.249   8.182 -0.3345 -0.2898 -0.0211
15011SOL    HW149395   6.572   6.289   8.249 -1.8872 -0.6546  1.5734
15011SOL    HW249396   6.449   6.316   8.165 -0.3365 -0.4673 -0.7248
15012SOL     OW49397   5.232   4.839   5.404  0.2068  0.3040  0.2661
15012SOL    HW149398   5.305   4.779   5.389  1.0021  0.8169  1.9021
15012SOL    HW249399   5.179   4.832   5.325  2.5238  0.6428 -1.4131
15013SOL     OW49400   3.085   6.696   7.298  0.0140  0.7035  0.1797
15013SOL    HW149401   3.004   6.645   7.293  0.6119 -0.3779  0.8664
15013SOL    HW249402   3.077   6.745   7.380 -0.0702  0.8221  0.1004
15014SOL     OW49403   0.684  10.762   6.242  0.2853  0.3003 -0.2066
15014SOL    HW149404   0.723  10.803   6.319 -0.2772 -1.1675  0.9077
15014SOL    HW249405   0.737  10.794   6.169  2.3339 -0.0632  1.0403
15015SOL     OW49406   6.945   6.495   4.082  0.5895  0.4394 -0.1873
15015SOL    HW149407   6.855   6.527   4.077  0.8639  1.0552 -1.5898
15015SOL    HW249408   6.979   6.532   4.163 -0.5203 -0.1282  0.5782
15016SOL     OW49409   8.505   6.189  10.756  0.2947 -0.3250  0.5260
15016SOL    HW149410   8.416   6.218  10.778  0.1799 -0.5983  0.4201
15016SOL    HW249411   8.531   6.134  10.830  0.0041 -1.0410  0.1006
15017SOL     OW49412   5.804   8.605   7.550  0.2037  0.3780 -0.4966
15017SOL    HW149413   5.747   8.637   7.619 -0.5585 -0.8810 -0.5094
15017SOL    HW249414   5.892   8.633   7.576 -0.0520 -0.1602  1.0461
15018SOL     OW49415   6.279   7.773   6.249  0.2162 -0.4644  0.5103
15018SOL    HW149416   6.197   7.759   6.201  0.7231 -0.4063 -0.3926
15018SOL    HW249417   6.252   7.811   6.333 -0.6479 -0.1027  0.0734
15019SOL     OW49418   6.778   7.026   6.690  0.0879  0.1766 -0.1279
15019SOL    HW149419   6.698   7.078   6.702  0.8450  2.0272 -2.3249
15019SOL    HW249420   6.747   6.943   6.654 -0.8984  0.6149 -0.3291
15020SOL     OW49421   9.748   8.008  10.740  0.3114  0.2458  0.3978
15020SOL    HW149422   9.785   8.092  10.767 -0.2780  0.6281  0.0340
15020SOL    HW249423   9.661   8.006  10.780  0.3362 -0.2053  0.4330
15021SOL     OW49424   9.137   9.206   3.732 -0.1579 -0.2694  0.1144
15021SOL    HW149425   9.101   9.214   3.643 -1.4474 -0.7767  0.5665
15021SOL    HW249426   9.065   9.171   3.784  0.3826  0.6166  1.5165
15022SOL     OW49427   0.578   1.721   0.431  0.1033  0.1750  0.2909
15022SOL    HW149428   0.566   1.773   0.510  0.6594  0.1010  0.4245
15022SOL    HW249429   0.490   1.715   0.393 -0.3321 -0.5480  1.3797
15023SOL     OW49430  10.189  10.489   1.154  0.0734  0.8534  0.3743
15023SOL    HW149431  10.140  10.465   1.075  0.6408 -0.8693  0.5031
15023SOL    HW249432  10.164  10.580   1.171 -1.0292  0.8581 -1.0607
15024SOL     OW49433   8.899   3.079   2.989 -0.0166  0.1591  0.0755
15024SOL    HW149434   8.923   3.087   3.081 -0.0801  0.7893  0.0441
15024SOL    HW249435   8.966   3.023   2.951 -0.3702 -0.6611  0.6467
15025SOL     OW49436   1.980   9.048   8.472 -0.0093  0.0640  0.0208
15025SOL    HW149437   1.963   9.086   8.386  0.1097 -0.4737 -0.2462
15025SOL    HW249438   1.922   9.095   8.531 -0.2032  0.3352 -0.3824
15026SOL     OW49439  10.691   4.586   8.579 -0.6822 -0.1566  0.6052
15026SOL    HW149440  10.735   4.653   8.632  0.7387 -0.9154  0.4293
15026SOL    HW249441  10.671   4.516   8.641  0.3652 -0.7526  0.2881
15027SOL     OW49442   9.218   3.218   9.181 -0.0954  0.2164 -0.2225
15027SOL    HW149443   9.171   3.233   9.099 -1.0538 -2.7527 -0.3076
15027SOL    HW249444   9.310   3.236   9.159 -0.6210  2.0259 -1.1681
15028SOL     OW49445   2.787   8.899   0.129 -0.1322  0.1901  0.6982
15028SOL    HW149446   2.711   8.860   0.173 -0.7185  1.6603  1.0525
15028SOL    HW249447   2.751   8.975   0.083  0.8843  0.0513 -0.3633
15029SOL     OW49448   7.257   5.805   2.174 -0.0285  0.3652 -0.1007
15029SOL    HW149449   7.208   5.845   2.246 -3.1022 -0.0658 -1.8002
15029SOL    HW249450   7.233   5.713   2.177 -0.4120  0.3780 -1.7723
15030SOL     OW49451   9.190   6.218   8.057 -0.1704 -0.4701 -0.9562
15030SOL    HW149452   9.280   6.188   8.045 -0.5995 -2.1844 -0.1926
15030SOL    HW249453   9.136   6.143   8.033 -1.3136 -0.2866  0.8598
15031SOL     OW49454   1.374   3.712   3.982 -0.5372  0.1992  0.2584
15031SOL    HW149455   1.409   3.674   3.901  0.7749  0.9301  0.4420
15031SOL    HW249456   1.368   3.638   4.043 -2.0123 -0.4528 -0.6244
15032SOL     OW49457   0.662   5.606   4.715  0.1731 -0.0618 -0.2592
15032SOL    HW149458   0.639   5.684   4.664 -0.8682  0.7758  1.3744
15032SOL    HW249459   0.604   5.537   4.682 -3.0687  1.3227  1.9255
15033SOL     OW49460   9.893   3.042   4.397  0.0321 -0.1185  0.4644
15033SOL    HW149461   9.824   3.088   4.445 -0.2654 -0.2368  0.1555
15033SOL    HW249462   9.902   3.091   4.315 -0.2730 -0.5957  0.1398
15034SOL     OW49463   3.013   7.259   0.786  0.3045 -0.6057 -0.2441
15034SOL    HW149464   3.004   7.339   0.736 -0.4027 -1.8864 -2.2913
15034SOL    HW249465   3.087   7.275   0.845  0.0066  1.5970 -0.3925
15035SOL     OW49466   7.322   4.332   9.185 -0.5529  0.3496  0.2582
15035SOL    HW149467   7.292   4.244   9.208  0.0914  0.6091  2.2220
15035SOL    HW249468   7.366   4.321   9.101 -2.6551 -0.7289 -0.7796
15036SOL     OW49469   8.474   8.682   2.562 -0.4927 -0.4655 -0.1120
15036SOL    HW149470   8.446   8.610   2.619  2.5913 -2.3322 -0.7258
15036SOL    HW249471   8.461   8.649   2.473 -1.6905  0.9216 -0.4877
15037SOL     OW49472   0.837   2.440   8.657 -0.3587  0.3561 -0.0303
15037SOL    HW149473   0.829   2.517   8.714  0.3110  0.8645 -0.6026
15037SOL    HW249474   0.880   2.374   8.711 -0.9881  0.3596  0.4827
15038SOL     OW49475   2.878  10.582   7.035  0.3417  0.0555 -0.1868
15038SOL    HW149476   2.893  10.562   7.127 -0.0921 -2.1348 -0.5345
15038SOL    HW249477   2.871  10.678   7.032  1.6656  0.2751  1.8209
15039SOL     OW49478   1.897   4.149   9.035 -0.2955  0.2748 -0.1789
15039SOL    HW149479   1.924   4.082   9.098  0.0332  0.5854  0.0188
15039SOL    HW249480   1.802   4.140   9.029 -0.1372 -0.9714 -1.0321
15040SOL     OW49481   8.670   7.568   0.262  0.1710 -0.2492 -0.3973
15040SOL    HW149482   8.723   7.610   0.330 -0.4607  0.3599 -0.2674
15040SOL    HW249483   8.733   7.542   0.195  0.5682  1.2052 -0.6377
15041SOL     OW49484  10.244   0.658   2.436 -0.6128 -0.1099  0.5237
15041SOL    HW149485  10.197   0.620   2.361 -3.1592  1.6385  1.1295
15041SOL    HW249486  10.184   0.723   2.472  1.5370  0.8538  2.6220
15042SOL     OW49487  10.583   3.963   7.862  0.0145 -0.4866  0.2155
15042SOL    HW149488  10.639   3.950   7.939 -0.2558 -0.6883  0.3771
15042SOL    HW249489  10.635   3.929   7.789  0.8235  0.8957  0.1076
15043SOL     OW49490   9.929   4.485   5.273 -0.0012 -0.4304  0.6574
15043SOL    HW149491   9.998   4.442   5.323 -0.0661 -1.0551  0.2138
15043SOL    HW249492   9.878   4.532   5.340  1.5275  1.0256  0.8576
15044SOL     OW49493   5.764   0.561   3.237  0.1174  0.6358  0.1282
15044SOL    HW149494   5.737   0.472   3.260 -3.2601  1.5001 -0.0513
15044SOL    HW249495   5.793   0.555   3.146 -2.4921  0.0623 -0.7360
15045SOL     OW49496   6.559   0.018  10.499  0.3334 -0.1935 -0.1513
15045SOL    HW149497   6.643   0.004  10.542  1.5901  1.7679 -1.8134
15045SOL    HW249498   6.499   0.041  10.571  1.2613 -1.2751  1.0130
15046SOL     OW49499  10.705   5.320   7.417  0.1424 -0.0028 -0.0248
15046SOL    HW149500  10.767   5.388   7.443  0.1574 -0.6698  1.8524
15046SOL    HW249501  10.643   5.365   7.359  0.3467  1.5284  0.8756
15047SOL     OW49502   4.454   9.549   5.410 -0.0708 -0.0828  0.5822
15047SOL    HW149503   4.469   9.475   5.468  0.8956 -0.5024 -0.1727
15047SOL    HW249504   4.539   9.567   5.370 -0.8620 -0.4317 -1.4301
15048SOL     OW49505   8.075   2.323   2.285 -0.7974 -0.2403  0.0402
15048SOL    HW149506   8.107   2.412   2.300 -1.5107 -0.2402  1.7025
15048SOL    HW249507   8.081   2.281   2.370  0.2080 -2.0437 -0.8564
15049SOL     OW49508   9.380   7.070   6.015  0.1452 -0.2271  0.0661
15049SOL    HW149509   9.368   7.051   5.922  0.7851  0.6481 -0.2082
15049SOL    HW249510   9.334   7.153   6.029  1.5927  0.6093  0.0968
15050SOL     OW49511   7.518   4.691   6.434  0.0842 -0.1657 -0.6847
15050SOL    HW149512   7.591   4.720   6.379  0.7176  3.4197  1.6995
15050SOL    HW249513   7.560   4.664   6.515 -1.1239  0.6061  0.2173
15051SOL     OW49514   6.149   5.517   2.960 -0.2293 -0.0251 -0.3575
15051SOL    HW149515   6.199   5.569   2.897  0.8344 -1.3839 -0.6777
15051SOL    HW249516   6.168   5.557   3.045  2.3795 -1.1569 -0.3169
15052SOL     OW49517   1.121   5.040   7.503 -0.3461  0.4148 -0.1828
15052SOL    HW149518   1.036   5.084   7.499 -0.5634  0.0415  0.2462
15052SOL    HW249519   1.122   4.997   7.589 -0.0618 -0.2628 -0.5204
15053SOL     OW49520   4.583   8.685   7.533  0.0994 -0.0673  0.1112
15053SOL    HW149521   4.597   8.717   7.622  0.8043  0.4244 -0.1667
15053SOL    HW249522   4.488   8.683   7.523  0.0209  0.3228  0.7192
15054SOL     OW49523   4.477  10.292   4.950  0.0267 -0.7662 -0.0388
15054SOL    HW149524   4.399  10.340   4.923 -0.0315 -0.5303  0.5300
15054SOL    HW249525   4.547  10.326   4.894 -0.4494 -1.6815 -1.2357
15055SOL     OW49526  10.194   9.363   2.909 -1.3361  0.4515  0.0876
15055SOL    HW149527  10.280   9.344   2.946 -1.1403  0.3261 -0.4220
15055SOL    HW249528  10.166   9.280   2.870 -1.3371  0.6980 -0.4408
15056SOL     OW49529   6.713   6.829   7.084 -0.4281  0.2656 -0.8100
15056SOL    HW149530   6.804   6.848   7.107  0.1185 -0.0049 -2.5799
15056SOL    HW249531   6.709   6.734   7.075 -1.0591  0.2153 -0.1205
15057SOL     OW49532   8.228   1.888   1.582  0.4845 -0.0169 -0.2438
15057SOL    HW149533   8.178   1.946   1.524  0.8668 -0.4589 -1.0288
15057SOL    HW249534   8.281   1.947   1.636 -0.2217  0.4181 -0.0118
15058SOL     OW49535   3.867  10.534   5.779  0.0301  0.4011  0.0264
15058SOL    HW149536   3.802  10.567   5.717  1.6784 -1.5096 -3.0067
15058SOL    HW249537   3.941  10.508   5.724  2.1305 -0.4113  2.9843
15059SOL     OW49538   2.118   1.098   5.159  0.2042 -0.1382 -0.2237
15059SOL    HW149539   2.122   1.184   5.201  0.6310 -0.6347  0.7931
15059SOL    HW249540   2.045   1.054   5.202 -0.6475  0.0366 -1.4221
15060SOL     OW49541   2.298   0.166   6.166  0.4448 -0.5641  0.2800
15060SOL    HW149542   2.357   0.125   6.230  1.0403 -0.4535 -0.1835
15060SOL    HW249543   2.286   0.255   6.197  1.4986 -0.2185 -0.2493
15061SOL     OW49544   7.714   4.139   6.031 -0.4235  0.1007  0.1956
15061SOL    HW149545   7.791   4.083   6.039 -0.9699 -0.6480  0.2897
15061SOL    HW249546   7.661   4.119   6.108  0.0945  1.9060  1.0780
15062SOL     OW49547   6.940   4.612   2.198 -0.1323  0.1930  0.3188
15062SOL    HW149548   6.868   4.671   2.174 -0.1240  0.3855  0.7616
15062SOL    HW249549   6.913   4.527   2.163 -0.2173  0.4239 -0.1858
15063SOL     OW49550   4.406   1.629   2.708  0.0952 -0.5289 -0.3393
15063SOL    HW149551   4.322   1.604   2.671  0.3580 -1.8712 -0.0860
15063SOL    HW249552   4.438   1.550   2.752  0.3705  0.6438  1.6969
15064SOL     OW49553   1.442   7.448   8.135 -0.8438  0.1888 -0.4497
15064SOL    HW149554   1.468   7.460   8.043 -0.3972  1.3492 -0.1876
15064SOL    HW249555   1.351   7.478   8.138  0.1473  3.5346  0.1227
15065SOL     OW49556   6.140   4.337   4.661 -0.0267 -0.0721 -0.0468
15065SOL    HW149557   6.113   4.421   4.699 -2.2831 -0.1622 -1.2342
15065SOL    HW249558   6.071   4.318   4.597  0.8449 -2.4708 -0.3411
15066SOL     OW49559   2.667   2.081   8.235  0.0040 -0.2927 -0.0412
15066SOL    HW149560   2.579   2.059   8.204  0.4665  0.0807 -1.7016
15066SOL    HW249561   2.673   2.038   8.321 -1.2357 -1.6400 -0.5752
15067SOL     OW49562   8.707   0.672   6.832  0.0906 -0.1343  0.0284
15067SOL    HW149563   8.615   0.652   6.851  0.0147 -0.8800 -1.0448
15067SOL    HW249564   8.750   0.587   6.832  0.7850  0.2073  0.4767
15068SOL     OW49565   0.799   1.807   8.697 -0.4014 -0.1190 -0.2808
15068SOL    HW149566   0.755   1.821   8.781  1.8384  0.4773  0.8792
15068SOL    HW249567   0.731   1.822   8.631 -1.7204  1.6351  1.3607
15069SOL     OW49568   4.103   2.359   6.116 -0.3136  0.0014 -0.6439
15069SOL    HW149569   4.120   2.322   6.202  1.9279  0.9600 -0.5978
15069SOL    HW249570   4.009   2.345   6.102 -0.6208 -0.7213  1.6658
15070SOL     OW49571  10.040   7.917   8.271  0.0240 -0.0755 -0.1069
15070SOL    HW149572   9.959   7.873   8.296 -0.0593  0.3691  0.4116
15070SOL    HW249573  10.097   7.846   8.240 -0.2337 -0.4991  0.3776
15071SOL     OW49574   1.814   8.248  10.667 -0.3504  0.5130  0.2714
15071SOL    HW149575   1.804   8.307  10.593 -1.6128 -0.6772 -0.5592
15071SOL    HW249576   1.893   8.198  10.646 -1.4560 -0.7901 -1.0454
15072SOL     OW49577   3.715   8.799   7.722 -0.2982 -0.3337 -0.2593
15072SOL    HW149578   3.679   8.831   7.804 -1.4760  1.1746 -1.2941
15072SOL    HW249579   3.770   8.724   7.746  0.9594  1.2223  2.1108
15073SOL     OW49580  10.150   0.365   2.499  0.4884  0.1755 -0.1194
15073SOL    HW149581  10.180   0.412   2.421  1.1279 -0.8363 -0.4948
15073SOL    HW249582  10.229   0.323   2.533 -0.0868 -0.7189  0.1444
15074SOL     OW49583   6.569   4.423   4.376  0.0249 -0.2605  0.7971
15074SOL    HW149584   6.605   4.442   4.289 -0.8184 -2.5963 -0.1373
15074SOL    HW249585   6.644   4.390   4.426  0.3603  0.3902  0.7397
15075SOL     OW49586   9.819   0.879   6.353 -0.1827 -0.1400 -0.4284
15075SOL    HW149587   9.735   0.868   6.397 -0.9390  0.8957 -1.5662
15075SOL    HW249588   9.856   0.791   6.349 -1.0468 -0.5558  0.3788
15076SOL     OW49589   5.287   5.913   3.451  0.2345  0.2422 -0.4221
15076SOL    HW149590   5.226   5.946   3.385  1.1436  0.6045 -1.1068
15076SOL    HW249591   5.284   5.818   3.441 -1.1702  0.1840  0.4333
15077SOL     OW49592   8.273   7.816   2.289  0.5740 -0.3532  0.0870
15077SOL    HW149593   8.291   7.818   2.383  0.6783 -0.3527  0.0678
15077SOL    HW249594   8.208   7.885   2.276 -0.5091 -1.3016  0.3689
15078SOL     OW49595   8.733   2.276  10.085  0.5689  0.0670 -0.3982
15078SOL    HW149596   8.775   2.211  10.028 -0.7797 -1.4024  0.2019
15078SOL    HW249597   8.667   2.226  10.133  0.6222  1.5699  1.3397
15079SOL     OW49598   2.510   7.045   4.008  0.2496 -0.5285  0.8010
15079SOL    HW149599   2.598   7.034   4.043  0.3939  2.3549  1.5665
15079SOL    HW249600   2.514   7.127   3.958 -1.8477 -0.6609  0.3173
15080SOL     OW49601  10.257   1.265   7.729  0.3463 -0.1177  0.0572
15080SOL    HW149602  10.304   1.319   7.792  0.8824 -1.6411  1.0096
15080SOL    HW249603  10.175   1.242   7.773  1.2406 -2.1915  0.7700
15081SOL     OW49604   5.437   3.031   7.325 -0.0190  0.2355  0.3509
15081SOL    HW149605   5.435   2.937   7.307  3.2705 -0.3567  2.1983
15081SOL    HW249606   5.401   3.039   7.413  1.2620  0.3973  0.8856
15082SOL     OW49607   1.435   0.496   3.934 -0.2085 -0.1418  0.1099
15082SOL    HW149608   1.377   0.422   3.917  0.9560 -1.3131  1.0137
15082SOL    HW249609   1.503   0.489   3.867 -0.9328  1.0962 -0.8080
15083SOL     OW49610   4.259   4.929   9.396 -0.3078 -0.0617  0.3730
15083SOL    HW149611   4.173   4.889   9.405 -1.0782  1.3664 -0.3294
15083SOL    HW249612   4.312   4.889   9.465 -1.2233 -1.7210  0.1626
15084SOL     OW49613  10.338   4.940   5.351  0.2717 -0.1864 -0.8469
15084SOL    HW149614  10.277   4.944   5.424  0.7514 -2.3096 -0.2667
15084SOL    HW249615  10.325   5.022   5.304 -0.9194  0.6807  0.9154
15085SOL     OW49616   8.724   5.498   5.779 -0.2027  0.2442 -0.3174
15085SOL    HW149617   8.699   5.424   5.723  2.9695  0.6916 -2.6148
15085SOL    HW249618   8.683   5.574   5.737  0.6176  0.3375 -0.9903
15086SOL     OW49619   7.361  10.588   9.015  0.1057 -0.3877  0.0959
15086SOL    HW149620   7.435  10.649   9.012 -1.8362  2.0894 -0.5750
15086SOL    HW249621   7.309  10.617   9.089  0.0446 -2.4826  0.9304
15087SOL     OW49622   2.560   2.554   5.656 -0.0429 -0.3073  0.2323
15087SOL    HW149623   2.468   2.531   5.644  0.3380 -1.5574 -0.5522
15087SOL    HW249624   2.559   2.647   5.678 -1.4736 -0.2405 -0.0180
15088SOL     OW49625   4.751   9.081   7.904 -0.2142  0.1331  0.9264
15088SOL    HW149626   4.713   9.011   7.851 -0.8880 -0.3318  1.9903
15088SOL    HW249627   4.677   9.139   7.924  0.4512  1.5519 -0.4897
15089SOL     OW49628   5.944   7.720   2.791  0.0452  0.3358 -0.0320
15089SOL    HW149629   6.016   7.743   2.731  0.8572  1.3404  1.2674
15089SOL    HW249630   5.988   7.690   2.870 -0.9963 -0.1180  0.3803
15090SOL     OW49631  10.270   7.726   1.244  0.1908  0.1353  0.1667
15090SOL    HW149632  10.218   7.674   1.182 -0.6615 -0.1775  1.1115
15090SOL    HW249633  10.313   7.660   1.299  0.8927  0.4105 -0.0460
15091SOL     OW49634   6.763   1.611   0.179  0.2030 -0.3065 -0.1035
15091SOL    HW149635   6.730   1.527   0.209  0.8288 -0.0133  1.5194
15091SOL    HW249636   6.833   1.589   0.118 -0.3236 -0.9377 -0.4932
15092SOL     OW49637   4.588   9.510   8.051 -0.2162 -0.3681 -0.2297
15092SOL    HW149638   4.504   9.546   8.023  0.3948  0.5810 -0.9292
15092SOL    HW249639   4.580   9.500   8.146 -0.8666  0.3845 -0.1997
15093SOL     OW49640   3.063   3.529   7.217  0.8305 -0.0301  0.4150
15093SOL    HW149641   3.026   3.480   7.290 -1.0535  0.6806 -0.0197
15093SOL    HW249642   3.083   3.463   7.151  0.4047 -0.4310  0.6888
15094SOL     OW49643   3.752   4.944   2.785 -0.0919 -0.6852  0.1205
15094SOL    HW149644   3.690   4.901   2.844  0.6431 -3.0727 -0.7238
15094SOL    HW249645   3.822   4.880   2.774  2.1029  1.5581  0.3179
15095SOL     OW49646  10.428  10.299   4.120  0.8455  0.3062  0.2672
15095SOL    HW149647  10.522  10.278   4.117  0.4299 -1.7125 -0.3940
15095SOL    HW249648  10.388  10.223   4.161 -0.7131  0.2099 -1.2993
15096SOL     OW49649   1.363   6.116   0.734  0.6972  0.5041 -0.2748
15096SOL    HW149650   1.290   6.055   0.721  0.3824  0.8810 -0.2999
15096SOL    HW249651   1.426   6.068   0.788 -0.4833  0.8902  1.5094
15097SOL     OW49652   2.049   3.381   4.197 -0.4908  0.7933  0.3652
15097SOL    HW149653   2.063   3.418   4.284  0.1571 -0.0141  0.6258
15097SOL    HW249654   2.086   3.445   4.137 -0.4612  1.1125  0.7230
15098SOL     OW49655  10.194   9.916   3.674 -0.0736 -0.6214  0.4623
15098SOL    HW149656  10.120   9.912   3.613  0.0240  1.5377  0.1072
15098SOL    HW249657  10.257   9.974   3.630  0.3038  0.4253  2.3000
15099SOL     OW49658   7.550   9.086  10.034 -0.1287 -0.1947  0.2128
15099SOL    HW149659   7.570   9.171  10.075 -0.9056 -0.3989  1.0580
15099SOL    HW249660   7.528   9.108   9.944 -1.9057  0.7287  0.8150
15100SOL     OW49661   8.590   2.150   6.082 -0.3534 -0.0057  0.5230
15100SOL    HW149662   8.523   2.177   6.019  0.3735 -0.0913 -0.2974
15100SOL    HW249663   8.609   2.059   6.058  2.0040  0.7988 -1.0439
15101SOL     OW49664   3.390   8.335   1.626  0.3871  0.0039  0.0939
15101SOL    HW149665   3.344   8.275   1.569 -0.5611  0.0617  0.7811
15101SOL    HW249666   3.325   8.402   1.648  0.6808 -0.1014  1.3495
15102SOL     OW49667   7.128   7.349   5.912 -0.1608 -0.4672 -0.1047
15102SOL    HW149668   7.148   7.291   5.839  2.1734 -0.1017  0.1734
15102SOL    HW249669   7.131   7.437   5.874  0.0321 -0.3306  0.2273
15103SOL     OW49670   3.579   5.636   3.772 -0.6165 -0.1437  0.2793
15103SOL    HW149671   3.506   5.637   3.835 -0.4532 -1.3705  0.5026
15103SOL    HW249672   3.540   5.606   3.690 -0.8102  1.3712 -0.2288
15104SOL     OW49673   0.197   2.006   7.098  0.1663 -0.3300 -0.5485
15104SOL    HW149674   0.174   1.963   7.181  1.3250 -0.6412 -0.3789
15104SOL    HW249675   0.289   1.983   7.083 -0.4755 -1.7085 -2.8103
15105SOL     OW49676   3.126   3.485   3.046  0.2566  0.6840  0.0457
15105SOL    HW149677   3.150   3.485   3.139  2.8673 -0.1649 -0.5601
15105SOL    HW249678   3.079   3.402   3.034  3.0267 -0.9955 -0.0218
15106SOL     OW49679   4.413   0.003   9.752  0.2184 -0.2571  0.6306
15106SOL    HW149680   4.424   0.094   9.778  2.9027 -0.9768  2.4437
15106SOL    HW249681   4.322  -0.017   9.776  0.1056  1.4642  1.8661
15107SOL     OW49682   5.551   4.324   7.221 -0.4272 -0.5078  0.0101
15107SOL    HW149683   5.523   4.318   7.130  1.1731  0.6950 -0.5961
15107SOL    HW249684   5.645   4.311   7.219 -0.6800 -3.9302  1.9373
15108SOL     OW49685   8.267   6.571   1.771 -0.8760  0.5043  0.6976
15108SOL    HW149686   8.356   6.542   1.792 -0.7567 -0.0724 -0.4923
15108SOL    HW249687   8.278   6.659   1.735 -0.5393 -0.2827 -1.2196
15109SOL     OW49688   7.883   4.605   9.629 -0.5356  0.3502  0.6454
15109SOL    HW149689   7.883   4.690   9.585  0.7720 -0.2728 -0.6604
15109SOL    HW249690   7.871   4.625   9.721  2.0428  2.1764  0.6971
15110SOL     OW49691   1.792   2.166   4.310 -0.9376  0.0983  0.2411
15110SOL    HW149692   1.797   2.074   4.333 -0.7768  0.4364  1.6585
15110SOL    HW249693   1.703   2.192   4.336 -0.9739  0.3477 -0.1298
15111SOL     OW49694   2.948   5.214   0.349 -0.6723  0.3807  0.7350
15111SOL    HW149695   2.862   5.214   0.391  0.4276  0.2768  3.1353
15111SOL    HW249696   3.009   5.235   0.420  1.2401  1.0480 -1.0297
15112SOL     OW49697   2.889   0.560   4.820 -0.6630  0.5196 -0.1436
15112SOL    HW149698   2.851   0.641   4.785 -0.2102  0.7346 -0.1372
15112SOL    HW249699   2.956   0.536   4.757  1.4494  1.9042  1.4664
15113SOL     OW49700   8.354   7.248   5.854  0.3229  0.4090 -0.1355
15113SOL    HW149701   8.348   7.329   5.803  0.3140  0.0828 -0.6499
15113SOL    HW249702   8.342   7.178   5.791  0.9686 -0.0181  0.2018
15114SOL     OW49703  10.382   3.983   4.318  0.0757 -0.0429  0.5610
15114SOL    HW149704  10.395   3.894   4.351  0.6277  0.4619  1.7668
15114SOL    HW249705  10.336   3.971   4.235  2.8286 -1.6722 -0.9205
15115SOL     OW49706   8.504   0.215   9.432  0.0586  0.0492 -0.5089
15115SOL    HW149707   8.480   0.292   9.380  0.9086 -0.2974 -1.4457
15115SOL    HW249708   8.422   0.170   9.448 -0.4540  1.1435  0.0495
15116SOL     OW49709   1.070   3.972   0.963 -0.1973 -0.2671 -0.0839
15116SOL    HW149710   0.994   3.931   1.003  0.5619 -0.7815  0.8465
15116SOL    HW249711   1.145   3.922   0.994  0.7109  1.4332  0.5967
15117SOL     OW49712   5.990   1.108   7.293 -0.1780 -0.4058 -0.1565
15117SOL    HW149713   6.048   1.086   7.220 -0.4206 -0.7530 -0.2474
15117SOL    HW249714   6.003   1.038   7.357 -2.4516 -2.0480 -1.3092
15118SOL     OW49715   1.993   0.350   0.681 -0.0652  0.2263  0.2196
15118SOL    HW149716   2.023   0.260   0.666 -0.4956 -0.1119  1.3154
15118SOL    HW249717   2.068   0.404   0.657  0.0532 -0.3916 -0.8661
15119SOL     OW49718   5.596   9.411  10.720 -0.3783  0.9276 -0.0427
15119SOL    HW149719   5.598   9.360  10.639 -1.5653  2.1820 -0.9096
15119SOL    HW249720   5.590   9.346  10.789  0.9009 -0.1934 -0.9278
15120SOL     OW49721   9.497   0.383   5.008  0.3318  0.3109 -0.1335
15120SOL    HW149722   9.492   0.291   4.980 -0.0859 -0.3517  1.9141
15120SOL    HW249723   9.589   0.406   4.997  0.4564 -0.3697 -0.6180
15121SOL     OW49724   6.061   5.750   4.651  0.8559 -0.4273 -0.3068
15121SOL    HW149725   6.136   5.809   4.639  1.6800 -0.8504  2.2077
15121SOL    HW249726   6.099   5.663   4.657  0.0456 -0.7642  0.0600
15122SOL     OW49727   4.647   3.404   3.268  0.9177 -0.3800  0.1947
15122SOL    HW149728   4.557   3.373   3.257  1.1125 -0.7694 -0.3338
15122SOL    HW249729   4.639   3.500   3.265  0.7474 -0.3988 -2.0339
15123SOL     OW49730   7.339   1.083   9.884  0.1862  0.2755  0.0075
15123SOL    HW149731   7.396   1.083   9.808  0.7359  0.1751  0.4182
15123SOL    HW249732   7.337   0.992   9.913 -0.9708  0.0918 -0.5824
15124SOL     OW49733   5.614   2.457   1.553 -0.2687 -0.2056  0.2104
15124SOL    HW149734   5.705   2.477   1.531 -0.4659  0.1621 -0.2667
15124SOL    HW249735   5.603   2.494   1.641  0.0849 -0.3728  0.3252
15125SOL     OW49736   3.229   9.339  11.110  0.0371  0.1870 -0.0223
15125SOL    HW149737   3.274   9.423  11.119  0.3388  0.0502 -0.2319
15125SOL    HW249738   3.220   9.308  11.200 -0.9085  0.8701  0.1325
15126SOL     OW49739   7.409   4.070   3.607 -0.2224 -0.6898 -0.1443
15126SOL    HW149740   7.393   3.976   3.600  0.7468 -0.9511  0.9026
15126SOL    HW249741   7.343   4.110   3.550 -1.8562 -1.9156  0.8000
15127SOL     OW49742   9.104   6.156   9.915 -0.3740  0.2987 -0.0965
15127SOL    HW149743   9.175   6.142   9.977 -1.1529  1.0005  0.9920
15127SOL    HW249744   9.085   6.069   9.879 -0.3383 -0.2355  1.1439
15128SOL     OW49745  10.326   2.794   1.587 -0.6268 -0.0523  0.4955
15128SOL    HW149746  10.242   2.840   1.579 -0.7171 -0.1621  0.7933
15128SOL    HW249747  10.302   2.703   1.603 -0.4491 -0.1305  0.3196
15129SOL     OW49748   5.565   8.684   2.480 -0.1545  0.1782  0.1293
15129SOL    HW149749   5.603   8.597   2.469  0.7065  0.3088  1.7119
15129SOL    HW249750   5.640   8.744   2.477 -0.7250  0.8647 -0.8489
15130SOL     OW49751   3.616   8.821   1.147 -0.1217 -0.4585  0.1757
15130SOL    HW149752   3.594   8.865   1.229  1.1135 -1.6614  1.1995
15130SOL    HW249753   3.546   8.758   1.134 -1.0511  0.6711 -0.4529
15131SOL     OW49754   7.595  10.007   1.587  0.0845 -0.4913 -0.1880
15131SOL    HW149755   7.546   9.999   1.505  0.0239 -2.2460 -0.0148
15131SOL    HW249756   7.645   9.926   1.594 -0.1065 -0.5141  1.6331
15132SOL     OW49757   3.077   3.470   4.030 -0.0690  0.3505 -0.1448
15132SOL    HW149758   3.024   3.550   4.037 -0.1995  0.2807 -0.3307
15132SOL    HW249759   3.162   3.501   3.999  0.4046  0.6171  1.3391
15133SOL     OW49760   9.499   6.095  10.703  0.1422  0.0079  0.0993
15133SOL    HW149761   9.507   6.055  10.617 -0.3423  0.4144 -0.1386
15133SOL    HW249762   9.422   6.054  10.742  0.5734 -0.4414  0.4885
15134SOL     OW49763   0.485   0.012   8.587  0.2267  0.0024  0.0498
15134SOL    HW149764   0.416   0.012   8.520  0.3719  0.2599 -0.0976
15134SOL    HW249765   0.440  -0.016   8.667  0.0549 -0.3141 -0.1558
15135SOL     OW49766   8.079   8.926   9.411  0.2561 -0.2505  0.0898
15135SOL    HW149767   8.126   8.964   9.485 -0.6775 -0.9465  1.0854
15135SOL    HW249768   8.025   8.857   9.450 -1.5808  0.4948 -0.9692
15136SOL     OW49769   8.667   1.140   4.114  0.0615 -0.0989  0.1836
15136SOL    HW149770   8.761   1.136   4.133 -0.1054  2.1460  1.8854
15136SOL    HW249771   8.654   1.225   4.072 -1.0910 -0.8471 -1.0693
15137SOL     OW49772   7.353   1.076   3.916 -0.1184 -0.3151  0.5087
15137SOL    HW149773   7.299   1.025   3.855 -1.4209 -0.0861  1.4194
15137SOL    HW249774   7.360   1.162   3.876  1.7402 -1.0401 -0.8350
15138SOL     OW49775   3.339   5.824   6.091  0.2315 -0.2428 -0.8939
15138SOL    HW149776   3.349   5.810   5.997 -0.4433  1.8417 -1.3251
15138SOL    HW249777   3.420   5.868   6.118  0.1754 -0.3111 -0.6090
15139SOL     OW49778  10.329   0.650   5.421  0.0378 -0.0249  0.1109
15139SOL    HW149779  10.319   0.740   5.451 -1.4670  0.1415 -0.7620
15139SOL    HW249780  10.302   0.597   5.496  0.8388  0.2334  0.5969
15140SOL     OW49781  11.115   7.369   1.192 -0.3500 -0.5319 -0.1766
15140SOL    HW149782  11.039   7.318   1.164 -0.9629 -0.6529  1.6042
15140SOL    HW249783  11.190   7.312   1.173 -0.9643 -1.8275  1.0811
15141SOL     OW49784   4.401   0.938   2.072 -0.7232  0.6458 -0.5203
15141SOL    HW149785   4.394   1.033   2.066 -2.5620  0.5332 -0.6960
15141SOL    HW249786   4.469   0.923   2.138 -0.4745  2.0763 -0.4220
15142SOL     OW49787   5.550   5.880   5.813  0.2961 -0.2800  0.0615
15142SOL    HW149788   5.629   5.901   5.763  1.0659 -1.8393  0.5729
15142SOL    HW249789   5.479   5.917   5.760  1.2589  0.0903 -1.0346
15143SOL     OW49790   8.875   6.866   8.386  0.4230  0.2504 -0.2233
15143SOL    HW149791   8.852   6.808   8.313  0.3587  1.1185 -0.9163
15143SOL    HW249792   8.793   6.912   8.407  0.3959 -0.1433  0.5328
15144SOL     OW49793   5.608   2.933   3.375 -0.1885  0.2662 -0.1028
15144SOL    HW149794   5.577   3.011   3.330 -0.8424  1.2691  1.9308
15144SOL    HW249795   5.539   2.868   3.363  0.2639  0.0405 -1.6281
15145SOL     OW49796   7.362   3.195   1.604 -0.2147 -0.2066  0.2615
15145SOL    HW149797   7.370   3.278   1.650  1.0056  0.3082 -0.8070
15145SOL    HW249798   7.341   3.131   1.672  0.5584  0.6777  1.3585
15146SOL     OW49799   0.727  10.428   0.838 -0.1115  0.4484  0.0145
15146SOL    HW149800   0.701  10.355   0.895  0.8259 -0.5125 -0.7526
15146SOL    HW249801   0.773  10.488   0.896  1.5370 -0.8961  0.1625
15147SOL     OW49802   8.720   8.779  10.718  0.3814  0.3362 -0.0331
15147SOL    HW149803   8.643   8.759  10.770 -1.1532  1.6007 -1.6861
15147SOL    HW249804   8.685   8.811  10.634  2.7017  0.0378 -1.2085
15148SOL     OW49805  10.249   2.658   8.470 -0.4213  0.3022 -0.5446
15148SOL    HW149806  10.308   2.692   8.538 -0.0406 -1.8448  0.2779
15148SOL    HW249807  10.270   2.710   8.393 -1.2369  3.1872  1.0526
15149SOL     OW49808  10.590   9.996   3.044 -0.3458  0.5025  0.1237
15149SOL    HW149809  10.509   9.982   2.996 -0.9749  0.3644  1.1880
15149SOL    HW249810  10.581  10.084   3.081 -0.8786 -0.2192  1.8168
15150SOL     OW49811  11.076   9.166   3.308  0.3466 -0.5092  0.6153
15150SOL    HW149812  11.124   9.087   3.332  2.1500 -0.3740 -2.0388
15150SOL    HW249813  11.139   9.237   3.323 -0.3547  0.1183  0.6194
15151SOL     OW49814   6.758  10.753   6.372  0.2363  0.2885 -0.1137
15151SOL    HW149815   6.853  10.762   6.370  0.1606  1.2344 -1.9707
15151SOL    HW249816   6.742  10.663   6.344  0.5922  0.9257 -2.6632
15152SOL     OW49817   3.954   7.867   0.500 -0.2619  0.3794  0.3813
15152SOL    HW149818   3.930   7.775   0.484  1.3390  0.0681 -0.4824
15152SOL    HW249819   3.922   7.913   0.423  2.1136 -0.1165 -1.0182
15153SOL     OW49820   5.827   3.847   2.935 -0.4407  0.3964 -0.1518
15153SOL    HW149821   5.759   3.907   2.906 -0.7067  0.4090  0.4770
15153SOL    HW249822   5.791   3.760   2.918  0.7889  0.3456 -3.0470
15154SOL     OW49823   6.356   7.443   2.198  0.2742  0.3029 -0.4705
15154SOL    HW149824   6.369   7.518   2.139  2.5993  0.3327  0.0042
15154SOL    HW249825   6.435   7.391   2.188 -0.4657 -1.0910  0.6703
15155SOL     OW49826   7.108   4.199   3.884  0.0371 -0.0910  0.0368
15155SOL    HW149827   7.064   4.163   3.807 -0.0626  0.0184  0.0433
15155SOL    HW249828   7.053   4.272   3.912  1.0101  1.0079 -0.8502
15156SOL     OW49829   3.385   6.979   5.068 -0.0003 -0.1414 -0.0889
15156SOL    HW149830   3.433   7.060   5.087  0.1389  0.7134 -3.5211
15156SOL    HW249831   3.306   6.985   5.123 -0.3052  2.6735 -0.6954
15157SOL     OW49832   3.113   5.633   3.944 -0.3147  0.4114  0.5428
15157SOL    HW149833   3.154   5.647   4.030  1.1894 -1.6164  0.2399
15157SOL    HW249834   3.034   5.583   3.963  0.3015 -0.5146  0.7488
15158SOL     OW49835  10.029   1.202  10.543  0.0658 -0.1108  0.0306
15158SOL    HW149836  10.008   1.110  10.525  0.0521  0.1208 -1.2599
15158SOL    HW249837   9.994   1.249  10.468  0.6407  0.8769  0.3655
15159SOL     OW49838   7.622   1.668   7.828 -0.1968 -0.2979 -0.1175
15159SOL    HW149839   7.562   1.685   7.756 -0.0719  1.0212  0.0722
15159SOL    HW249840   7.613   1.574   7.845 -1.9889 -0.1919 -0.2809
15160SOL     OW49841  10.812   0.182   5.665  0.1210  0.3577  0.2424
15160SOL    HW149842  10.841   0.091   5.662  0.1734  0.4025 -0.6323
15160SOL    HW249843  10.892   0.233   5.650  0.0831  0.5516  0.6807
15161SOL     OW49844   0.203   9.680   0.672  0.3616 -0.1358 -0.0149
15161SOL    HW149845   0.285   9.680   0.722 -0.9673 -1.2672  2.3492
15161SOL    HW249846   0.135   9.672   0.738 -1.5292 -2.5535 -2.0539
15162SOL     OW49847   8.547   9.445   1.076  0.1290  0.5375 -0.2410
15162SOL    HW149848   8.577   9.484   0.994  1.0441  3.0804  1.1589
15162SOL    HW249849   8.627   9.422   1.123 -0.3041  0.7784  0.6530
15163SOL     OW49850   3.463   8.225   0.907  0.6628 -0.3253  0.1996
15163SOL    HW149851   3.494   8.276   0.982  1.7164 -0.0160 -0.4259
15163SOL    HW249852   3.403   8.284   0.861 -1.6680 -1.2057  1.8696
15164SOL     OW49853   0.736   1.550  10.823 -0.9785 -0.0500 -0.2308
15164SOL    HW149854   0.674   1.480  10.800 -1.1741  0.0432  0.0031
15164SOL    HW249855   0.822   1.508  10.820 -0.6658  0.5215 -3.6740
15165SOL     OW49856   6.698   9.405   0.771  0.3478 -0.5242  0.9052
15165SOL    HW149857   6.695   9.499   0.788 -0.0494 -0.7571  2.2187
15165SOL    HW249858   6.607   9.377   0.775  0.3170 -0.7649 -0.8121
15166SOL     OW49859   4.398   2.462   5.353  0.0594  0.1161 -0.7669
15166SOL    HW149860   4.391   2.421   5.267 -3.4026  0.7306 -0.9239
15166SOL    HW249861   4.359   2.549   5.341 -0.6743  0.1397  1.4431
15167SOL     OW49862   3.640   3.793   6.088  0.3909 -0.2073  0.1624
15167SOL    HW149863   3.643   3.772   5.994  2.8000  0.1071  0.0964
15167SOL    HW249864   3.703   3.733   6.127  0.3048  0.4894  1.4045
15168SOL     OW49865   0.327   1.213   6.732  0.3834 -0.5461  0.4102
15168SOL    HW149866   0.374   1.296   6.724 -0.2039 -0.1925  0.5573
15168SOL    HW249867   0.388   1.148   6.698  1.0118 -0.1120  0.6798
15169SOL     OW49868   4.063  10.669   0.248 -0.1692  0.7807 -0.6618
15169SOL    HW149869   4.010  10.608   0.197 -1.0612 -0.1296  1.2725
15169SOL    HW249870   4.151  10.632   0.246 -0.5708 -0.2455 -0.0571
15170SOL     OW49871   0.243   8.642   9.446  0.1051 -0.7215 -0.1763
15170SOL    HW149872   0.240   8.632   9.351  1.1718  0.8737 -0.4120
15170SOL    HW249873   0.335   8.655   9.467 -0.3336  1.3305  0.7651
15171SOL     OW49874   2.689   6.263   0.995  0.2474 -0.2270  0.0609
15171SOL    HW149875   2.773   6.249   0.951  0.5157 -0.6381  0.6985
15171SOL    HW249876   2.684   6.193   1.060 -0.9031 -0.6298 -0.4266
15172SOL     OW49877   4.096   6.991   1.444  0.0163  0.1266  0.3391
15172SOL    HW149878   4.074   6.983   1.351  1.6444 -2.4465  0.0513
15172SOL    HW249879   4.189   6.968   1.448  0.4986  2.0946  2.4255
15173SOL     OW49880   4.496   2.910   3.312  0.4355  0.0149 -0.0687
15173SOL    HW149881   4.500   2.983   3.374 -0.8376  0.1773 -0.1524
15173SOL    HW249882   4.534   2.836   3.360  1.9101  0.7403 -0.0467
15174SOL     OW49883   5.446   6.491   6.675 -0.0743  0.3381  0.0565
15174SOL    HW149884   5.417   6.517   6.588 -3.2035 -0.5798  0.6855
15174SOL    HW249885   5.432   6.396   6.677 -0.6879  0.4381  1.7303
15175SOL     OW49886   6.102   2.132   1.414 -0.1876  0.0210  0.5949
15175SOL    HW149887   6.029   2.072   1.428  0.9800 -1.2366  1.6103
15175SOL    HW249888   6.171   2.077   1.375  0.7023  0.8328  0.9818
15176SOL     OW49889   5.230   0.823   6.934  0.4602 -0.0072  0.3113
15176SOL    HW149890   5.308   0.875   6.914  0.4774 -0.0396  0.2941
15176SOL    HW249891   5.241   0.742   6.885 -0.1254  0.4427 -0.5907
15177SOL     OW49892   0.776   9.931   9.193  0.0366 -1.0424 -0.4185
15177SOL    HW149893   0.765   9.958   9.102  0.6282 -2.6677 -0.9985
15177SOL    HW249894   0.689   9.902   9.220 -0.2017 -0.2950 -0.3608
15178SOL     OW49895   0.030   5.005   9.081 -0.4037 -0.0774  0.1885
15178SOL    HW149896   0.058   5.056   9.006 -1.1895 -0.5100 -0.4159
15178SOL    HW249897  -0.051   4.963   9.053 -1.1498  0.3820  1.5493
15179SOL     OW49898   4.028   7.827   0.828  0.3843 -0.0889  0.5785
15179SOL    HW149899   4.047   7.918   0.850  0.4266 -0.3285  1.5954
15179SOL    HW249900   4.086   7.808   0.754 -1.4361  1.4388 -1.3567
15180SOL     OW49901   2.715   5.463   9.999 -0.2401  0.1052  0.6970
15180SOL    HW149902   2.799   5.447  10.041  0.6326  0.2824 -0.9044
15180SOL    HW249903   2.693   5.553  10.023  0.6439  0.4826  0.1759
15181SOL     OW49904   8.745   4.472   3.576  0.4070  0.0878  0.0530
15181SOL    HW149905   8.814   4.492   3.639  2.3859 -1.3992 -1.5321
15181SOL    HW249906   8.768   4.523   3.498 -1.1266  0.6923 -0.0345
15182SOL     OW49907   4.165   0.257   5.872 -0.3464 -0.1438 -0.4008
15182SOL    HW149908   4.136   0.242   5.782  1.0125  0.3628 -0.9440
15182SOL    HW249909   4.085   0.249   5.924 -1.1522 -0.4729 -1.6428
15183SOL     OW49910  10.078  10.543  10.673  0.2410 -0.4587 -0.4703
15183SOL    HW149911  10.165  10.573  10.696  0.0883 -0.7237  0.4812
15183SOL    HW249912  10.026  10.623  10.664  0.6633 -0.2798 -1.4369
15184SOL     OW49913   1.695   2.691   8.926 -0.6988 -0.0706  0.0982
15184SOL    HW149914   1.735   2.708   9.012  1.8064  0.8552 -1.1577
15184SOL    HW249915   1.720   2.766   8.873 -2.6527 -0.3709 -1.3541
15185SOL     OW49916   5.586  10.391   0.801  0.6893  0.3680  0.4419
15185SOL    HW149917   5.643  10.387   0.878  1.0169 -3.5349  0.1883
15185SOL    HW249918   5.535  10.311   0.805 -0.7798  1.0396 -2.3678
15186SOL     OW49919   5.867   9.778   4.245 -0.0277  0.3311  0.1061
15186SOL    HW149920   5.810   9.852   4.222 -0.8876 -0.1772  0.5338
15186SOL    HW249921   5.908   9.754   4.162 -1.8628 -0.4548 -0.6373
15187SOL     OW49922   8.467   6.591   2.130 -0.3931  0.1685  0.2515
15187SOL    HW149923   8.516   6.665   2.168 -1.0017  0.9997 -0.5551
15187SOL    HW249924   8.515   6.568   2.051  0.7492 -1.4267  1.3388
15188SOL     OW49925   7.074   8.775   6.286 -0.6549 -0.4982 -0.0507
15188SOL    HW149926   6.994   8.800   6.331 -0.2401  0.8050 -0.0100
15188SOL    HW249927   7.060   8.801   6.195 -0.7663 -1.4302 -0.3081
15189SOL     OW49928   2.063   7.212   6.572  0.1909 -0.3393  0.1076
15189SOL    HW149929   1.981   7.210   6.622 -0.8862  0.7892 -1.5040
15189SOL    HW249930   2.089   7.304   6.571  1.1020 -0.5907  0.0145
15190SOL     OW49931   6.667   0.199   0.431 -0.3118 -0.2514 -0.0818
15190SOL    HW149932   6.746   0.172   0.384 -0.5236 -0.1503 -0.4955
15190SOL    HW249933   6.626   0.263   0.374 -1.0042 -0.7429 -0.1433
15191SOL     OW49934  10.674   7.149   3.133  0.1331  0.0401  0.4474
15191SOL    HW149935  10.670   7.235   3.090  0.9589 -0.1435 -0.0100
15191SOL    HW249936  10.590   7.142   3.178 -0.6675  0.3452 -0.9284
15192SOL     OW49937   1.023   8.136   3.359  0.3818  0.1991  0.2616
15192SOL    HW149938   1.016   8.097   3.446 -0.8436  1.0502  0.5757
15192SOL    HW249939   1.111   8.174   3.356  0.2712  0.5690  1.3093
15193SOL     OW49940   4.622   7.911   2.544 -0.8412  0.1212  0.6111
15193SOL    HW149941   4.715   7.899   2.527 -0.8242 -1.3588  1.6276
15193SOL    HW249942   4.601   7.994   2.501  0.8807  0.3704  0.1688
15194SOL     OW49943   1.222   5.917   8.001 -0.2692  0.2151  0.3530
15194SOL    HW149944   1.316   5.908   8.013 -0.3669 -0.8445  0.3862
15194SOL    HW249945   1.186   5.914   8.090 -0.4797 -1.3507  0.2386
15195SOL     OW49946   4.984   9.724   7.912 -0.2422  0.2110 -0.5198
15195SOL    HW149947   5.037   9.794   7.875  1.1180 -0.0120  0.8676
15195SOL    HW249948   4.945   9.680   7.837  0.2463  1.4010 -1.4999
15196SOL     OW49949   7.733   5.356   9.940  0.7310 -0.7996  0.1666
15196SOL    HW149950   7.671   5.396   9.879  2.8849  1.9726 -0.4408
15196SOL    HW249951   7.691   5.363  10.025 -0.9877 -1.7536 -0.5535
15197SOL     OW49952   1.872  10.183   4.474  0.1804  0.3896  0.3332
15197SOL    HW149953   1.858  10.091   4.497  0.1772  0.6328  1.3692
15197SOL    HW249954   1.941  10.213   4.533  1.2977  0.6606 -1.0490
15198SOL     OW49955   0.777   1.578  10.430  0.6265 -0.3840  0.2450
15198SOL    HW149956   0.772   1.484  10.408  0.8399 -0.8276  1.9413
15198SOL    HW249957   0.870   1.600  10.424  0.7605 -0.6446  1.1088
15199SOL     OW49958   4.118   1.385  10.680  0.0627  0.0848 -0.1421
15199SOL    HW149959   4.116   1.296  10.646 -0.8519  0.0735 -0.0908
15199SOL    HW249960   4.083   1.439  10.608  0.5175  0.3906 -0.1382
15200SOL     OW49961   6.503   5.635   1.450  0.4753  0.0181 -0.4527
15200SOL    HW149962   6.410   5.613   1.439  0.0566  0.8894  1.0081
15200SOL    HW249963   6.510   5.725   1.419  0.4071  0.6039  1.1311
15201SOL     OW49964  11.058   7.878   8.092  0.0552  0.2491  0.0088
15201SOL    HW149965  11.142   7.891   8.049 -0.4259 -0.7101 -1.2682
15201SOL    HW249966  11.050   7.783   8.103 -0.8152  0.3308  0.2051
15202SOL     OW49967   8.804   4.872   8.560  0.3130  0.5357 -0.0761
15202SOL    HW149968   8.709   4.857   8.561  0.4626 -0.8037 -1.9686
15202SOL    HW249969   8.814   4.962   8.527 -0.2897  0.7475  0.3025
15203SOL     OW49970   0.769   2.007   9.997 -0.0713 -0.1818  0.1287
15203SOL    HW149971   0.728   2.083   9.958 -0.0019  0.7540  1.7844
15203SOL    HW249972   0.703   1.938   9.990 -0.0005 -0.1067 -1.7041
15204SOL     OW49973  10.105   2.544   9.955 -0.1081 -0.0881 -0.5750
15204SOL    HW149974  10.068   2.474  10.008  1.4376 -0.1224  0.5287
15204SOL    HW249975  10.049   2.620   9.974 -0.1832 -0.3537  0.3291
15205SOL     OW49976   1.587   8.737   2.765  0.3398  0.2711 -0.4049
15205SOL    HW149977   1.641   8.757   2.842 -2.6661 -1.7956  2.5265
15205SOL    HW249978   1.526   8.810   2.759 -0.4006 -0.2845  0.1890
15206SOL     OW49979   7.043   5.910   5.943 -0.1168 -0.3866  0.3680
15206SOL    HW149980   7.097   5.989   5.934 -1.2166  0.1885 -2.1298
15206SOL    HW249981   7.038   5.875   5.854 -0.6751 -2.6149  1.2246
15207SOL     OW49982   6.640   6.689  10.695 -0.0771  0.0900 -0.1428
15207SOL    HW149983   6.620   6.642  10.776  1.2737  0.5189  0.4861
15207SOL    HW249984   6.652   6.621  10.629  1.4886 -0.4761  0.6624
15208SOL     OW49985   4.794  10.149   8.367 -0.1955  0.5600 -0.1709
15208SOL    HW149986   4.753  10.092   8.432 -0.2537  0.1219 -0.5867
15208SOL    HW249987   4.887  10.130   8.374 -0.1721  0.7315 -0.0090
15209SOL     OW49988   8.642   1.191   8.594 -0.0819  0.1853  0.2931
15209SOL    HW149989   8.557   1.202   8.638 -0.2105 -0.0519  0.1042
15209SOL    HW249990   8.620   1.165   8.505  0.1990 -2.4748  0.9165
15210SOL     OW49991   7.621   0.305   6.585 -0.4005  0.2009 -0.2091
15210SOL    HW149992   7.659   0.354   6.512 -1.0884  0.8447 -0.1459
15210SOL    HW249993   7.555   0.364   6.622 -0.6940 -0.4714  0.3641
15211SOL     OW49994   4.326   8.929  10.928  0.0609 -0.1930 -0.8935
15211SOL    HW149995   4.270   8.856  10.902 -1.2197 -0.2460  1.6864
15211SOL    HW249996   4.406   8.888  10.960 -0.4804 -0.4889  0.1339
15212SOL     OW49997   5.168   3.095   8.459 -0.4559 -0.1769  0.0980
15212SOL    HW149998   5.127   3.111   8.544  0.6722 -0.7217  0.7679
15212SOL    HW249999   5.204   3.006   8.466 -0.8561 -0.4638 -1.1640
15213SOL     OW50000   3.971   8.135   3.196  0.7120 -0.0124 -0.2505
15213SOL    HW150001   3.946   8.163   3.108  0.3028 -1.8768 -0.7663
15213SOL    HW250002   3.891   8.099   3.234  1.2618 -0.7322  0.2528
15214SOL     OW50003   0.541   4.795   6.846  0.5655 -0.2399  0.2482
15214SOL    HW150004   0.569   4.727   6.907 -0.1275 -1.1195 -0.3745
15214SOL    HW250005   0.511   4.746   6.769 -2.1377  0.6184  0.6406
15215SOL     OW50006   8.054   4.169  10.355  0.1806 -0.6946  0.2228
15215SOL    HW150007   7.997   4.100  10.321  1.0189 -2.5904  2.3879
15215SOL    HW250008   8.007   4.206  10.429  0.2121  0.3381 -0.2520
15216SOL     OW50009   9.029   3.378   3.433 -0.2030  0.2244  0.1961
15216SOL    HW150010   8.970   3.432   3.486  0.1228  2.1978 -1.3523
15216SOL    HW250011   9.107   3.367   3.489 -0.1971  1.5525  0.4910
15217SOL     OW50012   8.812  10.804   0.563 -0.3275  0.0831  0.5283
15217SOL    HW150013   8.758  10.866   0.612 -0.6422 -0.8833  1.4317
15217SOL    HW250014   8.757  10.778   0.489 -2.0391 -2.4236  2.4900
15218SOL     OW50015  10.798   3.398   3.847 -0.1839  0.7718 -0.5858
15218SOL    HW150016  10.887   3.416   3.818 -0.5012  1.1654 -1.3395
15218SOL    HW250017  10.807   3.326   3.909  0.6478  0.7549 -0.7165
15219SOL     OW50018   9.450   1.122  10.232 -0.5182 -0.5812 -0.4245
15219SOL    HW150019   9.452   1.214  10.260 -1.2900 -1.0512  1.2926
15219SOL    HW250020   9.373   1.116  10.176 -0.1553 -0.0813 -0.9932
15220SOL     OW50021   8.772   5.647   0.659  0.3867  0.7901 -0.9405
15220SOL    HW150022   8.827   5.647   0.738  0.7677  1.3836 -1.1992
15220SOL    HW250023   8.707   5.579   0.676 -0.5521  2.0149  0.6020
15221SOL     OW50024   3.363   1.404   0.502 -0.5389 -0.0966 -0.1158
15221SOL    HW150025   3.309   1.473   0.466 -0.3090 -0.3298 -0.9357
15221SOL    HW250026   3.314   1.323   0.485 -0.7848 -0.1463  0.7916
15222SOL     OW50027   3.598   9.560   6.057  0.6019  0.1169 -0.8741
15222SOL    HW150028   3.671   9.550   6.119  1.3164  1.3235 -1.5017
15222SOL    HW250029   3.629   9.520   5.976  0.6042  0.7133 -1.1720
15223SOL     OW50030   4.262   4.157   1.694  0.7316 -0.0545  0.3210
15223SOL    HW150031   4.310   4.089   1.741  1.3347 -0.8543 -1.3612
15223SOL    HW250032   4.278   4.138   1.601  0.2273  1.8960 -0.2182
15224SOL     OW50033   4.596   0.091   6.530  0.1176  0.0479  0.2843
15224SOL    HW150034   4.518   0.120   6.576 -0.8830 -0.0513 -1.2902
15224SOL    HW250035   4.640   0.033   6.592 -1.1064  0.0311  1.1668
15225SOL     OW50036   8.790   2.587   4.129  0.9727 -0.2413 -0.3112
15225SOL    HW150037   8.831   2.638   4.060  1.8801  0.3213  0.6078
15225SOL    HW250038   8.752   2.652   4.188  2.1481 -0.5860  0.8777
15226SOL     OW50039   8.492   6.627   3.998 -0.0589 -0.6370  0.3063
15226SOL    HW150040   8.483   6.635   4.093  0.4355 -0.1937  0.3227
15226SOL    HW250041   8.403   6.635   3.964  0.0117  2.1404  0.5393
15227SOL     OW50042   2.013   0.025   1.175  0.2281 -0.2119  0.1987
15227SOL    HW150043   2.011   0.048   1.267 -0.3357 -2.3873  0.7872
15227SOL    HW250044   1.928  -0.016   1.158  0.5407 -0.3715 -1.1329
15228SOL     OW50045   9.233   8.244   9.657  0.4113  0.1907  0.3923
15228SOL    HW150046   9.240   8.176   9.591 -0.4775  1.0766 -0.6379
15228SOL    HW250047   9.317   8.290   9.653 -0.3199  1.4290 -1.4706
15229SOL     OW50048   5.281   1.886   7.993  0.0113  0.2286 -0.7167
15229SOL    HW150049   5.286   1.873   8.087 -1.3052 -1.6028 -0.8511
15229SOL    HW250050   5.339   1.961   7.976  2.5900 -1.1889  1.1447
15230SOL     OW50051   8.446   4.544   5.894  0.3821  0.3362  0.0329
15230SOL    HW150052   8.454   4.451   5.912 -2.5387  0.0758  0.4680
15230SOL    HW250053   8.448   4.585   5.981 -2.2512  0.2179  0.2185
15231SOL     OW50054   9.882   0.521   9.349 -0.4363 -0.3146  0.0757
15231SOL    HW150055   9.854   0.612   9.355  1.6318  0.5266 -1.6637
15231SOL    HW250056   9.928   0.505   9.431  1.1529  1.0089 -0.5007
15232SOL     OW50057  10.817  10.554   1.761  0.2900  0.3245  0.0977
15232SOL    HW150058  10.793  10.641   1.794  1.8270  1.0037 -0.4740
15232SOL    HW250059  10.797  10.495   1.834 -0.5329  1.1757  0.5898
15233SOL     OW50060   4.502   1.856   2.520 -0.6576 -0.0158 -0.4647
15233SOL    HW150061   4.414   1.838   2.488 -1.2390 -0.1595  1.1302
15233SOL    HW250062   4.501   1.828   2.612  1.0196  0.0791 -0.3807
15234SOL     OW50063   8.797   7.542   3.259 -0.0973 -0.7846 -0.2602
15234SOL    HW150064   8.848   7.461   3.257  0.0953 -0.6599 -0.5726
15234SOL    HW250065   8.727   7.525   3.322  0.4020 -0.9158  0.2703
15235SOL     OW50066   3.768   5.413   9.868  0.6561 -0.2540 -0.3475
15235SOL    HW150067   3.720   5.496   9.860 -0.9034 -1.0291  0.6186
15235SOL    HW250068   3.837   5.431   9.931  0.1919  0.2543  0.0201
15236SOL     OW50069   6.387   4.785   2.406  0.8916  0.5931  0.3121
15236SOL    HW150070   6.349   4.743   2.483  0.9410 -0.1914 -0.0823
15236SOL    HW250071   6.433   4.861   2.441  1.0860  0.1322  1.0855
15237SOL     OW50072  10.872   6.327   2.926 -0.3689 -0.4618 -0.1680
15237SOL    HW150073  10.852   6.256   2.987  1.2854  0.4132  1.4946
15237SOL    HW250074  10.818   6.400   2.957 -0.3958 -0.3410 -0.4907
15238SOL     OW50075   3.415   9.933   1.243 -0.5646  0.1381  0.1528
15238SOL    HW150076   3.353   9.951   1.313 -1.6822 -0.8744 -0.5352
15238SOL    HW250077   3.387   9.987   1.169  0.3260  0.8482  0.3125
15239SOL     OW50078   5.008   4.818   3.944 -0.0783 -0.2570 -0.2570
15239SOL    HW150079   4.935   4.867   3.907  1.2939  2.1793  0.0531
15239SOL    HW250080   5.047   4.774   3.868 -0.5806  0.1961 -0.7906
15240SOL     OW50081   9.321   0.888   5.332 -0.3523  0.1592 -0.2148
15240SOL    HW150082   9.255   0.949   5.300 -1.6285 -1.7577 -1.4820
15240SOL    HW250083   9.276   0.838   5.400 -0.3663 -1.3431 -1.2633
15241SOL     OW50084   7.784   2.339   3.963  0.5392 -0.2264 -0.0418
15241SOL    HW150085   7.843   2.362   4.036 -0.5342  0.9808  0.4795
15241SOL    HW250086   7.800   2.246   3.948  2.8498  0.1414 -0.1743
15242SOL     OW50087  10.719   1.948   0.606 -0.1216  0.0784 -0.3609
15242SOL    HW150088  10.726   2.044   0.599 -3.4810  0.4893  0.1554
15242SOL    HW250089  10.751   1.916   0.522  1.7544  1.5520 -0.2778
15243SOL     OW50090   7.964   1.637   1.056 -0.4318  0.5125  0.0264
15243SOL    HW150091   7.938   1.633   0.964  0.6584 -1.7443 -0.2363
15243SOL    HW250092   8.052   1.675   1.054  0.4065 -1.3389 -0.1061
15244SOL     OW50093   4.586   5.783   0.809 -0.1441  0.3069 -0.4080
15244SOL    HW150094   4.632   5.792   0.892 -0.0003  1.1628 -0.5688
15244SOL    HW250095   4.583   5.689   0.793  1.4133  0.2084 -0.3127
15245SOL     OW50096   7.289  10.818  10.516  0.2329 -0.4359 -0.0556
15245SOL    HW150097   7.209  10.810  10.465  0.3688 -0.0775 -0.3239
15245SOL    HW250098   7.285  10.905  10.554 -0.0277 -0.8174  0.8252
15246SOL     OW50099   6.565   2.385   1.513  0.6202  0.2085  0.2521
15246SOL    HW150100   6.549   2.479   1.508  0.0433  0.0532 -1.1353
15246SOL    HW250101   6.480   2.346   1.494  0.6319 -0.6145  1.7047
15247SOL     OW50102   0.405  10.130   5.239 -0.0203  0.2042 -0.0217
15247SOL    HW150103   0.409  10.159   5.148 -0.3012 -0.9814 -0.4314
15247SOL    HW250104   0.494  10.102   5.259 -0.5876 -2.5672 -1.0097
15248SOL     OW50105  10.812  10.551   3.390 -0.1697  0.2285  0.2718
15248SOL    HW150106  10.848  10.627   3.436  0.4948  1.4962 -2.1957
15248SOL    HW250107  10.726  10.579   3.361 -0.6571 -0.6282  0.8300
15249SOL     OW50108   2.386   1.532   1.802  0.6142  0.4344 -0.4047
15249SOL    HW150109   2.340   1.521   1.886 -0.4829  0.9224 -0.9287
15249SOL    HW250110   2.472   1.491   1.817 -0.3086 -1.3713  0.3124
15250SOL     OW50111   4.040   1.438   6.267  0.2535  0.6834  0.4672
15250SOL    HW150112   4.112   1.501   6.268  0.5503  0.3623 -0.1216
15250SOL    HW250113   4.072   1.364   6.319  0.6972  0.1768 -0.5003
15251SOL     OW50114   3.113   9.268   5.710  0.0742  0.3485 -0.6108
15251SOL    HW150115   3.088   9.200   5.648 -0.0947  0.3823 -0.5781
15251SOL    HW250116   3.034   9.319   5.724 -0.7723 -1.4785  1.9968
15252SOL     OW50117   7.041   7.024   1.733 -0.8786 -0.4907  0.0303
15252SOL    HW150118   6.997   6.974   1.664  0.4219 -0.9268 -0.4963
15252SOL    HW250119   7.107   6.965   1.768 -0.0739  0.4620  0.1775
15253SOL     OW50120   5.008   6.654   1.215 -0.1551  0.2323 -0.1144
15253SOL    HW150121   5.033   6.589   1.149 -1.3565  0.1307 -0.4939
15253SOL    HW250122   5.049   6.623   1.296 -0.1894 -0.6529 -0.4262
15254SOL     OW50123   5.875   1.730   8.043 -0.5486  0.0840 -0.0797
15254SOL    HW150124   5.966   1.724   8.071 -0.7530 -2.1009  0.3369
15254SOL    HW250125   5.832   1.656   8.087 -2.0278 -0.3257 -2.0606
15255SOL     OW50126   5.270   0.927   4.180 -0.3951 -0.7354  0.1695
15255SOL    HW150127   5.189   0.970   4.207 -0.3911 -0.2746 -0.5247
15255SOL    HW250128   5.334   0.952   4.247 -0.3077  0.6442 -0.4061
15256SOL     OW50129   1.549   9.457   4.140  0.4648  0.6962 -0.1502
15256SOL    HW150130   1.644   9.445   4.138  0.3576 -0.7040  1.0643
15256SOL    HW250131   1.520   9.434   4.052  1.2689  1.5462 -0.6619
15257SOL     OW50132   3.297   7.354   0.845  0.4217  0.0437 -0.2458
15257SOL    HW150133   3.353   7.278   0.861  0.0030  0.1913  2.5314
15257SOL    HW250134   3.312   7.411   0.921 -1.1089  1.5757 -1.0220
15258SOL     OW50135   2.519   1.143   5.337  0.0529  0.3582  0.3506
15258SOL    HW150136   2.488   1.148   5.427 -1.6720  2.5491 -0.2856
15258SOL    HW250137   2.523   1.234   5.307  2.5186 -0.1439 -1.2070
15259SOL     OW50138   7.244   7.618   5.855 -0.1341 -0.2340  0.3477
15259SOL    HW150139   7.155   7.649   5.872  0.0943  0.5571  0.1584
15259SOL    HW250140   7.279   7.681   5.792 -0.1701 -1.7951 -1.2720
15260SOL     OW50141   2.654   5.000   3.427 -0.2827 -0.5181 -0.4076
15260SOL    HW150142   2.608   4.923   3.461 -2.9405  0.2818 -1.8668
15260SOL    HW250143   2.589   5.043   3.371  2.0963  1.1454 -2.0760
15261SOL     OW50144   1.581   1.054  10.533  0.6266 -0.3423  0.7339
15261SOL    HW150145   1.517   1.058  10.462  1.3412  1.6619  0.1296
15261SOL    HW250146   1.560   1.129  10.588  1.4946 -0.5597  1.3895
15262SOL     OW50147   3.645   1.378   3.132  0.6461 -0.3124 -0.3955
15262SOL    HW150148   3.599   1.302   3.095  0.6705 -0.1744 -0.7144
15262SOL    HW250149   3.738   1.357   3.120  0.6605 -0.4358 -0.0680
15263SOL     OW50150   8.887   1.931   8.601 -0.3293 -0.2256  0.4908
15263SOL    HW150151   8.954   1.998   8.599 -0.8117  0.2537 -0.0610
15263SOL    HW250152   8.933   1.849   8.581 -0.0720  0.2522 -0.9769
15264SOL     OW50153   4.957  10.551   1.175 -0.1015 -0.3953 -0.2780
15264SOL    HW150154   4.874  10.520   1.211 -0.7173  0.2082 -1.1399
15264SOL    HW250155   5.003  10.590   1.249 -2.0000  2.2366 -0.3741
15265SOL     OW50156   6.623   8.419   5.266 -0.1140  0.1923 -0.0416
15265SOL    HW150157   6.565   8.450   5.197  0.7239  2.6043  0.2549
15265SOL    HW250158   6.673   8.348   5.226  0.4422  1.6191 -1.9888
15266SOL     OW50159   2.304  10.545   4.647 -0.5927 -0.3854  0.0748
15266SOL    HW150160   2.295  10.637   4.673  1.5126  0.0528 -0.5823
15266SOL    HW250161   2.281  10.544   4.554 -0.7413 -0.5568  0.1122
15267SOL     OW50162   0.741   6.394   3.731 -0.3133 -0.0792  0.4285
15267SOL    HW150163   0.779   6.397   3.819  4.1704 -2.1999 -1.1430
15267SOL    HW250164   0.714   6.303   3.719 -0.7826  0.1610 -0.4361
15268SOL     OW50165   4.003   4.589   4.760  0.1252 -0.2843 -0.0278
15268SOL    HW150166   3.996   4.512   4.704  1.2517  0.2915 -0.9780
15268SOL    HW250167   3.913   4.623   4.765 -0.0500 -0.5604 -1.1691
15269SOL     OW50168   7.429   0.523   4.910 -0.1543 -0.1712  0.5812
15269SOL    HW150169   7.409   0.616   4.908  2.8438  0.5976 -1.5287
15269SOL    HW250170   7.356   0.481   4.863  0.0493  1.5857 -1.4523
15270SOL     OW50171   5.073   1.959   8.235 -0.2686 -0.3491 -0.1830
15270SOL    HW150172   5.015   1.905   8.181  1.8419 -3.8520  0.7408
15270SOL    HW250173   5.077   1.913   8.319  2.4984  0.6643  0.3266
15271SOL     OW50174   6.379   7.831   0.176  0.3889  0.2744 -0.2740
15271SOL    HW150175   6.344   7.791   0.256 -1.8394  0.4002 -1.0948
15271SOL    HW250176   6.443   7.895   0.207  0.6587 -0.7145  1.3140
15272SOL     OW50177   3.961   6.609   4.158 -0.2532  0.4558 -0.8381
15272SOL    HW150178   4.000   6.591   4.072 -0.0202 -2.6836 -0.1963
15272SOL    HW250179   4.000   6.691   4.186 -0.2948  1.5543 -3.6796
15273SOL     OW50180   6.614   0.135   4.355 -0.0446 -0.1121 -0.5298
15273SOL    HW150181   6.568   0.068   4.304 -0.2401  0.3104 -0.9143
15273SOL    HW250182   6.568   0.216   4.334  1.7312  0.5671 -2.0135
15274SOL     OW50183   0.537   3.256   0.284  0.1860 -0.2867 -0.2221
15274SOL    HW150184   0.485   3.187   0.324  1.8128 -2.2094 -1.2413
15274SOL    HW250185   0.479   3.294   0.218 -1.9320  1.7990  2.5934
15275SOL     OW50186   9.737   9.355   4.208  0.4012 -0.5416 -0.1676
15275SOL    HW150187   9.707   9.285   4.265 -1.4875  0.3603  0.0216
15275SOL    HW250188   9.790   9.411   4.265  0.2438 -0.7328  0.1688
15276SOL     OW50189   9.638   5.785   5.560 -0.0899  0.7865  0.7106
15276SOL    HW150190   9.578   5.801   5.633 -0.9205  0.2584  0.1527
15276SOL    HW250191   9.625   5.860   5.501 -1.1632  0.0405 -0.0332
15277SOL     OW50192  10.207   8.303   0.572  0.7209 -0.3419  0.8346
15277SOL    HW150193  10.174   8.392   0.583  1.5131 -0.1207  1.5309
15277SOL    HW250194  10.153   8.250   0.631  1.1600 -0.0893  1.4720
15278SOL     OW50195   5.027  10.568  10.875 -0.7657  0.4899  0.0229
15278SOL    HW150196   5.086  10.617  10.818 -0.5550  0.1656 -0.0406
15278SOL    HW250197   5.077  10.492  10.901 -1.2335  0.0949 -0.2128
15279SOL     OW50198  10.888   4.550   5.231  0.4989  0.1206 -0.0405
15279SOL    HW150199  10.941   4.484   5.277  0.3720  0.3831  0.4976
15279SOL    HW250200  10.922   4.634   5.263 -0.8173  0.2942  1.0139
15280SOL     OW50201   1.551   7.378   7.609  0.2612 -0.2123  0.8209
15280SOL    HW150202   1.559   7.465   7.649 -1.5212 -0.2854  1.4517
15280SOL    HW250203   1.626   7.329   7.642  0.9740  0.9175  0.9237
15281SOL     OW50204   0.145   1.687   4.969 -0.0155  0.7908 -0.5020
15281SOL    HW150205   0.156   1.650   4.881 -2.7446 -0.9930 -0.2062
15281SOL    HW250206   0.143   1.782   4.954  1.2592  0.6238 -2.0909
15282SOL     OW50207   6.428   9.583   5.328  0.4389  0.7466  0.2553
15282SOL    HW150208   6.499   9.540   5.280 -0.4939 -1.0535  0.4129
15282SOL    HW250209   6.350   9.569   5.274 -0.2601  0.4520  1.3052
15283SOL     OW50210   4.219  10.609   5.428  0.0425  0.0398 -0.1320
15283SOL    HW150211   4.174  10.690   5.403  0.4106  0.0529 -0.7789
15283SOL    HW250212   4.304  10.614   5.385 -0.0408 -0.8238 -0.4269
15284SOL     OW50213   1.550   3.930   4.090  0.0074  0.1190 -0.3945
15284SOL    HW150214   1.528   3.961   4.178 -1.1042  0.8619 -0.9164
15284SOL    HW250215   1.477   3.874   4.065 -0.9230  1.8897 -1.7958
15285SOL     OW50216   3.297   4.660   1.184 -0.1106  0.2004 -0.0433
15285SOL    HW150217   3.383   4.649   1.142 -0.9826  0.9727 -2.1521
15285SOL    HW250218   3.293   4.589   1.248  2.1809  0.2890  0.2924
15286SOL     OW50219   7.562   1.188   0.034  0.0686 -0.3049  0.1202
15286SOL    HW150220   7.647   1.172   0.076  0.1755 -0.0206  0.0139
15286SOL    HW250221   7.577   1.166  -0.058  0.6490  1.8033 -0.3457
15287SOL     OW50222   3.570  10.346   9.913 -0.4724  0.7823  0.6291
15287SOL    HW150223   3.653  10.303   9.931 -0.0926  1.3857  0.3343
15287SOL    HW250224   3.546  10.316   9.825 -1.1343 -0.2690  1.1418
15288SOL     OW50225   9.741   7.046   7.615 -0.3144  0.7578 -0.0994
15288SOL    HW150226   9.835   7.036   7.598 -0.5316  1.1507 -1.7739
15288SOL    HW250227   9.718   6.971   7.670  1.1683  1.2265  1.2075
15289SOL     OW50228   7.676   8.611   5.121 -0.0907 -0.0919 -1.0567
15289SOL    HW150229   7.626   8.576   5.194  3.6911 -2.0819  0.8646
15289SOL    HW250230   7.695   8.536   5.066  0.3675  0.6752 -1.9779
15290SOL     OW50231   1.401   5.149   2.690  0.4851  0.1307  0.4844
15290SOL    HW150232   1.434   5.132   2.778 -0.8403  1.2804  1.2447
15290SOL    HW250233   1.444   5.083   2.635 -0.8323 -2.5548  2.4475
15291SOL     OW50234   2.288   1.006   2.488  0.5600 -0.9790 -0.0487
15291SOL    HW150235   2.264   0.960   2.408  2.8102 -0.8216 -0.8862
15291SOL    HW250236   2.302   0.937   2.552  0.5442 -1.2328 -0.3171
15292SOL     OW50237   0.409   6.975   5.968  0.1039 -0.3323 -0.0394
15292SOL    HW150238   0.370   7.034   5.904 -0.5243 -2.0485 -1.3124
15292SOL    HW250239   0.341   6.962   6.034  0.1927  0.2273  0.1691
15293SOL     OW50240   0.740   2.912   7.460  0.2422  0.0566  0.6385
15293SOL    HW150241   0.661   2.967   7.463 -1.3762 -2.1467  0.4753
15293SOL    HW250242   0.762   2.898   7.552 -0.7837 -0.9153  0.7649
15294SOL     OW50243   7.160   7.140   2.063 -0.6243  0.2370 -0.2084
15294SOL    HW150244   7.116   7.119   1.981 -1.0358  0.7692 -0.1248
15294SOL    HW250245   7.210   7.061   2.084 -0.2064  0.2284 -1.1647
15295SOL     OW50246   3.524   8.372   4.700  0.2579 -0.5052  0.3521
15295SOL    HW150247   3.584   8.302   4.726  0.3659 -0.0676  1.3320
15295SOL    HW250248   3.482   8.340   4.621  1.7265 -0.8748 -0.3186
15296SOL     OW50249   0.558   2.149   2.212 -0.1943  0.2513  0.1230
15296SOL    HW150250   0.500   2.210   2.257 -0.1619  0.4387 -0.0871
15296SOL    HW250251   0.590   2.198   2.136 -0.2680 -0.0674 -0.1175
15297SOL     OW50252   7.286   3.646   6.994 -0.0678 -1.0529 -0.1662
15297SOL    HW150253   7.318   3.596   6.919 -0.0064 -0.6638 -0.4016
15297SOL    HW250254   7.364   3.661   7.047 -0.3728 -2.7471  0.8310
15298SOL     OW50255   9.749   4.870   7.890 -0.1415 -0.1204  0.1933
15298SOL    HW150256   9.738   4.934   7.961  0.1403  0.4146 -0.2412
15298SOL    HW250257   9.782   4.921   7.817 -0.0639 -0.7435 -0.2093
15299SOL     OW50258   1.819   5.892   5.406  0.0608  0.5651 -0.4963
15299SOL    HW150259   1.891   5.896   5.343  0.4768  0.7216 -0.0173
15299SOL    HW250260   1.861   5.874   5.490 -0.6244 -1.4309 -0.5284
15300SOL     OW50261   0.772   7.433   5.315 -0.4405 -0.7570 -0.2628
15300SOL    HW150262   0.688   7.451   5.356 -0.7088 -1.3689 -0.5255
15300SOL    HW250263   0.768   7.477   5.230  0.0162  0.2969  0.2469
15301SOL     OW50264   0.164   6.892   5.724  0.6618  0.0392 -0.0239
15301SOL    HW150265   0.166   6.967   5.664 -0.1937 -0.0444 -0.1680
15301SOL    HW250266   0.252   6.890   5.762  1.0292  0.4696 -0.8142
15302SOL     OW50267   2.046   7.133   5.827  0.3388 -0.4828 -0.5412
15302SOL    HW150268   1.955   7.107   5.813  0.0252  0.9677 -1.4124
15302SOL    HW250269   2.057   7.131   5.922 -0.6552 -0.5320 -0.4180
15303SOL     OW50270  10.062   7.017   3.637  0.7019 -0.3181  0.4792
15303SOL    HW150271  10.128   7.045   3.701  1.1946  1.0791 -0.5918
15303SOL    HW250272  10.023   6.939   3.676  2.1433 -0.4782  1.7125
15304SOL     OW50273   1.057  10.483  10.421 -0.0598  0.5042 -0.1841
15304SOL    HW150274   1.047  10.570  10.382 -0.3909  0.1512 -0.8948
15304SOL    HW250275   0.973  10.440  10.404 -0.0980  0.2339  0.6571
15305SOL     OW50276   8.712   9.230   2.417  0.2539 -0.5572 -0.2103
15305SOL    HW150277   8.802   9.234   2.450 -0.6100  0.3396  2.2890
15305SOL    HW250278   8.701   9.312   2.367  0.1355  0.5718  1.5845
15306SOL     OW50279   8.510   4.459   8.369  0.4482  0.2935  0.5964
15306SOL    HW150280   8.492   4.407   8.290  0.0559  0.0863  0.8211
15306SOL    HW250281   8.587   4.511   8.346  2.0310 -1.7542  1.0123
15307SOL     OW50282  11.013   0.339   4.821 -0.2761 -0.3154  0.3813
15307SOL    HW150283  10.918   0.327   4.814 -0.0757 -2.4813  0.6893
15307SOL    HW250284  11.031   0.334   4.915  0.2586 -1.2010  0.2418
15308SOL     OW50285  10.815   3.080   9.772 -0.6748 -0.3275 -0.0788
15308SOL    HW150286  10.807   3.095   9.866 -2.2907  0.9397 -0.3781
15308SOL    HW250287  10.877   3.148   9.743  0.6578 -1.3826  0.1852
15309SOL     OW50288   3.897   8.004   2.648  0.2592  0.5142  0.3859
15309SOL    HW150289   3.918   8.014   2.554 -1.0871 -1.1240 -0.1249
15309SOL    HW250290   3.983   8.000   2.690  0.9725 -1.3153 -1.0960
15310SOL     OW50291   6.123   6.287   3.530  0.2397 -0.3714  0.1375
15310SOL    HW150292   6.147   6.227   3.460  1.6849  0.3104  0.0030
15310SOL    HW250293   6.052   6.243   3.577  0.3411 -1.5479 -0.7735
15311SOL     OW50294   5.445   1.793   8.823 -0.8077 -0.4389  0.1635
15311SOL    HW150295   5.404   1.877   8.843 -0.3581 -0.3798  0.8734
15311SOL    HW250296   5.486   1.765   8.905  0.1595 -0.7299 -0.3883
15312SOL     OW50297  10.735   7.996  10.321  0.1693  0.0621 -0.2280
15312SOL    HW150298  10.691   7.999  10.406 -1.4747 -1.2050 -0.9645
15312SOL    HW250299  10.714   8.080  10.280  1.1020  0.7423  0.6422
15313SOL     OW50300   5.990   4.871   4.187 -0.1654  0.4295  0.2404
15313SOL    HW150301   5.930   4.893   4.116 -1.0301 -1.9016  0.1756
15313SOL    HW250302   6.051   4.807   4.149 -0.6384 -0.8487  1.5497
15314SOL     OW50303   5.289   1.688   0.731  0.2841 -0.5646  0.1614
15314SOL    HW150304   5.208   1.740   0.725  1.6352  1.8678  1.2955
15314SOL    HW250305   5.282   1.643   0.815  0.9021  1.3077  1.2970
15315SOL     OW50306   0.366   9.428   2.827 -0.1206 -0.3313 -0.3033
15315SOL    HW150307   0.403   9.484   2.895  0.3306  0.2175 -0.9882
15315SOL    HW250308   0.376   9.339   2.860  1.4045 -0.1694 -0.2762
15316SOL     OW50309   1.892   0.595   7.180 -0.0636 -0.5069  0.3177
15316SOL    HW150310   1.954   0.609   7.252 -0.6735  0.9760  0.5845
15316SOL    HW250311   1.828   0.665   7.190  0.1206  0.0697 -1.9816
15317SOL     OW50312   5.019   3.113   4.847 -0.0370  0.3392  0.1696
15317SOL    HW150313   5.011   3.080   4.937  0.7529 -1.5892 -0.4158
15317SOL    HW250314   5.109   3.092   4.822 -0.8230 -0.9773 -1.7319
15318SOL     OW50315   9.716   5.199   5.177  0.0360  0.2399 -0.1138
15318SOL    HW150316   9.754   5.180   5.092 -0.6824  0.4530 -0.4932
15318SOL    HW250317   9.767   5.273   5.211  0.5489 -0.0727 -0.1996
15319SOL     OW50318   2.664   5.097   1.294  0.1196  0.3142  0.1123
15319SOL    HW150319   2.681   5.106   1.388 -0.7621  0.6201  0.2515
15319SOL    HW250320   2.577   5.135   1.281 -0.3464 -0.9302 -0.6062
15320SOL     OW50321   8.379   8.121   6.648  0.1081  0.0320 -0.3453
15320SOL    HW150322   8.303   8.077   6.611 -0.8638 -1.7605  3.3447
15320SOL    HW250323   8.427   8.052   6.694  1.1190  1.9987  1.7474
15321SOL     OW50324   5.712   6.441   1.883 -0.0148 -0.3412  0.0636
15321SOL    HW150325   5.658   6.370   1.916 -3.0129  1.1111 -1.2928
15321SOL    HW250326   5.748   6.483   1.961 -0.3552 -1.7417  0.9989
15322SOL     OW50327  10.149   1.765   2.850 -0.1635  0.1514 -0.3587
15322SOL    HW150328  10.217   1.760   2.916  0.9839 -0.2655 -1.5256
15322SOL    HW250329  10.071   1.729   2.892  0.8262 -1.1767  0.4095
15323SOL     OW50330   5.968   5.396   0.296  0.0718 -0.0337  0.5599
15323SOL    HW150331   5.946   5.394   0.202  0.9062 -0.7572  0.3618
15323SOL    HW250332   6.011   5.481   0.308  0.6503 -0.2514  0.1107
15324SOL     OW50333   7.490   3.179   4.270  0.0462 -0.1300  0.2730
15324SOL    HW150334   7.394   3.186   4.271  0.0118 -0.5877  0.1194
15324SOL    HW250335   7.515   3.188   4.362 -0.0969  0.5875  0.2498
15325SOL     OW50336   4.324   3.089   4.280 -0.2976  0.0144 -0.3480
15325SOL    HW150337   4.275   3.009   4.298 -0.6007 -0.0544 -1.4010
15325SOL    HW250338   4.395   3.089   4.344 -0.8282 -0.6287  0.2545
15326SOL     OW50339  10.182   7.009   0.347 -0.4847  0.0414  0.7206
15326SOL    HW150340  10.135   6.959   0.280 -0.3594  1.0830 -0.1661
15326SOL    HW250341  10.274   6.987   0.334 -0.4554  0.2814  0.5111
15327SOL     OW50342   9.464   5.112   8.791 -0.3363  0.1017 -0.1245
15327SOL    HW150343   9.516   5.128   8.713 -0.3505 -1.3231 -0.4672
15327SOL    HW250344   9.464   5.195   8.838  0.5019  0.7044 -1.1413
15328SOL     OW50345   5.728   5.470   0.795  0.1897 -0.4648  0.1186
15328SOL    HW150346   5.753   5.558   0.824  0.1256  0.0665 -1.3703
15328SOL    HW250347   5.641   5.457   0.833 -1.0088  1.2528 -1.8255
15329SOL     OW50348   5.073   3.841   2.206  0.7142 -0.0797  0.8128
15329SOL    HW150349   5.153   3.882   2.239 -0.1672  0.2289  2.6941
15329SOL    HW250350   5.004   3.872   2.265 -1.0671  0.7455 -1.5498
15330SOL     OW50351   6.907   5.340   1.964  0.6011  0.5484  0.5912
15330SOL    HW150352   6.848   5.298   1.901  0.2413  3.7897 -1.4491
15330SOL    HW250353   6.918   5.275   2.033 -0.0053 -2.7424 -2.1660
15331SOL     OW50354   2.991   7.653   1.914  0.0044  0.3335 -0.4435
15331SOL    HW150355   3.074   7.697   1.896 -1.0750  2.2382 -1.0336
15331SOL    HW250356   2.963   7.688   1.999 -0.6802  0.5049 -0.7331
15332SOL     OW50357   4.748   5.244   5.993  0.0301  0.1325 -0.0695
15332SOL    HW150358   4.655   5.228   6.010  0.1194  0.0976  0.3920
15332SOL    HW250359   4.779   5.163   5.953  0.2141 -0.4383  1.1913
15333SOL     OW50360   1.397   2.094   1.632  0.3239 -0.2291  0.2050
15333SOL    HW150361   1.454   2.162   1.597  0.2568 -0.0252  0.4885
15333SOL    HW250362   1.453   2.045   1.693  0.0004  0.4361  1.0522
15334SOL     OW50363   1.904   0.382   0.354  0.2846  0.2738 -0.4151
15334SOL    HW150364   1.975   0.329   0.319  1.8428  1.7142  0.3841
15334SOL    HW250365   1.833   0.320   0.369  1.0555 -1.0817 -2.0343
15335SOL     OW50366   7.919   4.774   7.857 -0.0461 -0.0463  0.2551
15335SOL    HW150367   7.972   4.854   7.864  0.8475 -0.6966  1.2962
15335SOL    HW250368   7.899   4.766   7.764  0.7707  0.8068 -0.0102
15336SOL     OW50369   0.048   6.464   6.156 -0.3732  0.0675 -0.1433
15336SOL    HW150370   0.092   6.500   6.079 -0.1681 -0.4288 -0.2612
15336SOL    HW250371   0.109   6.476   6.228  0.5471 -1.8077 -0.5463
15337SOL     OW50372   9.461   1.289   0.338  0.5062 -0.4632 -0.5852
15337SOL    HW150373   9.475   1.379   0.367  2.5603 -1.0156  0.2773
15337SOL    HW250374   9.423   1.299   0.250 -3.4600  1.2116  1.0474
15338SOL     OW50375   2.958   9.000   4.062 -0.3252 -0.4740  0.4322
15338SOL    HW150376   2.920   9.007   4.149 -1.0235 -0.1755  0.1078
15338SOL    HW250377   2.937   9.084   4.020 -0.7032 -0.9331 -0.3046
15339SOL     OW50378   7.555   3.221   5.296 -0.1577 -0.0489  0.2567
15339SOL    HW150379   7.559   3.315   5.277  0.5846 -0.3159 -0.9836
15339SOL    HW250380   7.628   3.206   5.356 -1.3573  0.4510  1.9283
15340SOL     OW50381   3.471   3.124   2.130  0.3108  0.5737  0.5167
15340SOL    HW150382   3.420   3.044   2.128 -0.9581  1.3879 -0.5905
15340SOL    HW250383   3.492   3.143   2.039  0.1113  1.7899  0.6978
15341SOL     OW50384   3.461   0.749   2.226 -0.6673 -0.3756 -0.3752
15341SOL    HW150385   3.540   0.802   2.236 -0.3126 -1.3183  2.7006
15341SOL    HW250386   3.393   0.796   2.274 -1.1019 -1.2445 -0.1176
15342SOL     OW50387  10.698   4.466   4.219 -0.3211 -0.5158 -0.4301
15342SOL    HW150388  10.628   4.401   4.212 -0.6663 -0.2239  0.1993
15342SOL    HW250389  10.738   4.468   4.132 -0.6699 -1.1618 -0.6116
15343SOL     OW50390   2.066   6.434   0.192 -0.1861 -0.1797 -0.8838
15343SOL    HW150391   2.106   6.440   0.105 -1.3502 -1.1851 -1.5138
15343SOL    HW250392   1.973   6.417   0.175 -0.3409 -0.9268  0.5626
15344SOL     OW50393   9.044   0.636   5.049 -0.0627 -0.0505 -0.2224
15344SOL    HW150394   9.069   0.632   4.956 -0.2205 -2.5460 -0.2091
15344SOL    HW250395   9.126   0.622   5.096 -0.1374  0.2985  0.0153
15345SOL     OW50396  10.546   5.420   3.964  0.0642 -0.0019  0.3330
15345SOL    HW150397  10.619   5.358   3.959  0.9235  0.9515  0.6275
15345SOL    HW250398  10.588   5.505   3.981 -1.1168  0.5724  0.4855
15346SOL     OW50399   5.218   4.539   5.029 -0.3071  0.4664 -0.5919
15346SOL    HW150400   5.213   4.619   5.081 -2.9393  0.5497 -0.8231
15346SOL    HW250401   5.280   4.559   4.959  1.6816  1.0750  1.2182
15347SOL     OW50402   3.460   9.412   1.660  0.2709 -0.3035  0.0806
15347SOL    HW150403   3.379   9.373   1.626  0.1644  0.1515 -0.1911
15347SOL    HW250404   3.470   9.375   1.748 -1.5202  1.4479  1.1092
15348SOL     OW50405   3.821   5.759   7.908 -0.4097 -0.2669  0.0297
15348SOL    HW150406   3.756   5.689   7.897 -0.7212  0.0547 -0.2064
15348SOL    HW250407   3.901   5.723   7.869 -0.9434  0.0336 -1.4153
15349SOL     OW50408   9.263  10.374   3.177  0.4802 -0.6138 -0.1726
15349SOL    HW150409   9.196  10.325   3.129  0.1288  0.7895 -1.1763
15349SOL    HW250410   9.213  10.427   3.240  0.6911 -0.1743 -0.3657
15350SOL     OW50411   0.845   7.076   2.157  0.1065  0.3966  0.3307
15350SOL    HW150412   0.876   7.142   2.095 -0.1677  0.9279  0.7407
15350SOL    HW250413   0.768   7.116   2.198  0.5315  0.2587  1.3181
15351SOL     OW50414   5.469   4.538   3.313  0.0009  0.0616  0.2277
15351SOL    HW150415   5.516   4.462   3.278  2.0202 -0.2437  3.2040
15351SOL    HW250416   5.393   4.501   3.358  0.3126 -0.0628  0.6491
15352SOL     OW50417   4.353   3.759   5.546  0.4711  0.1580  0.4537
15352SOL    HW150418   4.373   3.848   5.518  1.6018 -0.1571  0.2443
15352SOL    HW250419   4.320   3.769   5.636 -0.4575  0.8787  0.0482
15353SOL     OW50420   6.714   5.142   4.176  0.2934 -0.1038 -0.3015
15353SOL    HW150421   6.708   5.074   4.244 -0.5488  1.3749  1.1919
15353SOL    HW250422   6.625   5.178   4.171  1.2647  2.7428  0.9979
15354SOL     OW50423   5.794   1.237   4.546  0.2542  0.2353  0.4780
15354SOL    HW150424   5.711   1.194   4.569  0.4392 -1.2683 -1.4324
15354SOL    HW250425   5.844   1.170   4.500  2.3981  1.2395  1.2118
15355SOL     OW50426   0.008   8.221   5.785 -0.0448  0.4504  0.2572
15355SOL    HW150427  -0.058   8.272   5.833 -0.4756 -0.3673  0.5542
15355SOL    HW250428  -0.042   8.180   5.714 -0.1968 -1.3944  1.3694
15356SOL     OW50429   9.164   4.203   3.236  0.1917  0.3493  0.1902
15356SOL    HW150430   9.162   4.170   3.326  0.7946  2.3691  1.0264
15356SOL    HW250431   9.235   4.268   3.237 -0.6466  1.3430 -1.3792
15357SOL     OW50432   4.951   0.726   8.626  0.0603 -0.2570 -0.5196
15357SOL    HW150433   4.883   0.781   8.587 -0.8574 -1.7202 -1.0671
15357SOL    HW250434   5.032   0.776   8.616 -0.5344  0.4228 -2.1685
15358SOL     OW50435   4.986   9.727   7.174  0.1323 -0.1050  0.3777
15358SOL    HW150436   4.982   9.727   7.078 -2.0034  1.8314  0.3914
15358SOL    HW250437   5.019   9.640   7.196 -2.2686 -1.8034 -2.0780
15359SOL     OW50438   4.105   5.876   0.612 -0.3981 -0.0962 -0.2793
15359SOL    HW150439   4.052   5.798   0.596 -0.3596 -0.0922 -0.4216
15359SOL    HW250440   4.079   5.938   0.545 -0.3099 -0.0455 -0.2672
15360SOL     OW50441   4.641   1.849   4.095  0.0185  0.0932 -0.1106
15360SOL    HW150442   4.686   1.782   4.044 -0.9362 -0.2319 -0.5533
15360SOL    HW250443   4.598   1.800   4.165 -1.4796  0.0934 -0.9909
15361SOL     OW50444   5.227   7.154   7.920 -0.1836 -0.5854 -0.1034
15361SOL    HW150445   5.309   7.172   7.966 -0.5739 -0.8004  0.7034
15361SOL    HW250446   5.167   7.221   7.951 -0.8126 -1.4868  0.6901
15362SOL     OW50447   3.252  10.606  10.214  0.0287 -0.0504  0.1392
15362SOL    HW150448   3.286  10.531  10.165 -0.3409 -0.0960 -0.0530
15362SOL    HW250449   3.296  10.682  10.176 -1.2165  0.0538 -1.1818
15363SOL     OW50450   6.904  10.907   0.747 -0.3607  0.0285  0.0106
15363SOL    HW150451   6.967  10.932   0.814  0.3844 -1.3928 -0.1278
15363SOL    HW250452   6.954  10.904   0.665 -0.7405 -0.4812 -0.2131
15364SOL     OW50453   3.873   2.496   4.721  0.4689 -0.1321 -0.7394
15364SOL    HW150454   3.932   2.434   4.764 -1.3197 -0.7156  1.0044
15364SOL    HW250455   3.786   2.457   4.731 -0.1703 -0.0602 -4.5460
15365SOL     OW50456   3.715   4.341   2.989 -0.2187  0.4053  0.4183
15365SOL    HW150457   3.656   4.406   2.953  0.0803 -0.1262 -1.1207
15365SOL    HW250458   3.722   4.362   3.082 -1.2491  1.6690  0.2211
15366SOL     OW50459   4.247   0.127   4.934 -0.4663 -1.1107  0.5860
15366SOL    HW150460   4.310   0.085   4.992 -0.4836  0.2860  1.6708
15366SOL    HW250461   4.164   0.121   4.980 -0.4950 -0.0471  0.7046
15367SOL     OW50462   8.972   8.397   8.823  0.1233  0.0343  0.0003
15367SOL    HW150463   8.901   8.337   8.799 -0.7616  0.8106  0.6103
15367SOL    HW250464   9.045   8.339   8.847 -1.6564 -0.9977  3.6614
15368SOL     OW50465   5.509  10.647   9.161  0.3220  0.2783 -0.3997
15368SOL    HW150466   5.555  10.599   9.092 -0.4488 -0.7361 -0.2300
15368SOL    HW250467   5.464  10.579   9.211 -0.1620  1.1179  0.3298
15369SOL     OW50468  10.393   5.858   6.296 -0.1822 -0.1033  0.3309
15369SOL    HW150469  10.402   5.821   6.208  0.1685  0.2295  0.2202
15369SOL    HW250470  10.304   5.836   6.323 -0.5874  0.5239 -0.4553
15370SOL     OW50471  10.620   6.633   3.810 -0.4214 -0.1905  0.2648
15370SOL    HW150472  10.604   6.577   3.886  2.8747 -3.3833 -1.1211
15370SOL    HW250473  10.712   6.659   3.819  0.0460 -0.6316 -2.5733
15371SOL     OW50474   4.904   0.174   9.582 -0.8736 -0.0376  0.2070
15371SOL    HW150475   4.834   0.187   9.519 -3.1854 -0.0420  2.6045
15371SOL    HW250476   4.923   0.262   9.614 -1.1844 -0.2344  0.9527
15372SOL     OW50477   0.916   8.054   0.756 -0.0055  0.6151 -0.3057
15372SOL    HW150478   0.984   8.040   0.822 -0.0990 -0.0379 -0.3378
15372SOL    HW250479   0.913   7.972   0.707 -0.0917  1.0177 -0.9832
15373SOL     OW50480   4.262   4.092  10.274  0.0394  0.2871  0.0257
15373SOL    HW150481   4.221   4.010  10.245 -0.2954  0.1759  0.7807
15373SOL    HW250482   4.316   4.066  10.349  1.1553  0.5116 -0.6674
15374SOL     OW50483   3.095   2.554   5.453  0.1337 -0.6687  0.0822
15374SOL    HW150484   3.090   2.594   5.367 -0.3857 -1.0118 -0.0528
15374SOL    HW250485   3.106   2.460   5.435  2.5196 -0.5196  0.3793
15375SOL     OW50486   1.632   1.939   7.541 -0.3495 -0.4366 -0.0529
15375SOL    HW150487   1.699   1.873   7.524  1.2272  1.3837 -1.3687
15375SOL    HW250488   1.587   1.909   7.619  2.2387 -1.5848  1.0971
15376SOL     OW50489   0.271   3.708   0.991  0.0982  0.3179 -0.1274
15376SOL    HW150490   0.220   3.766   0.936 -1.3943  0.9642  1.8476
15376SOL    HW250491   0.251   3.735   1.081 -0.7877 -3.2580  0.9194
15377SOL     OW50492   1.903   7.771   0.481  0.1789 -0.4400 -0.6501
15377SOL    HW150493   1.818   7.798   0.517  1.5310  2.5266  0.6157
15377SOL    HW250494   1.903   7.805   0.392  0.1549 -0.0704 -0.5138
15378SOL     OW50495   0.620   7.844  10.320  0.0062 -0.1023  0.2105
15378SOL    HW150496   0.558   7.801  10.261  0.6352 -1.9172  0.8206
15378SOL    HW250497   0.604   7.805  10.406  1.5104 -0.1362  0.5166
15379SOL     OW50498  10.552   5.933   7.658  0.1951  0.2652 -0.6604
15379SOL    HW150499  10.483   5.877   7.695  0.9527  0.0830  0.5138
15379SOL    HW250500  10.619   5.872   7.628  0.5084  0.4996 -0.4392
15380SOL     OW50501   7.310   8.992   6.246 -0.0350  0.2568 -0.2178
15380SOL    HW150502   7.279   8.935   6.316  0.4273  0.0509 -0.1751
15380SOL    HW250503   7.261   8.965   6.169  0.6744 -0.6777 -0.3586
15381SOL     OW50504   8.715  10.582  10.818  0.8215 -0.0071  0.1020
15381SOL    HW150505   8.727  10.487  10.818  1.2744  0.0487 -0.1556
15381SOL    HW250506   8.792  10.616  10.863  0.5366  0.2275  0.4187
15382SOL     OW50507   6.402   2.075   0.140  0.4650  0.4139  0.3780
15382SOL    HW150508   6.338   2.140   0.170  0.1356  0.0598  0.4480
15382SOL    HW250509   6.468   2.073   0.209 -0.1635 -0.2219  0.9738
15383SOL     OW50510   9.400   9.793   5.601  0.1017 -0.1429  0.4758
15383SOL    HW150511   9.334   9.725   5.615  1.4486 -1.7070 -0.3929
15383SOL    HW250512   9.389   9.852   5.676 -1.9335 -0.5895  0.6029
15384SOL     OW50513   2.866   4.990   9.010  0.1578  0.4802  0.1375
15384SOL    HW150514   2.814   5.070   9.012  0.2357  0.5399 -0.1741
15384SOL    HW250515   2.895   4.982   8.919  0.8174  0.5243  0.3393
15385SOL     OW50516   8.890   0.029   9.328  0.9546 -0.0402  0.3758
15385SOL    HW150517   8.862   0.084   9.401  0.3322 -0.9400  0.8353
15385SOL    HW250518   8.944  -0.039   9.369 -0.6852 -1.4727  0.2504
15386SOL     OW50519   3.850   8.858  10.058 -0.3087  0.6751  0.1161
15386SOL    HW150520   3.911   8.831  10.127 -1.9606 -1.4421  0.8642
15386SOL    HW250521   3.843   8.782  10.001  1.6503  2.6422 -3.0430
15387SOL     OW50522   2.084   9.765   6.976  0.3748 -0.1112 -0.0408
15387SOL    HW150523   2.090   9.861   6.971 -1.9706  0.0302 -1.8521
15387SOL    HW250524   2.089   9.736   6.885 -0.0766 -1.6094  0.3789
15388SOL     OW50525   3.550   7.006  10.915 -0.1336  0.3360  0.3495
15388SOL    HW150526   3.513   6.947  10.981 -1.1311  0.9497  0.3456
15388SOL    HW250527   3.621   6.955  10.875 -0.7813 -0.7652  0.5545
15389SOL     OW50528  10.212   6.175   0.785 -0.3470  0.1890 -0.4085
15389SOL    HW150529  10.133   6.161   0.733 -1.9430 -0.7493  2.0415
15389SOL    HW250530  10.235   6.266   0.771 -3.3969  1.2483  0.6574
15390SOL     OW50531   5.681   0.226   5.451  0.4036 -0.3618 -0.0413
15390SOL    HW150532   5.672   0.151   5.393  0.7051  0.6933 -1.4997
15390SOL    HW250533   5.775   0.245   5.451  0.1501  1.0781 -1.1378
15391SOL     OW50534   8.765  10.865   9.479  0.0838  0.0210  0.1356
15391SOL    HW150535   8.712  10.944   9.485  2.2792  1.5250  0.7259
15391SOL    HW250536   8.758  10.839   9.387 -1.6794  0.1196  0.2120
15392SOL     OW50537   9.943  10.869   1.255  0.2487  0.3596 -0.1554
15392SOL    HW150538   9.899  10.797   1.209  1.1750 -1.1977  1.2603
15392SOL    HW250539   9.951  10.938   1.189 -1.0733 -0.6530 -1.4594
15393SOL     OW50540   9.740   9.631   3.902  0.1568  0.0126 -0.0889
15393SOL    HW150541   9.685   9.673   3.968  1.1461  1.8559 -0.3657
15393SOL    HW250542   9.829   9.648   3.931  0.6180 -1.6744 -0.4115
15394SOL     OW50543   6.295   6.908   2.745 -0.1149  0.5145  0.8464
15394SOL    HW150544   6.306   6.960   2.825  0.6113  2.3381 -0.3861
15394SOL    HW250545   6.380   6.912   2.701 -0.5751 -0.2309 -0.1655
15395SOL     OW50546   8.696   4.359   0.899 -0.3082  0.2719 -0.2905
15395SOL    HW150547   8.766   4.294   0.907 -2.6300 -2.3216  0.1849
15395SOL    HW250548   8.668   4.353   0.808 -0.9728  0.1102 -0.0780
15396SOL     OW50549   9.878   7.501   6.328  0.0478 -0.6218 -0.6939
15396SOL    HW150550   9.810   7.524   6.265  0.7399 -0.3352 -1.3476
15396SOL    HW250551   9.897   7.582   6.374  0.7299 -0.4309 -1.2891
15397SOL     OW50552   2.349   4.334   4.523 -0.3694  0.2389 -0.2352
15397SOL    HW150553   2.275   4.365   4.470 -0.1547  0.2585 -0.5303
15397SOL    HW250554   2.352   4.394   4.597 -1.3550 -0.4481  0.3882
15398SOL     OW50555   8.035   5.568   4.952  0.4750  0.4743 -0.1618
15398SOL    HW150556   7.958   5.518   4.977  0.4816  0.4501 -0.1904
15398SOL    HW250557   8.057   5.618   5.030 -0.7915  2.0636 -0.7883
15399SOL     OW50558   7.770   8.673  11.093  0.4714  0.4542  0.2800
15399SOL    HW150559   7.799   8.597  11.143  0.2471 -0.5203 -1.0281
15399SOL    HW250560   7.678   8.656  11.075 -0.4382  2.4581  2.4520
15400SOL     OW50561   4.672   6.864   4.109 -0.2599  0.0923 -0.5006
15400SOL    HW150562   4.706   6.952   4.122 -0.6971  0.1420  0.3699
15400SOL    HW250563   4.723   6.830   4.035  1.1526  0.4334  0.2684
15401SOL     OW50564   2.962   7.887   8.318 -0.1820 -0.0350  0.5335
15401SOL    HW150565   2.983   7.973   8.281  0.0595  0.1766  1.1512
15401SOL    HW250566   2.989   7.825   8.250  0.8034  0.3174  0.5869
15402SOL     OW50567   1.986  10.177   3.250  0.1399 -0.1056  0.1642
15402SOL    HW150568   1.989  10.199   3.344 -0.9549 -0.0234  0.1942
15402SOL    HW250569   1.995  10.261   3.206 -0.0383 -0.0621  0.2093
15403SOL     OW50570   8.825   6.669   8.206  0.0512 -0.5741  0.2168
15403SOL    HW150571   8.757   6.615   8.247  0.3779 -0.3930  1.0009
15403SOL    HW250572   8.876   6.607   8.153 -0.2330 -0.8424  0.2511
15404SOL     OW50573   8.303   8.393   4.677 -0.3669  0.0552  0.3111
15404SOL    HW150574   8.350   8.415   4.758  0.1419 -0.7344  0.2478
15404SOL    HW250575   8.370   8.398   4.609 -0.2407 -1.4628  0.2767
15405SOL     OW50576   1.265   3.312   8.202 -0.0709  0.7094  0.4193
15405SOL    HW150577   1.290   3.286   8.290 -2.5354  0.0339  0.9972
15405SOL    HW250578   1.223   3.397   8.214 -2.1413 -0.2351  0.2507
15406SOL     OW50579   9.987   3.732   5.311 -0.3100  0.3193  0.6644
15406SOL    HW150580   9.899   3.700   5.294 -0.1319  0.7811 -1.5145
15406SOL    HW250581  10.016   3.685   5.389 -2.3695 -0.0105  1.2843
15407SOL     OW50582   8.037   8.588   2.573 -0.4873  0.3425 -0.0228
15407SOL    HW150583   8.056   8.533   2.496  1.6890  0.1469  0.5764
15407SOL    HW250584   8.062   8.676   2.546 -0.2085  0.3598  0.2879
15408SOL     OW50585   2.518   9.487   7.517 -0.3523 -0.7113 -0.1322
15408SOL    HW150586   2.550   9.447   7.598  1.6140  0.0522 -0.4654
15408SOL    HW250587   2.498   9.577   7.541  1.2732 -0.1667 -0.6594
15409SOL     OW50588  10.416   0.526   7.469 -0.0070  0.4611 -0.0273
15409SOL    HW150589  10.509   0.527   7.445  0.4181 -0.9739  1.3409
15409SOL    HW250590  10.394   0.433   7.470 -0.6489  0.5918  2.5092
15410SOL     OW50591  10.171   8.817   6.469  0.1368 -0.2394  0.5442
15410SOL    HW150592  10.239   8.859   6.415  0.8990 -0.6314  1.1818
15410SOL    HW250593  10.107   8.785   6.406 -0.1653  1.3347 -0.0052
15411SOL     OW50594   9.829   4.811   9.761  0.3290  0.1223  0.3158
15411SOL    HW150595   9.823   4.888   9.704 -3.3234 -0.6193 -0.5605
15411SOL    HW250596   9.839   4.848   9.849 -0.7993  1.6312 -0.1378
15412SOL     OW50597   4.451   5.668   7.879  0.6017 -0.1510  0.1967
15412SOL    HW150598   4.540   5.675   7.845  0.3230  3.1413 -0.1922
15412SOL    HW250599   4.407   5.608   7.819  1.6996  0.8701 -1.7383
15413SOL     OW50600  10.908   3.139   8.251 -0.4030 -0.7030  0.6344
15413SOL    HW150601  10.854   3.083   8.306 -1.0902 -0.5399  0.1396
15413SOL    HW250602  10.850   3.210   8.225  0.7850  0.9974  2.3029
15414SOL     OW50603   1.989   4.019   3.519 -0.1041  0.3380  0.2550
15414SOL    HW150604   1.922   3.967   3.563 -0.4090 -0.9686 -1.6605
15414SOL    HW250605   1.971   4.008   3.426  1.1541  2.1656 -0.2621
15415SOL     OW50606   1.761   0.242   8.968  0.0407  0.4107 -0.3195
15415SOL    HW150607   1.833   0.222   8.908  0.3846 -0.8879  0.4710
15415SOL    HW250608   1.744   0.335   8.955  1.0694  0.4829 -1.3722
15416SOL     OW50609   9.530   8.685   7.177 -0.5789  0.2665 -0.0301
15416SOL    HW150610   9.481   8.694   7.259  1.7919 -1.1242  1.6456
15416SOL    HW250611   9.598   8.752   7.182 -0.7056  0.5026 -1.1449
15417SOL     OW50612   3.424  10.751   7.810  0.1909 -0.4142  0.1713
15417SOL    HW150613   3.433  10.846   7.809 -0.9878 -0.2598  1.2495
15417SOL    HW250614   3.469  10.723   7.890 -1.0638 -0.5514  0.8470
15418SOL     OW50615   9.988   7.311   7.625  0.3167  0.0992 -0.6858
15418SOL    HW150616   9.897   7.327   7.653  1.2040  1.2306  1.8327
15418SOL    HW250617   9.989   7.219   7.599 -1.2247 -0.3780  0.7526
15419SOL     OW50618   7.562   7.003   2.021 -0.1555  0.5644 -0.1223
15419SOL    HW150619   7.569   6.910   2.040 -3.2875  0.3238  0.4827
15419SOL    HW250620   7.640   7.042   2.060  1.0209 -1.7191 -0.0161
15420SOL     OW50621   0.346   1.796  10.094  0.2465 -0.6288 -0.0681
15420SOL    HW150622   0.278   1.859  10.119 -1.5223 -2.5694  0.3207
15420SOL    HW250623   0.302   1.711  10.099  2.1339 -1.7920 -1.9579
15421SOL     OW50624   0.720   8.254   0.800  0.1057 -0.1460  0.0760
15421SOL    HW150625   0.723   8.250   0.895 -0.4792  0.6511  0.1357
15421SOL    HW250626   0.785   8.190   0.771  0.4596 -0.2149  1.0061
15422SOL     OW50627   6.550   6.972  10.619 -0.2694  0.1439  0.0518
15422SOL    HW150628   6.608   6.898  10.634 -0.1246  0.4520  1.1242
15422SOL    HW250629   6.482   6.963  10.686  0.1778  1.3965  0.6949
15423SOL     OW50630   7.016   7.819  10.619 -0.0341 -0.3254  0.2864
15423SOL    HW150631   6.939   7.788  10.572 -0.1101  0.9810 -0.4846
15423SOL    HW250632   6.982   7.884  10.680  0.1732 -1.4114  1.6283
15424SOL     OW50633   3.913   5.608  10.638  0.8088 -0.0087 -0.0519
15424SOL    HW150634   3.912   5.695  10.598 -1.0815  0.3920  0.7471
15424SOL    HW250635   3.985   5.612  10.702  0.1184  1.3522  0.6944
15425SOL     OW50636   9.370   1.322   2.506  0.4506 -0.0424  0.1715
15425SOL    HW150637   9.427   1.266   2.453  0.4669  1.6828 -1.7953
15425SOL    HW250638   9.282   1.293   2.484  0.4907 -0.4892  0.5885
15426SOL     OW50639   0.041   5.764   0.454  0.3784  0.2033  0.3803
15426SOL    HW150640  -0.013   5.743   0.378  1.2293 -3.3179  0.5483
15426SOL    HW250641   0.066   5.855   0.442 -1.1749  0.3497 -2.4982
15427SOL     OW50642   4.615   5.835   3.971 -0.1014 -0.2317 -0.5259
15427SOL    HW150643   4.636   5.927   3.956 -2.1039  0.2087 -0.9733
15427SOL    HW250644   4.699   5.790   3.963  0.8012  1.4486 -1.1426
15428SOL     OW50645   1.873   6.549   9.927  0.0633  0.1239 -0.4445
15428SOL    HW150646   1.786   6.587   9.936 -0.4162 -1.0584  0.0003
15428SOL    HW250647   1.930   6.611   9.973 -0.9535 -0.5657  1.8708
15429SOL     OW50648   9.910   3.615   0.417 -0.2178 -0.1314  0.0924
15429SOL    HW150649   9.881   3.530   0.383 -0.9200  0.0555  0.2117
15429SOL    HW250650  10.005   3.613   0.408 -0.2027 -1.0353  0.3211
15430SOL     OW50651   7.112   5.804   6.920  0.3407  0.2234 -0.3298
15430SOL    HW150652   7.047   5.742   6.887 -0.2708  1.5169 -1.7080
15430SOL    HW250653   7.060   5.880   6.948  1.2031  1.4247 -1.7893
15431SOL     OW50654  10.437   3.050   8.452 -0.2644  0.0566 -0.4405
15431SOL    HW150655  10.431   3.030   8.546  0.3170  0.3335 -0.3410
15431SOL    HW250656  10.485   3.133   8.448 -2.2151  1.2276 -0.8809
15432SOL     OW50657   7.269   0.009   6.266  0.4636  0.2387 -0.2942
15432SOL    HW150658   7.289  -0.043   6.344  2.5576 -1.1134 -1.6173
15432SOL    HW250659   7.181  -0.019   6.241  1.7653 -3.5741 -1.4393
15433SOL     OW50660  10.826   7.584   3.540 -0.2979 -0.3271 -0.1362
15433SOL    HW150661  10.914   7.547   3.551 -0.4355 -0.4938  0.4326
15433SOL    HW250662  10.841   7.678   3.527 -0.0611 -0.2594  0.5648
15434SOL     OW50663   8.095   8.434   3.418 -0.5530 -0.4745 -0.1034
15434SOL    HW150664   8.140   8.442   3.503 -0.2708 -0.5226 -0.2474
15434SOL    HW250665   8.004   8.415   3.441 -0.0783 -2.6683  0.1821
15435SOL     OW50666   5.841   8.290   7.546 -0.0252 -0.2652  0.2519
15435SOL    HW150667   5.811   8.380   7.536  0.3116 -0.0154  1.3155
15435SOL    HW250668   5.839   8.274   7.641  0.3689 -1.2119  0.1165
15436SOL     OW50669   0.993   3.441   2.100 -0.2106 -0.4507 -0.6531
15436SOL    HW150670   0.929   3.504   2.065  1.3813  1.8361  0.3451
15436SOL    HW250671   1.052   3.494   2.154  1.2234 -2.8391  0.2629
15437SOL     OW50672  10.236   4.674   0.568  0.3303 -0.3810 -0.3675
15437SOL    HW150673  10.309   4.635   0.616  1.5549 -1.3604 -2.8103
15437SOL    HW250674  10.171   4.604   0.563  0.2101 -0.2847 -0.1176
15438SOL     OW50675   7.367   9.738   1.609  0.1326 -0.4872  0.2160
15438SOL    HW150676   7.291   9.787   1.642  0.7146  0.0995  0.7012
15438SOL    HW250677   7.336   9.648   1.603 -1.3449  0.0790 -1.8640
15439SOL     OW50678   5.614   9.482   2.618 -0.2399  0.0841 -0.6008
15439SOL    HW150679   5.597   9.542   2.690 -1.1508  0.3802 -1.0466
15439SOL    HW250680   5.693   9.435   2.645 -0.3232  0.4754  0.3980
15440SOL     OW50681   7.597   9.362   6.163  0.7883 -0.6329  0.0547
15440SOL    HW150682   7.557   9.276   6.164 -0.5370 -0.0413  0.7059
15440SOL    HW250683   7.612   9.381   6.070 -0.2710 -0.9619 -0.1921
15441SOL     OW50684   3.623   4.444  10.713  0.3909  0.2001 -0.1171
15441SOL    HW150685   3.657   4.511  10.773  2.1239  0.2711 -1.0956
15441SOL    HW250686   3.547   4.485  10.672  0.4070  0.9241  0.5376
15442SOL     OW50687   8.908   3.680   0.065  0.2168  0.1939  0.0772
15442SOL    HW150688   8.835   3.657   0.008 -0.2887 -0.4900  0.9785
15442SOL    HW250689   8.970   3.726   0.008 -0.7062  0.3740 -0.7955
15443SOL     OW50690   6.635   8.265  10.528  0.1821 -0.4187 -0.0528
15443SOL    HW150691   6.559   8.211  10.551 -0.6259  1.2648  1.5209
15443SOL    HW250692   6.628   8.341  10.585  1.1346  1.4826 -2.2807
15444SOL     OW50693   4.912   5.365   4.897 -0.1700 -0.3507 -0.1444
15444SOL    HW150694   4.920   5.327   4.985 -3.7388 -3.4213 -0.8936
15444SOL    HW250695   4.961   5.304   4.841 -1.0274 -0.5524 -0.6858
15445SOL     OW50696   9.492   6.216   7.759 -0.4744 -0.3290 -0.2619
15445SOL    HW150697   9.432   6.277   7.717 -0.0322  2.4690  2.7086
15445SOL    HW250698   9.560   6.200   7.694  0.1762  3.6919 -0.8696
15446SOL     OW50699   9.069   6.516   2.037  0.3037  0.5867 -0.3251
15446SOL    HW150700   8.981   6.486   2.012 -0.2769  0.2113  1.9976
15446SOL    HW250701   9.110   6.440   2.078  1.0508  1.2689  0.2239
15447SOL     OW50702  11.011   0.839   4.131  0.1929 -0.0652 -0.2147
15447SOL    HW150703  11.042   0.926   4.109 -3.2378  1.3948  0.0960
15447SOL    HW250704  11.041   0.825   4.221  2.7092 -0.2989 -1.0073
15448SOL     OW50705  11.022   4.812   5.314 -0.0564 -0.3772 -0.3793
15448SOL    HW150706  11.104   4.769   5.289  0.1978 -1.5085  2.0652
15448SOL    HW250707  11.050   4.897   5.348  0.1510 -0.7454  0.4144
15449SOL     OW50708   4.008   6.161   0.108  0.7348 -0.3613  0.3474
15449SOL    HW150709   3.955   6.189   0.034  1.3365  0.5354  0.2365
15449SOL    HW250710   4.061   6.089   0.075  1.7215  0.6788 -0.3980
15450SOL     OW50711   0.200   3.642   3.183 -0.6168 -0.0476 -0.3581
15450SOL    HW150712   0.188   3.736   3.195 -0.4953 -0.2424  1.7448
15450SOL    HW250713   0.288   3.633   3.147 -0.1277  0.6143  0.6235
15451SOL     OW50714   8.410   7.753   9.223 -0.0617 -0.5312 -0.6047
15451SOL    HW150715   8.372   7.789   9.303 -0.2758  0.0064 -0.9477
15451SOL    HW250716   8.411   7.658   9.237 -0.4037 -0.4595 -0.1039
15452SOL     OW50717   6.942   1.951   1.300 -0.0567 -0.4226 -0.0390
15452SOL    HW150718   6.938   1.869   1.251  0.7728  0.3900 -1.5173
15452SOL    HW250719   6.918   1.926   1.390  0.9992 -2.4490 -0.2590
15453SOL     OW50720   3.312  10.481   1.824  0.3760 -0.0732 -0.1525
15453SOL    HW150721   3.353  10.398   1.802 -0.9001 -0.5626 -0.8336
15453SOL    HW250722   3.371  10.522   1.887  2.1037 -0.5153 -1.4293
15454SOL     OW50723   9.032   9.964  11.099 -0.0178 -0.0717 -0.1269
15454SOL    HW150724   9.122   9.932  11.098  0.6086  1.5867  0.1116
15454SOL    HW250725   9.030  10.032  11.032 -1.1100 -0.1082 -0.1442
15455SOL     OW50726   9.862  10.671   5.757  0.2128  0.0557  0.5890
15455SOL    HW150727   9.898  10.718   5.682  0.1748  0.0017  0.5373
15455SOL    HW250728   9.779  10.635   5.727  0.5890 -0.6852  0.3878
15456SOL     OW50729   0.342   6.897   0.736  0.2060 -0.3482 -0.1225
15456SOL    HW150730   0.326   6.823   0.795 -1.5449 -0.7441 -1.0332
15456SOL    HW250731   0.313   6.866   0.650 -1.1426  1.5440 -0.4256
15457SOL     OW50732   1.595   9.634   8.366  0.0033  0.5075 -0.3764
15457SOL    HW150733   1.611   9.720   8.327  1.3828 -0.0324 -1.0378
15457SOL    HW250734   1.527   9.651   8.432  1.2525  2.3746  0.5179
15458SOL     OW50735   6.501   7.625   2.784  0.3657 -0.4539  0.2956
15458SOL    HW150736   6.410   7.597   2.793  0.5412 -0.8482  0.9232
15458SOL    HW250737   6.551   7.544   2.785  0.6818 -0.2742 -0.6608
15459SOL     OW50738   1.126   0.359   7.475 -0.5485  0.2125  0.3570
15459SOL    HW150739   1.103   0.272   7.508  3.7312 -1.8554 -1.2432
15459SOL    HW250740   1.091   0.361   7.386  0.9773 -0.8082 -0.3061
15460SOL     OW50741  10.895   2.712   8.680 -0.3548 -0.3862 -0.0038
15460SOL    HW150742  10.948   2.647   8.726  0.0698 -0.7439 -0.9781
15460SOL    HW250743  10.861   2.768   8.750  0.7726 -0.5459  0.7045
15461SOL     OW50744   6.777   3.698   7.927 -0.0929  0.1327  0.4414
15461SOL    HW150745   6.734   3.782   7.911 -0.6701 -0.2109  0.1817
15461SOL    HW250746   6.732   3.636   7.870  0.4900 -0.3111  0.4468
15462SOL     OW50747   3.089   2.837   9.967 -0.4481  0.7895 -0.1850
15462SOL    HW150748   3.011   2.804  10.013 -0.9173  1.4575 -0.4861
15462SOL    HW250749   3.070   2.823   9.875  0.3688 -0.2741 -0.2080
15463SOL     OW50750   0.293   4.148   1.753 -0.0829 -0.1590  0.5149
15463SOL    HW150751   0.323   4.159   1.663 -0.2644  2.4726  0.6959
15463SOL    HW250752   0.334   4.067   1.783 -0.3713 -1.3368 -2.0436
15464SOL     OW50753   7.054   6.360   9.409 -0.4616  0.3499  0.4658
15464SOL    HW150754   7.007   6.278   9.393 -0.8764  0.5223  0.7849
15464SOL    HW250755   7.146   6.335   9.407 -0.5867 -0.1447  0.6417
15465SOL     OW50756  10.761   9.150   3.875 -0.4522  0.1381  0.0493
15465SOL    HW150757  10.667   9.163   3.863 -0.2614  0.9544 -0.6362
15465SOL    HW250758  10.799   9.238   3.869  0.5678 -0.3707 -1.7982
15466SOL     OW50759   2.303   0.938   6.882 -0.1567  0.8759 -0.3861
15466SOL    HW150760   2.242   0.877   6.924  1.3398 -1.6543 -1.6416
15466SOL    HW250761   2.263   0.958   6.797  0.3979 -0.2683 -0.9399
15467SOL     OW50762   8.587   8.710   5.786 -0.0439 -0.1736  0.4949
15467SOL    HW150763   8.512   8.762   5.755 -1.7438 -1.1808  2.6548
15467SOL    HW250764   8.588   8.634   5.728  0.6192  0.7887 -0.8144
15468SOL     OW50765   8.623   7.057   8.281 -0.1995 -0.3385 -0.8792
15468SOL    HW150766   8.634   7.083   8.373  2.0805 -1.7087 -0.6755
15468SOL    HW250767   8.577   6.973   8.285  0.7705 -0.8949 -0.8637
15469SOL     OW50768   5.283   5.429   7.741 -0.3836 -0.1306 -0.8372
15469SOL    HW150769   5.361   5.421   7.796 -0.9536  0.8751  0.1486
15469SOL    HW250770   5.303   5.504   7.684 -0.9077  0.5907 -0.0877
15470SOL     OW50771   1.564   2.722   3.441  0.1371 -0.1542 -1.1605
15470SOL    HW150772   1.504   2.657   3.404 -0.1964 -0.1269 -0.6787
15470SOL    HW250773   1.584   2.689   3.529 -0.4200  0.6272 -0.7230
15471SOL     OW50774   3.555   9.025  10.639 -0.0082  0.0761 -0.0325
15471SOL    HW150775   3.645   9.020  10.606 -0.5302  1.3551 -1.7839
15471SOL    HW250776   3.502   9.044  10.562 -2.0526 -2.3556  0.6446
15472SOL     OW50777  10.220   0.430   4.518 -0.1856 -0.1824  0.2975
15472SOL    HW150778  10.174   0.391   4.443  1.8351 -2.7441  0.2454
15472SOL    HW250779  10.307   0.451   4.485 -0.3496  1.9408  1.0927
15473SOL     OW50780   2.852   5.767   4.124 -0.0079 -0.0007  0.9126
15473SOL    HW150781   2.867   5.676   4.099 -0.3130  0.6435 -1.9761
15473SOL    HW250782   2.888   5.774   4.213 -0.0400 -2.9135  1.2490
15474SOL     OW50783   7.367   3.643   3.740  0.2763  0.1785  0.0394
15474SOL    HW150784   7.349   3.704   3.668  0.1878 -0.7876 -0.7704
15474SOL    HW250785   7.306   3.570   3.726  0.9837 -0.5113  0.4834
15475SOL     OW50786   6.666   0.401   6.589 -0.4299  0.1709 -0.0504
15475SOL    HW150787   6.731   0.468   6.569 -0.4636  0.1141 -0.3634
15475SOL    HW250788   6.706   0.320   6.557 -0.0327 -0.0973  1.0616
15476SOL     OW50789  10.493   1.767  10.998  0.2348 -0.2522 -0.5945
15476SOL    HW150790  10.500   1.820  10.918  0.0087  0.2976 -0.2537
15476SOL    HW250791  10.583   1.757  11.028  0.4117 -1.2248 -1.4041
15477SOL     OW50792   3.933   0.544   9.859 -0.2975  0.5277 -0.6967
15477SOL    HW150793   3.860   0.501   9.816  0.4588  0.1517 -1.6496
15477SOL    HW250794   3.913   0.539   9.952 -0.7576 -0.9093 -0.8538
15478SOL     OW50795   3.791   7.991   1.515  0.1092  0.6855 -0.6969
15478SOL    HW150796   3.696   8.004   1.512 -0.3644 -1.5645  1.0881
15478SOL    HW250797   3.812   7.997   1.609  1.5460  0.0811 -0.9608
15479SOL     OW50798   5.108   8.746   6.758 -0.0283  0.3568 -0.0221
15479SOL    HW150799   5.080   8.751   6.849  1.3046  0.1717  0.4190
15479SOL    HW250800   5.026   8.744   6.708 -0.7723  1.5305  1.0932
15480SOL     OW50801  10.760   7.977   6.433  0.0104  0.4536 -0.7171
15480SOL    HW150802  10.818   7.968   6.357  2.0141  0.6066  0.7107
15480SOL    HW250803  10.729   7.888   6.449  1.8593 -0.1354 -0.0723
15481SOL     OW50804   1.703   6.818   9.096  0.1386  0.2025 -0.2916
15481SOL    HW150805   1.631   6.761   9.070  0.2875 -0.1359  0.0177
15481SOL    HW250806   1.662   6.885   9.151  0.2174 -0.7094  0.9451
15482SOL     OW50807   7.884   1.198   8.896  0.1374 -0.1917  0.1132
15482SOL    HW150808   7.809   1.189   8.956  0.2047  0.2792  0.2744
15482SOL    HW250809   7.857   1.265   8.834  0.7267  0.5788  0.6624
15483SOL     OW50810   5.314   9.115   2.898 -0.2839  0.3337  0.0212
15483SOL    HW150811   5.285   9.047   2.959  1.1858  1.4389  2.0572
15483SOL    HW250812   5.252   9.186   2.909 -0.2875  0.3535 -0.1227
15484SOL     OW50813   7.556   7.564   0.768 -0.5458  0.1786 -0.1626
15484SOL    HW150814   7.641   7.602   0.746  1.0359 -1.4742  2.4936
15484SOL    HW250815   7.562   7.473   0.739 -1.6999  0.2197 -0.5692
15485SOL     OW50816  10.837   8.479   2.692  0.1140 -0.1047  0.1054
15485SOL    HW150817  10.906   8.474   2.625 -0.3816  0.6109 -0.4645
15485SOL    HW250818  10.879   8.523   2.766 -0.0183  1.3397 -0.6423
15486SOL     OW50819   8.750   8.636   6.823  0.0531 -0.2936  0.4410
15486SOL    HW150820   8.665   8.640   6.780 -0.4816  0.2989  1.5085
15486SOL    HW250821   8.748   8.554   6.874  0.3249 -0.5364  0.0634
15487SOL     OW50822  10.459   8.168   2.745 -0.4443  0.1508  0.2818
15487SOL    HW150823  10.406   8.161   2.824 -0.3531 -0.2585  0.3105
15487SOL    HW250824  10.494   8.257   2.747 -0.9065  0.3346  0.4030
15488SOL     OW50825   1.450   7.301   5.170 -0.0074  0.7540 -0.0851
15488SOL    HW150826   1.502   7.252   5.234  0.1460  0.7664 -0.2011
15488SOL    HW250827   1.514   7.349   5.118  0.1390 -1.7392 -2.3964
15489SOL     OW50828   0.212   0.928   3.817 -0.1299 -0.2950 -0.0084
15489SOL    HW150829   0.141   0.951   3.876 -0.7111  0.8378 -1.1074
15489SOL    HW250830   0.188   0.841   3.785 -0.0106 -0.7496  1.0923
15490SOL     OW50831   6.013   4.256   2.509  0.5147 -0.1524 -0.3413
15490SOL    HW150832   6.095   4.213   2.489 -0.5029 -2.0304 -0.6796
15490SOL    HW250833   5.976   4.279   2.423  0.5117  0.3629 -0.2062
15491SOL     OW50834   5.575   8.500   0.720  0.3633  0.1264 -0.3181
15491SOL    HW150835   5.484   8.481   0.697 -0.0055  0.0969  1.0535
15491SOL    HW250836   5.572   8.588   0.757  0.6614 -0.3251  0.8382
15492SOL     OW50837   3.780   5.833   6.593 -0.4295 -0.4067 -0.1251
15492SOL    HW150838   3.735   5.853   6.511 -0.7703  0.4171  0.2591
15492SOL    HW250839   3.710   5.831   6.658  0.2489  2.8058  0.8337
15493SOL     OW50840   7.041   1.368   6.103 -0.1984  0.0487  0.2669
15493SOL    HW150841   7.117   1.362   6.160 -0.9838 -0.4572  1.2766
15493SOL    HW250842   7.019   1.277   6.081  2.1927  0.1784 -3.7894
15494SOL     OW50843   7.516   2.246   9.443  0.5123 -0.0918 -0.0187
15494SOL    HW150844   7.462   2.170   9.424 -0.5173  0.5632  0.2015
15494SOL    HW250845   7.510   2.257   9.537 -0.8488  1.3118 -0.2258
15495SOL     OW50846   8.133   6.230   5.269 -0.0542  0.4307 -0.3795
15495SOL    HW150847   8.078   6.235   5.348  0.6260  0.8057  0.0815
15495SOL    HW250848   8.223   6.228   5.302  0.2394  0.5101 -1.1486
15496SOL     OW50849  10.421   2.345   6.911  0.1287  0.0352 -0.0068
15496SOL    HW150850  10.400   2.341   7.004  1.1854  1.5133  0.3412
15496SOL    HW250851  10.339   2.325   6.867  0.0030 -2.4040  1.2011
15497SOL     OW50852  10.052   7.342   4.200 -0.0326 -0.1556  0.1333
15497SOL    HW150853   9.979   7.282   4.188  0.0883 -0.0762 -1.1332
15497SOL    HW250854  10.126   7.299   4.157  0.3063  0.4265  0.1184
15498SOL     OW50855   6.204   7.536   0.671 -0.1924 -0.2135  0.6987
15498SOL    HW150856   6.295   7.531   0.643  1.0148  0.4825  4.0184
15498SOL    HW250857   6.177   7.624   0.646  0.8416  0.3973  1.6205
15499SOL     OW50858   3.233   4.211   9.360  0.0585 -0.3928 -0.2404
15499SOL    HW150859   3.158   4.251   9.405  0.7868  0.1073  0.5373
15499SOL    HW250860   3.231   4.119   9.389 -1.1758 -0.7827 -1.4588
15500SOL     OW50861   9.081   8.481   3.362 -0.0042 -0.0824  0.2070
15500SOL    HW150862   8.989   8.507   3.369  0.2343  1.8646 -2.5247
15500SOL    HW250863   9.077   8.388   3.341 -1.1080 -1.0118  3.7728
15501SOL     OW50864   9.351   3.818   2.675 -0.3852 -0.3150  0.2371
15501SOL    HW150865   9.365   3.895   2.730  0.3040 -0.2238 -0.0488
15501SOL    HW250866   9.269   3.780   2.707  0.1451 -0.4359  1.5264
15502SOL     OW50867   1.865   1.617   4.268 -0.2215 -0.5631 -0.4235
15502SOL    HW150868   1.923   1.588   4.338 -0.4633  1.8407  0.8740
15502SOL    HW250869   1.924   1.649   4.200 -0.0136 -0.8839 -0.3978
15503SOL     OW50870   9.626  10.301   6.843 -0.2175 -0.3087  0.3937
15503SOL    HW150871   9.532  10.287   6.856 -0.0800  0.4077  2.4412
15503SOL    HW250872   9.631  10.372   6.779 -1.0051 -1.6223 -1.2107
15504SOL     OW50873  10.401   4.054   5.143  0.0497  0.2006 -0.1707
15504SOL    HW150874  10.311   4.027   5.125  0.0815 -0.6774  0.8395
15504SOL    HW250875  10.454   4.007   5.078 -0.2286  0.9144 -0.9284
15505SOL     OW50876   0.629   0.882   6.070  0.0017  0.3238  0.1311
15505SOL    HW150877   0.552   0.894   6.013 -0.3241 -0.6329  0.3533
15505SOL    HW250878   0.593   0.844   6.150  0.7145 -0.1815  0.2153
15506SOL     OW50879   7.697   6.846   0.240 -0.4723  0.5424  0.0590
15506SOL    HW150880   7.790   6.841   0.218 -0.0574 -0.9441  1.8796
15506SOL    HW250881   7.694   6.890   0.325 -1.4603  0.7506 -0.0652
15507SOL     OW50882   8.677   0.492   7.214 -0.3087 -0.2768 -0.1426
15507SOL    HW150883   8.607   0.477   7.277 -3.5741  1.0471 -3.1163
15507SOL    HW250884   8.646   0.452   7.133  2.1068  0.9596 -1.8252
15508SOL     OW50885   4.341   9.502   2.148 -0.0438  0.5513 -0.0720
15508SOL    HW150886   4.339   9.484   2.242 -1.0648 -2.2470 -0.5307
15508SOL    HW250887   4.248   9.503   2.122  0.2579 -0.8750 -1.3461
15509SOL     OW50888   8.419   8.476   2.348 -0.4706 -0.1910  0.0576
15509SOL    HW150889   8.370   8.538   2.295  0.0736 -0.5831 -0.9269
15509SOL    HW250890   8.354   8.413   2.379 -1.1610  1.2394  1.6787
15510SOL     OW50891   8.054   8.428   1.312 -0.3357  0.3885  0.4656
15510SOL    HW150892   8.065   8.334   1.304  1.3167  0.6814 -1.5627
15510SOL    HW250893   8.016   8.456   1.228 -0.5313  1.5476  0.9143
15511SOL     OW50894   3.191   9.957  10.805 -0.2459  1.1621 -0.5829
15511SOL    HW150895   3.237   9.874  10.795  1.0538  1.6676  0.7912
15511SOL    HW250896   3.115   9.936  10.859  1.5092  1.2115  2.1523
15512SOL     OW50897   4.366   6.126   3.406 -0.0297 -0.2504  0.7259
15512SOL    HW150898   4.410   6.142   3.322 -0.4825  0.2192  0.5742
15512SOL    HW250899   4.273   6.140   3.388 -0.3319 -1.8334  0.9051
15513SOL     OW50900  10.366   5.370   1.861  0.2572 -0.3456  0.4267
15513SOL    HW150901  10.300   5.302   1.845  0.8429 -1.3373  2.0225
15513SOL    HW250902  10.446   5.322   1.881  0.6429  0.7914  1.7737
15514SOL     OW50903   6.125   1.455   4.082 -0.6383 -0.3831 -0.2489
15514SOL    HW150904   6.090   1.368   4.062  0.9499 -0.9276 -0.8362
15514SOL    HW250905   6.105   1.508   4.005  0.5079 -0.9174 -0.9347
15515SOL     OW50906   4.861   9.326   9.075  0.3598  0.3372  0.1697
15515SOL    HW150907   4.946   9.370   9.063  1.1274 -1.0688  0.2515
15515SOL    HW250908   4.845   9.281   8.993  1.2842 -1.9880  1.1670
15516SOL     OW50909   0.763  10.523   7.140 -0.0376  0.1746 -0.1647
15516SOL    HW150910   0.714  10.440   7.139  0.3160 -0.0807  1.0346
15516SOL    HW250911   0.698  10.590   7.120 -0.6341 -0.2749  0.2143
15517SOL     OW50912   0.309  10.828   2.243 -0.5207  0.2497  0.4472
15517SOL    HW150913   0.349  10.765   2.182 -1.6618  1.3403 -1.5270
15517SOL    HW250914   0.381  10.854   2.301  0.6542 -0.7681 -0.4877
15518SOL     OW50915   0.897   3.130   6.199 -0.9312 -0.2658 -0.7947
15518SOL    HW150916   0.848   3.076   6.261  1.0501 -1.5169 -0.2152
15518SOL    HW250917   0.984   3.138   6.238 -0.7380  2.2193 -1.5665
15519SOL     OW50918   9.300   6.337   2.583 -0.2155  0.3979  0.4622
15519SOL    HW150919   9.326   6.354   2.492 -0.4222  0.8109  0.4754
15519SOL    HW250920   9.265   6.421   2.613  1.3353  0.7328  1.4364
15520SOL     OW50921   3.657   7.420   1.499 -0.1290 -0.4687  0.1389
15520SOL    HW150922   3.608   7.337   1.497  0.9321 -1.2163  1.9883
15520SOL    HW250923   3.600   7.483   1.454 -1.0724 -2.1274 -1.1241
15521SOL     OW50924   3.924   9.928   6.890  0.9516  0.3139 -0.1126
15521SOL    HW150925   3.934   9.873   6.968 -0.6823  0.3598  0.1540
15521SOL    HW250926   3.900  10.014   6.923 -0.3443  0.1898 -0.6514
15522SOL     OW50927   2.281   1.108   2.913  0.1768  0.5137  0.5593
15522SOL    HW150928   2.295   1.165   2.837 -0.4959 -1.0997 -0.8657
15522SOL    HW250929   2.368   1.077   2.937  0.4514  1.4543  0.8057
15523SOL     OW50930   3.096   0.213   7.395 -0.3022  0.0884 -0.7135
15523SOL    HW150931   3.043   0.147   7.350  2.1074 -3.3986  1.0163
15523SOL    HW250932   3.058   0.220   7.482  0.0834  0.0917 -0.5404
15524SOL     OW50933   0.465   1.101   5.217 -0.1814 -0.3265 -0.1436
15524SOL    HW150934   0.418   1.162   5.161 -0.1256 -1.0092 -0.9388
15524SOL    HW250935   0.525   1.156   5.267 -0.1347  0.2697 -0.8529
15525SOL     OW50936   1.480   5.851   4.036 -0.1363  0.3958 -0.3746
15525SOL    HW150937   1.542   5.896   3.979  0.3546  1.8191  1.1953
15525SOL    HW250938   1.415   5.813   3.977  2.5614 -1.8253 -2.1687
15526SOL     OW50939   9.634   1.890   8.389 -0.1050 -0.0094  0.3379
15526SOL    HW150940   9.619   1.796   8.399 -1.5062  0.2484  0.8726
15526SOL    HW250941   9.633   1.905   8.295 -0.8558 -0.3858  0.2842
15527SOL     OW50942   0.348   9.302   6.036  0.1066 -0.3843  0.2193
15527SOL    HW150943   0.367   9.394   6.016 -1.1403  0.3987  2.2521
15527SOL    HW250944   0.259   9.288   6.003  0.1375 -0.7345  0.2817
15528SOL     OW50945   8.962   9.439   9.419 -1.1108  0.3590 -0.1734
15528SOL    HW150946   8.955   9.411   9.328  2.1731 -1.1027 -0.1160
15528SOL    HW250947   9.055   9.458   9.431 -1.2301 -0.5004  3.1422
15529SOL     OW50948   6.117  10.338  10.372  0.1505  0.2520 -0.3622
15529SOL    HW150949   6.057  10.310  10.303 -1.7354 -1.3248  1.7450
15529SOL    HW250950   6.070  10.408  10.418  2.0253  2.3721 -1.5186
15530SOL     OW50951   4.613   5.549   7.334 -0.3507 -0.0914  0.4566
15530SOL    HW150952   4.705   5.532   7.316 -0.3313  0.1173  0.3592
15530SOL    HW250953   4.608   5.644   7.349 -0.6278 -0.0250 -0.0283
15531SOL     OW50954   7.245   0.686   5.604 -0.3349  0.0000 -0.9609
15531SOL    HW150955   7.335   0.708   5.627 -0.6399  2.0384 -1.4653
15531SOL    HW250956   7.215   0.627   5.673  1.3385 -0.6167 -0.7369
15532SOL     OW50957   1.893   3.562   8.513  0.1982 -0.1291  0.0187
15532SOL    HW150958   1.940   3.567   8.596  0.8150 -3.0493 -0.0467
15532SOL    HW250959   1.808   3.523   8.536 -0.6505  1.3994 -0.4192
15533SOL     OW50960   5.315   4.475   2.643  0.2616  0.0799  0.0190
15533SOL    HW150961   5.231   4.432   2.659  0.2067  0.6146  1.3303
15533SOL    HW250962   5.364   4.413   2.591 -1.6484  0.5642 -2.5987
15534SOL     OW50963   2.034  10.793   6.964  0.1732 -0.0893  0.4763
15534SOL    HW150964   2.104  10.818   7.024 -0.6767  0.4776  1.2505
15534SOL    HW250965   2.056  10.704   6.938 -0.2451 -0.9886  2.8913
15535SOL     OW50966   1.434   5.786   1.252  0.1964  0.3299 -0.0025
15535SOL    HW150967   1.416   5.716   1.189  0.2326  1.3041 -1.1332
15535SOL    HW250968   1.517   5.823   1.222  0.4603  0.4955  0.9181
15536SOL     OW50969   1.355   9.645   9.321  0.1026  0.3212  0.4765
15536SOL    HW150970   1.278   9.689   9.355 -0.1932 -0.3084  0.6506
15536SOL    HW250971   1.380   9.695   9.244 -1.3354 -0.2711 -0.4265
15537SOL     OW50972   6.271   0.702  10.978  0.0015  0.3351 -0.5818
15537SOL    HW150973   6.285   0.762  10.905  1.6019  1.8350  0.8646
15537SOL    HW250974   6.210   0.747  11.035  2.5521  1.5184  1.3819
15538SOL     OW50975   3.114   1.297   3.588  0.2887 -0.1318 -0.3456
15538SOL    HW150976   3.047   1.230   3.602  0.1943  0.2526  1.2703
15538SOL    HW250977   3.074   1.359   3.527 -0.3626 -0.5343 -0.3393
15539SOL     OW50978   0.001   5.769   8.695 -0.5912 -0.2220 -0.6216
15539SOL    HW150979  -0.046   5.685   8.693  1.0916 -1.2392  0.0971
15539SOL    HW250980  -0.036   5.819   8.623  1.2519 -3.2381 -4.0190
15540SOL     OW50981   5.555   2.230  10.536 -0.2718 -0.1857  0.4265
15540SOL    HW150982   5.645   2.260  10.552 -0.4723  1.0079 -0.5218
15540SOL    HW250983   5.500   2.291  10.585 -0.5954 -0.2929  0.2006
15541SOL     OW50984   8.762   4.987   6.778 -0.6869 -0.0845  0.1136
15541SOL    HW150985   8.767   5.080   6.800  1.6724 -0.1119 -0.0782
15541SOL    HW250986   8.685   4.979   6.721 -2.1026  1.3659  1.7193
15542SOL     OW50987   8.008  10.059   7.062 -0.0522 -0.0888 -0.0100
15542SOL    HW150988   7.978  10.143   7.098 -1.2931 -0.6285  0.2508
15542SOL    HW250989   8.099  10.076   7.036 -0.5802  1.6322 -0.9137
15543SOL     OW50990   1.329   8.820   7.013 -0.2730  0.6943  0.0096
15543SOL    HW150991   1.270   8.746   7.019  2.6621 -1.8538 -0.1040
15543SOL    HW250992   1.362   8.817   6.923  1.1184  1.0715  0.4757
15544SOL     OW50993   3.051   7.132   1.210  0.4203  0.0103 -0.3887
15544SOL    HW150994   3.096   7.081   1.143  0.2772 -0.7610  0.0929
15544SOL    HW250995   3.008   7.203   1.162  0.2471 -0.5870 -1.1200
15545SOL     OW50996   4.842   0.262   1.814  0.1792 -0.1758 -0.2936
15545SOL    HW150997   4.863   0.181   1.859 -0.2177  0.8069  1.7704
15545SOL    HW250998   4.746   0.268   1.819  0.1663  0.1971 -0.8568
15546SOL     OW50999  10.900   1.026  10.300  0.3610 -0.2400 -0.0066
15546SOL    HW151000  10.860   1.017  10.387  1.2303 -0.5388  0.3812
15546SOL    HW251001  10.864   0.954  10.249  0.0201 -0.2000  0.1745
15547SOL     OW51002   5.622   2.197   3.260  0.5268 -0.1424 -0.4976
15547SOL    HW151003   5.636   2.119   3.314 -1.6583  0.7081  1.5121
15547SOL    HW251004   5.533   2.186   3.225 -0.7401  2.3097  1.6267
15548SOL     OW51005   0.311   8.555  10.158 -0.0185  0.6081  0.1731
15548SOL    HW151006   0.387   8.515  10.201 -0.6888 -1.6668 -0.6232
15548SOL    HW251007   0.349   8.614  10.093  1.0360  0.8526  0.9924
15549SOL     OW51008   0.913   7.951   6.699 -0.0846 -0.6704  0.2375
15549SOL    HW151009   0.879   7.911   6.779  1.5689  0.1478  1.4254
15549SOL    HW251010   0.912   8.045   6.718  0.3048 -0.4673 -0.7183
15550SOL     OW51011   2.006   2.886   9.051  0.2284  0.0739 -0.6599
15550SOL    HW151012   1.918   2.862   9.080  0.2786  1.4123  0.7040
15550SOL    HW251013   1.993   2.927   8.965 -0.5733  0.7986 -0.2082
15551SOL     OW51014   7.702  10.430   5.373  0.0504  0.1073 -0.2988
15551SOL    HW151015   7.794  10.444   5.395 -0.0102  1.6839 -0.9319
15551SOL    HW251016   7.700  10.422   5.277 -0.4632 -0.0473 -0.2831
15552SOL     OW51017   3.362   2.681   3.691 -0.5934  0.3156  0.0684
15552SOL    HW151018   3.403   2.717   3.770 -1.8778  0.9827  0.4596
15552SOL    HW251019   3.299   2.617   3.724 -0.5140 -0.0428 -0.4663
15553SOL     OW51020   4.053  10.717   6.188 -0.3510 -1.0829 -0.2457
15553SOL    HW151021   4.120  10.661   6.228  0.1238 -0.5691 -0.3042
15553SOL    HW251022   3.978  10.660   6.175  0.1640 -1.7380 -0.4070
15554SOL     OW51023   1.373   6.914   2.403 -0.4923 -0.1579 -0.1750
15554SOL    HW151024   1.431   6.981   2.440 -1.7417  0.2528  1.1210
15554SOL    HW251025   1.348   6.860   2.477 -0.9423 -0.9689 -0.9019
15555SOL     OW51026   6.178   2.960   3.251  0.9378  0.0894 -0.6735
15555SOL    HW151027   6.266   2.944   3.218  0.7943  0.7500 -1.3980
15555SOL    HW251028   6.176   3.053   3.272  0.4144  0.0801 -0.6716
15556SOL     OW51029   1.724   1.954   3.394 -0.1109  0.0830  0.0391
15556SOL    HW151030   1.694   1.875   3.439 -2.2964 -0.5451 -2.3288
15556SOL    HW251031   1.672   2.025   3.431  1.0114  0.2797  1.3189
15557SOL     OW51032   7.110   6.072   3.826  0.3197  0.2614 -0.2784
15557SOL    HW151033   7.083   6.006   3.890  0.0630 -0.5517 -1.1825
15557SOL    HW251034   7.101   6.155   3.871 -0.4900 -0.2448  0.5278
15558SOL     OW51035   1.260   3.702   0.157 -0.2682 -0.2026 -0.2738
15558SOL    HW151036   1.273   3.739   0.069  1.7215  1.7772  0.7348
15558SOL    HW251037   1.198   3.762   0.199 -2.0243 -1.7199 -0.5843
15559SOL     OW51038  10.597  11.113   8.729  0.6796  0.0475 -0.0262
15559SOL    HW151039  10.543  11.172   8.782  0.8382 -0.5246  0.7878
15559SOL    HW251040  10.600  11.031   8.779 -0.8264 -1.2160 -1.8688
15560SOL     OW51041   5.245   5.073   4.720  0.3684  0.1729 -0.5588
15560SOL    HW151042   5.231   4.988   4.678  0.6281 -0.7040  1.0522
15560SOL    HW251043   5.239   5.136   4.649  0.5846 -1.2278 -1.8650
15561SOL     OW51044   5.424   5.634   8.888  0.0516 -0.4204 -0.1818
15561SOL    HW151045   5.330   5.639   8.870  0.1348 -1.1463 -0.8735
15561SOL    HW251046   5.448   5.544   8.866  0.8262 -0.3748  0.4194
15562SOL     OW51047  11.013   6.094   1.531  0.1573  0.2900 -0.0828
15562SOL    HW151048  10.991   6.162   1.594 -0.2767  0.2850 -0.2230
15562SOL    HW251049  11.105   6.075   1.547 -0.2336 -0.5437  1.3477
15563SOL     OW51050   2.429   7.315  10.149  0.8301  0.3998 -0.1678
15563SOL    HW151051   2.472   7.257  10.212  0.4848 -1.1768 -1.3262
15563SOL    HW251052   2.366   7.259  10.104 -0.8438  2.1144 -0.0972
15564SOL     OW51053   5.687   2.474   6.113  0.5436  0.6585 -0.2271
15564SOL    HW151054   5.630   2.402   6.085 -0.4067  0.9389  0.8835
15564SOL    HW251055   5.760   2.431   6.158 -0.5070  0.3762  1.2928
15565SOL     OW51056   0.709   7.203   7.802 -0.0865  0.7809  0.3412
15565SOL    HW151057   0.683   7.277   7.746 -0.8325  0.4203  0.1978
15565SOL    HW251058   0.743   7.244   7.882  2.7399  1.3823 -1.0232
15566SOL     OW51059   3.807   4.138   9.666 -0.5939 -0.8867 -0.0515
15566SOL    HW151060   3.895   4.101   9.667 -0.4616 -0.6846 -1.6861
15566SOL    HW251061   3.793   4.170   9.756  1.8376  1.0415 -0.2426
15567SOL     OW51062   3.157   8.483   6.986 -0.1623 -0.0123  0.4651
15567SOL    HW151063   3.208   8.434   6.921  2.2900  0.4882  1.8440
15567SOL    HW251064   3.155   8.572   6.952 -2.4820 -0.4896 -0.8412
15568SOL     OW51065   3.475   4.366   8.076 -0.0868  0.4757  0.1976
15568SOL    HW151066   3.387   4.394   8.101 -0.7647 -3.6912  3.7616
15568SOL    HW251067   3.534   4.421   8.127 -0.8263  1.0838  0.4131
15569SOL     OW51068   4.286   0.231   2.781  0.3176 -0.0376 -0.1371
15569SOL    HW151069   4.314   0.266   2.696  2.8925 -2.1324 -0.3140
15569SOL    HW251070   4.208   0.180   2.761  1.1630 -0.9109 -1.4184
15570SOL     OW51071   4.424   6.740   3.663  0.1536  0.2492 -0.6394
15570SOL    HW151072   4.469   6.699   3.589  0.7754  0.2627 -0.2758
15570SOL    HW251073   4.464   6.827   3.670  0.1176  0.2362 -0.2736
15571SOL     OW51074   6.696   6.072   2.686 -0.0636 -0.0254  0.3590
15571SOL    HW151075   6.778   6.121   2.676 -1.9050  2.7885 -3.6392
15571SOL    HW251076   6.656   6.110   2.764  1.4895  0.0220  1.1774
15572SOL     OW51077   4.650   3.641   0.484 -0.8224  0.0086 -0.7289
15572SOL    HW151078   4.742   3.667   0.490 -0.8310 -0.0587 -0.2244
15572SOL    HW251079   4.651   3.546   0.492 -0.7712 -0.2113 -2.8164
15573SOL     OW51080   9.239   0.586   3.597 -0.1207  0.2288 -0.4968
15573SOL    HW151081   9.253   0.622   3.684  1.2747  0.8110 -0.9382
15573SOL    HW251082   9.232   0.663   3.540 -0.2138 -0.1573 -1.0162
15574SOL     OW51083   3.801   9.492   7.967 -0.1184 -0.0461  0.3911
15574SOL    HW151084   3.804   9.584   7.940 -0.8714 -0.1641 -0.1468
15574SOL    HW251085   3.821   9.443   7.887  0.1112 -0.3488  0.6340
15575SOL     OW51086   5.957   9.904   5.716 -0.4034 -0.3564 -0.5266
15575SOL    HW151087   6.011   9.855   5.655 -2.6555 -3.6428 -0.1409
15575SOL    HW251088   6.010   9.911   5.796 -0.1355 -2.6971 -0.4378
15576SOL     OW51089   4.562   4.793   6.293 -0.7739  0.0542 -0.5052
15576SOL    HW151090   4.646   4.838   6.283 -0.9724  0.4337 -0.4689
15576SOL    HW251091   4.529   4.782   6.204 -1.2327  0.9477 -0.4507
15577SOL     OW51092   0.094   5.967  10.006  0.2543 -0.4245 -0.3209
15577SOL    HW151093   0.097   5.913  10.085  1.9874 -2.7306 -1.8053
15577SOL    HW251094   0.069   5.905   9.936  2.5183  0.5770 -2.1603
15578SOL     OW51095   2.518   4.921  10.486 -0.4865 -0.1041 -0.2199
15578SOL    HW151096   2.538   4.903  10.394  0.6727 -0.9703  0.1712
15578SOL    HW251097   2.527   4.836  10.529  0.6543  0.5890  0.9651
15579SOL     OW51098   3.097   1.816   7.779  0.3874 -0.7441  0.3957
15579SOL    HW151099   3.126   1.764   7.704  1.0452 -0.3055  0.3399
15579SOL    HW251100   3.158   1.793   7.849  0.5889 -0.1729  0.4155
15580SOL     OW51101  10.925   5.611  10.960 -0.2970  0.1923 -0.0824
15580SOL    HW151102  10.876   5.601  11.042  0.5362  0.7001  0.5000
15580SOL    HW251103  10.900   5.697  10.927 -0.7567 -0.0818 -0.4457
15581SOL     OW51104   3.651   2.286   9.862 -0.7628 -0.6214 -0.2234
15581SOL    HW151105   3.639   2.192   9.877 -1.0744 -0.4688  0.5516
15581SOL    HW251106   3.708   2.315   9.933 -0.9833 -0.1529 -0.2340
15582SOL     OW51107   8.781   0.548   8.743  0.1688  0.0530 -0.1576
15582SOL    HW151108   8.799   0.612   8.674  0.3204 -0.6929 -0.8210
15582SOL    HW251109   8.804   0.594   8.824  0.5714  0.7332 -0.6416
15583SOL     OW51110   9.036   8.665   6.135 -0.1113  0.1616 -0.3530
15583SOL    HW151111   9.084   8.600   6.083  3.2014  0.5784  1.8264
15583SOL    HW251112   9.052   8.748   6.090 -0.9543 -0.0219 -0.9954
15584SOL     OW51113   5.664  10.658   6.476 -0.1079 -0.7241  0.2774
15584SOL    HW151114   5.656  10.562   6.472  0.4382 -0.8079  0.9257
15584SOL    HW251115   5.753  10.673   6.506 -0.0179  0.0100 -0.3552
15585SOL     OW51116  10.366   6.840   2.773 -0.3840  0.3112  0.0783
15585SOL    HW151117  10.371   6.860   2.867 -1.5724  0.3716  0.1415
15585SOL    HW251118  10.322   6.915   2.735  2.5766  1.6454 -1.0207
15586SOL     OW51119  10.950   5.430   2.786  0.0831  0.2684 -0.1817
15586SOL    HW151120  10.990   5.381   2.714  1.8193 -0.4587  1.1794
15586SOL    HW251121  11.017   5.495   2.810 -0.2602  0.2055  1.0266
15587SOL     OW51122   4.214   9.276  10.146  0.1321 -1.1533  0.2277
15587SOL    HW151123   4.140   9.223  10.176  0.8378 -1.5364  1.3623
15587SOL    HW251124   4.284   9.212  10.132  1.1550 -0.5193  2.1111
15588SOL     OW51125  10.726   3.437   5.760  0.1465  0.1502  0.6764
15588SOL    HW151126  10.719   3.353   5.804 -1.5564  0.0050  0.1731
15588SOL    HW251127  10.781   3.490   5.819 -0.3556 -0.6870  1.9402
15589SOL     OW51128   3.414   8.146   3.837 -0.6142  1.0545 -0.2101
15589SOL    HW151129   3.490   8.184   3.882  2.2346 -0.2243 -3.5278
15589SOL    HW251130   3.380   8.082   3.899  2.3982  0.1229  0.6461
15590SOL     OW51131   6.701   2.585   3.158  0.0152  0.1734 -0.6429
15590SOL    HW151132   6.638   2.526   3.199 -0.5851  0.2466 -1.4430
15590SOL    HW251133   6.699   2.664   3.211 -1.4095  0.6042 -1.3001
15591SOL     OW51134   5.698  10.873   4.900 -0.2056  0.4771  0.2126
15591SOL    HW151135   5.611  10.849   4.931 -0.0589 -0.6981 -0.2124
15591SOL    HW251136   5.751  10.795   4.915  0.2093  0.3649 -1.6264
15592SOL     OW51137   9.115   4.106   3.502  0.1769 -0.3914 -0.0504
15592SOL    HW151138   9.097   4.184   3.556 -2.4116 -0.3202 -0.8776
15592SOL    HW251139   9.089   4.033   3.557  4.3810 -1.0352  1.4898
15593SOL     OW51140  10.674   7.508   8.322 -0.7113 -0.0967 -0.2235
15593SOL    HW151141  10.629   7.482   8.401  0.4894 -1.1570  0.1451
15593SOL    HW251142  10.613   7.487   8.251 -0.7148 -1.7752  0.2313
15594SOL     OW51143   1.328   5.612  10.853  0.1031  0.0023  0.4764
15594SOL    HW151144   1.331   5.641  10.944  1.3053  0.4402  0.3216
15594SOL    HW251145   1.420   5.599  10.829 -0.0706  1.3277 -1.1173
15595SOL     OW51146   7.857   2.591   6.094  0.1897  0.5144 -0.4417
15595SOL    HW151147   7.768   2.592   6.128  0.8958 -0.8461  1.6824
15595SOL    HW251148   7.901   2.663   6.139  0.2613  0.9725 -1.2281
15596SOL     OW51149   4.269  10.433   7.526 -0.3343  0.1706 -0.2800
15596SOL    HW151150   4.201  10.430   7.594 -1.4406 -0.0895 -1.3629
15596SOL    HW251151   4.295  10.342   7.515  0.6079  0.3281  0.5122
15597SOL     OW51152   1.042   5.923   4.625  0.3181  0.0321  0.1884
15597SOL    HW151153   0.961   5.927   4.676  1.4341  0.2105  2.0405
15597SOL    HW251154   1.096   5.858   4.671  0.2782 -2.0977 -2.5258
15598SOL     OW51155   8.924   3.572   0.793 -0.0642  0.5233  0.3055
15598SOL    HW151156   8.836   3.563   0.828 -1.2705  0.2824 -2.5173
15598SOL    HW251157   8.912   3.579   0.698  2.9573  0.5551 -0.1879
15599SOL     OW51158   9.451   0.294  10.156 -0.3999  0.3408  0.6187
15599SOL    HW151159   9.404   0.314  10.075  0.4243 -1.4476 -0.3524
15599SOL    HW251160   9.480   0.379  10.189  1.2270  0.9911 -2.2035
15600SOL     OW51161   8.876   5.216  10.259  0.2791 -0.1666  0.4069
15600SOL    HW151162   8.816   5.289  10.278  0.7416  0.1403  0.7022
15600SOL    HW251163   8.878   5.165  10.341 -0.1587 -0.6047  0.1549
15601SOL     OW51164   4.586   8.431   2.331 -0.9467 -0.2451 -0.1263
15601SOL    HW151165   4.571   8.509   2.384  0.0016 -0.8150  1.0175
15601SOL    HW251166   4.646   8.459   2.262  0.0851 -0.1382  0.7898
15602SOL     OW51167   9.866  10.522   0.222  0.0099 -0.2612 -0.7200
15602SOL    HW151168   9.953  10.521   0.263  0.6787 -1.2700 -2.1201
15602SOL    HW251169   9.851  10.614   0.201 -0.2609  0.2780  1.4902
15603SOL     OW51170   3.150  11.024   4.066  0.1669  0.0340 -0.1731
15603SOL    HW151171   3.239  11.029   4.101 -0.2450 -0.1800  0.9489
15603SOL    HW251172   3.094  11.023   4.143 -0.7668 -0.8743 -0.8374
15604SOL     OW51173   1.343   1.685   5.628  0.3960 -0.3465 -0.0722
15604SOL    HW151174   1.251   1.681   5.602  0.5238 -1.4278 -0.3974
15604SOL    HW251175   1.343   1.657   5.720  0.1318  1.9948  0.7025
15605SOL     OW51176   5.369   3.624   7.658 -0.1126 -0.1159 -0.2113
15605SOL    HW151177   5.307   3.551   7.664 -0.7393  0.3377 -1.0485
15605SOL    HW251178   5.352   3.676   7.736 -0.7822 -0.0033 -0.4248
15606SOL     OW51179   4.598   3.280   6.991  0.2394  0.4305 -0.4222
15606SOL    HW151180   4.562   3.200   6.951 -0.3258  0.7005 -0.4611
15606SOL    HW251181   4.530   3.310   7.050  1.4592 -0.5296  1.5864
15607SOL     OW51182   0.104  10.806   7.580  0.4545 -0.0510  0.0334
15607SOL    HW151183   0.126  10.813   7.673  1.2061 -1.8570  0.0524
15607SOL    HW251184   0.179  10.845   7.535  0.3931  0.2333  0.1758
15608SOL     OW51185   6.146   4.957   4.397  0.2290 -0.3010  0.0525
15608SOL    HW151186   6.220   4.897   4.408  1.6359  1.4547  0.6641
15608SOL    HW251187   6.118   4.945   4.307  0.9134 -1.3844 -0.0294
15609SOL     OW51188   6.713   2.937   6.648 -0.0217  0.2565  0.4824
15609SOL    HW151189   6.748   3.026   6.655  0.8074 -0.1479  1.7788
15609SOL    HW251190   6.778   2.882   6.691 -0.1066 -1.1096 -1.0481
15610SOL     OW51191   1.591  10.089   9.181  0.3180  0.1308 -0.1010
15610SOL    HW151192   1.667  10.032   9.192  0.6168  0.3798 -0.8378
15610SOL    HW251193   1.591  10.112   9.088 -0.9892 -0.3271 -0.2428
15611SOL     OW51194   6.912   3.037   5.807 -0.2932  0.0367  0.1682
15611SOL    HW151195   6.990   3.087   5.783  0.3840 -0.0651  2.0269
15611SOL    HW251196   6.945   2.954   5.839 -1.3293 -0.9416 -1.1684
15612SOL     OW51197   6.242  10.294  11.025 -0.1361 -1.0998  0.2391
15612SOL    HW151198   6.149  10.294  11.002 -0.2619 -1.7523  0.7201
15612SOL    HW251199   6.260  10.385  11.050 -0.9232 -1.1965  1.2225
15613SOL     OW51200   0.598   6.808   4.983 -0.1696  0.3309  0.2901
15613SOL    HW151201   0.588   6.713   4.980  0.5675  0.2699 -1.5193
15613SOL    HW251202   0.523   6.841   4.933 -0.3894  0.7042  0.8606
15614SOL     OW51203   4.156   5.674   9.065 -0.3662  0.4224  0.3999
15614SOL    HW151204   4.140   5.755   9.018 -2.1896 -0.5072 -0.6730
15614SOL    HW251205   4.172   5.609   8.996 -0.5856 -0.4687  1.1728
15615SOL     OW51206   5.033   2.758   2.809 -0.2254 -0.1303  0.2296
15615SOL    HW151207   5.011   2.666   2.794 -2.6633 -0.0513  2.4416
15615SOL    HW251208   5.037   2.797   2.722  0.3411 -2.1948 -0.7284
15616SOL     OW51209   5.542   2.489   1.818 -0.2571  0.0377  0.3051
15616SOL    HW151210   5.506   2.402   1.804 -2.8590  1.1311 -0.5780
15616SOL    HW251211   5.508   2.515   1.904  0.8667  0.0344  0.7613
15617SOL     OW51212   2.485  10.496   0.822 -0.7585  0.3636  0.2298
15617SOL    HW151213   2.496  10.591   0.829  0.9159  0.1285  1.3725
15617SOL    HW251214   2.569  10.460   0.850 -0.9804 -1.4516 -1.2485
15618SOL     OW51215   4.608   9.127   3.897 -0.0922 -0.1560  0.0844
15618SOL    HW151216   4.638   9.185   3.966  0.0644 -0.5378  0.3398
15618SOL    HW251217   4.560   9.184   3.837 -0.8210  0.0629  0.8625
15619SOL     OW51218   2.504   9.590   1.425  0.5739  0.8203  0.6317
15619SOL    HW151219   2.495   9.668   1.370  0.1679  0.4578  0.1776
15619SOL    HW251220   2.454   9.610   1.504  0.3061  0.9401  0.4315
15620SOL     OW51221   8.784   6.829   9.800  0.0176 -0.1850 -0.1944
15620SOL    HW151222   8.715   6.816   9.865 -0.0812  0.1615 -0.2283
15620SOL    HW251223   8.752   6.901   9.745  1.0207  0.9102  0.6279
15621SOL     OW51224   7.076   5.341   8.844 -0.4678  0.4203  0.0188
15621SOL    HW151225   7.121   5.272   8.797  1.1829  1.1464  0.4777
15621SOL    HW251226   6.983   5.322   8.832 -0.0916 -2.4346  0.9674
15622SOL     OW51227   6.004   5.846   6.362  0.2291  0.0472  0.1701
15622SOL    HW151228   6.017   5.913   6.294 -0.2600 -0.2498 -0.2212
15622SOL    HW251229   5.943   5.784   6.323  0.1277 -0.2547  0.7990
15623SOL     OW51230  10.302   7.718   5.081 -0.2615  0.6188 -0.1027
15623SOL    HW151231  10.247   7.796   5.092  0.4058  1.0693  0.1102
15623SOL    HW251232  10.265   7.674   5.004 -0.3352  1.4172 -0.5397
15624SOL     OW51233   7.745   2.583   5.851  0.2114 -0.0166  0.5527
15624SOL    HW151234   7.797   2.587   5.931 -0.9600  0.1103  1.3320
15624SOL    HW251235   7.696   2.501   5.859  1.5114 -0.9821 -0.9608
15625SOL     OW51236   3.774  10.735   1.897 -0.2739  0.1733 -0.5027
15625SOL    HW151237   3.697  10.734   1.840 -0.0230 -0.6712 -0.8295
15625SOL    HW251238   3.738  10.749   1.985 -0.8464 -0.6867 -0.5880
15626SOL     OW51239   7.743   2.744   9.847 -0.4374  0.3547  0.0572
15626SOL    HW151240   7.661   2.722   9.892  0.6396  0.9048  2.4913
15626SOL    HW251241   7.810   2.696   9.897  0.6884 -0.7421 -2.3662
15627SOL     OW51242   7.836   7.120   1.458 -0.4361 -0.1250  0.3594
15627SOL    HW151243   7.765   7.060   1.482 -0.7959  1.0432  2.5125
15627SOL    HW251244   7.843   7.180   1.533  2.1892  0.4138 -0.2227
15628SOL     OW51245   1.504   8.428   8.890  0.1420 -0.2166 -0.1514
15628SOL    HW151246   1.439   8.496   8.908 -0.7162 -0.3129 -2.5096
15628SOL    HW251247   1.588   8.476   8.890 -0.2176  0.4344  0.2563
15629SOL     OW51248   0.275   4.251  10.347  0.1134  0.0116  0.2715
15629SOL    HW151249   0.332   4.187  10.390  1.3532  0.8757 -0.0343
15629SOL    HW251250   0.189   4.209  10.346  0.6016 -1.0827  1.2817
15630SOL     OW51251   4.028   8.432   8.905  0.1130  0.0968 -0.2007
15630SOL    HW151252   4.038   8.478   8.821 -0.1613 -0.0040 -0.2900
15630SOL    HW251253   3.933   8.418   8.913 -0.1859  2.3414  1.3090
15631SOL     OW51254   4.118   4.287   3.819  0.5098  0.3009  0.1332
15631SOL    HW151255   4.029   4.256   3.838  0.2595  0.2924 -0.9867
15631SOL    HW251256   4.112   4.323   3.731  1.8534 -0.6148 -0.3595
15632SOL     OW51257   7.720   1.740   8.466 -0.0698  0.5934  0.0074
15632SOL    HW151258   7.749   1.776   8.550 -0.7203  1.5800 -0.1636
15632SOL    HW251259   7.724   1.815   8.406 -0.7744  0.1962 -0.5427
15633SOL     OW51260   0.160   3.005   8.917  0.2633  0.6334  0.3255
15633SOL    HW151261   0.227   2.952   8.960  0.2395  0.2005 -0.1668
15633SOL    HW251262   0.152   2.967   8.830 -0.9147  0.4247  0.5144
15634SOL     OW51263   0.470   3.573   0.571  0.0448  0.6439 -0.7476
15634SOL    HW151264   0.507   3.569   0.659  1.6573  0.0166 -1.4072
15634SOL    HW251265   0.412   3.497   0.567  0.8387  0.0082 -0.5726
15635SOL     OW51266   8.513   8.533   6.728 -0.7194 -0.1973  0.3440
15635SOL    HW151267   8.471   8.470   6.787  0.6948 -0.7618  0.7871
15635SOL    HW251268   8.526   8.485   6.647 -0.9528 -0.0102  0.1936
15636SOL     OW51269   0.331   2.821   5.586  0.7881 -0.5297  0.1379
15636SOL    HW151270   0.310   2.737   5.545  1.4718 -0.4667 -0.3769
15636SOL    HW251271   0.261   2.880   5.558 -1.1039 -1.4815  2.5178
15637SOL     OW51272   5.519   7.471   1.991  0.4657  0.0851  0.6164
15637SOL    HW151273   5.507   7.468   1.896  0.6258  0.4982  0.5793
15637SOL    HW251274   5.432   7.456   2.028  0.4539 -0.3630  0.4082
15638SOL     OW51275   4.747   3.132   3.720  0.6140 -0.0951 -0.1052
15638SOL    HW151276   4.752   3.116   3.814  1.9223  0.4167 -0.0624
15638SOL    HW251277   4.783   3.220   3.709 -0.4970  0.2694 -0.9803
15639SOL     OW51278   7.781   3.118   4.132  0.1637 -0.0061 -0.0650
15639SOL    HW151279   7.706   3.061   4.113 -0.3932  0.9283 -0.7343
15639SOL    HW251280   7.758   3.161   4.214  0.8240 -1.1125  0.7304
15640SOL     OW51281   3.192   8.640   9.382 -0.3869 -0.0101  0.0713
15640SOL    HW151282   3.236   8.584   9.445 -1.6221 -0.3456  0.6615
15640SOL    HW251283   3.143   8.579   9.326 -0.0871  0.3498 -0.5916
15641SOL     OW51284  10.811   4.250   2.046  0.1730  0.0298  0.2849
15641SOL    HW151285  10.802   4.195   2.124 -0.0406  0.3570  0.4973
15641SOL    HW251286  10.724   4.249   2.006  0.8486 -2.0837 -1.3054
15642SOL     OW51287   9.886   0.660  10.653 -0.1931 -0.0716 -0.4613
15642SOL    HW151288   9.847   0.600  10.717  1.7417 -1.4869 -0.5102
15642SOL    HW251289   9.811   0.707  10.616 -1.6921 -1.5687  0.4773
15643SOL     OW51290   8.641   5.791   5.431 -0.2869 -0.0690 -0.3297
15643SOL    HW151291   8.649   5.885   5.416 -0.6143  0.2708  1.3938
15643SOL    HW251292   8.728   5.763   5.460 -0.7575  0.1842  1.4090
15644SOL     OW51293   8.716   9.365   7.870 -0.1221 -0.8301  0.8018
15644SOL    HW151294   8.653   9.365   7.799  0.3065 -1.4552  0.4027
15644SOL    HW251295   8.784   9.304   7.841  1.3512  0.8245  0.6099
15645SOL     OW51296   6.965   1.620   4.851 -0.0706 -0.1643 -0.1437
15645SOL    HW151297   6.897   1.564   4.890 -0.3673 -0.3978 -0.9866
15645SOL    HW251298   7.040   1.561   4.841 -0.1124 -0.1991 -0.2573
15646SOL     OW51299   9.405   2.162   3.535  0.3736 -0.5535 -0.1958
15646SOL    HW151300   9.326   2.155   3.588  1.3052 -2.9788  1.0487
15646SOL    HW251301   9.411   2.254   3.511 -1.8167  0.0155  1.2044
15647SOL     OW51302   7.631   5.841   3.607 -0.1671  0.1086 -0.0102
15647SOL    HW151303   7.612   5.857   3.515  2.3657  1.5405 -0.3660
15647SOL    HW251304   7.697   5.907   3.630 -0.1048 -0.7409  2.6086
15648SOL     OW51305   1.889   4.199  10.557 -0.3857  0.0713 -0.6222
15648SOL    HW151306   1.912   4.168  10.469  1.6581  1.3354 -0.5939
15648SOL    HW251307   1.890   4.121  10.611  0.3895 -0.4466 -1.3550
15649SOL     OW51308   4.282   4.591   3.772  0.5006 -0.3478 -0.4096
15649SOL    HW151309   4.320   4.522   3.717  0.6469  1.6947 -3.1299
15649SOL    HW251310   4.350   4.658   3.775 -0.7114  0.9353 -0.4586
15650SOL     OW51311   3.835   6.022   6.311  0.1749 -0.4454 -0.1950
15650SOL    HW151312   3.861   5.984   6.227 -2.9529 -2.5259 -0.3716
15650SOL    HW251313   3.850   5.953   6.375 -3.6723 -1.5412 -0.2057
15651SOL     OW51314  10.144   1.958   2.055 -0.7274  0.2396 -0.5168
15651SOL    HW151315  10.090   1.929   1.981 -1.2143  0.1836 -0.1488
15651SOL    HW251316  10.127   1.894   2.123 -0.8024  0.6631 -0.1342
15652SOL     OW51317   1.716   6.577  10.962 -0.4503  0.2185 -0.5389
15652SOL    HW151318   1.770   6.507  10.925  3.0448  1.7211  1.2881
15652SOL    HW251319   1.740   6.654  10.912 -0.7293  0.9832  0.4779
15653SOL     OW51320   0.369   8.969   8.972  0.1009  0.6199  0.7924
15653SOL    HW151321   0.325   8.916   8.906  0.6344  0.6534  0.4020
15653SOL    HW251322   0.299   9.017   9.016 -0.1698  1.5685 -0.6096
15654SOL     OW51323   8.435   1.394   0.518 -1.0529 -0.0864 -0.3286
15654SOL    HW151324   8.353   1.425   0.480 -0.1332 -0.1878 -2.5707
15654SOL    HW251325   8.469   1.469   0.567 -1.2321  0.8663 -1.6043
15655SOL     OW51326   7.695   2.535   5.225  0.0896 -1.1760 -0.2533
15655SOL    HW151327   7.622   2.581   5.267  2.5680  1.6989  1.3007
15655SOL    HW251328   7.695   2.448   5.265 -1.3192 -0.5875  1.1186
15656SOL     OW51329   9.699   5.560   3.907  0.5355 -0.6615 -0.0370
15656SOL    HW151330   9.685   5.655   3.915 -1.1955 -0.6884 -2.0262
15656SOL    HW251331   9.746   5.537   3.987  1.9695  2.0274  0.0318
15657SOL     OW51332   1.115   9.835   7.394 -0.3930 -0.6118 -0.1027
15657SOL    HW151333   1.090   9.900   7.329  2.1723 -1.6602 -2.3213
15657SOL    HW251334   1.190   9.873   7.439 -0.1164 -1.2190 -0.0353
15658SOL     OW51335   9.525   9.668   9.839  0.7906 -0.4994 -0.4440
15658SOL    HW151336   9.604   9.657   9.892  0.4807 -1.6482 -0.1887
15658SOL    HW251337   9.453   9.649   9.899  0.1730  2.2872 -0.1890
15659SOL     OW51338   0.371   0.473   8.768 -0.5723  0.2578  0.0971
15659SOL    HW151339   0.421   0.396   8.741 -0.6116  0.4169 -0.4466
15659SOL    HW251340   0.283   0.439   8.785 -0.8900  0.3539 -1.2547
15660SOL     OW51341   1.614   9.316   3.034 -0.1646 -0.4365  0.2794
15660SOL    HW151342   1.635   9.306   3.127  0.9594 -0.4650  0.0311
15660SOL    HW251343   1.698   9.330   2.991 -0.6805 -0.3106 -0.7293
15661SOL     OW51344  10.052   7.963   3.627 -0.6733  0.0457  0.2415
15661SOL    HW151345  10.133   7.940   3.672 -0.3714 -0.0663 -0.3520
15661SOL    HW251346   9.984   7.917   3.676 -0.3345 -0.1985  0.4868
15662SOL     OW51347  10.319  10.275  10.889 -0.2910 -0.1430  0.2783
15662SOL    HW151348  10.336  10.294  10.796 -0.6701 -2.2239 -0.2721
15662SOL    HW251349  10.390  10.319  10.935  0.7088 -0.1713 -1.1332
15663SOL     OW51350   9.495   3.909   1.082  0.3395  0.1536 -0.2905
15663SOL    HW151351   9.445   3.828   1.070 -0.2397  0.3511  0.7063
15663SOL    HW251352   9.587   3.880   1.084  0.3076 -0.1982 -2.1954
15664SOL     OW51353   6.072   2.859   7.117  0.4389 -0.3883  0.2137
15664SOL    HW151354   6.119   2.865   7.200  1.1729  0.4669 -0.2485
15664SOL    HW251355   6.024   2.941   7.110  1.3031  0.0547 -0.7444
15665SOL     OW51356   0.737   4.266  10.180 -0.3840 -0.1210 -0.1261
15665SOL    HW151357   0.643   4.257  10.164 -0.0881  0.3520 -2.4524
15665SOL    HW251358   0.753   4.360  10.179  0.3246 -0.2354 -1.3393
15666SOL     OW51359   6.887   9.852   3.957 -0.2648  0.6318 -0.3045
15666SOL    HW151360   6.853   9.841   4.046 -0.3622 -1.8929 -0.5791
15666SOL    HW251361   6.853   9.937   3.929 -0.9721  1.0815  1.7358
15667SOL     OW51362   8.463   2.504   9.190 -0.6599  0.3695 -0.0244
15667SOL    HW151363   8.520   2.581   9.189 -0.3938  0.2662  2.0482
15667SOL    HW251364   8.466   2.470   9.101  2.6524  0.2961 -0.0030
15668SOL     OW51365   1.326   8.089   4.058 -0.0497  0.1885  0.4058
15668SOL    HW151366   1.263   8.138   4.111 -1.7333  0.7691 -1.9721
15668SOL    HW251367   1.402   8.146   4.053 -1.0866  1.5538 -0.3766
15669SOL     OW51368   3.081  10.955   4.312  0.2652 -0.1395  0.4655
15669SOL    HW151369   3.093  11.012   4.388  0.9596 -0.5337  0.6543
15669SOL    HW251370   3.087  10.866   4.346  0.7758 -0.3204 -0.0806
15670SOL     OW51371   8.086   2.579   1.579  0.2961 -0.0400  0.1421
15670SOL    HW151372   8.026   2.596   1.506 -1.3185 -0.1389  1.3871
15670SOL    HW251373   8.090   2.484   1.585 -0.2661 -0.0331  0.7090
15671SOL     OW51374   1.596   5.493   1.477  0.1749 -0.8075 -0.0190
15671SOL    HW151375   1.569   5.584   1.467  0.4851 -0.9449 -2.4945
15671SOL    HW251376   1.516   5.443   1.464  0.0899 -0.9477  0.9220
15672SOL     OW51377   5.541   8.464   5.862  0.1288  0.5522  0.0150
15672SOL    HW151378   5.596   8.535   5.829  1.5518  0.0232  1.1697
15672SOL    HW251379   5.541   8.475   5.957  0.3583 -0.9545  0.2111
15673SOL     OW51380   1.222   0.230   4.993 -0.0446 -0.7284  0.0738
15673SOL    HW151381   1.173   0.253   5.072  0.9788 -1.5818  0.9979
15673SOL    HW251382   1.269   0.310   4.970 -0.9374 -0.2553 -0.1195
15674SOL     OW51383   6.918   9.709   5.739 -0.1836  0.1635 -0.5912
15674SOL    HW151384   6.926   9.677   5.829 -0.2432 -0.9169 -0.9576
15674SOL    HW251385   7.006   9.738   5.716 -0.3870  1.4805  0.1717
15675SOL     OW51386   1.590  10.089   4.751 -0.0676  0.3255 -0.8093
15675SOL    HW151387   1.535  10.029   4.701  1.2706 -1.1667 -0.5718
15675SOL    HW251388   1.675  10.085   4.709  0.8142 -0.1736  0.9350
15676SOL     OW51389   9.866   7.802   4.708 -0.0597 -0.5775  0.1089
15676SOL    HW151390   9.775   7.823   4.729 -0.2623 -1.3274  0.0189
15676SOL    HW251391   9.866   7.707   4.697  0.7970 -0.6177  0.4242
15677SOL     OW51392   6.501  10.479   5.006 -0.1844  0.1657 -0.2484
15677SOL    HW151393   6.555  10.516   4.937 -0.5456  0.6631 -0.2735
15677SOL    HW251394   6.535  10.391   5.020 -1.5268 -0.8175 -2.6207
15678SOL     OW51395   5.017   0.146   7.581  0.0818  0.2665  0.4076
15678SOL    HW151396   4.984   0.193   7.657 -2.5365  1.0487 -1.0849
15678SOL    HW251397   5.064   0.212   7.531 -1.2184  0.6780 -0.3224
15679SOL     OW51398   4.956   6.946   6.056  0.3477  0.1383  0.0013
15679SOL    HW151399   4.927   6.905   6.138  2.0039  0.1832  0.6620
15679SOL    HW251400   4.876   6.960   6.006 -0.6901 -0.1161  1.5146
15680SOL     OW51401   3.379  10.393   9.453 -0.2193 -0.0015 -0.2951
15680SOL    HW151402   3.470  10.422   9.451  0.2921 -1.5534 -1.0666
15680SOL    HW251403   3.346  10.425   9.537  1.5746 -0.9315  0.8269
15681SOL     OW51404   6.651   6.456   9.192 -0.4837 -0.5222 -0.4477
15681SOL    HW151405   6.577   6.464   9.251 -0.7443 -2.1233 -0.5148
15681SOL    HW251406   6.714   6.401   9.239  0.5563  0.5607 -0.5095
15682SOL     OW51407   2.669   4.958   0.016  0.5396 -0.1698 -0.1517
15682SOL    HW151408   2.589   5.009   0.002  0.2087 -0.0227  1.9329
15682SOL    HW251409   2.695   4.978   0.105  0.6400 -3.2515  0.6338
15683SOL     OW51410   2.497   7.301   1.546  0.2193  0.7255  0.1029
15683SOL    HW151411   2.471   7.318   1.455 -0.6248  0.6768  0.3290
15683SOL    HW251412   2.584   7.339   1.553  0.3849  0.5354 -0.7911
15684SOL     OW51413   7.704   9.826   2.179  0.0352  0.4473 -0.0253
15684SOL    HW151414   7.795   9.848   2.164  0.2257 -0.4616 -0.2778
15684SOL    HW251415   7.657   9.863   2.104  0.5820 -1.4419 -1.3795
15685SOL     OW51416   7.262   3.913   4.038 -0.3900 -0.3966  0.6318
15685SOL    HW151417   7.255   4.006   4.014 -1.3244  0.2036  2.9859
15685SOL    HW251418   7.336   3.881   3.987  0.4603  1.8452  0.3556
15686SOL     OW51419  10.458   4.899   4.232 -0.3957 -0.1650 -0.1032
15686SOL    HW151420  10.385   4.855   4.190  1.4142 -4.1785  0.5057
15686SOL    HW251421  10.529   4.896   4.168  0.0394  1.2352  0.2738
15687SOL     OW51422   6.408   1.852   6.605 -0.3404 -0.0571  0.2283
15687SOL    HW151423   6.486   1.887   6.648  0.1683 -0.4281 -0.3733
15687SOL    HW251424   6.355   1.929   6.585  0.4941  0.3373 -0.5504
15688SOL     OW51425   0.869   1.621   3.463  0.3182  0.3804 -0.1852
15688SOL    HW151426   0.866   1.528   3.486  2.1959  0.3672  0.1964
15688SOL    HW251427   0.884   1.666   3.546 -1.7911  1.1654 -0.1935
15689SOL     OW51428   5.691   0.882   4.272 -0.0563 -0.4702  0.1134
15689SOL    HW151429   5.615   0.903   4.327  0.3941  0.3743  0.4286
15689SOL    HW251430   5.754   0.951   4.291  0.3422 -0.5020 -1.0222
15690SOL     OW51431   3.995   7.092   0.008 -0.0547  0.1442 -0.4069
15690SOL    HW151432   4.079   7.106  -0.037  0.1008  1.0798  0.1536
15690SOL    HW251433   4.002   7.143   0.089 -1.8303  1.6818 -1.1500
15691SOL     OW51434   1.449  10.101   8.470 -0.4094  0.1463  0.3381
15691SOL    HW151435   1.543  10.085   8.481 -0.7550 -0.2511  3.5018
15691SOL    HW251436   1.419  10.029   8.414  0.9023 -0.6039  0.5719
15692SOL     OW51437  10.203   0.186   6.712  0.0373  0.2346 -0.4315
15692SOL    HW151438  10.152   0.122   6.663  1.9627  1.4107 -4.3967
15692SOL    HW251439  10.182   0.270   6.670  0.0469  1.8138  2.4576
15693SOL     OW51440   7.060   1.807   3.347 -0.1327 -0.0739 -0.2100
15693SOL    HW151441   7.151   1.804   3.320 -0.4005 -0.2282 -1.1203
15693SOL    HW251442   7.021   1.877   3.294 -0.2405  0.9118  1.1316
15694SOL     OW51443   4.266  10.083   7.582 -0.4794  0.2005  0.0586
15694SOL    HW151444   4.178  10.105   7.552 -0.6540  0.6943  0.9125
15694SOL    HW251445   4.275   9.989   7.564 -1.5675 -0.0810  0.9034
15695SOL     OW51446   0.900   9.572   8.440 -0.4539 -0.6400 -0.5025
15695SOL    HW151447   0.971   9.549   8.379 -0.6703 -0.0399 -0.9991
15695SOL    HW251448   0.908   9.667   8.450  0.4203 -0.8653  1.4849
15696SOL     OW51449   6.279   7.802   3.126  0.2011  0.0028  0.2942
15696SOL    HW151450   6.262   7.715   3.163 -1.3760  0.3698  0.5362
15696SOL    HW251451   6.372   7.818   3.142  0.2860 -1.2176  1.1397
15697SOL     OW51452   0.150   7.046   8.299 -0.2949 -0.0615  0.0344
15697SOL    HW151453   0.079   6.983   8.313  0.9573 -1.0096  2.8241
15697SOL    HW251454   0.128   7.119   8.356  1.6861 -1.0908  2.2743
15698SOL     OW51455   1.178   4.737   0.645 -0.0121 -0.7624  0.2628
15698SOL    HW151456   1.102   4.723   0.702 -0.5916  0.1043 -0.2642
15698SOL    HW251457   1.167   4.675   0.573 -0.6050 -0.1563 -0.1759
15699SOL     OW51458   7.584   1.499   5.514 -0.6383  0.0811  0.1887
15699SOL    HW151459   7.623   1.461   5.436 -0.3633 -1.0280  0.8387
15699SOL    HW251460   7.577   1.593   5.495  1.5534  0.1938 -0.2795
15700SOL     OW51461   1.802   9.911   9.892  0.1338 -0.1588  0.6461
15700SOL    HW151462   1.726   9.888   9.839 -0.0946  0.0927  0.8667
15700SOL    HW251463   1.851   9.829   9.900 -0.0870 -0.3089  0.4656
15701SOL     OW51464   5.321   2.421   3.293 -0.2135 -0.2090 -0.2355
15701SOL    HW151465   5.259   2.488   3.321 -0.6909 -0.9874  0.6394
15701SOL    HW251466   5.397   2.470   3.261 -1.5601  0.7617 -2.0818
15702SOL     OW51467   6.450   9.744   7.105  0.0134 -0.4543  0.1047
15702SOL    HW151468   6.504   9.772   7.031 -0.8143 -0.7764 -0.6380
15702SOL    HW251469   6.499   9.672   7.145  0.2570 -0.5679 -0.3967
15703SOL     OW51470   2.375  10.394   2.233 -0.5765  0.5157  0.4102
15703SOL    HW151471   2.456  10.379   2.283 -1.2204 -1.8144  0.8666
15703SOL    HW251472   2.305  10.366   2.292 -1.3310 -3.5548 -2.0233
15704SOL     OW51473   8.551   5.263  10.848  0.1189  0.0712 -0.1366
15704SOL    HW151474   8.627   5.307  10.887 -1.3569  1.3787  1.4440
15704SOL    HW251475   8.569   5.170  10.860  0.8974  0.3800  1.4359
15705SOL     OW51476   9.666   6.743  10.111  0.1509 -0.2905  0.1302
15705SOL    HW151477   9.582   6.710  10.143  0.4108 -0.2414  0.8731
15705SOL    HW251478   9.730   6.718  10.178  1.0155 -1.6614 -1.1273
15706SOL     OW51479  10.785   3.028   8.462  0.1501  0.7674  0.0979
15706SOL    HW151480  10.751   2.940   8.444 -0.8777  1.2529 -0.4428
15706SOL    HW251481  10.761   3.045   8.553 -0.3051  0.7687 -0.0199
15707SOL     OW51482   0.734   8.707   5.914  0.3947 -0.3828 -0.0229
15707SOL    HW151483   0.722   8.621   5.874  2.7406 -0.5036 -0.6170
15707SOL    HW251484   0.646   8.734   5.940 -0.7052 -1.9986 -1.7996
15708SOL     OW51485   8.647   6.148   2.133  0.0792  0.5279 -0.4070
15708SOL    HW151486   8.615   6.150   2.223  1.1027 -1.6573  0.0749
15708SOL    HW251487   8.721   6.208   2.131  1.3515 -0.9309  0.8065
15709SOL     OW51488   5.099   5.577   8.283 -0.0991  0.0162  0.0616
15709SOL    HW151489   5.145   5.521   8.220 -0.0692 -1.3593  1.2518
15709SOL    HW251490   5.169   5.625   8.328  0.1719 -1.2981  1.1378
15710SOL     OW51491   2.413   5.748   8.785 -0.2476 -0.0802  0.0821
15710SOL    HW151492   2.392   5.841   8.776 -0.1999  0.0374  1.0734
15710SOL    HW251493   2.330   5.707   8.808 -0.5744 -0.5203 -1.7019
15711SOL     OW51494  10.770   8.904   4.500 -0.0909 -0.2444 -0.0118
15711SOL    HW151495  10.704   8.929   4.435  0.2433 -0.2039 -0.3365
15711SOL    HW251496  10.853   8.904   4.452  0.4389  1.5684  0.8184
15712SOL     OW51497   6.251   1.981   3.807 -0.1164  0.2086  0.4149
15712SOL    HW151498   6.168   1.946   3.775 -0.3263 -0.8723  2.0314
15712SOL    HW251499   6.271   1.928   3.884  3.3264 -1.2510 -1.2958
15713SOL     OW51500   9.274   2.332   3.721  0.2185 -0.3071  0.2642
15713SOL    HW151501   9.288   2.426   3.707 -1.2709  0.0269  0.9144
15713SOL    HW251502   9.215   2.327   3.796 -0.4907 -1.7280 -0.3517
15714SOL     OW51503  10.009   0.741   4.215  0.1907  0.8989  0.3066
15714SOL    HW151504   9.984   0.648   4.223 -0.1501  1.0280  0.7994
15714SOL    HW251505   9.954   0.786   4.279  1.3986  1.2451  1.1485
15715SOL     OW51506   0.269   8.643   3.502 -0.3645 -0.1721  0.1733
15715SOL    HW151507   0.223   8.704   3.559  0.1275  0.7922 -0.4269
15715SOL    HW251508   0.318   8.587   3.561  2.0476  2.3065  0.7383
15716SOL     OW51509   7.330   8.220   5.291  0.2159 -0.5292 -0.3085
15716SOL    HW151510   7.425   8.220   5.281  0.1175  2.1697 -2.3987
15716SOL    HW251511   7.297   8.199   5.203 -1.1261 -1.0893  0.3003
15717SOL     OW51512  10.115   3.466   4.855 -0.2134 -0.0687  0.6027
15717SOL    HW151513  10.185   3.402   4.868 -0.5512 -0.4712  0.4879
15717SOL    HW251514  10.159   3.546   4.831  0.1604 -0.5922 -0.5067
15718SOL     OW51515   5.318   3.967   5.866 -0.3310 -0.2248 -0.6004
15718SOL    HW151516   5.265   3.905   5.916 -1.2429 -0.6517 -2.0445
15718SOL    HW251517   5.401   3.920   5.851  0.4604  0.3654  1.4705
15719SOL     OW51518   4.763   6.576   7.786  0.3800 -0.0942 -0.2673
15719SOL    HW151519   4.750   6.539   7.873 -1.8473 -0.8923 -0.8695
15719SOL    HW251520   4.816   6.655   7.801 -0.4360  0.1218  1.8901
15720SOL     OW51521   3.597   2.489   5.683  0.1748  0.0981  0.0527
15720SOL    HW151522   3.533   2.541   5.634  0.0400 -0.3826 -0.3002
15720SOL    HW251523   3.544   2.426   5.732  0.3246  0.4223  0.6255
15721SOL     OW51524   2.729   0.102  10.513  0.2755 -0.4505 -0.1020
15721SOL    HW151525   2.759   0.029  10.567  3.2088  0.2422 -0.6175
15721SOL    HW251526   2.737   0.179  10.569 -0.3309 -0.2034 -0.3491
15722SOL     OW51527   7.015   3.652   1.943 -0.0025 -0.2104  0.0447
15722SOL    HW151528   7.012   3.709   2.020  1.1966  0.3415 -0.2859
15722SOL    HW251529   6.978   3.569   1.973  1.6238 -0.4342  1.6142
15723SOL     OW51530  10.460   2.206   7.280  0.0754  0.6831 -0.3964
15723SOL    HW151531  10.521   2.134   7.267 -0.8646 -0.3991  0.9708
15723SOL    HW251532  10.516   2.283   7.289  1.1656 -0.0786 -0.5056
15724SOL     OW51533   9.140   6.386   6.464 -0.0181 -0.0539  0.1030
15724SOL    HW151534   9.209   6.349   6.519  0.5111  0.0151 -0.4977
15724SOL    HW251535   9.187   6.434   6.396 -0.6682  0.1849 -0.1847
15725SOL     OW51536   7.988   0.966   0.179  0.9131 -0.8741 -0.0045
15725SOL    HW151537   8.062   1.020   0.205  0.7078 -0.7814  0.4036
15725SOL    HW251538   7.955   1.005   0.098  1.3768 -0.9820 -0.2461
15726SOL     OW51539   0.252   7.045   4.607  0.6678 -0.0519 -0.0730
15726SOL    HW151540   0.164   7.058   4.572  0.4417  0.0533  0.5239
15726SOL    HW251541   0.306   7.111   4.563  0.1164  1.0007  0.7671
15727SOL     OW51542  10.020   1.029   5.345  0.4103 -0.0304  0.0113
15727SOL    HW151543  10.059   1.028   5.257  2.3541  0.6660  0.8034
15727SOL    HW251544   9.946   1.089   5.338  0.2948 -0.2862 -1.2345
15728SOL     OW51545   0.394   6.443   5.346 -0.5981  0.4139  0.4071
15728SOL    HW151546   0.483   6.450   5.313 -0.2524 -3.5618 -0.0587
15728SOL    HW251547   0.339   6.447   5.269 -0.7027  1.3368  0.5251
15729SOL     OW51548   5.775   8.648   0.289  0.0019 -0.7076 -0.4141
15729SOL    HW151549   5.821   8.702   0.224 -0.4060 -1.6293 -1.4985
15729SOL    HW251550   5.690   8.630   0.249  0.0039 -1.8679  0.0754
15730SOL     OW51551   5.996   2.784   4.744 -0.2452 -0.1705 -0.4120
15730SOL    HW151552   5.996   2.741   4.829  0.5594 -0.0777 -0.3585
15730SOL    HW251553   6.088   2.794   4.722 -0.3933  1.7691 -0.2992
15731SOL     OW51554   2.133   0.229   1.485 -0.9032 -0.1299 -0.5083
15731SOL    HW151555   2.106   0.142   1.457 -2.0037 -0.1846  0.6150
15731SOL    HW251556   2.105   0.235   1.577  1.1268  0.5924  0.1394
15732SOL     OW51557   7.714   4.695   0.783 -0.5202  0.0195  0.2541
15732SOL    HW151558   7.724   4.694   0.688  0.3749  0.0354  0.3400
15732SOL    HW251559   7.679   4.782   0.803  0.9441  0.6894  0.0756
15733SOL     OW51560   4.785   6.592   0.520  0.2579 -1.1524  0.7550
15733SOL    HW151561   4.746   6.587   0.608 -0.2941 -1.0951  0.5176
15733SOL    HW251562   4.788   6.501   0.491 -1.3718 -1.0249  0.0654
15734SOL     OW51563   8.701   4.129   9.325  0.2305  0.0648 -0.3789
15734SOL    HW151564   8.636   4.063   9.348 -0.2117  0.4167 -0.6174
15734SOL    HW251565   8.661   4.179   9.255  1.1270 -0.2898 -1.1607
15735SOL     OW51566   9.322  10.858   4.562  0.3954  0.0327  0.1946
15735SOL    HW151567   9.383  10.785   4.550 -0.1904 -0.7060  1.5259
15735SOL    HW251568   9.238  10.824   4.533  0.1469  0.2279  0.6832
15736SOL     OW51569   1.535   5.949   5.650  0.2635  0.0841  0.4743
15736SOL    HW151570   1.487   6.012   5.595  2.0756  1.0650 -0.0548
15736SOL    HW251571   1.526   5.865   5.603 -0.0429  0.4647 -0.1638
15737SOL     OW51572   8.913   9.331  10.076  0.2586 -0.6936 -0.2312
15737SOL    HW151573   8.987   9.345  10.134  0.5204 -1.2133 -0.4278
15737SOL    HW251574   8.863   9.260  10.117  0.1900 -0.7450 -0.4023
15738SOL     OW51575   7.583   4.351   9.740  0.1008  0.2222  0.4972
15738SOL    HW151576   7.495   4.316   9.757 -0.1102  0.3643 -0.2593
15738SOL    HW251577   7.593   4.344   9.645  0.8156  0.4345  0.5531
15739SOL     OW51578   4.602   3.668   5.642  0.0407  0.0427  0.3197
15739SOL    HW151579   4.601   3.573   5.653 -1.6314  0.0698  0.5768
15739SOL    HW251580   4.522   3.688   5.594  0.8645  1.2406 -0.6105
15740SOL     OW51581   4.492   8.833   4.787  0.0486  0.3085  0.1457
15740SOL    HW151582   4.461   8.744   4.766  1.2207 -0.3474  1.0442
15740SOL    HW251583   4.543   8.822   4.868  1.4523  1.5506 -0.5269
15741SOL     OW51584   1.283   5.885   4.302 -0.0370 -0.3821  0.3579
15741SOL    HW151585   1.190   5.869   4.285  0.0431 -0.0956 -0.3728
15741SOL    HW251586   1.328   5.850   4.224  0.1768  3.0115 -1.1967
15742SOL     OW51587   8.221   7.153   1.753  0.5934 -0.1860  0.2966
15742SOL    HW151588   8.211   7.226   1.814  3.7768  1.3187 -0.7747
15742SOL    HW251589   8.315   7.151   1.733  0.3030 -3.2954 -1.3195
15743SOL     OW51590  10.202   5.007   7.977  0.0909  0.5245 -0.0311
15743SOL    HW151591  10.162   5.092   7.995 -1.3074 -0.2299  0.5618
15743SOL    HW251592  10.175   4.952   8.051  1.6053 -0.2394 -0.0205
15744SOL     OW51593  10.575  10.781   9.622  0.4485 -0.2462 -0.4229
15744SOL    HW151594  10.530  10.742   9.696 -0.4369  2.1684  0.4018
15744SOL    HW251595  10.518  10.763   9.547 -0.3046  0.0481  0.0673
15745SOL     OW51596   5.092   2.376   5.484 -0.0632  0.9677 -0.0820
15745SOL    HW151597   5.012   2.369   5.537  0.1110  0.4749  0.1131
15745SOL    HW251598   5.125   2.464   5.503 -0.4037  1.0676  0.0574
15746SOL     OW51599   7.373   9.731   8.089 -0.1928  0.0034  0.1609
15746SOL    HW151600   7.399   9.649   8.046 -0.6317 -0.2427  0.3589
15746SOL    HW251601   7.361   9.707   8.181 -0.0874  0.3443  0.2658
15747SOL     OW51602   9.118   2.345   0.509  0.3066 -0.2351 -0.1377
15747SOL    HW151603   9.204   2.344   0.551 -0.0201 -3.2684  0.6343
15747SOL    HW251604   9.056   2.331   0.581 -0.5177 -1.9813 -1.1352
15748SOL     OW51605   3.488   3.812   8.303 -0.5557  0.1668 -0.5605
15748SOL    HW151606   3.491   3.810   8.399  0.8428  3.4010 -0.3965
15748SOL    HW251607   3.570   3.770   8.276 -0.9102 -0.6684 -0.3904
15749SOL     OW51608   4.060   7.368   2.156  0.4380 -0.3237  0.0722
15749SOL    HW151609   4.001   7.412   2.095  0.1093 -1.3151 -0.3450
15749SOL    HW251610   4.124   7.323   2.101  0.7303 -0.4136  0.4783
15750SOL     OW51611   8.361  10.503   0.836 -0.1144  0.0606 -0.2405
15750SOL    HW151612   8.306  10.521   0.759 -1.6544 -1.9177  0.3106
15750SOL    HW251613   8.421  10.577   0.840 -1.1538  1.1114 -2.3124
15751SOL     OW51614   1.567   7.369   8.426  0.0491 -0.1322 -0.2292
15751SOL    HW151615   1.491   7.326   8.385 -0.7260  1.0418 -0.0564
15751SOL    HW251616   1.623   7.392   8.352 -1.1004  1.5098 -0.6483
15752SOL     OW51617  10.016  10.687   1.781 -0.4306  0.1058  0.2085
15752SOL    HW151618  10.050  10.608   1.822  0.3999  1.0186  1.3697
15752SOL    HW251619   9.937  10.659   1.734 -0.1229 -1.3959  0.5581
15753SOL     OW51620   3.625   0.066   0.061 -0.4196  0.0946  0.4022
15753SOL    HW151621   3.576   0.040   0.139  1.0279 -1.4141  0.8499
15753SOL    HW251622   3.714   0.036   0.077  0.3189  1.3458 -1.0872
15754SOL     OW51623   0.071   0.306   6.343 -0.3433  0.1131 -0.1973
15754SOL    HW151624   0.011   0.286   6.271  1.9205  0.1476 -2.1979
15754SOL    HW251625   0.086   0.221   6.385 -2.3207  0.2196  0.8542
15755SOL     OW51626  10.811   4.777   6.253  0.3383 -0.3209  0.2698
15755SOL    HW151627  10.758   4.788   6.174  1.5580 -0.0614 -0.5241
15755SOL    HW251628  10.791   4.854   6.306 -1.5310 -1.1536  0.8814
15756SOL     OW51629   5.091   1.624   2.297 -0.2028  0.6252  0.2735
15756SOL    HW151630   5.169   1.675   2.272 -0.8476  1.6070  0.2138
15756SOL    HW251631   5.045   1.681   2.359  1.1013 -1.4957  3.4827
15757SOL     OW51632   9.237   5.341  10.449  0.5015  0.5829 -0.2592
15757SOL    HW151633   9.241   5.247  10.429  1.4244  0.2346  1.4274
15757SOL    HW251634   9.181   5.347  10.526 -0.2302  1.5217 -0.8472
15758SOL     OW51635   2.045   5.921   9.832 -0.5634 -0.0367 -0.3343
15758SOL    HW151636   1.970   5.949   9.885 -2.1863 -2.3607 -1.1873
15758SOL    HW251637   2.021   5.944   9.742  0.2570  0.1684 -0.5091
15759SOL     OW51638   5.176   7.539  10.856  0.3329 -0.0373  0.4476
15759SOL    HW151639   5.108   7.518  10.791  0.6508  1.0346 -0.2573
15759SOL    HW251640   5.240   7.468  10.846 -1.6532 -2.3489  2.6755
15760SOL     OW51641   0.349   5.627   4.463  0.4481 -0.8359 -0.3426
15760SOL    HW151642   0.324   5.572   4.537  1.8837 -0.1059  0.7504
15760SOL    HW251643   0.266   5.657   4.426 -0.3217 -0.4182  1.6097
15761SOL     OW51644   9.185   0.043   5.668 -0.5888 -0.3810 -0.1629
15761SOL    HW151645   9.163  -0.049   5.678  0.5317 -0.5625  0.8753
15761SOL    HW251646   9.271   0.052   5.710 -0.5917  1.0918 -0.4152
15762SOL     OW51647   4.638   5.352   4.265  0.1536 -0.1838  0.6285
15762SOL    HW151648   4.692   5.409   4.210 -0.0779 -0.8825 -0.3345
15762SOL    HW251649   4.666   5.373   4.355  0.5011  1.0000  0.2668
15763SOL     OW51650   1.307   3.881   1.039  0.3279  0.4465  0.1907
15763SOL    HW151651   1.387   3.880   0.986  0.8263 -1.4112  0.8942
15763SOL    HW251652   1.333   3.837   1.121 -1.2789  0.3136  0.6536
15764SOL     OW51653   5.429   7.145   6.957 -0.3192  0.4671  0.5711
15764SOL    HW151654   5.436   7.186   7.043 -2.0678 -2.8905  2.5421
15764SOL    HW251655   5.338   7.115   6.952  0.6429 -2.7706 -0.6708
15765SOL     OW51656   8.921   6.293  11.064  0.0360 -0.0967  0.4327
15765SOL    HW151657   8.905   6.262  10.974 -1.1960 -0.0213  0.6175
15765SOL    HW251658   8.870   6.373  11.071  1.5687  0.9100  0.6395
15766SOL     OW51659   9.465  10.403   2.140  0.4776  0.4447  0.1904
15766SOL    HW151660   9.388  10.355   2.111 -0.0577  0.3801  1.6122
15766SOL    HW251661   9.497  10.448   2.062 -0.3778 -0.3582 -0.6462
15767SOL     OW51662   8.685   6.445   6.677  0.3136 -0.2468 -0.4389
15767SOL    HW151663   8.744   6.493   6.618  1.0843  0.6222  0.9600
15767SOL    HW251664   8.725   6.457   6.764 -0.8836 -1.3137  0.2799
15768SOL     OW51665   9.103  10.930   7.482 -0.1160  0.1168 -0.5262
15768SOL    HW151666   9.151  10.992   7.427  1.0814  0.3976  0.7811
15768SOL    HW251667   9.047  10.882   7.421  0.9139  0.6466 -1.9357
15769SOL     OW51668   8.681   1.793  10.970  0.3030 -0.3382  0.6456
15769SOL    HW151669   8.708   1.826  11.055  1.0838 -0.3366  0.4105
15769SOL    HW251670   8.605   1.846  10.946  0.0299 -0.3908  1.3624
15770SOL     OW51671   6.628   9.150  10.821 -0.2998 -0.3075 -0.2379
15770SOL    HW151672   6.723   9.160  10.811 -0.2479 -1.5996 -1.2580
15770SOL    HW251673   6.592   9.230  10.783  0.3815  0.4375  0.6307
15771SOL     OW51674   9.910   9.801   9.793  0.5738 -0.0624  0.3338
15771SOL    HW151675   9.903   9.878   9.736  0.0149  0.2825  0.8561
15771SOL    HW251676   9.910   9.727   9.733  0.3319  0.3113 -0.1337
15772SOL     OW51677   0.159   2.510   2.235  0.3494  0.0854  0.3799
15772SOL    HW151678   0.205   2.501   2.318  0.0539 -0.3257  0.4968
15772SOL    HW251679   0.078   2.461   2.246  0.0708  0.4568  0.0259
15773SOL     OW51680   4.651   9.293   5.868  0.3155 -0.5413 -0.5313
15773SOL    HW151681   4.688   9.307   5.956  1.1278  0.9315 -1.0778
15773SOL    HW251682   4.704   9.223   5.831 -0.1145 -1.2659  0.1821
15774SOL     OW51683   2.730   9.778   6.272 -0.0917  0.3664 -0.2653
15774SOL    HW151684   2.677   9.853   6.297  0.2353  0.4346  0.2430
15774SOL    HW251685   2.820   9.810   6.272  0.2733 -0.4667  1.8920
15775SOL     OW51686   0.889   7.577   2.539  0.2503 -0.1118 -0.5218
15775SOL    HW151687   0.967   7.523   2.554  1.1350  1.0917 -0.6538
15775SOL    HW251688   0.854   7.546   2.455  0.3951 -0.8736 -0.3093
15776SOL     OW51689   6.270   1.784   7.308 -0.1759  0.5482  0.1359
15776SOL    HW151690   6.247   1.699   7.346  3.0730 -0.5579 -0.0405
15776SOL    HW251691   6.210   1.793   7.233 -0.5778 -1.6209  0.1092
15777SOL     OW51692   0.151   0.358   8.838 -0.1351 -0.6276  0.3230
15777SOL    HW151693   0.164   0.270   8.872  1.4104 -0.7415 -0.4968
15777SOL    HW251694   0.073   0.351   8.783 -1.0641 -1.0499  1.6350
15778SOL     OW51695   5.959   5.950   1.613 -0.1842  0.3724  0.7796
15778SOL    HW151696   6.003   6.014   1.557  0.8945  1.8563  3.1715
15778SOL    HW251697   5.927   6.001   1.688  0.8391 -1.8329  2.8663
15779SOL     OW51698   9.461   3.791   0.561 -0.3950  0.5450  0.3577
15779SOL    HW151699   9.501   3.779   0.646 -1.2326  0.3670  0.7415
15779SOL    HW251700   9.504   3.868   0.524  1.3721 -0.5119  0.0957
15780SOL     OW51701   2.064   9.156   9.005 -0.0891  0.3605  0.6895
15780SOL    HW151702   1.983   9.134   9.051 -0.1062  0.6106  0.7821
15780SOL    HW251703   2.115   9.206   9.070  0.3189 -0.1623  0.7752
15781SOL     OW51704   6.540   8.606  10.417  0.1962 -0.5810  0.0193
15781SOL    HW151705   6.605   8.536  10.419 -0.0960 -0.8580 -0.0848
15781SOL    HW251706   6.463   8.567  10.375 -1.1101 -1.1882  2.7389
15782SOL     OW51707   6.478   9.393   7.541  0.5668 -0.0926 -0.1751
15782SOL    HW151708   6.484   9.489   7.539  2.0061 -0.1791 -1.2496
15782SOL    HW251709   6.451   9.373   7.631  1.1378  1.2774  0.3321
15783SOL     OW51710   2.767   3.976   5.894 -0.3798 -0.3816  0.2860
15783SOL    HW151711   2.797   3.929   5.972  0.7737 -1.3413 -0.7026
15783SOL    HW251712   2.710   4.045   5.928  1.0045 -0.0444  2.0689
15784SOL     OW51713   7.965   2.182  10.518  0.1126 -0.2127 -0.2628
15784SOL    HW151714   8.038   2.133  10.557  0.6340  2.0069  1.7673
15784SOL    HW251715   7.945   2.134  10.438  1.6230 -2.7798  0.7590
15785SOL     OW51716   8.262   7.901   4.108  0.0071 -0.9275  0.3581
15785SOL    HW151717   8.265   7.955   4.186 -0.6037 -0.3938  0.0195
15785SOL    HW251718   8.303   7.954   4.040  0.6014 -1.4171  0.3310
15786SOL     OW51719   9.578   0.525  10.163  0.1343  0.5178 -0.1512
15786SOL    HW151720   9.521   0.572  10.224  0.0623 -0.0153  0.1990
15786SOL    HW251721   9.624   0.594  10.115 -0.7317  0.9542 -0.3707
15787SOL     OW51722   2.936   9.399   3.113 -0.2207  0.0555  0.5081
15787SOL    HW151723   2.891   9.433   3.191  0.1787 -0.3277  0.9151
15787SOL    HW251724   2.867   9.390   3.047 -0.3783  1.4018  0.4723
15788SOL     OW51725   0.850   9.342   2.029 -0.7967  0.0840  0.1761
15788SOL    HW151726   0.758   9.315   2.032 -0.7793 -0.1000 -0.7540
15788SOL    HW251727   0.847   9.436   2.009 -0.8001  0.3102  1.1897
15789SOL     OW51728   4.806   9.744   1.980  0.3350  0.5562 -0.3851
15789SOL    HW151729   4.717   9.711   1.992  0.0120  1.9456  1.2906
15789SOL    HW251730   4.798   9.839   1.984  2.1723  0.7026  2.4573
15790SOL     OW51731   3.901   0.555   5.975 -0.5558  0.0796 -0.3208
15790SOL    HW151732   3.842   0.629   5.959  1.9042  1.8678 -1.8355
15790SOL    HW251733   3.903   0.508   5.892 -0.1970 -0.2204 -0.1463
15791SOL     OW51734   2.815   9.992   2.108  0.0631 -0.2371  0.7043
15791SOL    HW151735   2.871  10.064   2.081 -0.6913  0.4651  0.9931
15791SOL    HW251736   2.849   9.967   2.194  1.6627 -1.6474 -0.2728
15792SOL     OW51737   7.275   3.686   9.044  0.0879 -0.2463 -0.0760
15792SOL    HW151738   7.338   3.749   9.079  0.1176 -0.6278  0.5733
15792SOL    HW251739   7.318   3.648   8.968  0.3455  0.0215 -0.0650
15793SOL     OW51740   2.862   1.160   3.545  0.3097  0.5345 -0.0443
15793SOL    HW151741   2.845   1.079   3.593 -0.6963  0.3015 -0.7659
15793SOL    HW251742   2.888   1.130   3.458  0.7656  0.9794 -0.0620
15794SOL     OW51743   1.375   1.530   6.804 -0.4239 -0.3027 -0.6416
15794SOL    HW151744   1.348   1.459   6.862 -1.0780  1.0438  0.7743
15794SOL    HW251745   1.363   1.495   6.716 -0.8709 -1.8813  0.0054
15795SOL     OW51746   6.723   1.395   2.003  0.1621  0.6146 -0.4489
15795SOL    HW151747   6.640   1.376   2.046  0.3823  0.9060  0.1160
15795SOL    HW251748   6.763   1.309   1.989  0.8640  0.5925  1.4968
15796SOL     OW51749   6.758   9.811   4.196  0.4824  0.0271  0.0500
15796SOL    HW151750   6.688   9.786   4.255 -0.8765  0.7638 -1.1822
15796SOL    HW251751   6.838   9.796   4.245 -0.5754  0.2664  1.9177
15797SOL     OW51752   6.682   9.444   1.925  0.1960  0.2180  0.4571
15797SOL    HW151753   6.718   9.521   1.881  0.6601  0.3330  1.0223
15797SOL    HW251754   6.672   9.472   2.016 -2.0456  0.4468  0.2060
15798SOL     OW51755   1.977   2.602   7.029 -0.8407 -0.3632  0.1431
15798SOL    HW151756   1.895   2.597   7.078 -0.8927  1.0086  0.2220
15798SOL    HW251757   2.038   2.643   7.090 -0.6665  0.5467 -0.6330
15799SOL     OW51758   8.588   8.186   9.866 -0.8621  0.2183  0.1734
15799SOL    HW151759   8.679   8.194   9.895 -0.3798 -0.7741 -1.0090
15799SOL    HW251760   8.562   8.275   9.844  0.2186  0.3595 -0.6116
15800SOL     OW51761  10.243   8.271  10.478  0.3629 -0.0514  0.1918
15800SOL    HW151762  10.304   8.231  10.539  0.8448 -0.1329 -0.3398
15800SOL    HW251763  10.245   8.215  10.400 -1.5341 -0.9389  0.7113
15801SOL     OW51764   6.603  10.901   6.050 -0.0083  0.3401 -0.1026
15801SOL    HW151765   6.509  10.889   6.055 -0.2276  1.8776 -0.0272
15801SOL    HW251766   6.637  10.816   6.023 -1.2179 -0.7887  1.7050
15802SOL     OW51767   0.904   9.913   7.546 -0.2414  0.2762 -0.2480
15802SOL    HW151768   0.959   9.855   7.493  0.3579  1.2541 -0.7243
15802SOL    HW251769   0.814   9.889   7.524 -0.0163 -0.7719 -0.0898
15803SOL     OW51770   4.802  10.099   2.423 -0.7107  0.2151  0.0811
15803SOL    HW151771   4.849  10.025   2.384 -0.1690  0.7630 -0.3272
15803SOL    HW251772   4.857  10.126   2.496 -1.0102  0.0859  0.3535
15804SOL     OW51773   0.927  10.593   3.964 -0.0781 -0.2381 -0.1241
15804SOL    HW151774   0.865  10.654   4.004  0.7699  0.7942 -0.3442
15804SOL    HW251775   0.938  10.524   4.030  0.5379  0.9230  1.0401
15805SOL     OW51776   9.160   1.937   5.499 -0.1253  0.0852 -0.5628
15805SOL    HW151777   9.253   1.956   5.511 -0.2209 -0.8226  2.4846
15805SOL    HW251778   9.156   1.843   5.487 -0.6667  0.0750 -0.3338
15806SOL     OW51779   3.316   7.118   8.902  0.2252 -0.0091 -0.7286
15806SOL    HW151780   3.295   7.052   8.836  0.1077 -0.6896 -0.0340
15806SOL    HW251781   3.372   7.072   8.965 -0.5048  0.3179  0.1977
15807SOL     OW51782   6.700   6.817   0.687 -0.5777  0.1400 -0.5062
15807SOL    HW151783   6.636   6.888   0.697 -1.0879 -0.4717  0.9577
15807SOL    HW251784   6.677   6.755   0.757 -0.1646 -1.4783 -1.7611
15808SOL     OW51785   4.377   5.118   0.621  0.1279 -0.4293  0.2134
15808SOL    HW151786   4.363   5.024   0.632  0.2896 -0.4314  0.3915
15808SOL    HW251787   4.360   5.134   0.528 -1.2440 -0.4090  0.4341
15809SOL     OW51788   3.424   7.934   2.630  0.2728  0.4903 -0.1079
15809SOL    HW151789   3.372   7.871   2.680  0.0589  0.0799 -0.8162
15809SOL    HW251790   3.360   7.987   2.583  0.4451  1.4736  0.7460
15810SOL     OW51791   8.147   3.697   6.419  0.1849  0.2689 -0.1742
15810SOL    HW151792   8.135   3.644   6.341  0.1191 -2.3771  1.4977
15810SOL    HW251793   8.058   3.713   6.451  0.2710 -0.8502  0.6812
15811SOL     OW51794   7.406   6.520   2.077 -0.1525 -0.3382  0.0617
15811SOL    HW151795   7.496   6.490   2.072 -0.3108 -0.9223  0.7125
15811SOL    HW251796   7.353   6.442   2.058 -0.5432 -0.2956  0.9323
15812SOL     OW51797   8.246   4.209   8.727 -0.1544  0.1206  0.1524
15812SOL    HW151798   8.240   4.141   8.795  1.0697  0.5741  0.7235
15812SOL    HW251799   8.228   4.162   8.646 -0.2678 -0.6975  0.6367
15813SOL     OW51800   1.808   7.272   0.305 -0.0745 -0.1892  0.1114
15813SOL    HW151801   1.787   7.182   0.279  0.7149  0.3512 -2.7015
15813SOL    HW251802   1.846   7.311   0.227 -0.2409  2.5727  1.3096
15814SOL     OW51803   4.848   9.416   6.411  0.3677 -0.0977  0.0799
15814SOL    HW151804   4.801   9.496   6.391  0.1179 -0.4202 -0.6919
15814SOL    HW251805   4.889   9.432   6.496  1.7855  1.5185 -0.8354
15815SOL     OW51806   7.614   5.863   9.506  0.5288 -0.0680 -0.1595
15815SOL    HW151807   7.618   5.770   9.483  1.9324  0.1771 -1.0039
15815SOL    HW251808   7.569   5.904   9.432  1.5413  0.1672 -0.6586
15816SOL     OW51809   6.659   8.103   5.206 -0.5077  0.5841 -0.1416
15816SOL    HW151810   6.617   8.127   5.289 -0.4764 -2.4336  0.8666
15816SOL    HW251811   6.700   8.018   5.223 -0.4670 -0.1499 -3.2648
15817SOL     OW51812   4.613   7.952   3.755  0.1096  0.0273 -0.4689
15817SOL    HW151813   4.580   7.863   3.769  0.7954 -0.4477 -1.6559
15817SOL    HW251814   4.623   7.958   3.660  1.1811  0.9659 -0.3090
15818SOL     OW51815   1.548   3.428   6.744 -0.2004  0.2440 -0.1705
15818SOL    HW151816   1.574   3.377   6.821 -0.7519 -0.4501 -0.4295
15818SOL    HW251817   1.593   3.512   6.754  2.7326 -1.1031 -0.9397
15819SOL     OW51818   3.461   1.691   0.755  0.1717 -0.3055 -0.0343
15819SOL    HW151819   3.541   1.733   0.787  0.4476 -0.7100 -0.1702
15819SOL    HW251820   3.487   1.600   0.740 -0.8941 -1.0370  2.1156
15820SOL     OW51821   1.122   7.863   2.574  0.1824  0.3284 -0.1986
15820SOL    HW151822   1.203   7.812   2.570 -0.0067  0.0250 -0.1590
15820SOL    HW251823   1.143   7.944   2.528  0.1068 -0.2937 -1.3577
15821SOL     OW51824   0.191   3.659   7.486 -0.3900  0.2741  0.6037
15821SOL    HW151825   0.266   3.717   7.476  1.2925 -1.7677  0.6960
15821SOL    HW251826   0.138   3.675   7.407  0.9886  0.5839 -0.2881
15822SOL     OW51827   0.747   9.345   9.712 -0.3802 -0.4117  0.3070
15822SOL    HW151828   0.745   9.395   9.794  0.0810 -2.1455  1.4296
15822SOL    HW251829   0.721   9.408   9.645 -1.9642  0.7867  1.9382
15823SOL     OW51830   7.219   7.202  10.968 -0.4778 -0.2801  0.2954
15823SOL    HW151831   7.224   7.107  10.962  0.8952 -0.1608 -1.5289
15823SOL    HW251832   7.135   7.224  10.927 -0.0041 -0.6469 -0.9303
15824SOL     OW51833   8.277   0.800   4.040  0.9737 -0.1610  0.0450
15824SOL    HW151834   8.282   0.809   3.945  1.3609 -1.8924 -0.1215
15824SOL    HW251835   8.245   0.886   4.070  1.9345  0.7950 -1.5292
15825SOL     OW51836  10.654   2.744   9.125  0.4764  0.0675 -0.1636
15825SOL    HW151837  10.737   2.769   9.166 -0.3617  0.6292  1.2765
15825SOL    HW251838  10.616   2.680   9.184 -0.7461  0.8507 -0.0605
15826SOL     OW51839   8.499   4.386   3.266 -0.3978 -0.1106  0.0097
15826SOL    HW151840   8.459   4.306   3.301 -0.0572 -0.1071  0.4199
15826SOL    HW251841   8.547   4.357   3.188 -0.6669 -0.2234 -0.1141
15827SOL     OW51842   7.601   4.766   3.154 -0.6521 -0.8430  0.0815
15827SOL    HW151843   7.528   4.826   3.137  1.1629  1.6080  0.2755
15827SOL    HW251844   7.590   4.739   3.245  1.1251  3.5257  1.8816
15828SOL     OW51845  10.822   9.072  10.542  0.0920  0.1832  0.0943
15828SOL    HW151846  10.809   9.119  10.624 -0.3052 -0.6373  0.5097
15828SOL    HW251847  10.768   8.993  10.550  1.0179 -0.5351 -0.4264
15829SOL     OW51848   3.418   6.656  10.913  0.0146 -0.1368  0.0304
15829SOL    HW151849   3.435   6.634  11.005  1.1939 -0.4988 -0.2667
15829SOL    HW251850   3.373   6.741  10.918  1.1881  0.4722  0.9070
15830SOL     OW51851   4.888   6.196   2.511  0.1363  0.2624 -0.1894
15830SOL    HW151852   4.833   6.118   2.506 -0.7540  0.8980 -0.4051
15830SOL    HW251853   4.868   6.235   2.596  0.3068  0.4568 -0.2361
15831SOL     OW51854   7.498   1.924  10.922 -0.5616 -0.0425  0.6892
15831SOL    HW151855   7.475   2.010  10.956 -0.5337  0.2596 -0.0411
15831SOL    HW251856   7.505   1.936  10.827  0.5310 -0.5920  0.6794
15832SOL     OW51857   7.801   8.995   5.496  0.2421  0.4198  0.3868
15832SOL    HW151858   7.821   8.904   5.473 -0.2357  0.7603 -1.5423
15832SOL    HW251859   7.885   9.041   5.487 -0.2804  0.9614 -3.1136
15833SOL     OW51860   4.064   5.998   3.882  0.2880  0.0825 -0.3287
15833SOL    HW151861   4.097   6.077   3.839 -0.7356 -0.1026 -1.5132
15833SOL    HW251862   4.138   5.967   3.935  1.1456  1.0854 -0.8994
15834SOL     OW51863   0.625   0.411  10.947 -0.5487 -0.0929 -0.3036
15834SOL    HW151864   0.592   0.501  10.948  0.4218  0.2756 -0.2137
15834SOL    HW251865   0.563   0.364  10.892 -1.2677  0.5534 -0.0667
15835SOL     OW51866   3.203   3.715   3.731 -0.2309 -0.2070 -0.0818
15835SOL    HW151867   3.186   3.746   3.819 -1.6867  0.6493 -0.6290
15835SOL    HW251868   3.122   3.732   3.683  1.6404  2.7996 -2.5620
15836SOL     OW51869   1.840  10.220   9.516 -0.0017  0.4484  0.5388
15836SOL    HW151870   1.888  10.136   9.512 -0.5255  0.1600  0.2076
15836SOL    HW251871   1.862  10.264   9.433  0.0617  0.5227  0.5949
15837SOL     OW51872   8.865   4.684   5.400  0.3890 -0.3264  0.1217
15837SOL    HW151873   8.926   4.694   5.473 -1.4506 -1.7691  1.9994
15837SOL    HW251874   8.889   4.600   5.360  0.9982  0.1628 -0.5582
15838SOL     OW51875   4.570   2.545   6.581  0.7289  0.1502  0.5926
15838SOL    HW151876   4.490   2.578   6.622 -0.8274 -0.5174 -1.7318
15838SOL    HW251877   4.603   2.480   6.644 -0.6555  0.3090  1.5352
15839SOL     OW51878   1.605   3.872   0.945  0.9394 -0.0561  0.3280
15839SOL    HW151879   1.642   3.904   1.027  0.6600  0.6106  0.1982
15839SOL    HW251880   1.580   3.782   0.964  0.4040  0.2528  1.1386
15840SOL     OW51881   9.758   4.641   1.028 -0.0083  0.2254  0.4316
15840SOL    HW151882   9.785   4.589   0.953  2.4352  1.1414  0.5958
15840SOL    HW251883   9.757   4.732   0.996  0.8448  0.6045  1.4196
15841SOL     OW51884   3.646   6.426   6.002  0.6077  0.1239 -0.1878
15841SOL    HW151885   3.656   6.383   6.087  0.9668 -0.4935 -0.5296
15841SOL    HW251886   3.555   6.457   6.001  1.2598  2.2683  1.3620
15842SOL     OW51887   3.511   8.749   1.693 -0.2896  0.0836 -0.6674
15842SOL    HW151888   3.430   8.792   1.720  0.8444  1.6709  0.3176
15842SOL    HW251889   3.548   8.713   1.774  1.4919  2.0486 -0.5236
15843SOL     OW51890   5.307   3.554   3.129  0.0188 -0.7642 -0.3116
15843SOL    HW151891   5.241   3.595   3.072 -0.2912 -0.8277 -0.0000
15843SOL    HW251892   5.256   3.508   3.195  0.3572  0.6003  0.9575
15844SOL     OW51893   7.327   9.942   3.760 -0.2089  0.1082  0.0823
15844SOL    HW151894   7.276   9.903   3.831  0.2637  0.0080  0.3671
15844SOL    HW251895   7.277  10.020   3.735  0.3469  0.9711  1.5102
15845SOL     OW51896   6.248   9.629   4.292 -0.5302 -0.3764 -0.2590
15845SOL    HW151897   6.257   9.723   4.303  2.1705 -0.4950 -0.7836
15845SOL    HW251898   6.207   9.618   4.206 -0.7632  0.3190 -0.2381
15846SOL     OW51899   9.423   4.372   1.938  0.3652  0.0738 -0.2942
15846SOL    HW151900   9.494   4.312   1.913  0.0322 -0.3293 -0.2996
15846SOL    HW251901   9.451   4.409   2.021  1.4326  1.3283 -1.1719
15847SOL     OW51902   8.703   9.775   6.420  0.1504  0.2683  0.0281
15847SOL    HW151903   8.655   9.724   6.354  0.2292 -0.3143  0.4132
15847SOL    HW251904   8.635   9.810   6.477  0.1816 -0.9584  0.8605
15848SOL     OW51905   1.319   5.579  10.462 -0.4955 -0.5296 -0.5369
15848SOL    HW151906   1.390   5.603  10.522  1.1303 -1.0970 -2.1637
15848SOL    HW251907   1.304   5.659  10.411 -2.9252  0.4542  1.4843
15849SOL     OW51908   3.907   3.673   0.913  0.0378 -0.1168 -0.0479
15849SOL    HW151909   3.853   3.685   0.992 -0.6549  0.2068 -0.5563
15849SOL    HW251910   3.844   3.653   0.844  0.6077 -0.0317 -0.6022
15850SOL     OW51911   9.958  10.605   0.802 -0.1566 -0.4050 -0.2612
15850SOL    HW151912  10.005  10.528   0.770 -0.5525 -0.7223 -0.0823
15850SOL    HW251913  10.008  10.679   0.767 -0.2081 -0.7416 -1.0706
15851SOL     OW51914   5.933   1.737   7.644 -0.3743 -0.3831  0.6267
15851SOL    HW151915   5.880   1.659   7.631  0.1226 -0.9317  1.7962
15851SOL    HW251916   6.022   1.705   7.657  0.0633  0.4625 -0.1007
15852SOL     OW51917   1.131   9.519   7.031  0.0002 -0.8956  0.5217
15852SOL    HW151918   1.061   9.480   6.980 -1.2044 -1.5574  2.5458
15852SOL    HW251919   1.164   9.448   7.086  2.5545 -0.6900 -0.6005
15853SOL     OW51920   3.397   6.486   3.083  0.2573  0.3202 -0.3461
15853SOL    HW151921   3.312   6.465   3.123  0.7039 -0.9106  0.0253
15853SOL    HW251922   3.457   6.494   3.157  0.3572  1.8301 -0.5672
15854SOL     OW51923   9.164   0.073   8.017 -0.2429  0.6879  0.4271
15854SOL    HW151924   9.159   0.016   7.940  1.9425  0.8557  0.0863
15854SOL    HW251925   9.161   0.013   8.091 -0.1812  0.3156  0.1340
15855SOL     OW51926   4.295   9.380   6.796 -0.1193  0.3537  0.1302
15855SOL    HW151927   4.220   9.338   6.755 -0.2886  1.8132 -1.1321
15855SOL    HW251928   4.370   9.351   6.743  0.0262  0.0351  0.5078
15856SOL     OW51929  10.353   3.112  10.509 -0.4170 -0.3514  0.2951
15856SOL    HW151930  10.425   3.062  10.473 -0.6837  0.4856 -1.4775
15856SOL    HW251931  10.274   3.068  10.478 -0.6980 -0.6799  1.4007
15857SOL     OW51932   0.607   8.014   3.149  0.2571  0.4742 -0.3674
15857SOL    HW151933   0.681   8.074   3.153 -0.6390  1.7613 -1.7526
15857SOL    HW251934   0.534   8.068   3.119 -1.0207 -0.9576  0.0293
15858SOL     OW51935   9.509   1.143   5.464  0.1069 -0.4348  0.2389
15858SOL    HW151936   9.533   1.175   5.551  2.1846  1.0105 -0.7761
15858SOL    HW251937   9.426   1.186   5.445  0.2446  0.2063  1.0170
15859SOL     OW51938   8.752   3.577   8.304 -0.1866 -0.0875  0.1765
15859SOL    HW151939   8.769   3.570   8.397 -0.2125 -1.3905  0.0970
15859SOL    HW251940   8.694   3.504   8.284 -1.0713  0.8172 -0.6630
15860SOL     OW51941   3.327   8.686   3.645  0.0186  0.4400 -0.2752
15860SOL    HW151942   3.399   8.708   3.585 -0.3512  1.3196 -0.4090
15860SOL    HW251943   3.299   8.770   3.680 -0.0286 -0.0298  0.8531
15861SOL     OW51944   4.052   5.451   2.230  0.5454  0.0426  0.0857
15861SOL    HW151945   4.103   5.396   2.290 -0.4201 -1.8930 -0.7966
15861SOL    HW251946   3.963   5.415   2.233 -0.6348  2.6828  0.8080
15862SOL     OW51947   1.066   1.668   5.756 -0.3198  0.0809  0.2957
15862SOL    HW151948   1.133   1.632   5.815  0.3714 -0.8080 -0.9852
15862SOL    HW251949   0.996   1.604   5.758 -0.4110  0.1824  0.3516
15863SOL     OW51950   5.555   8.499   5.085 -0.2202 -0.0598  0.3195
15863SOL    HW151951   5.582   8.568   5.025 -1.5728 -0.3216 -0.6309
15863SOL    HW251952   5.637   8.457   5.111  0.3760 -0.6996 -2.3064
15864SOL     OW51953   2.067   9.459   3.692  0.2139  0.3971  0.4036
15864SOL    HW151954   2.160   9.482   3.683  0.5664 -1.0404  0.1003
15864SOL    HW251955   2.021   9.543   3.688  1.4079  1.0442 -0.7606
15865SOL     OW51956   3.113   4.299   8.358 -1.0743 -0.5839  0.1710
15865SOL    HW151957   3.036   4.304   8.414 -1.7046  0.2050 -0.7386
15865SOL    HW251958   3.095   4.226   8.299 -0.8859 -0.7412  0.3086
15866SOL     OW51959   5.146   6.346   9.928  0.5310  0.2249  0.1354
15866SOL    HW151960   5.109   6.290   9.996 -0.6461  0.7207 -0.0613
15866SOL    HW251961   5.087   6.421   9.924 -2.2410 -1.6939 -4.3706
15867SOL     OW51962   5.200   9.581   5.723 -0.1317  0.0343 -0.1144
15867SOL    HW151963   5.250   9.534   5.790 -0.4923  0.0496  0.1720
15867SOL    HW251964   5.246   9.664   5.714 -1.4035  1.0366  1.8653
15868SOL     OW51965  10.994   4.103   4.283 -0.1490  0.8373  0.1737
15868SOL    HW151966  10.946   4.051   4.219  0.7567 -1.3881  1.2191
15868SOL    HW251967  10.929   4.126   4.349 -0.0010 -1.5620  1.2303
15869SOL     OW51968   1.528  10.814   3.873  0.2845 -0.7514 -0.0253
15869SOL    HW151969   1.463  10.748   3.848 -0.8036  0.3926 -0.2877
15869SOL    HW251970   1.544  10.864   3.792  0.0133  0.2116  0.5042
15870SOL     OW51971   4.793   9.446   5.552 -0.3629  0.1548 -0.0661
15870SOL    HW151972   4.712   9.418   5.596 -0.2083  0.6072  0.5115
15870SOL    HW251973   4.862   9.395   5.594 -0.4584 -1.1675 -1.4077
15871SOL     OW51974   0.882   7.297   3.613 -0.1677  0.0587  0.3440
15871SOL    HW151975   0.957   7.326   3.665  0.9495 -0.6878 -0.7897
15871SOL    HW251976   0.865   7.369   3.552 -0.7382  0.4555  0.9627
15872SOL     OW51977   2.332   0.336   4.196 -0.3140  0.3285 -0.2994
15872SOL    HW151978   2.288   0.260   4.157  0.9550 -0.5609 -0.0573
15872SOL    HW251979   2.262   0.381   4.244 -1.4371  0.2413 -1.7514
15873SOL     OW51980   9.890   1.276   1.481  0.8458  0.0238  0.6903
15873SOL    HW151981   9.809   1.325   1.499  1.5496  0.7460  2.0456
15873SOL    HW251982   9.949   1.340   1.442  0.4296 -0.7729 -1.3503
15874SOL     OW51983   0.683   5.253   7.634  0.2785  0.0222  0.2802
15874SOL    HW151984   0.631   5.306   7.574  1.5368  1.5966  0.5351
15874SOL    HW251985   0.691   5.168   7.589  0.0971  0.7394 -1.1634
15875SOL     OW51986   7.121   0.019   1.995  0.3122  0.4370  0.3776
15875SOL    HW151987   7.032   0.036   1.966 -0.0652 -1.6460  0.1352
15875SOL    HW251988   7.113  -0.005   2.087  0.6040  0.2053  0.3460
15876SOL     OW51989   2.641   4.955   9.440  0.0315  0.0291 -0.9942
15876SOL    HW151990   2.727   4.915   9.428  0.3868 -0.8185  3.0056
15876SOL    HW251991   2.659   5.049   9.443  0.5790 -0.0472 -1.5748
15877SOL     OW51992   7.839   5.264   6.905 -0.0153 -0.7382  1.0064
15877SOL    HW151993   7.807   5.349   6.877  0.4692  0.3051  3.3482
15877SOL    HW251994   7.783   5.240   6.979 -0.3506 -2.6378  0.1916
15878SOL     OW51995   2.051   6.165   0.385 -0.1473 -0.3634  0.0886
15878SOL    HW151996   2.063   6.237   0.323 -0.9699 -1.9914 -2.1204
15878SOL    HW251997   1.962   6.134   0.369 -0.1029 -1.3664  1.5516
15879SOL     OW51998   4.009   9.781   3.210 -0.3959  0.4168 -0.3474
15879SOL    HW151999   3.913   9.785   3.219 -0.3476  0.1332  0.3517
15879SOL    HW252000   4.026   9.820   3.124 -1.1165  0.7425 -0.3544
15880SOL     OW52001   7.809   5.283   3.933  0.1837 -0.1290  0.2278
15880SOL    HW152002   7.875   5.254   3.996  0.2345 -0.1666  0.1567
15880SOL    HW252003   7.850   5.355   3.886  0.1765 -0.1574  0.1778
15881SOL     OW52004  10.240  10.562   2.755  0.1013 -0.1672 -0.0200
15881SOL    HW152005  10.309  10.625   2.733 -0.2400  0.6606  1.1669
15881SOL    HW252006  10.186  10.608   2.819 -0.0430 -1.7574  1.0384
15882SOL     OW52007  10.506   4.413  10.466 -0.3130 -0.2235 -0.3556
15882SOL    HW152008  10.530   4.439  10.377 -0.2919 -0.8091 -0.5241
15882SOL    HW252009  10.420   4.452  10.480  0.8249  2.1629  0.3678
15883SOL     OW52010  10.020   7.248   3.074 -0.5651  0.3782 -0.1051
15883SOL    HW152011   9.990   7.321   3.020  0.9487  0.1571 -1.3225
15883SOL    HW252012  10.104   7.277   3.110 -0.7495 -0.1284  0.7616
15884SOL     OW52013  10.696   4.458   0.006 -0.1243 -0.6272 -0.1076
15884SOL    HW152014  10.706   4.534   0.064  2.1153 -0.5960 -0.4680
15884SOL    HW252015  10.606   4.429   0.021  0.7414 -1.6490  4.6996
15885SOL     OW52016   1.091   1.496   6.163 -0.0286  0.1371 -0.2665
15885SOL    HW152017   1.043   1.449   6.231  3.0800 -3.5526 -0.2625
15885SOL    HW252018   1.040   1.481   6.083 -0.2759 -1.3960  0.1442
15886SOL     OW52019   9.457   4.281   1.461  0.4965  0.3650 -0.0501
15886SOL    HW152020   9.414   4.246   1.540 -0.3894 -0.0384 -0.6973
15886SOL    HW252021   9.466   4.206   1.403 -0.9172  1.0624 -1.2307
15887SOL     OW52022   4.562  10.215   1.465 -0.2564 -0.5743 -0.3293
15887SOL    HW152023   4.583  10.179   1.378 -0.6488 -0.4246 -0.4867
15887SOL    HW252024   4.468  10.229   1.463 -0.2154 -0.2426  0.0013
15888SOL     OW52025   3.977   9.434  11.076 -0.3285 -1.0661  0.3990
15888SOL    HW152026   3.906   9.390  11.030 -0.4908 -1.5045  1.0698
15888SOL    HW252027   4.053   9.377  11.062 -0.3945 -1.2357  0.7356
15889SOL     OW52028   0.465   1.168   7.044 -0.3372 -0.2083  0.5141
15889SOL    HW152029   0.406   1.144   7.115 -1.7618  0.5735 -0.3592
15889SOL    HW252030   0.519   1.091   7.030 -0.6830 -0.7060  1.7964
15890SOL     OW52031  10.190   2.874  11.038  0.1862  0.0819  0.6939
15890SOL    HW152032  10.229   2.847  10.955 -1.1657  1.4894 -0.4557
15890SOL    HW252033  10.170   2.792  11.083 -0.0338 -0.7471 -0.8540
15891SOL     OW52034   6.294   4.581   0.603 -0.0833  0.2089 -0.3900
15891SOL    HW152035   6.331   4.643   0.666  0.4089 -0.1431 -0.3306
15891SOL    HW252036   6.309   4.495   0.641 -0.4171  0.0259 -0.6581
15892SOL     OW52037  10.202   8.074   8.569 -0.0390  0.6323  0.0122
15892SOL    HW152038  10.166   8.139   8.630 -0.7737 -0.4934  0.8267
15892SOL    HW252039  10.135   8.005   8.566  1.0389 -0.4316 -0.2356
15893SOL     OW52040   6.538   8.303  10.898  0.2365 -0.1085  0.0222
15893SOL    HW152041   6.579   8.247  10.833 -1.6842 -0.7834 -0.6598
15893SOL    HW252042   6.497   8.243  10.960 -0.1161  0.5403  0.4337
15894SOL     OW52043   3.247   9.020   8.679  0.0896  0.8255  0.2179
15894SOL    HW152044   3.225   9.111   8.659  0.1790  1.0650  1.1500
15894SOL    HW252045   3.342   9.015   8.670  0.3448  1.3709  2.1441
15895SOL     OW52046   8.541   9.782   8.535 -0.3366  0.5776 -0.7493
15895SOL    HW152047   8.556   9.868   8.496 -0.2669  0.7192 -0.4149
15895SOL    HW252048   8.597   9.780   8.613  0.7908 -0.3367 -1.5517
15896SOL     OW52049   4.957   5.132   9.820 -0.3036  0.2184 -0.1182
15896SOL    HW152050   4.872   5.097   9.793 -0.0092 -0.4403 -0.2157
15896SOL    HW252051   4.980   5.081   9.898 -0.5189  1.1712  0.5923
15897SOL     OW52052   2.740   8.731   2.759  0.4008 -0.5391  0.2846
15897SOL    HW152053   2.836   8.726   2.754  0.3341 -0.8293 -0.9399
15897SOL    HW252054   2.721   8.824   2.753  0.6285 -0.4372  1.0767
15898SOL     OW52055   3.783   5.402   4.143 -0.0788 -0.1589 -0.3159
15898SOL    HW152056   3.865   5.385   4.190 -0.7274 -1.1345  0.5105
15898SOL    HW252057   3.755   5.316   4.113 -0.5532  0.2364 -1.0250
15899SOL     OW52058   9.525   1.159   2.064 -0.0803 -0.9028 -0.3879
15899SOL    HW152059   9.454   1.118   2.015 -0.6941  1.7431 -1.9390
15899SOL    HW252060   9.604   1.118   2.031 -0.7282 -2.1571 -0.4369
15900SOL     OW52061   0.683   9.165   5.571  0.5671  0.0029  0.2790
15900SOL    HW152062   0.743   9.123   5.633  0.2515  1.2583  1.4908
15900SOL    HW252063   0.622   9.214   5.626 -0.4798  0.2030 -0.9960
15901SOL     OW52064   1.160   8.570   1.273 -0.0548 -0.0197 -0.2156
15901SOL    HW152065   1.230   8.636   1.274  1.1685 -1.2625 -0.5997
15901SOL    HW252066   1.119   8.579   1.188  0.1021  0.2468 -0.2648
15902SOL     OW52067   3.468  10.908   0.625  0.1215  0.3030 -0.3523
15902SOL    HW152068   3.562  10.922   0.627  0.2688 -0.6278  1.6646
15902SOL    HW252069   3.435  10.953   0.702 -0.9117 -0.4289 -0.3323
15903SOL     OW52070   5.700   0.029   9.663 -0.1931 -0.0363 -0.2508
15903SOL    HW152071   5.678   0.075   9.582  0.7720  2.0171  0.5658
15903SOL    HW252072   5.757  -0.043   9.635  0.6907  1.0524 -1.3563
15904SOL     OW52073   2.452   5.890   8.091 -0.1350  0.4644  0.1842
15904SOL    HW152074   2.442   5.844   8.174  3.5671  0.2652  0.7053
15904SOL    HW252075   2.413   5.976   8.107 -1.1291 -0.1933  1.4945
15905SOL     OW52076   5.399   5.173   6.841  0.1128 -0.5989  0.1512
15905SOL    HW152077   5.364   5.085   6.829 -1.1750 -0.1642  0.6127
15905SOL    HW252078   5.488   5.158   6.875 -0.0916 -1.7175  0.2457
15906SOL     OW52079   4.180   1.521   6.646 -0.0711 -0.0405  0.1567
15906SOL    HW152080   4.201   1.463   6.718  1.1161  1.1097  0.7787
15906SOL    HW252081   4.254   1.511   6.585  0.1997  0.8751  0.3253
15907SOL     OW52082   2.722   9.087   1.329 -0.9548  0.7967  0.8324
15907SOL    HW152083   2.628   9.069   1.326 -1.1307  1.7519 -0.1237
15907SOL    HW252084   2.745   9.110   1.239  0.1905  0.6167  1.0603
15908SOL     OW52085   2.701   8.998   2.777  0.5197 -0.2523  0.2782
15908SOL    HW152086   2.626   9.006   2.835  0.7778  0.5667  0.5146
15908SOL    HW252087   2.704   9.082   2.730  0.6106 -0.7135 -0.5505
15909SOL     OW52088   2.058  10.212   0.393  0.2165 -0.1048  0.4674
15909SOL    HW152089   2.141  10.177   0.425  0.2217 -0.1624  0.3902
15909SOL    HW252090   2.080  10.256   0.311 -0.2635 -2.4867 -1.0345
15910SOL     OW52091  10.998   4.020   1.151 -0.0587  0.1807  0.0337
15910SOL    HW152092  10.999   4.115   1.139  0.2321  0.6233  2.9588
15910SOL    HW252093  11.064   4.003   1.218 -0.7678 -1.9777  0.2730
15911SOL     OW52094   0.059   4.255  11.045  0.3621  0.4909 -0.5020
15911SOL    HW152095   0.148   4.282  11.026  0.0100  3.9324  1.7147
15911SOL    HW252096   0.006   4.332  11.024 -1.7370 -0.5797  0.5465
15912SOL     OW52097  10.921   8.756   6.701 -0.0487 -0.2064 -0.1860
15912SOL    HW152098  10.921   8.852   6.704  1.2262 -0.2213  1.7011
15912SOL    HW252099  10.894   8.729   6.789 -2.3992 -1.6409 -1.2630
15913SOL     OW52100  10.671   4.307  10.867 -0.2776 -0.2976  0.7612
15913SOL    HW152101  10.737   4.311  10.937 -0.4601  1.6950  0.8935
15913SOL    HW252102  10.591   4.280  10.911 -0.0418 -0.6023  1.0131
15914SOL     OW52103   8.727   3.121   2.786 -0.1501  0.4352 -0.3895
15914SOL    HW152104   8.666   3.187   2.820 -1.5194 -1.3931  0.9234
15914SOL    HW252105   8.794   3.113   2.855 -0.6838 -0.3980  0.0487
15915SOL     OW52106   2.074  10.445   7.069  0.4492 -0.6091  0.3838
15915SOL    HW152107   2.084  10.374   7.132  0.4254 -0.2938  0.7452
15915SOL    HW252108   2.042  10.519   7.121  1.2012 -0.1090  0.1463
15916SOL     OW52109   7.106   5.934  10.426 -0.0364 -0.5080  0.9668
15916SOL    HW152110   7.087   6.019  10.468 -2.6211 -0.2030 -0.6214
15916SOL    HW252111   7.028   5.882  10.443 -0.6741 -0.7865 -2.3071
15917SOL     OW52112   9.509   5.672   0.830  0.2759 -0.3492 -0.3023
15917SOL    HW152113   9.591   5.622   0.829 -0.4127 -1.5846  0.9096
15917SOL    HW252114   9.472   5.656   0.917 -0.0765  2.2025  0.0961
15918SOL     OW52115   1.722   1.581   5.505 -0.1101 -0.6424 -1.0789
15918SOL    HW152116   1.652   1.573   5.440 -1.2213 -1.7921  0.2104
15918SOL    HW252117   1.772   1.501   5.496 -0.4283 -0.9292 -0.3564
15919SOL     OW52118   7.678   3.511   9.929  0.2056  0.1838 -0.1610
15919SOL    HW152119   7.599   3.507   9.876  1.1037 -0.8684 -1.5281
15919SOL    HW252120   7.697   3.604   9.938 -1.2179  0.4503  0.2739
15920SOL     OW52121   1.917   3.204   3.537  0.3212 -0.0054 -0.0060
15920SOL    HW152122   1.897   3.152   3.460  1.0018 -0.4208  0.0859
15920SOL    HW252123   1.833   3.243   3.563 -0.2960 -1.4053  0.1827
15921SOL     OW52124   0.590  10.388   4.649 -1.1827 -0.4567 -0.0856
15921SOL    HW152125   0.582  10.351   4.561 -0.2219 -0.0688 -0.3518
15921SOL    HW252126   0.500  10.408   4.674 -1.4193  0.1426 -1.3036
15922SOL     OW52127   9.417   8.425   6.599 -0.4201  0.0130  0.2806
15922SOL    HW152128   9.358   8.490   6.562 -2.1003 -2.0392 -0.8541
15922SOL    HW252129   9.504   8.453   6.571 -1.0064  2.0774  0.3806
15923SOL     OW52130   8.107   4.991   3.870 -0.2613 -0.0496  0.1593
15923SOL    HW152131   8.159   5.052   3.817 -0.3954  0.9415  1.1245
15923SOL    HW252132   8.055   4.943   3.806  1.8455 -1.1321 -0.8403
15924SOL     OW52133   6.715   8.628   2.380  0.3089 -0.0955 -0.9022
15924SOL    HW152134   6.682   8.635   2.470 -1.0228 -0.1333 -1.3833
15924SOL    HW252135   6.809   8.645   2.389  0.1562  0.1735  0.4617
15925SOL     OW52136   0.026   7.410   2.054  0.1685  0.7224  0.5691
15925SOL    HW152137   0.079   7.376   1.982 -1.0702  0.6047 -0.3137
15925SOL    HW252138  -0.053   7.443   2.012 -1.3495 -0.8703  2.0133
15926SOL     OW52139   7.127   7.156   0.147  0.0825 -0.5437 -0.0439
15926SOL    HW152140   7.195   7.093   0.121 -0.0775 -0.8887  0.3635
15926SOL    HW252141   7.065   7.155   0.075  0.2174 -0.6553 -0.1610
15927SOL     OW52142   2.199   7.862   7.933  0.3959  0.3947  0.3560
15927SOL    HW152143   2.245   7.781   7.953  0.8481  0.7664  0.8384
15927SOL    HW252144   2.268   7.927   7.922  0.1584  0.3542 -1.8905
15928SOL     OW52145   6.898   9.447   5.442 -0.5215  0.4624  0.1431
15928SOL    HW152146   6.934   9.455   5.353 -0.5237 -0.9193 -0.0020
15928SOL    HW252147   6.856   9.532   5.458 -0.3846  0.7967 -1.1182
15929SOL     OW52148   6.167   8.974   6.828  0.0561  0.3207  0.0838
15929SOL    HW152149   6.142   9.025   6.905 -0.5096  0.0299  0.1034
15929SOL    HW252150   6.100   8.996   6.763  1.7549  2.2880 -1.1135
15930SOL     OW52151   3.533   5.045   6.836  0.1966  0.2654  0.1063
15930SOL    HW152152   3.609   5.016   6.786  0.4466 -0.6481  0.9787
15930SOL    HW252153   3.458   5.030   6.778  0.5167 -0.4050 -0.1388
15931SOL     OW52154   1.431   4.299   9.470  0.7097 -0.4096  0.5391
15931SOL    HW152155   1.367   4.306   9.541  0.8703 -0.4747  0.6912
15931SOL    HW252156   1.379   4.280   9.392  0.4733  0.2967  0.5241
15932SOL     OW52157   6.609   1.476   6.186  0.0083 -0.2433  0.1951
15932SOL    HW152158   6.686   1.526   6.213  0.1779 -0.7030  0.5729
15932SOL    HW252159   6.557   1.537   6.134 -1.0238  1.1379  2.6736
15933SOL     OW52160  10.221   3.084   0.389  0.5154 -0.2794 -0.5304
15933SOL    HW152161  10.258   3.060   0.304  2.1902  1.4063 -0.3437
15933SOL    HW252162  10.291   3.067   0.452 -0.4434 -0.7880  0.4290
15934SOL     OW52163   6.790  10.113  10.525  0.4092 -0.4611  0.2832
15934SOL    HW152164   6.860  10.156  10.476  0.1730 -0.0521  0.3003
15934SOL    HW252165   6.736  10.071  10.458 -0.7018  1.2540  0.0549
15935SOL     OW52166   7.770  10.863   2.642 -0.3453  0.2307  0.4991
15935SOL    HW152167   7.773  10.944   2.591  0.5111  0.6965  1.2656
15935SOL    HW252168   7.679  10.856   2.671 -0.4766  0.7838  0.2284
15936SOL     OW52169  10.763   0.760   0.200  0.2218  0.1284 -0.1004
15936SOL    HW152170  10.768   0.849   0.236 -1.4608 -0.0581  0.7140
15936SOL    HW252171  10.694   0.718   0.252  0.4263 -1.3938 -1.0263
15937SOL     OW52172   0.294   0.181   6.932  0.2805 -0.3379 -0.2180
15937SOL    HW152173   0.295   0.144   7.020  1.5347  1.4141  0.5668
15937SOL    HW252174   0.211   0.229   6.927 -0.2174 -1.1999 -0.3473
15938SOL     OW52175   3.798  10.357   6.316  0.1366  0.0217  0.0338
15938SOL    HW152176   3.776  10.280   6.369 -2.3282 -1.2002 -2.4575
15938SOL    HW252177   3.820  10.320   6.230  2.1807  1.9880 -0.3575
15939SOL     OW52178   0.792  10.631   1.036 -0.2777 -0.0814  0.2298
15939SOL    HW152179   0.863  10.691   1.013 -1.9917  2.1710  0.4673
15939SOL    HW252180   0.830  10.572   1.102  1.4226  0.8711  0.1428
15940SOL     OW52181   2.391   5.410   2.857  0.3798 -0.5740  0.0785
15940SOL    HW152182   2.313   5.354   2.852  0.7536 -1.3190  1.7998
15940SOL    HW252183   2.427   5.408   2.768 -1.4291 -0.3537 -0.7212
15941SOL     OW52184   2.864   0.753   1.242  0.3924 -0.2368 -0.4866
15941SOL    HW152185   2.830   0.665   1.227 -0.0699  0.0124 -0.9751
15941SOL    HW252186   2.940   0.741   1.298  0.0033 -0.8952 -0.0870
15942SOL     OW52187   7.262   0.621   9.780  0.2036 -0.0112  0.5455
15942SOL    HW152188   7.244   0.704   9.824 -0.7634 -0.7237  1.5624
15942SOL    HW252189   7.294   0.564   9.850  3.4617  0.2004 -0.5745
15943SOL     OW52190  10.737   5.631   5.496 -0.1452 -0.1405 -0.0957
15943SOL    HW152191  10.774   5.707   5.542 -0.1621 -0.4122  0.3782
15943SOL    HW252192  10.779   5.632   5.410  1.6528 -0.9263  0.7090
15944SOL     OW52193   5.428   3.926   6.435  0.1107  0.4261  0.1576
15944SOL    HW152194   5.513   3.911   6.475 -0.3967 -0.1844  1.0379
15944SOL    HW252195   5.376   3.970   6.502 -0.8471 -0.8826  0.3108
15945SOL     OW52196   8.338   4.041   5.276 -0.0779 -0.0362  0.5224
15945SOL    HW152197   8.285   4.121   5.280  0.2910  0.3823 -1.7762
15945SOL    HW252198   8.422   4.067   5.313 -0.0162  0.6116 -0.0428
15946SOL     OW52199   0.838  10.273   2.903 -0.0082 -0.1956  0.0788
15946SOL    HW152200   0.883  10.281   2.987 -1.7736  0.3247  1.0368
15946SOL    HW252201   0.852  10.183   2.876  0.9287 -0.2551  0.7214
15947SOL     OW52202   5.999   8.390   4.330  0.1701 -0.0179 -0.3904
15947SOL    HW152203   6.068   8.361   4.390 -0.1960 -4.2219 -1.6840
15947SOL    HW252204   6.033   8.470   4.290  2.5773  0.1371  1.7413
15948SOL     OW52205   4.736  10.571   0.224 -0.0339 -0.4529  0.7017
15948SOL    HW152206   4.809  10.630   0.208 -0.0289 -0.4409  0.7670
15948SOL    HW252207   4.738  10.556   0.319 -0.3932 -0.0870  0.7728
15949SOL     OW52208   3.920   0.067   9.136 -0.4466  0.5648  0.3000
15949SOL    HW152209   3.927  -0.028   9.136 -1.9414  0.3801 -1.8176
15949SOL    HW252210   3.973   0.096   9.062 -0.3045  1.3602  0.6921
15950SOL     OW52211  10.474   9.539   7.520 -0.1536 -0.1571 -0.2060
15950SOL    HW152212  10.492   9.511   7.431 -0.5089  0.8681 -0.6124
15950SOL    HW252213  10.472   9.458   7.571 -0.8550 -0.8332 -1.2817
15951SOL     OW52214   6.245   4.474   9.933  0.2937 -0.2720  0.4176
15951SOL    HW152215   6.160   4.504   9.901 -0.4000 -2.2390  0.2620
15951SOL    HW252216   6.307   4.504   9.866 -0.0564  2.1073  1.0614
15952SOL     OW52217   5.694   1.245   7.901  0.5356 -0.2570  0.4515
15952SOL    HW152218   5.769   1.196   7.935  0.8463 -0.0386  0.0876
15952SOL    HW252219   5.690   1.221   7.808  1.1573  0.9845  0.0926
15953SOL     OW52220   2.016   4.416  10.652 -0.0144  0.1945  0.2275
15953SOL    HW152221   1.945   4.478  10.669  0.2420  0.7124 -0.5486
15953SOL    HW252222   1.971   4.332  10.640 -0.6036  0.6682 -1.1221
15954SOL     OW52223   9.855   9.262   2.877 -0.0849  0.6243  0.6450
15954SOL    HW152224   9.795   9.192   2.850 -0.0605  1.1271 -0.7517
15954SOL    HW252225   9.938   9.241   2.833  0.8587 -0.1388  2.6613
15955SOL     OW52226   5.674   7.528   9.884  0.5298  0.2371 -0.0731
15955SOL    HW152227   5.614   7.603   9.891 -0.7924 -0.9405  2.4020
15955SOL    HW252228   5.761   7.568   9.880 -0.1368  1.9284  0.9627
15956SOL     OW52229   0.747   2.785   1.305  0.2957  0.5833 -0.1527
15956SOL    HW152230   0.835   2.820   1.318  1.3170 -1.7391 -0.3094
15956SOL    HW252231   0.736   2.782   1.210 -0.3379  1.7016 -0.1278
15957SOL     OW52232   5.101   6.974   4.282 -1.1619  0.2920  0.4345
15957SOL    HW152233   5.141   6.959   4.367 -1.3005  1.1146  0.6514
15957SOL    HW252234   5.171   7.013   4.229 -0.6639 -1.4336 -0.2698
15958SOL     OW52235   2.259   9.598   9.112  0.0153 -0.1847  1.0844
15958SOL    HW152236   2.295   9.562   9.194 -0.3955 -3.3961  0.0271
15958SOL    HW252237   2.171   9.560   9.106 -0.6301  1.3969 -0.0416
15959SOL     OW52238   9.020   6.286   8.823  0.2971 -0.2013 -0.3404
15959SOL    HW152239   9.036   6.330   8.907  2.0204 -1.8762  0.2820
15959SOL    HW252240   8.929   6.309   8.801  0.1850  1.2306  1.3682
15960SOL     OW52241   1.415   4.437   1.630  0.1232  0.4061  0.1588
15960SOL    HW152242   1.482   4.476   1.575 -0.4774 -0.5016 -1.2636
15960SOL    HW252243   1.387   4.359   1.582 -0.8374 -0.0943  1.4774
15961SOL     OW52244   5.205   2.185   0.523  0.1060  0.0041  0.4824
15961SOL    HW152245   5.256   2.161   0.601 -0.1516 -1.7100  0.1772
15961SOL    HW252246   5.242   2.130   0.454 -1.8814 -1.0271  0.1711
15962SOL     OW52247   0.994  10.337   1.005 -0.2404  0.0850 -0.9205
15962SOL    HW152248   1.070  10.381   1.043  0.6965 -1.1907 -1.2653
15962SOL    HW252249   0.923  10.355   1.067 -0.0022  2.3083 -1.2062
15963SOL     OW52250   0.785   2.143   8.909 -0.2460  0.5763 -0.5688
15963SOL    HW152251   0.843   2.073   8.940 -0.9929  0.5641  0.8951
15963SOL    HW252252   0.835   2.224   8.924  0.0284  0.4656 -0.8675
15964SOL     OW52253   9.580   8.623   5.021 -0.2594  0.2086  0.6755
15964SOL    HW152254   9.531   8.566   4.961 -0.1624  1.6837 -0.8835
15964SOL    HW252255   9.670   8.590   5.016  0.4024  2.0806 -2.4411
15965SOL     OW52256   4.359   8.216   8.910 -0.1789 -0.2609  0.2652
15965SOL    HW152257   4.275   8.216   8.956  0.2105  1.5556  1.0616
15965SOL    HW252258   4.413   8.155   8.961 -0.1254  0.8275  1.5783
15966SOL     OW52259   8.024   0.774   3.113  0.9510 -0.1438  0.7242
15966SOL    HW152260   8.070   0.752   3.194 -0.5195  0.2026  1.6706
15966SOL    HW252261   8.001   0.866   3.122 -0.5745 -0.4870  0.6205
15967SOL     OW52262   9.344   8.343   4.220  0.1114  0.0260 -0.2731
15967SOL    HW152263   9.264   8.323   4.269  1.1714 -1.7908  0.8192
15967SOL    HW252264   9.355   8.268   4.161  1.0853  0.1884 -0.3137
15968SOL     OW52265   2.079   7.371  10.792  0.5670  0.8757 -0.0056
15968SOL    HW152266   2.026   7.310  10.844  0.3432  0.2637 -0.9261
15968SOL    HW252267   2.136   7.414  10.856 -0.8961  1.4231  0.9947
15969SOL     OW52268  10.399   3.486   9.084 -0.0217  0.1300 -0.4715
15969SOL    HW152269  10.413   3.515   9.174 -2.9314  1.3675 -0.3140
15969SOL    HW252270  10.304   3.475   9.076  0.3238 -2.2761 -2.7453
15970SOL     OW52271   5.436   4.720   6.608 -0.1485  0.1987  0.1235
15970SOL    HW152272   5.468   4.643   6.561 -1.2506  0.6793 -1.5102
15970SOL    HW252273   5.512   4.754   6.655  1.4609  0.5635 -2.5564
15971SOL     OW52274   4.952   9.158   0.287  0.1219  0.7037 -0.7127
15971SOL    HW152275   4.918   9.176   0.199 -0.8550  0.6459 -0.3566
15971SOL    HW252276   4.971   9.245   0.324 -0.7196  0.7986 -0.4970
15972SOL     OW52277   2.922   8.363   6.110  0.1799  0.7451  0.0780
15972SOL    HW152278   2.867   8.354   6.188  1.5862 -0.8949  0.9386
15972SOL    HW252279   2.933   8.458   6.100 -3.3219  1.2294 -0.5795
15973SOL     OW52280   6.430   8.271   8.133 -0.1145 -0.2811 -0.2300
15973SOL    HW152281   6.480   8.350   8.154  0.5254 -0.6602 -0.2827
15973SOL    HW252282   6.364   8.300   8.071 -0.2831  0.3299  0.2262
15974SOL     OW52283   9.078   6.963   6.057  0.1988 -0.1045 -0.0313
15974SOL    HW152284   9.033   6.880   6.041  0.8764 -0.4942  0.0583
15974SOL    HW252285   9.147   6.965   5.991  0.2806  0.3235  0.0656
15975SOL     OW52286   6.614   6.267   1.839  0.3541  0.3826 -0.2304
15975SOL    HW152287   6.612   6.237   1.748  1.2220 -0.2947 -0.0487
15975SOL    HW252288   6.587   6.190   1.890  0.8225  0.4594  0.1416
15976SOL     OW52289   8.200  10.618   0.011 -0.3621  0.1124 -0.7201
15976SOL    HW152290   8.252  10.591   0.086 -0.6577  0.1584 -0.4944
15976SOL    HW252291   8.121  10.656   0.049 -1.8566 -2.4153 -1.0187
15977SOL     OW52292   3.122   8.059   7.045  0.4751 -0.0288 -0.0637
15977SOL    HW152293   3.128   8.039   7.138  1.5544 -0.4798 -0.2110
15977SOL    HW252294   3.188   8.004   7.004  1.0962  1.2757 -0.9147
15978SOL     OW52295   3.150  10.741   9.939 -0.1969  0.4000 -0.3311
15978SOL    HW152296   3.091  10.674   9.973 -1.8654  0.9198 -2.0159
15978SOL    HW252297   3.112  10.824   9.968  1.4633  0.7007  1.1542
15979SOL     OW52298   3.019   2.722   8.466  0.1792 -0.0579  0.2079
15979SOL    HW152299   2.944   2.696   8.519  0.4617 -0.9279  0.1923
15979SOL    HW252300   2.985   2.790   8.408 -1.1824 -1.9072 -1.2839
15980SOL     OW52301   3.120   2.596   7.917  1.0035  0.4299  0.6934
15980SOL    HW152302   3.054   2.664   7.905  0.8390  0.3051  0.8679
15980SOL    HW252303   3.127   2.587   8.012 -1.1925 -1.8798  0.7500
15981SOL     OW52304   3.919  10.805   5.825 -0.1048 -0.5237  0.2378
15981SOL    HW152305   3.927  10.858   5.746  0.9647  0.1919  0.8075
15981SOL    HW252306   3.897  10.718   5.793  2.1219 -0.7009 -0.9969
15982SOL     OW52307   8.408  10.861   7.176  0.5884 -0.0983  0.1504
15982SOL    HW152308   8.320  10.885   7.204  1.3900  2.2591  0.8392
15982SOL    HW252309   8.410  10.881   7.082  0.2530 -0.6511  0.0204
15983SOL     OW52310   3.341   7.920  11.006 -0.3780  0.3931 -0.7251
15983SOL    HW152311   3.354   8.015  11.001  0.4484  0.2666 -1.2253
15983SOL    HW252312   3.334   7.902  11.100 -0.4483  0.9360 -0.6208
15984SOL     OW52313   8.505   9.714   3.391 -0.4096 -0.2655  0.6507
15984SOL    HW152314   8.462   9.698   3.475 -1.3331 -0.9607  0.0674
15984SOL    HW252315   8.446   9.775   3.346 -0.3409 -0.5451  0.1818
15985SOL     OW52316   9.845   8.294  10.784 -0.1565  0.2551 -0.2505
15985SOL    HW152317   9.811   8.304  10.695 -0.2258  1.8796 -0.0796
15985SOL    HW252318   9.935   8.266  10.773 -0.7978 -1.7652 -0.7596
15986SOL     OW52319   3.755   7.719   1.497 -0.1403  0.0889  0.2573
15986SOL    HW152320   3.777   7.812   1.495 -1.2064  0.3435 -1.2244
15986SOL    HW252321   3.661   7.715   1.479 -0.2545 -1.2492  0.9859
15987SOL     OW52322   5.092   9.855   4.746 -0.0249 -0.3939 -0.6297
15987SOL    HW152323   5.136   9.860   4.661  1.8832  0.7637  0.3803
15987SOL    HW252324   5.080   9.946   4.772 -0.2193 -0.7462  0.5455
15988SOL     OW52325   3.845   9.352  10.845  0.4964  0.0585 -0.1606
15988SOL    HW152326   3.894   9.418  10.796  1.9294 -0.4254  0.5543
15988SOL    HW252327   3.872   9.268  10.807 -1.4611 -0.1648 -1.1975
15989SOL     OW52328   8.472   7.020   4.304 -0.0090 -0.0689  0.5028
15989SOL    HW152329   8.487   7.011   4.210  1.2171 -0.0177  0.6722
15989SOL    HW252330   8.410   6.950   4.326  0.9245 -1.1101 -0.0773
15990SOL     OW52331   9.510   3.838   3.099  0.1049 -0.0103  0.2510
15990SOL    HW152332   9.429   3.793   3.076 -0.5587  0.6689  1.1441
15990SOL    HW252333   9.481   3.912   3.153  1.3910 -0.3192  1.4248
15991SOL     OW52334   6.220   1.591   8.328 -0.4141 -0.1111  0.0479
15991SOL    HW152335   6.272   1.541   8.391  1.2541  0.4244 -0.8359
15991SOL    HW252336   6.240   1.552   8.243  0.1161  1.3515 -0.5435
15992SOL     OW52337   2.767   7.990  10.804  0.4265  0.0306 -0.3152
15992SOL    HW152338   2.754   7.925  10.735  1.7934 -2.2020  1.4081
15992SOL    HW252339   2.688   7.984  10.858  1.0134 -1.0302  0.4513
15993SOL     OW52340   7.761   5.889   7.274  0.1788  0.2687  0.3484
15993SOL    HW152341   7.795   5.840   7.199 -1.7800 -1.5831  0.5686
15993SOL    HW252342   7.728   5.971   7.236 -2.3713 -1.3385 -1.2280
15994SOL     OW52343  10.151   3.211   9.597  0.5912 -0.2756  0.4525
15994SOL    HW152344  10.147   3.205   9.502  2.2271 -2.5432  0.4249
15994SOL    HW252345  10.071   3.255   9.623 -0.3781 -0.5392 -1.9118
15995SOL     OW52346   3.656   1.843   0.869 -0.2652 -0.2322  0.1474
15995SOL    HW152347   3.672   1.887   0.953  0.1329 -0.8387  0.3957
15995SOL    HW252348   3.711   1.890   0.807  0.9215 -0.9714  0.5994
15996SOL     OW52349   4.670   7.314   5.760  0.3703  0.3800 -0.1128
15996SOL    HW152350   4.702   7.347   5.676 -0.0945  0.4206 -0.2765
15996SOL    HW252351   4.621   7.387   5.798 -0.3247  0.0140 -0.2956
15997SOL     OW52352   0.421   0.360   2.071  0.1246  0.1132 -0.0827
15997SOL    HW152353   0.463   0.290   2.021 -1.4951 -2.1066  1.4924
15997SOL    HW252354   0.439   0.439   2.020  1.2574 -1.5304 -2.4469
15998SOL     OW52355   2.662   3.546   8.643 -0.1732  0.0483  0.2570
15998SOL    HW152356   2.709   3.580   8.567 -0.5449  0.9941  0.4358
15998SOL    HW252357   2.605   3.477   8.608  0.0557  0.1115 -0.2374
15999SOL     OW52358   2.420   7.391   1.193  0.0590 -0.3379  0.8124
15999SOL    HW152359   2.344   7.398   1.135  0.8080 -0.4339 -0.2028
15999SOL    HW252360   2.406   7.309   1.239  0.0320 -0.8701 -0.1105
16000SOL     OW52361   9.413  10.826   7.047 -0.2709  0.2550 -0.1042
16000SOL    HW152362   9.360  10.836   6.967 -0.7148 -0.8460  0.0336
16000SOL    HW252363   9.503  10.817   7.016 -0.6439 -2.2976 -0.6779
16001SOL     OW52364  10.163   7.702  10.199 -0.2256  0.4120 -0.3696
16001SOL    HW152365  10.080   7.656  10.186 -0.7847  1.5886 -1.0915
16001SOL    HW252366  10.224   7.633  10.225 -0.9404 -0.8229 -1.7645
16002SOL     OW52367   9.401   0.337   3.708 -0.3812 -0.3583 -0.0383
16002SOL    HW152368   9.424   0.324   3.800  0.8025  0.8193 -0.1391
16002SOL    HW252369   9.315   0.378   3.710 -0.1761  0.0539  0.5615
16003SOL     OW52370   4.519   1.357   2.746  0.1014 -0.2234 -0.3808
16003SOL    HW152371   4.614   1.366   2.738  0.2851  0.3189  1.8216
16003SOL    HW252372   4.507   1.287   2.810 -0.8911  1.1284  0.9907
16004SOL     OW52373   3.524  10.998   0.323 -0.1943  0.6604  0.4535
16004SOL    HW152374   3.513  11.049   0.404  0.1261  0.6748  0.4888
16004SOL    HW252375   3.434  10.986   0.291 -0.2172  2.2978 -0.2049
16005SOL     OW52376   8.185   8.463   0.870 -0.2834  0.1785 -0.1783
16005SOL    HW152377   8.272   8.424   0.861 -1.0523 -1.3723 -1.4335
16005SOL    HW252378   8.157   8.438   0.958  0.8006  1.3246  0.5229
16006SOL     OW52379   2.068   9.371   8.051  0.3013 -0.1879 -0.0061
16006SOL    HW152380   1.979   9.390   8.082  0.6603 -0.1214  1.0220
16006SOL    HW252381   2.125   9.396   8.124  1.1653 -0.3023 -0.6210
16007SOL     OW52382   3.157   2.790   5.930 -0.3591 -0.2440 -0.1521
16007SOL    HW152383   3.243   2.782   5.890  0.1024  0.2087  0.7256
16007SOL    HW252384   3.103   2.726   5.884  0.5049 -0.7125 -0.5351
16008SOL     OW52385   2.042   3.427   2.847  0.3536 -0.4575 -0.0017
16008SOL    HW152386   2.075   3.418   2.757 -0.9232 -1.5806 -0.3894
16008SOL    HW252387   1.961   3.377   2.848  1.6370 -2.7355  2.5067
16009SOL     OW52388   2.630   3.030   8.943  0.2277 -0.4995  0.2374
16009SOL    HW152389   2.570   3.024   9.017  0.6281 -1.3801  0.5117
16009SOL    HW252390   2.714   3.053   8.982  0.4074 -0.8228  0.0500
16010SOL     OW52391   2.734   7.364   8.404 -0.3789 -0.3035  0.0040
16010SOL    HW152392   2.679   7.354   8.482  0.7215 -0.2597  0.7997
16010SOL    HW252393   2.673   7.352   8.331 -1.3112 -0.9854  0.8615
16011SOL     OW52394   0.608   6.320   7.411  0.1578  0.0891 -0.5554
16011SOL    HW152395   0.626   6.252   7.346 -1.3060  0.4978 -1.4504
16011SOL    HW252396   0.513   6.332   7.407  0.4525  2.8865 -1.1944
16012SOL     OW52397   4.398   3.172   8.084 -0.0107  0.5777 -0.3229
16012SOL    HW152398   4.311   3.201   8.057 -0.4409 -0.1539  0.2198
16012SOL    HW252399   4.382   3.091   8.133  1.2137 -1.4750 -3.0264
16013SOL     OW52400  10.539   7.000   0.596  0.2164  0.7358  0.1820
16013SOL    HW152401  10.551   6.986   0.502 -1.7658 -1.2849  0.1331
16013SOL    HW252402  10.488   7.080   0.602 -0.7807  0.1845 -0.5807
16014SOL     OW52403   5.995   3.496   5.067  0.1691 -0.0272 -0.3722
16014SOL    HW152404   5.931   3.555   5.107  0.8960  1.0784 -0.8037
16014SOL    HW252405   6.073   3.550   5.055  0.4828 -0.7728 -1.8261
16015SOL     OW52406   2.937   7.501   1.372  0.1268  0.1317  0.3712
16015SOL    HW152407   2.858   7.460   1.407  0.0425  0.0838  0.1276
16015SOL    HW252408   2.989   7.523   1.449 -0.1316  0.1782  0.5342
16016SOL     OW52409   9.437   3.671   7.512  0.0331  0.2672  0.0100
16016SOL    HW152410   9.507   3.621   7.470 -0.5096 -0.8105  0.3468
16016SOL    HW252411   9.406   3.615   7.583 -1.2521  0.6671 -0.2033
16017SOL     OW52412   1.417   8.650   0.063 -0.1822 -0.5762  0.7369
16017SOL    HW152413   1.482   8.580   0.050 -1.0788 -1.2037 -0.6065
16017SOL    HW252414   1.333   8.607   0.050 -0.7142  1.1345 -2.3466
16018SOL     OW52415   0.316   4.545   4.581 -0.5813 -0.0936 -0.4371
16018SOL    HW152416   0.223   4.522   4.585 -0.4547 -0.4653  0.6342
16018SOL    HW252417   0.360   4.460   4.574 -0.3227  0.0991 -1.3002
16019SOL     OW52418  10.667   7.358   0.941 -0.2850 -0.0230 -0.4627
16019SOL    HW152419  10.627   7.434   0.983  0.0656 -0.9982  1.7728
16019SOL    HW252420  10.614   7.284   0.969  2.3483 -1.2334  1.7704
16020SOL     OW52421   4.221   3.775   7.286 -0.7229  0.2753  0.2273
16020SOL    HW152422   4.229   3.724   7.205 -2.3044 -0.3322  0.4272
16020SOL    HW252423   4.309   3.773   7.323 -0.6777 -2.2814  0.1871
16021SOL     OW52424   6.197  10.861  10.110  0.1011  0.4428 -0.4298
16021SOL    HW152425   6.235  10.785  10.067 -1.0813  0.7329 -2.1159
16021SOL    HW252426   6.102  10.847  10.104 -0.1806  2.4760 -1.6988
16022SOL     OW52427   5.110   7.839   9.464 -0.4545  0.1154  0.0441
16022SOL    HW152428   5.018   7.859   9.481 -0.2019  0.8450  0.5797
16022SOL    HW252429   5.125   7.757   9.511 -0.2591  1.1523  1.9000
16023SOL     OW52430   7.806   7.566   5.366 -0.0278  0.2495  0.8552
16023SOL    HW152431   7.811   7.500   5.435  0.2739 -0.5142  0.1276
16023SOL    HW252432   7.749   7.527   5.300  0.6130  0.4580  0.1548
16024SOL     OW52433   8.281   4.531   8.529 -0.2552 -0.1313 -0.7813
16024SOL    HW152434   8.362   4.506   8.483 -0.9046  0.1186 -2.0952
16024SOL    HW252435   8.238   4.447   8.548 -0.4095 -0.2073 -1.4361
16025SOL     OW52436   1.005   8.637   7.269  0.3755  0.7130 -0.4672
16025SOL    HW152437   0.918   8.674   7.253 -0.1560 -0.9466 -1.6683
16025SOL    HW252438   1.001   8.606   7.360 -0.5860 -0.0877 -0.7655
16026SOL     OW52439  10.610   8.376   8.096  0.0969  0.5629 -0.4735
16026SOL    HW152440  10.672   8.418   8.036  1.8262  0.8149  1.3353
16026SOL    HW252441  10.604   8.286   8.066 -1.5285  1.3728 -2.7999
16027SOL     OW52442  11.103  10.485   8.795 -0.0011  0.3587 -0.5149
16027SOL    HW152443  11.095  10.394   8.766 -2.4118  0.9037 -1.8508
16027SOL    HW252444  11.110  10.535   8.714  0.5809  1.4239  0.1802
16028SOL     OW52445   3.964   8.664   7.439  0.3690  0.7303 -0.2348
16028SOL    HW152446   3.880   8.703   7.415 -0.0727 -0.5902 -0.9242
16028SOL    HW252447   3.942   8.594   7.500  0.9130  0.0452 -0.8072
16029SOL     OW52448   8.101   1.296   1.505  0.2594 -0.5205  0.2959
16029SOL    HW152449   8.094   1.392   1.505 -0.6239 -0.5753  0.5136
16029SOL    HW252450   8.103   1.273   1.412 -0.3835 -0.3337  0.2267
16030SOL     OW52451   5.654   1.970   8.127 -0.1826  0.1763  0.5023
16030SOL    HW152452   5.707   1.996   8.202  0.9556  0.1861 -0.2757
16030SOL    HW252453   5.718   1.952   8.058 -1.2024  0.2255 -0.4805
16031SOL     OW52454   3.423   9.738   9.468  0.6416  0.3702  0.1776
16031SOL    HW152455   3.343   9.722   9.518 -0.6082 -0.9281 -2.0852
16031SOL    HW252456   3.395   9.792   9.394  2.0190  0.5707 -0.2282
16032SOL     OW52457   8.037   7.720   3.705 -0.3483  0.0184  0.5547
16032SOL    HW152458   8.090   7.720   3.785  0.4929 -1.2775  0.0144
16032SOL    HW252459   8.099   7.736   3.634 -0.7205 -1.0721 -0.0435
16033SOL     OW52460   3.213   6.109   8.450  0.3279 -0.8842 -0.0400
16033SOL    HW152461   3.221   6.180   8.514 -0.8459  0.9803 -1.8355
16033SOL    HW252462   3.150   6.049   8.489  1.9071 -1.4054  1.8571
16034SOL     OW52463   9.097   7.344   5.406 -0.2525 -0.2425 -0.0156
16034SOL    HW152464   9.096   7.432   5.442  0.6686 -0.1828 -0.1045
16034SOL    HW252465   9.164   7.348   5.337 -1.8714 -0.3708 -1.6708
16035SOL     OW52466   8.934   6.202   1.934  0.0652 -0.4525 -0.0329
16035SOL    HW152467   8.972   6.167   2.014 -0.5906  0.2103  0.5802
16035SOL    HW252468   8.854   6.245   1.962  0.8348  1.5476 -0.7292
16036SOL     OW52469   7.080   1.506   5.882  0.4037  0.2760 -0.1696
16036SOL    HW152470   7.058   1.475   5.970 -0.3444  1.7352  0.2024
16036SOL    HW252471   7.155   1.453   5.856 -0.2076 -1.1192  0.7863
16037SOL     OW52472   8.227   7.711   8.075  0.0843 -0.8363  0.1804
16037SOL    HW152473   8.171   7.643   8.113  0.7843 -1.1156  0.7371
16037SOL    HW252474   8.288   7.663   8.019  2.2654 -1.0447  2.5348
16038SOL     OW52475   4.052   1.742   5.456 -0.1139 -0.1097  0.6546
16038SOL    HW152476   4.019   1.696   5.378  1.6085  2.9951 -2.1956
16038SOL    HW252477   4.111   1.680   5.498 -2.1260 -2.3671  0.3334
16039SOL     OW52478  11.015   5.324   2.243 -0.2369  0.3780 -0.0377
16039SOL    HW152479  11.012   5.409   2.200 -0.8999  0.0731 -0.6034
16039SOL    HW252480  11.059   5.341   2.327 -0.0310  1.1992 -0.3049
16040SOL     OW52481   9.140   6.177   3.005 -0.7570 -0.1157 -0.2762
16040SOL    HW152482   9.160   6.083   3.013 -2.0805 -0.3016  1.6218
16040SOL    HW252483   9.097   6.199   3.088 -0.5060  2.1821 -0.6952
16041SOL     OW52484   0.587   2.709   0.482 -0.1677 -0.0173 -0.1110
16041SOL    HW152485   0.519   2.765   0.519 -0.4936 -0.3053 -0.2676
16041SOL    HW252486   0.661   2.718   0.542 -0.8230 -0.7900  0.8459
16042SOL     OW52487   6.058  10.871   9.054 -0.2518 -0.1696  0.4433
16042SOL    HW152488   5.985  10.830   9.007 -1.0782  1.1557  0.5162
16042SOL    HW252489   6.136  10.831   9.016 -0.9859 -2.7743  1.4281
16043SOL     OW52490  10.844   1.770   3.725 -0.1041  0.7410  0.2720
16043SOL    HW152491  10.818   1.784   3.816  0.9819 -0.1407  0.7402
16043SOL    HW252492  10.918   1.828   3.711  1.6408 -1.2126  0.9056
16044SOL     OW52493   7.278   7.578   4.720  0.1888 -0.1682 -0.7745
16044SOL    HW152494   7.369   7.567   4.692  1.1000 -0.6129  2.0362
16044SOL    HW252495   7.284   7.615   4.808 -2.3310 -1.0867 -0.1264
16045SOL     OW52496   5.662   6.961   1.222 -0.0181 -0.1291 -0.3491
16045SOL    HW152497   5.566   6.964   1.231 -0.0557  1.7222 -0.9885
16045SOL    HW252498   5.689   7.052   1.228  1.8748 -0.7338  1.1943
16046SOL     OW52499   1.968   8.027   7.562  0.8636  0.1250 -0.2812
16046SOL    HW152500   1.986   8.112   7.604 -2.8509 -0.0985  2.1825
16046SOL    HW252501   1.986   7.963   7.631 -1.1519 -0.6363 -0.4251
16047SOL     OW52502   6.410   9.773   6.124 -0.5510 -0.4010 -0.0598
16047SOL    HW152503   6.319   9.758   6.098  0.3852 -1.1072 -3.3799
16047SOL    HW252504   6.423   9.714   6.199 -2.8830  0.0830  0.8281
16048SOL     OW52505  10.165   0.952   7.770 -0.2373 -0.3204 -0.1319
16048SOL    HW152506  10.079   0.992   7.758 -0.3776 -0.8820 -1.0987
16048SOL    HW252507  10.222   1.025   7.793 -0.4302  0.5280 -2.1499
16049SOL     OW52508   5.712   9.900   5.397 -0.1154  0.4554  0.3766
16049SOL    HW152509   5.697   9.965   5.329 -0.2443  0.3822  0.3330
16049SOL    HW252510   5.625   9.883   5.434  0.1107  1.4342  1.4414
16050SOL     OW52511   8.712   7.378   7.371 -0.3468 -0.1971 -0.6394
16050SOL    HW152512   8.737   7.286   7.380 -1.0527 -0.3918 -0.5966
16050SOL    HW252513   8.783   7.417   7.320  0.6254 -0.4522  0.4889
16051SOL     OW52514   1.118   4.643   4.927  0.2371  0.0180 -0.1627
16051SOL    HW152515   1.069   4.718   4.893 -1.6778 -1.6830 -1.4684
16051SOL    HW252516   1.167   4.610   4.852 -2.2445 -2.4308 -0.8722
16052SOL     OW52517   5.843   4.930   3.962 -0.0099 -0.3737  0.1114
16052SOL    HW152518   5.748   4.932   3.951  0.0762  1.2226 -0.7732
16052SOL    HW252519   5.875   4.887   3.883  0.0057 -0.6982  0.2966
16053SOL     OW52520   0.255   2.984   8.476 -0.2568  0.2195 -0.1270
16053SOL    HW152521   0.190   3.040   8.433 -1.3748  0.6942  2.0677
16053SOL    HW252522   0.294   2.934   8.404 -0.0731  2.8926 -2.0278
16054SOL     OW52523   5.095   3.512   7.632 -0.5313  0.8184 -0.1685
16054SOL    HW152524   5.108   3.546   7.543 -2.3002 -0.2516 -0.8764
16054SOL    HW252525   5.063   3.587   7.682 -1.2616  0.9921 -0.8847
16055SOL     OW52526   3.235   6.609   2.244  0.1849  0.2553  0.4049
16055SOL    HW152527   3.328   6.587   2.242 -0.1330 -1.7650  2.8830
16055SOL    HW252528   3.199   6.567   2.166  1.3452  1.2291 -0.6885
16056SOL     OW52529   4.581   2.688   3.518  0.1153  0.0652 -0.0128
16056SOL    HW152530   4.611   2.638   3.595  0.3512  2.8385  1.8509
16056SOL    HW252531   4.646   2.670   3.451  1.7957  0.0823  1.5305
16057SOL     OW52532   6.934  10.429   9.332  0.3541 -0.3542  0.0920
16057SOL    HW152533   6.958  10.415   9.241 -0.0757 -0.5853  0.0082
16057SOL    HW252534   7.015  10.417   9.381  0.4409 -0.9643 -0.1916
16058SOL     OW52535   7.901   7.451   5.093 -0.1645  0.0792 -0.1667
16058SOL    HW152536   7.951   7.397   5.155  0.2948  1.0633  0.3393
16058SOL    HW252537   7.811   7.445   5.124  0.0458  0.4626  0.5184
16059SOL     OW52538   3.232  10.864   5.899 -0.4507  0.1635  0.7016
16059SOL    HW152539   3.219  10.858   5.804 -0.9443 -0.7562  0.8202
16059SOL    HW252540   3.264  10.953   5.913 -0.6509  0.4039 -0.2978
16060SOL     OW52541   8.643   5.930  10.139 -0.6151  0.6251  0.2165
16060SOL    HW152542   8.619   5.991  10.070 -1.3798  0.3362  0.2199
16060SOL    HW252543   8.613   5.845  10.107 -1.5542  0.5785  1.1749
16061SOL     OW52544   4.159   8.297   0.233  0.2364 -0.0746 -0.2062
16061SOL    HW152545   4.183   8.381   0.272  0.5152  0.1862 -0.9270
16061SOL    HW252546   4.146   8.239   0.308  1.4435  0.2312  0.2657
16062SOL     OW52547   4.070   0.103   5.249 -0.2207  0.3241 -0.1875
16062SOL    HW152548   4.043   0.152   5.172 -0.9010 -0.0312 -0.1877
16062SOL    HW252549   4.045   0.013   5.230 -1.3234  0.3817  0.8381
16063SOL     OW52550   3.409   5.507   9.252  0.5916 -0.4025 -0.8782
16063SOL    HW152551   3.375   5.454   9.180  0.6964 -1.2955 -0.2841
16063SOL    HW252552   3.399   5.452   9.330  0.2756  0.6319 -0.1674
16064SOL     OW52553   4.031   4.309   8.045 -0.3889 -0.3374  0.7092
16064SOL    HW152554   4.102   4.246   8.035  1.3538  1.6479 -0.1928
16064SOL    HW252555   3.976   4.296   7.968  0.8672  0.2737 -0.3341
16065SOL     OW52556   3.637   1.717   3.916 -0.1531 -0.0568  0.8029
16065SOL    HW152557   3.723   1.675   3.906 -0.4235 -0.6041  0.7122
16065SOL    HW252558   3.586   1.682   3.843  0.1857  1.9512 -0.4938
16066SOL     OW52559   5.818  10.264   4.032 -0.0693 -0.1636 -0.4580
16066SOL    HW152560   5.742  10.284   3.978 -1.0227  0.9959  1.2427
16066SOL    HW252561   5.893  10.298   3.982 -0.7285 -0.5863 -1.7692
16067SOL     OW52562   6.775  10.427   3.690  0.0826 -0.1167  0.1828
16067SOL    HW152563   6.746  10.506   3.735 -1.6517  0.4503 -1.7982
16067SOL    HW252564   6.755  10.356   3.751  1.6759  0.8860  1.9991
16068SOL     OW52565   8.092   5.447   9.418  0.5286  0.0366 -0.4676
16068SOL    HW152566   8.146   5.377   9.381 -1.3153 -1.7254  0.0156
16068SOL    HW252567   8.081   5.424   9.510  0.9457  1.6922  0.0309
16069SOL     OW52568   9.623   6.682   1.969  0.0305  0.5059  0.0781
16069SOL    HW152569   9.714   6.708   1.954 -0.1411  1.8732  1.2087
16069SOL    HW252570   9.613   6.601   1.918  2.0026  0.0692  0.2741
16070SOL     OW52571  10.180   5.552   8.572 -0.0032 -0.1340  0.1021
16070SOL    HW152572  10.179   5.489   8.500  1.6920  1.3513 -1.3072
16070SOL    HW252573  10.176   5.498   8.651 -3.1793 -1.7757 -1.0109
16071SOL     OW52574   7.615  10.679   2.169  0.1041  0.0452  0.0236
16071SOL    HW152575   7.569  10.613   2.220  0.5763  0.6157  1.2108
16071SOL    HW252576   7.699  10.690   2.213  0.4028  0.7730 -0.6996
16072SOL     OW52577   8.549   5.876   0.219  0.3678  0.5262  0.2372
16072SOL    HW152578   8.583   5.850   0.304  0.9522  0.3909 -0.0387
16072SOL    HW252579   8.626   5.904   0.169  0.0136  0.7272 -0.2058
16073SOL     OW52580   5.415   1.052   5.077  0.1521 -0.8944 -0.5636
16073SOL    HW152581   5.423   1.113   5.151  0.0879 -0.6483 -0.7576
16073SOL    HW252582   5.485   0.989   5.090 -0.0296 -1.0114 -0.1406
16074SOL     OW52583   9.608   7.057   0.031 -0.0770 -0.0701  0.5912
16074SOL    HW152584   9.541   6.990   0.021  0.5795 -0.7054  0.3322
16074SOL    HW252585   9.574   7.132  -0.016 -1.1652  0.0492  1.5290
16075SOL     OW52586   2.148   0.824   1.047 -0.8046 -0.0187  0.1488
16075SOL    HW152587   2.084   0.776   1.099 -0.5592  0.9088  1.3713
16075SOL    HW252588   2.232   0.802   1.087 -0.4277 -0.6368 -0.9614
16076SOL     OW52589  10.839  10.671   0.205 -0.0313  0.3622 -0.3302
16076SOL    HW152590  10.834  10.583   0.167  0.1738  0.9801 -1.8511
16076SOL    HW252591  10.924  10.705   0.176  0.6694  0.4537  1.6743
16077SOL     OW52592   1.630   9.045   5.221  0.4110  0.4354  0.1914
16077SOL    HW152593   1.587   9.058   5.136 -0.7148 -1.8845  0.3246
16077SOL    HW252594   1.702   8.984   5.201  0.2988  0.0851  0.8402
16078SOL     OW52595   8.914   5.452   5.420 -0.3654  0.0043 -0.0531
16078SOL    HW152596   8.902   5.358   5.435 -0.3803 -0.0213 -0.2295
16078SOL    HW252597   8.962   5.458   5.338  1.1767  0.0959  0.8073
16079SOL     OW52598  10.571   7.687  10.925 -0.0792  0.0758  0.0126
16079SOL    HW152599  10.489   7.720  10.962 -0.1121  0.1068 -0.0860
16079SOL    HW252600  10.548   7.659  10.837 -0.1375 -0.6049  0.2401
16080SOL     OW52601   9.180   9.055   4.535 -0.9286 -0.0144 -0.0032
16080SOL    HW152602   9.254   9.087   4.484 -0.7664 -0.0313  0.2185
16080SOL    HW252603   9.184   8.959   4.525 -1.1265  0.0077 -0.2751
16081SOL     OW52604   4.822   0.115   2.673 -0.2609  0.1806 -0.0610
16081SOL    HW152605   4.889   0.085   2.611 -0.2783 -0.1301  0.0656
16081SOL    HW252606   4.860   0.192   2.714  0.1232 -0.1287  0.1792
16082SOL     OW52607   4.726   0.785   8.503  0.2099  0.2241 -0.0419
16082SOL    HW152608   4.688   0.705   8.467  0.1002 -0.0438  0.6391
16082SOL    HW252609   4.690   0.856   8.450 -0.2920 -0.1249 -0.1675
16083SOL     OW52610   0.587   6.549   7.259  0.5717  0.6180 -0.5563
16083SOL    HW152611   0.668   6.525   7.213 -0.3382  1.4403 -2.7197
16083SOL    HW252612   0.577   6.481   7.326  3.9924  1.5119  1.1354
16084SOL     OW52613   4.430   6.141   9.359  0.0699  0.0968  0.7904
16084SOL    HW152614   4.376   6.212   9.394  0.6587  0.5470  0.8131
16084SOL    HW252615   4.473   6.104   9.436 -1.6785 -1.5772  1.0425
16085SOL     OW52616   2.138   7.591   3.806 -0.1743 -0.3152 -0.4473
16085SOL    HW152617   2.221   7.598   3.852 -0.2540  0.3999 -0.3966
16085SOL    HW252618   2.160   7.549   3.723  0.1169 -0.7745 -0.1436
16086SOL     OW52619   8.942  10.999   2.298  0.6689  0.1607  0.1948
16086SOL    HW152620   8.991  10.952   2.232  1.2901  0.4141  0.4650
16086SOL    HW252621   8.977  11.088   2.296 -1.4739  1.0590 -1.3299
16087SOL     OW52622  10.129   4.146   8.832 -0.0799  0.6986 -0.1364
16087SOL    HW152623  10.099   4.142   8.922  1.3884 -2.7455  0.3440
16087SOL    HW252624  10.081   4.220   8.794 -1.4425  1.6837  3.1398
16088SOL     OW52625   0.705   7.573   5.077 -0.4064  0.0972 -0.2126
16088SOL    HW152626   0.672   7.643   5.132  0.7305  1.7628 -1.5194
16088SOL    HW252627   0.629   7.518   5.057 -1.5520  1.5718 -0.0028
16089SOL     OW52628   9.578   1.782   0.714  0.0626  0.0156  0.5569
16089SOL    HW152629   9.519   1.707   0.714  0.0346  0.0337  0.2277
16089SOL    HW252630   9.580   1.811   0.805  0.1432 -0.4364  0.7036
16090SOL     OW52631   9.503   4.459   2.223 -0.4712 -0.0770  0.0107
16090SOL    HW152632   9.579   4.517   2.221 -0.0898 -0.5844 -0.5585
16090SOL    HW252633   9.431   4.515   2.254  0.2143  0.2961  0.9772
16091SOL     OW52634   6.408   4.533   5.089  0.3562  0.6375 -0.3223
16091SOL    HW152635   6.380   4.506   5.001 -0.2136  0.6614 -0.1546
16091SOL    HW252636   6.420   4.451   5.136  2.5878  0.5332 -0.9724
16092SOL     OW52637   7.275   2.734   1.194  0.6795  0.5871  0.0313
16092SOL    HW152638   7.235   2.752   1.110  1.5756  0.1500 -0.5034
16092SOL    HW252639   7.207   2.692   1.246 -0.2880  2.0503  0.0030
16093SOL     OW52640   6.051   3.901   9.358  0.1398  0.1229 -0.6468
16093SOL    HW152641   6.141   3.888   9.388  0.3458 -1.1866 -1.7051
16093SOL    HW252642   6.060   3.934   9.269 -0.3035 -3.1576 -2.0519
16094SOL     OW52643   4.714   2.438   7.912  0.1027  0.3696  0.4305
16094SOL    HW152644   4.705   2.358   7.964  1.8180 -0.4836 -0.4896
16094SOL    HW252645   4.713   2.408   7.821 -2.8675  1.8398 -0.1389
16095SOL     OW52646   8.619   9.664   2.027  0.4888 -0.1932 -0.7305
16095SOL    HW152647   8.640   9.697   2.115 -1.5317  1.9342 -0.9524
16095SOL    HW252648   8.539   9.613   2.039  0.3480 -0.1099 -1.3123
16096SOL     OW52649   1.982   8.445   2.280  0.2472 -0.2183  0.2025
16096SOL    HW152650   1.933   8.527   2.290  0.2216 -0.2242  0.1249
16096SOL    HW252651   1.917   8.376   2.294  0.0794 -0.2333 -0.5876
16097SOL     OW52652   1.181  10.295   2.555 -0.6395  0.0707  0.2285
16097SOL    HW152653   1.096  10.330   2.528 -1.6770 -1.3097  1.5499
16097SOL    HW252654   1.173  10.200   2.543  0.8174 -0.0579  0.1186
16098SOL     OW52655   5.463   9.664  10.122 -0.2075 -0.2565 -0.1312
16098SOL    HW152656   5.382   9.665  10.069  0.4964 -0.8590 -1.2575
16098SOL    HW252657   5.435   9.634  10.208 -1.2154 -0.3364 -0.4707
16099SOL     OW52658   1.209   2.714   2.469  0.6337 -0.2971 -0.2945
16099SOL    HW152659   1.277   2.701   2.534  0.2467  0.1660  0.2120
16099SOL    HW252660   1.183   2.626   2.443  0.3150 -0.4999  0.6810
16100SOL     OW52661   3.645   0.955   3.054 -0.4751  0.1938  0.1894
16100SOL    HW152662   3.732   0.920   3.033 -1.0577 -2.1951  1.3339
16100SOL    HW252663   3.660   1.010   3.131  0.0761  0.0260  0.2089
16101SOL     OW52664   0.281  10.583   5.234 -0.1844  0.4675 -0.7720
16101SOL    HW152665   0.296  10.531   5.154  1.2976  0.4427 -0.5145
16101SOL    HW252666   0.368  10.589   5.274 -1.0020 -0.0541  1.1800
16102SOL     OW52667   7.157   7.211   6.723  0.1525  0.7297 -0.0237
16102SOL    HW152668   7.166   7.303   6.699 -0.9794  1.0167  0.5496
16102SOL    HW252669   7.094   7.212   6.796 -1.4062 -0.6530 -1.2739
16103SOL     OW52670   7.617   4.442   3.114 -0.6929 -0.1142  0.0218
16103SOL    HW152671   7.626   4.520   3.060 -1.1352  0.8350  1.2595
16103SOL    HW252672   7.576   4.378   3.057 -2.5533  1.3371 -0.3896
16104SOL     OW52673   3.992   0.891   0.776 -0.1416 -0.2096  0.2610
16104SOL    HW152674   4.043   0.947   0.835 -1.6645  0.1123  1.3356
16104SOL    HW252675   3.984   0.941   0.696  1.7216 -0.5280 -0.1901
16105SOL     OW52676   5.138   9.064   5.924  0.5111  0.5796  0.1343
16105SOL    HW152677   5.133   9.008   6.001  2.7710  1.0738  0.7363
16105SOL    HW252678   5.140   9.004   5.850  4.8458 -0.4722  0.8287
16106SOL     OW52679  10.011   6.181   5.416 -0.0651 -0.7899  0.5407
16106SOL    HW152680   9.983   6.267   5.448  1.2539 -0.2522  0.3207
16106SOL    HW252681   9.969   6.173   5.330  1.6169  0.7086 -0.4985
16107SOL     OW52682   5.134   9.375   4.147 -0.1992  0.0586  0.0130
16107SOL    HW152683   5.097   9.290   4.121 -0.8301  0.2739  0.2002
16107SOL    HW252684   5.217   9.380   4.099 -0.3489 -0.4815 -0.3167
16108SOL     OW52685   1.965   8.111   4.288 -0.0180  0.0305  0.1887
16108SOL    HW152686   1.936   8.170   4.219  1.6380  0.8926  0.1953
16108SOL    HW252687   2.038   8.156   4.330 -0.0193 -1.1413  1.5301
16109SOL     OW52688  10.986   8.010   3.930 -0.7330  0.4520 -0.0583
16109SOL    HW152689  10.966   8.102   3.912 -1.2209  0.4150  0.2886
16109SOL    HW252690  10.996   7.970   3.844  0.6864  1.0831 -0.2219
16110SOL     OW52691  10.937   9.344   4.157  0.1629 -0.0583  0.0668
16110SOL    HW152692  11.017   9.361   4.106  0.5622  0.9181  0.9913
16110SOL    HW252693  10.866   9.363   4.096  0.6315 -0.3191 -0.5727
16111SOL     OW52694   6.789  10.690   4.709 -0.1816  0.0680  0.0810
16111SOL    HW152695   6.767  10.655   4.622  0.3105 -1.9440  0.7074
16111SOL    HW252696   6.705  10.689   4.755  0.1089 -2.2613  0.6953
16112SOL     OW52697   3.523   8.957   8.592 -0.5161 -0.0995  0.1737
16112SOL    HW152698   3.542   8.864   8.580  0.5217  0.3419 -2.3740
16112SOL    HW252699   3.599   8.992   8.638  0.0442 -0.1916 -0.6578
16113SOL     OW52700   7.103   1.957   0.691 -0.1519  0.0221 -0.9085
16113SOL    HW152701   7.070   2.028   0.636  0.0491  0.4364 -0.5035
16113SOL    HW252702   7.101   1.880   0.635  2.9309  0.9669 -2.5622
16114SOL     OW52703   9.187   4.468  10.331 -0.2146  0.1324 -0.0000
16114SOL    HW152704   9.158   4.377  10.335 -0.4732  0.2547  1.7650
16114SOL    HW252705   9.231   4.483  10.415 -0.4431  1.7132 -0.1342
16115SOL     OW52706   6.695   8.018   3.572 -0.1649 -0.4771 -0.0757
16115SOL    HW152707   6.683   7.938   3.622 -1.4982 -0.0005  0.4216
16115SOL    HW252708   6.637   8.081   3.614 -0.1123  0.3838 -1.2493
16116SOL     OW52709   3.428   3.733  10.740 -0.0894  0.2034  0.0128
16116SOL    HW152710   3.365   3.678  10.787  0.2925  0.4535  0.8363
16116SOL    HW252711   3.412   3.821  10.773  0.8381  0.2347  0.3872
16117SOL     OW52712   7.927   2.240   9.621 -0.1851  0.0760  0.3427
16117SOL    HW152713   8.003   2.213   9.672  0.0649  0.9794  0.4732
16117SOL    HW252714   7.931   2.186   9.542  0.0092 -0.5985  0.8033
16118SOL     OW52715  10.547   1.676   8.797  0.1462 -0.1797 -0.2138
16118SOL    HW152716  10.469   1.670   8.853 -0.2337  0.1760 -0.6933
16118SOL    HW252717  10.585   1.761   8.817 -0.8393  0.6220 -1.5532
16119SOL     OW52718   2.728   5.610   8.396  0.1461 -0.2180 -0.1424
16119SOL    HW152719   2.670   5.675   8.435 -1.0816 -1.6816  0.5773
16119SOL    HW252720   2.740   5.544   8.464  2.9710  0.1448 -0.1389
16120SOL     OW52721   3.650   7.229   4.845  0.5605  0.4537  0.1209
16120SOL    HW152722   3.697   7.161   4.796 -2.3729 -2.8547  1.4936
16120SOL    HW252723   3.575   7.251   4.790  0.0950  0.6218  0.8129
16121SOL     OW52724   9.713   2.177   3.714  0.5908 -0.3916 -0.2184
16121SOL    HW152725   9.741   2.091   3.745  0.3527 -1.3748 -2.5086
16121SOL    HW252726   9.779   2.238   3.748  1.9209 -1.7709 -0.2163
16122SOL     OW52727   6.471   1.343  10.709 -0.0210 -0.2494  0.7686
16122SOL    HW152728   6.416   1.353  10.632  2.2195 -1.3055 -1.0695
16122SOL    HW252729   6.482   1.432  10.742  1.8421  0.8172 -2.3071
16123SOL     OW52730   9.638   9.312   6.378  0.0978  0.6151  0.6267
16123SOL    HW152731   9.643   9.386   6.440 -2.7925  1.1476  0.4125
16123SOL    HW252732   9.599   9.241   6.430  0.8052 -0.0589  0.2513
16124SOL     OW52733   0.619   3.504   8.277  0.4466  0.2266 -0.4205
16124SOL    HW152734   0.545   3.551   8.237 -0.3149  0.8741  1.6321
16124SOL    HW252735   0.578   3.437   8.331  1.4263 -0.4018 -0.4458
16125SOL     OW52736  10.991   7.370   8.306 -0.1080 -0.4928  1.1819
16125SOL    HW152737  10.936   7.292   8.313  0.2241 -0.6658  1.8524
16125SOL    HW252738  11.054   7.362   8.377  0.4602 -0.0308  0.7442
16126SOL     OW52739   8.485   7.894   0.898  1.2455  0.2934  0.2628
16126SOL    HW152740   8.556   7.956   0.913 -0.5633  2.3145  1.1335
16126SOL    HW252741   8.415   7.947   0.859  0.9991 -2.0991 -2.9945
16127SOL     OW52742   1.399   6.873   9.104  0.3293 -0.5483  0.2982
16127SOL    HW152743   1.374   6.928   9.178 -0.4959 -1.2456  0.5595
16127SOL    HW252744   1.442   6.932   9.043 -0.9711  0.4863  0.3379
16128SOL     OW52745  10.248  10.767   6.210  0.5750 -0.1645 -0.1333
16128SOL    HW152746  10.279  10.858   6.207  1.5314 -0.4832 -0.1382
16128SOL    HW252747  10.255  10.742   6.302 -0.3366 -0.0265 -0.0145
16129SOL     OW52748  11.052   9.384   7.062  1.2963 -0.2688  0.3980
16129SOL    HW152749  10.974   9.398   7.009  1.9661 -2.3938 -1.2979
16129SOL    HW252750  11.018   9.362   7.149  0.1611  2.3982  0.7395
16130SOL     OW52751   2.078   1.353   4.689  0.3688 -0.0316  0.0855
16130SOL    HW152752   2.162   1.393   4.667 -0.6458  1.5348 -1.2601
16130SOL    HW252753   2.099   1.283   4.750  2.5480  0.8588  0.4357
16131SOL     OW52754   0.653   4.315   0.297 -0.2683 -0.2819  0.6394
16131SOL    HW152755   0.706   4.311   0.377  0.2035  0.9572  0.4093
16131SOL    HW252756   0.586   4.380   0.316 -0.2646 -0.1161  0.0814
16132SOL     OW52757   3.613   4.344   9.089  0.2360 -0.0109  0.1895
16132SOL    HW152758   3.625   4.344   8.995  1.1843  1.4394  0.2837
16132SOL    HW252759   3.661   4.420   9.120  0.6129 -0.8962  1.9359
16133SOL     OW52760   7.485   8.410   4.420 -0.0635  0.0591  0.1843
16133SOL    HW152761   7.392   8.391   4.408  0.2848 -2.1606  0.5409
16133SOL    HW252762   7.530   8.349   4.362  1.1964  1.3647 -0.2721
16134SOL     OW52763   9.685   2.547   2.583  0.7033  0.5767 -0.1395
16134SOL    HW152764   9.691   2.533   2.678  0.3955  0.7492 -0.0942
16134SOL    HW252765   9.776   2.556   2.554  0.7952  0.5762  0.1478
16135SOL     OW52766   7.589   5.127   2.510 -0.2579 -0.1492  0.2886
16135SOL    HW152767   7.643   5.061   2.554 -0.5960 -0.2639  0.5312
16135SOL    HW252768   7.504   5.121   2.552 -0.7196 -0.5655 -0.6735
16136SOL     OW52769   4.629   3.107   2.921  0.5526  0.1662 -0.2755
16136SOL    HW152770   4.549   3.092   2.972  1.5381 -1.0195  0.9990
16136SOL    HW252771   4.632   3.034   2.859 -0.0302  0.9665 -1.2900
16137SOL     OW52772   2.299   9.461   0.584 -0.3355 -0.3387  0.6021
16137SOL    HW152773   2.375   9.451   0.526  0.3810 -0.7117  1.5762
16137SOL    HW252774   2.227   9.484   0.525  0.6954  0.8227 -0.2453
16138SOL     OW52775   0.986   0.688   8.874 -0.0214  0.3681  0.7212
16138SOL    HW152776   0.970   0.641   8.792  2.2629  1.1916 -0.3061
16138SOL    HW252777   1.064   0.646   8.910  1.1916  2.3405  0.5328
16139SOL     OW52778   0.922   5.426   0.469 -0.8904  0.2878 -0.5836
16139SOL    HW152779   0.863   5.487   0.512 -1.5475 -1.1369  0.5975
16139SOL    HW252780   1.010   5.460   0.488 -1.1961  0.0725  1.3131
16140SOL     OW52781   4.466   8.788   6.012 -0.1936 -0.2874  0.2067
16140SOL    HW152782   4.456   8.776   5.918  0.4789  1.6299 -0.1531
16140SOL    HW252783   4.380   8.766   6.048 -0.8240  0.1359 -0.9928
16141SOL     OW52784  11.015   4.595   6.391  0.4889  0.1252  0.1822
16141SOL    HW152785  11.037   4.505   6.365  0.3673 -0.3182  1.5405
16141SOL    HW252786  10.944   4.620   6.332  0.0533 -0.9369  0.2313
16142SOL     OW52787   7.168   7.916   3.601  0.1609 -0.3485 -0.2140
16142SOL    HW152788   7.162   7.834   3.649  0.5158  1.1009  2.5199
16142SOL    HW252789   7.103   7.973   3.643  2.1042  1.7296  0.1285
16143SOL     OW52790   5.076   2.174   7.749  0.2472 -0.2242  0.2138
16143SOL    HW152791   5.016   2.107   7.718 -0.3048 -1.3625  3.3789
16143SOL    HW252792   5.058   2.250   7.693 -0.7061 -1.9832 -1.9970
16144SOL     OW52793   7.950   4.563  10.740  0.4618  0.4872 -0.1869
16144SOL    HW152794   7.975   4.656  10.734  1.4003  0.3069  0.7418
16144SOL    HW252795   7.898   4.557  10.820  1.0705  0.0822  0.1877
16145SOL     OW52796  11.025   7.999   9.301  0.0004 -0.0737  0.3343
16145SOL    HW152797  11.015   7.943   9.224 -0.2785 -1.7914  1.5519
16145SOL    HW252798  11.119   8.015   9.307  0.0161  0.1388 -0.3949
16146SOL     OW52799   8.270   1.113   3.524  0.4891 -0.5321  0.0412
16146SOL    HW152800   8.232   1.110   3.612  0.4380  0.6770  0.0787
16146SOL    HW252801   8.346   1.055   3.529  0.0473 -1.0782  0.6577
16147SOL     OW52802  11.001   7.329  10.103 -0.1099  0.2192  1.3196
16147SOL    HW152803  11.085   7.289  10.126  0.6297  0.4129 -0.7928
16147SOL    HW252804  11.025   7.416  10.069 -0.9664 -0.2976 -0.7612
16148SOL     OW52805   8.413   9.002   7.136 -0.4345  0.8705  0.9577
16148SOL    HW152806   8.462   8.924   7.162  0.5598  1.5112  1.0473
16148SOL    HW252807   8.447   9.071   7.192 -0.4647  1.6251  0.0661
16149SOL     OW52808   0.945   9.100   0.918  0.5274 -0.2519  0.3015
16149SOL    HW152809   0.939   9.196   0.922  0.4471 -0.2345 -0.2325
16149SOL    HW252810   0.854   9.071   0.904  0.7424 -0.3290 -0.9920
16150SOL     OW52811   0.575   6.591   8.764 -0.3147  0.7632 -0.0211
16150SOL    HW152812   0.594   6.682   8.786 -2.3196  1.3253 -0.3886
16150SOL    HW252813   0.613   6.577   8.677 -1.5501  1.8314 -0.7553
16151SOL     OW52814   0.511   2.236   1.286 -1.1202 -0.2956 -0.1702
16151SOL    HW152815   0.550   2.183   1.216  0.2367 -2.9705  2.3912
16151SOL    HW252816   0.576   2.304   1.303 -0.7950 -0.4978 -0.5756
16152SOL     OW52817   3.433   4.718   5.824 -0.3183 -0.2273 -0.2805
16152SOL    HW152818   3.504   4.719   5.760  1.0274  0.2971  1.1493
16152SOL    HW252819   3.388   4.801   5.813 -0.6275 -0.4895 -1.0772
16153SOL     OW52820   7.012   0.094   4.583  0.1386  0.5482 -0.2575
16153SOL    HW152821   7.095   0.085   4.535  0.4816  3.5822 -0.4259
16153SOL    HW252822   7.014   0.023   4.647  2.0964 -0.4608 -1.3411
16154SOL     OW52823   2.550   6.644   9.235  0.5676 -0.0785  0.0736
16154SOL    HW152824   2.466   6.689   9.245  1.3405  1.0871  1.9957
16154SOL    HW252825   2.584   6.675   9.151  0.5294  2.1337  0.7977
16155SOL     OW52826   2.121   6.977   4.974 -0.1867  0.5933 -0.0958
16155SOL    HW152827   2.042   6.934   5.007 -0.0483  0.6978  0.3743
16155SOL    HW252828   2.091   7.028   4.899 -0.6806  1.1252  0.4578
16156SOL     OW52829   1.035   0.075   2.968  0.2613 -0.4792 -0.2433
16156SOL    HW152830   0.986   0.096   2.888 -1.9735 -0.5752  1.0293
16156SOL    HW252831   1.014   0.146   3.028  0.6397 -1.2202  0.7781
16157SOL     OW52832   0.725   0.900   4.703  0.1115 -0.6793  0.0370
16157SOL    HW152833   0.786   0.959   4.658 -0.6516  0.3924  0.3866
16157SOL    HW252834   0.707   0.831   4.639 -1.9392  1.4695 -1.8693
16158SOL     OW52835   9.301   6.617   4.859  0.3571  0.3333  0.6430
16158SOL    HW152836   9.244   6.666   4.801 -0.1376 -1.3107 -0.3206
16158SOL    HW252837   9.389   6.651   4.841  0.1730  0.0750 -0.8526
16159SOL     OW52838   7.494   3.602  10.873 -0.2013  0.0545 -0.1991
16159SOL    HW152839   7.462   3.513  10.885 -0.0816  0.0759  0.3148
16159SOL    HW252840   7.499   3.614  10.778 -0.7554 -0.2908 -0.2728
16160SOL     OW52841   3.294   8.162   3.130 -0.2968 -0.1609 -0.0744
16160SOL    HW152842   3.353   8.232   3.158 -0.3761 -0.2452  0.3120
16160SOL    HW252843   3.255   8.194   3.048  0.4736 -0.2172 -0.4703
16161SOL     OW52844   0.934   5.699   5.814 -0.3800 -0.0959  0.3711
16161SOL    HW152845   0.998   5.764   5.842  0.8950 -0.7733 -0.8446
16161SOL    HW252846   0.905   5.730   5.728 -2.7465  0.9158  1.4661
16162SOL     OW52847   9.474   8.427   9.178 -0.1476  0.2583  0.0042
16162SOL    HW152848   9.421   8.442   9.100  0.0977  0.0846 -0.1958
16162SOL    HW252849   9.486   8.332   9.181  2.3734  0.4391 -1.4385
16163SOL     OW52850   2.378   8.797   9.677 -0.5738  0.5356 -0.7504
16163SOL    HW152851   2.461   8.845   9.673 -0.1535 -0.1096 -0.0838
16163SOL    HW252852   2.364   8.764   9.589  0.5365 -0.4195 -0.5919
16164SOL     OW52853   4.656   1.372   0.681  0.2101 -0.4346 -0.3637
16164SOL    HW152854   4.634   1.391   0.590 -1.2355  0.7652  0.1952
16164SOL    HW252855   4.610   1.290   0.700  0.1987 -0.4849 -0.6068
16165SOL     OW52856   6.301   4.025   1.583  0.3024 -0.1338 -0.6268
16165SOL    HW152857   6.395   4.041   1.582  0.5825 -1.4889  0.8108
16165SOL    HW252858   6.265   4.094   1.638  0.5296 -0.0397 -0.5958
16166SOL     OW52859   1.430   1.849   4.111  0.0573 -0.5915  0.4014
16166SOL    HW152860   1.363   1.801   4.160 -0.2970 -1.1556 -0.6093
16166SOL    HW252861   1.445   1.928   4.162 -2.6732  0.4375 -0.2023
16167SOL     OW52862   1.223   4.165   4.862  0.7616  0.1882  0.3399
16167SOL    HW152863   1.213   4.104   4.936  0.2398  0.2912  0.3584
16167SOL    HW252864   1.183   4.120   4.788  0.8531  0.2886  0.2287
16168SOL     OW52865  10.600   7.510   5.256 -0.4538  0.3559  0.4719
16168SOL    HW152866  10.522   7.500   5.201 -1.1970 -0.1671  1.5878
16168SOL    HW252867  10.669   7.535   5.195 -1.4199  0.5143 -0.5895
16169SOL     OW52868   3.917   9.702   7.062 -0.2236  0.8406 -0.8047
16169SOL    HW152869   3.843   9.679   7.007 -1.9394 -1.3335  2.0948
16169SOL    HW252870   3.983   9.634   7.043 -0.6752  0.2949 -0.4511
16170SOL     OW52871   8.822   0.373   2.196  0.2753 -0.3456  0.3832
16170SOL    HW152872   8.793   0.391   2.106 -0.5967 -1.4600  0.4291
16170SOL    HW252873   8.918   0.382   2.192  0.1719  0.5205 -0.4360
16171SOL     OW52874   0.945   1.295   8.947  0.4015  0.3094  0.3503
16171SOL    HW152875   0.968   1.334   8.863 -0.4551 -0.5549 -0.2918
16171SOL    HW252876   0.947   1.201   8.932 -2.2348  0.1408  0.5804
16172SOL     OW52877   6.357   4.223   9.217  0.0518 -0.1706 -0.3203
16172SOL    HW152878   6.403   4.278   9.153  0.6755 -1.8408 -1.3930
16172SOL    HW252879   6.348   4.138   9.173 -1.6398 -0.6983  0.9314
16173SOL     OW52880   5.937   2.269   7.401  0.4779  0.1491 -0.8661
16173SOL    HW152881   6.020   2.230   7.429 -0.1495 -0.8824 -0.4080
16173SOL    HW252882   5.887   2.196   7.363 -0.0147  0.8646 -1.6295
16174SOL     OW52883   3.333   0.308   2.379 -0.7340 -0.3630 -0.2333
16174SOL    HW152884   3.329   0.275   2.469  1.4085 -0.9226 -0.2748
16174SOL    HW252885   3.376   0.393   2.387 -0.3936 -0.4825 -0.7159
16175SOL     OW52886   0.717   3.539   2.116  0.2225 -0.3106 -0.4804
16175SOL    HW152887   0.680   3.554   2.029 -0.1415  1.9012  0.0027
16175SOL    HW252888   0.641   3.536   2.174  0.5562 -0.0083 -0.0196
16176SOL     OW52889   4.281  10.408   5.766 -0.0217 -0.0111  0.1174
16176SOL    HW152890   4.327  10.480   5.809  0.0409 -1.1779  2.0914
16176SOL    HW252891   4.338  10.332   5.779 -1.3971 -0.9952  0.5876
16177SOL     OW52892   1.129  10.053   8.332  0.0771 -0.1268 -0.0637
16177SOL    HW152893   1.101  10.123   8.390  0.0071 -0.4534  0.3064
16177SOL    HW252894   1.070  10.058   8.257  2.1519  2.3348 -1.6778
16178SOL     OW52895   9.885   2.714   4.637 -0.0092  0.0197  0.2432
16178SOL    HW152896   9.887   2.809   4.651 -1.5490 -0.0397  1.0825
16178SOL    HW252897   9.828   2.702   4.560  0.6307 -0.2036 -0.2025
16179SOL     OW52898   5.952   8.962  11.067 -0.4547  0.5152 -0.0235
16179SOL    HW152899   6.042   8.936  11.046 -0.1382  1.4410  0.1584
16179SOL    HW252900   5.943   8.943  11.160 -0.2102  1.1018  0.1191
16180SOL     OW52901   4.834   2.474   5.675  0.4847 -0.1130  0.3954
16180SOL    HW152902   4.751   2.499   5.633 -0.0116  1.0815  1.9748
16180SOL    HW252903   4.808   2.414   5.744  1.1126 -0.8420  0.0060
16181SOL     OW52904   0.607   3.625   3.182  0.4061 -0.4098 -0.1918
16181SOL    HW152905   0.616   3.533   3.157  1.1541 -0.2294 -0.6324
16181SOL    HW252906   0.548   3.624   3.257 -0.6798 -1.1224 -1.0225
16182SOL     OW52907   8.433   0.326   1.781  0.0921  0.6350  0.1418
16182SOL    HW152908   8.495   0.259   1.810  0.1656  0.5226 -0.2678
16182SOL    HW252909   8.432   0.390   1.852  2.8913  2.1630 -1.0680
16183SOL     OW52910   1.246   2.994   1.941 -0.0541 -0.0648 -0.0786
16183SOL    HW152911   1.261   2.926   2.007 -0.4808 -0.7285 -0.6594
16183SOL    HW252912   1.211   3.067   1.991  1.0233 -0.0164  0.6543
16184SOL     OW52913   1.642   1.940   6.147  0.0914  0.5289 -0.1111
16184SOL    HW152914   1.585   1.882   6.096  0.3105  2.0420 -2.2360
16184SOL    HW252915   1.591   1.962   6.225 -0.3117 -1.8019  0.3541
16185SOL     OW52916   1.893   3.892   8.123  0.3171  0.0284 -0.4730
16185SOL    HW152917   1.849   3.812   8.153 -1.6487  1.0205 -0.5126
16185SOL    HW252918   1.936   3.926   8.201  0.7699 -0.7969 -0.3465
16186SOL     OW52919   1.395   1.074   4.987  0.0239  0.4563 -0.0611
16186SOL    HW152920   1.485   1.106   4.995  0.1442 -0.1308  1.2796
16186SOL    HW252921   1.392   1.030   4.902 -0.1471  3.9075 -2.0045
16187SOL     OW52922   9.531   7.488   9.714 -0.6725  0.0160 -0.0053
16187SOL    HW152923   9.438   7.482   9.695 -1.1053 -0.6358  2.0522
16187SOL    HW252924   9.548   7.416   9.774  1.2742 -0.1505 -0.6800
16188SOL     OW52925   6.093   0.034  10.273  0.1576 -0.0506  0.2267
16188SOL    HW152926   6.110   0.117  10.228  0.9069 -0.3738 -0.1058
16188SOL    HW252927   6.128   0.046  10.360  0.9797 -0.2810 -0.0666
16189SOL     OW52928   0.766   3.337   7.595 -0.7473  0.3998 -0.7479
16189SOL    HW152929   0.687   3.317   7.645 -0.0519  1.9848  1.0781
16189SOL    HW252930   0.836   3.294   7.643 -0.1570  1.2694 -0.8237
16190SOL     OW52931  10.033   6.148   3.056  0.3659  0.2101 -0.5525
16190SOL    HW152932  10.073   6.130   2.970 -1.5849  0.2439 -1.5066
16190SOL    HW252933  10.053   6.070   3.108  0.4066 -0.4260 -1.4883
16191SOL     OW52934  10.156   8.332   3.625  0.0382 -0.3673  0.4312
16191SOL    HW152935  10.146   8.330   3.530 -2.5043  0.2334  0.6109
16191SOL    HW252936  10.171   8.424   3.646  1.4831 -0.6106  0.5952
16192SOL     OW52937   5.741   3.646  10.347  0.0243  0.0315 -0.7932
16192SOL    HW152938   5.792   3.706  10.401 -0.5410 -0.2766  0.1034
16192SOL    HW252939   5.762   3.672  10.257  0.3992  1.0548 -0.4320
16193SOL     OW52940   6.915   7.805   7.946  0.3774  0.6470 -0.3097
16193SOL    HW152941   6.849   7.781   7.882 -0.6385 -0.4654  1.0792
16193SOL    HW252942   6.972   7.867   7.901  0.1388 -0.6308 -2.4777
16194SOL     OW52943   1.647  10.307   4.438  0.3466  0.4323 -0.0234
16194SOL    HW152944   1.735  10.271   4.424  0.1253  0.1905 -0.8503
16194SOL    HW252945   1.589  10.246   4.393 -0.2874  0.4133  0.7910
16195SOL     OW52946  10.378   1.475   8.911  0.0284  0.0215  0.6963
16195SOL    HW152947  10.347   1.426   8.834  0.8494  1.4742 -0.6245
16195SOL    HW252948  10.299   1.500   8.958 -0.4809 -1.0098  0.4171
16196SOL     OW52949   2.017   6.809   1.884 -0.0111  0.3113 -0.0287
16196SOL    HW152950   1.961   6.779   1.813 -0.3024  0.0869  0.2922
16196SOL    HW252951   2.062   6.885   1.849 -1.3764  1.2062  0.0954
16197SOL     OW52952   3.857   0.042   6.748  0.6163 -0.3909  0.3065
16197SOL    HW152953   3.792  -0.028   6.746  2.0612 -2.0008  3.1161
16197SOL    HW252954   3.889   0.048   6.657 -2.7084 -0.0702 -0.9918
16198SOL     OW52955   2.240   4.814   7.594 -0.4505 -0.9367  0.5761
16198SOL    HW152956   2.330   4.806   7.565 -0.4547  1.0629 -0.1199
16198SOL    HW252957   2.245   4.820   7.690  0.1981 -0.3292  0.5059
16199SOL     OW52958   0.206   9.101   2.650 -0.2561  0.1322  0.7375
16199SOL    HW152959   0.150   9.131   2.722 -0.8870 -0.1606  0.3810
16199SOL    HW252960   0.148   9.101   2.574 -0.8480 -3.5667  0.9850
16200SOL     OW52961   3.936   4.311   8.912 -0.4388 -0.0163  0.1880
16200SOL    HW152962   3.886   4.366   8.972  0.8076  0.2469  1.0181
16200SOL    HW252963   3.970   4.372   8.846  0.9294  0.2340  1.0993
16201SOL     OW52964   8.390   8.101   5.061  0.2416  0.6531  0.3222
16201SOL    HW152965   8.432   8.063   5.138 -0.4541 -2.7113 -0.7765
16201SOL    HW252966   8.296   8.101   5.083  0.2640  2.6160  0.5754
16202SOL     OW52967  10.120   7.436   0.745  0.4001  0.8390 -0.0553
16202SOL    HW152968  10.109   7.434   0.650 -0.2297  1.1281  0.0082
16202SOL    HW252969  10.064   7.508   0.774  0.2606  0.4823  0.5735
16203SOL     OW52970   6.911   4.696   1.753 -0.7770 -0.5299 -0.0669
16203SOL    HW152971   6.909   4.697   1.849 -0.6968  0.1087 -0.0678
16203SOL    HW252972   6.860   4.772   1.728  2.6199  1.8454 -0.4607
16204SOL     OW52973   2.408   1.358   4.906 -0.0458  0.5144  0.2806
16204SOL    HW152974   2.461   1.291   4.949 -0.3463  0.0157 -0.1061
16204SOL    HW252975   2.455   1.378   4.825 -0.2256  0.3773  0.1399
16205SOL     OW52976   2.376   0.123   9.435  0.3038 -0.7271  0.0286
16205SOL    HW152977   2.319   0.097   9.362 -0.5213  1.8812 -0.3738
16205SOL    HW252978   2.377   0.047   9.493  0.2347 -2.5593 -2.2135
16206SOL     OW52979  10.758   6.338   7.773 -0.3117  0.8249 -0.0179
16206SOL    HW152980  10.802   6.388   7.705 -0.8310  0.6468 -0.4972
16206SOL    HW252981  10.679   6.304   7.730 -0.3346  0.2021  0.5003
16207SOL     OW52982   1.577   4.738   9.900  0.2015 -0.5814  0.2949
16207SOL    HW152983   1.615   4.789   9.829 -1.3670 -0.2833 -0.3705
16207SOL    HW252984   1.636   4.663   9.910  1.0493 -0.0443 -0.5529
16208SOL     OW52985   0.899   2.644   9.560  0.5222  0.4812  0.3561
16208SOL    HW152986   0.960   2.705   9.518  1.0945 -1.1896 -1.3571
16208SOL    HW252987   0.814   2.686   9.550  0.8065  0.7220 -1.4461
16209SOL     OW52988   0.395   3.570   7.189  0.0049 -0.2221 -0.3057
16209SOL    HW152989   0.390   3.612   7.275 -1.2817  0.2057 -0.5649
16209SOL    HW252990   0.465   3.616   7.144 -0.4107  0.6745 -0.0592
16210SOL     OW52991  10.956   4.296   8.606 -0.0630  0.2620  0.1447
16210SOL    HW152992  10.970   4.374   8.552 -1.0962  0.8602  0.7118
16210SOL    HW252993  10.984   4.322   8.694  0.9767 -0.4916  0.0554
16211SOL     OW52994   6.923   5.342   9.534  0.2887  0.3450  0.0557
16211SOL    HW152995   6.852   5.336   9.598 -0.4771 -0.8975 -0.8463
16211SOL    HW252996   7.002   5.356   9.586 -0.6407  2.3532  1.0670
16212SOL     OW52997   9.303   3.512   1.596 -0.4070  0.0640  0.0700
16212SOL    HW152998   9.387   3.469   1.578 -1.0597 -1.0908 -0.3299
16212SOL    HW252999   9.296   3.581   1.530 -0.8932 -1.4710 -1.5774
16213SOL     OW53000   0.133   0.093   8.871 -0.1153 -0.1813 -0.3550
16213SOL    HW153001   0.218   0.071   8.910  1.1452  2.0320 -1.6553
16213SOL    HW253002   0.071   0.084   8.943  1.3463 -0.9685  0.8712
16214SOL     OW53003   2.124   3.591   3.993  0.1572 -0.5102  0.1973
16214SOL    HW153004   2.170   3.675   3.990 -0.2446 -0.2943 -0.0583
16214SOL    HW253005   2.126   3.559   3.903  0.6445 -0.9658  0.3635
16215SOL     OW53006   2.724   9.473   0.123 -0.2421 -0.4938  0.0490
16215SOL    HW153007   2.807   9.515   0.104  0.3496 -2.0661 -1.0069
16215SOL    HW253008   2.747   9.382   0.143 -1.5612 -0.5904  1.3478
16216SOL     OW53009   4.651  10.973   8.416  0.0588  0.0243  0.1205
16216SOL    HW153010   4.654  10.952   8.322  3.2639  2.5722 -0.5472
16216SOL    HW253011   4.690  10.897   8.459 -1.3233 -1.1218 -0.5892
16217SOL     OW53012   9.345   5.651   9.111  0.1351  0.6752 -0.1395
16217SOL    HW153013   9.341   5.660   9.206 -0.2423 -2.3445  0.2330
16217SOL    HW253014   9.262   5.610   9.087  0.7744  0.1635 -1.5952
16218SOL     OW53015   8.434   9.201   7.328 -0.1457  0.2685  0.3046
16218SOL    HW153016   8.352   9.162   7.356 -0.1096  0.6575  0.9611
16218SOL    HW253017   8.413   9.292   7.309 -0.1145  0.0812 -0.7108
16219SOL     OW53018  10.928   0.202   4.071  0.2150  0.3722  0.4606
16219SOL    HW153019  10.949   0.295   4.062  0.9765  0.1251 -0.5550
16219SOL    HW253020  10.841   0.200   4.110  0.1668  1.5096  0.4369
16220SOL     OW53021   2.741   5.117   5.273 -0.2362  0.1981 -0.2487
16220SOL    HW153022   2.647   5.136   5.279  0.0486  1.9028 -0.6311
16220SOL    HW253023   2.776   5.186   5.217  1.4883  0.5225  1.1343
16221SOL     OW53024   7.293   4.507   7.760  0.3212 -0.1513  0.5837
16221SOL    HW153025   7.289   4.597   7.790  1.1430  0.8007 -1.8891
16221SOL    HW253026   7.327   4.513   7.670 -0.5599 -2.8360 -0.0244
16222SOL     OW53027   5.740   7.602   0.015  0.3817  0.2634  0.4180
16222SOL    HW153028   5.743   7.697   0.022  0.3037  0.2068  1.2883
16222SOL    HW253029   5.730   7.571   0.105  3.3473 -0.6811  0.5208
16223SOL     OW53030   6.990   2.207   9.061 -0.0769  0.0200  0.2372
16223SOL    HW153031   7.080   2.175   9.052 -0.3527 -1.4107  1.9588
16223SOL    HW253032   6.937   2.128   9.068 -1.7184  0.7897 -2.0995
16224SOL     OW53033   1.436   7.251  10.369 -0.5704 -0.2761  0.3921
16224SOL    HW153034   1.521   7.294  10.377 -0.9139  0.3783  0.6114
16224SOL    HW253035   1.456   7.159  10.354  0.1858 -0.0159 -0.2421
16225SOL     OW53036   0.698   3.070   0.492 -0.1941 -0.1220  0.4872
16225SOL    HW153037   0.755   2.995   0.508  1.5212  0.6708 -1.3682
16225SOL    HW253038   0.671   3.060   0.401  1.6584  2.3920 -0.4658
16226SOL     OW53039   5.884   3.699   0.091 -0.1728  0.3804 -0.2029
16226SOL    HW153040   5.892   3.647   0.010 -1.0616 -0.2508  0.1046
16226SOL    HW253041   5.901   3.789   0.063  1.1327 -0.0238 -0.7944
16227SOL     OW53042   6.887   4.551   6.944 -0.3946 -0.6517 -0.3628
16227SOL    HW153043   6.949   4.607   6.898 -0.3795 -1.8709 -1.9286
16227SOL    HW253044   6.821   4.610   6.979  0.1483  0.4064 -1.0959
16228SOL     OW53045   6.008   0.153   4.556  0.3902  0.4453  0.9559
16228SOL    HW153046   6.031   0.072   4.511  0.9905  0.1157  1.8169
16228SOL    HW253047   5.991   0.216   4.486  1.1258 -0.0939  0.2736
16229SOL     OW53048   7.362   8.891   4.745  0.0938 -0.1201 -0.2399
16229SOL    HW153049   7.310   8.946   4.803 -0.6095 -0.3110 -0.6786
16229SOL    HW253050   7.402   8.826   4.802 -0.6692 -0.3658  0.0241
16230SOL     OW53051   5.177   0.764   5.627  1.0214 -0.2099  0.6592
16230SOL    HW153052   5.177   0.761   5.531 -1.6625  0.4099  0.5802
16230SOL    HW253053   5.226   0.686   5.653  1.5569 -0.5470 -1.1886
16231SOL     OW53054   5.216  10.450   8.751 -0.4799  0.0912 -0.2571
16231SOL    HW153055   5.288  10.500   8.790 -0.9869 -0.4865  1.5247
16231SOL    HW253056   5.228  10.461   8.657  2.9905 -1.3558 -0.1591
16232SOL     OW53057   7.878   4.866   7.015 -0.5956  0.1493 -0.4785
16232SOL    HW153058   7.901   4.794   6.956 -0.9832 -0.0933 -0.3412
16232SOL    HW253059   7.946   4.931   7.002  0.0068 -0.4352 -0.2866
16233SOL     OW53060   5.597   8.293   0.912 -0.8335 -0.3603  0.3580
16233SOL    HW153061   5.510   8.252   0.906 -0.9205 -0.0411 -0.8571
16233SOL    HW253062   5.591   8.371   0.857  0.9149 -1.6527 -1.9011
16234SOL     OW53063   4.967   7.016   8.176 -0.2654  0.3378  0.2066
16234SOL    HW153064   4.884   7.018   8.223 -1.3601  0.6316 -1.6136
16234SOL    HW253065   5.027   7.069   8.228 -1.3611  0.5137  1.3186
16235SOL     OW53066   8.718   7.730   9.192  0.2790 -0.3356 -0.2609
16235SOL    HW153067   8.723   7.819   9.227  0.9247 -0.6127  0.3573
16235SOL    HW253068   8.628   7.703   9.211  0.0515  0.2100 -0.5267
16236SOL     OW53069   4.688   4.352   7.242  0.1670 -0.3548 -0.2286
16236SOL    HW153070   4.600   4.342   7.278 -0.2317 -1.3951 -1.4041
16236SOL    HW253071   4.682   4.315   7.154  0.9699  2.5641 -1.6062
16237SOL     OW53072  10.672   9.431   5.527 -0.3816  0.0270  0.3508
16237SOL    HW153073  10.734   9.434   5.600 -0.9433  0.8092  0.8141
16237SOL    HW253074  10.650   9.338   5.519  0.0215 -0.1245  0.8955
16238SOL     OW53075   7.208   9.918   7.494 -0.1916  0.2173 -0.3079
16238SOL    HW153076   7.253   9.864   7.560 -0.5451  0.8654  0.4896
16238SOL    HW253077   7.278   9.962   7.447  0.0448  1.0099  0.7405
16239SOL     OW53078   0.259   3.549  10.556 -0.3257 -0.0351  0.1211
16239SOL    HW153079   0.243   3.634  10.597  0.5019 -0.3820  1.2008
16239SOL    HW253080   0.172   3.512  10.541 -1.0036  2.5507 -3.8728
16240SOL     OW53081   8.261   6.320   7.327 -0.2501  0.4982 -0.0385
16240SOL    HW153082   8.283   6.408   7.360  0.1269 -0.0122  1.1153
16240SOL    HW253083   8.270   6.328   7.232  0.1068  1.6227  0.0660
16241SOL     OW53084   8.164   4.329   8.211 -0.7079 -0.0571 -0.0232
16241SOL    HW153085   8.113   4.259   8.251 -2.1338 -0.7526 -2.8177
16241SOL    HW253086   8.241   4.284   8.175  0.0416  0.3981  0.9516
16242SOL     OW53087   3.577   5.653   7.390  0.2631 -0.2558  0.3712
16242SOL    HW153088   3.563   5.580   7.330  0.8065  0.8052 -1.0819
16242SOL    HW253089   3.671   5.650   7.411  0.3518  0.2256  0.0439
16243SOL     OW53090   1.314  11.064   4.377 -0.1124  0.6536 -0.3728
16243SOL    HW153091   1.222  11.042   4.371 -0.1003  0.8601 -1.3896
16243SOL    HW253092   1.323  11.107   4.463 -0.9038  0.4138 -0.1667
16244SOL     OW53093   8.508   0.767   2.591 -0.6169  0.1731  0.1517
16244SOL    HW153094   8.476   0.856   2.580  0.0294  0.3304 -0.5377
16244SOL    HW253095   8.577   0.758   2.525 -2.5525 -1.7552 -1.7664
16245SOL     OW53096   9.910   8.454   2.519  0.6230 -1.0346 -0.0343
16245SOL    HW153097   9.896   8.434   2.426  2.9518  1.7534 -1.1472
16245SOL    HW253098   9.991   8.410   2.542  0.8808 -0.4521  0.1979
16246SOL     OW53099   4.603  11.054   5.395  0.0367 -0.7851 -0.2865
16246SOL    HW153100   4.656  11.046   5.316 -0.7938  0.4342 -0.9995
16246SOL    HW253101   4.607  11.148   5.417 -1.2964 -0.7745 -0.0008
16247SOL     OW53102  10.155   0.910   8.768 -0.2197  0.1663  0.2172
16247SOL    HW153103  10.225   0.924   8.705 -1.5121 -1.5286 -1.7598
16247SOL    HW253104  10.101   0.988   8.761 -0.4772 -0.0913 -1.0415
16248SOL     OW53105   7.996   3.896   6.829 -0.1664 -0.5040 -0.0270
16248SOL    HW153106   7.993   3.801   6.823  1.6564 -0.7607  1.8843
16248SOL    HW253107   8.090   3.917   6.834 -0.5644  1.1994  1.5417
16249SOL     OW53108   3.803   5.553   8.828 -0.3779 -0.4803  0.3144
16249SOL    HW153109   3.798   5.561   8.733 -0.8646 -1.0723  0.2828
16249SOL    HW253110   3.893   5.528   8.845 -0.4951 -1.1752 -0.0603
16250SOL     OW53111   4.972   2.720   9.048 -0.1247 -0.8538  0.2783
16250SOL    HW153112   4.916   2.688   9.119  0.7958 -1.4504  0.7529
16250SOL    HW253113   5.054   2.746   9.091  0.0616 -0.2069 -0.4329
16251SOL     OW53114   0.082   7.069   2.035 -0.5214 -0.2906  0.2142
16251SOL    HW153115   0.069   7.135   1.967 -1.3824  0.1116  0.7540
16251SOL    HW253116   0.003   7.015   2.031 -0.7807  0.0141  1.1983
16252SOL     OW53117   3.579   7.257   8.206 -0.3071 -0.1039 -0.5236
16252SOL    HW153118   3.636   7.319   8.252 -0.1196  0.1202 -1.0514
16252SOL    HW253119   3.520   7.224   8.274 -0.3426  0.5804 -0.2113
16253SOL     OW53120   1.209   5.942   7.121  0.1465 -0.6776 -0.5348
16253SOL    HW153121   1.251   5.965   7.205 -2.1289 -2.0946  1.0918
16253SOL    HW253122   1.237   5.852   7.104  2.3248  0.2607 -2.5441
16254SOL     OW53123   6.536   6.027   6.194  0.1062 -0.0360 -0.1209
16254SOL    HW153124   6.461   6.042   6.252  0.1428  1.6659 -0.4834
16254SOL    HW253125   6.597   6.098   6.214  1.9869 -1.7716  0.6522
16255SOL     OW53126   9.013   2.945   5.084  0.1145 -0.6430  0.1837
16255SOL    HW153127   8.999   2.974   5.174  0.4241  1.7108 -0.4438
16255SOL    HW253128   9.059   2.862   5.092 -0.6948 -0.9440  2.1806
16256SOL     OW53129  10.866   7.141   8.426 -0.6759  0.6324  0.0410
16256SOL    HW153130  10.872   7.119   8.520  1.3795 -1.2396 -0.4336
16256SOL    HW253131  10.792   7.089   8.395 -0.6090  0.3067  0.4075
16257SOL     OW53132  10.584   0.157   2.686 -0.4551  0.3329 -0.8504
16257SOL    HW153133  10.606   0.094   2.617 -0.4304  1.7349 -2.1918
16257SOL    HW253134  10.649   0.227   2.677 -2.0019  1.8096 -1.1729
16258SOL     OW53135   2.377   1.270   8.868  1.0810  0.4855 -0.3742
16258SOL    HW153136   2.355   1.242   8.957  0.9780  1.0861 -0.2020
16258SOL    HW253137   2.473   1.266   8.864  1.2690  2.6900  0.5575
16259SOL     OW53138   6.742   7.203   0.144  0.1550 -0.2706  0.2762
16259SOL    HW153139   6.701   7.228   0.061  0.1330 -1.5358 -0.1155
16259SOL    HW253140   6.766   7.286   0.184 -0.5025  0.4009 -0.6529
16260SOL     OW53141   3.783   9.802   6.396  0.0760 -0.4502  0.5279
16260SOL    HW153142   3.838   9.848   6.459  0.5197  0.8612 -0.7673
16260SOL    HW253143   3.816   9.829   6.310 -0.0217 -2.7734 -0.3160
16261SOL     OW53144   5.514   8.730   5.246 -0.0347 -0.2693 -0.0183
16261SOL    HW153145   5.481   8.677   5.320 -0.0146 -0.1673  0.0634
16261SOL    HW253146   5.550   8.666   5.185  0.3249 -0.3237  0.2494
16262SOL     OW53147   4.574   7.490   6.812 -0.5841 -0.0728  0.3386
16262SOL    HW153148   4.637   7.467   6.881 -1.1102 -0.1153  0.8156
16262SOL    HW253149   4.491   7.500   6.859 -1.4921 -2.5152 -0.5919
16263SOL     OW53150   7.216   5.071  10.899 -0.3418  0.3009 -0.1139
16263SOL    HW153151   7.158   5.127  10.848 -1.0203  1.1056  1.4709
16263SOL    HW253152   7.165   5.048  10.976 -0.2528 -2.8848 -0.8731
16264SOL     OW53153   9.218   7.132   9.453 -0.4177 -0.0154 -0.6158
16264SOL    HW153154   9.235   7.063   9.517 -0.9944  0.9270  0.6053
16264SOL    HW253155   9.267   7.208   9.486 -2.2874  1.0615 -0.1501
16265SOL     OW53156   3.739   2.687   6.255 -0.3535 -0.6796  0.0499
16265SOL    HW153157   3.708   2.604   6.290 -0.9496 -0.3410  0.3534
16265SOL    HW253158   3.793   2.663   6.180 -0.1888 -1.3530  0.3774
16266SOL     OW53159   8.875   2.702   7.223 -0.6388  0.2221  0.5386
16266SOL    HW153160   8.874   2.618   7.177 -2.4306  0.1490  0.6581
16266SOL    HW253161   8.882   2.767   7.153 -0.8201  0.0289  0.3419
16267SOL     OW53162   3.201   6.969   5.456  0.7439 -0.4055 -0.1063
16267SOL    HW153163   3.148   6.891   5.476 -0.6381  0.3775 -0.5948
16267SOL    HW253164   3.183   6.987   5.364 -2.4769  2.9885  0.9566
16268SOL     OW53165   6.389   6.739   9.218  0.1631 -0.6400  0.2102
16268SOL    HW153166   6.362   6.808   9.278 -2.6233 -1.5733  0.1685
16268SOL    HW253167   6.450   6.685   9.270  0.2495  0.3098  1.1313
16269SOL     OW53168   0.716   1.986   3.121  0.0627 -0.5825  0.2768
16269SOL    HW153169   0.748   1.982   3.030 -0.5914  1.4695 -0.0849
16269SOL    HW253170   0.761   1.913   3.165 -0.3801 -2.2691 -1.8965
16270SOL     OW53171   3.432   1.312   4.015 -0.3806 -0.1080 -0.1055
16270SOL    HW153172   3.411   1.337   3.925 -2.7690 -0.3509  0.3229
16270SOL    HW253173   3.507   1.367   4.039 -0.1657  0.4774 -1.9792
16271SOL     OW53174   5.243   2.320   5.231 -0.1626  0.5853 -0.2382
16271SOL    HW153175   5.184   2.356   5.298 -0.3888  0.6820 -0.4868
16271SOL    HW253176   5.318   2.287   5.280 -0.4864  0.3327  0.0963
16272SOL     OW53177   3.440   7.599   7.663 -0.0921  0.1094 -0.4175
16272SOL    HW153178   3.438   7.592   7.758 -0.9076  1.5489 -0.2904
16272SOL    HW253179   3.528   7.631   7.643  0.5434 -1.4512 -0.2966
16273SOL     OW53180  10.151   7.130   0.667 -0.1564 -0.0929 -0.6352
16273SOL    HW153181  10.144   7.224   0.684  0.6294 -0.2438  0.6876
16273SOL    HW253182  10.245   7.115   0.651 -0.3339 -0.5999 -1.2958
16274SOL     OW53183   4.301   9.172   0.608  0.2846 -0.6644  0.3875
16274SOL    HW153184   4.332   9.262   0.622 -0.2025 -0.4668  0.2038
16274SOL    HW253185   4.381   9.122   0.593  0.4275  0.2026 -2.1282
16275SOL     OW53186   5.004   6.357   4.026  0.4943 -0.6107 -0.0152
16275SOL    HW153187   5.028   6.310   4.106  0.3533  0.7966  0.8825
16275SOL    HW253188   4.929   6.308   3.991 -0.4988 -0.3132  1.6177
16276SOL     OW53189   4.787   1.174   1.024  0.5426 -0.6160  0.9086
16276SOL    HW153190   4.740   1.206   1.101  0.7836 -1.1228  1.2709
16276SOL    HW253191   4.827   1.092   1.052  1.9328 -0.0321  0.7205
16277SOL     OW53192   4.687   8.812   1.066 -0.5878  0.4545  0.7360
16277SOL    HW153193   4.757   8.763   1.023  0.9015  2.6943  0.4248
16277SOL    HW253194   4.627   8.837   0.996  0.4466  1.8519  0.2885
16278SOL     OW53195   7.788   7.419   6.846  0.2452  0.1432 -0.5287
16278SOL    HW153196   7.718   7.366   6.809  0.9600 -0.1485 -1.4998
16278SOL    HW253197   7.869   7.373   6.822  0.8484  1.2854 -0.7645
16279SOL     OW53198   1.830   1.225   4.551  0.0419 -0.1801 -0.3020
16279SOL    HW153199   1.880   1.285   4.607  0.8652 -2.0430  1.0703
16279SOL    HW253200   1.738   1.243   4.571  0.3032  0.0736  0.7221
16280SOL     OW53201   6.131   8.082   3.694 -0.2234  0.2218  0.0068
16280SOL    HW153202   6.159   8.145   3.627 -2.2537  1.4136  0.2057
16280SOL    HW253203   6.213   8.051   3.733  0.8844  2.8429  0.0026
16281SOL     OW53204   0.717   6.480  10.480 -0.1851  0.0124  0.3015
16281SOL    HW153205   0.662   6.497  10.556  0.0585 -0.6454  0.6376
16281SOL    HW253206   0.725   6.385  10.478 -1.8250 -0.1611 -1.7205
16282SOL     OW53207   6.302   7.877   9.871  0.1973 -0.4866 -0.1138
16282SOL    HW153208   6.364   7.950   9.866  0.8539 -0.6621  3.1305
16282SOL    HW253209   6.267   7.882   9.960 -3.9144 -0.9166 -1.5015
16283SOL     OW53210   2.986   0.824   8.958  0.2827  0.2208 -0.6366
16283SOL    HW153211   2.994   0.735   8.992 -0.9255  0.7449  1.2169
16283SOL    HW253212   3.061   0.836   8.901  0.1696 -2.1610 -1.3714
16284SOL     OW53213   8.811   4.933   5.773 -0.3784 -0.4495  0.3255
16284SOL    HW153214   8.820   4.937   5.868 -0.4886  0.1083  0.3111
16284SOL    HW253215   8.889   4.886   5.744 -0.8291 -1.5161  0.7718
16285SOL     OW53216   8.420   1.275   5.298 -0.0168 -0.6397 -0.2976
16285SOL    HW153217   8.369   1.216   5.354 -0.7854  0.1070 -0.1960
16285SOL    HW253218   8.366   1.353   5.290  0.8662 -0.0580 -0.6757
16286SOL     OW53219   8.547  10.950   4.253 -0.4308 -0.0635 -0.5251
16286SOL    HW153220   8.572  10.858   4.261  1.7688  0.5361  0.2210
16286SOL    HW253221   8.610  10.997   4.307 -1.3969  1.9214 -1.0204
16287SOL     OW53222   8.008  10.993   5.052  0.5349  0.2009  0.3112
16287SOL    HW153223   8.033  10.952   5.134  0.4782  0.3809  0.4192
16287SOL    HW253224   7.916  11.017   5.064  0.6195  0.5243  0.3153
16288SOL     OW53225   9.992   5.194   2.849 -0.5474 -0.2412  0.5810
16288SOL    HW153226  10.032   5.167   2.767  0.3349  0.1396  0.8693
16288SOL    HW253227   9.946   5.275   2.827 -0.8373 -0.4758  0.3259
16289SOL     OW53228   8.874   8.057   9.633 -0.4378 -0.3705 -0.0988
16289SOL    HW153229   8.825   8.026   9.709  0.4503 -0.6028  0.3962
16289SOL    HW253230   8.917   8.137   9.663  2.0531 -1.8372  0.5405
16290SOL     OW53231   2.810  10.386   6.424 -0.3041 -0.2739  0.5990
16290SOL    HW153232   2.718  10.367   6.406 -0.0861 -1.5868  0.7723
16290SOL    HW253233   2.839  10.436   6.348 -1.1526  0.1645  0.5481
16291SOL     OW53234   7.549   3.527   2.297  0.1390  0.2263  0.1847
16291SOL    HW153235   7.486   3.479   2.350 -0.9008  0.4171 -0.8424
16291SOL    HW253236   7.634   3.490   2.320 -0.6455 -2.4760 -0.9382
16292SOL     OW53237   8.642  10.137   0.370  0.2592  0.0927  0.4970
16292SOL    HW153238   8.711  10.171   0.312  0.3984 -2.3291 -0.8579
16292SOL    HW253239   8.637  10.202   0.441  1.9340  1.7943 -0.8250
16293SOL     OW53240  10.073   6.146  10.007  0.6699  0.0940 -0.3142
16293SOL    HW153241  10.025   6.093  10.071  0.2971 -0.9022 -1.3766
16293SOL    HW253242  10.072   6.093   9.927  1.7444  0.9935 -0.9434
16294SOL     OW53243   9.965   0.209   4.033 -0.0939 -0.1089 -0.7756
16294SOL    HW153244   9.920   0.165   3.961 -1.7443 -0.8849  0.6753
16294SOL    HW253245  10.056   0.215   4.003  0.0098 -3.4859 -1.5367
16295SOL     OW53246   0.283   3.412   1.965 -0.7148 -0.1485 -1.1369
16295SOL    HW153247   0.359   3.369   2.005 -1.0075  0.0388 -0.3657
16295SOL    HW253248   0.320   3.465   1.895 -0.2814 -1.1783 -1.7196
16296SOL     OW53249   6.119   2.824  10.316 -0.1576  0.5606 -0.0410
16296SOL    HW153250   6.173   2.848  10.241 -0.3942 -0.9834 -0.7389
16296SOL    HW253251   6.037   2.792  10.278 -0.4947  0.2535  0.8955
16297SOL     OW53252   8.358   5.364  10.320  0.1891  0.1413  0.3186
16297SOL    HW153253   8.382   5.429  10.386  1.0916  0.1783 -0.0355
16297SOL    HW253254   8.371   5.408  10.236 -2.1485  0.5214  0.0729
16298SOL     OW53255   0.476   1.568   9.708 -0.1833 -0.1255 -0.1652
16298SOL    HW153256   0.439   1.582   9.621 -4.0167  0.8777  1.4417
16298SOL    HW253257   0.428   1.494   9.744  0.3736  0.2957  1.5790
16299SOL     OW53258   5.931   5.290   1.062 -0.1723  0.2568 -0.2687
16299SOL    HW153259   5.939   5.311   0.969 -0.3225 -0.1591 -0.3771
16299SOL    HW253260   5.864   5.351   1.094  0.1558  0.6660 -0.3446
16300SOL     OW53261   9.363   3.287   4.335  0.6425 -0.1858 -0.3212
16300SOL    HW153262   9.358   3.206   4.386 -0.3371  0.1584  0.1518
16300SOL    HW253263   9.301   3.346   4.377  0.3925  0.3788 -1.4376
16301SOL     OW53264   1.564   3.633   2.188  0.4332 -0.0709  0.1852
16301SOL    HW153265   1.644   3.581   2.176  0.4151  0.0829 -0.6824
16301SOL    HW253266   1.501   3.572   2.225 -0.0074 -1.0889 -2.0727
16302SOL     OW53267   0.543   9.579   7.650  0.4882 -0.1984  0.0682
16302SOL    HW153268   0.606   9.643   7.618 -0.6471  0.8465 -0.1360
16302SOL    HW253269   0.514   9.532   7.572 -1.4306  1.5852 -0.3985
16303SOL     OW53270   3.969   4.045  10.065 -0.4085 -0.0515 -0.2885
16303SOL    HW153271   3.877   4.030  10.086 -0.8308  0.0412 -1.9985
16303SOL    HW253272   3.981   4.139  10.076 -0.7238  0.0534 -0.8434
16304SOL     OW53273   4.349  10.313   3.554  0.1664  0.4303  0.0023
16304SOL    HW153274   4.377  10.239   3.500  1.1957 -0.9061  2.2261
16304SOL    HW253275   4.426  10.368   3.560  0.6173 -0.3211  1.4692
16305SOL     OW53276   8.818   3.219   9.648 -0.5694 -0.0384 -0.1243
16305SOL    HW153277   8.723   3.210   9.659 -0.7628  0.2904 -1.3558
16305SOL    HW253278   8.829   3.247   9.557  0.7766 -1.0974 -0.3188
16306SOL     OW53279   7.113   6.898   2.943 -0.4447  0.6625 -0.2805
16306SOL    HW153280   7.089   6.927   3.031  0.5869 -0.1180  0.2832
16306SOL    HW253281   7.176   6.964   2.913 -0.5291  0.7373 -0.2940
16307SOL     OW53282   0.968   6.842   9.946  0.6752  0.0063  0.5070
16307SOL    HW153283   1.040   6.906   9.948  0.7157  0.0419 -1.0515
16307SOL    HW253284   0.899   6.882   9.999  0.6604  1.4015 -0.5113
16308SOL     OW53285   6.023   3.341   0.038  0.0905 -0.8190  0.5970
16308SOL    HW153286   5.962   3.324   0.110 -0.8222 -0.2494 -0.0324
16308SOL    HW253287   6.107   3.308   0.071 -0.9413 -3.7221  0.6033
16309SOL     OW53288   7.932   2.425   7.894  0.8838  0.0966  0.2462
16309SOL    HW153289   7.976   2.351   7.852  0.7535 -0.1324  0.5083
16309SOL    HW253290   7.840   2.399   7.896  0.5476  1.0520 -1.3314
16310SOL     OW53291  10.108   4.027  10.182 -0.2441 -0.8595 -0.4347
16310SOL    HW153292  10.173   4.073  10.234  0.7567 -0.3648 -2.0295
16310SOL    HW253293  10.095   4.082  10.104 -2.0178 -1.3286 -0.5287
16311SOL     OW53294   7.538   9.439   3.068 -0.8031 -0.4140 -0.0233
16311SOL    HW153295   7.578   9.423   3.153 -1.0250  2.3191  0.6565
16311SOL    HW253296   7.610   9.426   3.005  0.7021  2.2018  1.0032
16312SOL     OW53297   8.608   5.429   0.682  0.0784 -0.3555 -0.2901
16312SOL    HW153298   8.675   5.404   0.746  0.4048  0.2561 -0.3852
16312SOL    HW253299   8.553   5.351   0.674  1.5754 -1.3821 -1.2369
16313SOL     OW53300   0.691   4.375   9.819 -0.0297  0.0325 -0.3516
16313SOL    HW153301   0.678   4.470   9.820  1.0663  0.2331 -1.5969
16313SOL    HW253302   0.719   4.353   9.908  1.8422  1.2338 -0.6029
16314SOL     OW53303   5.207   8.281   1.616  0.6653  0.1011 -0.1907
16314SOL    HW153304   5.301   8.289   1.631  0.6060  1.5802 -0.4665
16314SOL    HW253305   5.168   8.291   1.702  0.7420 -0.2566 -0.1126
16315SOL     OW53306   5.787   8.765   2.909  0.3436 -0.7278 -0.5135
16315SOL    HW153307   5.837   8.770   2.828  0.3724 -0.1134 -0.4609
16315SOL    HW253308   5.698   8.744   2.881  0.5783 -1.5894 -0.6230
16316SOL     OW53309   4.850   1.223   4.802 -0.2553  0.5920 -0.6839
16316SOL    HW153310   4.798   1.302   4.789 -0.2287  0.6619 -0.3769
16316SOL    HW253311   4.837   1.172   4.722  1.2352  1.7470 -1.7170
16317SOL     OW53312   3.025   4.167   5.204 -0.3129 -0.5567  0.2099
16317SOL    HW153313   2.947   4.119   5.176 -1.1467 -0.3827  2.1100
16317SOL    HW253314   3.003   4.200   5.291  1.0878  1.3536 -0.1018
16318SOL     OW53315   3.321   2.127   8.438 -0.6955 -0.0190 -0.0351
16318SOL    HW153316   3.382   2.201   8.443 -2.7096  1.6682  1.6616
16318SOL    HW253317   3.325   2.099   8.347  0.5255  1.8675 -0.6375
16319SOL     OW53318   4.008   6.686   6.684 -0.3902 -0.5913  0.7328
16319SOL    HW153319   4.023   6.609   6.629  0.4608  0.7743 -1.0472
16319SOL    HW253320   3.920   6.716   6.659 -0.1580 -0.1957  0.3680
16320SOL     OW53321   0.077   2.155   3.466 -0.1080 -0.1946 -0.0059
16320SOL    HW153322   0.020   2.180   3.393 -0.9640  0.3920  0.8483
16320SOL    HW253323   0.045   2.068   3.492  1.2143 -1.1150 -1.3176
16321SOL     OW53324   9.068   6.287   6.925  0.2975 -0.0928  0.0657
16321SOL    HW153325   9.037   6.252   6.842 -1.0847 -0.5053  0.7199
16321SOL    HW253326   9.137   6.226   6.953  0.6401 -0.0520 -0.6653
16322SOL     OW53327   7.841   1.714   5.470 -0.0737  0.4479  0.3124
16322SOL    HW153328   7.831   1.641   5.531 -1.0608  0.9309  0.7445
16322SOL    HW253329   7.753   1.730   5.436  0.5112 -0.0557 -1.5628
16323SOL     OW53330  10.532   4.167   0.141 -0.4249  0.1262 -0.0480
16323SOL    HW153331  10.487   4.245   0.107  1.1289  0.7447 -0.8168
16323SOL    HW253332  10.538   4.181   0.235 -0.6155  0.7094 -0.1208
16324SOL     OW53333   3.719   1.027   7.219 -0.8660 -0.0387  0.0139
16324SOL    HW153334   3.645   0.979   7.182  1.6772 -2.8030 -1.9055
16324SOL    HW253335   3.754   0.969   7.287  0.5514  0.3750 -0.3295
16325SOL     OW53336   2.911   3.886  11.101  0.4578 -0.3680 -0.1060
16325SOL    HW153337   2.962   3.967  11.097  0.2611 -0.2800 -1.0591
16325SOL    HW253338   2.964   3.822  11.054 -0.0580 -0.4117 -0.6360
16326SOL     OW53339   9.839  10.340   3.048 -0.0789 -0.0520 -1.0122
16326SOL    HW153340   9.800  10.261   3.086 -0.3079  0.4182 -0.2504
16326SOL    HW253341   9.927  10.313   3.022  0.3953 -0.1979  0.6116
16327SOL     OW53342   4.251   0.712   0.962  0.2421 -0.1013 -0.0870
16327SOL    HW153343   4.195   0.635   0.957 -0.7189  0.5820 -0.1979
16327SOL    HW253344   4.281   0.726   0.872  1.4621 -1.0809  0.1520
16328SOL     OW53345   0.039   1.930   8.846  0.2623  0.8894 -0.1367
16328SOL    HW153346  -0.001   1.905   8.929  0.1955  0.9716 -0.1445
16328SOL    HW253347   0.133   1.932   8.864  0.7833 -3.6215 -1.1732
16329SOL     OW53348   7.635   9.308   2.756 -0.0788 -0.0477 -0.3871
16329SOL    HW153349   7.657   9.395   2.787 -0.2885 -0.1488  0.0639
16329SOL    HW253350   7.646   9.312   2.661 -0.2684  0.5219 -0.3865
16330SOL     OW53351   0.562   1.189   1.648 -0.3178  0.5872 -0.3154
16330SOL    HW153352   0.568   1.128   1.722 -2.1970  0.3664 -0.2834
16330SOL    HW253353   0.502   1.257   1.678 -0.0636  1.2130 -1.1881
16331SOL     OW53354   7.800   3.312   4.335  0.0531 -0.1225  0.4908
16331SOL    HW153355   7.724   3.349   4.380  0.5476 -0.1869  1.3909
16331SOL    HW253356   7.874   3.364   4.365  0.4313 -0.3485 -0.0389
16332SOL     OW53357   8.303   4.818   5.743  0.2948 -0.0989 -0.5248
16332SOL    HW153358   8.295   4.881   5.672  0.2403  0.7246  0.1948
16332SOL    HW253359   8.373   4.853   5.798 -0.3253 -0.1958  0.3498
16333SOL     OW53360   8.906   9.123   3.873 -0.0874  0.3136  0.6546
16333SOL    HW153361   8.843   9.119   3.801  0.6390  1.8002 -0.1097
16333SOL    HW253362   8.858   9.165   3.944 -0.6926 -0.8103  0.9261
16334SOL     OW53363   7.395   0.609   8.128 -0.3275  0.5113 -0.2887
16334SOL    HW153364   7.455   0.554   8.176 -2.1400 -1.2668  0.0654
16334SOL    HW253365   7.357   0.667   8.194 -1.9720 -1.1577  0.3030
16335SOL     OW53366   6.861   7.599   5.344  0.5525  0.2173  0.2855
16335SOL    HW153367   6.806   7.595   5.266  0.9928  0.7995 -0.0667
16335SOL    HW253368   6.937   7.652   5.318  1.4950 -0.9138  0.6302
16336SOL     OW53369   7.190   1.359   1.155 -0.1153  0.3206 -0.2550
16336SOL    HW153370   7.282   1.335   1.140  0.0230 -0.3661  1.4798
16336SOL    HW253371   7.194   1.450   1.182  0.3045 -0.2399  1.7254
16337SOL     OW53372  10.538   3.226   9.436  0.0562  0.1907 -0.5206
16337SOL    HW153373  10.458   3.276   9.455  0.2879  0.4214 -0.1452
16337SOL    HW253374  10.520   3.139   9.472  0.0655  0.3134 -0.2133
16338SOL     OW53375   4.600   9.360   0.491  0.5104  0.0017  0.6722
16338SOL    HW153376   4.509   9.370   0.521  0.6878 -2.2978  2.2610
16338SOL    HW253377   4.592   9.311   0.409  0.2644  1.3391 -0.1194
16339SOL     OW53378   1.076   3.670   8.477 -0.2400 -0.3877 -0.2428
16339SOL    HW153379   0.982   3.650   8.483 -0.0708 -0.8662  1.0115
16339SOL    HW253380   1.112   3.643   8.561  1.1029 -0.5471 -0.8403
16340SOL     OW53381   2.150   7.224   1.470  0.1969  0.0795 -0.0302
16340SOL    HW153382   2.227   7.202   1.417  0.8342  2.3377 -0.1712
16340SOL    HW253383   2.076   7.191   1.421  1.0129 -1.4039 -0.3185
16341SOL     OW53384  10.334   8.113   3.200  0.0296  0.0210 -0.2732
16341SOL    HW153385  10.414   8.064   3.185 -0.1931  0.0137 -1.4946
16341SOL    HW253386  10.275   8.050   3.243  1.2062  0.4982  2.1930
16342SOL     OW53387   3.234   9.756   2.091 -0.3864 -0.2511 -0.0986
16342SOL    HW153388   3.225   9.816   2.165  0.6311  0.9818 -0.9424
16342SOL    HW253389   3.145   9.746   2.057 -0.9643 -1.2587  1.5702
16343SOL     OW53390   2.766   4.281   4.084 -0.3981  0.2647 -0.2252
16343SOL    HW153391   2.674   4.261   4.103 -0.2422 -1.0110 -0.7405
16343SOL    HW253392   2.762   4.350   4.018 -0.9762  0.1262 -0.3420
16344SOL     OW53393  10.154   2.061   2.362 -0.3465  0.3138 -0.3387
16344SOL    HW153394  10.177   1.979   2.318 -0.3829 -0.7455  1.5247
16344SOL    HW253395  10.237   2.107   2.371 -0.2716  0.3315 -1.0721
16345SOL     OW53396   5.717   4.747   8.288  0.5131 -0.2649 -0.5660
16345SOL    HW153397   5.795   4.771   8.238  0.3278  2.5206  0.3109
16345SOL    HW253398   5.645   4.760   8.226  0.1600  4.3098  0.4207
16346SOL     OW53399   1.170   6.672   3.544 -0.2888  0.2358  0.1911
16346SOL    HW153400   1.093   6.680   3.600  0.6888  0.1936  1.5869
16346SOL    HW253401   1.212   6.592   3.573  2.2849  2.1118  2.1142
16347SOL     OW53402   6.564   2.104  10.536  0.1167 -0.1425  0.2121
16347SOL    HW153403   6.569   2.156  10.456 -1.4474 -0.6857 -0.2607
16347SOL    HW253404   6.642   2.130  10.585  0.9048  0.4952 -1.2941
16348SOL     OW53405   7.197   8.741   7.246  0.1948 -0.8491  0.1189
16348SOL    HW153406   7.129   8.678   7.272 -0.8973  1.1634  2.6837
16348SOL    HW253407   7.264   8.733   7.313 -0.3078  1.0809  0.9439
16349SOL     OW53408   5.947   0.450   9.227  0.5305  0.1517 -0.6326
16349SOL    HW153409   6.014   0.491   9.283 -0.1131 -0.3683  0.5505
16349SOL    HW253410   5.876   0.427   9.287  0.6154 -2.1926 -1.3366
16350SOL     OW53411   8.589   5.794   8.473  0.2991 -1.2797  0.3953
16350SOL    HW153412   8.643   5.759   8.544  1.0612 -0.3799  0.2852
16350SOL    HW253413   8.605   5.888   8.475 -0.4901 -1.1175 -0.3013
16351SOL     OW53414   5.207  10.376   1.083 -0.1548 -0.1180  0.3005
16351SOL    HW153415   5.171  10.463   1.096  0.0987 -0.0712  0.7048
16351SOL    HW253416   5.301  10.386   1.098 -0.2087 -0.5829  1.0007
16352SOL     OW53417   5.930   1.990   2.289  0.7512  0.0565  0.0687
16352SOL    HW153418   5.906   2.059   2.351 -2.2404 -0.1269 -0.7420
16352SOL    HW253419   5.988   2.033   2.226  0.1893  1.4352  0.4658
16353SOL     OW53420   5.558   5.099  10.076  0.1472 -0.1117  0.1259
16353SOL    HW153421   5.581   5.140  10.160 -1.2944 -3.3055  2.2587
16353SOL    HW253422   5.465   5.118  10.065  0.6102  1.4930 -1.6276
16354SOL     OW53423   2.234  10.754   1.486  0.1678  0.0790  0.2384
16354SOL    HW153424   2.266  10.770   1.574 -0.6944 -0.7064  0.7009
16354SOL    HW253425   2.283  10.816   1.431  2.3214 -0.9356  0.9309
16355SOL     OW53426   9.509   5.189   2.573  0.1317  0.4285  0.6308
16355SOL    HW153427   9.454   5.112   2.560  0.8113  0.1051 -0.4601
16355SOL    HW253428   9.499   5.240   2.492  2.1578 -0.1190 -0.0170
16356SOL     OW53429   3.100   6.169   8.846  0.3109 -0.3635  0.5902
16356SOL    HW153430   3.041   6.158   8.772  1.1554 -0.9049 -0.0297
16356SOL    HW253431   3.044   6.165   8.923 -0.6636  0.7473 -0.0293
16357SOL     OW53432   1.483   6.917   7.224  0.0715 -0.1641  0.0025
16357SOL    HW153433   1.426   6.974   7.173 -0.5500  0.3900  1.2714
16357SOL    HW253434   1.442   6.914   7.311  0.7059 -1.6353  0.2854
16358SOL     OW53435   4.406   9.209   1.244  0.5096  0.0700 -0.3413
16358SOL    HW153436   4.338   9.233   1.307 -2.3918 -1.0285 -2.8150
16358SOL    HW253437   4.458   9.143   1.290 -1.3787 -0.5721  1.0254
16359SOL     OW53438   0.324   6.882   0.376  0.1877  0.7265  0.1310
16359SOL    HW153439   0.295   6.819   0.443 -0.1872 -0.1896 -0.8573
16359SOL    HW253440   0.245   6.900   0.325  0.1877  2.3672  0.6456
16360SOL     OW53441  10.626  10.278   0.696 -0.3026  0.1175 -0.7393
16360SOL    HW153442  10.699  10.309   0.642  1.2466 -1.0137  0.5911
16360SOL    HW253443  10.583  10.359   0.725  2.4302  1.1055  1.0436
16361SOL     OW53444   0.342   0.265   0.646 -0.4482 -0.5660 -0.5584
16361SOL    HW153445   0.420   0.263   0.591  1.0023  0.8604  1.3245
16361SOL    HW253446   0.325   0.173   0.666  0.7696 -0.9031 -0.9788
16362SOL     OW53447   6.510  10.440   7.410  0.4777  0.5219 -0.2453
16362SOL    HW153448   6.498  10.501   7.483  3.4075 -1.0120  1.7342
16362SOL    HW253449   6.577  10.481   7.355  0.2275  0.4578 -0.5991
16363SOL     OW53450   4.884   5.976   4.702  0.1432  0.2609 -0.4955
16363SOL    HW153451   4.894   5.965   4.796  2.3323 -1.6269 -0.8466
16363SOL    HW253452   4.800   6.020   4.691  0.0343  0.9461  2.3290
16364SOL     OW53453   3.320  10.022   8.960  0.1807  0.2758  0.0899
16364SOL    HW153454   3.373   9.954   9.002 -0.0981 -0.3422 -0.5267
16364SOL    HW253455   3.260   9.973   8.904  1.1914  1.0765 -1.8036
16365SOL     OW53456   2.745   0.071   8.380  0.3080  0.0756 -0.0011
16365SOL    HW153457   2.761  -0.004   8.322  0.4885  0.1128  0.0005
16365SOL    HW253458   2.683   0.126   8.331 -0.4765 -0.4815  0.3476
16366SOL     OW53459   8.056   9.019   6.802 -0.1503  0.1141 -0.0062
16366SOL    HW153460   8.087   9.049   6.717  0.8607 -1.5471 -0.2727
16366SOL    HW253461   8.112   9.063   6.866  2.2138 -2.0453 -0.4395
16367SOL     OW53462   5.124   3.427   6.233 -0.4976 -0.3861  0.4759
16367SOL    HW153463   5.080   3.497   6.282  1.1835  1.8599 -1.0483
16367SOL    HW253464   5.090   3.434   6.144  0.0233 -1.2342  0.1943
16368SOL     OW53465  10.875   8.209   1.963 -0.4476  0.2562  0.2811
16368SOL    HW153466  10.794   8.157   1.968  1.8688 -4.1028 -1.5854
16368SOL    HW253467  10.916   8.198   2.048 -0.2011 -0.7554  0.0554
16369SOL     OW53468   1.456   1.073   5.834 -0.1609 -0.1477  0.0502
16369SOL    HW153469   1.529   1.104   5.781  1.0300 -2.6341  0.1109
16369SOL    HW253470   1.385   1.059   5.770 -0.1958  0.9615 -0.1934
16370SOL     OW53471  10.789   9.472   7.802  0.3139  0.2268 -0.4190
16370SOL    HW153472  10.771   9.378   7.810 -0.1962  0.3238 -0.3732
16370SOL    HW253473  10.857   9.478   7.735  0.0897 -0.1544 -0.6863
16371SOL     OW53474   8.689   2.717   6.048  0.1692  0.3279  0.7378
16371SOL    HW153475   8.607   2.740   6.004  0.3606 -0.2952  0.0316
16371SOL    HW253476   8.683   2.622   6.062  2.2060 -0.4752 -2.5367
16372SOL     OW53477   4.842   7.331  10.000  0.5153  0.0138  0.1799
16372SOL    HW153478   4.926   7.375  10.002  0.8010 -0.3884 -1.5330
16372SOL    HW253479   4.779   7.398  10.026  1.0689  1.1209 -1.2265
16373SOL     OW53480   2.626   8.981   6.111 -0.3674 -0.7684 -0.3239
16373SOL    HW153481   2.703   9.039   6.115  0.5499 -1.9680 -0.2111
16373SOL    HW253482   2.629   8.944   6.023 -2.4566  1.3002 -1.3681
16374SOL     OW53483   7.497   8.539   9.479 -0.0212  0.3739 -0.2633
16374SOL    HW153484   7.564   8.604   9.502  0.4918  0.1377 -1.0380
16374SOL    HW253485   7.506   8.528   9.384 -0.8676  0.0100 -0.3049
16375SOL     OW53486   0.570   3.852   8.994  0.6175  0.2093 -0.3895
16375SOL    HW153487   0.501   3.834   8.930 -0.2231 -0.0800  0.5698
16375SOL    HW253488   0.595   3.765   9.026  0.0167  0.4263  0.7030
16376SOL     OW53489   2.148   8.940   4.264 -0.0270 -0.2576 -0.6668
16376SOL    HW153490   2.091   8.914   4.337 -1.4686  1.0659 -1.2672
16376SOL    HW253491   2.193   9.018   4.295 -0.5739  0.2557 -1.1438
16377SOL     OW53492   6.652  10.739  11.033 -0.8784  0.0769 -0.2796
16377SOL    HW153493   6.716  10.809  11.040 -1.6671  0.8193 -0.4197
16377SOL    HW253494   6.600  10.761  10.957 -1.5987 -0.2772  0.1039
16378SOL     OW53495   3.655   9.731  10.259  0.1736  0.5739 -0.4430
16378SOL    HW153496   3.670   9.664  10.326 -3.1992 -0.0726 -0.1826
16378SOL    HW253497   3.716   9.706  10.188  1.2313 -0.8755  0.8917
16379SOL     OW53498   7.424   4.941   3.898 -0.4195 -0.4159 -0.3150
16379SOL    HW153499   7.513   4.931   3.865 -0.2872 -0.9109  0.1682
16379SOL    HW253500   7.429   4.911   3.989 -0.5544  1.8252  0.4902
16380SOL     OW53501   0.903   8.720   1.167  0.3268 -0.0043  0.1626
16380SOL    HW153502   0.983   8.749   1.124 -0.0876 -0.6151 -1.0919
16380SOL    HW253503   0.841   8.705   1.095 -0.0976 -2.0341  0.8723
16381SOL     OW53504   0.833   9.149   8.746  0.5682  0.1537 -0.1566
16381SOL    HW153505   0.743   9.125   8.722  0.3984 -0.1483  0.7157
16381SOL    HW253506   0.847   9.234   8.705  0.2615 -0.2736 -1.1717
16382SOL     OW53507   2.111   7.464   0.396  0.1087  0.1906  0.4380
16382SOL    HW153508   2.066   7.487   0.315 -0.1296  1.6990  0.9653
16382SOL    HW253509   2.051   7.406   0.442  0.7518 -1.6893 -0.9679
16383SOL     OW53510   6.351   6.562   2.832 -0.4787 -0.1985 -0.4686
16383SOL    HW153511   6.289   6.511   2.780 -0.5523 -1.4511  0.7781
16383SOL    HW253512   6.322   6.653   2.823 -2.0234 -0.6786 -0.5228
16384SOL     OW53513   5.341   3.367   1.129  0.3074  0.0771  0.3286
16384SOL    HW153514   5.423   3.343   1.085 -0.7374  0.0539 -1.7418
16384SOL    HW253515   5.275   3.309   1.092 -1.1612  1.9630 -0.2273
16385SOL     OW53516   3.579   5.056   9.919  0.3831 -0.3402  0.1283
16385SOL    HW153517   3.490   5.024   9.900  0.3275  0.4251 -0.9613
16385SOL    HW253518   3.601   5.015  10.003 -0.8211 -0.9029  0.1966
16386SOL     OW53519   7.273   0.205   7.687 -0.1882  0.3965 -0.3432
16386SOL    HW153520   7.226   0.147   7.627 -0.0673 -1.2645  1.0826
16386SOL    HW253521   7.353   0.229   7.639 -0.0643 -0.9293 -0.8629
16387SOL     OW53522   9.426   4.230  10.874  0.3180 -0.0266 -0.4755
16387SOL    HW153523   9.428   4.139  10.846  1.2685 -0.3595  0.6231
16387SOL    HW253524   9.502   4.240  10.931 -0.9237  0.9199  1.0895
16388SOL     OW53525   0.148  10.627   3.325  0.3073 -0.0992  0.0180
16388SOL    HW153526   0.131  10.595   3.414  0.1526 -1.1360 -0.3764
16388SOL    HW253527   0.200  10.706   3.338 -0.8216  0.5082  1.0801
16389SOL     OW53528   4.691   1.310   5.579  0.0689 -0.1837  0.4574
16389SOL    HW153529   4.706   1.275   5.491  1.5163 -1.4609  1.1612
16389SOL    HW253530   4.771   1.361   5.598 -0.5238  0.6418  0.7878
16390SOL     OW53531   3.937  10.807   9.357  0.2432  0.4334 -0.2810
16390SOL    HW153532   3.851  10.765   9.359  0.7114 -0.5487 -0.3027
16390SOL    HW253533   3.925  10.884   9.302  0.4932 -2.2046 -4.4123
16391SOL     OW53534   8.917   7.324  10.413 -0.4652  0.1118  0.5755
16391SOL    HW153535   8.829   7.300  10.443 -0.4198  0.7741  1.2705
16391SOL    HW253536   8.904   7.367  10.329 -0.5013 -2.8366 -1.0482
16392SOL     OW53537   3.081   0.918   2.710 -0.3355 -0.4590  0.1082
16392SOL    HW153538   3.017   0.989   2.707 -1.9683 -1.8093  0.8637
16392SOL    HW253539   3.086   0.886   2.620 -1.5133 -0.9616  0.2020
16393SOL     OW53540   2.784   9.525   1.550  0.4726  0.0649  0.1275
16393SOL    HW153541   2.770   9.586   1.623  0.5447 -0.6649  0.7616
16393SOL    HW253542   2.701   9.522   1.504  0.4315  0.5451  0.1646
16394SOL     OW53543   2.222   1.500   8.926  0.0253  0.3359  0.2695
16394SOL    HW153544   2.128   1.490   8.910  0.2192 -1.3227 -0.0840
16394SOL    HW253545   2.258   1.413   8.907  1.2552  0.1251  3.0509
16395SOL     OW53546   7.342   1.775   3.158  0.3732 -0.4370 -0.0350
16395SOL    HW153547   7.338   1.716   3.082 -0.9973 -1.7584  1.0169
16395SOL    HW253548   7.432   1.768   3.189  1.1944  0.7243 -1.9411
16396SOL     OW53549   9.181   2.017   2.859  0.0453  0.6460  0.4306
16396SOL    HW153550   9.117   2.083   2.830 -0.4904 -0.5339 -1.2451
16396SOL    HW253551   9.202   1.968   2.780  1.5911 -0.2329  1.3409
16397SOL     OW53552   1.655   4.579   0.300  0.6028  0.4304 -0.1417
16397SOL    HW153553   1.680   4.587   0.208  0.6698 -1.5459 -0.3504
16397SOL    HW253554   1.584   4.515   0.300  0.8977  0.0623  1.2027
16398SOL     OW53555   4.041  10.016   3.688  0.0886  0.0960  0.2113
16398SOL    HW153556   3.949  10.022   3.715 -0.1282 -0.8778 -0.2802
16398SOL    HW253557   4.079   9.954   3.751  0.5049  0.7926  0.6504
16399SOL     OW53558   2.081   8.099   2.515  0.1791  0.1704  0.7977
16399SOL    HW153559   2.106   8.095   2.423 -0.3023 -2.5506  0.7193
16399SOL    HW253560   2.077   8.193   2.534  1.4740  0.7958 -1.5921
16400SOL     OW53561   4.617   7.287   3.140  0.1216 -0.4819 -0.4691
16400SOL    HW153562   4.707   7.266   3.164  0.0790  0.1910  0.3056
16400SOL    HW253563   4.564   7.251   3.210  0.0110  1.6398  0.6207
16401SOL     OW53564   5.854   6.290   6.888 -0.2900 -0.5557 -0.1878
16401SOL    HW153565   5.926   6.319   6.945  0.8491 -2.9672 -0.2572
16401SOL    HW253566   5.842   6.362   6.826  0.9270  0.6095  0.8679
16402SOL     OW53567   8.679   7.195   7.815  0.3569 -0.5375  0.2699
16402SOL    HW153568   8.700   7.154   7.899 -1.2086  0.8007  1.3763
16402SOL    HW253569   8.623   7.131   7.771  0.6151 -0.9485  0.5261
16403SOL     OW53570  10.195   4.487   1.662  0.2143 -0.2376 -0.4355
16403SOL    HW153571  10.227   4.534   1.585  2.1703  0.0486  0.5053
16403SOL    HW253572  10.104   4.467   1.641 -0.5388  3.3268 -1.1693
16404SOL     OW53573   2.413   9.204   2.372 -0.1196  0.3313  0.7287
16404SOL    HW153574   2.489   9.147   2.363 -0.6030 -0.4542  1.4178
16404SOL    HW253575   2.430   9.277   2.314  0.4781 -0.5777 -0.2683
16405SOL     OW53576  10.335  11.107   0.575  0.2182 -0.3803 -0.1244
16405SOL    HW153577  10.265  11.144   0.629 -0.2628 -0.8494 -0.4161
16405SOL    HW253578  10.331  11.158   0.494  0.8933  0.2755  0.2435
16406SOL     OW53579   6.463   2.704   5.192  0.5563 -0.6785  0.8611
16406SOL    HW153580   6.381   2.733   5.231  0.0534  0.1827 -0.7562
16406SOL    HW253581   6.531   2.737   5.252 -0.2273 -0.8008  1.8471
16407SOL     OW53582   4.391   5.013   8.606  0.0935 -0.3491  0.3734
16407SOL    HW153583   4.470   5.066   8.597 -0.8845  1.2920  1.0118
16407SOL    HW253584   4.319   5.075   8.598 -1.1353 -1.7264  0.2917
16408SOL     OW53585   1.505   7.027  10.119  0.1639 -0.2523  0.1316
16408SOL    HW153586   1.493   7.114  10.080  0.1335  0.0475  0.8035
16408SOL    HW253587   1.600   7.012  10.114  0.0532 -0.6675 -1.0040
16409SOL     OW53588   4.972   3.948  11.100  0.8425 -0.1634  0.0771
16409SOL    HW153589   4.946   3.978  11.187  2.1911  1.1876  0.0410
16409SOL    HW253590   5.057   3.988  11.085  1.9825 -2.6714 -0.7059
16410SOL     OW53591  10.569   5.533   1.078 -0.3485 -0.6106 -0.0553
16410SOL    HW153592  10.657   5.539   1.116 -0.4070  1.2595 -0.1328
16410SOL    HW253593  10.572   5.591   1.002 -1.7720 -0.1827  0.1932
16411SOL     OW53594   4.651   9.274   8.540  0.0954 -0.0298 -0.2713
16411SOL    HW153595   4.685   9.322   8.616  0.2494 -0.5600  0.0020
16411SOL    HW253596   4.577   9.224   8.575 -0.5822  0.6339 -0.7305
16412SOL     OW53597   3.866   2.169   8.648  0.0765  0.4970  0.0397
16412SOL    HW153598   3.888   2.105   8.580  0.5522  0.1883  0.4720
16412SOL    HW253599   3.783   2.139   8.683 -0.1240  0.6036 -0.3383
16413SOL     OW53600  10.731   9.965   4.130  0.0924 -0.0149  0.3782
16413SOL    HW153601  10.656   9.911   4.104  0.0784  0.7905 -1.4108
16413SOL    HW253602  10.798   9.947   4.064  0.6035  1.0756  0.5667
16414SOL     OW53603   1.458   2.178  10.044 -0.4439 -0.4032  0.1068
16414SOL    HW153604   1.369   2.153  10.072 -0.6477 -0.4341 -0.5460
16414SOL    HW253605   1.445   2.219   9.959 -0.0251  1.2721  0.8176
16415SOL     OW53606   7.001   3.519  10.313 -0.6286  0.3612  0.1679
16415SOL    HW153607   6.936   3.449  10.315 -0.5411  0.2892  1.2959
16415SOL    HW253608   6.975   3.578  10.384  0.3798  0.4688  0.4659
16416SOL     OW53609   5.763   9.214   6.457  0.2415  0.3130  0.4864
16416SOL    HW153610   5.779   9.304   6.486 -1.1201  0.1001  2.0962
16416SOL    HW253611   5.818   9.203   6.380  1.5754  2.0405  1.1241
16417SOL     OW53612   3.729   3.070   7.371 -0.8267  0.5076  0.3284
16417SOL    HW153613   3.796   3.138   7.373 -0.4998  0.2451 -0.7992
16417SOL    HW253614   3.646   3.118   7.363 -0.5710  0.7905 -0.8596
16418SOL     OW53615   9.164   9.933   4.580 -0.0422 -0.3216  0.4369
16418SOL    HW153616   9.112   9.872   4.528 -1.2380 -0.8432  2.1418
16418SOL    HW253617   9.215   9.877   4.639 -0.2621  0.2764  1.2195
16419SOL     OW53618   2.683   7.853   9.329 -0.2501  0.1457 -0.2957
16419SOL    HW153619   2.746   7.881   9.395  1.2824  1.0005 -2.0264
16419SOL    HW253620   2.695   7.758   9.323 -2.2394 -0.3784  2.3861
16420SOL     OW53621   6.672   0.070   4.614  0.0491  0.7951  0.6799
16420SOL    HW153622   6.765   0.078   4.637  0.0428 -0.2952  1.1397
16420SOL    HW253623   6.669   0.088   4.520  0.7001  0.9633  0.6838
16421SOL     OW53624   5.925   2.210   7.681 -0.3189 -0.3021  0.1662
16421SOL    HW153625   5.917   2.237   7.590  0.1718 -0.9826 -0.0849
16421SOL    HW253626   6.002   2.154   7.683  0.6191  0.9620  1.3097
16422SOL     OW53627   8.395   5.217   8.082  0.5859 -0.0216 -0.1256
16422SOL    HW153628   8.355   5.234   8.168  1.3040  0.0028  0.2095
16422SOL    HW253629   8.453   5.291   8.067  1.2459 -0.5383 -0.1599
16423SOL     OW53630   6.396   0.037   1.992 -0.1646  0.6097  0.5253
16423SOL    HW153631   6.360   0.066   1.909 -1.1607 -1.3543  0.2318
16423SOL    HW253632   6.329   0.058   2.057  0.1682  1.1663  0.7063
16424SOL     OW53633   7.957   2.691   4.517  0.0756  0.0330 -0.2462
16424SOL    HW153634   7.895   2.748   4.562 -0.5819  0.0941 -1.2054
16424SOL    HW253635   7.913   2.666   4.437  0.8044 -0.9399 -0.3604
16425SOL     OW53636   3.685   4.544   6.694  0.0669  0.0839  0.0583
16425SOL    HW153637   3.600   4.563   6.734 -0.0022  0.7531 -0.4098
16425SOL    HW253638   3.730   4.628   6.692  0.8974 -0.3289  0.6427
16426SOL     OW53639   6.177   5.617   4.905 -0.2954  0.0803 -0.1708
16426SOL    HW153640   6.091   5.659   4.907 -0.2544  0.2667 -1.4528
16426SOL    HW253641   6.170   5.553   4.834  1.0887  1.1767 -1.3413
16427SOL     OW53642  10.797   4.048   4.091 -0.3735 -0.4508 -0.3876
16427SOL    HW153643  10.805   4.091   4.005 -0.8109 -0.1292 -0.2694
16427SOL    HW253644  10.733   4.100   4.138 -1.6565 -1.8023 -0.5830
16428SOL     OW53645   9.951   6.036  10.568 -0.1132 -0.1286 -0.0161
16428SOL    HW153646   9.968   5.943  10.584  1.8387  0.0304 -0.8758
16428SOL    HW253647   9.992   6.053  10.483  1.7036  2.0261  1.1871
16429SOL     OW53648   4.899   5.179   2.156  0.1717 -0.7548  0.1241
16429SOL    HW153649   4.908   5.093   2.197  0.3155 -0.2606  1.1590
16429SOL    HW253650   4.805   5.197   2.157  0.2507 -0.3706  1.0373
16430SOL     OW53651   7.816   0.163   8.173 -0.5299  0.4319  0.2451
16430SOL    HW153652   7.817   0.068   8.163 -0.5337  0.5066 -0.6175
16430SOL    HW253653   7.906   0.190   8.154 -0.5849  0.6199  0.2497
16431SOL     OW53654   9.588   6.284   6.493  0.5287 -0.5883 -0.0049
16431SOL    HW153655   9.590   6.303   6.400  0.0099 -0.3835  0.0206
16431SOL    HW253656   9.670   6.321   6.527 -0.7812  2.5072  0.1881
16432SOL     OW53657   6.102   3.683   8.054 -0.5932 -0.0398  0.1709
16432SOL    HW153658   6.187   3.717   8.082 -0.0055 -0.1534 -1.3887
16432SOL    HW253659   6.038   3.741   8.096  0.1795 -0.7101  2.3820
16433SOL     OW53660   0.135   6.574   3.978 -0.5198  0.3961 -0.1197
16433SOL    HW153661   0.180   6.507   4.028  0.0439  0.8677  0.0108
16433SOL    HW253662   0.148   6.549   3.886 -2.7673 -1.2690 -0.0666
16434SOL     OW53663   2.919   4.687   8.956  0.1153 -0.1501  0.4336
16434SOL    HW153664   2.893   4.773   8.988 -2.6571 -0.1239 -1.5168
16434SOL    HW253665   2.879   4.626   9.018 -0.1125 -0.0749  0.3592
16435SOL     OW53666   8.119   2.927   7.858  0.3518  0.2126 -0.1591
16435SOL    HW153667   8.084   2.987   7.791 -2.5951 -1.4845 -0.2904
16435SOL    HW253668   8.065   2.848   7.850  3.2756 -2.0549  0.8251
16436SOL     OW53669   9.569  10.822  10.161 -0.1567 -0.1794  0.4900
16436SOL    HW153670   9.560  10.727  10.163  0.9146 -0.2884  0.8963
16436SOL    HW253671   9.522  10.849  10.083 -1.5956 -0.9055  1.0754
16437SOL     OW53672   7.317   2.367   7.759  0.0038 -0.2944  0.0163
16437SOL    HW153673   7.334   2.390   7.668 -2.0742 -0.3331 -0.4303
16437SOL    HW253674   7.349   2.442   7.809 -1.6466  1.1457 -1.0034
16438SOL     OW53675   1.450   3.520   0.208 -0.4499  0.2843 -0.0694
16438SOL    HW153676   1.384   3.589   0.199 -1.2117 -0.2278  1.1985
16438SOL    HW253677   1.504   3.548   0.282  0.0214  0.1396 -0.3594
16439SOL     OW53678   4.721   3.519   2.158 -0.7829 -0.2895 -0.4307
16439SOL    HW153679   4.715   3.439   2.105 -0.0263 -0.7667  0.1842
16439SOL    HW253680   4.631   3.553   2.160 -0.9624 -0.6792 -1.3673
16440SOL     OW53681   8.709   5.557  10.021 -0.2080 -0.1461  0.4753
16440SOL    HW153682   8.678   5.488   9.962  0.8375  0.9281 -1.4083
16440SOL    HW253683   8.645   5.628  10.011  0.5626  0.4650 -0.2449
16441SOL     OW53684  10.032   1.756   2.268  0.1811 -0.2151  0.6208
16441SOL    HW153685   9.940   1.776   2.252  0.0069 -0.2474  1.4991
16441SOL    HW253686  10.039   1.753   2.364  1.4117  1.3096  0.6232
16442SOL     OW53687   9.829   3.809   5.674  0.1052  0.0756 -0.2838
16442SOL    HW153688   9.826   3.862   5.753  1.3447 -0.2660  0.0122
16442SOL    HW253689   9.922   3.802   5.653 -0.1217 -0.8662 -1.0685
16443SOL     OW53690   1.315   4.326   8.932 -0.3147 -0.1170 -0.0086
16443SOL    HW153691   1.311   4.385   9.007 -0.2751 -0.3556  0.1808
16443SOL    HW253692   1.366   4.374   8.867 -0.1461 -0.0050  0.2028
16444SOL     OW53693   9.521   0.095   7.413  0.2314  0.8756 -0.3729
16444SOL    HW153694   9.430   0.083   7.387  0.0519  2.1028 -0.3908
16444SOL    HW253695   9.521   0.176   7.464  1.5418  1.7252 -1.6431
16445SOL     OW53696   5.939   7.213   8.847  1.3672  0.0241 -0.3858
16445SOL    HW153697   5.974   7.207   8.758 -1.1637 -0.2237 -1.4264
16445SOL    HW253698   5.856   7.259   8.838  0.3354 -1.2856  1.6236
16446SOL     OW53699   9.401   2.633   4.238 -0.8953 -0.4062  0.3229
16446SOL    HW153700   9.486   2.625   4.281 -0.7574 -2.2613 -0.2056
16446SOL    HW253701   9.359   2.548   4.254 -1.9836 -0.1012 -0.8126
16447SOL     OW53702   2.193   2.670   6.304  0.1977 -0.0500  0.3391
16447SOL    HW153703   2.141   2.734   6.255  2.4546  2.0315  0.4408
16447SOL    HW253704   2.135   2.642   6.375 -1.6533  0.1184 -1.0312
16448SOL     OW53705   1.316   1.556   7.377  0.1851  1.2958  0.3903
16448SOL    HW153706   1.254   1.581   7.446 -1.9299 -0.9039 -0.5410
16448SOL    HW253707   1.265   1.563   7.296 -0.0132 -3.3416 -0.1621
16449SOL     OW53708   7.031   7.059   4.546  0.6915 -0.4307 -0.1523
16449SOL    HW153709   7.003   6.990   4.606 -0.4644  0.8570  0.8470
16449SOL    HW253710   6.972   7.051   4.471  1.1159 -1.0434 -0.4314
16450SOL     OW53711   1.557   5.256   3.875  0.2584  0.4567  0.2558
16450SOL    HW153712   1.523   5.345   3.862  2.6618  1.3663 -0.3742
16450SOL    HW253713   1.592   5.232   3.789 -1.4176 -1.6561  0.0807
16451SOL     OW53714   0.910  10.086   8.184  0.0648 -0.3847 -0.2220
16451SOL    HW153715   0.927  10.173   8.146 -0.5598  0.6123  1.6427
16451SOL    HW253716   0.890  10.031   8.109  1.3837  0.8554 -1.5456
16452SOL     OW53717   3.340   3.568   5.996 -0.3413 -0.3075 -0.2683
16452SOL    HW153718   3.316   3.497   6.055 -0.3574  0.1074  0.2300
16452SOL    HW253719   3.278   3.638   6.015  0.4417  0.2972  0.1214
16453SOL     OW53720   6.927  10.518   1.163  0.8039 -0.4949  0.0295
16453SOL    HW153721   6.910  10.546   1.253  1.8760 -2.2629  0.8525
16453SOL    HW253722   7.014  10.552   1.143  0.8145 -0.6005 -0.1050
16454SOL     OW53723   7.814   9.964   4.564 -0.1211 -0.0672  0.0409
16454SOL    HW153724   7.882   9.905   4.534 -2.3740 -3.4942  1.0859
16454SOL    HW253725   7.850  10.003   4.644  1.4021  0.0275 -0.6499
16455SOL     OW53726   8.887   5.411   2.301  0.1600 -0.5010 -0.3357
16455SOL    HW153727   8.837   5.329   2.307 -0.3349 -0.1133  1.5143
16455SOL    HW253728   8.844   5.461   2.232 -1.5228 -0.5392  0.6332
16456SOL     OW53729  10.835   3.443   1.635 -0.4500  0.0746 -0.5180
16456SOL    HW153730  10.857   3.428   1.543 -4.9465  0.2531 -1.8766
16456SOL    HW253731  10.782   3.523   1.634 -0.8536 -0.0507  2.2314
16457SOL     OW53732  10.395   7.631   6.858  0.2113 -0.2251  0.7639
16457SOL    HW153733  10.354   7.544   6.854 -1.0555  0.3879 -1.6315
16457SOL    HW253734  10.419   7.650   6.767  0.8737  1.7361  1.3100
16458SOL     OW53735  10.363   2.820   4.863 -0.2595  0.0085  0.3609
16458SOL    HW153736  10.338   2.767   4.787  0.3266  0.3909 -0.1033
16458SOL    HW253737  10.451   2.790   4.885 -0.7069 -0.6381  1.3830
16459SOL     OW53738   8.467   5.841  10.640  0.4902  0.3143 -0.1608
16459SOL    HW153739   8.512   5.833  10.725 -0.9926  1.4663  0.7841
16459SOL    HW253740   8.446   5.751  10.615  1.3120 -0.0663  0.4928
16460SOL     OW53741   5.288   3.457   2.698  0.0026  0.0376  0.0684
16460SOL    HW153742   5.197   3.439   2.722 -0.5090  2.0437 -0.1846
16460SOL    HW253743   5.316   3.524   2.760  0.3931  1.4145 -1.5097
16461SOL     OW53744   4.968   5.718   0.598 -0.2282 -0.0748  0.6649
16461SOL    HW153745   4.912   5.643   0.581 -2.6999  2.3396 -3.5592
16461SOL    HW253746   5.033   5.717   0.528  0.7910  0.8305  1.5447
16462SOL     OW53747   5.386   5.689   0.507  0.2854  0.0327 -0.2377
16462SOL    HW153748   5.459   5.716   0.564 -0.9450  1.0027  0.9651
16462SOL    HW253749   5.426   5.631   0.443  2.1379  0.6073  0.3170
16463SOL     OW53750   3.184   9.695   6.977 -0.2158 -0.4178 -0.1348
16463SOL    HW153751   3.123   9.715   7.048  0.7254  0.8577  0.3491
16463SOL    HW253752   3.252   9.762   6.984  0.6076 -1.0803 -1.4113
16464SOL     OW53753   1.369   4.925   0.587  0.4268  0.3149  0.2550
16464SOL    HW153754   1.451   4.894   0.549 -0.6194 -0.6007 -1.4006
16464SOL    HW253755   1.319   4.846   0.604  0.3668  0.7822  2.5352
16465SOL     OW53756   9.958   9.714   0.984  0.4855 -0.1248 -0.1296
16465SOL    HW153757   9.914   9.632   0.961  1.5008 -1.1158  1.3329
16465SOL    HW253758   9.903   9.782   0.945 -1.2065 -1.4200 -0.1167
16466SOL     OW53759   3.003   3.865   1.097  0.1473  0.1600  0.0901
16466SOL    HW153760   3.092   3.860   1.132 -0.0843  0.0860  0.6792
16466SOL    HW253761   3.014   3.894   1.006  0.8037 -0.3092  0.0153
16467SOL     OW53762   2.378   7.005   7.881 -0.1198  0.1250 -0.1607
16467SOL    HW153763   2.336   7.078   7.925 -0.0526 -0.5276  1.0335
16467SOL    HW253764   2.310   6.938   7.874  0.2919 -0.3676  0.4038
16468SOL     OW53765   8.731   7.029  10.449  0.0529  0.0182 -0.5798
16468SOL    HW153766   8.765   7.026  10.538 -0.0189  1.2483 -0.4926
16468SOL    HW253767   8.690   7.115  10.442  1.2690  0.5112 -2.2317
16469SOL     OW53768   6.608   9.733   3.958  0.0145 -0.8141  0.3183
16469SOL    HW153769   6.656   9.801   4.006  0.9465  0.5899 -2.3841
16469SOL    HW253770   6.668   9.705   3.889 -1.3175 -2.5815 -0.2011
16470SOL     OW53771   5.455   1.822   7.490 -0.0219  0.2810 -0.5987
16470SOL    HW153772   5.414   1.860   7.568 -0.5688 -0.9670 -0.2577
16470SOL    HW253773   5.384   1.780   7.443  0.3841  0.6440 -1.5620
16471SOL     OW53774   5.990   1.091   0.953  0.1281  0.3575 -0.7720
16471SOL    HW153775   5.975   1.156   0.885  0.5007  2.0353  0.6999
16471SOL    HW253776   5.904   1.054   0.971 -0.4818  2.0735 -0.0420
16472SOL     OW53777   1.036   2.046   7.616 -0.2678  0.3854 -0.2780
16472SOL    HW153778   1.110   2.102   7.641 -0.4866  0.9229 -0.7962
16472SOL    HW253779   0.960   2.102   7.627 -0.9295 -0.9442  2.8144
16473SOL     OW53780   5.531   0.929   1.509  0.1181 -0.4299 -0.0312
16473SOL    HW153781   5.535   0.885   1.423  0.8324 -0.6756  0.1222
16473SOL    HW253782   5.575   0.868   1.569  0.0925 -0.0203  0.4065
16474SOL     OW53783   2.243   2.638   3.569 -0.0995 -0.0391 -0.1186
16474SOL    HW153784   2.269   2.559   3.616 -0.9695 -0.6854 -0.6839
16474SOL    HW253785   2.260   2.709   3.630  0.8347 -0.6419  0.3441
16475SOL     OW53786   0.965   2.964   6.909 -0.1328  0.0786 -0.8872
16475SOL    HW153787   1.030   3.001   6.969 -1.2724 -0.0526  0.4745
16475SOL    HW253788   1.015   2.901   6.856  0.8185 -0.2118  0.2952
16476SOL     OW53789   4.144   1.131   5.455  0.3509  0.1348 -0.5283
16476SOL    HW153790   4.180   1.160   5.539 -0.5950  0.9012 -0.3610
16476SOL    HW253791   4.154   1.206   5.397 -3.3128  1.4856  0.2691
16477SOL     OW53792   8.930   3.734   8.162 -0.7532  0.0999  1.0838
16477SOL    HW153793   8.876   3.665   8.201 -0.3189  0.0608  1.6361
16477SOL    HW253794   8.989   3.687   8.103  0.0493 -0.1145  2.0173
16478SOL     OW53795   7.088   8.183   4.148  0.0849 -0.0002 -0.3337
16478SOL    HW153796   7.010   8.230   4.117  0.7797 -0.2713 -2.7046
16478SOL    HW253797   7.055   8.102   4.185 -0.8250  0.2847 -0.5087
16479SOL     OW53798   1.971   9.287   3.916  0.1059  0.4558  0.7710
16479SOL    HW153799   2.019   9.362   3.881 -0.8246  0.3529 -0.8164
16479SOL    HW253800   1.967   9.225   3.843 -0.3307 -0.5577  1.6309
16480SOL     OW53801  10.712   3.558  10.524  0.8062 -0.3971 -0.2253
16480SOL    HW153802  10.743   3.639  10.482  0.2604 -0.0099  0.1148
16480SOL    HW253803  10.707   3.495  10.452 -1.0007  0.5008 -0.9378
16481SOL     OW53804   0.468   4.501   0.381  0.4812  0.0425 -0.3123
16481SOL    HW153805   0.393   4.443   0.393 -0.1542  0.8694 -0.1491
16481SOL    HW253806   0.455   4.571   0.445  0.2389  1.3300 -1.7110
16482SOL     OW53807   6.449   9.382   0.866 -0.2178 -0.0062 -0.2803
16482SOL    HW153808   6.408   9.469   0.872  0.0665  0.0978  0.1985
16482SOL    HW253809   6.392   9.326   0.918 -1.1469 -0.3991 -1.6696
16483SOL     OW53810  10.231  10.448   6.594 -0.4849 -0.3234  0.2369
16483SOL    HW153811  10.166  10.411   6.653 -0.8267 -0.6756 -0.3406
16483SOL    HW253812  10.313  10.405   6.618 -0.2470  0.8504  1.6208
16484SOL     OW53813  10.582   0.116   4.985 -0.2607 -0.4203  0.3098
16484SOL    HW153814  10.509   0.177   4.996  1.2711  1.7872 -0.8539
16484SOL    HW253815  10.560   0.066   4.907 -1.1330 -0.7621  0.7612
16485SOL     OW53816   2.810   5.653   2.211  0.2245  0.0561 -0.2276
16485SOL    HW153817   2.889   5.662   2.264  0.2181 -1.9659  0.2069
16485SOL    HW253818   2.739   5.681   2.269  0.2844 -1.5340  0.6655
16486SOL     OW53819  10.227   0.734   4.060  0.1188 -0.0120  0.2642
16486SOL    HW153820  10.155   0.739   4.124 -1.0040 -1.7760 -0.7615
16486SOL    HW253821  10.198   0.788   3.987 -0.0135 -0.4611 -0.0159
16487SOL     OW53822   8.060   3.961   5.260  0.5034  0.5634  0.7744
16487SOL    HW153823   8.032   4.016   5.333  2.2137  1.3525  0.8871
16487SOL    HW253824   8.155   3.976   5.254  0.3588  0.8096 -1.8399
16488SOL     OW53825   5.678   1.572   0.997  0.3699 -0.4240 -0.4415
16488SOL    HW153826   5.637   1.618   1.070  2.2645  0.3952  0.1701
16488SOL    HW253827   5.692   1.483   1.029 -0.8949 -0.7395 -0.6846
16489SOL     OW53828   6.916  10.839   2.900 -0.1579  0.1342  0.0949
16489SOL    HW153829   6.921  10.755   2.854  1.9467  0.7844 -0.9696
16489SOL    HW253830   6.850  10.889   2.852  2.3678  1.0145 -2.7393
16490SOL     OW53831   3.134   7.426   5.790  0.2428 -0.4274  0.0163
16490SOL    HW153832   3.227   7.441   5.804  0.3673  0.4848 -1.5525
16490SOL    HW253833   3.090   7.484   5.852  0.7328  0.2595 -0.2657
16491SOL     OW53834   9.465   2.853   1.873 -0.7443  0.1964  0.1006
16491SOL    HW153835   9.498   2.899   1.796  0.1021 -1.6983 -0.7293
16491SOL    HW253836   9.404   2.788   1.838 -0.5065 -0.5591  1.0368
16492SOL     OW53837   7.564   6.135   8.748 -0.3360  0.0882  0.3979
16492SOL    HW153838   7.634   6.135   8.684 -1.9144 -0.4893 -1.4117
16492SOL    HW253839   7.518   6.218   8.734 -0.7536 -0.0817  0.7157
16493SOL     OW53840   0.477   0.014   5.327 -0.4763  0.1797  0.2402
16493SOL    HW153841   0.443  -0.008   5.414 -0.9036 -0.0603  0.0161
16493SOL    HW253842   0.563   0.053   5.344  0.2753 -1.5541  0.6648
16494SOL     OW53843   5.103  10.482   9.701  0.2908  0.4315  0.2760
16494SOL    HW153844   5.032  10.418   9.706  0.5039  0.2007  0.3776
16494SOL    HW253845   5.086  10.531   9.621 -0.4270  0.9026  0.7075
16495SOL     OW53846   4.784   0.010   6.841 -0.3507 -0.1042 -0.0508
16495SOL    HW153847   4.838   0.029   6.918 -2.2608  2.3964  0.8187
16495SOL    HW253848   4.706  -0.033   6.877 -0.4426 -0.6109 -0.8420
16496SOL     OW53849   4.817   7.789   9.464 -0.4737  0.2937 -0.0199
16496SOL    HW153850   4.836   7.754   9.551 -0.0337  0.3626 -0.0874
16496SOL    HW253851   4.866   7.733   9.404  0.7658  1.3988 -0.0873
16497SOL     OW53852   6.345   8.000  10.305  0.3880 -0.2236 -0.3243
16497SOL    HW153853   6.398   8.017  10.383  1.3392  1.9698 -1.3584
16497SOL    HW253854   6.307   8.086  10.283 -3.0618 -1.5191 -0.0671
16498SOL     OW53855   5.531   5.565   6.523  0.6735 -0.0253  0.2192
16498SOL    HW153856   5.484   5.533   6.446  2.0204  1.8274 -1.4675
16498SOL    HW253857   5.463   5.602   6.579 -0.3252 -1.3427 -0.0733
16499SOL     OW53858   2.087   8.545   0.770 -0.0152 -0.3510 -0.3221
16499SOL    HW153859   2.035   8.610   0.723 -1.9688 -1.3506  0.3691
16499SOL    HW253860   2.053   8.461   0.741 -0.4511 -1.0075  1.9169
16500SOL     OW53861   3.783   1.541   9.721 -0.5098 -0.3987  0.1422
16500SOL    HW153862   3.688   1.530   9.723 -0.6185  0.3578 -0.3569
16500SOL    HW253863   3.798   1.629   9.756  0.0176 -0.5563  0.3273
16501SOL     OW53864   9.453   9.788   7.227  0.0167  0.3497 -0.1479
16501SOL    HW153865   9.531   9.842   7.230 -0.6846  1.3439  0.9060
16501SOL    HW253866   9.390   9.839   7.176  0.6116 -1.2729 -2.6689
16502SOL     OW53867   6.690   2.503   8.325 -0.4895 -0.6254 -0.1333
16502SOL    HW153868   6.681   2.586   8.279 -1.8782 -0.4935  0.3276
16502SOL    HW253869   6.781   2.502   8.355 -0.6319  1.0851  0.4900
16503SOL     OW53870   0.746  10.688   8.407  0.0974  0.3241 -0.0957
16503SOL    HW153871   0.834  10.681   8.370  0.7509  2.3598  0.9734
16503SOL    HW253872   0.722  10.779   8.396 -1.2520  0.1363  1.0082
16504SOL     OW53873   1.945   9.867   5.685 -0.2277 -0.2129 -0.1505
16504SOL    HW153874   2.014   9.810   5.722 -1.0055 -0.5003  0.9187
16504SOL    HW253875   1.917   9.921   5.759 -2.0444 -1.0035 -0.2122
16505SOL     OW53876  10.577   2.927   3.801 -0.0290  0.3016  0.7905
16505SOL    HW153877  10.575   2.961   3.712  0.6662 -0.6623  0.3970
16505SOL    HW253878  10.629   2.847   3.796 -0.0772  0.1655  2.0404
16506SOL     OW53879   7.179   7.197   5.669 -0.2668 -0.0484  0.3558
16506SOL    HW153880   7.102   7.247   5.640 -0.0592 -0.2459 -0.5413
16506SOL    HW253881   7.244   7.209   5.600 -0.1398 -1.4087  0.2140
16507SOL     OW53882   5.864   3.098   9.173  0.2509 -0.3281  0.3872
16507SOL    HW153883   5.792   3.036   9.184 -0.2664  0.1501 -0.2078
16507SOL    HW253884   5.942   3.051   9.204  0.1936 -1.9721 -1.7126
16508SOL     OW53885   3.976   7.005   6.977 -0.3800 -0.1158 -0.2649
16508SOL    HW153886   3.946   6.937   7.037 -0.4841  0.1962  0.0424
16508SOL    HW253887   4.056   6.970   6.939  0.2667  0.1087  0.8489
16509SOL     OW53888   9.356   1.703   8.210 -0.7978 -0.6738  0.6551
16509SOL    HW153889   9.399   1.783   8.180 -1.1930 -0.6191  0.2255
16509SOL    HW253890   9.416   1.666   8.274 -0.4249 -0.2435  0.5573
16510SOL     OW53891   1.543   5.211   3.585  0.3783  0.0709 -0.4994
16510SOL    HW153892   1.534   5.172   3.498  1.2407 -0.1172 -0.5060
16510SOL    HW253893   1.478   5.281   3.586 -1.4492 -1.5301 -0.3712
16511SOL     OW53894   7.668  10.294  10.390 -0.1938  0.2559 -0.6184
16511SOL    HW153895   7.649  10.223  10.328  1.5251  0.1429 -1.0802
16511SOL    HW253896   7.692  10.368  10.334  0.9830  0.2739 -0.1359
16512SOL     OW53897  10.505   6.703   1.399 -0.0236 -0.4925 -0.2761
16512SOL    HW153898  10.526   6.761   1.326 -0.7348 -0.3535 -0.3781
16512SOL    HW253899  10.576   6.639   1.400  0.3140 -0.1299 -0.7054
16513SOL     OW53900   7.146  10.959   5.714  0.2838  0.0450  0.2277
16513SOL    HW153901   7.119  10.934   5.802 -0.6781  0.6277  0.1185
16513SOL    HW253902   7.189  11.044   5.725 -1.8343  1.2236 -0.0936
16514SOL     OW53903   2.778   5.729   7.020  0.4038 -1.4037  0.9110
16514SOL    HW153904   2.797   5.812   6.977 -3.6706 -0.3531  0.6840
16514SOL    HW253905   2.782   5.749   7.114 -0.3854 -0.9473  0.8580
16515SOL     OW53906  10.958   8.053   0.571 -0.3374 -0.1373 -0.0454
16515SOL    HW153907  11.014   8.102   0.511  0.2137  0.0083  0.5711
16515SOL    HW253908  10.881   8.110   0.583  0.0780  0.3626  0.2864
16516SOL     OW53909   8.498  10.661   9.468  0.3294 -0.5588  0.4987
16516SOL    HW153910   8.407  10.645   9.493  0.1793  0.0560  0.3743
16516SOL    HW253911   8.504  10.756   9.461  1.0189 -0.5893  0.6337
16517SOL     OW53912   8.877  10.602   3.448  0.0888  0.0684  0.7725
16517SOL    HW153913   8.868  10.534   3.514 -1.9290 -1.3225 -0.8442
16517SOL    HW253914   8.791  10.644   3.444 -0.1417 -0.5116 -1.5970
16518SOL     OW53915   3.015   8.301   1.919  0.3767  0.4385  0.0055
16518SOL    HW153916   2.970   8.377   1.882  0.0167  0.3056  0.1629
16518SOL    HW253917   2.973   8.225   1.877 -0.6964  0.2439  1.3462
16519SOL     OW53918  10.706   0.299   8.517  0.0293  0.3024 -0.4426
16519SOL    HW153919  10.778   0.350   8.481 -1.7246  1.6477 -2.3281
16519SOL    HW253920  10.663   0.261   8.440 -1.0353 -0.7902  0.6385
16520SOL     OW53921   8.429   0.996  10.182  0.2583  0.1649  0.6304
16520SOL    HW153922   8.473   1.011  10.098 -0.3690 -0.8235  0.1106
16520SOL    HW253923   8.338   0.977  10.159  0.7326 -3.4390  1.2188
16521SOL     OW53924  10.056   8.421   5.173  0.4629 -0.7039 -0.0821
16521SOL    HW153925  10.071   8.472   5.094  0.2194 -0.8417 -0.2214
16521SOL    HW253926  10.115   8.346   5.165 -0.4374 -1.3757 -0.7469
16522SOL     OW53927   2.802   9.760   8.016  0.1215 -0.2612 -0.1696
16522SOL    HW153928   2.799   9.751   8.111  0.8336  2.3846  0.1674
16522SOL    HW253929   2.735   9.825   7.995  0.9685  0.2724 -1.3239
16523SOL     OW53930   2.343   7.625   5.820  0.2668  0.4168 -0.1330
16523SOL    HW153931   2.302   7.688   5.762  1.5715  0.4015 -1.1289
16523SOL    HW253932   2.308   7.646   5.907 -1.9129  0.2752 -0.9179
16524SOL     OW53933   5.892   5.961   2.319  0.2726 -0.0882  0.0696
16524SOL    HW153934   5.815   5.954   2.376 -0.8554  1.8098 -1.1351
16524SOL    HW253935   5.956   6.008   2.372  0.0520 -0.3062  0.5375
16525SOL     OW53936   0.632   3.315   8.769  0.2174 -0.3803  0.0855
16525SOL    HW153937   0.600   3.270   8.847  1.8906 -0.2092  0.9094
16525SOL    HW253938   0.721   3.281   8.756 -0.4513 -1.3919 -2.5452
16526SOL     OW53939   9.173   9.599   6.387  0.1426 -0.0691  0.0598
16526SOL    HW153940   9.263   9.587   6.356 -0.0871 -2.0384  0.0048
16526SOL    HW253941   9.149   9.514   6.425 -0.9307  1.1050  2.1542
16527SOL     OW53942   0.781   9.681   2.348 -0.0847  0.3744 -0.0550
16527SOL    HW153943   0.815   9.602   2.390 -0.7371 -1.1338 -2.1656
16527SOL    HW253944   0.857   9.718   2.302 -0.3133 -0.6204 -1.3031
16528SOL     OW53945   8.621  10.727   8.912 -0.4490 -0.5008  0.3593
16528SOL    HW153946   8.619  10.801   8.973 -1.7697  0.5994 -0.9551
16528SOL    HW253947   8.529  10.704   8.900 -0.3148 -0.0947 -1.8738
16529SOL     OW53948   5.800   2.180   4.368 -0.1093  0.0220 -0.8909
16529SOL    HW153949   5.802   2.168   4.273 -0.0806 -1.9006 -0.6753
16529SOL    HW253950   5.844   2.103   4.403 -0.1390  0.6957  0.6937
16530SOL     OW53951   9.695  10.509   0.458 -0.2964  0.4147  1.1980
16530SOL    HW153952   9.751  10.524   0.382  0.1199  1.4640  1.6978
16530SOL    HW253953   9.687  10.414   0.464 -1.9304  0.2933 -1.3056
16531SOL     OW53954   7.077   6.809  11.056  0.3981 -0.1737 -0.0302
16531SOL    HW153955   7.126   6.859  11.121  2.7419 -2.0841 -0.1769
16531SOL    HW253956   7.027   6.746  11.108  0.6798 -0.3671  0.0086
16532SOL     OW53957   7.586   9.232   3.434  0.0687  0.0950  0.0812
16532SOL    HW153958   7.513   9.187   3.391  0.7868 -2.4710  1.3389
16532SOL    HW253959   7.600   9.311   3.382 -0.4322 -1.7651 -3.1476
16533SOL     OW53960   8.648   9.664   5.041 -0.4997 -0.0601 -0.2535
16533SOL    HW153961   8.553   9.656   5.027 -0.2274 -0.2394 -2.2144
16533SOL    HW253962   8.682   9.576   5.025  0.3379  0.6708 -2.9341
16534SOL     OW53963   3.392   3.814   0.876  0.0782 -0.3326 -0.8331
16534SOL    HW153964   3.326   3.839   0.811 -0.0052  0.8317 -0.3253
16534SOL    HW253965   3.469   3.789   0.823  0.9758  3.2231 -1.4705
16535SOL     OW53966   9.655   8.308   5.673  0.1719  0.6167  0.3749
16535SOL    HW153967   9.720   8.239   5.686  1.0275  1.1937 -0.6928
16535SOL    HW253968   9.697   8.387   5.707  0.2170  1.0737 -0.7016
16536SOL     OW53969   4.597   6.524   1.962  0.0472 -0.0304  0.1054
16536SOL    HW153970   4.503   6.540   1.972 -0.0119  0.3116 -0.8934
16536SOL    HW253971   4.602   6.443   1.913  0.2673  0.1871 -0.2331
16537SOL     OW53972  10.690   8.325   4.283  0.8181  0.3211  0.0250
16537SOL    HW153973  10.693   8.417   4.310  0.9145  0.5641 -0.7899
16537SOL    HW253974  10.623   8.286   4.339  0.5467  0.9639  0.1558
16538SOL     OW53975   5.810   5.059   1.450  0.7231  0.1062 -0.1507
16538SOL    HW153976   5.753   4.999   1.402  1.1056  0.7210 -1.4205
16538SOL    HW253977   5.838   5.010   1.527  0.6641 -1.1698 -0.9210
16539SOL     OW53978   0.082   1.864   0.060  0.0049 -0.4674 -0.0591
16539SOL    HW153979   0.105   1.947   0.102  0.4175 -0.1886 -0.8235
16539SOL    HW253980   0.119   1.870  -0.028  1.1920 -2.0124  0.2953
16540SOL     OW53981   4.718   9.567   6.861 -0.2430  0.0427  0.2806
16540SOL    HW153982   4.673   9.559   6.777  0.3762  1.1553 -0.1703
16540SOL    HW253983   4.804   9.528   6.846 -0.0973  0.3273  0.3677
16541SOL     OW53984   7.606   1.063   6.952  0.0100 -0.4167 -0.4697
16541SOL    HW153985   7.678   1.114   6.990 -0.1634 -0.3005 -0.2952
16541SOL    HW253986   7.649   0.990   6.909  0.0969 -2.1872  2.3837
16542SOL     OW53987   5.463  10.538   5.183  0.0894  0.1394  0.3405
16542SOL    HW153988   5.432  10.605   5.244 -1.7774  0.3620 -0.7662
16542SOL    HW253989   5.487  10.586   5.104  1.8915 -0.2095  0.6309
16543SOL     OW53990   0.128   2.889   4.845  0.4488  0.7350  0.2347
16543SOL    HW153991   0.196   2.947   4.810 -0.0623  1.4737  0.4410
16543SOL    HW253992   0.155   2.873   4.936  1.8070 -1.2321 -0.4493
16544SOL     OW53993   1.087   9.687   1.612 -0.0643  0.2491 -0.7162
16544SOL    HW153994   1.043   9.768   1.584 -1.7086 -0.7863 -1.2567
16544SOL    HW253995   1.096   9.697   1.707 -2.3514  0.1357 -0.4266
16545SOL     OW53996  10.244   4.609   9.773 -0.5242  0.0617 -0.0364
16545SOL    HW153997  10.257   4.515   9.760 -1.9125 -0.2281  0.4700
16545SOL    HW253998  10.245   4.620   9.868  2.0548  0.9683 -0.1072
16546SOL     OW53999   3.843   1.862   9.362  0.2498 -0.1125  0.3121
16546SOL    HW154000   3.779   1.886   9.295  2.2430 -1.8743 -2.5013
16546SOL    HW254001   3.896   1.941   9.374  0.2034  0.0844 -0.6818
16547SOL     OW54002   4.584   5.248   2.613  0.3217  0.0595  0.1605
16547SOL    HW154003   4.504   5.300   2.606 -0.0935  0.3016  4.2043
16547SOL    HW254004   4.554   5.162   2.640  1.3444  0.4710  2.9274
16548SOL     OW54005   0.482  10.433   6.164 -0.2609  0.6501 -0.3619
16548SOL    HW154006   0.575  10.452   6.153 -0.4363  1.4755 -0.4798
16548SOL    HW254007   0.450  10.419   6.074  0.0772 -1.3560 -0.2247
16549SOL     OW54008   3.170   3.798   5.374 -0.2430 -0.6480 -0.8833
16549SOL    HW154009   3.266   3.809   5.378 -0.2019 -0.6192 -1.7092
16549SOL    HW254010   3.157   3.720   5.320 -0.6990  0.0080 -1.7529
16550SOL     OW54011   4.414   7.817   0.447  0.6521  0.5234 -0.4656
16550SOL    HW154012   4.399   7.741   0.390  0.0252  0.5487 -0.3400
16550SOL    HW254013   4.498   7.853   0.417  1.2206 -0.5114 -0.2040
16551SOL     OW54014   7.361   5.960   4.722 -0.0570 -0.1322  0.8569
16551SOL    HW154015   7.268   5.979   4.709  0.2906  0.5610 -0.9050
16551SOL    HW254016   7.375   5.876   4.679  0.3439  0.3227  0.0717
16552SOL     OW54017   0.071   1.429   2.454 -0.0310 -0.1866  0.3249
16552SOL    HW154018   0.114   1.470   2.379 -0.8929  1.1922  0.5318
16552SOL    HW254019   0.125   1.353   2.475  1.9153  1.0999  0.1900
16553SOL     OW54020   1.231   3.158   9.192  0.4244  0.1031  0.0994
16553SOL    HW154021   1.285   3.103   9.249  1.1058  0.5385 -0.1129
16553SOL    HW254022   1.145   3.159   9.234 -0.1266 -2.4909 -0.7540
16554SOL     OW54023   8.394   7.467   0.276 -0.5798 -0.2723 -0.2317
16554SOL    HW154024   8.369   7.506   0.192 -0.7920 -0.2266 -0.1481
16554SOL    HW254025   8.479   7.505   0.297 -0.7761  0.1248 -0.1597
16555SOL     OW54026  10.704   8.148   5.670  0.6989  0.1811  0.4148
16555SOL    HW154027  10.677   8.207   5.740  0.1700 -0.0916  0.4433
16555SOL    HW254028  10.636   8.080   5.668  0.6497  0.2467 -0.4287
16556SOL     OW54029   8.022   2.729   8.640  0.3964 -0.7472 -0.1631
16556SOL    HW154030   8.014   2.670   8.565  0.0920  0.4145 -1.0654
16556SOL    HW254031   7.946   2.787   8.634  0.7071 -0.2331  0.6848
16557SOL     OW54032   1.172   9.565   8.065  0.4864  0.1993 -0.0172
16557SOL    HW154033   1.142   9.503   7.999  0.2235  0.6280 -0.3137
16557SOL    HW254034   1.198   9.511   8.139 -1.3066 -0.2024  0.3683
16558SOL     OW54035   9.454   9.196   7.699 -0.0400 -0.1778  0.3450
16558SOL    HW154036   9.446   9.165   7.789  3.4456  2.0012  1.5861
16558SOL    HW254037   9.543   9.171   7.673 -0.5779  0.2343 -2.1470
16559SOL     OW54038   5.842  10.682   8.896  0.3453  0.1236 -0.1471
16559SOL    HW154039   5.769  10.624   8.873 -1.9599  2.1878  1.5358
16559SOL    HW254040   5.919  10.625   8.894 -1.2670 -2.1746 -1.9334
16560SOL     OW54041   0.698   0.949   8.120 -0.4034  0.0647 -0.1040
16560SOL    HW154042   0.677   0.945   8.027 -1.7260 -1.1954  0.2195
16560SOL    HW254043   0.766   0.883   8.132  1.3268  1.6645 -0.4957
16561SOL     OW54044   1.575   4.653   8.667  0.1696 -0.3262  0.4555
16561SOL    HW154045   1.575   4.668   8.761 -0.8599 -0.5137  0.4957
16561SOL    HW254046   1.490   4.612   8.649  0.8803 -1.5219 -0.3569
16562SOL     OW54047   7.414   5.198   5.183 -0.0559 -0.0484  0.0061
16562SOL    HW154048   7.476   5.205   5.255 -0.6459  0.4643  0.4717
16562SOL    HW254049   7.387   5.106   5.182 -0.9967  0.1937  1.2465
16563SOL     OW54050   9.476   0.788   5.156 -0.0994  0.4335  0.2914
16563SOL    HW154051   9.422   0.815   5.231 -0.2060 -0.5545  0.5873
16563SOL    HW254052   9.539   0.859   5.145 -1.2200  1.4301  0.1703
16564SOL     OW54053   2.013   2.406   2.451 -0.0212 -0.4184 -0.2043
16564SOL    HW154054   1.964   2.470   2.399  0.8609  0.2951 -0.1720
16564SOL    HW254055   2.087   2.455   2.486  0.5837 -1.4251 -0.0387
16565SOL     OW54056   1.849   6.476   8.664 -0.4408 -0.0810 -0.2297
16565SOL    HW154057   1.879   6.432   8.744 -3.0426 -0.3513  0.6987
16565SOL    HW254058   1.826   6.564   8.692 -0.7688  0.0259 -0.8208
16566SOL     OW54059   9.801   4.933   1.774 -0.1893 -0.0872  0.4034
16566SOL    HW154060   9.793   4.918   1.680  0.8348  0.3283  0.2318
16566SOL    HW254061   9.887   4.897   1.797 -0.0248  0.6433  0.9974
16567SOL     OW54062   2.091   8.166   5.628  0.0437 -0.3707 -0.7579
16567SOL    HW154063   2.170   8.128   5.668 -0.2605 -0.6367 -0.4103
16567SOL    HW254064   2.066   8.103   5.560  0.2035 -0.2208 -0.9582
16568SOL     OW54065   0.632   5.750   0.573 -0.5027  0.2694  0.0818
16568SOL    HW154066   0.582   5.812   0.626  0.7426  0.7519  0.7548
16568SOL    HW254067   0.566   5.698   0.527 -1.6084  0.5252  1.3227
16569SOL     OW54068   4.314   2.955   5.880 -0.2687  0.4763  0.5390
16569SOL    HW154069   4.261   3.032   5.900  1.0154  1.7781 -0.7975
16569SOL    HW254070   4.367   2.940   5.958  1.5527  2.8016 -0.1218
16570SOL     OW54071   1.297   6.219   2.788 -0.1904 -0.2456  0.6074
16570SOL    HW154072   1.289   6.130   2.754  1.8565 -0.8324  1.5474
16570SOL    HW254073   1.303   6.209   2.883 -1.9770  1.0907  0.9245
16571SOL     OW54074   4.451   8.336   3.382  0.1616  0.2388  0.4046
16571SOL    HW154075   4.364   8.298   3.369 -0.5836  2.2192 -0.8276
16571SOL    HW254076   4.478   8.305   3.468 -0.1001 -3.4697 -0.6663
16572SOL     OW54077   4.260   3.158   9.407  0.0873 -0.0915  0.6892
16572SOL    HW154078   4.276   3.122   9.494  1.7192  0.5957  0.6982
16572SOL    HW254079   4.308   3.241   9.405  0.1418 -0.1253 -0.8772
16573SOL     OW54080   2.867   5.517   0.656 -0.0484 -0.2925 -0.1739
16573SOL    HW154081   2.820   5.532   0.738  0.3055  2.7063 -0.4109
16573SOL    HW254082   2.886   5.423   0.656 -0.7878 -0.5338  2.7483
16574SOL     OW54083   4.266   4.305  10.844 -0.0398  0.1239 -0.3782
16574SOL    HW154084   4.353   4.268  10.856 -0.4032 -0.5691  0.1172
16574SOL    HW254085   4.255   4.309  10.749  0.1424 -0.7209 -0.4423
16575SOL     OW54086   6.466  10.812   1.848 -0.4030 -0.3263  0.1081
16575SOL    HW154087   6.472  10.717   1.838  0.5135 -0.2609 -0.1023
16575SOL    HW254088   6.535  10.847   1.791 -0.7817  0.4739  0.1155
16576SOL     OW54089   6.902   0.831   2.739  0.0094  0.5943 -0.6126
16576SOL    HW154090   6.884   0.806   2.648 -0.4316  0.5941 -0.5293
16576SOL    HW254091   6.880   0.924   2.743  0.3007  0.6633 -0.5729
16577SOL     OW54092   4.232   4.266   6.812 -0.0785  0.0459 -0.5446
16577SOL    HW154093   4.168   4.240   6.746  0.3075  0.8361 -1.2533
16577SOL    HW254094   4.222   4.362   6.818 -0.2292 -0.0264  0.6782
16578SOL     OW54095   9.827   6.113   5.910 -0.1503  0.1018  0.2803
16578SOL    HW154096   9.912   6.069   5.920 -0.3652 -0.0880  1.4932
16578SOL    HW254097   9.764   6.042   5.902 -0.2412  0.2358 -0.1992
16579SOL     OW54098   1.619   8.914   5.620  0.3080  0.0091 -0.3923
16579SOL    HW154099   1.552   8.907   5.688 -0.1526 -0.6882 -0.9065
16579SOL    HW254100   1.629   9.009   5.606 -0.2133  0.1306  0.0438
16580SOL     OW54101   7.418   1.349   0.196 -0.1066  0.1865 -0.1246
16580SOL    HW154102   7.457   1.288   0.134  0.1796  0.7120 -0.4674
16580SOL    HW254103   7.417   1.301   0.279 -0.5566 -0.5434 -0.5436
16581SOL     OW54104   1.545   0.428   6.657  0.5304  0.4630 -0.0756
16581SOL    HW154105   1.465   0.456   6.612  1.3457  1.4157 -0.9734
16581SOL    HW254106   1.615   0.444   6.594  1.6338  1.2135  1.2860
16582SOL     OW54107  10.160   4.994   6.786 -0.5904  0.0608 -0.1723
16582SOL    HW154108  10.100   4.951   6.847  0.6899 -1.1065  0.3173
16582SOL    HW254109  10.212   5.053   6.840  1.2731 -1.7528  0.1305
16583SOL     OW54110   9.674   6.090   3.649 -0.0686  0.0096  0.4340
16583SOL    HW154111   9.696   6.109   3.740 -0.5304 -2.3642  1.1043
16583SOL    HW254112   9.660   6.176   3.610  0.7158  1.1243  2.4400
16584SOL     OW54113   5.608   9.155   2.883  0.6810  0.4676  0.0973
16584SOL    HW154114   5.520   9.141   2.918  0.4882  2.0184  0.3163
16584SOL    HW254115   5.604   9.122   2.794 -0.2585  0.8881 -0.0343
16585SOL     OW54116   9.402   8.449   2.322 -0.5615  0.7709  0.6528
16585SOL    HW154117   9.336   8.519   2.326 -0.1964  1.1592 -0.0129
16585SOL    HW254118   9.475   8.487   2.274  0.2006  0.3741  1.4689
16586SOL     OW54119   6.677   6.299   1.435  0.1574  0.0722  0.4104
16586SOL    HW154120   6.753   6.339   1.478  1.8847 -1.8266 -0.7106
16586SOL    HW254121   6.618   6.372   1.418  1.0140  1.3905  2.7157
16587SOL     OW54122   6.474   0.410   9.499 -0.2306  0.2221  0.4495
16587SOL    HW154123   6.547   0.349   9.483  0.3947  1.1041 -0.1215
16587SOL    HW254124   6.486   0.438   9.590 -0.5054 -0.4648  0.7088
16588SOL     OW54125  11.074   4.136   7.276  0.4653  0.0777 -0.4164
16588SOL    HW154126  11.036   4.224   7.272  1.8951  0.9122  1.9574
16588SOL    HW254127  11.124   4.136   7.358  0.6088 -2.9358 -0.4124
16589SOL     OW54128   6.103   6.232   6.035  0.0881  0.2368 -0.3141
16589SOL    HW154129   6.176   6.170   6.025 -0.1655 -0.1592  0.2446
16589SOL    HW254130   6.135   6.312   5.994  2.1487  1.1084  2.6526
16590SOL     OW54131   1.698   7.517   4.749  0.1023  0.0924  0.9275
16590SOL    HW154132   1.674   7.609   4.758 -0.1062  0.3240 -1.4694
16590SOL    HW254133   1.761   7.514   4.678 -2.4371 -1.9085 -1.4982
16591SOL     OW54134   5.859   4.832   2.922  0.3597 -0.4898 -0.3056
16591SOL    HW154135   5.764   4.836   2.926  0.3749  2.6350 -0.3588
16591SOL    HW254136   5.888   4.849   3.012  0.8355  0.3118 -0.5969
16592SOL     OW54137   1.221   5.485   0.867 -0.0935  0.6256 -0.3244
16592SOL    HW154138   1.146   5.545   0.860 -1.1333 -0.4980  0.6586
16592SOL    HW254139   1.181   5.398   0.867  1.1059  0.0381  1.6039
16593SOL     OW54140   8.341   7.315  10.793  0.0958  0.1268  0.9346
16593SOL    HW154141   8.255   7.286  10.764 -0.1712  1.8366 -0.0730
16593SOL    HW254142   8.402   7.255  10.749 -0.5318 -0.9207  1.4448
16594SOL     OW54143   2.614   9.995   6.771  0.8298  0.3332 -0.0562
16594SOL    HW154144   2.595  10.070   6.827 -0.8957 -1.3198  1.7138
16594SOL    HW254145   2.573  10.017   6.688 -1.1325  0.6887  0.9472
16595SOL     OW54146   0.865   5.674  10.059 -0.0949  0.4129 -0.1061
16595SOL    HW154147   0.819   5.757  10.074  0.1149  0.6880 -0.9233
16595SOL    HW254148   0.956   5.700  10.045 -0.2594  0.1849 -1.7432
16596SOL     OW54149  10.496  10.525   0.738  0.2899 -0.1791 -0.1409
16596SOL    HW154150  10.449  10.549   0.658 -0.1860  1.0079  0.4805
16596SOL    HW254151  10.570  10.585   0.742  1.2813 -1.3343 -0.5450
16597SOL     OW54152   7.630  10.263   7.756  0.0913 -0.1971 -0.1183
16597SOL    HW154153   7.703  10.217   7.714 -0.8093 -0.2607 -1.6991
16597SOL    HW254154   7.661  10.352   7.768  0.1357  0.0388 -1.7055
16598SOL     OW54155  10.906   8.349   8.222  0.1337  0.2893 -0.3429
16598SOL    HW154156  10.874   8.295   8.295 -0.1334 -0.0947 -0.7443
16598SOL    HW254157  11.000   8.331   8.218  0.0358 -0.1978 -0.5167
16599SOL     OW54158   4.794   3.424   7.778 -0.7075 -0.4510 -0.3568
16599SOL    HW154159   4.817   3.382   7.695 -1.9576 -1.4205 -0.2401
16599SOL    HW254160   4.800   3.355   7.843 -0.1393  0.2075  0.3089
16600SOL     OW54161   7.667   9.793   3.418  0.3067  0.2391 -0.0674
16600SOL    HW154162   7.706   9.737   3.485  0.1335 -0.6226 -0.6718
16600SOL    HW254163   7.742   9.835   3.375  0.5163 -0.5732 -0.5029
16601SOL     OW54164   4.163   6.919   4.351  0.0905 -0.5871 -0.1546
16601SOL    HW154165   4.181   6.892   4.261  3.9531 -1.9597  0.8348
16601SOL    HW254166   4.179   6.841   4.404 -1.0656  0.4423  1.8640
16602SOL     OW54167   0.232   2.626   8.309 -0.4142 -0.2767  0.1000
16602SOL    HW154168   0.257   2.588   8.224 -0.7053  1.0314 -0.5926
16602SOL    HW254169   0.311   2.618   8.362 -0.1430 -0.8728 -0.3690
16603SOL     OW54170   5.962   7.473   5.439  0.1155 -0.1921 -0.1019
16603SOL    HW154171   5.909   7.394   5.441  0.2474 -0.4894 -3.1179
16603SOL    HW254172   6.052   7.441   5.437  0.1995  0.0513 -0.3268
16604SOL     OW54173   1.348   3.753   1.266  0.8346 -0.1718 -0.0838
16604SOL    HW154174   1.406   3.701   1.322  1.5665  0.2588 -0.4149
16604SOL    HW254175   1.261   3.719   1.283  1.1000 -0.3861  0.9444
16605SOL     OW54176   4.008   9.178   2.450  0.2864  0.1749 -0.2524
16605SOL    HW154177   3.936   9.238   2.472  0.4321 -0.0980  1.0428
16605SOL    HW254178   4.020   9.190   2.356 -0.5930  1.1764 -0.2683
16606SOL     OW54179   9.758   8.603   1.784  0.2777  0.3151 -0.1236
16606SOL    HW154180   9.747   8.623   1.877 -0.0165  2.6868 -0.6084
16606SOL    HW254181   9.804   8.519   1.783  0.6419  0.4237  2.1609
16607SOL     OW54182   3.239   0.874   2.308  0.3057  0.2368  0.1260
16607SOL    HW154183   3.199   0.898   2.224 -1.0819  1.5511  1.1214
16607SOL    HW254184   3.171   0.825   2.354  0.9447 -0.1982  0.6320
16608SOL     OW54185   0.564   3.994   3.312 -0.2217 -0.0887 -0.3245
16608SOL    HW154186   0.532   4.038   3.391  0.5834  0.9303 -0.5413
16608SOL    HW254187   0.519   4.038   3.240  1.0053  0.8110 -0.5787
16609SOL     OW54188   1.346   8.990   1.399  0.0373 -0.1527 -0.2016
16609SOL    HW154189   1.422   9.015   1.452 -0.3745  0.0843  0.2867
16609SOL    HW254190   1.273   9.038   1.439  0.0912  2.0198 -2.4386
16610SOL     OW54191   9.187   1.250   7.463  0.3821 -0.5716  0.0069
16610SOL    HW154192   9.215   1.337   7.493  0.5525 -0.6961  0.2137
16610SOL    HW254193   9.105   1.266   7.416 -0.8228 -0.5491  1.9877
16611SOL     OW54194   7.283   9.318   1.484 -0.3194  0.3944 -0.1831
16611SOL    HW154195   7.325   9.357   1.561  0.4896  2.1743 -1.4638
16611SOL    HW254196   7.331   9.236   1.471 -1.5676 -0.8007  2.1259
16612SOL     OW54197   1.670   4.172   9.424  0.0644 -0.4546 -0.2380
16612SOL    HW154198   1.718   4.173   9.507  0.2816 -0.3186 -0.3625
16612SOL    HW254199   1.597   4.232   9.439  0.5233  0.1575 -0.3829
16613SOL     OW54200   7.051  10.269   9.931 -0.3120 -0.3146 -0.1177
16613SOL    HW154201   7.071  10.197   9.990  0.3426 -0.0644 -0.0337
16613SOL    HW254202   6.959  10.290   9.950 -0.3487 -0.7676  0.2321
16614SOL     OW54203   2.824   7.126  10.295 -0.7497 -0.3051  0.0458
16614SOL    HW154204   2.843   7.105  10.386 -3.0112 -1.6333  0.2639
16614SOL    HW254205   2.788   7.046  10.258 -1.4637  0.6987 -1.5632
16615SOL     OW54206   6.640   0.813   0.478 -0.0848 -0.3500  0.1923
16615SOL    HW154207   6.628   0.796   0.571 -0.6738  1.5343  0.5022
16615SOL    HW254208   6.690   0.738   0.446 -0.9601 -1.6646  1.7472
16616SOL     OW54209   8.773   6.611   2.805 -0.1206 -0.3727  0.0516
16616SOL    HW154210   8.788   6.676   2.737 -1.3080  2.3181  2.1530
16616SOL    HW254211   8.859   6.595   2.843 -0.0097  1.4690  0.6722
16617SOL     OW54212   8.725   3.349   8.861 -0.1270 -0.0838  0.2310
16617SOL    HW154213   8.753   3.388   8.944 -1.1013 -1.8890  1.4762
16617SOL    HW254214   8.775   3.267   8.855 -1.9088 -1.2236  0.3346
16618SOL     OW54215  11.077   2.794   6.493  0.1830 -0.0568 -0.3651
16618SOL    HW154216  11.172   2.793   6.499  0.1530 -3.6136  2.9556
16618SOL    HW254217  11.051   2.875   6.537  1.6161  0.3230 -0.1767
16619SOL     OW54218   3.446   6.775  10.527 -0.3362 -0.2119 -0.2977
16619SOL    HW154219   3.434   6.863  10.564  1.2967  0.6599 -1.6770
16619SOL    HW254220   3.378   6.769  10.460 -1.3004 -0.5644  0.6775
16620SOL     OW54221   7.502   4.216   3.824 -0.2165  0.4324  0.0052
16620SOL    HW154222   7.506   4.290   3.763 -1.4532 -0.2681 -0.9862
16620SOL    HW254223   7.462   4.145   3.773  0.0832 -0.6462  1.2044
16621SOL     OW54224   3.337   6.981   9.732  0.1028 -0.0637  0.5299
16621SOL    HW154225   3.256   6.988   9.782 -0.0393  0.4728  0.2424
16621SOL    HW254226   3.335   7.058   9.674  0.8818  0.0240  0.6172
16622SOL     OW54227   2.424   7.547   0.744  0.5571  0.0547 -0.3168
16622SOL    HW154228   2.343   7.571   0.699 -0.8909 -2.3773  0.8053
16622SOL    HW254229   2.443   7.459   0.713  1.3995 -0.3503  1.2758
16623SOL     OW54230   9.957   2.389   3.351 -0.4914 -0.1692  0.2522
16623SOL    HW154231   9.905   2.466   3.324 -0.6663 -0.1874  0.5287
16623SOL    HW254232   9.915   2.315   3.308 -0.0510 -0.0550 -0.3727
16624SOL     OW54233  10.679   9.754   1.013 -0.4428 -0.1308 -0.5794
16624SOL    HW154234  10.611   9.781   0.952 -0.2485 -0.3682 -0.9029
16624SOL    HW254235  10.704   9.665   0.985 -0.6440 -0.4097  0.0917
16625SOL     OW54236   0.746   3.890   8.550 -0.0137  0.5781 -0.2729
16625SOL    HW154237   0.654   3.902   8.576  0.0666  1.2321 -0.2737
16625SOL    HW254238   0.788   3.852   8.627 -0.3734 -0.1040 -0.4109
16626SOL     OW54239   8.910   8.057   5.484  0.3076 -0.6867 -0.0698
16626SOL    HW154240   8.898   8.012   5.400 -1.0104 -2.0001  0.7732
16626SOL    HW254241   8.974   8.002   5.531  1.7537  0.5413 -0.5149
16627SOL     OW54242   9.281   9.627   2.987  0.6814 -0.4558 -0.3767
16627SOL    HW154243   9.311   9.536   2.987 -1.9541 -1.3900 -0.5634
16627SOL    HW254244   9.194   9.625   2.949  0.2055  2.0565  0.3448
16628SOL     OW54245   4.253   7.096   7.787 -0.2339 -0.1300 -0.6349
16628SOL    HW154246   4.280   7.048   7.865  1.5868 -1.0045 -1.7400
16628SOL    HW254247   4.323   7.161   7.774 -2.0755  2.1696  0.1886
16629SOL     OW54248   6.235   3.172   6.391  0.2237 -0.4584  0.2839
16629SOL    HW154249   6.190   3.090   6.373  0.0099 -0.2892  0.0273
16629SOL    HW254250   6.227   3.184   6.485  1.2053 -1.2735  0.4834
16630SOL     OW54251   9.670   0.597   6.720  0.1349 -0.3762 -0.1345
16630SOL    HW154252   9.704   0.597   6.809 -1.5404  0.6399  0.5461
16630SOL    HW254253   9.595   0.657   6.722 -0.4777 -0.9882 -2.0112
16631SOL     OW54254   6.911   9.263   2.890 -0.2259  0.0405 -0.3815
16631SOL    HW154255   6.945   9.312   2.964  1.5768 -0.4543 -0.8423
16631SOL    HW254256   6.818   9.252   2.910 -0.1112  1.2849  1.0164
16632SOL     OW54257   2.354   9.747   8.104 -0.2564 -0.3699 -0.5058
16632SOL    HW154258   2.440   9.784   8.086  1.7008 -3.5805  1.3409
16632SOL    HW254259   2.336   9.770   8.195  0.2375 -2.3696  0.1438
16633SOL     OW54260  10.130  10.484   3.183 -0.2636  0.3055 -0.3831
16633SOL    HW154261  10.214  10.530   3.191  1.2582 -2.1486 -0.9042
16633SOL    HW254262  10.119  10.440   3.267 -1.0065  0.5242 -0.3604
16634SOL     OW54263   6.513   3.697   4.363 -0.6859  0.2054 -0.5113
16634SOL    HW154264   6.566   3.674   4.286  0.8587 -1.4274  0.9485
16634SOL    HW254265   6.455   3.767   4.332  0.3812  0.1215 -2.9456
16635SOL     OW54266  10.007   6.478   2.442  0.0832 -0.3046 -0.0568
16635SOL    HW154267  10.048   6.522   2.517 -0.4657 -0.5087  0.3666
16635SOL    HW254268   9.964   6.549   2.394 -1.4348 -0.4535  1.0314
16636SOL     OW54269   7.148  10.762  10.015  0.1538 -0.5212  0.1424
16636SOL    HW154270   7.173  10.854  10.011 -0.6403 -0.3171 -0.5004
16636SOL    HW254271   7.229  10.714   9.997  0.1773  0.1076 -1.6697
16637SOL     OW54272   4.586   1.141   6.560 -0.3607 -0.3359  0.0653
16637SOL    HW154273   4.574   1.057   6.515  0.9556  0.1952 -1.3782
16637SOL    HW254274   4.680   1.158   6.554 -0.8671  2.6053 -2.3646
16638SOL     OW54275  10.567   2.963  10.427 -0.1369 -0.4481 -0.1030
16638SOL    HW154276  10.568   3.006  10.342 -2.0820  1.8422  0.8970
16638SOL    HW254277  10.560   2.869  10.407  0.6170 -0.0651 -2.4146
16639SOL     OW54278  10.687   9.753   9.815 -1.1598 -0.2447 -0.2624
16639SOL    HW154279  10.769   9.718   9.851 -1.8539 -0.8208  0.8233
16639SOL    HW254280  10.690   9.846   9.837 -0.3551 -0.0530 -1.1151
16640SOL     OW54281   7.739   4.746   1.440 -0.1608 -0.0637 -0.0398
16640SOL    HW154282   7.711   4.690   1.512 -4.4473 -0.5098 -1.7555
16640SOL    HW254283   7.743   4.834   1.478 -0.5325 -0.5336  1.1217
16641SOL     OW54284   4.599   2.173   6.197  0.1310 -0.0387 -0.4019
16641SOL    HW154285   4.597   2.184   6.292 -0.0344 -1.1053 -0.2709
16641SOL    HW254286   4.510   2.145   6.174  0.3219 -0.3343 -0.7949
16642SOL     OW54287   3.082   7.255   3.739 -0.1104  0.3304  0.4700
16642SOL    HW154288   3.138   7.277   3.814 -1.1863  1.3567  0.9948
16642SOL    HW254289   3.144   7.238   3.668  0.8742  2.3013  0.7816
16643SOL     OW54290   0.337   9.415   0.151  0.0884 -0.0588  0.3379
16643SOL    HW154291   0.374   9.395   0.237  1.8984  1.2874 -0.0807
16643SOL    HW254292   0.324   9.510   0.152  0.2525 -0.0136 -0.9274
16644SOL     OW54293   2.832   7.837   7.848  0.1553  0.1576 -0.3724
16644SOL    HW154294   2.821   7.932   7.851  2.1885  0.4701  3.4921
16644SOL    HW254295   2.888   7.822   7.771  1.0422  2.2975 -0.2326
16645SOL     OW54296   2.509   0.680   6.776 -0.6467 -0.0440  0.0662
16645SOL    HW154297   2.413   0.679   6.781 -0.6092 -1.0634  0.8338
16645SOL    HW254298   2.528   0.719   6.690 -1.7128  1.4715  0.4746
16646SOL     OW54299   9.306   3.598  10.670  0.1322  0.1510 -0.5024
16646SOL    HW154300   9.367   3.656  10.623 -1.6540  1.0864 -1.7661
16646SOL    HW254301   9.221   3.641  10.664 -1.0525 -2.0093 -0.4238
16647SOL     OW54302   7.169   8.125   6.974  0.1368 -1.0787  0.3362
16647SOL    HW154303   7.097   8.078   6.933  0.7883 -0.3973 -1.7046
16647SOL    HW254304   7.156   8.216   6.950  0.5460 -0.6184  1.7237
16648SOL     OW54305   7.052  11.032   4.790 -0.0142  0.2267  0.5277
16648SOL    HW154306   6.968  11.047   4.833 -0.8452 -1.2154 -0.5257
16648SOL    HW254307   7.075  10.942   4.813  0.6248  0.1864 -0.2367
16649SOL     OW54308   6.410   0.077   3.845  0.2827 -0.2213 -0.5044
16649SOL    HW154309   6.370  -0.009   3.863 -0.0472 -0.1514 -0.8799
16649SOL    HW254310   6.337   0.138   3.852  0.9068  0.3454  2.0313
16650SOL     OW54311   8.387   9.675   5.079 -0.4259 -0.1504 -0.1932
16650SOL    HW154312   8.320   9.613   5.105  0.0575 -0.3292  0.6506
16650SOL    HW254313   8.377   9.749   5.139  0.9937 -0.7667  0.8770
16651SOL     OW54314   7.548   0.283   8.562 -0.0816  0.0198  0.4355
16651SOL    HW154315   7.513   0.201   8.596  1.0572  0.3337  2.5269
16651SOL    HW254316   7.626   0.256   8.512 -0.1012 -0.2290  0.5379
16652SOL     OW54317   6.185   8.769   6.496  0.1810 -0.2718  0.3754
16652SOL    HW154318   6.150   8.687   6.531  0.5009 -0.5373  0.0776
16652SOL    HW254319   6.255   8.792   6.557 -0.1782 -0.0013  0.6909
16653SOL     OW54320   6.580   9.904  10.449  0.0532 -0.2546  0.8740
16653SOL    HW154321   6.617   9.820  10.420  2.2680  0.7474  0.6134
16653SOL    HW254322   6.530   9.882  10.527 -0.1210 -1.9381  0.3347
16654SOL     OW54323   9.645   9.981   7.265  0.4157 -0.3176 -0.4504
16654SOL    HW154324   9.575  10.008   7.323  0.8907  0.4410 -0.2167
16654SOL    HW254325   9.661  10.058   7.209  1.9270 -0.0091  0.3573
16655SOL     OW54326   6.104  11.105   4.064 -0.1968  0.2612  0.1293
16655SOL    HW154327   6.078  11.065   3.982  1.2571  1.3564 -0.9203
16655SOL    HW254328   6.030  11.091   4.123 -0.8816 -1.3603 -1.0689
16656SOL     OW54329   4.879   5.474   6.042  0.2902 -0.1299 -0.9177
16656SOL    HW154330   4.970   5.467   6.013  0.2929 -0.8897 -0.7416
16656SOL    HW254331   4.835   5.398   6.004  0.5164 -1.7528  1.7647
16657SOL     OW54332   3.833   7.798   9.184 -0.2275 -0.3680 -0.4637
16657SOL    HW154333   3.812   7.885   9.150  2.3254  0.6403  0.3221
16657SOL    HW254334   3.910   7.771   9.134  1.7412 -0.1625  2.2653
16658SOL     OW54335   0.255   6.153   6.724 -0.1342 -0.4359 -0.2563
16658SOL    HW154336   0.249   6.094   6.648 -0.0550  2.0777 -2.3398
16658SOL    HW254337   0.166   6.156   6.758 -0.9407  0.8403 -2.3002
16659SOL     OW54338   1.531  10.735   3.574 -0.6172  0.5143 -0.2764
16659SOL    HW154339   1.603  10.720   3.512  0.0211 -2.3645  0.9594
16659SOL    HW254340   1.554  10.816   3.620  0.9489  0.5615 -1.0874
16660SOL     OW54341   1.022   7.999   4.393 -0.0219 -0.0233 -0.2881
16660SOL    HW154342   0.977   7.996   4.309 -0.1871  2.1871 -0.3488
16660SOL    HW254343   0.954   8.020   4.456  0.5570  1.3595 -0.0885
16661SOL     OW54344  10.153   9.931   9.442  0.3662 -0.2988 -0.3981
16661SOL    HW154345  10.126   9.966   9.357  1.2913  0.8476 -0.2458
16661SOL    HW254346  10.158   9.836   9.428 -1.4497 -0.3545 -1.0444
16662SOL     OW54347   3.918   9.538   6.355 -0.0156  0.1934 -0.3997
16662SOL    HW154348   3.867   9.619   6.349 -1.8486 -0.6475  2.1857
16662SOL    HW254349   3.883   9.482   6.287  1.4833  1.5614 -2.4328
16663SOL     OW54350   5.512   4.457   0.309  0.1217  0.0149  0.4226
16663SOL    HW154351   5.442   4.404   0.347  0.5355 -1.9392 -1.3649
16663SOL    HW254352   5.467   4.528   0.264 -0.7243 -1.0610 -0.4754
16664SOL     OW54353   3.915  10.543   7.406  1.1360 -0.1557  0.0614
16664SOL    HW154354   3.869  10.626   7.420  0.6830 -0.4701  0.4780
16664SOL    HW254355   4.008  10.565   7.417  0.9509  0.0741  1.3811
16665SOL     OW54356   1.781   7.155  10.387  0.3430  0.0998 -0.0078
16665SOL    HW154357   1.790   7.250  10.397  0.4314  0.0492  0.4394
16665SOL    HW254358   1.715   7.131  10.453  0.3884 -0.1579 -0.0566
16666SOL     OW54359  10.803   6.041   3.055  0.3339  0.0583 -0.4400
16666SOL    HW154360  10.825   5.961   3.008 -1.5959 -0.6887 -0.1479
16666SOL    HW254361  10.722   6.021   3.102  1.9658  0.8935  2.9908
16667SOL     OW54362   7.150   5.342   0.106  0.2383  0.1677  0.2170
16667SOL    HW154363   7.238   5.306   0.090 -0.7498 -2.5615  0.4368
16667SOL    HW254364   7.119   5.369   0.020  0.8678  0.1273 -0.0273
16668SOL     OW54365   4.147  10.034   5.853 -0.7646 -0.7953 -0.3181
16668SOL    HW154366   4.155  10.122   5.889 -1.6144 -1.5070  1.7417
16668SOL    HW254367   4.220   9.986   5.890 -0.3306 -1.0094 -1.4023
16669SOL     OW54368   9.066   3.225   0.259  0.1956 -0.0570 -0.0772
16669SOL    HW154369   9.046   3.314   0.231  2.4564  0.5068 -0.1266
16669SOL    HW254370   9.120   3.189   0.188 -0.6282 -1.4761 -0.0320
16670SOL     OW54371   5.700   1.728  10.806  0.2049 -0.3185  0.6767
16670SOL    HW154372   5.700   1.743  10.900 -1.5686  3.2963  0.2974
16670SOL    HW254373   5.788   1.753  10.777  0.3900 -0.3072  1.2550
16671SOL     OW54374   2.436   0.699   3.990 -0.1635  0.3623  0.2169
16671SOL    HW154375   2.420   0.778   4.042  1.0181 -0.3299  1.7045
16671SOL    HW254376   2.483   0.730   3.913 -1.7570  1.3822 -0.3972
16672SOL     OW54377   7.561   3.017   4.006  0.5979 -0.7747 -0.1447
16672SOL    HW154378   7.515   3.060   4.078 -1.0621  0.5567 -1.8928
16672SOL    HW254379   7.493   2.969   3.959  1.8076 -2.3717 -0.3421
16673SOL     OW54380   4.190   5.025   7.345  0.1828 -0.0196  0.0092
16673SOL    HW154381   4.144   4.947   7.378 -1.5843  1.6056  1.6253
16673SOL    HW254382   4.123   5.092   7.339  1.6364  1.3990 -1.4800
16674SOL     OW54383   2.012   4.840   3.976 -0.2050  0.3784 -0.1623
16674SOL    HW154384   1.984   4.918   3.928  1.7002  0.7035 -0.8191
16674SOL    HW254385   2.009   4.769   3.911  1.0699  0.5484 -0.4261
16675SOL     OW54386   1.260   5.619   3.730 -0.0755  0.3020 -0.1332
16675SOL    HW154387   1.233   5.638   3.820  1.1170  2.4133 -0.1567
16675SOL    HW254388   1.180   5.631   3.678 -1.0028 -1.8365  0.6763
16676SOL     OW54389   8.073   9.390   8.103  0.1843 -0.7125 -0.1831
16676SOL    HW154390   8.097   9.474   8.141 -0.4102 -0.4480 -0.3801
16676SOL    HW254391   7.978   9.396   8.089  0.4994 -0.4127 -2.6242
16677SOL     OW54392   4.252   8.722   9.573 -0.0450 -0.3751 -0.2095
16677SOL    HW154393   4.179   8.748   9.517  0.4235 -1.2149 -1.2303
16677SOL    HW254394   4.223   8.745   9.662 -1.2408 -0.0256 -0.6702
16678SOL     OW54395   9.707   0.963   1.372  0.1438  0.4622 -0.3573
16678SOL    HW154396   9.688   0.875   1.339 -0.4773  0.7406 -0.7500
16678SOL    HW254397   9.799   0.959   1.397  0.6790  0.2735 -2.2107
16679SOL     OW54398   1.739  11.026   8.076  0.0335  0.0404 -0.8540
16679SOL    HW154399   1.833  11.043   8.067  0.4852 -2.1735 -0.9536
16679SOL    HW254400   1.700  11.063   7.997  0.9874 -0.0269 -1.3701
16680SOL     OW54401   5.517   2.214   2.684 -0.3841  0.4520  0.7312
16680SOL    HW154402   5.504   2.149   2.754  1.1821 -0.1112  0.5305
16680SOL    HW254403   5.610   2.237   2.689 -0.5556  1.4529 -0.2827
16681SOL     OW54404   7.000   2.663   7.990  0.2769 -0.4284 -0.3597
16681SOL    HW154405   6.942   2.595   7.956 -1.3063  0.5965  0.2032
16681SOL    HW254406   7.028   2.713   7.913 -4.2122  2.6311 -0.3864
16682SOL     OW54407   1.555   7.169   1.617  0.0821  0.2541 -0.2421
16682SOL    HW154408   1.527   7.237   1.677  1.0401 -0.1436  0.6783
16682SOL    HW254409   1.485   7.103   1.621 -0.5745  0.9099 -0.7153
16683SOL     OW54410   2.040   2.879  10.369 -0.6096 -0.8580  0.2074
16683SOL    HW154411   2.030   2.784  10.359  0.8016 -1.1726  1.3077
16683SOL    HW254412   2.121   2.900  10.323 -0.4078 -0.3671  0.7614
16684SOL     OW54413   6.395   4.290   5.542  0.0937 -0.0364 -0.2518
16684SOL    HW154414   6.316   4.312   5.591  0.7932  1.2858  0.3377
16684SOL    HW254415   6.467   4.322   5.597  1.0166 -0.6201 -1.0810
16685SOL     OW54416   0.131   7.052   8.623  0.0588  0.4767 -0.0724
16685SOL    HW154417   0.081   6.970   8.618  0.6935  0.1159 -0.6846
16685SOL    HW254418   0.185   7.042   8.701 -1.2445  1.1250  0.9486
16686SOL     OW54419   1.218  10.719   5.161  0.9345 -0.3844  0.4416
16686SOL    HW154420   1.276  10.652   5.125  0.0361 -1.4343  0.8620
16686SOL    HW254421   1.276  10.781   5.205  1.7253 -1.7765  1.4402
16687SOL     OW54422   4.161   4.768   1.200  0.2506  0.0208  0.4766
16687SOL    HW154423   4.248   4.804   1.219  0.2471  0.7285 -0.7277
16687SOL    HW254424   4.116   4.769   1.285  2.0380 -2.2304  1.5582
16688SOL     OW54425   6.660   2.984   5.739 -0.7075 -0.2963  0.1413
16688SOL    HW154426   6.745   3.024   5.760 -1.9874  2.4487  0.5166
16688SOL    HW254427   6.682   2.895   5.712  2.2287  0.1127  0.8053
16689SOL     OW54428   6.635   5.250   6.530  0.3314 -0.2077 -0.5342
16689SOL    HW154429   6.726   5.253   6.560 -0.1037  1.5004  0.7444
16689SOL    HW254430   6.595   5.182   6.584  0.0617  1.4154  1.4278
16690SOL     OW54431   3.465   7.885   6.181  0.0060 -0.5414  0.0707
16690SOL    HW154432   3.397   7.873   6.115  1.1161 -1.8553 -0.9044
16690SOL    HW254433   3.434   7.834   6.256  0.2046 -1.7589 -0.6352
16691SOL     OW54434   1.910   2.686   6.215 -0.1664 -0.0746  0.0321
16691SOL    HW154435   1.916   2.671   6.309  4.1344 -0.8903 -0.1882
16691SOL    HW254436   1.861   2.611   6.182 -1.3527 -0.0052  1.5008
16692SOL     OW54437   6.881   7.730   8.923  0.1437  0.8749 -0.5393
16692SOL    HW154438   6.952   7.790   8.899 -0.7506  1.8256 -0.8946
16692SOL    HW254439   6.876   7.668   8.851 -1.1798  2.4888 -1.9275
16693SOL     OW54440   0.054   1.355   7.955  0.1809  0.3571  0.0801
16693SOL    HW154441   0.148   1.372   7.941  0.7868 -3.0138 -1.1056
16693SOL    HW254442   0.050   1.307   8.038 -0.3740 -0.1306 -0.2184
16694SOL     OW54443   5.745   5.087   8.677  0.8721  0.2464 -0.1801
16694SOL    HW154444   5.674   5.047   8.727  0.8942  0.1320 -0.2389
16694SOL    HW254445   5.707   5.106   8.592  0.2149  2.4036  0.5337
16695SOL     OW54446   1.658   6.247  10.847  0.1610  0.4064  0.0074
16695SOL    HW154447   1.600   6.174  10.826  0.0611  0.2895  0.6709
16695SOL    HW254448   1.720   6.250  10.774 -1.3033  1.2081 -1.2494
16696SOL     OW54449   8.119   6.855   3.827 -0.0151  0.6993 -0.1079
16696SOL    HW154450   8.064   6.835   3.751 -2.4370 -1.2796  1.9538
16696SOL    HW254451   8.057   6.862   3.900  2.3252  0.2961  2.0585
16697SOL     OW54452   9.520   9.153   2.357 -0.0910  0.3585  0.7775
16697SOL    HW154453   9.502   9.185   2.268 -0.4576 -0.1725  0.6547
16697SOL    HW254454   9.597   9.203   2.385 -0.3650  0.9968  0.4111
16698SOL     OW54455   6.652   1.745  11.029 -0.8173  0.0691  0.1136
16698SOL    HW154456   6.650   1.723  11.123  1.7221  0.8868  0.4439
16698SOL    HW254457   6.677   1.838  11.027 -0.9356  0.0897 -1.3779
16699SOL     OW54458   6.313   4.338   6.776  0.0414  0.2959 -0.0954
16699SOL    HW154459   6.305   4.422   6.732 -1.9126  0.2966  0.1730
16699SOL    HW254460   6.222   4.310   6.791  0.6510 -1.2303  1.0053
16700SOL     OW54461  10.308   5.965   5.590 -0.0213 -0.1157 -0.0729
16700SOL    HW154462  10.268   6.039   5.637 -1.1697 -0.3221 -0.6962
16700SOL    HW254463  10.328   6.000   5.503  0.9351 -0.0974  0.1409
16701SOL     OW54464   3.081   0.331   6.338 -0.6140  1.0201  0.1392
16701SOL    HW154465   3.015   0.399   6.351 -2.9331 -0.7496 -1.6391
16701SOL    HW254466   3.074   0.307   6.246  1.7448 -0.0792  0.1602
16702SOL     OW54467   5.446   6.789   8.501 -0.4682  0.6225 -0.1475
16702SOL    HW154468   5.369   6.830   8.541 -1.6853 -1.1401 -0.5697
16702SOL    HW254469   5.466   6.843   8.425 -2.6857 -0.0689 -1.3129
16703SOL     OW54470  10.919   4.034   9.168  0.1027 -0.2374 -0.0800
16703SOL    HW154471  10.833   4.021   9.128 -0.2009 -1.6118  0.9413
16703SOL    HW254472  10.902   4.095   9.241 -0.4619 -2.1077  1.4289
16704SOL     OW54473   7.668   6.024   8.282 -0.3521 -0.7424  0.3285
16704SOL    HW154474   7.703   5.982   8.360 -0.3904  0.6160  1.1156
16704SOL    HW254475   7.618   5.956   8.238  2.0095 -2.3487 -0.0516
16705SOL     OW54476   9.844   5.445   5.152  0.2459 -0.1925  0.4611
16705SOL    HW154477   9.790   5.523   5.153  0.5884  0.0463  1.9903
16705SOL    HW254478   9.877   5.440   5.062 -2.5398 -0.5450 -0.6430
16706SOL     OW54479   5.141   0.293   4.658 -0.3925 -0.0411 -0.5030
16706SOL    HW154480   5.130   0.244   4.740  0.2291  2.8574  1.4578
16706SOL    HW254481   5.236   0.299   4.646 -0.4365  1.3116 -0.2643
16707SOL     OW54482   8.633   8.820  10.249 -0.1488 -0.1546  0.2115
16707SOL    HW154483   8.590   8.876  10.313 -1.0743 -1.3420  0.6803
16707SOL    HW254484   8.724   8.816  10.276  0.0405  1.4920 -0.1241
16708SOL     OW54485   5.520   1.016   0.152 -1.1261  0.9890 -0.2509
16708SOL    HW154486   5.540   1.069   0.229 -0.2124  0.4487 -0.0968
16708SOL    HW254487   5.503   0.928   0.188  1.4926  0.1844 -0.7937
16709SOL     OW54488   6.927   6.396   9.688 -0.1675 -0.1759  0.0130
16709SOL    HW154489   6.950   6.487   9.669  2.6520 -0.7692  0.2091
16709SOL    HW254490   6.961   6.347   9.614 -1.4896 -1.1457  0.0049
16710SOL     OW54491   7.832   6.693   4.211  0.1609  0.0423  0.2789
16710SOL    HW154492   7.906   6.633   4.213 -1.1083 -1.6621 -0.4318
16710SOL    HW254493   7.778   6.666   4.285 -0.7318 -0.1441 -0.4166
16711SOL     OW54494   5.495   4.629   5.511 -0.0953  0.1414  0.2679
16711SOL    HW154495   5.558   4.560   5.489 -0.4383  0.7731 -3.3368
16711SOL    HW254496   5.516   4.701   5.452 -3.2987  0.9055 -0.1430
16712SOL     OW54497   5.224   3.720   0.578 -0.0946  0.6468 -0.0218
16712SOL    HW154498   5.157   3.783   0.603 -1.2545 -0.4901 -0.1293
16712SOL    HW254499   5.217   3.712   0.483 -0.6606 -0.3462  0.0800
16713SOL     OW54500   8.475   9.980   7.182 -0.4205  0.6506  0.4753
16713SOL    HW154501   8.554   9.950   7.227 -0.8450 -0.7220  0.3645
16713SOL    HW254502   8.497  10.067   7.149  0.8001  0.5721  1.0364
16714SOL     OW54503   4.870   5.448   7.286  0.0373  0.2271  0.3223
16714SOL    HW154504   4.866   5.381   7.353 -0.9908 -1.5401 -1.3879
16714SOL    HW254505   4.947   5.426   7.233 -1.0707 -0.5039 -1.0623
16715SOL     OW54506   3.144   0.067   0.454 -0.5734  0.1358  0.1265
16715SOL    HW154507   3.050   0.059   0.471 -0.6146 -0.1634 -0.2307
16715SOL    HW254508   3.163  -0.003   0.391  0.0385 -0.3399  0.8123
16716SOL     OW54509   6.325   3.899   1.332 -0.3981  0.2456  0.1295
16716SOL    HW154510   6.303   3.956   1.406 -0.3349  1.2983 -0.6376
16716SOL    HW254511   6.418   3.881   1.342 -0.8311 -1.5204  1.5583
16717SOL     OW54512   0.893  10.346   3.716  0.2415 -0.2000 -0.3958
16717SOL    HW154513   0.838  10.363   3.640  0.2120 -1.2813 -0.6331
16717SOL    HW254514   0.834  10.354   3.791 -0.4473 -2.0571 -0.6908
16718SOL     OW54515   3.529   9.602   7.215  0.1261  0.6118 -0.5901
16718SOL    HW154516   3.492   9.541   7.151  0.9139 -0.1787 -0.3107
16718SOL    HW254517   3.528   9.554   7.297  1.1289  0.8265 -0.4463
16719SOL     OW54518   8.102  10.148   2.730 -0.7018  0.0411 -0.5817
16719SOL    HW154519   8.028  10.145   2.790 -0.3696 -1.1653 -0.2018
16719SOL    HW254520   8.179  10.163   2.785 -0.8890  5.3406 -1.2590
16720SOL     OW54521   3.659   9.047   0.479 -0.1551 -0.4354  0.0654
16720SOL    HW154522   3.640   9.141   0.479  0.7692 -0.2332  0.7380
16720SOL    HW254523   3.750   9.041   0.452  0.0698 -1.0732  0.9349
16721SOL     OW54524   4.790   3.364   7.519 -0.4503 -0.5538  0.1847
16721SOL    HW154525   4.761   3.445   7.477 -0.0189 -0.9515 -0.9087
16721SOL    HW254526   4.847   3.322   7.455 -0.2417 -1.4753  0.9410
16722SOL     OW54527   1.377   7.054   7.028 -0.0835 -0.5885 -0.1006
16722SOL    HW154528   1.387   7.146   7.004 -0.4460 -0.5747 -0.2079
16722SOL    HW254529   1.284   7.035   7.012  0.1837 -1.2198 -0.9551
16723SOL     OW54530   6.225   8.374   2.972  0.0851  0.0526 -0.1401
16723SOL    HW154531   6.164   8.421   2.914 -0.0066 -1.9362 -1.7584
16723SOL    HW254532   6.310   8.412   2.953 -0.0353 -0.1627 -1.1738
16724SOL     OW54533  10.827   8.399   9.032 -0.1715  0.4743  0.3266
16724SOL    HW154534  10.869   8.326   8.986  0.4089  0.5118  0.7777
16724SOL    HW254535  10.768   8.357   9.095 -0.4823  0.4137  0.0006
16725SOL     OW54536  10.490   5.234   9.834  0.0112 -1.1380 -0.1464
16725SOL    HW154537  10.570   5.220   9.885  0.0882 -1.3067 -0.3117
16725SOL    HW254538  10.447   5.148   9.833 -1.0262 -0.6714  1.3631
16726SOL     OW54539   8.944   4.356   8.252 -0.4348 -0.5207 -0.1726
16726SOL    HW154540   8.859   4.398   8.239 -1.0621 -1.8971 -0.7999
16726SOL    HW254541   8.922   4.271   8.291  0.9420  0.8149  4.1765
16727SOL     OW54542   4.711   6.944   5.970  0.0410  0.1228 -0.1855
16727SOL    HW154543   4.656   6.882   6.018  1.0012 -1.6702 -1.2901
16727SOL    HW254544   4.652   6.985   5.907 -0.6638  0.5934  0.7448
16728SOL     OW54545   4.783   7.438   0.992 -0.6018 -0.4864  0.0803
16728SOL    HW154546   4.700   7.463   0.952 -0.3330 -0.7923 -0.6922
16728SOL    HW254547   4.843   7.428   0.918  0.4141  0.7738  0.6914
16729SOL     OW54548   4.122   9.100   0.789  0.3256  0.4416 -0.3342
16729SOL    HW154549   4.205   9.120   0.747  0.6773  0.4330  0.3406
16729SOL    HW254550   4.067   9.177   0.772  1.3138  1.5982  1.3346
16730SOL     OW54551   0.371   2.851   0.539  0.8410  0.3052  0.7771
16730SOL    HW154552   0.368   2.926   0.480 -0.4162 -1.0637 -1.0310
16730SOL    HW254553   0.280   2.823   0.547  1.4774 -2.9381 -1.3237
16731SOL     OW54554  10.991   1.070   0.942  0.2593  0.0813 -0.4216
16731SOL    HW154555  10.953   1.035   0.862  0.7418 -0.6542 -0.3401
16731SOL    HW254556  11.042   1.146   0.914  0.6365 -0.3273 -0.8545
16732SOL     OW54557   6.502   9.971   1.607  0.3248  0.5800  0.2445
16732SOL    HW154558   6.531   9.970   1.698  0.6833  1.7936  0.1705
16732SOL    HW254559   6.562  10.032   1.564  1.0096 -0.9945 -1.1169
16733SOL     OW54560   9.730   2.972   6.348 -0.0962 -0.5851  0.0371
16733SOL    HW154561   9.767   3.058   6.331 -1.4245 -0.2531 -1.3441
16733SOL    HW254562   9.794   2.929   6.405  0.0485  1.7107  1.7376
16734SOL     OW54563  10.413   6.691   7.729  0.3138  0.1088  0.5767
16734SOL    HW154564  10.436   6.599   7.741 -0.4061  0.1793  3.2107
16734SOL    HW254565  10.494   6.732   7.698  0.3679 -1.5136 -1.6500
16735SOL     OW54566   9.617  10.571   6.698 -0.0527  0.1057 -0.5797
16735SOL    HW154567   9.609  10.642   6.762  0.1822  0.4387 -0.9133
16735SOL    HW254568   9.629  10.616   6.614 -2.2872 -0.2564 -1.1583
16736SOL     OW54569   8.363   0.609   5.910 -0.2073  0.2836 -0.2934
16736SOL    HW154570   8.397   0.565   5.988  1.5935  0.8260 -0.7007
16736SOL    HW254571   8.275   0.575   5.899  0.0168 -0.8793  1.1588
16737SOL     OW54572   6.067  10.883   8.072 -0.4993  0.0193 -0.2148
16737SOL    HW154573   5.981  10.889   8.028 -0.9205 -0.2199  0.5669
16737SOL    HW254574   6.084  10.972   8.102 -1.8770 -0.4569  2.2154
16738SOL     OW54575   3.670   8.384   1.673 -0.2589  0.0821 -0.7350
16738SOL    HW154576   3.691   8.300   1.712  0.7878  0.8145  0.3421
16738SOL    HW254577   3.583   8.372   1.635  0.2174 -1.7211 -1.3467
16739SOL     OW54578   5.454   5.855   1.648  0.2108 -0.5328 -0.0439
16739SOL    HW154579   5.399   5.777   1.661 -0.1480 -0.2462  0.1654
16739SOL    HW254580   5.538   5.820   1.617 -0.1615 -0.9534 -0.5891
16740SOL     OW54581   0.435   5.585   9.242 -0.0830  0.2579 -0.1076
16740SOL    HW154582   0.387   5.503   9.231  0.3331  0.0802 -0.6312
16740SOL    HW254583   0.411   5.637   9.165  2.0880 -0.6122 -1.4669
16741SOL     OW54584   6.187   2.446   2.079  0.5849  0.3546  0.1347
16741SOL    HW154585   6.274   2.434   2.116  0.6095  1.1512  0.3518
16741SOL    HW254586   6.180   2.378   2.012  0.0549 -2.0622  2.4156
16742SOL     OW54587   4.544   7.053   5.774  0.3268 -0.0321  0.3056
16742SOL    HW154588   4.591   7.136   5.761 -0.3200  0.5573  1.4955
16742SOL    HW254589   4.531   7.018   5.686  1.1668  0.8259 -0.1705
16743SOL     OW54590   1.200   4.827   4.057  0.0044  0.0920 -0.3248
16743SOL    HW154591   1.201   4.881   4.136  1.4038 -1.3489  0.7021
16743SOL    HW254592   1.244   4.746   4.082 -0.8579 -1.0279 -2.1776
16744SOL     OW54593   7.262   9.283   4.753  0.4731 -0.1213 -0.3046
16744SOL    HW154594   7.250   9.358   4.811  0.2983 -0.9649  0.7639
16744SOL    HW254595   7.214   9.307   4.673 -0.5537  0.4305  0.4527
16745SOL     OW54596   0.909   7.305  10.817  0.2784  0.3403 -0.0446
16745SOL    HW154597   0.956   7.238  10.767  1.4911  0.6412  0.6562
16745SOL    HW254598   0.908   7.271  10.907 -0.0596  0.7607  0.1136
16746SOL     OW54599   8.875  10.211   0.254  0.2026 -0.3601 -0.1502
16746SOL    HW154600   8.911  10.225   0.342 -1.0590 -0.1352  0.3584
16746SOL    HW254601   8.951  10.200   0.198  1.0606  0.3710  0.8327
16747SOL     OW54602   5.896   3.846   7.832 -0.3883 -0.5942  0.3395
16747SOL    HW154603   5.961   3.789   7.792  0.1092  0.2773 -0.1243
16747SOL    HW254604   5.933   3.934   7.825 -1.2527 -0.1758  0.7981
16748SOL     OW54605  10.675   9.121   3.436  0.6783  0.1517  0.0237
16748SOL    HW154606  10.709   9.068   3.508  0.2718  2.3453  1.9448
16748SOL    HW254607  10.581   9.128   3.454  0.6176  0.9459 -0.5460
16749SOL     OW54608   8.166   8.426   5.121  0.3176 -0.1268  0.0280
16749SOL    HW154609   8.207   8.382   5.046  1.3233  1.4452 -0.4029
16749SOL    HW254610   8.076   8.393   5.121  0.5432 -0.8459 -1.3237
16750SOL     OW54611   7.254   6.884   2.151  0.6208 -0.0753 -0.0142
16750SOL    HW154612   7.293   6.811   2.198  3.2071  0.0817 -1.7045
16750SOL    HW254613   7.291   6.879   2.063 -1.6775  1.3853 -1.1863
16751SOL     OW54614   2.294   7.097   0.797 -0.0040  0.4054  0.6244
16751SOL    HW154615   2.277   7.003   0.805  1.7738  0.1107  1.3602
16751SOL    HW254616   2.387   7.102   0.775 -0.5718  1.9287 -1.7566
16752SOL     OW54617   6.798   0.727   9.973  0.1370  0.5207 -0.2093
16752SOL    HW154618   6.733   0.743  10.042  0.3920 -0.3807  0.2561
16752SOL    HW254619   6.749   0.682   9.904 -0.0351  1.0833 -0.4560
16753SOL     OW54620   1.082   7.035   6.949  0.4489 -0.1130 -0.2125
16753SOL    HW154621   1.096   7.005   6.859  1.6597 -1.2460  0.3178
16753SOL    HW254622   1.045   7.123   6.940 -3.0453 -1.5791 -1.8466
16754SOL     OW54623   3.859   4.167   3.717  0.3391  0.4864  0.1725
16754SOL    HW154624   3.895   4.078   3.723  0.7346  0.5773 -0.7661
16754SOL    HW254625   3.827   4.174   3.628  0.0462  1.1950  0.3295
16755SOL     OW54626   1.829   9.701   7.013 -0.4328 -0.7187 -0.2251
16755SOL    HW154627   1.917   9.665   7.029 -0.3626 -0.5730 -0.2859
16755SOL    HW254628   1.844   9.779   6.960 -0.5918 -0.6338 -0.1456
16756SOL     OW54629   5.358   5.186   8.673 -0.0140 -0.1147  0.3522
16756SOL    HW154630   5.300   5.262   8.665  0.4809  0.2421  0.0573
16756SOL    HW254631   5.317   5.119   8.619  1.2066  0.9968 -2.1231
16757SOL     OW54632   7.393   7.409   5.110 -0.8580  0.0182 -0.3544
16757SOL    HW154633   7.427   7.413   5.021  1.3672 -1.0400  0.3832
16757SOL    HW254634   7.359   7.320   5.119 -0.4365 -0.1060  0.0529
16758SOL     OW54635   5.085   7.896   7.321 -0.4063 -0.0384  0.4297
16758SOL    HW154636   5.108   7.923   7.410 -1.7373 -1.3942  1.2405
16758SOL    HW254637   5.068   7.802   7.328 -2.1585  0.1300 -0.9031
16759SOL     OW54638   6.069   8.310   8.199  0.1011 -0.1268  0.1157
16759SOL    HW154639   6.150   8.308   8.148 -1.3923 -0.7465 -2.3967
16759SOL    HW254640   6.053   8.219   8.223  0.5577  0.1048  1.3824
16760SOL     OW54641   2.260  10.504   4.390 -0.6965  0.1763  0.3699
16760SOL    HW154642   2.244  10.415   4.361 -0.5019 -0.6681  2.6583
16760SOL    HW254643   2.284  10.552   4.310  1.3013 -2.2894 -0.6378
16761SOL     OW54644   1.023   9.320   4.886  0.8068  0.1455  0.6882
16761SOL    HW154645   1.102   9.267   4.874  0.5754 -0.2666  0.9534
16761SOL    HW254646   0.952   9.262   4.859  0.7060  1.0661 -1.1480
16762SOL     OW54647   2.878   4.808   9.441 -0.3474 -0.3032 -0.3370
16762SOL    HW154648   2.971   4.826   9.424 -0.5726  1.0569 -0.2913
16762SOL    HW254649   2.866   4.716   9.418  0.7876 -0.2268 -1.3119
16763SOL     OW54650   2.850  10.908   8.510 -0.4592  0.0510 -0.1280
16763SOL    HW154651   2.921  10.936   8.569 -1.2047  1.0648  0.3284
16763SOL    HW254652   2.895  10.872   8.434  0.5789  1.1670 -0.0840
16764SOL     OW54653  11.100   4.524  11.025 -0.2473  0.2887 -0.2442
16764SOL    HW154654  11.183   4.569  11.010 -0.1671 -0.4102 -2.0614
16764SOL    HW254655  11.047   4.543  10.948 -1.4248 -0.0851  0.4406
16765SOL     OW54656   7.450   7.430   8.923 -0.0491 -0.0457 -0.2676
16765SOL    HW154657   7.412   7.467   9.003 -2.0672 -0.2153 -1.0705
16765SOL    HW254658   7.404   7.476   8.852 -1.3180 -2.6885 -1.3033
16766SOL     OW54659   8.514   8.283   8.707 -0.3787  0.2440 -0.2928
16766SOL    HW154660   8.428   8.282   8.663 -0.6045 -2.6466  0.0283
16766SOL    HW254661   8.550   8.370   8.687 -2.2749  0.6064 -2.5955
16767SOL     OW54662  10.856   4.069   4.690  0.1506  0.3185  0.1344
16767SOL    HW154663  10.910   4.118   4.628 -1.5910  0.8906 -0.9983
16767SOL    HW254664  10.904   4.075   4.773  1.8665  0.6813 -0.8235
16768SOL     OW54665   5.239   4.576   9.089  0.5037  0.1627  0.4780
16768SOL    HW154666   5.170   4.596   9.027 -0.4259 -0.0492  1.4253
16768SOL    HW254667   5.201   4.511   9.148  1.6905 -0.3813  0.6851
16769SOL     OW54668   8.930   2.657   0.334 -0.8476  0.4434  0.9252
16769SOL    HW154669   8.903   2.727   0.392 -0.0571  0.2741  1.5128
16769SOL    HW254670   9.026   2.658   0.338 -0.7461  0.6838 -0.6772
16770SOL     OW54671   5.653   7.272  10.501 -0.0552  1.2991  0.1729
16770SOL    HW154672   5.722   7.211  10.475  0.1508  1.0510  1.2512
16770SOL    HW254673   5.677   7.299  10.590 -0.3138  2.7050 -0.1531
16771SOL     OW54674   5.312   8.027   3.274  0.1084 -0.0764 -0.5989
16771SOL    HW154675   5.271   8.098   3.224  1.5846  0.1670 -1.5305
16771SOL    HW254676   5.371   8.072   3.335 -0.2112 -0.4466 -0.0162
16772SOL     OW54677   4.643   3.621   1.865 -0.2780 -0.2592  0.7435
16772SOL    HW154678   4.641   3.531   1.898 -1.4381 -0.8793 -0.8528
16772SOL    HW254679   4.708   3.620   1.795 -0.3610  0.1152  0.6553
16773SOL     OW54680   1.339   0.326   4.705 -0.7017  0.0524 -0.2348
16773SOL    HW154681   1.281   0.284   4.769 -1.9529 -0.0030 -1.3646
16773SOL    HW254682   1.387   0.391   4.756 -0.1370 -1.3901  1.1596
16774SOL     OW54683   3.283   6.695   3.938  0.0004 -0.3077  0.6424
16774SOL    HW154684   3.242   6.781   3.937 -1.3637 -0.9023 -0.5928
16774SOL    HW254685   3.303   6.678   4.030 -2.0863  0.2676  1.2564
16775SOL     OW54686   2.953   4.188   6.484 -0.2079  0.2963  0.0254
16775SOL    HW154687   2.961   4.256   6.418 -1.6851  0.3113 -0.1852
16775SOL    HW254688   3.032   4.135   6.475 -0.3010  0.4052 -1.6283
16776SOL     OW54689   4.422   3.193  10.366  0.0129 -0.6880 -0.2059
16776SOL    HW154690   4.459   3.251  10.434 -1.9344 -0.3290  0.6023
16776SOL    HW254691   4.470   3.111  10.378  0.3936 -0.3316  0.9662
16777SOL     OW54692   9.352  10.220   5.718  0.2511  0.3713  0.0083
16777SOL    HW154693   9.396  10.235   5.634  0.3895  0.2524  0.0596
16777SOL    HW254694   9.304  10.301   5.735 -0.5433  0.0492 -0.6510
16778SOL     OW54695   7.956   3.901   3.679 -0.4956  0.1696 -0.0719
16778SOL    HW154696   8.009   3.974   3.710 -1.0172 -0.4280  2.4185
16778SOL    HW254697   7.981   3.828   3.735 -1.0282 -1.2073 -1.5642
16779SOL     OW54698   8.899  10.159   5.329 -0.2459  0.0750 -0.1001
16779SOL    HW154699   8.957  10.120   5.263 -1.1156  1.0966 -1.5034
16779SOL    HW254700   8.958  10.208   5.386  0.4082  0.1668 -0.8287
16780SOL     OW54701   4.745   5.207   0.257 -0.1153 -0.5620  0.1679
16780SOL    HW154702   4.688   5.267   0.305 -1.3100 -0.7882 -0.9155
16780SOL    HW254703   4.814   5.263   0.221  0.0295 -0.1929  1.0018
16781SOL     OW54704   6.366   7.496   7.565  0.0600  0.2736 -0.3009
16781SOL    HW154705   6.449   7.449   7.566  0.0535  0.2632 -0.2343
16781SOL    HW254706   6.303   7.434   7.528  0.0800  0.2787 -0.3426
16782SOL     OW54707   3.618   9.464   8.611 -0.5885  0.8184 -0.4383
16782SOL    HW154708   3.618   9.537   8.672  3.0145  0.1034  0.6639
16782SOL    HW254709   3.644   9.503   8.527  1.8248  0.9031  0.2527
16783SOL     OW54710   3.001   7.516   1.652  0.3883 -0.1001 -0.4189
16783SOL    HW154711   3.059   7.441   1.668 -3.1079 -2.5772  2.5237
16783SOL    HW254712   3.024   7.579   1.720  0.4234 -0.5313 -0.0253
16784SOL     OW54713   2.243   8.988   7.814  0.2172 -0.4001 -0.5114
16784SOL    HW154714   2.258   9.043   7.890  1.6057  0.3095 -1.2580
16784SOL    HW254715   2.185   9.040   7.758  1.6430  0.4303 -1.2813
16785SOL     OW54716   8.778   8.895   4.835 -0.4275  0.1196 -0.7062
16785SOL    HW154717   8.720   8.858   4.902  1.2534 -2.0842 -0.3718
16785SOL    HW254718   8.739   8.980   4.815 -3.0884 -0.7341  0.3495
16786SOL     OW54719  10.271   1.600  10.635  0.1100  0.4576 -0.2906
16786SOL    HW154720  10.278   1.695  10.640  0.0961  0.4162  0.7072
16786SOL    HW254721  10.183   1.581  10.668  0.5120  0.0399  0.5912
16787SOL     OW54722   1.967   1.632   5.695  0.0393 -0.4429  0.2773
16787SOL    HW154723   1.935   1.635   5.605  1.8316 -0.1750 -0.3790
16787SOL    HW254724   2.060   1.654   5.689  0.3020 -0.8524  2.1467
16788SOL     OW54725  10.742   6.997   2.864 -0.0617 -0.1100  0.2193
16788SOL    HW154726  10.721   6.935   2.933  2.1028 -0.7046  0.3928
16788SOL    HW254727  10.753   6.944   2.785 -0.9548  0.3975 -0.2753
16789SOL     OW54728   8.526   9.885   4.219 -0.2017  0.5099 -0.2320
16789SOL    HW154729   8.563   9.852   4.301  0.6291 -1.6172 -1.3858
16789SOL    HW254730   8.529   9.980   4.228 -0.0460  0.3501  2.1476
16790SOL     OW54731   0.537   6.910   8.475 -0.4710  0.5561 -0.0299
16790SOL    HW154732   0.456   6.864   8.452  0.6873 -0.9866 -1.3252
16790SOL    HW254733   0.538   6.987   8.418 -1.3568  0.9944  0.5273
16791SOL     OW54734   1.456   6.806   6.590  0.0328 -0.4556  0.5940
16791SOL    HW154735   1.504   6.879   6.551  1.7531 -1.4461  0.7547
16791SOL    HW254736   1.418   6.760   6.515  0.0990 -0.1930  0.3965
16792SOL     OW54737   7.833   6.829   6.217 -0.1084  0.1890  0.0610
16792SOL    HW154738   7.739   6.841   6.228 -0.4895 -0.3185 -2.2400
16792SOL    HW254739   7.862   6.906   6.168  0.2134 -0.7975 -1.3459
16793SOL     OW54740   9.276   4.413   0.362 -0.0283 -0.5993  0.3033
16793SOL    HW154741   9.182   4.408   0.341 -0.0985 -0.4673  0.5912
16793SOL    HW254742   9.290   4.503   0.390  0.8173  0.3753 -2.7869
16794SOL     OW54743   8.141   0.649   0.748  0.9747 -0.2859 -0.2091
16794SOL    HW154744   8.090   0.569   0.738  0.6230 -0.2585  1.1966
16794SOL    HW254745   8.078   0.716   0.774  1.5618 -0.0157  0.5680
16795SOL     OW54746   9.655   6.661   0.231  0.1528  0.4440 -0.1476
16795SOL    HW154747   9.729   6.679   0.288  0.3106 -0.7389  0.0266
16795SOL    HW254748   9.620   6.578   0.261  0.5313 -0.4637 -2.0500
16796SOL     OW54749   2.948   9.489   4.632  0.9607 -0.1771  0.0402
16796SOL    HW154750   2.876   9.551   4.621  1.3684  0.5051  0.9986
16796SOL    HW254751   3.005   9.504   4.557  1.4367  1.1832  0.6338
16797SOL     OW54752   8.873   1.154   0.298  0.1762 -0.1456  0.0082
16797SOL    HW154753   8.792   1.181   0.342  0.4181  1.4403 -0.4720
16797SOL    HW254754   8.941   1.203   0.343  1.1027 -2.4381  1.2965
16798SOL     OW54755   4.568   4.894   3.591  0.9454 -0.1984  0.0825
16798SOL    HW154756   4.607   4.961   3.534 -0.1991 -0.8859 -1.5859
16798SOL    HW254757   4.489   4.867   3.545 -0.5599 -0.1403  2.4686
16799SOL     OW54758   4.582   0.747   2.253 -0.0055 -0.3680  0.2255
16799SOL    HW154759   4.553   0.690   2.182 -0.0131 -1.3318  0.9768
16799SOL    HW254760   4.548   0.705   2.332  0.7727  0.1912  0.8708
16800SOL     OW54761   6.114   7.360   1.899  0.2757  0.1625  0.0462
16800SOL    HW154762   6.120   7.451   1.868 -1.1856  0.2857  0.0460
16800SOL    HW254763   6.129   7.307   1.821  0.3216  0.4065 -0.1125
16801SOL     OW54764  10.829   9.398   5.759 -0.9638  0.3089 -0.1028
16801SOL    HW154765  10.839   9.461   5.831  4.0037  0.8395 -0.9282
16801SOL    HW254766  10.836   9.313   5.802 -1.1973  0.5064  0.3414
16802SOL     OW54767   1.200   8.739   0.267 -0.4562 -0.5272 -0.1002
16802SOL    HW154768   1.115   8.777   0.290 -0.3936 -0.4191 -0.0488
16802SOL    HW254769   1.179   8.672   0.201 -0.5717 -0.4403 -0.1517
16803SOL     OW54770   1.822   8.875   5.171  0.8920  0.3939  0.1079
16803SOL    HW154771   1.911   8.887   5.203  1.2823 -1.5362 -0.1589
16803SOL    HW254772   1.794   8.792   5.209 -0.6037  0.6974 -0.2685
16804SOL     OW54773   7.588   7.739   2.087 -0.1330 -0.2594  0.5076
16804SOL    HW154774   7.601   7.779   2.001  1.0549 -1.2865  0.1825
16804SOL    HW254775   7.670   7.753   2.133 -0.1923 -1.1193  0.8895
16805SOL     OW54776   8.521   2.724   0.564 -0.0462 -0.3189  0.1658
16805SOL    HW154777   8.553   2.682   0.484 -1.2413 -0.5367 -0.2301
16805SOL    HW254778   8.481   2.652   0.614 -0.2646 -0.0057  0.4465
16806SOL     OW54779  10.845   2.432   0.084 -0.6042  0.4347 -0.0915
16806SOL    HW154780  10.881   2.460   0.169  2.5075  1.4220 -1.5905
16806SOL    HW254781  10.827   2.339   0.095  0.1617  0.4442  1.5314
16807SOL     OW54782   2.249   9.824   3.906 -0.3578 -0.4024  0.4639
16807SOL    HW154783   2.257   9.729   3.895 -2.7902 -0.8810  2.0724
16807SOL    HW254784   2.190   9.835   3.980 -0.4765  2.3944  0.0710
16808SOL     OW54785   1.223  10.756   3.386  0.5467  0.0679 -0.5162
16808SOL    HW154786   1.186  10.710   3.310 -2.1432  1.2931 -0.0386
16808SOL    HW254787   1.250  10.685   3.445 -2.3458 -1.0168 -0.3359
16809SOL     OW54788   6.782   5.300   3.067 -0.3738  0.0825 -0.3538
16809SOL    HW154789   6.716   5.362   3.097 -0.7559 -0.2988 -0.4099
16809SOL    HW254790   6.740   5.214   3.071  0.4036 -0.2818  0.4697
16810SOL     OW54791   8.712  10.411   4.479 -0.1821 -0.0798 -0.1287
16810SOL    HW154792   8.621  10.439   4.494 -0.3168 -0.0530 -0.9433
16810SOL    HW254793   8.709  10.316   4.487 -0.2998 -0.0870 -0.2650
16811SOL     OW54794   6.411   5.928   7.375 -0.5880 -0.5765  0.3075
16811SOL    HW154795   6.409   5.885   7.290 -0.5288  1.0085 -0.5505
16811SOL    HW254796   6.424   6.021   7.354  1.0801 -0.3337  2.1015
16812SOL     OW54797   3.116   5.833   9.983 -0.3326  0.2727  0.7086
16812SOL    HW154798   3.182   5.771  10.013 -0.4502 -0.5063 -0.5326
16812SOL    HW254799   3.150   5.919  10.007  2.4649  0.1390 -2.1312
16813SOL     OW54800   1.147   2.379   6.942 -0.0636 -0.3582 -0.1228
16813SOL    HW154801   1.102   2.355   6.861 -0.5772 -0.4216  0.1732
16813SOL    HW254802   1.122   2.311   7.004 -0.4961  0.2391  0.3672
16814SOL     OW54803   4.193   5.969   2.972  0.6814  0.0224  0.2737
16814SOL    HW154804   4.177   5.943   3.063  0.7386  0.7905  0.5092
16814SOL    HW254805   4.164   6.060   2.967 -1.6084 -0.7064 -1.0905
16815SOL     OW54806  10.848   0.329   1.336 -0.0879  0.2706  0.1585
16815SOL    HW154807  10.791   0.326   1.413 -0.2435  0.9367  0.0771
16815SOL    HW254808  10.914   0.262   1.352 -1.1026 -0.7940  0.0791
16816SOL     OW54809   8.570   7.935  10.425 -0.1452 -0.0265 -0.4345
16816SOL    HW154810   8.491   7.881  10.433 -0.0656 -0.4191 -1.9127
16816SOL    HW254811   8.600   7.919  10.335  0.4099  1.7585 -0.6023
16817SOL     OW54812   3.025   6.581   7.716 -0.2976  0.7529 -0.1491
16817SOL    HW154813   2.998   6.658   7.666 -1.5065  0.5797  0.2017
16817SOL    HW254814   2.993   6.597   7.805  0.9963  0.6304  0.3651
16818SOL     OW54815   1.371   5.634   6.826 -0.1143 -0.2841  0.1085
16818SOL    HW154816   1.436   5.703   6.838 -1.1594  1.0506 -1.4274
16818SOL    HW254817   1.396   5.592   6.744 -0.9343 -0.0440 -0.2688
16819SOL     OW54818   4.229   3.392  11.113 -0.4414 -0.3867 -0.4237
16819SOL    HW154819   4.321   3.374  11.096 -0.1331 -0.1573  0.9457
16819SOL    HW254820   4.213   3.357  11.201 -1.4137  0.4405 -0.2563
16820SOL     OW54821   2.831   6.420   8.481 -0.4581  0.0032  0.1279
16820SOL    HW154822   2.830   6.515   8.490  1.0689  0.4838 -3.1383
16820SOL    HW254823   2.811   6.404   8.389 -1.2846 -2.9112  0.6953
16821SOL     OW54824   3.317   6.595   0.896 -0.1257 -0.1138  0.1483
16821SOL    HW154825   3.397   6.623   0.941 -0.6088 -0.3764  1.2145
16821SOL    HW254826   3.344   6.518   0.845  0.1364 -0.6995  1.1498
16822SOL     OW54827   7.937   8.732  10.855  0.1969 -0.4530  0.2867
16822SOL    HW154828   7.908   8.718  10.945  0.1572  1.1784  0.5594
16822SOL    HW254829   7.866   8.697  10.801  0.6866 -2.4057  0.8462
16823SOL     OW54830   3.293   7.337   5.522  0.8793  0.1280 -0.6008
16823SOL    HW154831   3.288   7.295   5.608  2.6230  1.3060  0.1099
16823SOL    HW254832   3.361   7.288   5.475 -0.8464 -1.2622 -1.8137
16824SOL     OW54833   4.177   0.515   3.417 -0.9104  0.0424 -0.4604
16824SOL    HW154834   4.227   0.436   3.439  0.0261  0.5530 -0.6754
16824SOL    HW254835   4.137   0.495   3.332 -0.9216 -0.3109 -0.3757
16825SOL     OW54836   1.494   5.517   6.602  0.2296 -0.1475  0.3945
16825SOL    HW154837   1.479   5.579   6.531 -0.8856  1.0148  1.5995
16825SOL    HW254838   1.436   5.443   6.582 -0.7793  0.5805  0.5641
16826SOL     OW54839   7.635   2.355  10.029 -0.1526 -0.3993  0.5447
16826SOL    HW154840   7.543   2.380  10.016  0.1595  1.0142  0.8969
16826SOL    HW254841   7.677   2.371   9.945 -0.0968 -0.4320  0.5663
16827SOL     OW54842   0.608   7.000   6.747  0.0967  0.4385  0.2669
16827SOL    HW154843   0.692   7.007   6.792 -1.1546 -0.0810  2.8899
16827SOL    HW254844   0.566   7.085   6.761 -0.9834 -0.2805  1.6331
16828SOL     OW54845   4.979   0.219   5.324  0.7824 -0.1196 -0.3648
16828SOL    HW154846   5.070   0.247   5.330  0.0723  2.0917  1.5588
16828SOL    HW254847   4.942   0.272   5.253  0.6623  0.0428 -0.1822
16829SOL     OW54848   4.378   5.878   1.693 -0.2461 -0.2996 -0.5810
16829SOL    HW154849   4.303   5.834   1.734  0.1954 -0.3136  0.2138
16829SOL    HW254850   4.364   5.971   1.711  0.2395 -0.3546  0.0852
16830SOL     OW54851   8.195   4.478   0.456 -0.0435  0.3722 -0.2925
16830SOL    HW154852   8.221   4.386   0.443 -1.2041  0.0895 -0.7033
16830SOL    HW254853   8.197   4.516   0.369 -0.3505  0.5286 -0.2305
16831SOL     OW54854   2.204   0.988   0.641  0.4463  0.3812 -0.9798
16831SOL    HW154855   2.203   0.897   0.612 -0.1975  0.1870 -0.3826
16831SOL    HW254856   2.148   0.989   0.719  0.9131  1.1743 -0.6366
16832SOL     OW54857   8.570  10.690   5.509  0.3713 -0.0791 -0.7247
16832SOL    HW154858   8.628  10.624   5.470  0.3306 -0.4922 -0.0980
16832SOL    HW254859   8.580  10.767   5.453  0.6381 -0.5248 -1.2991
16833SOL     OW54860   2.470   4.177   6.484  0.4018  0.0479  0.6150
16833SOL    HW154861   2.490   4.255   6.534 -0.0775 -0.6666  1.9623
16833SOL    HW254862   2.462   4.107   6.549  0.1692 -0.9969 -0.4867
16834SOL     OW54863   4.327   6.380   3.064 -0.2508  0.0248  0.4026
16834SOL    HW154864   4.352   6.443   2.996  0.0729 -1.1453 -0.6051
16834SOL    HW254865   4.250   6.336   3.028  0.7931 -1.6395  0.0797
16835SOL     OW54866  10.743   3.322   1.217 -0.3194  0.1994 -0.0849
16835SOL    HW154867  10.702   3.406   1.195  0.7437  0.6977 -0.1881
16835SOL    HW254868  10.672   3.272   1.258 -0.9494  1.1740  0.0589
16836SOL     OW54869   8.528   4.790   2.296  0.0118 -0.2057 -0.5095
16836SOL    HW154870   8.578   4.797   2.215 -1.1305  1.3045 -1.1359
16836SOL    HW254871   8.585   4.826   2.363  1.0288 -1.6098 -0.5823
16837SOL     OW54872   8.735   2.319   0.646 -0.0357 -0.7100  0.3427
16837SOL    HW154873   8.813   2.299   0.700  0.3919  2.4203  1.0940
16837SOL    HW254874   8.663   2.318   0.708 -0.1109 -0.7025  0.2547
16838SOL     OW54875   4.328   2.426   2.029  0.8312 -0.0505 -0.3777
16838SOL    HW154876   4.339   2.347   1.976  0.3007 -1.2655  1.2152
16838SOL    HW254877   4.241   2.417   2.068  1.4312  0.4328  1.1702
16839SOL     OW54878   6.577   3.181   6.435  0.2918 -0.1296 -0.2429
16839SOL    HW154879   6.659   3.151   6.397  0.8818 -1.6304  2.0103
16839SOL    HW254880   6.524   3.101   6.445  0.4707 -0.0082  2.6009
16840SOL     OW54881   8.717   8.363   9.595  0.8008 -0.3876 -0.1059
16840SOL    HW154882   8.743   8.271   9.594 -0.3970 -0.7512  0.6418
16840SOL    HW254883   8.761   8.401   9.519  0.7523 -1.7378 -0.8376
16841SOL     OW54884   8.301   7.371   2.830  0.3315 -0.2145 -0.0179
16841SOL    HW154885   8.297   7.318   2.751  1.2210  1.6523 -1.4078
16841SOL    HW254886   8.380   7.343   2.875 -0.6564 -1.9212  0.7530
16842SOL     OW54887  10.567  11.019   0.679 -0.2707 -0.5564 -0.4866
16842SOL    HW154888  10.476  11.049   0.681  0.5008  2.0542  2.0753
16842SOL    HW254889  10.587  10.999   0.771  2.4150  1.3475 -0.5775
16843SOL     OW54890   6.813   4.602   0.671  0.1041 -0.2742 -0.2810
16843SOL    HW154891   6.902   4.634   0.659 -0.1374  0.0632 -1.2935
16843SOL    HW254892   6.800   4.601   0.766 -0.0382  3.0647 -0.1542
16844SOL     OW54893   3.162  10.231   1.622  0.0340  0.2295  0.3444
16844SOL    HW154894   3.184  10.276   1.541  0.7169 -0.3816  0.1793
16844SOL    HW254895   3.140  10.142   1.594  0.8691 -0.1537  0.8919
16845SOL     OW54896   9.483   8.717   2.668 -0.1616  0.2752 -0.6293
16845SOL    HW154897   9.561   8.662   2.656  0.6511  1.5204 -1.2445
16845SOL    HW254898   9.433   8.704   2.587  1.2580  2.2923 -1.9186
16846SOL     OW54899   1.159   4.300   1.891 -0.1220 -0.5485 -0.2787
16846SOL    HW154900   1.154   4.355   1.812  1.0314 -1.1853 -0.8308
16846SOL    HW254901   1.251   4.307   1.918 -0.0879 -1.7516 -0.0388
16847SOL     OW54902   7.027  11.090  10.656 -0.2494 -0.1580 -0.1637
16847SOL    HW154903   7.014  11.000  10.628  0.1236  0.1256 -1.3030
16847SOL    HW254904   6.976  11.142  10.594  0.4885  0.4928 -0.2371
16848SOL     OW54905   8.068   3.116   1.335 -0.1501 -0.4682  0.2178
16848SOL    HW154906   8.025   3.150   1.413  1.2549  0.0425  0.7877
16848SOL    HW254907   8.036   3.171   1.264  0.9963  1.1766  0.9153
16849SOL     OW54908   8.376   0.990   5.527 -0.5843 -0.6986 -0.2970
16849SOL    HW154909   8.459   1.037   5.537 -0.5689 -0.9960  1.2713
16849SOL    HW254910   8.380   0.920   5.593 -2.3823 -0.2491  0.3496
16850SOL     OW54911   7.041   7.331   5.256 -0.9154  0.5669  0.3873
16850SOL    HW154912   7.065   7.369   5.341 -0.1198 -2.7930  1.8324
16850SOL    HW254913   6.945   7.333   5.255 -1.1125 -1.6133  2.6992
16851SOL     OW54914   0.922   1.792   7.633  0.0401 -0.4130  0.3699
16851SOL    HW154915   0.858   1.775   7.564  1.4104 -0.1111 -1.0417
16851SOL    HW254916   0.930   1.888   7.635  0.2200 -0.4325  0.7601
16852SOL     OW54917   1.721   8.903   5.948  0.5077 -0.1989  0.3458
16852SOL    HW154918   1.766   8.981   5.980 -1.0674  1.1869 -0.7088
16852SOL    HW254919   1.746   8.896   5.856 -1.2494  0.5084 -0.2208
16853SOL     OW54920   4.289   3.339   0.481  0.0851 -0.0862 -0.1423
16853SOL    HW154921   4.233   3.281   0.534 -0.8658  0.2160 -0.8103
16853SOL    HW254922   4.305   3.415   0.537  1.2823 -0.9220  0.7158
16854SOL     OW54923   6.600   0.426   5.029  0.5614  0.1818  0.5567
16854SOL    HW154924   6.578   0.334   5.035 -1.8761  0.8151  4.3096
16854SOL    HW254925   6.689   0.428   4.994  0.0600 -3.3786 -1.3669
16855SOL     OW54926   1.088   8.168   7.226 -0.2249 -1.0045 -0.4208
16855SOL    HW154927   1.042   8.104   7.172 -2.2330 -1.3676  1.5949
16855SOL    HW254928   1.031   8.245   7.226  0.1470 -0.7240  0.5287
16856SOL     OW54929   5.333   7.213   8.492  0.6245  0.1881  0.1301
16856SOL    HW154930   5.316   7.122   8.514 -0.8263  0.3035 -0.3839
16856SOL    HW254931   5.426   7.215   8.468  0.4475 -1.3709 -0.8402
16857SOL     OW54932   7.424   0.846   5.749 -0.0708  0.3927  0.1194
16857SOL    HW154933   7.509   0.813   5.777  0.5605  1.1014 -0.8768
16857SOL    HW254934   7.443   0.898   5.671 -1.4862  0.1589 -0.4172
16858SOL     OW54935   7.519   0.981   3.577 -0.7115  0.1534 -0.2091
16858SOL    HW154936   7.444   0.971   3.519 -0.1320 -2.1366 -0.6524
16858SOL    HW254937   7.537   0.893   3.610  2.6783  0.2508 -1.3347
16859SOL     OW54938   3.493   6.231   4.260 -0.2796 -0.2871  0.5709
16859SOL    HW154939   3.476   6.315   4.303  0.2578 -0.5493  1.3137
16859SOL    HW254940   3.562   6.251   4.196 -1.2769  0.1614 -0.4074
16860SOL     OW54941   5.641   9.509   7.695  0.3028  0.8484  0.0399
16860SOL    HW154942   5.638   9.568   7.619 -0.9487  0.4908 -0.2107
16860SOL    HW254943   5.551   9.480   7.706  0.6974 -0.1064  0.8874
16861SOL     OW54944  11.002   8.042   6.341  0.0328 -0.2492 -0.0198
16861SOL    HW154945  11.058   8.042   6.263 -0.2986  1.6170 -0.3195
16861SOL    HW254946  11.060   8.018   6.413  0.5208 -1.2388 -0.7204
16862SOL     OW54947   4.442   3.594   2.146  0.2159 -0.5572 -0.5441
16862SOL    HW154948   4.407   3.670   2.193  1.3642 -0.1208 -0.3597
16862SOL    HW254949   4.388   3.520   2.177 -0.0731 -0.0271  0.2636
16863SOL     OW54950   4.055   1.396   7.262  0.1994  0.4749  0.4997
16863SOL    HW154951   4.150   1.404   7.249 -0.1465  1.8850 -1.4775
16863SOL    HW254952   4.021   1.368   7.178 -1.0874 -1.0764  1.4758
16864SOL     OW54953   0.420  10.736   3.039 -0.1359 -0.0784 -0.5187
16864SOL    HW154954   0.357  10.786   2.988 -1.1197 -1.5937 -0.8661
16864SOL    HW254955   0.386  10.646   3.038  1.2527 -0.6617  0.5364
16865SOL     OW54956   9.029   3.238   8.983  0.1036  0.7838  0.2483
16865SOL    HW154957   8.993   3.154   8.954  0.7728  0.7103 -0.4109
16865SOL    HW254958   8.964   3.272   9.044 -0.9758  0.5535 -0.7278
16866SOL     OW54959   2.105   0.416   4.708 -0.3828 -0.0419 -0.1282
16866SOL    HW154960   2.082   0.350   4.773 -3.0347  0.7077 -0.1873
16866SOL    HW254961   2.052   0.394   4.632 -1.2010  1.9867 -0.2095
16867SOL     OW54962   6.758   4.975   0.655 -0.8407  0.0290  0.2698
16867SOL    HW154963   6.819   4.938   0.591 -0.8129 -0.3474  0.5151
16867SOL    HW254964   6.778   4.931   0.737 -0.4655  0.9485  0.6882
16868SOL     OW54965   8.757   4.933   7.427  0.0711 -1.0836 -0.4565
16868SOL    HW154966   8.750   5.010   7.371  0.1939 -0.1023  0.8432
16868SOL    HW254967   8.833   4.949   7.482 -0.3123 -1.8099  0.3210
16869SOL     OW54968  10.021   8.924   5.683  0.5858 -0.4556 -0.0353
16869SOL    HW154969  10.034   8.854   5.620 -0.2010 -0.3219 -0.3450
16869SOL    HW254970   9.992   8.999   5.632 -0.1553 -0.3736  0.4917
16870SOL     OW54971   3.099   8.394   7.479 -0.0645 -0.5543  0.5365
16870SOL    HW154972   3.174   8.393   7.419  1.4540 -2.3972  2.2811
16870SOL    HW254973   3.028   8.353   7.430 -0.1517  1.6227 -1.3079
16871SOL     OW54974   1.970   7.855   2.648 -0.1546  0.3218 -0.2239
16871SOL    HW154975   1.936   7.886   2.732  1.8223  1.1783  0.3290
16871SOL    HW254976   2.015   7.931   2.611  1.3878 -0.7926 -0.7437
16872SOL     OW54977   7.181   4.246   6.098 -0.2089 -0.0211 -0.5895
16872SOL    HW154978   7.260   4.265   6.048  0.1724 -0.0573 -0.0068
16872SOL    HW254979   7.110   4.284   6.046  0.3032  1.0350 -0.5421
16873SOL     OW54980   3.199   7.598   6.640  0.2271 -0.5033 -0.1375
16873SOL    HW154981   3.252   7.672   6.670  0.1787 -0.4634 -0.1511
16873SOL    HW254982   3.126   7.593   6.702 -0.2351 -0.0070 -0.6359
16874SOL     OW54983   5.467  10.328   6.967 -0.5823 -0.1951  0.0379
16874SOL    HW154984   5.469  10.395   6.898 -3.0205 -0.2363 -0.1418
16874SOL    HW254985   5.374  10.314   6.984 -0.0700 -0.7643  2.8058
16875SOL     OW54986   3.658   7.078  10.600 -0.1172  0.2849  0.1071
16875SOL    HW154987   3.726   7.029  10.647 -0.2835 -0.8989 -0.8369
16875SOL    HW254988   3.578   7.063  10.651 -0.0075  0.2172  0.2582
16876SOL     OW54989   8.781  10.004  10.800  0.4102  0.2051 -0.1419
16876SOL    HW154990   8.757  10.001  10.892  0.9055  1.5364  0.0451
16876SOL    HW254991   8.731   9.932  10.760  1.2183 -1.2634  1.3664
16877SOL     OW54992   3.233   3.949   7.843 -0.0296  0.1779  0.0538
16877SOL    HW154993   3.321   3.974   7.870  0.1283  0.2984 -0.5517
16877SOL    HW254994   3.180   4.027   7.857 -0.4416 -0.4108  2.1015
16878SOL     OW54995  10.601   2.960   5.800  0.5536 -0.4886 -0.1566
16878SOL    HW154996  10.643   2.886   5.843 -0.5635 -1.8504 -1.3447
16878SOL    HW254997  10.509   2.936   5.792 -0.1318  1.5865  0.5690
16879SOL     OW54998   6.591   4.726  10.961 -0.3664 -0.4081 -0.2327
16879SOL    HW154999   6.499   4.720  10.987 -0.4557 -0.8869 -0.6478
16879SOL    HW255000   6.603   4.655  10.898  0.3273 -0.4445 -0.0656
16880SOL     OW55001   3.592   7.067   0.353 -0.6099 -0.5458 -0.4149
16880SOL    HW155002   3.625   7.141   0.403 -0.0639 -0.7042 -0.5311
16880SOL    HW255003   3.528   7.105   0.293 -0.0250 -0.1018 -0.7630
16881SOL     OW55004   3.066   4.728  10.484 -0.2430  0.2907  0.1513
16881SOL    HW155005   3.004   4.739  10.557 -2.8006 -1.1923 -1.6172
16881SOL    HW255006   3.110   4.646  10.503 -2.7331 -1.4564 -1.0382
16882SOL     OW55007   7.168   2.083   5.873 -0.5370  0.7463 -0.3451
16882SOL    HW155008   7.154   1.989   5.872  0.6634  0.5260  0.4049
16882SOL    HW255009   7.122   2.116   5.796 -0.4363 -0.5389 -0.9759
16883SOL     OW55010   0.077   4.337   0.957 -0.5131  0.3621 -0.1962
16883SOL    HW155011   0.129   4.257   0.969  0.4277  0.8817 -0.6745
16883SOL    HW255012   0.019   4.340   1.033 -0.1716 -0.4783  0.1137
16884SOL     OW55013   0.138   5.697   4.295 -0.1186  0.0046  0.2097
16884SOL    HW155014   0.056   5.741   4.319  0.7782  1.6903  0.3589
16884SOL    HW255015   0.147   5.714   4.201 -0.3967 -1.0079 -0.0113
16885SOL     OW55016   5.919  10.291   7.342  0.0273  0.2050  0.6029
16885SOL    HW155017   5.975  10.362   7.311  1.1466  0.7390  3.5037
16885SOL    HW255018   5.832  10.330   7.344  0.3213  0.9087  0.4561
16886SOL     OW55019   3.684   0.335   7.383 -0.2281 -0.1645  0.0496
16886SOL    HW155020   3.701   0.349   7.476  0.0393 -0.5713  0.0660
16886SOL    HW255021   3.607   0.387   7.364  1.5714  2.5993 -0.2378
16887SOL     OW55022   0.980   7.877   9.265  0.3249 -0.3352 -0.4199
16887SOL    HW155023   0.913   7.937   9.232  0.0896 -0.0715  0.4896
16887SOL    HW255024   0.998   7.817   9.193 -1.1998 -0.6743 -0.5435
16888SOL     OW55025   3.750   7.036   6.822 -0.0801  0.4121 -0.0357
16888SOL    HW155026   3.839   7.033   6.859 -0.4957 -3.7100  1.1829
16888SOL    HW255027   3.694   7.056   6.897 -0.4363 -1.6884  0.3233
16889SOL     OW55028   0.164   0.853   7.976  0.2299 -0.3032  0.3453
16889SOL    HW155029   0.131   0.909   7.905 -0.1307 -0.4056  0.4336
16889SOL    HW255030   0.161   0.910   8.054  1.4005  0.0775  0.1326
16890SOL     OW55031   9.748   0.453   3.989 -0.6331  0.2708 -0.2998
16890SOL    HW155032   9.670   0.433   4.040 -0.2957 -0.4044 -0.0268
16890SOL    HW255033   9.789   0.367   3.974 -0.2098  0.5626 -0.8663
16891SOL     OW55034   6.756   1.939  10.413  0.1617  0.1786  0.4148
16891SOL    HW155035   6.776   1.845  10.419 -2.1640 -0.6426 -2.3865
16891SOL    HW255036   6.674   1.948  10.461  1.9180  1.5303  3.3981
16892SOL     OW55037   0.724   7.426  10.485  0.3997 -0.1334  0.0892
16892SOL    HW155038   0.688   7.376  10.558  0.9981  0.0764  0.5373
16892SOL    HW255039   0.698   7.378  10.407  0.8291 -1.0500  0.5061
16893SOL     OW55040   0.818   3.970  10.572 -0.4557  0.3004  0.2593
16893SOL    HW155041   0.904   3.996  10.605  0.4376 -1.3897 -0.5974
16893SOL    HW255042   0.783   4.049  10.532  0.6471  1.0504  0.7227
16894SOL     OW55043   1.090   5.162   4.512 -0.4685 -0.0723  0.5821
16894SOL    HW155044   1.007   5.183   4.554  0.1878 -0.1052  1.9571
16894SOL    HW255045   1.145   5.240   4.526 -0.4148  0.1341 -0.7167
16895SOL     OW55046   5.011   5.286   8.404  0.1433 -0.3722  0.3180
16895SOL    HW155047   4.984   5.365   8.358  0.9432  0.5147  1.3385
16895SOL    HW255048   5.096   5.264   8.367 -0.3569 -1.1403 -0.4107
16896SOL     OW55049   5.639   6.994   8.787  0.6573 -0.2109 -0.5213
16896SOL    HW155050   5.548   7.006   8.813  0.6023 -1.9168  0.2275
16896SOL    HW255051   5.659   7.070   8.733 -1.3398  0.0008 -1.0533
16897SOL     OW55052   3.351   6.783   2.800 -0.1871  0.0631 -0.1111
16897SOL    HW155053   3.369   6.877   2.795  0.9162 -0.1163  0.0976
16897SOL    HW255054   3.351   6.754   2.709  1.1222 -0.0036 -0.1094
16898SOL     OW55055   9.063   9.886   3.925 -0.2171 -0.6788  0.2822
16898SOL    HW155056   9.126   9.902   3.996 -0.0592 -1.3078  0.2876
16898SOL    HW255057   8.978   9.911   3.961 -0.4898 -3.0351  1.4963
16899SOL     OW55058   7.021   7.097   0.394 -0.5239  0.1809  0.5464
16899SOL    HW155059   7.057   7.123   0.309 -0.7792  0.7816  0.6151
16899SOL    HW255060   7.026   7.177   0.448  0.4025 -0.4107  1.3672
16900SOL     OW55061   4.513   9.337   5.583 -0.3129 -0.2134  0.2807
16900SOL    HW155062   4.545   9.256   5.543  0.3014  0.4565 -0.6279
16900SOL    HW255063   4.445   9.308   5.645  1.1882 -1.5898  1.3890
16901SOL     OW55064   9.509   2.147   6.505  0.5874 -0.2477  0.2779
16901SOL    HW155065   9.506   2.079   6.573  2.8237 -1.1730 -0.4591
16901SOL    HW255066   9.470   2.224   6.547  2.5518 -0.5357  2.9692
16902SOL     OW55067  11.041  10.904   1.040 -0.2501  0.5426 -0.1452
16902SOL    HW155068  11.036  10.809   1.050  1.0968  0.6043  1.4328
16902SOL    HW255069  10.985  10.922   0.964 -0.3877 -1.5116 -0.6113
16903SOL     OW55070   8.495   2.648   2.071  0.2938  0.1753 -0.3261
16903SOL    HW155071   8.480   2.563   2.031 -1.2148  0.1202  0.2858
16903SOL    HW255072   8.433   2.707   2.027  2.5856  1.4547 -2.0999
16904SOL     OW55073   0.287   4.994   5.605  0.5541 -0.1145 -0.1516
16904SOL    HW155074   0.270   4.957   5.692  1.7001  0.0178  0.1486
16904SOL    HW255075   0.288   5.088   5.619 -0.4935 -0.0315 -0.5587
16905SOL     OW55076  10.540   4.015   2.286 -0.2442  0.3747 -0.0701
16905SOL    HW155077  10.629   4.011   2.252 -0.5858  0.1907 -0.9860
16905SOL    HW255078  10.485   4.015   2.207 -0.9987  2.4614  0.4037
16906SOL     OW55079   3.795   7.542   8.088  0.0151  0.1702  0.2356
16906SOL    HW155080   3.863   7.604   8.066 -0.3082  1.5049  2.6956
16906SOL    HW255081   3.841   7.468   8.129  0.1785 -0.1277 -0.4690
16907SOL     OW55082   6.586   5.548   5.674  0.7956 -0.0124  0.3604
16907SOL    HW155083   6.579   5.463   5.718  1.7115  0.2629  1.0734
16907SOL    HW255084   6.650   5.597   5.727  1.7704  0.4119 -1.1623
16908SOL     OW55085   6.356   5.141   8.407 -0.6068  0.0799 -0.1640
16908SOL    HW155086   6.394   5.063   8.447 -0.3983  0.6833  0.8616
16908SOL    HW255087   6.272   5.152   8.451 -0.2404  0.9213  0.3668
16909SOL     OW55088   5.789   3.742   1.639 -0.1227  0.2425 -0.5406
16909SOL    HW155089   5.872   3.789   1.648  0.1601 -0.3764  0.1986
16909SOL    HW255090   5.743   3.787   1.568  0.2312  1.5049  0.0058
16910SOL     OW55091   2.384   6.427   4.209 -0.0641 -0.1819 -0.4714
16910SOL    HW155092   2.294   6.460   4.209  0.0712  0.2101  0.0378
16910SOL    HW255093   2.400   6.401   4.300  0.8400  1.1927 -0.2093
16911SOL     OW55094   3.822   9.647   0.309  0.4550  0.4598  0.0248
16911SOL    HW155095   3.789   9.596   0.382  0.8942 -1.0063 -0.7564
16911SOL    HW255096   3.787   9.735   0.323 -0.8636 -0.1959  1.0674
16912SOL     OW55097   0.584  10.931   4.699 -0.2696 -0.0608  0.3926
16912SOL    HW155098   0.490  10.944   4.704 -0.4384 -1.3202  0.7810
16912SOL    HW255099   0.619  10.976   4.777 -0.3595  1.6477 -0.4883
16913SOL     OW55100   8.732   1.760   0.540  0.5866  0.0519  0.2728
16913SOL    HW155101   8.782   1.836   0.570  0.7755 -0.2153  0.6425
16913SOL    HW255102   8.664   1.797   0.485  1.6048  0.3723 -0.8179
16914SOL     OW55103   0.091  10.091   9.613  0.8782  0.3045  0.4793
16914SOL    HW155104   0.129  10.146   9.682 -1.0865  1.1507  0.9566
16914SOL    HW255105   0.143  10.112   9.535  1.1413  1.7256  0.9989
16915SOL     OW55106   2.325   1.768   6.143 -0.9744 -0.1012 -0.3887
16915SOL    HW155107   2.366   1.700   6.195  0.6893 -0.6878 -2.3520
16915SOL    HW255108   2.368   1.849   6.171 -1.1998 -0.1832  0.2106
16916SOL     OW55109   7.264   3.045  10.797 -0.5466 -0.2741  0.1304
16916SOL    HW155110   7.279   2.955  10.769 -1.3824 -1.3512  2.8170
16916SOL    HW255111   7.193   3.038  10.861 -0.8387  2.3595  0.1884
16917SOL     OW55112   9.393   1.117   0.986 -0.4352  0.0685  0.7266
16917SOL    HW155113   9.364   1.207   0.995  0.7528  0.4498  0.9347
16917SOL    HW255114   9.489   1.121   0.996 -0.1402 -0.9365 -1.2896
16918SOL     OW55115  10.782   0.074   0.938 -0.0995 -0.7757  0.3593
16918SOL    HW155116  10.744   0.162   0.929  0.0776 -0.8967 -1.9268
16918SOL    HW255117  10.709   0.020   0.968 -1.5941 -0.7539 -2.8197
16919SOL     OW55118   6.157   0.936   1.463  0.1280  0.2814 -0.3105
16919SOL    HW155119   6.161   1.023   1.425 -3.6909  0.8583  0.2365
16919SOL    HW255120   6.166   0.951   1.558  0.9651 -0.1394 -0.3120
16920SOL     OW55121   0.284   5.428   5.368 -1.1269 -0.3314 -0.2540
16920SOL    HW155122   0.345   5.367   5.409 -0.6683  0.7423  0.7292
16920SOL    HW255123   0.203   5.419   5.418 -1.3385 -0.7562 -0.6691
16921SOL     OW55124  10.029  10.457   2.131 -0.1447 -0.4290 -0.6223
16921SOL    HW155125  10.054  10.543   2.163  0.3808 -1.4283  1.9298
16921SOL    HW255126   9.945  10.439   2.173  1.0781 -2.2422  1.2470
16922SOL     OW55127   7.552   2.744   8.910 -0.0952 -0.2026 -0.5081
16922SOL    HW155128   7.594   2.733   8.825 -0.0509  2.9790 -1.0319
16922SOL    HW255129   7.545   2.839   8.921  0.5445 -0.4278  3.3690
16923SOL     OW55130   0.775   2.483   2.143 -0.3309 -0.1942 -0.0034
16923SOL    HW155131   0.806   2.535   2.069  0.3515 -0.0669  0.3644
16923SOL    HW255132   0.690   2.521   2.166  0.4170  1.1460  0.6301
16924SOL     OW55133   7.936   5.691   6.093  0.1188  0.2781 -0.6765
16924SOL    HW155134   7.960   5.604   6.124  1.1785 -0.0985 -2.3860
16924SOL    HW255135   7.978   5.751   6.155  0.7201 -0.4235 -0.3807
16925SOL     OW55136  11.054   1.572   8.429 -0.4658 -0.3706  0.3047
16925SOL    HW155137  11.070   1.654   8.475  2.0963 -0.4656 -0.2740
16925SOL    HW255138  11.014   1.599   8.346  0.7060  0.3485 -0.0441
16926SOL     OW55139   8.004   2.438   4.152  0.5415  0.1589 -0.6133
16926SOL    HW155140   8.052   2.381   4.092 -0.3499  0.5320 -1.7226
16926SOL    HW255141   8.041   2.419   4.238  1.0762 -1.2249 -1.1210
16927SOL     OW55142  10.163   5.973   3.211  0.3629  0.5276 -0.1693
16927SOL    HW155143  10.183   5.883   3.187 -0.8030  0.1698  0.1074
16927SOL    HW255144  10.193   5.980   3.302  0.3699  0.3800 -0.1588
16928SOL     OW55145   2.280   6.191   1.203 -0.1317 -0.6136  0.0094
16928SOL    HW155146   2.276   6.134   1.127 -0.3890 -0.0294 -0.4194
16928SOL    HW255147   2.365   6.173   1.242 -1.0194 -2.8335  1.1009
16929SOL     OW55148   7.588  10.256   5.582  0.8475 -0.1081  0.3698
16929SOL    HW155149   7.631  10.275   5.498 -0.3941 -1.0777 -0.5213
16929SOL    HW255150   7.536  10.334   5.600  1.3914  0.2466  0.4238
16930SOL     OW55151   9.297   0.277   0.333 -0.2563 -0.0027  0.0724
16930SOL    HW155152   9.360   0.302   0.266  1.2853 -1.9049  0.7330
16930SOL    HW255153   9.215   0.320   0.306  0.6315  0.3742 -2.2648
16931SOL     OW55154   1.210   1.885  10.485 -0.4192 -0.7766  0.1557
16931SOL    HW155155   1.280   1.885  10.419 -0.4935  0.3852  0.0513
16931SOL    HW255156   1.217   1.971  10.527 -2.3369 -0.2523 -0.4867
16932SOL     OW55157   3.878   1.568   3.877  0.0315 -0.6252  0.4252
16932SOL    HW155158   3.935   1.504   3.919 -1.0210 -2.5083 -0.8494
16932SOL    HW255159   3.931   1.607   3.809  1.0324  0.7714  1.9207
16933SOL     OW55160   9.135   7.052   2.663 -0.3193  0.6063  0.0165
16933SOL    HW155161   9.172   7.051   2.575 -2.4278  0.3969 -0.9386
16933SOL    HW255162   9.196   7.105   2.715  0.9510  0.7439 -1.5597
16934SOL     OW55163  10.778   6.117   8.788  0.3320 -0.5674 -0.2361
16934SOL    HW155164  10.792   6.145   8.879 -1.5404  1.7577 -0.5687
16934SOL    HW255165  10.864   6.128   8.746  0.5160  1.3577  0.5596
16935SOL     OW55166   0.793   2.243   0.595 -0.1194 -0.1883 -0.3622
16935SOL    HW155167   0.852   2.177   0.558  0.0225 -0.7474  0.8104
16935SOL    HW255168   0.765   2.206   0.679 -0.5211  0.9727  0.0394
16936SOL     OW55169   8.762   0.016   4.294  0.1714  0.2445  0.1711
16936SOL    HW155170   8.798  -0.028   4.217  1.3549  0.1073  0.7843
16936SOL    HW255171   8.765   0.109   4.271  2.0132  0.3258  0.6322
16937SOL     OW55172   1.060  10.385   0.309 -0.0177 -0.1928  0.0347
16937SOL    HW155173   1.063  10.303   0.359  0.6311 -0.1464  0.0762
16937SOL    HW255174   0.969  10.391   0.279 -0.7277  0.3326  2.1435
16938SOL     OW55175   1.103   8.316   0.729  0.5357 -0.2667  0.0613
16938SOL    HW155176   1.013   8.283   0.731  0.2999  0.3380 -0.1958
16938SOL    HW255177   1.126   8.328   0.821 -0.2173  1.0430  0.1049
16939SOL     OW55178   9.730   1.580  10.311 -0.5662 -0.1122 -0.9104
16939SOL    HW155179   9.743   1.506  10.252 -0.7874  0.7406 -2.0564
16939SOL    HW255180   9.777   1.555  10.391 -0.5326 -1.4243 -1.3112
16940SOL     OW55181   1.035   8.549   2.062 -0.2501  0.3443 -0.6324
16940SOL    HW155182   1.008   8.547   1.970 -1.2840 -0.4819 -0.3291
16940SOL    HW255183   0.961   8.512   2.110  0.7039 -0.2790  0.4274
16941SOL     OW55184   4.192   0.794   8.107  0.0028 -0.6253 -0.9779
16941SOL    HW155185   4.156   0.862   8.049  0.0866 -0.0180 -0.3367
16941SOL    HW255186   4.278   0.827   8.132 -0.7179 -0.0116  0.8780
16942SOL     OW55187   0.030   2.726   3.580 -0.0447  0.3711 -0.0759
16942SOL    HW155188  -0.018   2.663   3.633  0.8856  2.3713  3.4896
16942SOL    HW255189  -0.002   2.712   3.491 -1.3685 -3.5968  0.8220
16943SOL     OW55190   6.898   2.828   6.795  0.1991  0.2093  0.5572
16943SOL    HW155191   6.956   2.782   6.734 -0.2273  1.9751 -1.2965
16943SOL    HW255192   6.862   2.759   6.850  3.8858 -1.0099  1.7452
16944SOL     OW55193  10.444   3.920   0.986 -0.2101 -0.0836  0.5376
16944SOL    HW155194  10.437   4.001   1.038  1.0838  0.4084 -0.0016
16944SOL    HW255195  10.537   3.913   0.967 -0.4730 -1.0627 -0.4548
16945SOL     OW55196   2.256   2.514  10.639  0.4187  0.2337  0.0343
16945SOL    HW155197   2.250   2.447  10.707 -1.8165  0.8443  0.5187
16945SOL    HW255198   2.318   2.578  10.673  1.3988 -0.8121  0.2549
16946SOL     OW55199   8.370   6.385   0.535 -0.8004 -0.1312  0.4938
16946SOL    HW155200   8.336   6.436   0.609  0.4314  0.1398  0.8868
16946SOL    HW255201   8.461   6.366   0.558  0.0086  0.9959 -1.4578
16947SOL     OW55202   7.392   5.981   0.356 -0.5847 -0.0305  0.2746
16947SOL    HW155203   7.408   5.991   0.262 -1.2360  0.7196  0.2380
16947SOL    HW255204   7.363   5.890   0.365 -0.2918 -0.1804 -0.2147
16948SOL     OW55205   7.700   1.139   6.339 -0.4968 -0.1365 -0.2904
16948SOL    HW155206   7.686   1.089   6.419  2.7486 -0.1806  0.3842
16948SOL    HW255207   7.629   1.204   6.338 -2.4422 -2.1225  0.8979
16949SOL     OW55208   7.125   2.533   2.379  0.3033  0.3064  0.5105
16949SOL    HW155209   7.102   2.624   2.395  2.0736  0.6877  1.0324
16949SOL    HW255210   7.053   2.483   2.417 -0.3333  1.4613  0.8657
16950SOL     OW55211   8.295  10.068   6.939 -0.5460  0.5270  0.5245
16950SOL    HW155212   8.328  10.153   6.968  1.5754  0.5854 -1.8138
16950SOL    HW255213   8.332  10.005   7.001 -0.7583  1.1314  1.2784
16951SOL     OW55214   6.068   6.735   5.741  0.5494  0.2364  0.4123
16951SOL    HW155215   6.098   6.738   5.650 -0.6402 -1.3425 -0.0706
16951SOL    HW255216   5.997   6.799   5.745  2.8923  3.0072  1.2280
16952SOL     OW55217   2.173   9.873   0.364 -0.0915 -0.3802  0.1619
16952SOL    HW155218   2.226   9.803   0.402 -0.7429 -1.1108 -0.2316
16952SOL    HW255219   2.104   9.889   0.428  1.5374  1.8073  1.5006
16953SOL     OW55220  10.296   4.721   7.963  0.1625 -0.4802 -0.3896
16953SOL    HW155221  10.286   4.805   7.918 -0.8370 -0.3567  0.0301
16953SOL    HW255222  10.206   4.696   7.986  0.6028 -0.7957  1.0769
16954SOL     OW55223   4.717   4.309   7.956  0.4117  0.0800  0.2845
16954SOL    HW155224   4.628   4.299   7.991 -0.5165  1.8715 -1.3252
16954SOL    HW255225   4.740   4.222   7.923 -1.1379 -0.2235 -0.0787
16955SOL     OW55226   9.898   4.302   8.720  0.4618  0.8184 -0.1672
16955SOL    HW155227   9.886   4.300   8.626 -1.2374  1.6755 -0.0036
16955SOL    HW255228   9.854   4.223   8.752 -1.1555  1.7900  0.0876
16956SOL     OW55229   1.810   8.712   2.226 -0.4408 -0.4599  0.2679
16956SOL    HW155230   1.734   8.706   2.284  0.6378 -2.2259  1.6240
16956SOL    HW255231   1.878   8.752   2.281  0.1990 -0.8292 -0.2520
16957SOL     OW55232   3.863   2.599   7.901  0.4101 -0.1166  0.0728
16957SOL    HW155233   3.805   2.665   7.940 -0.7225 -1.4976  0.8286
16957SOL    HW255234   3.825   2.580   7.816 -0.0378 -0.7291  0.4010
16958SOL     OW55235   5.556   8.421   3.238 -0.6669  0.4785  0.2789
16958SOL    HW155236   5.626   8.483   3.217 -0.4611 -0.2969 -1.4514
16958SOL    HW255237   5.487   8.475   3.276 -0.3469  1.7261 -0.8232
16959SOL     OW55238   7.009   4.670   7.282 -0.0237  0.2074 -0.4797
16959SOL    HW155239   7.046   4.588   7.251  0.7803 -0.4771  2.0448
16959SOL    HW255240   7.023   4.732   7.210  0.6477 -1.4800 -1.8673
16960SOL     OW55241   3.299  10.895   3.442  1.0095 -0.2072  0.9069
16960SOL    HW155242   3.242  10.835   3.491  1.0875  0.2880  1.6234
16960SOL    HW255243   3.245  10.972   3.427  0.2635 -1.1387 -1.6830
16961SOL     OW55244   8.911   9.327   8.520  0.3839 -1.0060 -0.0728
16961SOL    HW155245   8.997   9.319   8.478  0.9547 -0.6378  0.9765
16961SOL    HW255246   8.849   9.296   8.454  1.1624  0.1694 -1.4184
16962SOL     OW55247   0.512   0.214   0.444  1.0304 -0.0188 -0.4237
16962SOL    HW155248   0.465   0.133   0.422 -0.1305  1.0642 -2.1229
16962SOL    HW255249   0.601   0.185   0.465 -0.0380 -2.0230  1.8721
16963SOL     OW55250   5.141   7.581   3.723 -0.3275  0.3722 -0.4048
16963SOL    HW155251   5.075   7.648   3.708 -0.5691 -0.3724 -3.0688
16963SOL    HW255252   5.094   7.509   3.766 -0.3143  1.3434  1.3502
16964SOL     OW55253   2.647   3.437   4.051 -0.6189  0.3562  0.3289
16964SOL    HW155254   2.702   3.495   3.998  0.0234  0.1781  0.7894
16964SOL    HW255255   2.579   3.495   4.087 -1.0972  0.4631 -0.7289
16965SOL     OW55256   5.602   5.154   4.252  0.4333  0.3367 -0.1414
16965SOL    HW155257   5.595   5.191   4.164 -1.5925  0.4240  0.0188
16965SOL    HW255258   5.578   5.225   4.310 -1.6534 -0.6323  0.2705
16966SOL     OW55259   6.944   5.670   3.080 -0.3095  0.2216  0.3227
16966SOL    HW155260   7.002   5.676   3.004  0.4601  0.8029  0.9538
16966SOL    HW255261   6.889   5.593   3.061 -0.4241  0.6063 -1.0235
16967SOL     OW55262  11.013   9.350   2.573  0.5718 -0.2463 -0.6688
16967SOL    HW155263  11.049   9.422   2.521 -0.1099  1.4894  1.1281
16967SOL    HW255264  10.981   9.392   2.652  1.4857 -2.7532  1.1447
16968SOL     OW55265   4.970   5.640   3.594 -0.1702 -0.2778  0.5772
16968SOL    HW155266   4.963   5.666   3.502  0.3325 -1.0559  0.3114
16968SOL    HW255267   5.063   5.651   3.615 -0.6134  2.0318  1.6619
16969SOL     OW55268   9.446   2.261   7.427 -0.1435  0.1484  0.0897
16969SOL    HW155269   9.412   2.288   7.342  1.3206  1.3247 -0.1738
16969SOL    HW255270   9.519   2.203   7.407  0.5708  0.8739  0.4990
16970SOL     OW55271   9.123  10.476   0.845 -0.5819  0.5346 -0.7074
16970SOL    HW155272   9.077  10.536   0.787 -0.0787  0.9876 -0.6412
16970SOL    HW255273   9.089  10.389   0.822 -1.0330  0.8027 -1.0610
16971SOL     OW55274   3.522   6.074  10.858  0.6463 -0.1466  0.0259
16971SOL    HW155275   3.456   6.048  10.922  0.2962  0.4354 -0.0978
16971SOL    HW255276   3.477   6.133  10.798  1.0533 -0.4421 -0.5816
16972SOL     OW55277   7.584  11.117   5.937  0.0406 -0.8959 -0.4233
16972SOL    HW155278   7.607  11.087   5.849 -0.7786 -0.8021 -0.6787
16972SOL    HW255279   7.490  11.102   5.943 -0.1194  0.2185  0.0073
16973SOL     OW55280   1.553  10.634   3.281 -0.1800  0.3539  0.2562
16973SOL    HW155281   1.467  10.667   3.307 -0.3833 -0.1730  0.2581
16973SOL    HW255282   1.583  10.695   3.213 -1.5534 -0.7114 -1.3891
16974SOL     OW55283   7.297  11.036   1.139 -0.0855  0.5007  0.0856
16974SOL    HW155284   7.233  10.966   1.151 -1.2887  1.4551 -0.5484
16974SOL    HW255285   7.262  11.109   1.191  1.0741  0.6890  0.6293
16975SOL     OW55286   3.631   6.550   0.478  0.3895 -0.5030  0.4423
16975SOL    HW155287   3.669   6.638   0.476  1.0020 -0.7702 -0.8937
16975SOL    HW255288   3.637   6.523   0.570 -0.8864  1.2847  1.0839
16976SOL     OW55289   7.686   0.310   9.150 -0.1831 -0.7179 -0.2175
16976SOL    HW155290   7.647   0.224   9.169 -2.1243  0.0209 -0.6001
16976SOL    HW255291   7.679   0.318   9.055 -0.4552  0.0526 -0.1366
16977SOL     OW55292   8.206   0.451   0.032 -0.0273  0.0401  0.2276
16977SOL    HW155293   8.193   0.408  -0.052 -0.2947 -0.9486  0.7569
16977SOL    HW255294   8.120   0.446   0.075 -0.3963  2.2023 -0.1750
16978SOL     OW55295   1.988  10.048  10.199 -0.3434 -0.2551 -0.1171
16978SOL    HW155296   1.897  10.066  10.221 -0.0899  0.4447  0.3893
16978SOL    HW255297   2.005   9.962  10.236 -0.3171  0.3266  1.2615
16979SOL     OW55298   5.158   4.169  10.493 -0.2162  0.2080 -0.2092
16979SOL    HW155299   5.186   4.081  10.469 -1.9111 -0.1096 -1.1672
16979SOL    HW255300   5.239   4.214  10.519  0.6806 -1.5891  0.2121
16980SOL     OW55301   4.855   3.589   5.117  0.7026 -0.1252 -0.4222
16980SOL    HW155302   4.860   3.494   5.106 -0.4023 -0.0449 -1.8807
16980SOL    HW255303   4.859   3.625   5.028 -0.3163  1.0974 -0.0176
16981SOL     OW55304   8.922   6.249   6.655  0.1841  0.3585 -0.6422
16981SOL    HW155305   8.862   6.235   6.582  0.3018 -0.2673 -0.6242
16981SOL    HW255306   8.949   6.341   6.646  0.7373  0.1064 -1.8076
16982SOL     OW55307   8.715   2.314   0.365  0.0090 -0.4700 -0.2036
16982SOL    HW155308   8.706   2.308   0.460 -3.8045  1.9109 -0.1942
16982SOL    HW255309   8.758   2.399   0.350  1.2304 -1.1392 -0.6690
16983SOL     OW55310   1.819   9.956   9.236  0.2293  0.2293 -0.1858
16983SOL    HW155311   1.884  10.021   9.211 -0.4324  1.0014  0.0469
16983SOL    HW255312   1.846   9.928   9.323 -0.8311  2.0485  0.7953
16984SOL     OW55313   5.820   0.021   1.651 -0.0386  0.3590  0.5744
16984SOL    HW155314   5.903   0.046   1.610  0.9432 -1.5553  1.2839
16984SOL    HW255315   5.845  -0.022   1.733 -1.7771  0.4674  1.2047
16985SOL     OW55316   1.322   2.729   3.794  0.5288  0.5087 -0.2588
16985SOL    HW155317   1.382   2.734   3.868 -0.1765  1.7646  0.2527
16985SOL    HW255318   1.349   2.800   3.736 -0.9925  1.6875  0.4139
16986SOL     OW55319   2.377   9.618   5.392  0.1165 -0.0330  0.0058
16986SOL    HW155320   2.424   9.578   5.465  1.8232  0.2980 -0.8747
16986SOL    HW255321   2.313   9.676   5.434 -0.6727 -1.7297  1.2442
16987SOL     OW55322   9.875   2.899   5.735  0.7924  0.4433  0.2644
16987SOL    HW155323   9.892   2.923   5.644  0.8109  0.0850  0.1730
16987SOL    HW255324   9.877   2.804   5.736 -0.8692  0.3810  0.3164
16988SOL     OW55325   6.178   8.824   5.084 -0.1824 -0.2461 -0.0350
16988SOL    HW155326   6.140   8.910   5.102 -0.9805 -0.7667  0.8365
16988SOL    HW255327   6.258   8.822   5.136 -0.2750 -0.1163  0.1130
16989SOL     OW55328   9.865   8.455  10.000  0.0464 -0.7472 -0.0532
16989SOL    HW155329   9.875   8.374   9.949 -0.7902 -0.8163 -0.1282
16989SOL    HW255330   9.803   8.431  10.070 -1.6919  0.3032 -1.1681
16990SOL     OW55331   5.227   7.616   7.551  0.2168 -0.3217 -0.4962
16990SOL    HW155332   5.160   7.612   7.484 -1.3044 -0.0221  0.9327
16990SOL    HW255333   5.218   7.703   7.589 -2.4875 -1.9817  3.3803
16991SOL     OW55334   0.690   1.658   5.310 -0.3366  0.5430  0.5556
16991SOL    HW155335   0.727   1.571   5.323  0.3880  0.7690  0.0514
16991SOL    HW255336   0.607   1.643   5.265  0.6180  0.2090 -1.1281
16992SOL     OW55337   0.246   7.413   8.698 -0.0915  0.8027 -0.3166
16992SOL    HW155338   0.194   7.406   8.778  0.9602  0.3043  0.3573
16992SOL    HW255339   0.333   7.383   8.724 -0.1440 -1.1164 -2.0786
16993SOL     OW55340   1.665   3.849   9.943  0.3733 -0.2552  0.6023
16993SOL    HW155341   1.748   3.880   9.907  0.2287  0.6941  1.0535
16993SOL    HW255342   1.625   3.798   9.872  1.0773 -0.2439  0.1899
16994SOL     OW55343   0.479   6.195  10.438  0.4299 -0.7091  0.2286
16994SOL    HW155344   0.538   6.189  10.363  3.0115 -0.3300  2.0475
16994SOL    HW255345   0.431   6.113  10.438  1.4257 -1.3300 -1.0342
16995SOL     OW55346   1.089  10.041   0.953 -0.1786 -0.1745 -0.3333
16995SOL    HW155347   1.005   9.997   0.965  0.2936 -1.3400 -1.0744
16995SOL    HW255348   1.128  10.043   1.040 -0.9626  0.3834  0.0179
16996SOL     OW55349   8.627   7.356   2.290  0.2328  0.2118 -0.5545
16996SOL    HW155350   8.584   7.417   2.350 -0.8926  1.9831 -2.9451
16996SOL    HW255351   8.720   7.360   2.312 -0.1778  0.5439  1.2116
16997SOL     OW55352   4.165   6.852   5.645 -0.7821 -0.3682 -0.6030
16997SOL    HW155353   4.189   6.797   5.719  0.0262  0.1294 -0.4886
16997SOL    HW255354   4.235   6.839   5.581  1.0794  2.7376  0.5957
16998SOL     OW55355   0.244   2.572   4.696  0.0934 -0.9477 -0.5919
16998SOL    HW155356   0.329   2.545   4.731  2.1002  3.3215 -1.5282
16998SOL    HW255357   0.188   2.581   4.773  1.0641 -1.9876  0.2758
16999SOL     OW55358   9.281  10.222   2.014 -0.6274  0.2008  0.1319
16999SOL    HW155359   9.209  10.209   1.951  0.0281 -0.4780 -0.5035
16999SOL    HW255360   9.360  10.219   1.960  0.0523 -1.7817  1.1143
17000SOL     OW55361   3.996   3.322   7.712  0.0802  0.1384 -0.3798
17000SOL    HW155362   4.004   3.409   7.752 -0.2201  0.2095 -0.4758
17000SOL    HW255363   3.929   3.277   7.764 -0.9268  0.5225 -1.3152
17001SOL     OW55364   8.591   5.107   8.705 -0.8987 -0.1558 -0.3509
17001SOL    HW155365   8.601   5.126   8.611 -1.4217 -0.6149 -0.5006
17001SOL    HW255366   8.573   5.192   8.745 -1.8124 -0.1202 -0.8222
17002SOL     OW55367   5.878   1.812   8.389  0.2023  0.3482 -0.2221
17002SOL    HW155368   5.952   1.850   8.340  1.2174  0.5765  1.4123
17002SOL    HW255369   5.812   1.881   8.388  0.2314  0.3768 -1.1996
17003SOL     OW55370   5.310   9.454   8.306 -0.2800  0.1901 -0.0954
17003SOL    HW155371   5.361   9.476   8.228  0.6464 -0.3928  0.3280
17003SOL    HW255372   5.231   9.411   8.272 -0.5376  1.1415 -0.7594
17004SOL     OW55373   6.822   9.065   7.703  0.7343  0.1238 -0.4332
17004SOL    HW155374   6.779   9.063   7.618  2.6064 -0.0656 -1.4337
17004SOL    HW255375   6.751   9.078   7.766 -0.7422 -0.1529 -1.9742
17005SOL     OW55376   1.587   8.001  10.078 -0.0200  0.2198  0.4416
17005SOL    HW155377   1.578   8.072  10.142 -0.4566  1.3938 -0.8734
17005SOL    HW255378   1.544   8.034   9.999  1.1957 -0.8636 -0.7182
17006SOL     OW55379   1.046   7.439   8.982 -0.2115  1.0469 -0.5761
17006SOL    HW155380   1.039   7.402   8.894 -2.3275  1.1457 -0.5037
17006SOL    HW255381   1.133   7.478   8.985  1.8339 -2.9916 -0.9786
17007SOL     OW55382   5.896   1.418   3.655  0.3518 -0.5314  0.6877
17007SOL    HW155383   5.872   1.443   3.566  3.5258 -2.1043 -0.7623
17007SOL    HW255384   5.843   1.475   3.711 -0.6010  1.6449 -2.1950
17008SOL     OW55385   5.217   7.123   7.637 -0.1369  0.3704  0.0769
17008SOL    HW155386   5.223   7.094   7.728 -0.9730 -1.2936 -0.3670
17008SOL    HW255387   5.197   7.217   7.644 -4.3306 -0.3922  1.7739
17009SOL     OW55388   1.345   1.188   7.535 -0.0893 -0.2934 -0.0973
17009SOL    HW155389   1.348   1.283   7.547  1.2643 -0.1099 -1.5989
17009SOL    HW255390   1.395   1.172   7.455 -1.2996 -2.1709 -0.5404
17010SOL     OW55391   0.538   0.931   5.461 -0.7181  0.0260 -0.4054
17010SOL    HW155392   0.507   0.950   5.372 -0.6365  1.3051 -0.1772
17010SOL    HW255393   0.469   0.877   5.499 -2.5884  2.4512 -0.0560
17011SOL     OW55394   8.507   7.264   4.417 -0.0364  0.1150 -0.5506
17011SOL    HW155395   8.485   7.180   4.375  0.1005 -1.1781  1.7633
17011SOL    HW255396   8.423   7.297   4.448 -0.0736  0.8165 -1.3619
17012SOL     OW55397   8.874   0.795   3.660  0.1391  0.4773  0.1749
17012SOL    HW155398   8.937   0.835   3.721 -0.1265  1.3852 -0.1256
17012SOL    HW255399   8.928   0.748   3.597  0.4621  0.3013  0.5825
17013SOL     OW55400   2.065   0.390   3.312 -0.4421  0.8596  0.8181
17013SOL    HW155401   2.126   0.317   3.322 -1.0843  0.1956 -0.0398
17013SOL    HW255402   1.984   0.351   3.281 -0.8279  1.9249  0.4182
17014SOL     OW55403   2.723   5.548   6.591  0.0331  0.1154 -0.9372
17014SOL    HW155404   2.807   5.552   6.546 -0.0278 -0.4660 -1.1160
17014SOL    HW255405   2.746   5.537   6.683  0.1569  1.0914 -0.8452
17015SOL     OW55406   5.030   7.228   0.304 -0.8524 -0.4999 -0.0316
17015SOL    HW155407   5.017   7.145   0.349  1.8994 -0.9750  0.0146
17015SOL    HW255408   5.036   7.205   0.211  1.3536 -0.6195  0.0939
17016SOL     OW55409   4.782   1.134   7.565 -0.2563 -0.0089 -0.0913
17016SOL    HW155410   4.789   1.188   7.486  3.3571  0.5794  0.4977
17016SOL    HW255411   4.854   1.071   7.558  0.7437  0.5967  3.0724
17017SOL     OW55412   9.021   1.810   4.080 -0.2133  0.2669 -0.0659
17017SOL    HW155413   8.939   1.760   4.071  0.8022 -1.2295 -1.4996
17017SOL    HW255414   9.084   1.747   4.112  0.7271  1.0551 -0.3309
17018SOL     OW55415   0.112   8.726   8.254 -0.0855  0.8017  0.2088
17018SOL    HW155416   0.073   8.775   8.326  0.3580 -0.2891  1.2378
17018SOL    HW255417   0.146   8.646   8.295  0.9013  0.5170 -1.0793
17019SOL     OW55418   6.927   1.887   4.882  0.0729  0.6152 -0.0719
17019SOL    HW155419   6.957   1.796   4.876 -1.8225 -0.1051  0.6986
17019SOL    HW255420   7.000   1.938   4.847  0.3748 -1.2995 -2.5062
17020SOL     OW55421   5.300   9.564   2.815 -0.1686 -0.3361 -0.1834
17020SOL    HW155422   5.205   9.576   2.804 -0.0101  0.6637 -0.5498
17020SOL    HW255423   5.322   9.491   2.757 -0.4523  0.5083 -1.3858
17021SOL     OW55424   4.328   6.962   8.012  0.1040 -0.3000  0.4388
17021SOL    HW155425   4.234   6.959   8.030 -0.3378  2.8813 -0.6386
17021SOL    HW255426   4.364   7.010   8.087  0.1567  1.9745 -0.9404
17022SOL     OW55427   4.729   5.899   3.591 -0.4812  0.5397  0.1559
17022SOL    HW155428   4.775   5.982   3.580 -1.0943  0.7061 -1.4237
17022SOL    HW255429   4.667   5.896   3.518 -1.8032 -0.4382  1.2642
17023SOL     OW55430   2.921  10.031   7.308  0.5468 -0.3478 -0.4063
17023SOL    HW155431   2.861  10.105   7.294  0.6742 -0.2008 -0.1839
17023SOL    HW255432   2.994  10.050   7.249  1.2667  0.4759  0.7188
17024SOL     OW55433   5.100   2.924  10.545 -0.1555 -0.4304  0.3353
17024SOL    HW155434   5.146   2.860  10.491  1.4509  1.4745 -0.6970
17024SOL    HW255435   5.048   2.975  10.483  2.6766  2.6113  0.1517
17025SOL     OW55436   3.910   4.489   9.782 -0.0387 -0.0967 -0.4781
17025SOL    HW155437   3.920   4.438   9.862 -1.6834  0.8120  0.3428
17025SOL    HW255438   3.844   4.554   9.802 -0.7456 -0.0385 -2.6751
17026SOL     OW55439   1.989   9.586   8.879 -0.1983  0.1582 -0.2872
17026SOL    HW155440   2.068   9.540   8.850  0.2717  0.0501  1.0761
17026SOL    HW255441   1.926   9.516   8.897 -0.1232  0.1558 -0.0277
17027SOL     OW55442  10.786   8.553   1.167  1.0881  0.4499  0.3171
17027SOL    HW155443  10.858   8.547   1.104  1.2477 -0.0498  0.5431
17027SOL    HW255444  10.716   8.500   1.130  0.2226  2.2069 -0.6895
17028SOL     OW55445   8.725   0.311   4.229  0.2932  0.0522 -0.1550
17028SOL    HW155446   8.792   0.307   4.297  0.1618  0.6740  0.0120
17028SOL    HW255447   8.647   0.343   4.274 -0.3229 -1.3299 -0.1933
17029SOL     OW55448   8.514   4.940   5.885 -0.1689  0.4223 -0.0554
17029SOL    HW155449   8.548   5.014   5.934 -0.4698  0.6714 -0.2228
17029SOL    HW255450   8.591   4.900   5.845 -0.1726  1.7467 -1.5036
17030SOL     OW55451   0.387   9.645   4.412 -0.3525 -0.4525 -0.2006
17030SOL    HW155452   0.303   9.629   4.456  0.1798  1.2439  1.5485
17030SOL    HW255453   0.448   9.586   4.455  0.0255  0.7170  0.9074
17031SOL     OW55454   7.112   2.598   7.007 -0.3506  0.4438  0.2544
17031SOL    HW155455   7.020   2.626   7.011  0.1332  2.2057 -0.2204
17031SOL    HW255456   7.114   2.532   6.938 -1.7494 -1.8227  2.2155
17032SOL     OW55457   0.655   3.086   8.449  0.6318  0.2312 -0.0781
17032SOL    HW155458   0.634   3.082   8.543  0.9684 -2.2383 -0.0251
17032SOL    HW255459   0.619   3.169   8.420 -1.0619  0.2847  1.8904
17033SOL     OW55460  10.988   2.297   2.621  0.0452 -0.0075 -0.4393
17033SOL    HW155461  11.015   2.286   2.713  2.6858  0.9403 -1.0224
17033SOL    HW255462  11.003   2.211   2.582  2.3169  0.4360 -0.7007
17034SOL     OW55463   2.104   0.449   6.724  0.3299 -0.4281  0.2671
17034SOL    HW155464   2.141   0.367   6.757 -1.6286 -0.9202  1.4120
17034SOL    HW255465   2.019   0.456   6.767  1.0439  3.0271  1.4697
17035SOL     OW55466   5.924   9.719   3.985 -0.1064 -0.1809  0.7882
17035SOL    HW155467   5.847   9.700   3.931 -0.2856 -0.0356  0.9915
17035SOL    HW255468   5.952   9.807   3.957 -0.5828  0.1650  1.3777
17036SOL     OW55469   4.616  10.922   9.820 -0.0181 -0.6445  0.8911
17036SOL    HW155470   4.545  10.985   9.810  0.2946 -0.5597 -1.2486
17036SOL    HW255471   4.688  10.960   9.769  0.2668 -2.5628 -0.2187
17037SOL     OW55472   4.034   3.805   2.252 -0.5524  0.0711 -0.9795
17037SOL    HW155473   4.056   3.712   2.249 -1.4184 -0.1751 -0.0931
17037SOL    HW255474   4.073   3.841   2.172  0.8388 -0.8031 -0.7302
17038SOL     OW55475   9.821   2.284   9.053 -0.5044  0.3780 -0.1774
17038SOL    HW155476   9.823   2.370   9.095  1.1361  0.5063 -0.4645
17038SOL    HW255477   9.786   2.226   9.121  0.7251  0.8433  0.8955
17039SOL     OW55478   6.109   1.991   5.488  0.1359  0.7130  0.8870
17039SOL    HW155479   6.117   2.034   5.573 -0.4466  0.4130  1.1045
17039SOL    HW255480   6.125   1.898   5.507 -1.5977  0.3912  0.9881
17040SOL     OW55481  10.418   5.852   0.906 -0.2814  0.3565 -0.8101
17040SOL    HW155482  10.494   5.796   0.900 -0.9250 -0.8810  1.5707
17040SOL    HW255483  10.432   5.919   0.839  1.6131 -1.2886 -2.1635
17041SOL     OW55484   1.254   7.267   2.318 -0.1728 -0.5085 -0.3254
17041SOL    HW155485   1.283   7.197   2.259 -1.7332 -1.2367 -0.2775
17041SOL    HW255486   1.332   7.293   2.365  0.7347 -1.2091 -1.3967
17042SOL     OW55487   0.388   5.056   8.508 -0.1981  0.4170  0.5185
17042SOL    HW155488   0.323   5.051   8.578 -1.0567  1.2134 -0.1973
17042SOL    HW255489   0.434   5.138   8.522 -1.3654  1.3131 -0.6617
17043SOL     OW55490   5.279   8.316  10.639 -0.2064 -0.5602 -0.2559
17043SOL    HW155491   5.321   8.285  10.719  1.0482 -0.2723 -0.7830
17043SOL    HW255492   5.253   8.236  10.593 -0.2297 -0.7366  0.0589
17044SOL     OW55493   6.269  10.625   7.748  0.6805  0.6070  0.0178
17044SOL    HW155494   6.250  10.662   7.834 -0.0050 -0.1124  0.1919
17044SOL    HW255495   6.187  10.633   7.699  0.4427 -0.8003  0.1282
17045SOL     OW55496   9.869  10.820   6.544  0.1745 -0.0231 -0.6808
17045SOL    HW155497   9.933  10.813   6.615 -0.0459 -1.6362 -0.6221
17045SOL    HW255498   9.808  10.887   6.574  0.3793 -0.3181  0.4189
17046SOL     OW55499   7.851   3.623   6.626  0.1725  0.2624  0.0115
17046SOL    HW155500   7.836   3.697   6.566  3.6860  0.7314 -0.5129
17046SOL    HW255501   7.850   3.546   6.569  2.9909  0.6601 -0.7442
17047SOL     OW55502   1.164   7.795   8.831 -0.0499 -0.0532 -0.0360
17047SOL    HW155503   1.146   7.790   8.737 -0.3302 -0.4364  0.0406
17047SOL    HW255504   1.207   7.880   8.842  1.1041 -0.5318 -0.6983
17048SOL     OW55505   3.473   6.947   5.430  0.5011  0.0726 -0.2102
17048SOL    HW155506   3.526   6.966   5.508 -0.5124 -0.1041  0.5416
17048SOL    HW255507   3.384   6.969   5.456  0.0911 -0.3780 -1.1963
17049SOL     OW55508  10.851   7.017   5.170 -0.0260 -0.5021  0.1590
17049SOL    HW155509  10.803   6.940   5.202  1.5307 -1.3645  0.5116
17049SOL    HW255510  10.793   7.090   5.190 -0.7427 -1.3904  1.5705
17050SOL     OW55511   5.404   7.255   7.198 -0.1041 -0.1939 -0.5481
17050SOL    HW155512   5.487   7.219   7.228 -0.5641  0.4109  1.6326
17050SOL    HW255513   5.381   7.320   7.264 -1.6221  0.6828 -1.8680
17051SOL     OW55514   8.406   6.765   1.147  0.5830  0.2713  0.1814
17051SOL    HW155515   8.355   6.779   1.067 -0.7648 -1.2890  0.7026
17051SOL    HW255516   8.341   6.763   1.217  1.5465 -0.1700  1.0956
17052SOL     OW55517   1.880   1.888   7.187  0.2068  0.1267 -0.2611
17052SOL    HW155518   1.866   1.969   7.236  1.3122 -0.4091  0.9946
17052SOL    HW255519   1.817   1.826   7.226  0.5559 -0.0870 -0.0312
17053SOL     OW55520   9.987  11.087   8.569  0.7598 -0.3751 -0.2960
17053SOL    HW155521   9.928  11.071   8.495 -1.5807  0.0562  1.3619
17053SOL    HW255522   9.993  11.002   8.613 -2.0943  0.4042  1.8494
17054SOL     OW55523   0.796   8.986   3.781 -0.0338  0.2254 -0.5165
17054SOL    HW155524   0.758   8.986   3.869  1.0047  1.0789 -0.0488
17054SOL    HW255525   0.774   9.073   3.746  1.3049  0.6690 -0.2998
17055SOL     OW55526   0.808   7.858   8.902  0.1243  0.4397  0.0923
17055SOL    HW155527   0.868   7.805   8.954 -0.0788  1.9365  1.9569
17055SOL    HW255528   0.862   7.930   8.869  0.0121  0.0789 -0.9066
17056SOL     OW55529   6.428   5.500   0.158 -0.3727  0.0317  0.4458
17056SOL    HW155530   6.508   5.462   0.122  1.8683  2.7245  2.1027
17056SOL    HW255531   6.403   5.568   0.095 -1.0046 -0.3745  0.2486
17057SOL     OW55532   8.654  10.342  10.193  0.1464 -0.6780  0.3166
17057SOL    HW155533   8.728  10.282  10.198  0.3688 -0.4012  0.3452
17057SOL    HW255534   8.679  10.407  10.127 -0.3444 -0.9595 -0.1571
17058SOL     OW55535   6.327  10.111   2.075 -0.4304  0.0679  0.9788
17058SOL    HW155536   6.305  10.030   2.123 -0.4455 -0.1556  0.5980
17058SOL    HW255537   6.243  10.156   2.065 -0.4988 -0.1095  0.7543
17059SOL     OW55538  11.072   6.907   4.743 -0.6614  0.2159  0.4343
17059SOL    HW155539  11.007   6.854   4.789 -1.3310  0.8871  0.2648
17059SOL    HW255540  11.027   6.988   4.721 -0.4322 -0.1554 -1.5986
17060SOL     OW55541   9.824   1.642   9.469  0.1873  0.2938 -0.3404
17060SOL    HW155542   9.782   1.707   9.525  0.6782  0.4870 -0.1925
17060SOL    HW255543   9.765   1.634   9.393  0.1871  0.9994 -0.4188
17061SOL     OW55544   5.563   4.265   8.928 -0.4032 -0.0540  0.5693
17061SOL    HW155545   5.593   4.182   8.892 -1.7551 -0.9899  1.4989
17061SOL    HW255546   5.613   4.331   8.881 -0.6583 -1.2818 -1.5616
17062SOL     OW55547   6.071   8.231   5.869  0.2420 -0.6523 -0.0665
17062SOL    HW155548   6.154   8.278   5.867  1.6114 -2.7653  1.6965
17062SOL    HW255549   6.023   8.269   5.942  0.0515 -0.0710 -0.4862
17063SOL     OW55550   3.113   3.555   6.907 -0.2282 -0.3403  0.6679
17063SOL    HW155551   3.040   3.570   6.967 -1.4186  0.3641 -0.8936
17063SOL    HW255552   3.089   3.603   6.827  0.3306 -2.8548 -1.1216
17064SOL     OW55553   0.240   3.295   6.381  0.5137  0.1567 -1.2241
17064SOL    HW155554   0.226   3.310   6.287  0.1234 -1.9575 -1.5478
17064SOL    HW255555   0.153   3.276   6.416  0.8047 -0.1886 -0.6626
17065SOL     OW55556   1.591   5.520   4.550  0.5551  0.2855 -0.0613
17065SOL    HW155557   1.580   5.601   4.599  0.4323 -0.0557  0.4864
17065SOL    HW255558   1.683   5.520   4.524  0.8283  0.0870  0.8739
17066SOL     OW55559   5.123   8.605   8.491  0.0719 -0.3082 -0.0301
17066SOL    HW155560   5.119   8.698   8.467  0.3212  0.1136  1.4788
17066SOL    HW255561   5.164   8.563   8.415 -0.0408  0.8071 -0.7359
17067SOL     OW55562  10.060  10.292  10.158  0.2894  0.6255  0.2620
17067SOL    HW155563  10.094  10.367  10.108  0.6641 -0.8614 -1.8422
17067SOL    HW255564  10.109  10.217  10.124 -0.8613 -0.7416  1.5151
17068SOL     OW55565   0.604   6.800   4.364  0.7292  0.2870 -0.2479
17068SOL    HW155566   0.626   6.772   4.275  0.8961 -0.7350  0.1043
17068SOL    HW255567   0.687   6.794   4.412  0.1537 -1.8158  0.6270
17069SOL     OW55568   6.524   8.574   6.633  0.1419 -0.0271 -0.4922
17069SOL    HW155569   6.564   8.576   6.720  0.5716 -2.9417 -0.5197
17069SOL    HW255570   6.431   8.588   6.650 -0.1338 -2.7168  0.8201
17070SOL     OW55571   2.037   5.986   8.860  0.5434 -0.0269  0.8974
17070SOL    HW155572   1.982   6.047   8.811  1.3749  0.5363  0.6389
17070SOL    HW255573   1.980   5.911   8.879  0.0646 -0.0620 -0.5488
17071SOL     OW55574  10.155   3.353   6.707  0.3868  0.5068 -0.1572
17071SOL    HW155575  10.249   3.338   6.705  0.1349 -1.1735 -0.8228
17071SOL    HW255576  10.118   3.268   6.732 -0.9104  1.4010  1.1431
17072SOL     OW55577   0.601   6.126   0.162  0.4630 -0.0357  0.5055
17072SOL    HW155578   0.605   6.069   0.085  0.3610  0.4815  0.1158
17072SOL    HW255579   0.569   6.209   0.129  1.5814  0.5689  0.8893
17073SOL     OW55580   1.024   6.018   0.341 -0.7362  0.3031 -0.2239
17073SOL    HW155581   0.969   5.947   0.373 -0.0236  0.4700  1.4622
17073SOL    HW255582   1.101   6.017   0.398  0.0354  1.4136 -1.1863
17074SOL     OW55583   9.780   0.375   4.959 -0.0051 -0.1521 -0.5163
17074SOL    HW155584   9.875   0.366   4.953  0.3422  0.2282  2.4879
17074SOL    HW255585   9.747   0.285   4.962  0.4309 -0.2983 -0.0009
17075SOL     OW55586   9.294   7.488   7.663 -0.4897 -0.3782 -0.1168
17075SOL    HW155587   9.334   7.546   7.727 -0.1091 -0.1713 -0.5315
17075SOL    HW255588   9.333   7.402   7.681  1.1392  0.0613 -1.3143
17076SOL     OW55589   5.009  10.905  10.295  0.1461 -0.1259  0.4773
17076SOL    HW155590   5.040  10.992  10.323 -2.4203  0.5999  1.3105
17076SOL    HW255591   5.007  10.911  10.199 -0.6077  0.9985  0.5424
17077SOL     OW55592   3.390   0.551   6.355 -0.1474 -0.2340 -0.1977
17077SOL    HW155593   3.372   0.466   6.395  0.4685 -0.2709  0.0162
17077SOL    HW255594   3.308   0.575   6.311 -0.1111 -1.2646 -0.8627
17078SOL     OW55595   7.911   3.031   4.959  0.2948 -0.4083 -0.4643
17078SOL    HW155596   7.930   3.081   5.038 -2.0041  0.5726 -0.4368
17078SOL    HW255597   7.967   2.954   4.964  2.2615  1.0228  0.6662
17079SOL     OW55598   7.395   2.251   6.854  0.4987 -0.0454  0.0893
17079SOL    HW155599   7.331   2.182   6.837  0.1589 -0.0025  1.1296
17079SOL    HW255600   7.460   2.241   6.784 -0.6071 -0.1127 -0.9713
17080SOL     OW55601   2.242   4.418   1.866 -0.3210  0.0208  0.3216
17080SOL    HW155602   2.221   4.370   1.946 -1.6015 -0.8831 -0.5069
17080SOL    HW255603   2.275   4.351   1.806 -0.7766  0.4081 -0.3791
17081SOL     OW55604   9.728   5.414  10.684 -0.1043 -0.2218  0.0579
17081SOL    HW155605   9.724   5.472  10.608  4.1833  0.1038 -0.1513
17081SOL    HW255606   9.747   5.327  10.648  1.3807 -0.1777  0.6433
17082SOL     OW55607   8.958   3.988   2.728  0.7863 -0.2315 -0.0114
17082SOL    HW155608   9.041   3.940   2.716  0.2696 -1.3489  0.7093
17082SOL    HW255609   8.924   3.955   2.811  1.1457  2.5400  1.3510
17083SOL     OW55610  10.028   3.192   7.288 -0.4352  0.6948  0.1868
17083SOL    HW155611  10.085   3.232   7.355 -0.3297  0.4653  0.2379
17083SOL    HW255612   9.994   3.266   7.238  0.1412  0.8228 -0.0284
17084SOL     OW55613   5.360   2.447   3.936 -0.2170 -0.1783 -0.4921
17084SOL    HW155614   5.304   2.499   3.877 -0.8674  2.0208  1.8949
17084SOL    HW255615   5.444   2.492   3.934  0.3173 -1.1701 -1.0667
17085SOL     OW55616   0.411   4.854   3.809  0.0756  0.1214 -0.2626
17085SOL    HW155617   0.466   4.904   3.748 -2.0260  1.2546 -1.3290
17085SOL    HW255618   0.435   4.887   3.896  2.5148 -0.9087 -0.4718
17086SOL     OW55619   3.521   4.572   9.617 -0.4101  0.1294  0.4771
17086SOL    HW155620   3.576   4.495   9.600  0.2397  0.7137 -0.1287
17086SOL    HW255621   3.442   4.556   9.566  0.6856  0.9144 -1.6045
17087SOL     OW55622   0.116  10.790  10.870 -0.3948  0.0753 -0.1220
17087SOL    HW155623   0.195  10.758  10.826  1.1535  1.2150  1.6635
17087SOL    HW255624   0.105  10.733  10.946 -0.5365  0.6967  0.3351
17088SOL     OW55625   6.477   2.718   2.224  0.8872  0.2477  0.2552
17088SOL    HW155626   6.391   2.737   2.262  0.4431 -0.9939 -0.0895
17088SOL    HW255627   6.522   2.802   2.223 -0.9837  1.2830 -1.2293
17089SOL     OW55628  10.170   6.071   1.798 -0.1870 -0.7440 -0.9924
17089SOL    HW155629  10.186   5.997   1.739  0.3373 -1.6974  0.2983
17089SOL    HW255630  10.126   6.032   1.873  1.9382 -0.1493  0.6458
17090SOL     OW55631   0.178   2.962   3.606 -0.0601  0.0377  0.3768
17090SOL    HW155632   0.143   2.876   3.584  2.4456 -1.0280  0.2435
17090SOL    HW255633   0.232   2.986   3.531  0.9812  0.7258  1.3095
17091SOL     OW55634   5.319   6.031   8.922  0.1856  0.0780 -0.0268
17091SOL    HW155635   5.384   6.046   8.991  0.9368 -1.4990 -0.3591
17091SOL    HW255636   5.245   6.087   8.947  1.5737  1.8269  0.4335
17092SOL     OW55637   8.859   4.975   0.463  0.1821  0.2307  0.2045
17092SOL    HW155638   8.790   4.949   0.524 -0.8985 -0.8005 -1.3760
17092SOL    HW255639   8.815   5.029   0.398  0.4465 -1.7597 -1.7448
17093SOL     OW55640  10.069   7.301   6.271 -0.3130  0.2789  0.3150
17093SOL    HW155641  10.023   7.380   6.297 -0.5662  0.1544  0.2479
17093SOL    HW255642  10.063   7.243   6.347 -2.1037 -0.5551 -0.4065
17094SOL     OW55643   3.728   9.623   2.989 -0.4330 -0.5508  0.2434
17094SOL    HW155644   3.808   9.672   2.970  0.5987 -1.8676  0.9727
17094SOL    HW255645   3.658   9.689   2.988  0.7132  0.7024 -0.0010
17095SOL     OW55646   5.958   0.446   1.715  0.3245 -0.3780  0.0938
17095SOL    HW155647   5.946   0.362   1.670  0.5264 -0.4486  0.1719
17095SOL    HW255648   5.884   0.452   1.775 -1.7193  1.0774 -2.3164
17096SOL     OW55649  10.659   3.796   7.371  0.6360 -0.2350 -0.2921
17096SOL    HW155650  10.588   3.859   7.378  0.3281 -0.6254  0.1474
17096SOL    HW255651  10.732   3.838   7.417  0.0401 -0.7456  1.1810
17097SOL     OW55652   7.904   8.055   4.429 -0.9010  0.1055  0.0825
17097SOL    HW155653   7.902   8.145   4.462 -0.3436 -0.4855  1.8071
17097SOL    HW255654   7.856   8.004   4.493  1.9132 -1.4171  1.1843
17098SOL     OW55655  10.904   7.531   6.560  0.0129 -0.6577 -0.2376
17098SOL    HW155656  10.989   7.487   6.560  1.2213  1.4783  0.9340
17098SOL    HW255657  10.886   7.548   6.468  2.1372  1.0166 -0.4275
17099SOL     OW55658   9.726   9.331   9.174 -0.1018 -0.2561  0.0249
17099SOL    HW155659   9.811   9.370   9.152 -0.5064  0.4380 -0.3467
17099SOL    HW255660   9.725   9.248   9.126 -0.6579  0.8876 -2.1057
17100SOL     OW55661   4.151   8.092   1.402  0.1004 -0.4215 -0.3286
17100SOL    HW155662   4.204   8.042   1.339  1.8371  0.5547  0.2938
17100SOL    HW255663   4.073   8.117   1.353  0.7214 -0.9605 -1.6435
17101SOL     OW55664   1.914   9.190   8.253  0.4245  0.6991 -0.4057
17101SOL    HW155665   1.937   9.281   8.273 -1.2489  1.0665 -0.0395
17101SOL    HW255666   1.821   9.183   8.276  0.1345 -0.7002 -1.8711
17102SOL     OW55667   7.017   0.172   6.515  0.0544  0.4859  0.4502
17102SOL    HW155668   7.029   0.099   6.453  1.1918  1.2716 -0.2863
17102SOL    HW255669   6.930   0.206   6.495  1.3648  2.4192 -2.6534
17103SOL     OW55670   7.870   8.534   9.004  0.3277 -0.1234 -0.3960
17103SOL    HW155671   7.861   8.622   8.967 -2.4141  0.3360  1.0889
17103SOL    HW255672   7.823   8.478   8.943 -0.5497 -0.0556  0.2167
17104SOL     OW55673   5.285   4.231   8.480  0.4302 -0.5287  0.5330
17104SOL    HW155674   5.246   4.319   8.480  2.1500  0.2911  1.5934
17104SOL    HW255675   5.365   4.240   8.428  0.3003 -1.6420  0.1125
17105SOL     OW55676   0.026  11.041   5.783 -0.2698  0.1139  0.1194
17105SOL    HW155677   0.010  11.028   5.877 -0.3815  0.3681  0.1364
17105SOL    HW255678   0.086  11.115   5.778  0.8800 -0.8035  0.0484
17106SOL     OW55679   0.336   1.059   9.686 -0.2408  0.4960  0.4499
17106SOL    HW155680   0.382   1.053   9.602 -0.3216 -0.1979  0.4510
17106SOL    HW255681   0.246   1.034   9.666 -0.5570  1.5379  0.5127
17107SOL     OW55682   6.805   7.436   0.234  0.0710 -0.0035  0.1536
17107SOL    HW155683   6.824   7.473   0.320  0.7745  1.4230 -0.5911
17107SOL    HW255684   6.737   7.492   0.197 -1.2805 -1.4556  0.3091
17108SOL     OW55685   4.884   8.943   7.345 -0.0384  0.1076  0.0942
17108SOL    HW155686   4.871   8.967   7.437 -1.5426 -0.6605  0.1002
17108SOL    HW255687   4.826   8.869   7.331  1.8361 -1.2744 -0.8875
17109SOL     OW55688   8.320   4.323  10.675 -0.0857  0.6172  0.0585
17109SOL    HW155689   8.325   4.285  10.587  0.5273 -0.7132  0.6544
17109SOL    HW255690   8.226   4.334  10.691 -0.2207  0.4499 -0.5845
17110SOL     OW55691   2.814   3.090   2.322 -0.1604  0.5076 -0.4510
17110SOL    HW155692   2.881   3.156   2.301  0.4758  0.0319  0.0287
17110SOL    HW255693   2.846   3.009   2.283 -0.4456  0.2706 -0.2035
17111SOL     OW55694   3.821   9.292   3.886 -0.3991  0.4820  0.2206
17111SOL    HW155695   3.892   9.232   3.911  1.2696  1.3398 -2.1009
17111SOL    HW255696   3.779   9.315   3.969  0.4169 -1.9796  1.4388
17112SOL     OW55697   6.106   1.742   1.714 -0.4819 -0.2422  0.1590
17112SOL    HW155698   6.044   1.669   1.704  0.9130 -1.4509  0.1067
17112SOL    HW255699   6.179   1.706   1.763 -0.2190  1.4283  1.0675
17113SOL     OW55700   4.768   5.992   5.444  0.2565  0.1847 -0.0426
17113SOL    HW155701   4.729   5.928   5.383  1.2781 -0.3525 -0.1606
17113SOL    HW255702   4.793   5.939   5.520  0.4960  0.5624  0.1415
17114SOL     OW55703   7.598   3.232  10.974 -0.1123  0.1392 -0.2763
17114SOL    HW155704   7.647   3.283  11.038 -0.9417  0.9496 -0.2583
17114SOL    HW255705   7.517   3.282  10.960 -0.3014 -0.4258 -1.3609
17115SOL     OW55706   0.408  10.247  11.028 -0.1874 -0.1076 -0.1539
17115SOL    HW155707   0.373  10.169  10.985 -0.0766 -0.3576  0.2097
17115SOL    HW255708   0.446  10.298  10.957  3.9835 -2.5232  0.0277
17116SOL     OW55709   2.755   8.396   3.276  0.4106  0.1878  0.3882
17116SOL    HW155710   2.717   8.308   3.275  0.7144  0.0466 -0.9088
17116SOL    HW255711   2.849   8.381   3.289  0.3497  0.3873  1.1003
17117SOL     OW55712   7.952   3.761   2.294 -0.3970 -0.5860 -0.9768
17117SOL    HW155713   8.007   3.712   2.232  1.0231  2.2093 -2.0953
17117SOL    HW255714   7.960   3.713   2.377  1.7556 -1.6275 -1.7267
17118SOL     OW55715   5.410   0.521   2.107 -0.0787 -0.1249  0.4874
17118SOL    HW155716   5.348   0.451   2.126 -0.0576 -0.2421  0.1424
17118SOL    HW255717   5.444   0.499   2.020 -1.0035  0.9726 -0.1851
17119SOL     OW55718   5.262   6.574   7.297  0.1995 -0.1082 -0.0760
17119SOL    HW155719   5.213   6.531   7.227 -0.2107 -0.8438  0.6378
17119SOL    HW255720   5.266   6.666   7.272 -0.6352 -0.2286 -0.6664
17120SOL     OW55721   0.317   3.174   1.084 -0.2425 -0.5475 -0.1456
17120SOL    HW155722   0.231   3.171   1.128 -1.0361  2.4727 -1.1918
17120SOL    HW255723   0.298   3.149   0.994  0.0916 -0.4532 -0.2415
17121SOL     OW55724   0.577   0.826   8.354  0.4464  0.4685  0.1107
17121SOL    HW155725   0.584   0.847   8.260 -0.1587 -1.1394 -0.3188
17121SOL    HW255726   0.663   0.792   8.377 -0.0034 -1.1236 -0.4173
17122SOL     OW55727   3.084   9.778   2.862 -0.1601  0.1938 -0.1730
17122SOL    HW155728   3.112   9.699   2.908 -0.3525 -0.8354 -1.7273
17122SOL    HW255729   3.015   9.815   2.917  0.8630  0.0527  1.2486
17123SOL     OW55730   6.928   4.015   5.947 -0.2193 -0.1808 -0.5301
17123SOL    HW155731   6.949   3.922   5.934  1.7616  0.1030  0.2656
17123SOL    HW255732   6.917   4.023   6.042  0.3247  0.5342 -0.5260
17124SOL     OW55733   1.259   9.864   4.890  0.7633  0.1725 -0.1443
17124SOL    HW155734   1.241   9.869   4.796  1.1602 -0.5453 -0.2722
17124SOL    HW255735   1.226   9.946   4.926 -1.8541 -0.6542 -0.4852
17125SOL     OW55736   9.004   4.740   5.646 -0.1801 -0.1487 -0.2619
17125SOL    HW155737   8.978   4.714   5.734  0.2180  1.4074  0.3589
17125SOL    HW255738   9.093   4.773   5.657  0.4967 -1.4210 -1.5658
17126SOL     OW55739   1.869   0.955   8.580 -0.3595 -0.2124 -0.3774
17126SOL    HW155740   1.931   1.019   8.545 -0.5419  0.8535  1.1160
17126SOL    HW255741   1.784   0.981   8.544 -0.4684  0.5697  0.3906
17127SOL     OW55742   1.539   3.158   7.643 -0.0789  0.2988  0.5238
17127SOL    HW155743   1.556   3.150   7.549 -2.6016 -0.2774  0.0494
17127SOL    HW255744   1.562   3.072   7.679 -0.4653  0.0538  0.1870
17128SOL     OW55745   6.835  10.147   5.952 -0.3424 -0.2509 -0.1384
17128SOL    HW155746   6.909  10.180   6.004  0.3312  0.7365 -1.6707
17128SOL    HW255747   6.799  10.076   6.005  2.4024 -1.5412  0.1815
17129SOL     OW55748   0.649   6.698   3.146 -0.0880 -0.2608  0.2998
17129SOL    HW155749   0.572   6.645   3.165  1.1540 -1.7791  1.4959
17129SOL    HW255750   0.630   6.740   3.062 -1.2677 -2.4450 -0.6210
17130SOL     OW55751   8.093   3.845   5.563 -0.1627  0.0860 -0.1820
17130SOL    HW155752   8.046   3.918   5.523  1.6073  1.6076  0.3684
17130SOL    HW255753   8.081   3.857   5.657 -2.2496 -2.0540 -0.0942
17131SOL     OW55754  10.841   0.484   7.142 -0.5380 -0.0884 -0.0503
17131SOL    HW155755  10.872   0.454   7.227  0.9582 -0.1380 -0.5843
17131SOL    HW255756  10.867   0.415   7.081  0.5815  1.0259 -0.8865
17132SOL     OW55757   4.085  10.904   2.415 -0.2833 -0.0824 -0.4644
17132SOL    HW155758   4.141  10.886   2.491 -0.3217 -0.9671 -0.6454
17132SOL    HW255759   4.086  10.823   2.364 -0.7637  0.2996 -1.0910
17133SOL     OW55760   9.840   2.858   2.364  0.3279  0.0765 -0.0442
17133SOL    HW155761   9.918   2.847   2.418  1.2324  2.2440 -0.7878
17133SOL    HW255762   9.832   2.776   2.316  2.7260  0.1272 -0.6268
17134SOL     OW55763   9.761   6.867   7.826  0.4924 -0.0696 -0.3211
17134SOL    HW155764   9.680   6.842   7.871 -0.2075  1.2252 -0.7762
17134SOL    HW255765   9.807   6.785   7.811 -0.2774 -0.7311  0.8305
17135SOL     OW55766   7.056   8.979   2.386 -0.2363  0.4496  0.1426
17135SOL    HW155767   7.003   9.012   2.314  3.2119  2.7932 -1.6023
17135SOL    HW255768   7.025   9.027   2.463 -1.1198  1.1405 -0.6301
17136SOL     OW55769   7.204   0.993   3.135 -0.2612 -0.5373  0.1178
17136SOL    HW155770   7.194   0.989   3.231 -0.6909 -2.2244  0.0442
17136SOL    HW255771   7.117   1.017   3.103 -0.4524 -1.1998  0.1157
17137SOL     OW55772   6.066   7.688   9.016 -0.0682  0.1653 -0.3444
17137SOL    HW155773   6.060   7.780   9.039  0.7679  0.3324 -0.7672
17137SOL    HW255774   6.160   7.671   9.006 -0.1772 -0.8279  0.1147
17138SOL     OW55775  10.050   0.982   9.964 -0.1339 -0.5906 -0.1086
17138SOL    HW155776  10.059   0.961  10.058  1.0081 -0.1926 -0.1097
17138SOL    HW255777   9.970   1.034   9.958  0.2589  0.1540  0.7991
17139SOL     OW55778   3.266   9.610   9.888 -0.3270  0.0355  0.5017
17139SOL    HW155779   3.253   9.638   9.979 -2.0334  0.0183  0.2973
17139SOL    HW255780   3.282   9.691   9.840  1.9539 -0.0687  0.9829
17140SOL     OW55781   5.155   8.269   7.169  0.5228  0.5967 -0.3946
17140SOL    HW155782   5.225   8.217   7.207  0.3111 -0.2826 -1.1598
17140SOL    HW255783   5.084   8.207   7.156  1.4444  0.1264 -4.6070
17141SOL     OW55784   5.263  10.771   8.614  0.5397 -0.5016  0.2491
17141SOL    HW155785   5.351  10.736   8.624  0.7023 -0.0404  0.4374
17141SOL    HW255786   5.206  10.703   8.651  0.8179 -0.7708  0.1834
17142SOL     OW55787   0.683   5.454   2.429  0.1469  0.2616 -0.4877
17142SOL    HW155788   0.744   5.527   2.437  1.2670 -0.6886 -0.1355
17142SOL    HW255789   0.614   5.487   2.371  1.4700  1.0297 -1.6736
17143SOL     OW55790   1.143   4.078   8.560  0.0702  0.1375  0.1707
17143SOL    HW155791   1.146   4.057   8.654  0.0933  0.2170  0.1880
17143SOL    HW255792   1.050   4.074   8.538  0.0691  0.0722  0.1870
17144SOL     OW55793   1.886   9.801   4.130 -0.2252 -0.2794 -0.4241
17144SOL    HW155794   1.909   9.857   4.056  0.5838  0.4940  0.3775
17144SOL    HW255795   1.949   9.728   4.125  1.7262  1.1745  1.0199
17145SOL     OW55796   9.130   5.094   2.251  0.3011 -0.1472 -0.1187
17145SOL    HW155797   9.117   5.000   2.243 -3.1613  0.3321 -1.9357
17145SOL    HW255798   9.174   5.119   2.170 -3.2383  0.2714 -2.0945
17146SOL     OW55799   8.401   5.549   3.707  0.1789  0.1392  0.6835
17146SOL    HW155800   8.399   5.644   3.717  1.3495  0.0127  2.4441
17146SOL    HW255801   8.455   5.518   3.779  1.8346 -1.7054 -1.2312
17147SOL     OW55802   7.569   7.283   6.769  0.0501 -0.2334 -0.3567
17147SOL    HW155803   7.560   7.300   6.675  1.3054  0.0909 -0.4245
17147SOL    HW255804   7.614   7.199   6.775 -0.0110 -0.2474 -0.0411
17148SOL     OW55805   6.536  11.071   0.034 -0.2824  0.2127 -0.3168
17148SOL    HW155806   6.470  11.006   0.010 -0.1253  0.5848 -1.8199
17148SOL    HW255807   6.491  11.130   0.094 -0.6539 -0.8007  0.4414
17149SOL     OW55808   7.373   1.912   0.803  0.1455  0.1011  0.1031
17149SOL    HW155809   7.294   1.944   0.759  0.7272  0.0401 -0.9997
17149SOL    HW255810   7.342   1.841   0.859 -1.0233  1.8498  1.8246
17150SOL     OW55811  10.083  10.225   6.028  0.4773 -0.5119  0.3850
17150SOL    HW155812  10.104  10.193   5.941  0.1231 -2.3526  0.9153
17150SOL    HW255813  10.103  10.151   6.086  0.4102  0.5487  1.8299
17151SOL     OW55814   1.388   6.039  11.116  0.2756  0.8319  1.0349
17151SOL    HW155815   1.325   6.080  11.057 -0.2420 -1.0686  0.1804
17151SOL    HW255816   1.335   5.980  11.170  1.3067 -1.1581 -0.0195
17152SOL     OW55817   4.587   5.047   6.162  0.8126  0.6051 -0.2533
17152SOL    HW155818   4.669   5.037   6.212 -0.1693 -0.6985  1.2253
17152SOL    HW255819   4.521   5.067   6.229 -0.5034 -0.8388 -1.0570
17153SOL     OW55820  11.102   1.845   5.871  0.1076 -0.5204  0.1717
17153SOL    HW155821  11.151   1.878   5.946 -1.9121  0.6921  1.0238
17153SOL    HW255822  11.019   1.815   5.907 -1.3737  1.1353 -1.6465
17154SOL     OW55823   1.811   4.158   8.497 -0.0096 -0.5206  0.2728
17154SOL    HW155824   1.866   4.122   8.566  0.0236  0.9321  1.0203
17154SOL    HW255825   1.871   4.207   8.441 -0.1563 -1.0732 -0.3829
17155SOL     OW55826   7.921   6.199   7.619 -0.3532 -0.4284  0.1050
17155SOL    HW155827   7.858   6.253   7.666  0.6528 -0.9709  2.2141
17155SOL    HW255828   7.868   6.138   7.568 -1.5133 -0.0988  0.8776
17156SOL     OW55829   2.387   3.738   9.808 -0.0683 -0.1862 -0.4736
17156SOL    HW155830   2.373   3.822   9.765 -0.2393 -0.4058 -0.8510
17156SOL    HW255831   2.378   3.673   9.738 -1.6157 -0.6477  0.1077
17157SOL     OW55832   7.156   1.439   8.170 -0.4207  0.4313  0.3670
17157SOL    HW155833   7.174   1.455   8.263  1.2406  0.0935  0.1308
17157SOL    HW255834   7.241   1.415   8.133 -0.2633  3.8759 -1.9608
17158SOL     OW55835   8.687   7.599   9.502 -0.1283 -0.2597 -0.0351
17158SOL    HW155836   8.697   7.690   9.474 -0.6713  0.0278  0.6855
17158SOL    HW255837   8.601   7.596   9.543 -0.8406 -1.4812 -1.5109
17159SOL     OW55838   4.628   7.320   4.917  0.4054  0.0342  0.1255
17159SOL    HW155839   4.666   7.373   4.846  1.2712  0.3258  0.7900
17159SOL    HW255840   4.550   7.368   4.942  0.8262  0.6599  0.2732
17160SOL     OW55841   7.658   3.616  10.256 -0.7964  0.0127  0.6129
17160SOL    HW155842   7.734   3.668  10.281 -0.8937 -0.5129  2.1143
17160SOL    HW255843   7.594   3.680  10.225 -0.3978  0.6575  1.0967
17161SOL     OW55844   3.142   8.726   0.357  0.1555  0.1141  0.1367
17161SOL    HW155845   3.108   8.699   0.272  0.4652  0.5816 -0.1397
17161SOL    HW255846   3.210   8.790   0.336 -1.0099  1.6189  0.7867
17162SOL     OW55847  10.259   1.200   1.798 -0.0428 -0.3476 -0.1840
17162SOL    HW155848  10.315   1.122   1.805  2.2215  1.1195 -0.6616
17162SOL    HW255849  10.262   1.222   1.705 -1.1803 -0.0256 -0.1527
17163SOL     OW55850   3.060   0.774   2.486  0.3721  0.1296  0.3774
17163SOL    HW155851   3.065   0.707   2.554 -0.3437  0.1109  0.4259
17163SOL    HW255852   2.986   0.746   2.431 -0.9833  1.6966  1.3139
17164SOL     OW55853   4.009   7.683  10.774  0.0348 -0.6630 -1.0391
17164SOL    HW155854   3.965   7.661  10.692 -0.5808 -0.6935 -0.7086
17164SOL    HW255855   3.945   7.662  10.842 -0.1034  0.9422 -0.6396
17165SOL     OW55856   5.467   1.416   7.902  0.1302  1.1114 -0.7359
17165SOL    HW155857   5.507   1.484   7.847  0.9254  0.4316 -1.0252
17165SOL    HW255858   5.534   1.348   7.909 -0.4206  0.6274  0.0629
17166SOL     OW55859   6.746   4.321   1.406 -0.2870 -0.3028  0.2678
17166SOL    HW155860   6.667   4.349   1.453 -0.4814 -3.6557  2.3203
17166SOL    HW255861   6.816   4.326   1.471  0.3159 -1.2608 -0.2800
17167SOL     OW55862   0.515  10.539   3.885  0.3073 -0.2211 -0.0611
17167SOL    HW155863   0.509  10.532   3.980  1.6705  0.8067  0.1449
17167SOL    HW255864   0.425  10.536   3.854 -0.1082 -1.3811  1.1968
17168SOL     OW55865   5.342   7.298   9.471  0.0047  0.2735  0.7882
17168SOL    HW155866   5.263   7.278   9.521 -1.1753 -1.8078 -1.7145
17168SOL    HW255867   5.390   7.215   9.468  1.6271  1.1505  1.0349
17169SOL     OW55868   2.173   7.608   0.672  0.4642  0.4394 -0.0476
17169SOL    HW155869   2.094   7.650   0.706 -0.0873 -0.4610 -0.1718
17169SOL    HW255870   2.151   7.585   0.581 -0.2424 -2.3973  0.7337
17170SOL     OW55871   0.111   7.184   9.579 -0.3672 -0.0833 -0.4577
17170SOL    HW155872   0.058   7.259   9.607 -1.6360 -0.6911 -1.1407
17170SOL    HW255873   0.112   7.126   9.655  1.6211  1.0988  0.5009
17171SOL     OW55874   0.960   0.371   0.957  0.0150 -0.4778 -0.3775
17171SOL    HW155875   0.947   0.394   1.049  0.7125 -0.7662 -0.2059
17171SOL    HW255876   1.018   0.439   0.924 -1.7258  0.7231 -1.1086
17172SOL     OW55877   5.602   6.099   3.836 -0.0790 -0.7083  0.1571
17172SOL    HW155878   5.617   6.108   3.930  2.2773 -0.5372 -0.1845
17172SOL    HW255879   5.689   6.108   3.797 -1.0527 -0.4131 -2.0745
17173SOL     OW55880   4.250   5.215   1.333  0.1329  0.1999 -0.2079
17173SOL    HW155881   4.211   5.212   1.246 -0.7339  0.2316  0.1722
17173SOL    HW255882   4.343   5.199   1.318 -0.0136  0.1671 -1.1324
17174SOL     OW55883  10.617   5.869   8.789  0.1639  0.2492  0.0346
17174SOL    HW155884  10.533   5.912   8.775 -0.0949 -0.4495 -0.5621
17174SOL    HW255885  10.681   5.940   8.784 -0.4094  0.8343  0.8262
17175SOL     OW55886   8.941   8.952   2.499 -0.3991 -0.0300 -0.3946
17175SOL    HW155887   8.959   8.985   2.411  1.7167 -0.9356 -0.3789
17175SOL    HW255888   9.027   8.926   2.532 -1.2704 -0.5261  1.6119
17176SOL     OW55889  11.034   5.177   9.365 -0.1796  0.9527  0.0121
17176SOL    HW155890  11.110   5.170   9.422 -0.6882  0.6424  0.6656
17176SOL    HW255891  11.063   5.140   9.281  0.1584  0.1145  0.4843
17177SOL     OW55892   9.722   6.016   9.333 -0.0141  0.2594  0.2399
17177SOL    HW155893   9.632   5.993   9.356 -0.8606  1.6603 -1.4186
17177SOL    HW255894   9.763   5.933   9.311 -0.7579 -0.4451  1.3988
17178SOL     OW55895  10.128   2.379   1.413  0.9162 -0.2529  0.2590
17178SOL    HW155896  10.058   2.313   1.414 -1.6720  2.2603 -1.0480
17178SOL    HW255897  10.150   2.390   1.320  1.9593  0.1233  0.5315
17179SOL     OW55898   5.483   7.839   1.002  0.1348 -0.5787 -0.4699
17179SOL    HW155899   5.473   7.750   0.968 -2.7689 -0.9703  1.1091
17179SOL    HW255900   5.523   7.826   1.089 -3.5886 -0.8826  1.4011
17180SOL     OW55901   5.587   2.883   0.176  0.0396  0.2512 -0.7146
17180SOL    HW155902   5.503   2.919   0.148 -0.3926 -0.3038 -0.1495
17180SOL    HW255903   5.572   2.855   0.267  0.3792 -1.2706 -1.1009
17181SOL     OW55904   4.435   1.824   2.879  0.2863 -0.3400  0.5109
17181SOL    HW155905   4.527   1.820   2.907  0.4580 -0.8547 -0.0946
17181SOL    HW255906   4.431   1.767   2.803 -0.1049  1.2540 -0.7132
17182SOL     OW55907   1.054   7.924   1.473  0.5570  0.6301  0.9297
17182SOL    HW155908   1.089   7.870   1.402  1.7714  1.6477  0.7269
17182SOL    HW255909   0.988   7.979   1.432 -0.3175 -0.3203  1.0370
17183SOL     OW55910   2.442   2.311   6.588 -0.0760  0.1305  0.2949
17183SOL    HW155911   2.490   2.392   6.608  0.6748 -1.0364  3.9638
17183SOL    HW255912   2.363   2.317   6.642 -1.8407 -0.0729 -2.1358
17184SOL     OW55913   0.454   8.741   9.235 -0.0978  0.0181 -0.0880
17184SOL    HW155914   0.446   8.793   9.155 -0.2715 -0.6422 -0.5039
17184SOL    HW255915   0.418   8.798   9.303  1.0142  1.0004 -0.2864
17185SOL     OW55916   0.511   5.050   5.794 -0.3681 -0.4427 -0.1731
17185SOL    HW155917   0.579   5.076   5.732 -0.6509  0.4919 -0.1068
17185SOL    HW255918   0.429   5.075   5.752 -0.5499  0.4629  0.6690
17186SOL     OW55919   2.417   7.504   5.416  0.4058  0.3826  0.3198
17186SOL    HW155920   2.398   7.462   5.332  1.5978 -0.8213  0.6157
17186SOL    HW255921   2.352   7.467   5.476 -2.0843  3.0781 -0.4911
17187SOL     OW55922   2.450   8.274   2.937  0.3173  0.0015 -0.1927
17187SOL    HW155923   2.397   8.323   3.000  0.1067 -0.3643 -0.0856
17187SOL    HW255924   2.497   8.342   2.888 -0.2211  0.3234 -0.2684
17188SOL     OW55925   6.414   1.461   9.631 -0.3187 -0.1406  0.6233
17188SOL    HW155926   6.401   1.407   9.552  1.5460 -0.6441  0.6112
17188SOL    HW255927   6.399   1.551   9.601  1.2408 -0.2281 -0.5859
17189SOL     OW55928   3.962   6.091   2.077  0.2169  0.1534 -0.2473
17189SOL    HW155929   3.876   6.051   2.089  0.0504  0.6776  0.3990
17189SOL    HW255930   4.024   6.026   2.109  0.0779 -0.3107 -0.9101
17190SOL     OW55931   4.403   9.450   9.841  0.0161 -0.2677  0.2037
17190SOL    HW155932   4.465   9.427   9.911 -0.0208  2.2860  1.1650
17190SOL    HW255933   4.458   9.470   9.766  0.3552  1.2914  0.8430
17191SOL     OW55934   2.345   0.231   6.526  0.9427 -0.5068  0.5204
17191SOL    HW155935   2.361   0.325   6.524 -2.0768  0.0831 -0.6456
17191SOL    HW255936   2.301   0.215   6.609 -0.2184 -0.5237 -0.0773
17192SOL     OW55937   6.337   0.551   7.082  0.0936  0.5680  0.1789
17192SOL    HW155938   6.419   0.589   7.048  0.0067  0.1852 -0.4737
17192SOL    HW255939   6.356   0.458   7.091  0.7123  0.8884  2.9646
17193SOL     OW55940   6.456   0.494   1.488  0.0406  0.1683  0.3045
17193SOL    HW155941   6.464   0.578   1.532  0.3746  0.4645 -0.3054
17193SOL    HW255942   6.541   0.482   1.445  0.1992 -0.7504  0.8558
17194SOL     OW55943  11.004  10.427   0.295  0.0141 -0.3867 -0.8532
17194SOL    HW155944  11.016  10.519   0.320 -0.5049 -0.3106 -0.8707
17194SOL    HW255945  11.093  10.391   0.293  0.2278  0.1309 -0.9094
17195SOL     OW55946   3.268   8.345   2.506  0.6965 -0.2483 -0.7415
17195SOL    HW155947   3.258   8.394   2.587  0.0207 -0.8687 -0.4328
17195SOL    HW255948   3.299   8.409   2.442 -0.6528  0.7138 -0.4839
17196SOL     OW55949   6.127   9.217   6.588 -0.3591 -0.5773  0.3111
17196SOL    HW155950   6.077   9.147   6.631 -3.7776  1.2695 -0.2510
17196SOL    HW255951   6.070   9.295   6.596  2.1466  1.5706 -1.1816
17197SOL     OW55952   7.660   5.079  11.088 -1.0249  0.4592 -0.6396
17197SOL    HW155953   7.605   5.140  11.137  0.2682  0.2845  1.1576
17197SOL    HW255954   7.676   5.122  11.004 -2.7941  1.0799 -0.6921
17198SOL     OW55955   3.326   8.697  11.091  0.1297  0.0287  0.1432
17198SOL    HW155956   3.354   8.717  11.002 -0.6466 -3.1056 -0.9495
17198SOL    HW255957   3.260   8.628  11.081  1.2072 -1.6520  3.1931
17199SOL     OW55958   5.465   9.897   4.021  0.4419  0.2059 -0.2357
17199SOL    HW155959   5.508   9.958   4.082 -1.9803 -0.0271  1.8969
17199SOL    HW255960   5.407   9.953   3.969  0.4695  0.0749 -0.4059
17200SOL     OW55961   7.051   0.231   9.605  0.2439 -0.2317  0.1466
17200SOL    HW155962   6.976   0.183   9.639 -0.2198  0.1708 -0.2873
17200SOL    HW255963   7.048   0.219   9.510  1.1285 -0.7728  0.1712
17201SOL     OW55964   1.583  10.871   4.134  0.2833  0.1222 -0.9076
17201SOL    HW155965   1.560  10.835   4.049 -1.0306  0.5149 -0.7388
17201SOL    HW255966   1.563  10.965   4.127  0.5164  0.2292 -0.2830
17202SOL     OW55967   6.216   6.242   0.584  0.3737  0.2954  0.0579
17202SOL    HW155968   6.277   6.168   0.587  1.9985  1.5432 -0.2848
17202SOL    HW255969   6.156   6.221   0.513 -0.0532 -1.2852  0.8424
17203SOL     OW55970   7.001   3.286   7.045  0.2676 -0.2777 -0.6061
17203SOL    HW155971   7.009   3.298   7.140  3.6630  0.2104 -0.8346
17203SOL    HW255972   7.013   3.373   7.008 -0.9873 -0.4688 -1.5534
17204SOL     OW55973   4.836   3.909   2.911 -0.1047  0.0157  0.1730
17204SOL    HW155974   4.895   3.850   2.956 -0.2460  0.1904  0.5887
17204SOL    HW255975   4.838   3.990   2.962 -0.2894  0.2039 -0.1116
17205SOL     OW55976   6.815   6.510   0.323 -0.1416 -0.2122 -0.0906
17205SOL    HW155977   6.774   6.441   0.375  0.4017 -0.6771 -0.2715
17205SOL    HW255978   6.742   6.568   0.299 -0.7307 -1.1480 -0.6091
17206SOL     OW55979   0.579  10.155   3.466 -0.3754  0.4728 -0.2440
17206SOL    HW155980   0.580  10.237   3.514  0.8652  0.0205  0.5526
17206SOL    HW255981   0.535  10.176   3.383  0.7431  2.1647 -0.4539
17207SOL     OW55982  10.686   4.355   2.443  0.2846 -0.0105  0.3301
17207SOL    HW155983  10.680   4.282   2.505  0.8746 -0.4722 -0.1376
17207SOL    HW255984  10.606   4.349   2.391 -1.4056  1.8140  2.5293
17208SOL     OW55985  11.070   7.640   2.738 -0.3135  0.0150 -0.3274
17208SOL    HW155986  11.073   7.735   2.727 -0.4306  0.1181  0.4899
17208SOL    HW255987  11.019   7.626   2.817 -0.2928 -0.7329 -0.4366
17209SOL     OW55988   6.458   6.000   1.130 -0.6388 -0.3901  0.2130
17209SOL    HW155989   6.474   6.073   1.069  0.6831 -0.9569 -0.1662
17209SOL    HW255990   6.467   5.921   1.076 -1.7892 -0.8571  0.6720
17210SOL     OW55991   0.826   2.503   0.561 -0.1362  0.0970  0.5911
17210SOL    HW155992   0.814   2.408   0.573 -3.5510  0.3137 -0.1521
17210SOL    HW255993   0.798   2.542   0.643 -0.7472  0.5433  0.1775
17211SOL     OW55994  10.266   6.926   5.768  0.4479 -0.0550  0.2290
17211SOL    HW155995  10.253   6.943   5.861  1.7544 -0.4041  0.4991
17211SOL    HW255996  10.197   6.976   5.725  1.6594  2.6671  1.2090
17212SOL     OW55997   9.351   8.329   0.545 -0.6452 -0.1927 -0.2032
17212SOL    HW155998   9.330   8.422   0.558 -1.7509 -0.6497  1.6223
17212SOL    HW255999   9.447   8.328   0.538 -0.5528  1.0124  0.5105
17213SOL     OW56000  10.265   2.875   0.933  0.2963 -0.2065 -0.6058
17213SOL    HW156001  10.268   2.882   1.029 -0.9311 -0.6891 -0.5062
17213SOL    HW256002  10.289   2.962   0.902  2.5578 -0.5401  0.0704
17214SOL     OW56003   1.339  10.835   7.943  0.1463 -0.0215  0.0694
17214SOL    HW156004   1.409  10.854   7.881  0.9598  0.1840  1.0242
17214SOL    HW256005   1.350  10.743   7.966 -0.8851 -0.4284 -0.9645
17215SOL     OW56006   6.097   3.804   5.972  0.2598 -0.1167 -0.1602
17215SOL    HW156007   6.112   3.724   5.922 -0.4122 -0.7102  0.5607
17215SOL    HW256008   6.071   3.773   6.059  0.0496  0.8850  0.1399
17216SOL     OW56009   5.575   8.330  10.424  0.1740 -0.1211  0.0757
17216SOL    HW156010   5.493   8.373  10.450  0.3220 -0.1950  0.6835
17216SOL    HW256011   5.549   8.241  10.403 -0.1600  0.2835 -1.3312
17217SOL     OW56012   4.085   9.657   7.427  0.5260 -0.5883  0.4875
17217SOL    HW156013   4.143   9.643   7.352 -0.1890 -0.9941  0.0014
17217SOL    HW256014   4.144   9.679   7.499  1.2172 -0.1602 -0.2028
17218SOL     OW56015   8.231   1.548   2.067  0.0998  0.0767  0.4904
17218SOL    HW156016   8.246   1.455   2.048 -2.1337  0.0750 -1.8024
17218SOL    HW256017   8.140   1.553   2.095  0.3119  1.5443  0.9994
17219SOL     OW56018   9.990   5.710  11.100  0.1554  0.1598  0.1647
17219SOL    HW156019   9.924   5.653  11.140  0.1354 -0.0224 -0.1324
17219SOL    HW256020  10.067   5.655  11.090  0.6175  0.5748  1.2271
17220SOL     OW56021   6.629   2.863   0.943  0.1205 -0.0449  0.2948
17220SOL    HW156022   6.630   2.798   0.873  0.8241  1.0068 -0.6964
17220SOL    HW256023   6.659   2.815   1.020  0.7497 -0.8649 -0.4412
17221SOL     OW56024   9.093   2.136   3.363  0.1299  0.1694 -0.6210
17221SOL    HW156025   9.019   2.074   3.369 -0.3901  0.9163  2.7749
17221SOL    HW256026   9.126   2.125   3.274 -2.5789 -1.9228 -1.5186
17222SOL     OW56027  10.368   3.379   7.168  0.0399  0.5692 -0.1070
17222SOL    HW156028  10.282   3.381   7.211  0.2460 -2.2528  0.6668
17222SOL    HW256029  10.421   3.440   7.218 -0.7088 -0.0065  1.4674
17223SOL     OW56030   4.306   7.054   5.918 -0.3409  0.3492  0.4790
17223SOL    HW156031   4.401   7.047   5.906 -0.4724  0.4599 -0.7365
17223SOL    HW256032   4.277   6.965   5.934 -0.1225  0.2157  0.1289
17224SOL     OW56033   9.181   3.064   2.349  0.0743  0.7295 -0.8522
17224SOL    HW156034   9.221   3.069   2.262  1.1478 -0.0523 -0.4255
17224SOL    HW256035   9.136   2.980   2.350  0.4311  0.5398 -0.5070
17225SOL     OW56036   2.106   8.814  10.250  0.3830  0.0696 -0.1629
17225SOL    HW156037   2.014   8.837  10.263 -0.0087 -1.0381 -0.8383
17225SOL    HW256038   2.105   8.755  10.175  1.5524 -0.6213  0.3474
17226SOL     OW56039  10.851   8.123   0.201 -0.3386  0.3401  0.4761
17226SOL    HW156040  10.912   8.161   0.138  0.2571 -0.9124  0.2692
17226SOL    HW256041  10.766   8.128   0.157  0.0727 -0.5405 -0.4612
17227SOL     OW56042   2.940   8.871   0.561 -0.3831  0.2788 -0.0807
17227SOL    HW156043   3.002   8.821   0.508 -0.7665 -0.3361  0.0384
17227SOL    HW256044   2.939   8.958   0.521  0.9730  0.4687  0.2566
17228SOL     OW56045   8.225   9.465   6.723 -0.5387  0.2055  0.3523
17228SOL    HW156046   8.316   9.452   6.752 -0.8969 -1.5056  0.7961
17228SOL    HW256047   8.231   9.473   6.628 -0.2048 -4.2301 -0.2250
17229SOL     OW56048   4.279   4.357   5.553 -0.0696  0.2369  0.2657
17229SOL    HW156049   4.208   4.358   5.489 -0.1119  0.8493  0.3254
17229SOL    HW256050   4.358   4.338   5.502 -0.2191 -0.0657  0.1473
17230SOL     OW56051   7.204   1.242   5.769  0.4085  0.4646  0.0497
17230SOL    HW156052   7.201   1.147   5.781 -2.0757  0.3695 -0.6682
17230SOL    HW256053   7.168   1.256   5.681 -0.2453  2.1009  0.5381
17231SOL     OW56054   9.931   8.242   3.174 -0.0695 -0.4672 -0.1842
17231SOL    HW156055   9.887   8.232   3.259 -0.7430 -1.4927 -0.6405
17231SOL    HW256056   9.970   8.156   3.158  2.4145  0.4786  0.3476
17232SOL     OW56057   1.188   5.009   2.468 -0.8261 -0.6412 -0.4304
17232SOL    HW156058   1.133   4.992   2.392 -1.4060  0.5073 -0.3060
17232SOL    HW256059   1.208   4.923   2.504 -0.6869 -1.1833 -1.7679
17233SOL     OW56060   4.952   5.206   5.409  0.1464  0.0963 -0.0815
17233SOL    HW156061   4.960   5.127   5.463 -2.8310 -0.5876 -0.4871
17233SOL    HW256062   4.920   5.273   5.469  0.5488  0.4078 -0.2078
17234SOL     OW56063   3.666   0.163   6.097  0.2407 -0.3234 -0.4586
17234SOL    HW156064   3.650   0.251   6.132  0.9207  0.1467 -1.2913
17234SOL    HW256065   3.609   0.157   6.020  0.2680 -0.5737 -0.4619
17235SOL     OW56066   0.244   1.268   0.870 -0.0851  0.0485 -0.1484
17235SOL    HW156067   0.221   1.217   0.792 -0.5646  1.7271 -1.1750
17235SOL    HW256068   0.200   1.224   0.942  0.4908 -1.6405 -0.7708
17236SOL     OW56069   5.553   5.173   7.139  0.1455 -0.1398 -0.1771
17236SOL    HW156070   5.604   5.177   7.058  1.0764 -0.1307  0.3915
17236SOL    HW256071   5.615   5.142   7.205 -0.3619  0.6980  0.7221
17237SOL     OW56072   8.867   5.214   5.500  0.7066  0.3534  0.8106
17237SOL    HW156073   8.928   5.140   5.489  0.1410  0.1119 -0.9959
17237SOL    HW256074   8.785   5.173   5.526  0.2952  0.2839 -0.5438
17238SOL     OW56075   0.781   1.675   2.623 -0.4649 -0.5077 -0.0909
17238SOL    HW156076   0.833   1.693   2.701 -0.1512 -1.6072 -0.0381
17238SOL    HW256077   0.819   1.732   2.556 -0.9557  0.6949  0.6236
17239SOL     OW56078   4.149   5.836   6.329  0.3319  0.1140 -0.6187
17239SOL    HW156079   4.238   5.869   6.340 -0.2077  1.6990 -0.7763
17239SOL    HW256080   4.113   5.834   6.418  0.0547  0.8758 -0.7114
17240SOL     OW56081   3.711   6.771   1.981 -0.4143  0.0233 -0.0132
17240SOL    HW156082   3.745   6.733   1.899  0.1434 -0.7537  0.5663
17240SOL    HW256083   3.631   6.722   1.998 -1.6698  1.5612 -1.1458
17241SOL     OW56084   9.902  10.249   4.273 -0.2721 -0.2304 -0.8032
17241SOL    HW156085   9.946  10.333   4.282 -2.4369  1.0499 -1.4480
17241SOL    HW256086   9.970  10.184   4.290  1.8535  1.6030 -1.8008
17242SOL     OW56087   1.838   4.594   8.274  0.0163 -0.0301  0.0642
17242SOL    HW156088   1.786   4.670   8.248 -0.2607 -0.3752 -0.4157
17242SOL    HW256089   1.928   4.624   8.272 -0.1872  0.7314  1.4151
17243SOL     OW56090  10.674   4.660   1.614 -0.0179 -0.6992 -0.2804
17243SOL    HW156091  10.681   4.729   1.547  0.4098 -1.0169 -0.5701
17243SOL    HW256092  10.695   4.580   1.567  1.5713 -0.7760  0.5206
17244SOL     OW56093   9.045   3.675   2.584 -0.3058  0.3221  0.4341
17244SOL    HW156094   9.073   3.711   2.500 -0.5813 -0.8063 -0.1624
17244SOL    HW256095   9.032   3.582   2.567 -0.1810  0.0359  1.7822
17245SOL     OW56096   9.296   7.188   2.839  0.1935 -0.6086 -0.1366
17245SOL    HW156097   9.382   7.170   2.800  0.2601 -1.4001  0.3390
17245SOL    HW256098   9.285   7.118   2.904 -2.0390 -2.3019 -2.1613
17246SOL     OW56099   4.433   6.791  10.191 -0.3134 -0.0668  0.2017
17246SOL    HW156100   4.431   6.864  10.128  3.5334  0.7526  0.7927
17246SOL    HW256101   4.441   6.713  10.136  0.3223  0.3982 -0.3865
17247SOL     OW56102   5.880   6.728   8.424 -0.0084  0.5446  0.2830
17247SOL    HW156103   5.842   6.792   8.484 -0.3558 -0.4121  1.1318
17247SOL    HW256104   5.811   6.663   8.411 -0.2155  1.1294 -1.8142
17248SOL     OW56105   5.207   5.930   4.601 -0.1010  0.2031 -0.0203
17248SOL    HW156106   5.169   5.905   4.685 -1.0857 -1.5384 -0.9153
17248SOL    HW256107   5.175   6.018   4.585 -2.4176 -0.5447  0.1027
17249SOL     OW56108   7.527   1.588   6.549 -0.2786 -0.3710 -0.0740
17249SOL    HW156109   7.493   1.515   6.601 -0.1784 -0.4087 -0.0609
17249SOL    HW256110   7.583   1.637   6.610 -0.2911 -0.3229 -0.1016
17250SOL     OW56111   3.885   5.556   0.360 -0.1672 -0.5871  0.0565
17250SOL    HW156112   3.916   5.614   0.429  1.4662 -0.2978 -0.8514
17250SOL    HW256113   3.947   5.570   0.288 -1.8908 -0.7535 -1.5393
17251SOL     OW56114   8.740   6.120  10.606  0.7029 -0.1400  0.0895
17251SOL    HW156115   8.747   6.141  10.513 -0.3195  1.4716  0.3331
17251SOL    HW256116   8.649   6.090  10.617  1.5161 -2.9150  0.1584
17252SOL     OW56117   9.004   1.200   6.513 -0.1764  0.3201  0.2830
17252SOL    HW156118   8.986   1.274   6.455  1.1665  0.0236 -0.5543
17252SOL    HW256119   8.919   1.162   6.532 -0.6233  0.1576 -1.8477
17253SOL     OW56120   8.540   4.591   9.985  0.3803 -0.8652 -0.1194
17253SOL    HW156121   8.574   4.501   9.985  1.5068 -0.5995  3.3685
17253SOL    HW256122   8.545   4.618  10.077 -3.4868  1.5086 -0.4133
17254SOL     OW56123   6.443   6.108   6.687  0.1020  0.0397 -0.2434
17254SOL    HW156124   6.400   6.134   6.605  1.3650  0.2037 -0.8806
17254SOL    HW256125   6.479   6.190   6.722 -0.8616  0.0537  0.7595
17255SOL     OW56126   6.228   8.265   3.470  0.3098  0.2080 -0.1938
17255SOL    HW156127   6.180   8.234   3.393 -2.0786  1.0844  0.8542
17255SOL    HW256128   6.220   8.360   3.467  3.4242  0.5680 -0.7897
17256SOL     OW56129   5.743   8.058   6.738  0.3121 -0.0632  0.0401
17256SOL    HW156130   5.749   8.135   6.794 -0.2804 -0.8046  1.1670
17256SOL    HW256131   5.661   8.016   6.763  1.2144 -1.7370  0.3670
17257SOL     OW56132   2.134   5.573   3.552 -0.6004  0.3689 -0.0762
17257SOL    HW156133   2.200   5.557   3.484  0.4145  1.0492  0.7215
17257SOL    HW256134   2.126   5.668   3.555  0.9644  0.5117  2.1746
17258SOL     OW56135   4.882  10.828   6.934  0.0640  0.5263  0.3901
17258SOL    HW156136   4.843  10.835   7.021  0.0296 -0.3751  0.4543
17258SOL    HW256137   4.821  10.877   6.877 -0.7710 -0.2206  0.6153
17259SOL     OW56138  10.291  11.081   7.113  0.5824 -0.5236  0.5405
17259SOL    HW156139  10.347  11.036   7.050  1.4214  1.4340 -0.1851
17259SOL    HW256140  10.352  11.120   7.175 -0.1707 -1.0491  1.6478
17260SOL     OW56141   5.692   8.083   1.163 -0.2721  0.4395 -0.2791
17260SOL    HW156142   5.630   8.148   1.130  0.4188  1.8299  1.0230
17260SOL    HW256143   5.734   8.126   1.238  1.7691 -0.6909 -0.6959
17261SOL     OW56144   0.948   6.002   5.830 -0.4784 -0.9286  0.0276
17261SOL    HW156145   1.037   5.973   5.851  0.4718  2.6708  1.7305
17261SOL    HW256146   0.915   6.037   5.913 -2.7482 -0.3392 -1.0604
17262SOL     OW56147   6.553   9.447   2.199  0.6191  0.6157 -0.2014
17262SOL    HW156148   6.548   9.355   2.226  1.1418  0.2040 -1.4257
17262SOL    HW256149   6.463   9.469   2.175  0.5768  0.2579 -0.3878
17263SOL     OW56150   4.465  10.732   9.597  0.2422  0.1532 -0.2890
17263SOL    HW156151   4.381  10.763   9.632  0.2998 -0.0783  0.0615
17263SOL    HW256152   4.529  10.763   9.661  0.0628 -3.0630  1.6626
17264SOL     OW56153   6.833   4.757   7.642 -0.2535  0.2931  0.1573
17264SOL    HW156154   6.841   4.815   7.719 -0.2214  0.7664 -0.1971
17264SOL    HW256155   6.770   4.801   7.586  0.2451  0.3108 -0.4027
17265SOL     OW56156  10.544   7.105   1.063  0.3726 -1.1561  0.4510
17265SOL    HW156157  10.534   7.049   0.986  1.0063  0.7348 -1.0847
17265SOL    HW256158  10.460   7.099   1.108 -0.4554 -1.3314 -1.0624
17266SOL     OW56159   3.065   4.170   7.948 -0.6403  0.5427  0.4511
17266SOL    HW156160   3.135   4.233   7.932  2.5971 -2.5800  1.2369
17266SOL    HW256161   3.067   4.154   8.042 -0.6684 -1.4358  0.1575
17267SOL     OW56162   3.397   8.210  11.000 -0.1291  0.4338  0.1942
17267SOL    HW156163   3.492   8.215  10.987 -0.3281  1.7795 -1.0229
17267SOL    HW256164   3.383   8.239  11.090  0.6615 -0.7631  0.7373
17268SOL     OW56165   5.522   9.043   3.334 -0.6802  0.2937  0.7195
17268SOL    HW156166   5.589   9.111   3.324 -0.9013  0.3808 -0.3610
17268SOL    HW256167   5.445   9.089   3.366 -1.4157  0.9761 -1.7509
17269SOL     OW56168   0.058   7.444  10.431  0.1303  0.3755 -0.3490
17269SOL    HW156169   0.061   7.527  10.478 -1.1702  0.6048 -0.6325
17269SOL    HW256170  -0.011   7.456  10.365 -0.2708 -1.0032 -0.2163
17270SOL     OW56171   3.054   2.699   0.278  0.1448 -0.2260  0.3300
17270SOL    HW156172   3.137   2.673   0.318  0.1106 -0.7866  0.0461
17270SOL    HW256173   3.010   2.750   0.345  1.0076  0.6666  0.2511
17271SOL     OW56174   2.246   8.000   9.591 -0.5077  0.5114  0.2732
17271SOL    HW156175   2.193   8.073   9.559 -1.8335  0.2751  1.8164
17271SOL    HW256176   2.322   8.041   9.633 -0.2129  0.9018 -0.6159
17272SOL     OW56177   3.861  10.076   3.085 -0.2912  0.1093 -0.2739
17272SOL    HW156178   3.838  10.032   3.167 -2.6107  0.8663 -0.4713
17272SOL    HW256179   3.944  10.034   3.059  0.6103 -0.0457  2.4838
17273SOL     OW56180   7.336   6.959   5.786 -0.7687  0.5891  0.8760
17273SOL    HW156181   7.423   6.973   5.748 -1.0036  3.2116  1.1115
17273SOL    HW256182   7.281   7.025   5.744 -2.3342 -0.1438  1.7199
17274SOL     OW56183   3.716   0.969   6.160  0.1180 -0.4700 -0.1626
17274SOL    HW156184   3.644   1.029   6.143  0.8160  0.5699  0.4313
17274SOL    HW256185   3.791   1.007   6.114  0.9068 -0.0719  1.3724
17275SOL     OW56186   4.982   7.954   5.825  0.1560  0.0797  0.0358
17275SOL    HW156187   4.912   7.901   5.788  0.6485 -0.4818 -0.1178
17275SOL    HW256188   5.030   7.988   5.749  1.2516 -1.1887  0.1239
17276SOL     OW56189   7.985   1.016   0.535 -0.3698  0.5021  0.5385
17276SOL    HW156190   7.988   0.974   0.621  0.3523  0.5218  0.5286
17276SOL    HW256191   8.065   0.988   0.491 -1.5239 -0.9059 -0.8080
17277SOL     OW56192   6.376   8.558   0.810  0.5942  0.0054  0.5293
17277SOL    HW156193   6.378   8.480   0.756  1.9647  0.3112  0.0943
17277SOL    HW256194   6.468   8.575   0.832  0.3071  1.3248  0.8409
17278SOL     OW56195   3.494   6.280  10.623 -0.6733  0.2363 -0.7791
17278SOL    HW156196   3.452   6.356  10.664 -0.4431  0.4624 -0.9593
17278SOL    HW256197   3.581   6.311  10.599 -0.3883 -0.2380 -0.3834
17279SOL     OW56198   4.779   7.682   2.838  0.2242  0.1265  0.2675
17279SOL    HW156199   4.867   7.717   2.844  1.2510 -2.1232 -0.4748
17279SOL    HW256200   4.763   7.672   2.744 -0.8819  0.5810  0.3819
17280SOL     OW56201   1.767   6.394   2.980  0.4939 -0.1709  0.3768
17280SOL    HW156202   1.829   6.382   3.052  0.0254 -0.0728  0.8035
17280SOL    HW256203   1.713   6.316   2.981  1.4327 -0.8816 -0.8440
17281SOL     OW56204   2.346   3.370   5.214 -0.8743  0.2236  0.1985
17281SOL    HW156205   2.376   3.279   5.219 -1.4659 -0.0115 -0.4050
17281SOL    HW256206   2.361   3.405   5.302 -2.0164 -0.9009  0.8617
17282SOL     OW56207   2.258   4.403   7.857  0.1331  0.2916  0.4692
17282SOL    HW156208   2.234   4.428   7.946  2.2231  0.1683  1.1378
17282SOL    HW256209   2.331   4.461   7.835  0.2321 -0.2804 -0.8037
17283SOL     OW56210   9.861   3.457   7.479  0.6262 -0.4478 -0.1596
17283SOL    HW156211   9.858   3.532   7.538  1.6650 -0.8770  0.4670
17283SOL    HW256212   9.876   3.381   7.537 -1.5698 -1.3226 -0.6408
17284SOL     OW56213   5.419   9.257   1.477 -0.7713 -0.4382 -0.0652
17284SOL    HW156214   5.425   9.221   1.566  2.4929 -0.1780 -0.0692
17284SOL    HW256215   5.364   9.335   1.487  0.5298  0.3028  2.0336
17285SOL     OW56216   3.933   8.212   8.305 -0.1223  0.2860  0.1661
17285SOL    HW156217   3.948   8.272   8.378 -2.6873 -1.1739  2.0469
17285SOL    HW256218   3.844   8.231   8.275 -0.9907 -2.3994  0.7551
17286SOL     OW56219  10.473   3.916   8.232 -0.4895  0.1414  0.5877
17286SOL    HW156220  10.496   3.842   8.289  3.5440  0.7820  0.0508
17286SOL    HW256221  10.531   3.907   8.156 -1.0362  2.9689 -0.2697
17287SOL     OW56222  10.784   8.233   9.792  0.0676 -0.0273 -0.0006
17287SOL    HW156223  10.854   8.229   9.857  0.2849  1.2300 -0.1242
17287SOL    HW256224  10.829   8.250   9.709 -0.4040  1.7481  0.0596
17288SOL     OW56225   8.681   7.913   0.067  0.0118  0.5516 -0.2557
17288SOL    HW156226   8.605   7.961   0.099 -0.3454 -0.7038  0.8958
17288SOL    HW256227   8.653   7.876  -0.016 -0.4375  0.5914 -0.1243
17289SOL     OW56228   2.149   2.069   7.179  0.0939 -0.1330  0.6310
17289SOL    HW156229   2.089   1.996   7.192 -0.8739  0.6679  0.8339
17289SOL    HW256230   2.235   2.029   7.174 -0.5142 -1.4077 -0.4288
17290SOL     OW56231   5.658   6.611   5.843 -0.7371  0.1900  0.0158
17290SOL    HW156232   5.625   6.682   5.788  0.0564 -0.4356 -1.3187
17290SOL    HW256233   5.599   6.538   5.825 -0.8850  0.1776  0.5363
17291SOL     OW56234   6.295   0.388   5.478 -0.6437 -0.1281  0.3436
17291SOL    HW156235   6.351   0.326   5.430  0.4677 -0.9151  2.5256
17291SOL    HW256236   6.355   0.435   5.535 -1.9715  0.4079  1.3386
17292SOL     OW56237   9.715  11.066   9.721 -0.4234 -0.7111  0.0605
17292SOL    HW156238   9.634  11.068   9.671 -1.1615 -0.7108  1.2160
17292SOL    HW256239   9.739  10.973   9.724  0.9176 -0.4939 -2.2526
17293SOL     OW56240   6.268   3.923   8.899  0.2975 -0.1451  0.2009
17293SOL    HW156241   6.275   4.004   8.850 -0.7860 -0.4276 -0.4497
17293SOL    HW256242   6.359   3.899   8.920  0.6157  1.3957  0.7172
17294SOL     OW56243   9.822   5.849   7.405  0.4157 -0.0060  0.1185
17294SOL    HW156244   9.788   5.865   7.317 -0.0501 -0.5780  0.1909
17294SOL    HW256245   9.886   5.919   7.419  0.9032 -0.2339 -0.8849
17295SOL     OW56246  10.376   4.456   8.090 -0.0779 -0.2723  0.1764
17295SOL    HW156247  10.340   4.536   8.053 -1.1610 -1.3263 -1.1522
17295SOL    HW256248  10.470   4.462   8.072 -0.3204  0.1378 -1.0607
17296SOL     OW56249   8.391   3.345   6.971 -0.2966 -0.2438 -0.2277
17296SOL    HW156250   8.303   3.354   6.936  0.5438  0.5275 -2.3009
17296SOL    HW256251   8.393   3.257   7.009 -1.8683 -0.3633 -0.3476
17297SOL     OW56252   9.017   5.751   2.327 -0.2178  0.1790 -0.6282
17297SOL    HW156253   9.104   5.712   2.318  0.6879  1.5584  1.4179
17297SOL    HW256254   8.956   5.681   2.300  1.4752 -0.9555 -1.6866
17298SOL     OW56255   5.573  10.530   8.931 -0.3833  0.3881  0.0814
17298SOL    HW156256   5.555  10.465   8.863  0.2054 -0.2172  0.4903
17298SOL    HW256257   5.645  10.493   8.981  0.0257  1.4062  0.2717
17299SOL     OW56258   4.832   9.670   4.001  0.0388 -0.1051 -0.1336
17299SOL    HW156259   4.925   9.691   3.987  0.6590 -2.4660 -0.0217
17299SOL    HW256260   4.833   9.607   4.073 -1.3858 -2.0658 -1.7319
17300SOL     OW56261  10.580   3.159   1.347 -0.6413 -0.0690 -0.3563
17300SOL    HW156262  10.521   3.220   1.392 -2.1176  0.4941 -2.8758
17300SOL    HW256263  10.535   3.075   1.351 -0.6299 -0.0837 -0.5406
17301SOL     OW56264   2.489   1.590   5.528 -0.2927  0.0719  0.1987
17301SOL    HW156265   2.477   1.628   5.615  0.5931  0.7314  0.0506
17301SOL    HW256266   2.575   1.546   5.533 -0.3625 -0.1238 -0.2609
17302SOL     OW56267   9.514   1.050   1.546  0.0009  0.5043 -0.4218
17302SOL    HW156268   9.568   1.006   1.480  1.4385  2.1858 -0.4287
17302SOL    HW256269   9.569   1.054   1.624 -1.3654 -0.6787  0.6686
17303SOL     OW56270   5.605   6.486   4.633 -0.0064  0.0837  0.1051
17303SOL    HW156271   5.691   6.483   4.677  0.2356  1.5284 -0.2146
17303SOL    HW256272   5.580   6.578   4.636 -1.4376 -0.2737 -0.0654
17304SOL     OW56273   3.058   8.022   5.196  0.1833  0.0094  0.1452
17304SOL    HW156274   3.080   8.089   5.261 -3.1762  1.7886 -0.3939
17304SOL    HW256275   3.070   8.065   5.112 -1.0189 -0.3847 -0.2365
17305SOL     OW56276   8.061   4.703   4.465  0.0125  0.6092 -0.3022
17305SOL    HW156277   8.103   4.656   4.394  0.4287  0.4617  0.0384
17305SOL    HW256278   7.984   4.743   4.425 -0.2934 -0.2757 -0.6166
17306SOL     OW56279   9.469  10.638   4.762  0.4016  0.2942 -0.2607
17306SOL    HW156280   9.499  10.636   4.671  0.9703  0.1141 -0.0732
17306SOL    HW256281   9.394  10.579   4.764  2.1625 -2.0865 -0.0078
17307SOL     OW56282   7.665   8.187   6.193  0.1395 -0.0288  0.1020
17307SOL    HW156283   7.594   8.139   6.234 -1.5452 -0.2377 -2.7959
17307SOL    HW256284   7.687   8.256   6.256 -3.2758  0.5995  0.7991
17308SOL     OW56285   3.388   2.428   8.244  0.4448  0.3864  0.1667
17308SOL    HW156286   3.312   2.421   8.187  0.5391 -0.6545  0.1587
17308SOL    HW256287   3.432   2.343   8.238  1.8000  1.0787 -0.0842
17309SOL     OW56288   9.577   1.371   4.224  0.0977  0.3612  0.4880
17309SOL    HW156289   9.570   1.282   4.258  1.4027 -0.2700 -0.7817
17309SOL    HW256290   9.652   1.408   4.271 -2.0304  1.8255  3.0236
17310SOL     OW56291   3.914   2.625   6.052  0.3835 -0.0429  0.5068
17310SOL    HW156292   3.933   2.532   6.047 -1.0432 -0.3267 -0.1015
17310SOL    HW256293   3.852   2.641   5.981 -0.3988  1.1057  1.3966
17311SOL     OW56294   8.204  11.013   2.300  0.3562 -0.4002  0.7067
17311SOL    HW156295   8.136  11.071   2.266  0.7813 -0.4639 -0.2985
17311SOL    HW256296   8.240  11.058   2.376 -0.8815 -0.4228  1.3306
17312SOL     OW56297   3.187   5.130   4.182 -0.7186  0.5100 -0.2311
17312SOL    HW156298   3.145   5.054   4.144 -0.1843  0.1821 -0.1783
17312SOL    HW256299   3.165   5.202   4.123  0.0489  0.0219 -1.1526
17313SOL     OW56300   3.332   8.272   7.597 -0.4492 -0.3116 -0.1242
17313SOL    HW156301   3.392   8.337   7.562 -1.4532  1.6545  1.5554
17313SOL    HW256302   3.246   8.299   7.565 -0.9443 -0.5010  0.9823
17314SOL     OW56303   7.140   0.739   4.761 -0.2152 -0.1089 -0.4534
17314SOL    HW156304   7.107   0.794   4.690 -0.1319 -0.6851 -0.9566
17314SOL    HW256305   7.104   0.777   4.841  1.0062  1.5393 -0.6397
17315SOL     OW56306   8.440   7.507   6.721  0.3089  0.3756 -0.0231
17315SOL    HW156307   8.439   7.539   6.811 -1.1425 -1.2156  0.5982
17315SOL    HW256308   8.532   7.489   6.702  0.6251  0.6767  1.1649
17316SOL     OW56309   1.676   0.335   1.885 -0.3973  0.1415  0.4685
17316SOL    HW156310   1.609   0.347   1.819 -0.6835 -0.4558  0.6448
17316SOL    HW256311   1.746   0.288   1.840 -1.1669 -1.5181  0.9108
17317SOL     OW56312   6.308   0.350   6.872  0.4645 -0.2301  0.1862
17317SOL    HW156313   6.257   0.430   6.878  1.5902  0.8985 -3.0061
17317SOL    HW256314   6.399   0.379   6.871  0.9157 -1.5514 -0.6601
17318SOL     OW56315   5.193   4.869   2.523  0.5397 -0.6152 -0.2585
17318SOL    HW156316   5.098   4.869   2.522  0.5422 -0.5385 -0.4044
17318SOL    HW256317   5.217   4.961   2.536  0.5842 -0.7250  0.4897
17319SOL     OW56318  10.853   5.003   8.652  0.0027  0.0683  0.0271
17319SOL    HW156319  10.803   4.922   8.666 -0.9756  0.3412 -1.5770
17319SOL    HW256320  10.899   4.988   8.569  1.1095  0.5551  0.5442
17320SOL     OW56321   0.740   9.875   4.069 -0.3360 -0.2841  0.1925
17320SOL    HW156322   0.780   9.962   4.074 -1.0269 -0.0179  1.4020
17320SOL    HW256323   0.797   9.826   4.009  0.8943  0.5491  0.6448
17321SOL     OW56324   8.760   5.817   2.696 -0.0484  0.1007 -0.3650
17321SOL    HW156325   8.767   5.792   2.788 -0.8963  0.0782 -0.2987
17321SOL    HW256326   8.799   5.745   2.648  1.0470  0.4305  0.0063
17322SOL     OW56327   1.667   0.820   4.422 -0.2211  0.6409  0.0342
17322SOL    HW156328   1.726   0.753   4.455 -0.6958 -0.5509 -1.4540
17322SOL    HW256329   1.719   0.869   4.359 -0.7036 -0.2126 -1.0476
17323SOL     OW56330   9.331   1.086   1.357 -0.5444 -0.4981 -0.5917
17323SOL    HW156331   9.337   1.010   1.299 -2.8994 -1.1929 -0.0225
17323SOL    HW256332   9.391   1.064   1.429  0.9256 -0.4953 -1.7653
17324SOL     OW56333   6.319   7.584   9.026  0.6054  0.3491  0.1865
17324SOL    HW156334   6.354   7.500   8.997 -2.4619 -0.9331 -0.2236
17324SOL    HW256335   6.326   7.582   9.121  0.5017 -0.4267  0.1849
17325SOL     OW56336  11.028   6.082   7.853  0.6924 -0.0929 -0.0144
17325SOL    HW156337  10.938   6.061   7.875  0.4074  0.0911 -0.9321
17325SOL    HW256338  11.060   6.003   7.808  1.1053 -0.2880  0.6064
17326SOL     OW56339   3.478   9.155   7.532 -0.2861  0.3678  0.0061
17326SOL    HW156340   3.463   9.243   7.497  0.4605  0.7466  0.6235
17326SOL    HW256341   3.556   9.163   7.586  2.1195 -1.4840 -2.8686
17327SOL     OW56342   9.292  10.415   8.244  0.2991  0.3161  0.2933
17327SOL    HW156343   9.209  10.399   8.290  0.2337 -0.6348 -0.1417
17327SOL    HW256344   9.354  10.435   8.314 -0.0817  0.0855  0.7035
17328SOL     OW56345   0.426   6.670   9.424 -0.3250 -0.0909  0.8475
17328SOL    HW156346   0.512   6.687   9.462 -0.2922 -1.2340  1.3456
17328SOL    HW256347   0.439   6.679   9.330  0.3375 -0.2244  0.9230
17329SOL     OW56348   5.687   7.122   9.242 -0.2116  0.4435  0.2668
17329SOL    HW156349   5.619   7.107   9.177 -1.9959 -0.1529  2.1774
17329SOL    HW256350   5.768   7.124   9.191 -1.4705 -0.3457 -1.9143
17330SOL     OW56351   6.654   1.344   8.327  0.1422 -0.7588 -0.1674
17330SOL    HW156352   6.724   1.371   8.268 -0.0332 -0.9676 -0.4728
17330SOL    HW256353   6.642   1.419   8.386 -0.5179 -0.0515 -1.1668
17331SOL     OW56354   6.370   9.418   4.919  0.6524  0.3052  0.5074
17331SOL    HW156355   6.346   9.338   4.966 -0.5064 -0.3194 -1.0541
17331SOL    HW256356   6.465   9.421   4.924  0.6236 -0.4137  1.8065
17332SOL     OW56357  11.008   3.975   2.328  0.0725 -0.4484  0.1179
17332SOL    HW156358  10.952   4.044   2.364  1.7117  1.3803 -0.6267
17332SOL    HW256359  11.048   3.934   2.404  0.1690  0.4159  0.5507
17333SOL     OW56360  10.462   1.371   2.145 -0.2249  0.2813  0.7511
17333SOL    HW156361  10.447   1.343   2.055 -1.8036  0.8846  0.7787
17333SOL    HW256362  10.553   1.398   2.148  0.0439 -0.4541 -0.4687
17334SOL     OW56363   5.552   6.192   0.550  0.0843 -0.2897  0.1229
17334SOL    HW156364   5.483   6.259   0.556 -0.4611 -0.7729 -0.6032
17334SOL    HW256365   5.510   6.112   0.582  0.9042 -0.1947  1.5296
17335SOL     OW56366   6.786   8.674   3.722  0.2689 -0.2587  0.7285
17335SOL    HW156367   6.801   8.768   3.733 -1.0529  0.0622  0.0430
17335SOL    HW256368   6.834   8.633   3.793  0.2605  0.9922  1.4870
17336SOL     OW56369   5.967   6.039   4.439  0.0033  0.0089 -0.0868
17336SOL    HW156370   5.957   6.115   4.497 -1.5993 -1.4286  1.6581
17336SOL    HW256371   5.890   5.985   4.457 -0.9837 -0.2353 -4.1348
17337SOL     OW56372   7.834   0.691   9.527  0.1900 -0.1032  0.6315
17337SOL    HW156373   7.764   0.749   9.559  0.9047 -0.0984  2.3035
17337SOL    HW256374   7.822   0.609   9.575  0.2998 -0.7199 -0.3597
17338SOL     OW56375   0.709   4.962   1.563 -0.5686 -0.0924  0.1237
17338SOL    HW156376   0.803   4.976   1.547 -0.3338 -0.7836  0.8448
17338SOL    HW256377   0.693   5.006   1.647 -1.1553  1.0075 -0.5330
17339SOL     OW56378   6.359   5.299  10.066 -0.1101 -0.3368  0.1070
17339SOL    HW156379   6.297   5.230  10.088 -0.7458 -0.2150 -1.2090
17339SOL    HW256380   6.410   5.312  10.146 -1.7802 -0.4273  1.2297
17340SOL     OW56381   5.837   7.153   9.494  0.2361 -0.3650  0.0282
17340SOL    HW156382   5.866   7.074   9.448  0.5012 -1.0386  1.2965
17340SOL    HW256383   5.755   7.177   9.451 -0.0089 -1.5119 -0.1780
17341SOL     OW56384  10.578   1.184   0.964 -0.1271 -0.1550 -0.4246
17341SOL    HW156385  10.634   1.230   0.902 -1.1885  1.6363 -0.1437
17341SOL    HW256386  10.513   1.249   0.990 -1.1880 -1.5881  0.7023
17342SOL     OW56387  10.505   2.053   5.869  0.2094  0.0955 -0.3794
17342SOL    HW156388  10.481   2.096   5.951 -1.2090  0.3354 -0.8863
17342SOL    HW256389  10.435   2.076   5.808 -1.2692 -3.7684 -0.4109
17343SOL     OW56390   1.703   6.839   2.999 -0.5519 -0.3145 -0.2291
17343SOL    HW156391   1.795   6.846   3.027 -0.0394 -0.4689 -1.8051
17343SOL    HW256392   1.654   6.878   3.071  0.7304 -0.3383  0.7080
17344SOL     OW56393   7.142   2.690   9.447 -0.5874 -0.0393  0.2503
17344SOL    HW156394   7.176   2.708   9.359 -2.4129  1.8519 -0.1444
17344SOL    HW256395   7.216   2.709   9.506  0.4166 -0.5519 -0.7998
17345SOL     OW56396   2.291   0.409   5.472 -0.8800 -0.4656 -0.4150
17345SOL    HW156397   2.365   0.350   5.482 -0.1229  0.7429  1.7632
17345SOL    HW256398   2.317   0.469   5.402 -0.3472 -0.8232 -0.5243
17346SOL     OW56399   9.022   9.360   7.150  0.3485 -0.3363 -0.2271
17346SOL    HW156400   9.011   9.292   7.083  0.6905  0.4308 -1.0838
17346SOL    HW256401   8.935   9.398   7.161 -0.2935 -2.1282  1.6525
17347SOL     OW56402   3.217   0.740   5.767  0.1520 -0.2771  0.0414
17347SOL    HW156403   3.167   0.691   5.834 -0.6444 -0.9498 -1.0041
17347SOL    HW256404   3.151   0.795   5.725  0.4895 -0.4246 -0.6832
17348SOL     OW56405   5.999   0.226   8.030  0.1405  0.1645  0.5607
17348SOL    HW156406   6.000   0.310   8.076  1.7944  0.9611 -0.8019
17348SOL    HW256407   6.023   0.247   7.940  1.2567 -1.8354  0.3238
17349SOL     OW56408   9.631   1.942   9.875  0.6402 -0.1955  0.0151
17349SOL    HW156409   9.579   2.012   9.834  1.0575  0.2205  0.1830
17349SOL    HW256410   9.695   1.989   9.929  0.1932 -0.7330  1.0281
17350SOL     OW56411   3.128   5.496   1.005  0.0231 -0.3390 -0.5767
17350SOL    HW156412   3.131   5.592   0.999 -0.3030 -0.3523 -1.0594
17350SOL    HW256413   3.091   5.478   1.091  1.0028 -0.0416 -0.0836
17351SOL     OW56414   2.242   4.673  10.014  0.6211 -0.0774 -0.2256
17351SOL    HW156415   2.272   4.759  10.045  1.0281  0.0238 -0.8817
17351SOL    HW256416   2.147   4.675  10.028  0.7800 -0.0211  0.9547
17352SOL     OW56417   9.441   0.497   7.089  0.3642  0.7440 -0.6511
17352SOL    HW156418   9.419   0.530   7.001  0.6200 -1.3050 -1.5287
17352SOL    HW256419   9.358   0.466   7.124  0.5075  0.2383 -0.7577
17353SOL     OW56420   7.988   2.008   0.070  0.2853 -0.3641  0.8993
17353SOL    HW156421   7.924   1.969   0.010  0.4944 -0.0738  0.4818
17353SOL    HW256422   7.999   1.942   0.139 -0.1706 -0.5814  0.7709
17354SOL     OW56423   7.279   8.977   3.748  0.6023  0.1813  0.2702
17354SOL    HW156424   7.346   8.979   3.816  1.2764  1.5761 -0.3924
17354SOL    HW256425   7.281   9.064   3.709 -1.8524  0.3881  0.4412
17355SOL     OW56426  10.056   1.389   9.859 -0.0326 -0.0930 -0.2815
17355SOL    HW156427  10.140   1.366   9.899 -0.4165 -0.8303  0.1135
17355SOL    HW256428  10.039   1.319   9.796  0.2393  0.7042 -1.2847
17356SOL     OW56429   8.900   2.122   5.099 -0.2335  0.1178  0.2974
17356SOL    HW156430   8.990   2.117   5.129 -0.3380 -1.1885  0.4643
17356SOL    HW256431   8.884   2.038   5.057 -1.7842 -0.2327  1.4857
17357SOL     OW56432   0.707   4.563  10.224  0.6898  0.4468  0.3323
17357SOL    HW156433   0.766   4.634  10.250  0.8400  0.3221  0.3380
17357SOL    HW256434   0.627   4.578  10.275 -0.0143  1.7207 -1.0585
17358SOL     OW56435   8.084   6.810  10.642  0.3066  0.6431  0.0114
17358SOL    HW156436   8.071   6.788  10.735  0.2445  0.1071 -0.1237
17358SOL    HW256437   8.000   6.846  10.615 -1.2850 -3.3296 -1.0110
17359SOL     OW56438  10.248   5.647   9.615  0.1756  0.1486  0.1343
17359SOL    HW156439  10.285   5.667   9.702  0.4749 -1.1504  0.3226
17359SOL    HW256440  10.318   5.599   9.571 -0.8971 -1.4544  0.1195
17360SOL     OW56441   3.202  10.429   9.675 -0.4988 -0.2478 -0.3342
17360SOL    HW156442   3.241  10.511   9.704  0.0859 -0.3443 -0.8482
17360SOL    HW256443   3.114  10.453   9.647 -0.8064 -0.0196  0.7674
17361SOL     OW56444   3.939   0.992   8.005 -0.2355  0.2244  0.4604
17361SOL    HW156445   3.848   0.999   7.977 -0.8273  0.3471  2.2770
17361SOL    HW256446   3.987   1.050   7.946 -1.3185  0.1486 -0.5304
17362SOL     OW56447   6.043  10.268   5.322 -0.5249 -0.2265  0.2026
17362SOL    HW156448   5.972  10.238   5.380  0.6256 -0.5572  1.5002
17362SOL    HW256449   6.003  10.270   5.235 -1.8755 -1.2970  0.7474
17363SOL     OW56450   4.240   0.906   1.183 -0.3676  0.1037 -0.6950
17363SOL    HW156451   4.248   0.822   1.228 -0.5071 -0.2831 -1.3791
17363SOL    HW256452   4.237   0.883   1.090 -0.4798  0.8606 -0.8824
17364SOL     OW56453  10.049   2.666   7.517  0.2851  0.2085  0.3120
17364SOL    HW156454   9.974   2.646   7.573 -0.9266  1.7347 -0.6722
17364SOL    HW256455  10.045   2.601   7.446 -0.5477  0.7198 -0.1183
17365SOL     OW56456   9.780   3.799   3.606  0.5735  0.0605  0.5274
17365SOL    HW156457   9.874   3.782   3.607  0.9097  1.5538 -0.6137
17365SOL    HW256458   9.760   3.815   3.513 -0.8094 -0.2513  0.7510
17366SOL     OW56459   2.636   0.238   7.831 -0.1709  0.2579  0.0891
17366SOL    HW156460   2.611   0.269   7.918  1.9760  1.0582  0.4817
17366SOL    HW256461   2.561   0.187   7.801 -0.0772 -2.1691  3.4197
17367SOL     OW56462   5.621   4.334   4.078  0.1409 -0.3008 -0.3408
17367SOL    HW156463   5.702   4.369   4.116  0.3405  0.3331 -1.2921
17367SOL    HW256464   5.578   4.289   4.150  0.4445  0.9475  0.6536
17368SOL     OW56465   9.061   1.908   4.856 -0.3003 -0.3806 -0.5779
17368SOL    HW156466   9.002   1.844   4.897 -0.8482  1.2082  1.2571
17368SOL    HW256467   9.139   1.908   4.910  0.0126 -0.0628 -1.0209
17369SOL     OW56468   0.582   6.216   5.559 -0.3183  0.4208 -0.6271
17369SOL    HW156469   0.564   6.150   5.626  3.5974  1.2468  1.5656
17369SOL    HW256470   0.583   6.167   5.477  0.2803 -1.8258  0.6307
17370SOL     OW56471   1.919   5.182   9.247  0.1691  0.1156 -0.6516
17370SOL    HW156472   1.921   5.278   9.244 -2.8628  0.4068  1.8457
17370SOL    HW256473   1.941   5.160   9.338 -1.9420 -1.3048 -0.4163
17371SOL     OW56474  10.827   7.033   7.353 -0.7202  0.1397  0.6789
17371SOL    HW156475  10.790   7.115   7.318  0.4548 -0.0286 -1.1028
17371SOL    HW256476  10.921   7.040   7.335 -0.4333 -1.1187  1.5562
17372SOL     OW56477   0.058   3.081   1.090  0.2539  0.2924 -0.0496
17372SOL    HW156478  -0.026   3.090   1.135  1.1145 -0.3409  1.7573
17372SOL    HW256479   0.086   2.992   1.110  2.2405  1.1028  0.9973
17373SOL     OW56480   2.501   4.496   8.643  0.2264  0.5721 -0.2111
17373SOL    HW156481   2.466   4.536   8.723  1.7811 -0.2483  0.9398
17373SOL    HW256482   2.578   4.447   8.672 -0.2401 -1.3181 -1.9350
17374SOL     OW56483   7.515   8.454   9.207 -0.4273  0.3355 -0.7012
17374SOL    HW156484   7.463   8.436   9.129 -1.5137  1.0288 -0.1494
17374SOL    HW256485   7.541   8.368   9.239  1.3406  0.0495 -2.6559
17375SOL     OW56486   9.150   2.080   6.022  0.0885 -0.7607  0.8778
17375SOL    HW156487   9.134   2.081   6.117 -1.6782 -1.9520  0.6256
17375SOL    HW256488   9.068   2.112   5.984  1.3250  1.2811 -0.2415
17376SOL     OW56489   6.455   7.855   9.173 -0.2774  0.4769 -0.0719
17376SOL    HW156490   6.530   7.848   9.114  0.1738 -2.1903  0.6736
17376SOL    HW256491   6.471   7.788   9.239 -2.6634  0.7901  0.9145
17377SOL     OW56492  11.066   9.239   9.929  0.2677 -0.5201  0.0634
17377SOL    HW156493  11.030   9.275  10.011 -0.3394  0.4327 -0.6073
17377SOL    HW256494  11.138   9.182   9.958  0.5914  0.4342  1.2150
17378SOL     OW56495   9.406   7.292   1.064 -0.0453  0.0332 -0.2425
17378SOL    HW156496   9.414   7.387   1.058 -0.8787  0.0608 -1.1326
17378SOL    HW256497   9.318   7.273   1.031 -0.5240 -0.9190  1.5043
17379SOL     OW56498   0.196  10.521   0.403  0.0785  0.3169  0.0238
17379SOL    HW156499   0.201  10.593   0.340  1.4936  0.7914  0.6418
17379SOL    HW256500   0.253  10.453   0.366  1.0940  0.6811  0.8468
17380SOL     OW56501   7.318   6.318   8.866 -0.1460 -0.0445  0.3368
17380SOL    HW156502   7.241   6.350   8.915  1.0352  0.8795  1.6922
17380SOL    HW256503   7.322   6.375   8.789 -0.5620  0.2103  0.4963
17381SOL     OW56504   9.403   0.592   4.140 -0.0743 -0.5615 -0.0677
17381SOL    HW156505   9.367   0.676   4.111 -0.6435 -0.9347 -0.4733
17381SOL    HW256506   9.486   0.614   4.181  0.2726  0.1057 -1.0789
17382SOL     OW56507   0.753   1.037   6.851  0.0000 -0.2147  0.1591
17382SOL    HW156508   0.840   1.072   6.871  0.8428 -1.6721 -0.8498
17382SOL    HW256509   0.735   0.975   6.921 -0.1359 -0.1041  0.2248
17383SOL     OW56510   6.421   8.605   9.849 -0.2516  0.2191 -0.0040
17383SOL    HW156511   6.430   8.652   9.932 -0.2818  0.9752 -0.4216
17383SOL    HW256512   6.435   8.672   9.782  1.1031 -0.6240 -0.6194
17384SOL     OW56513   9.609   6.839   0.631 -0.3243  0.1521 -0.0402
17384SOL    HW156514   9.688   6.792   0.658  0.8776  1.5143 -1.0187
17384SOL    HW256515   9.547   6.771   0.607  0.7865 -0.9494  0.1190
17385SOL     OW56516   8.293   8.575   3.906 -0.5371  0.1590 -0.0461
17385SOL    HW156517   8.300   8.484   3.935 -0.6787  0.0585 -0.3227
17385SOL    HW256518   8.270   8.624   3.986  0.8941  0.1588  0.3844
17386SOL     OW56519  10.452   3.516   3.310  0.2493  0.8688 -0.0469
17386SOL    HW156520  10.525   3.555   3.261  0.6477 -0.1533 -0.2864
17386SOL    HW256521  10.481   3.427   3.329 -1.2362  0.2052 -0.7895
17387SOL     OW56522   7.303   4.186   5.567 -0.2553  0.4734  0.2109
17387SOL    HW156523   7.260   4.223   5.644  0.7522  0.2652  0.8802
17387SOL    HW256524   7.321   4.095   5.591  1.1950  0.7491  0.2061
17388SOL     OW56525   8.638   8.516   8.690 -0.5552  0.0940  0.2774
17388SOL    HW156526   8.675   8.581   8.750 -0.3884 -0.1009  0.3873
17388SOL    HW256527   8.694   8.519   8.613 -0.3134 -0.1918  0.4389
17389SOL     OW56528   2.324   3.804   3.332 -0.3411 -0.0259  0.2941
17389SOL    HW156529   2.287   3.793   3.244 -1.3336 -0.2640  0.7326
17389SOL    HW256530   2.342   3.715   3.362  1.4641  0.1161 -0.2575
17390SOL     OW56531   2.183   0.074  10.861  0.0152  0.0008 -0.2205
17390SOL    HW156532   2.202   0.098  10.770  1.6528 -1.2870 -0.2639
17390SOL    HW256533   2.160  -0.019  10.858 -1.5502  0.3237  0.5187
17391SOL     OW56534  11.113   8.964   7.196  0.1832 -0.4552 -0.7253
17391SOL    HW156535  11.116   8.868   7.201  0.9043 -0.5388 -2.2017
17391SOL    HW256536  11.158   8.985   7.115 -1.8931  1.0208 -1.5973
17392SOL     OW56537   6.254   7.572   4.514 -0.0208 -0.6630 -0.1936
17392SOL    HW156538   6.214   7.522   4.585  1.7963 -2.2186 -0.1876
17392SOL    HW256539   6.251   7.663   4.545  1.1320 -1.3460  2.1411
17393SOL     OW56540   1.244   0.364   0.418 -0.4752 -0.1766  0.0262
17393SOL    HW156541   1.220   0.354   0.326  1.2844 -1.5969 -0.3318
17393SOL    HW256542   1.304   0.439   0.419  1.4155 -1.5861 -0.4583
17394SOL     OW56543   5.590   6.639   2.637 -0.1400  0.7772 -0.1110
17394SOL    HW156544   5.622   6.717   2.593  0.6461  0.6729  0.2521
17394SOL    HW256545   5.538   6.593   2.571  0.4531  0.9643 -0.7182
17395SOL     OW56546   6.580   8.919   1.486 -0.3396  0.6165 -0.0952
17395SOL    HW156547   6.497   8.885   1.452  0.0895 -0.2241 -0.3198
17395SOL    HW256548   6.630   8.941   1.408  0.2206 -0.2746  0.0056
17396SOL     OW56549  10.588   6.231   1.265 -0.0051 -0.3975 -0.0185
17396SOL    HW156550  10.577   6.263   1.175 -0.7658 -0.2035  0.1392
17396SOL    HW256551  10.517   6.168   1.277  0.6108 -1.0616  0.1672
17397SOL     OW56552   6.671   8.207   6.879  0.6307  0.3042 -0.7058
17397SOL    HW156553   6.755   8.250   6.895  0.8866 -0.5507  0.4729
17397SOL    HW256554   6.646   8.172   6.965 -0.8971  0.4678 -1.0582
17398SOL     OW56555   4.385   6.292   1.104  0.4959 -0.9829 -0.8389
17398SOL    HW156556   4.336   6.279   1.023  0.0525 -3.9591 -0.2145
17398SOL    HW256557   4.468   6.247   1.089  2.3575  2.2336 -1.1237
17399SOL     OW56558   9.021   9.743   6.193 -0.4858  0.1333 -0.0464
17399SOL    HW156559   9.089   9.707   6.250 -0.0064 -0.0946 -0.7472
17399SOL    HW256560   9.011   9.834   6.221 -1.4492 -0.4194  1.4977
17400SOL     OW56561   0.566   1.735  10.938 -0.0762  0.3271  0.1880
17400SOL    HW156562   0.640   1.685  10.903 -0.6803  0.2998 -1.1371
17400SOL    HW256563   0.604   1.792  11.004  1.2178  0.6876 -0.8335
17401SOL     OW56564   3.695   1.257   5.793 -0.4651  1.0754  0.1817
17401SOL    HW156565   3.771   1.200   5.783  0.3471  2.1884 -0.2520
17401SOL    HW256566   3.621   1.207   5.758  0.6421  1.2269 -2.6237
17402SOL     OW56567   9.129   8.049   2.767  0.2321  0.0633 -0.1888
17402SOL    HW156568   9.192   8.073   2.699  0.1069 -0.4839 -0.5084
17402SOL    HW256569   9.044   8.076   2.732 -0.2071 -2.6240 -1.5248
17403SOL     OW56570   5.888   8.741   8.533 -0.5614 -0.3849  0.5952
17403SOL    HW156571   5.843   8.734   8.448 -0.7975 -0.1503  0.6973
17403SOL    HW256572   5.826   8.702   8.595 -1.7010  2.0264  1.1048
17404SOL     OW56573   5.948   0.978   3.402  0.4534  0.0089  0.6602
17404SOL    HW156574   5.859   0.943   3.408  0.3843  0.1005  0.2108
17404SOL    HW256575   5.939   1.071   3.425  0.3292  0.1615  0.0111
17405SOL     OW56576   2.960   2.046   6.779  0.6962 -0.1363  0.2370
17405SOL    HW156577   3.018   1.997   6.722  1.6302  0.0013  1.0508
17405SOL    HW256578   2.945   2.129   6.733 -1.2001 -1.2600 -1.3205
17406SOL     OW56579   9.806  10.097   3.347  0.0245 -0.0590  0.1180
17406SOL    HW156580   9.873  10.041   3.308 -0.3703  0.1119 -0.8508
17406SOL    HW256581   9.729  10.084   3.292 -0.5721  0.1755  0.8823
17407SOL     OW56582   0.089   8.053   2.274  0.0887  0.3550 -0.3436
17407SOL    HW156583   0.028   8.053   2.347 -2.7115 -2.4544 -2.4189
17407SOL    HW256584   0.064   8.129   2.222  0.5692  1.0460  0.4112
17408SOL     OW56585   4.889   0.975   8.192  0.4668  0.3347 -0.2819
17408SOL    HW156586   4.975   1.012   8.173 -0.0529  1.2310 -0.9339
17408SOL    HW256587   4.854   0.948   8.107  0.4706 -0.8771  0.0828
17409SOL     OW56588   4.588  10.222   3.350  0.4959 -0.5021 -0.0184
17409SOL    HW156589   4.624  10.221   3.261  0.1796 -0.7046 -0.1446
17409SOL    HW256590   4.512  10.165   3.346 -0.0788  0.2389  0.1424
17410SOL     OW56591   4.332   6.059   8.002  1.0073  0.4468 -0.3589
17410SOL    HW156592   4.306   5.970   7.978  4.5731 -0.8576  0.1359
17410SOL    HW256593   4.314   6.064   8.096  1.6506 -0.1153 -0.1978
17411SOL     OW56594   0.925   1.748   6.530  0.2367 -0.4087 -0.1053
17411SOL    HW156595   0.833   1.723   6.527  0.3043 -0.7064  0.1898
17411SOL    HW256596   0.937   1.791   6.615  0.3796 -0.4181 -0.1193
17412SOL     OW56597   4.360   6.124   0.644 -0.2509  0.1957 -0.2074
17412SOL    HW156598   4.339   6.095   0.733 -1.0521  0.9312 -0.1377
17412SOL    HW256599   4.358   6.045   0.591 -0.3776 -0.1573  0.3193
17413SOL     OW56600   9.632   3.209   7.281 -0.6777  0.2548 -0.4685
17413SOL    HW156601   9.560   3.223   7.342 -0.9175  0.9269 -0.8907
17413SOL    HW256602   9.658   3.118   7.295 -0.1294  0.6513  1.2713
17414SOL     OW56603   1.789  11.025   1.111  0.5105  0.3645  0.0153
17414SOL    HW156604   1.790  10.930   1.109  0.5772  0.3765 -0.4725
17414SOL    HW256605   1.749  11.047   1.196  0.5900 -0.0921  0.1724
17415SOL     OW56606   5.890   7.683   7.446 -0.5126  0.0993  0.0414
17415SOL    HW156607   5.919   7.655   7.359  1.7726 -1.8144  1.3105
17415SOL    HW256608   5.830   7.615   7.475  0.6993 -0.6369  0.9181
17416SOL     OW56609   4.069   3.002   3.404  0.3199 -0.0930 -0.0644
17416SOL    HW156610   4.128   2.967   3.472  0.1626  2.1609  1.3499
17416SOL    HW256611   3.981   2.989   3.439  0.2948  3.2609  1.4754
17417SOL     OW56612   2.741   2.972   8.224  0.2199  0.1299  0.1231
17417SOL    HW156613   2.758   2.913   8.298  0.5194  1.7084  1.3688
17417SOL    HW256614   2.646   2.969   8.212 -0.1795  1.7059  2.2676
17418SOL     OW56615   0.875   0.412   8.961 -0.5478 -0.1142  0.5541
17418SOL    HW156616   0.858   0.474   9.032 -1.9490 -1.5172  1.5306
17418SOL    HW256617   0.970   0.403   8.960 -0.2800  2.1112  0.2661
17419SOL     OW56618   8.108   5.654   7.272 -0.4429  0.5755  0.2287
17419SOL    HW156619   8.124   5.595   7.346 -1.1888  1.1903  0.9076
17419SOL    HW256620   8.025   5.622   7.234  0.0225  0.1598 -0.4587
17420SOL     OW56621   3.958   8.072   6.678  0.4917 -0.2444  0.2748
17420SOL    HW156622   4.031   8.108   6.628  0.2700  1.1888  0.9376
17420SOL    HW256623   3.997   8.004   6.733  1.1598 -0.1309 -0.0497
17421SOL     OW56624   3.967   9.047   3.932  0.2920 -0.5285  0.3363
17421SOL    HW156625   3.991   9.041   3.840 -0.0918 -1.0691  0.2647
17421SOL    HW256626   3.901   8.978   3.944  1.6326 -1.6721  1.4312
17422SOL     OW56627   4.927  10.155  10.811  0.4688 -0.3128 -0.4521
17422SOL    HW156628   4.948  10.246  10.830 -2.1317  0.5469 -1.2556
17422SOL    HW256629   4.989  10.129  10.743  2.2954  0.2618  0.8959
17423SOL     OW56630   4.725   2.564   7.566  0.2638 -0.0593  0.7657
17423SOL    HW156631   4.808   2.570   7.614  0.8003 -0.7520 -0.0540
17423SOL    HW256632   4.698   2.656   7.555  3.3526  0.6473 -3.0295
17424SOL     OW56633   9.210  10.517   7.873  0.4906 -0.2565 -0.1268
17424SOL    HW156634   9.213  10.589   7.936  0.3256 -0.6733  0.3657
17424SOL    HW256635   9.150  10.547   7.805  3.1899  1.6003 -1.8811
17425SOL     OW56636   4.055   6.919   1.883 -0.3569  0.2183 -0.4598
17425SOL    HW156637   4.112   6.954   1.814  2.7716 -2.3427  0.6315
17425SOL    HW256638   4.023   6.836   1.848 -1.5621  0.5027 -0.0886
17426SOL     OW56639   3.374   5.620   8.844  1.0238 -0.3232 -0.4238
17426SOL    HW156640   3.392   5.593   8.754  1.6928  1.4103 -0.8457
17426SOL    HW256641   3.324   5.702   8.835 -0.4805 -1.0485  0.7888
17427SOL     OW56642   2.402  10.974  10.685 -0.4367  0.3175  0.4545
17427SOL    HW156643   2.325  10.961  10.739 -1.0381 -0.1053 -0.4688
17427SOL    HW256644   2.459  10.899  10.706 -0.6731  0.1449  0.4808
17428SOL     OW56645   9.176   5.703   1.507  0.3053 -0.3100 -0.6868
17428SOL    HW156646   9.108   5.637   1.513  1.1512 -1.1435  0.0743
17428SOL    HW256647   9.207   5.697   1.417 -0.9390  0.4257 -1.1887
17429SOL     OW56648  10.662   9.923   0.021 -0.0605  0.2239 -0.4019
17429SOL    HW156649  10.684  10.013  -0.002 -1.9399  2.1224  4.0111
17429SOL    HW256650  10.590   9.900  -0.037  0.7093  1.3686 -1.8677
17430SOL     OW56651   5.470   9.681   5.127  0.3177 -0.0313 -0.6503
17430SOL    HW156652   5.546   9.734   5.105  0.6385 -0.5181 -0.7233
17430SOL    HW256653   5.452   9.630   5.048 -1.4117  1.6247 -1.4051
17431SOL     OW56654   7.493  10.804   6.093  0.5100  0.4407 -0.0443
17431SOL    HW156655   7.568  10.862   6.083  0.0440  0.9149 -0.9074
17431SOL    HW256656   7.470  10.779   6.003  0.8118 -1.2299  0.3097
17432SOL     OW56657  10.339  10.731   0.059 -0.3995  0.0473 -0.1806
17432SOL    HW156658  10.301  10.808   0.101 -1.5552  0.0610 -1.1964
17432SOL    HW256659  10.429  10.756   0.039 -0.3164  0.5951  0.8106
17433SOL     OW56660   4.206   8.841   5.714  0.2461 -0.1365 -0.2825
17433SOL    HW156661   4.299   8.815   5.714  0.6914  1.1302 -2.7369
17433SOL    HW256662   4.160   8.764   5.682  0.7537 -0.0508 -1.2489
17434SOL     OW56663   2.107   4.000   6.758  0.1892 -0.2212 -0.1389
17434SOL    HW156664   2.200   3.985   6.775  0.2671 -0.7722 -1.0181
17434SOL    HW256665   2.096   3.981   6.665 -0.4897  1.4222 -0.4290
17435SOL     OW56666   8.359   7.693   1.922 -0.1004 -0.7151 -0.2760
17435SOL    HW156667   8.369   7.769   1.864 -1.2532  0.8092  1.4027
17435SOL    HW256668   8.430   7.701   1.985 -0.2423 -1.0078 -0.0779
17436SOL     OW56669   6.248   2.790   6.375  0.8299  0.3172 -0.0038
17436SOL    HW156670   6.158   2.823   6.373  1.1545  1.4009  1.5396
17436SOL    HW256671   6.246   2.717   6.437  0.8116 -0.4002 -0.8254
17437SOL     OW56672  10.843   0.784   2.828  0.2298  0.2072 -0.2862
17437SOL    HW156673  10.860   0.715   2.763  0.9382  0.3003 -0.2035
17437SOL    HW256674  10.926   0.794   2.875  0.5479  2.0090 -1.1417
17438SOL     OW56675   3.040   4.406   7.577 -0.4285 -0.2759  0.1037
17438SOL    HW156676   3.124   4.421   7.533  0.9410  0.0728  2.6512
17438SOL    HW256677   2.982   4.473   7.542  0.2142 -0.6839 -1.9094
17439SOL     OW56678   9.702   0.054   0.819 -0.2256  0.1026 -0.4101
17439SOL    HW156679   9.645   0.054   0.743  0.7871 -1.9143 -1.2519
17439SOL    HW256680   9.715  -0.039   0.840 -0.1636  0.5697  1.9967
17440SOL     OW56681   8.651   2.946  10.009  0.7610 -0.0382 -0.1830
17440SOL    HW156682   8.576   2.954   9.950 -1.8320 -1.3216  2.7000
17440SOL    HW256683   8.674   2.853  10.005  1.5125  0.1447 -0.2229
17441SOL     OW56684   3.637   4.196   6.453 -0.1904  0.6749 -0.2922
17441SOL    HW156685   3.635   4.156   6.540  0.5378  0.7472 -0.2344
17441SOL    HW256686   3.548   4.186   6.420 -0.3322  0.1365  0.2299
17442SOL     OW56687   7.965   0.868   0.782 -0.2526 -0.7936  0.1853
17442SOL    HW156688   7.934   0.920   0.856  0.7641  0.2383 -0.0919
17442SOL    HW256689   7.886   0.829   0.745 -0.9605  0.0374  0.7915
17443SOL     OW56690   7.729   0.844   0.070 -0.2525 -0.1243 -0.2452
17443SOL    HW156691   7.738   0.750   0.053 -0.6753 -0.2964  0.4564
17443SOL    HW256692   7.803   0.866   0.127 -0.0008  0.0279 -0.6263
17444SOL     OW56693   8.108   0.045   4.675  0.7177 -0.3531  0.2012
17444SOL    HW156694   8.076   0.135   4.671  0.6635 -0.3321  0.9080
17444SOL    HW256695   8.146   0.029   4.589 -1.1198 -0.3679 -0.6422
17445SOL     OW56696   6.143   2.682   6.918  0.4725 -0.0485 -0.1484
17445SOL    HW156697   6.233   2.658   6.938  0.1255 -0.5363  0.8814
17445SOL    HW256698   6.117   2.742   6.988 -0.9457 -2.2118  1.2978
17446SOL     OW56699   8.491   1.692   7.757 -0.0920 -0.0834 -0.7660
17446SOL    HW156700   8.416   1.652   7.800 -0.0599  0.4486 -0.2198
17446SOL    HW256701   8.457   1.773   7.719 -0.1639 -0.6153 -1.9108
17447SOL     OW56702   2.529   5.003   5.516  0.2582  0.2114  0.1105
17447SOL    HW156703   2.624   5.018   5.513  0.2778  0.0498 -0.1048
17447SOL    HW256704   2.513   4.967   5.603  0.6181 -1.2209 -0.3846
17448SOL     OW56705   5.634   7.239   1.201 -0.3206  0.5893  0.6607
17448SOL    HW156706   5.723   7.276   1.195  0.0128  0.0412  1.9843
17448SOL    HW256707   5.589   7.274   1.124  0.7367  1.7029  0.5104
17449SOL     OW56708   9.050   1.737   3.327  0.2059  0.1509  1.1219
17449SOL    HW156709   9.113   1.684   3.278 -0.7981 -1.4535  1.4969
17449SOL    HW256710   9.006   1.789   3.260 -0.3967 -1.2288  0.3885
17450SOL     OW56711   5.651   9.435  10.150 -0.3285  0.6230  0.0027
17450SOL    HW156712   5.572   9.433  10.204  0.3341  0.6554  1.0043
17450SOL    HW256713   5.721   9.459  10.211  0.2831  1.7336 -1.0911
17451SOL     OW56714   2.979   0.609   9.669 -0.2242 -0.3735  0.3700
17451SOL    HW156715   3.018   0.693   9.693 -0.0828 -0.3876  0.1921
17451SOL    HW256716   2.889   0.630   9.644 -0.2745 -0.3153  0.6000
17452SOL     OW56717   3.477   1.148   6.507 -0.1142  0.2011 -0.0994
17452SOL    HW156718   3.443   1.078   6.563 -2.0920  1.4208  0.3162
17452SOL    HW256719   3.569   1.158   6.535  0.4454 -2.5986 -0.6311
17453SOL     OW56720   9.226   2.397  10.339 -0.7936  0.5669  0.3214
17453SOL    HW156721   9.236   2.386  10.433 -2.9584  2.0808  0.8147
17453SOL    HW256722   9.131   2.394  10.325 -0.4927 -0.1964 -1.9102
17454SOL     OW56723   6.278   2.465   4.610  0.2224 -0.5034  0.0752
17454SOL    HW156724   6.285   2.487   4.703  0.2651 -1.4113  0.3021
17454SOL    HW256725   6.227   2.384   4.609 -2.4320  1.0653 -0.8999
17455SOL     OW56726   6.687   1.149   5.186 -0.0787 -0.1402 -0.1256
17455SOL    HW156727   6.760   1.199   5.223  0.2504 -0.8179  0.1622
17455SOL    HW256728   6.677   1.074   5.244 -0.0870 -0.7983 -0.9501
17456SOL     OW56729   7.467   9.010   9.312 -0.0497 -0.1133 -0.1990
17456SOL    HW156730   7.514   9.069   9.254  0.8514  0.1954  0.8095
17456SOL    HW256731   7.485   8.922   9.278  0.4971  0.0601 -0.3632
17457SOL     OW56732   2.848   4.610   7.719 -0.9458 -0.1482 -0.0950
17457SOL    HW156733   2.803   4.528   7.696 -0.0363 -0.6343 -0.2094
17457SOL    HW256734   2.800   4.643   7.795 -2.8728  0.5267 -1.5296
17458SOL     OW56735   5.769   6.845   2.277 -0.1110 -0.5945 -0.1632
17458SOL    HW156736   5.734   6.930   2.248  1.4443  0.6188  1.3445
17458SOL    HW256737   5.862   6.850   2.258 -0.0728 -2.2283 -0.5604
17459SOL     OW56738  10.533   8.578   7.038  0.0067  0.3654  0.0992
17459SOL    HW156739  10.546   8.494   6.995  0.0137 -0.1134  1.0141
17459SOL    HW256740  10.543   8.559   7.132 -0.2944  1.3209  0.3355
17460SOL     OW56741   6.741   1.537   6.505 -0.4934 -0.4867  0.0552
17460SOL    HW156742   6.690   1.599   6.453  0.5856 -0.1711 -0.6709
17460SOL    HW256743   6.821   1.523   6.453 -0.2558 -1.6795  0.7065
17461SOL     OW56744   2.922   8.640   5.352  0.0804 -0.4467  0.4949
17461SOL    HW156745   2.829   8.652   5.337 -0.3270 -0.1532  2.8579
17461SOL    HW256746   2.964   8.684   5.278 -1.6269 -0.6846 -0.6673
17462SOL     OW56747   2.748   5.241   1.052  0.4178  0.3156  0.1005
17462SOL    HW156748   2.742   5.190   1.133 -1.8435 -2.0735 -1.4105
17462SOL    HW256749   2.800   5.186   0.993  2.3025  2.1623 -0.0788
17463SOL     OW56750   0.866   8.800   3.615 -0.3875  0.2047 -0.1642
17463SOL    HW156751   0.856   8.877   3.671 -1.6007  0.6561 -0.9749
17463SOL    HW256752   0.813   8.819   3.538  1.0213 -0.5357 -1.3531
17464SOL     OW56753   0.313   9.140   7.247  0.2128  0.1975  0.4712
17464SOL    HW156754   0.371   9.200   7.294 -0.3475  3.4293 -2.6066
17464SOL    HW256755   0.343   9.143   7.156 -2.0217 -1.5648 -0.4123
17465SOL     OW56756   6.674  10.678   6.741  0.2172  0.0364  0.2940
17465SOL    HW156757   6.675  10.593   6.784  0.0284  1.1749  2.6881
17465SOL    HW256758   6.767  10.699   6.728  0.2689 -1.3118 -2.1234
17466SOL     OW56759   4.881   7.894   7.701 -0.2872 -0.3390  0.1201
17466SOL    HW156760   4.837   7.853   7.776  3.2754 -2.7749  1.0897
17466SOL    HW256761   4.864   7.834   7.628 -1.5220  0.6609 -0.4625
17467SOL     OW56762   4.692   8.298  10.249 -0.0629 -0.2574  0.3429
17467SOL    HW156763   4.624   8.365  10.254  0.5520  0.3029  1.5632
17467SOL    HW256764   4.762   8.339  10.199  0.0308 -0.2476  0.4834
17468SOL     OW56765  10.606   2.770   5.274  0.3211 -0.0047  0.1161
17468SOL    HW156766  10.517   2.802   5.288 -0.6950 -1.2750 -2.7160
17468SOL    HW256767  10.632   2.808   5.190  1.8948 -0.8285  0.1976
17469SOL     OW56768   4.181   3.354   4.467  0.6139 -0.1209  0.1027
17469SOL    HW156769   4.262   3.355   4.418  0.5153 -1.2720 -0.1243
17469SOL    HW256770   4.139   3.438   4.448  0.6177 -0.4927 -1.7259
17470SOL     OW56771   3.602  11.110   5.525 -0.6515  0.4726 -0.1837
17470SOL    HW156772   3.539  11.182   5.525  0.1429  1.1962  0.1529
17470SOL    HW256773   3.685  11.152   5.501  0.4236  0.2687  2.7591
17471SOL     OW56774   5.245   1.892   5.271  0.3160  0.2019 -0.4477
17471SOL    HW156775   5.327   1.942   5.269  0.9364 -0.7180  0.4801
17471SOL    HW256776   5.183   1.950   5.316  0.9163  0.2914  0.2873
17472SOL     OW56777   0.893   6.312   9.861  0.0752 -0.0855  0.4743
17472SOL    HW156778   0.836   6.387   9.882 -0.0425 -0.1860  0.5155
17472SOL    HW256779   0.981   6.342   9.884 -0.0670 -0.2477  1.2664
17473SOL     OW56780   0.370   0.315   9.198 -0.4068 -0.1243  0.4877
17473SOL    HW156781   0.338   0.248   9.257 -0.1938  1.1318  2.1066
17473SOL    HW256782   0.455   0.341   9.234 -0.0538  0.3550 -0.6329
17474SOL     OW56783  10.181   7.122   9.125  0.5664 -0.9174  0.1950
17474SOL    HW156784  10.091   7.100   9.099  1.0327  0.4638 -3.0262
17474SOL    HW256785  10.225   7.146   9.043  3.3817  0.2557  1.8960
17475SOL     OW56786   0.533   6.619   6.922 -0.4913  0.0615 -0.1650
17475SOL    HW156787   0.483   6.672   6.984 -1.5282 -0.5160 -0.4826
17475SOL    HW256788   0.516   6.529   6.949  0.8666 -0.1422  0.0765
17476SOL     OW56789   5.856   5.816   0.698  0.0950  0.0687 -0.2233
17476SOL    HW156790   5.845   5.744   0.636  1.3580 -0.4917  0.1660
17476SOL    HW256791   5.851   5.895   0.644 -0.2552 -0.3400 -0.8114
17477SOL     OW56792   3.261  10.126   1.115 -0.3335 -0.5712  0.2756
17477SOL    HW156793   3.223  10.141   1.202  1.3752  0.8787  0.8411
17477SOL    HW256794   3.222  10.194   1.060 -0.1561 -0.4098  0.3453
17478SOL     OW56795   2.065   5.612   3.127  0.2886  0.2585 -0.3770
17478SOL    HW156796   2.155   5.635   3.105  0.7661 -0.9358  0.2724
17478SOL    HW256797   2.068   5.519   3.151 -0.6569  0.7608  2.0085
17479SOL     OW56798   7.225   6.805   7.680 -0.0692  0.7227 -0.3878
17479SOL    HW156799   7.256   6.888   7.644  0.8071  1.2244  1.3580
17479SOL    HW256800   7.267   6.801   7.767 -3.2113  0.3734  1.2466
17480SOL     OW56801   9.535   3.918   7.631 -0.4517  0.0140 -0.3903
17480SOL    HW156802   9.531   3.873   7.716  0.9473 -0.8402 -0.7366
17480SOL    HW256803   9.503   3.853   7.568  2.9931 -1.1992 -1.0997
17481SOL     OW56804  10.312   2.403   1.194 -0.5518 -0.3008 -0.6163
17481SOL    HW156805  10.383   2.436   1.139 -0.3161  0.5748  0.1925
17481SOL    HW256806  10.347   2.324   1.234  0.7110  1.1132  1.2443
17482SOL     OW56807   9.455  10.055   3.872 -0.3888 -0.1739  0.8678
17482SOL    HW156808   9.443   9.980   3.814  0.7987  1.6380 -1.9014
17482SOL    HW256809   9.550  10.063   3.883 -0.4443  1.3025  0.5279
17483SOL     OW56810   8.943  10.298  10.262 -0.1091 -0.5986 -0.4916
17483SOL    HW156811   8.902  10.215  10.237 -0.8527 -0.2203 -0.5762
17483SOL    HW256812   8.997  10.276  10.338 -0.5765 -1.1035 -0.2960
17484SOL     OW56813   2.373   6.679   4.124 -0.3404 -0.0604 -0.1070
17484SOL    HW156814   2.436   6.703   4.056  0.8132  2.2107  1.6338
17484SOL    HW256815   2.407   6.598   4.161 -0.4633 -0.7939 -1.5394
17485SOL     OW56816   5.843   6.994   6.349 -0.3918  0.3561 -0.2112
17485SOL    HW156817   5.876   6.937   6.279  1.3142  0.8952  0.0997
17485SOL    HW256818   5.897   6.971   6.425 -1.3162  0.7210  0.5668
17486SOL     OW56819   0.701   6.811   2.544 -0.3009  0.0370 -0.1295
17486SOL    HW156820   0.733   6.738   2.597 -0.1483 -1.1215 -1.7437
17486SOL    HW256821   0.702   6.886   2.603  2.0609 -0.6995  0.8590
17487SOL     OW56822  11.116   2.227  10.196 -1.0264  0.0633 -0.1284
17487SOL    HW156823  11.095   2.260  10.284  0.6261 -1.1032  0.7777
17487SOL    HW256824  11.058   2.152  10.184  0.7521 -1.6842  1.3513
17488SOL     OW56825   2.474  11.112   8.492 -0.4279  0.2820  0.3113
17488SOL    HW156826   2.567  11.136   8.485 -0.1353 -0.6252  0.8408
17488SOL    HW256827   2.475  11.027   8.536 -1.4985  0.0737 -0.0443
17489SOL     OW56828   0.971   2.148   1.992  0.1211  0.2186 -0.0433
17489SOL    HW156829   1.051   2.152   1.940  0.0421  0.0076 -0.1838
17489SOL    HW256830   0.959   2.055   2.011 -0.4768  0.1646 -0.6325
17490SOL     OW56831   6.358   7.913   3.577 -0.0948 -0.1792 -0.1642
17490SOL    HW156832   6.383   7.973   3.648 -1.8901  1.2245 -0.6136
17490SOL    HW256833   6.427   7.922   3.512 -0.7104  2.1853 -0.6060
17491SOL     OW56834   0.764   2.315   1.240  0.2834 -0.2284  0.4843
17491SOL    HW156835   0.841   2.371   1.251 -0.7172  1.0988  1.0013
17491SOL    HW256836   0.799   2.231   1.211  1.8963  0.4381  0.4142
17492SOL     OW56837   2.801   7.618   2.861 -0.0627 -0.5374  0.0326
17492SOL    HW156838   2.724   7.590   2.910  0.1719  0.1300  0.8066
17492SOL    HW256839   2.773   7.698   2.816  0.3409  0.0698  0.8259
17493SOL     OW56840   3.144   9.504   2.980  0.2312 -0.4344  0.1593
17493SOL    HW156841   3.071   9.507   3.043  0.2464 -1.1399  0.2211
17493SOL    HW256842   3.214   9.553   3.023 -0.8331  2.0567 -0.7674
17494SOL     OW56843   3.545   6.857   7.434 -0.1702 -0.3214 -0.0263
17494SOL    HW156844   3.471   6.802   7.410 -0.8710  0.1264  1.0104
17494SOL    HW256845   3.616   6.796   7.455 -0.7210 -0.8090  0.4361
17495SOL     OW56846   8.379   5.892   1.122  0.0888 -0.0617  0.3532
17495SOL    HW156847   8.411   5.967   1.171 -1.0820  1.0689 -0.5477
17495SOL    HW256848   8.338   5.836   1.188 -0.3693  0.8288  0.8383
17496SOL     OW56849   7.734   3.136   2.677  0.0602  0.3606  0.2536
17496SOL    HW156850   7.744   3.048   2.715 -0.2348  0.5901  0.8802
17496SOL    HW256851   7.821   3.161   2.648  0.3720  0.3521  1.1751
17497SOL     OW56852   4.508   8.470   6.340  0.3776  0.2256  0.6394
17497SOL    HW156853   4.586   8.497   6.292 -0.0459  1.1758  0.4687
17497SOL    HW256854   4.474   8.551   6.378  0.8571 -0.5332  2.8036
17498SOL     OW56855  10.256   1.977   8.362 -0.1617 -0.4371  0.0388
17498SOL    HW156856  10.274   1.944   8.273  1.7406 -1.5079  0.7487
17498SOL    HW256857  10.316   1.927   8.418 -1.3241  0.2121  1.9437
17499SOL     OW56858   1.943   5.584   8.360 -0.2168  0.0494  0.1154
17499SOL    HW156859   1.885   5.630   8.421  0.2905  0.5313  0.2414
17499SOL    HW256860   2.021   5.565   8.411  0.0480  0.0895 -0.2742
17500SOL     OW56861   4.646   0.900   3.900  0.4576  0.5166 -0.5806
17500SOL    HW156862   4.624   0.913   3.808 -0.9814 -1.3282 -0.5390
17500SOL    HW256863   4.582   0.954   3.947  1.0315  1.2583 -0.6302
17501SOL     OW56864   6.504   7.368   2.553  0.1866 -0.1066 -0.1875
17501SOL    HW156865   6.499   7.334   2.463 -0.4523  0.2029 -0.2758
17501SOL    HW256866   6.525   7.460   2.542 -1.2854  0.2635 -0.0884
17502SOL     OW56867   7.050   1.411   4.610  0.1741 -0.1190  0.3026
17502SOL    HW156868   6.992   1.369   4.673 -0.1316  1.2089  0.9367
17502SOL    HW256869   7.138   1.384   4.636  0.0484  0.4128  1.2920
17503SOL     OW56870  10.364  10.491   7.482  0.5906  0.3262 -0.0885
17503SOL    HW156871  10.375  10.445   7.399  2.7123 -1.0869  0.8707
17503SOL    HW256872  10.433  10.455   7.538 -0.5852  1.4300  2.2055
17504SOL     OW56873  10.530   1.901   7.943  0.2008  0.2232 -0.6090
17504SOL    HW156874  10.612   1.899   7.992 -0.4551  2.4287  0.7082
17504SOL    HW256875  10.554   1.935   7.857  0.8955 -0.8480 -0.8623
17505SOL     OW56876   5.067   4.690   1.351 -0.1256 -0.4300  0.1246
17505SOL    HW156877   5.154   4.657   1.332 -0.0133 -1.1733  1.6955
17505SOL    HW256878   5.027   4.707   1.266  0.1881 -3.7096 -0.8127
17506SOL     OW56879   6.890   9.412   6.216 -0.7804 -0.0446  1.1129
17506SOL    HW156880   6.823   9.388   6.152 -1.7385  0.7595  1.7705
17506SOL    HW256881   6.931   9.329   6.240 -0.9204 -0.4443  0.0366
17507SOL     OW56882   6.226   2.091   2.470  0.0273  0.4525 -0.0700
17507SOL    HW156883   6.205   2.062   2.381  0.9461 -0.0598 -0.1268
17507SOL    HW256884   6.310   2.049   2.490 -0.1269  0.6282  1.0062
17508SOL     OW56885   3.420   4.718   8.582 -0.8245 -0.3080 -0.1823
17508SOL    HW156886   3.475   4.760   8.648 -2.8425  0.8574  0.8501
17508SOL    HW256887   3.450   4.756   8.499 -0.0744  0.2741  0.3391
17509SOL     OW56888   1.911   3.878   9.845 -0.0428  0.2985 -0.4985
17509SOL    HW156889   1.978   3.882   9.777  1.0104 -1.7629  0.3138
17509SOL    HW256890   1.947   3.929   9.918 -0.7562  1.7375 -1.1368
17510SOL     OW56891   6.457   2.376   6.354 -0.1046  0.0571 -0.2337
17510SOL    HW156892   6.472   2.440   6.423  0.6772  1.1930 -1.4091
17510SOL    HW256893   6.529   2.389   6.293  1.0112 -3.0427  0.2134
17511SOL     OW56894   7.625  10.562  10.933 -0.0553  0.5373 -0.4321
17511SOL    HW156895   7.695  10.515  10.887  2.8484  0.2066  3.7256
17511SOL    HW256896   7.652  10.654  10.929  0.1260  0.5285  0.2978
17512SOL     OW56897   4.559   7.082   2.413 -0.3859  0.3282 -0.5756
17512SOL    HW156898   4.505   7.114   2.486  2.1753  0.6164  1.3274
17512SOL    HW256899   4.542   6.988   2.409 -2.7205  0.7076 -1.6259
17513SOL     OW56900   2.170  10.144   1.559  0.0996 -0.3604 -0.0383
17513SOL    HW156901   2.254  10.183   1.535  0.2822 -1.3419 -1.1031
17513SOL    HW256902   2.134  10.111   1.476 -1.9998  1.2402  0.1568
17514SOL     OW56903   1.496   4.004   4.346 -0.5430  0.4240  0.0685
17514SOL    HW156904   1.570   4.055   4.380  1.0054 -1.4576 -0.2705
17514SOL    HW256905   1.486   3.932   4.408 -1.4983  0.1405 -0.3936
17515SOL     OW56906   8.077  10.281   6.375  0.1121  0.4617 -0.5717
17515SOL    HW156907   8.117  10.224   6.441  1.6394  1.5065 -0.5205
17515SOL    HW256908   8.067  10.226   6.298  0.7474 -0.1072 -0.2603
17516SOL     OW56909   3.261   8.367   9.494 -0.0444  0.1466  0.1490
17516SOL    HW156910   3.211   8.287   9.475  0.2308 -0.8945  3.2380
17516SOL    HW256911   3.352   8.340   9.490  0.0576  0.3513  1.0712
17517SOL     OW56912  10.320  10.459  10.222  0.5245  0.0369 -0.0897
17517SOL    HW156913  10.377  10.535  10.230 -0.1815  0.4576  1.2666
17517SOL    HW256914  10.242  10.492  10.177 -0.1032  0.3356  1.1636
17518SOL     OW56915   9.101  10.371   8.501  0.1752  0.1460 -0.2704
17518SOL    HW156916   9.171  10.395   8.562  0.4347 -0.8536 -0.1529
17518SOL    HW256917   9.082  10.279   8.521  0.7051 -0.4079 -2.1019
17519SOL     OW56918   8.573   9.658   2.684  0.1208  0.1694 -0.8149
17519SOL    HW156919   8.557   9.737   2.737  1.4740 -0.0436 -0.0218
17519SOL    HW256920   8.487   9.617   2.676 -0.4221  1.1472 -0.2849
17520SOL     OW56921   8.455   8.862   0.778 -0.2022 -0.1044 -0.0533
17520SOL    HW156922   8.460   8.901   0.865  1.4328  0.9196 -0.5738
17520SOL    HW256923   8.474   8.933   0.718  0.3540 -1.1537 -1.1746
17521SOL     OW56924   0.398   5.780   9.421  0.9403  0.6508 -0.3617
17521SOL    HW156925   0.322   5.836   9.404  1.2545  1.2704  0.2112
17521SOL    HW256926   0.392   5.711   9.355 -0.2290  0.5729 -0.2077
17522SOL     OW56927   6.755   0.167   5.969  0.4228 -0.2589  0.3863
17522SOL    HW156928   6.739   0.221   6.046 -1.9785 -1.9703  1.2046
17522SOL    HW256929   6.712   0.213   5.898  1.2833  0.5269  0.3493
17523SOL     OW56930   4.362   6.252   4.037 -0.3084  0.4158  0.0253
17523SOL    HW156931   4.315   6.334   4.045  0.9184  1.4050 -2.0633
17523SOL    HW256932   4.408   6.258   3.953 -0.8814 -2.7780 -0.6674
17524SOL     OW56933   6.067   7.626   5.141  0.5397 -0.2380  0.2389
17524SOL    HW156934   5.975   7.645   5.124  0.5194 -1.5786 -1.4227
17524SOL    HW256935   6.067   7.537   5.175  1.0470  0.6879  2.8600
17525SOL     OW56936   1.971   8.584   2.951 -0.5227  0.2063  0.0077
17525SOL    HW156937   1.947   8.660   2.898 -3.0986 -0.2245  0.4270
17525SOL    HW256938   1.895   8.525   2.945  0.1241 -0.9594  2.1599
17526SOL     OW56939   1.236   7.440  10.247 -0.2664  0.1810  0.5543
17526SOL    HW156940   1.276   7.527  10.237 -0.2485  0.2297  1.0604
17526SOL    HW256941   1.311   7.380  10.249 -0.2901  0.1091 -0.1604
17527SOL     OW56942   7.111   5.593   3.893 -0.0517  0.2660 -0.7421
17527SOL    HW156943   7.180   5.548   3.941 -1.6383 -1.3338  0.1768
17527SOL    HW256944   7.119   5.559   3.803  1.0003  0.9279 -0.9166
17528SOL     OW56945   6.547  10.936   1.463  0.0468 -0.2978  0.1472
17528SOL    HW156946   6.593  10.884   1.529  0.5307  1.9854  1.7221
17528SOL    HW256947   6.554  11.026   1.494 -0.8847  0.7387 -2.3645
17529SOL     OW56948   8.882   1.776   8.927  0.2843 -0.0760  0.0098
17529SOL    HW156949   8.923   1.820   8.853  0.9031  0.0232  0.3967
17529SOL    HW256950   8.937   1.801   9.002  0.9505 -1.8799  0.1655
17530SOL     OW56951   0.573   7.177   0.734  0.1176 -0.1854  0.3157
17530SOL    HW156952   0.581   7.083   0.754  1.9524 -0.0880  0.1885
17530SOL    HW256953   0.608   7.221   0.811  1.9561  0.2997 -0.7334
17531SOL     OW56954   2.917   6.183  10.046  0.2768  0.1803  0.4125
17531SOL    HW156955   2.864   6.205  10.122 -1.8445 -2.0517 -0.2868
17531SOL    HW256956   2.897   6.252   9.982 -0.0225  0.5868  0.9338
17532SOL     OW56957   0.393   8.162   7.719 -0.1347 -0.0734 -0.1888
17532SOL    HW156958   0.409   8.076   7.680 -0.8478  0.7250 -2.3716
17532SOL    HW256959   0.332   8.205   7.659 -1.7364  1.0793  2.1191
17533SOL     OW56960  10.499  10.454   8.717  0.3133 -0.3588 -0.5573
17533SOL    HW156961  10.481  10.363   8.692 -2.3742 -0.1175  0.1544
17533SOL    HW256962  10.495  10.502   8.634 -2.2734 -0.4148 -0.5517
17534SOL     OW56963   6.517   2.823   3.425 -0.3164  0.0509 -0.2138
17534SOL    HW156964   6.488   2.914   3.421 -0.5288 -0.0114 -0.0934
17534SOL    HW256965   6.513   2.793   3.334 -1.0440 -0.0841 -0.1433
17535SOL     OW56966  10.176   5.132   1.099  0.4319 -0.0693  0.2529
17535SOL    HW156967  10.109   5.065   1.087  0.4184 -0.0611  0.2835
17535SOL    HW256968  10.132   5.214   1.073  1.2630 -0.3994 -2.5414
17536SOL     OW56969   4.533   3.419   8.036  0.0223  0.1959  0.2972
17536SOL    HW156970   4.471   3.351   8.060  0.3431 -0.5423 -0.8620
17536SOL    HW256971   4.480   3.499   8.031 -0.5797 -0.1771  0.5969
17537SOL     OW56972  10.222   7.253  10.644 -0.1591 -0.3408  0.2466
17537SOL    HW156973  10.261   7.340  10.650  1.8580 -1.1431 -0.1511
17537SOL    HW256974  10.183   7.238  10.731  0.1993  0.6278  0.5920
17538SOL     OW56975   7.985   3.494  10.123  0.1502 -0.0377 -0.0152
17538SOL    HW156976   7.924   3.421  10.117  1.7918 -1.3610 -1.8489
17538SOL    HW256977   8.001   3.504  10.217  0.1521 -2.2983  0.2805
17539SOL     OW56978   1.430   1.461   2.864 -0.0571 -0.2617  0.1870
17539SOL    HW156979   1.391   1.400   2.802  0.7369 -0.3566 -0.2279
17539SOL    HW256980   1.519   1.475   2.832  0.7747 -1.2220  1.9600
17540SOL     OW56981   9.035   8.229   6.904 -0.6076 -0.3177 -0.6248
17540SOL    HW156982   9.047   8.233   6.999 -2.9017 -1.5129 -0.2160
17540SOL    HW256983   9.031   8.135   6.884 -3.2842 -0.1266 -1.3786
17541SOL     OW56984   3.197   7.333   1.634  0.0467  0.3067 -0.4881
17541SOL    HW156985   3.200   7.253   1.581  0.3902 -0.2132  0.3078
17541SOL    HW256986   3.284   7.371   1.625 -0.4822  1.2737 -1.8707
17542SOL     OW56987   6.419   0.293   7.156  0.1558 -0.5694 -0.0666
17542SOL    HW156988   6.381   0.264   7.239 -0.1303 -0.3619 -0.1223
17542SOL    HW256989   6.436   0.212   7.108  0.0772 -0.6787  0.0885
17543SOL     OW56990   3.576   1.917   4.318 -0.2092 -0.3633 -0.3240
17543SOL    HW156991   3.622   1.871   4.388 -1.9313  1.7767  2.4559
17543SOL    HW256992   3.644   1.966   4.272  1.0233 -2.1668 -0.5218
17544SOL     OW56993   3.178   3.372   2.534  0.3891 -1.1971  0.3993
17544SOL    HW156994   3.143   3.283   2.531 -0.2006 -0.9462 -1.0347
17544SOL    HW256995   3.169   3.398   2.626  0.5612 -2.6048  0.8287
17545SOL     OW56996  10.391   8.876   9.504  0.9015 -0.2192  0.0640
17545SOL    HW156997  10.306   8.849   9.470  0.8597  1.4375 -1.2938
17545SOL    HW256998  10.384   8.972   9.511  2.1500 -0.1938  1.4102
17546SOL     OW56999   0.005   3.356   6.881  0.4122  0.2669  0.0001
17546SOL    HW157000   0.070   3.410   6.928  1.2954 -0.7966  0.0289
17546SOL    HW257001   0.057   3.300   6.824 -0.5055 -0.4785 -0.1188
17547SOL     OW57002   3.033   2.436   7.719 -0.1181 -0.1474 -0.8066
17547SOL    HW157003   2.985   2.500   7.667  0.8570  0.8428 -0.5324
17547SOL    HW257004   3.061   2.485   7.796 -0.3862 -1.2388  0.0035
17548SOL     OW57005   3.790   4.751   9.863  0.4373  0.5009  0.1756
17548SOL    HW157006   3.827   4.831   9.827  0.8058 -0.0925 -0.8253
17548SOL    HW257007   3.738   4.779   9.938  2.7707  1.3802  1.5624
17549SOL     OW57008   5.515   1.215   5.286  0.1387  0.3709 -0.2151
17549SOL    HW157009   5.505   1.247   5.376  2.4795 -0.5028  0.4502
17549SOL    HW257010   5.592   1.263   5.253  0.5968 -0.8496 -0.9672
17550SOL     OW57011   2.628   5.475   1.858  0.4419 -0.5360 -0.3337
17550SOL    HW157012   2.709   5.527   1.852 -0.6060  1.1802 -0.3320
17550SOL    HW257013   2.558   5.539   1.849 -0.9623 -1.6838  1.6547
17551SOL     OW57014   8.582   0.009   4.743 -0.2325  0.5232  0.7404
17551SOL    HW157015   8.577  -0.040   4.825 -1.8833 -2.0266 -0.7638
17551SOL    HW257016   8.675   0.005   4.718 -0.1468 -0.9619  1.1996
17552SOL     OW57017   7.544   8.039   4.938  0.0971  0.1618 -0.2336
17552SOL    HW157018   7.510   7.986   5.010  0.9509  0.3257  0.3054
17552SOL    HW257019   7.469   8.088   4.906 -0.1998  0.4236  0.8401
17553SOL     OW57020   7.222   6.169  10.262 -0.3331 -0.1937  0.1515
17553SOL    HW157021   7.170   6.093  10.289 -1.0958  0.6374  1.0594
17553SOL    HW257022   7.188   6.191  10.175  0.4072 -1.3199 -0.4592
17554SOL     OW57023   9.708   0.541   3.025 -0.4061 -0.3152  0.1869
17554SOL    HW157024   9.799   0.556   3.000 -0.4381  0.5382  0.5603
17554SOL    HW257025   9.709   0.539   3.121 -0.5095 -2.1430  0.1980
17555SOL     OW57026   5.397   6.324   2.246  0.2698 -0.0499 -0.6303
17555SOL    HW157027   5.453   6.286   2.179 -0.6525 -2.3064 -0.1953
17555SOL    HW257028   5.365   6.406   2.207 -0.1761 -1.2537 -2.9564
17556SOL     OW57029   9.182   5.260   4.487  0.1792  0.0206  0.3741
17556SOL    HW157030   9.201   5.174   4.524 -0.9222  0.0332  1.0143
17556SOL    HW257031   9.089   5.256   4.464  0.3566  0.7041 -0.5368
17557SOL     OW57032   7.310   9.477   2.687  0.1503  0.0059  0.0188
17557SOL    HW157033   7.321   9.458   2.594 -2.1844 -0.0240 -0.3193
17557SOL    HW257034   7.327   9.393   2.731 -0.2498 -0.3735 -0.5392
17558SOL     OW57035   3.586   8.362   6.060  0.2711 -0.0571 -0.2522
17558SOL    HW157036   3.626   8.276   6.060 -0.7073 -0.5482  1.1072
17558SOL    HW257037   3.530   8.363   6.138 -0.4307  1.4752 -0.7259
17559SOL     OW57038  10.352   8.302   0.854  0.4076  0.1246  0.2755
17559SOL    HW157039  10.395   8.348   0.926 -0.9220  1.2057  0.4155
17559SOL    HW257040  10.367   8.209   0.873  1.7888  0.4312  0.8383
17560SOL     OW57041   6.696   0.295   5.743  0.3012 -0.4360  0.5459
17560SOL    HW157042   6.702   0.308   5.648 -0.8550 -0.0186  0.5058
17560SOL    HW257043   6.680   0.383   5.777 -0.5669 -0.7535  0.9916
17561SOL     OW57044   5.039   4.200   4.279 -0.1747 -0.0552 -0.2017
17561SOL    HW157045   4.966   4.224   4.222 -0.6494 -1.3201 -0.1493
17561SOL    HW257046   5.041   4.270   4.345 -1.6916 -0.2592  0.1131
17562SOL     OW57047   5.399   4.878   9.740 -0.2006  0.1880  0.6276
17562SOL    HW157048   5.368   4.839   9.659 -0.2512  0.5026  0.4938
17562SOL    HW257049   5.319   4.911   9.783 -0.5216 -2.0931  1.9735
17563SOL     OW57050   9.078   6.019   7.922 -0.1785 -0.5691 -0.1894
17563SOL    HW157051   9.031   5.943   7.959 -0.5403 -0.3588 -0.2116
17563SOL    HW257052   9.033   6.035   7.839 -1.3140  0.8147  0.6514
17564SOL     OW57053   1.257   7.425   5.962  0.1527 -0.2518  0.2779
17564SOL    HW157054   1.246   7.465   5.876 -1.0458  0.8883  0.9221
17564SOL    HW257055   1.349   7.439   5.984 -0.1089  1.7264  0.2450
17565SOL     OW57056   8.124   3.097   2.131 -0.4344  0.4119  0.1488
17565SOL    HW157057   8.195   3.032   2.126 -0.1291  0.7105  0.5679
17565SOL    HW257058   8.047   3.051   2.097 -0.5313 -0.6161  1.6584
17566SOL     OW57059   3.778  11.085   9.381  0.2707  0.3217 -0.4089
17566SOL    HW157060   3.695  11.123   9.408 -0.3003 -0.4068 -1.0963
17566SOL    HW257061   3.816  11.150   9.322  0.3546  0.7971  0.1539
17567SOL     OW57062   5.883   4.085   6.596  0.1761  0.2708  0.2696
17567SOL    HW157063   5.827   4.008   6.591  0.5366 -0.0085  0.4253
17567SOL    HW257064   5.881   4.122   6.508  2.3229 -1.6008 -0.6957
17568SOL     OW57065   1.418   1.880   5.922  0.0794 -0.6794  0.2588
17568SOL    HW157066   1.370   1.808   5.962  0.5433 -0.8338  0.5449
17568SOL    HW257067   1.465   1.841   5.849 -2.0911 -0.1053 -1.5713
17569SOL     OW57068   1.671  10.303   7.028  0.0429 -0.1257  0.8787
17569SOL    HW157069   1.684  10.371   6.961  2.4285 -1.5904 -0.3058
17569SOL    HW257070   1.607  10.243   6.989 -0.0712  0.0674  0.7668
17570SOL     OW57071   0.467   9.458   5.337 -0.2841  0.1080  0.7312
17570SOL    HW157072   0.404   9.406   5.287 -0.5178 -0.0599  1.1929
17570SOL    HW257073   0.514   9.509   5.271 -0.2197 -0.5054  0.2915
17571SOL     OW57074   9.713   0.474   0.861 -0.0197  0.4227 -0.2677
17571SOL    HW157075   9.636   0.451   0.808  0.9405  0.7486 -1.8510
17571SOL    HW257076   9.763   0.392   0.868  0.1571  0.5230 -0.3657
17572SOL     OW57077   4.831   6.192   5.715  0.2566  0.1469  0.1598
17572SOL    HW157078   4.833   6.257   5.785  0.3400 -0.6906  0.9570
17572SOL    HW257079   4.912   6.142   5.726  0.2490 -0.0320 -0.5093
17573SOL     OW57080   8.211   1.293   8.584  0.2907  0.4823  0.0140
17573SOL    HW157081   8.262   1.261   8.659  0.3083 -0.3847 -0.3582
17573SOL    HW257082   8.133   1.238   8.582  0.7609 -0.1843 -1.1888
17574SOL     OW57083   0.313   8.586   2.428 -0.6923  0.2265 -0.5821
17574SOL    HW157084   0.255   8.592   2.503  0.6199  0.6849  0.4183
17574SOL    HW257085   0.310   8.493   2.403  0.2390 -0.3106  1.1794
17575SOL     OW57086   1.622   4.021   6.497 -0.0896 -0.1180 -0.2967
17575SOL    HW157087   1.651   4.104   6.533  0.9104 -0.7429  0.4062
17575SOL    HW257088   1.686   4.000   6.429  0.2845 -0.7859  0.2356
17576SOL     OW57089   1.831   7.467   3.856  0.3250 -0.6042 -0.0377
17576SOL    HW157090   1.866   7.546   3.897 -0.4314  0.1106 -0.7178
17576SOL    HW257091   1.866   7.395   3.908  0.8546  0.1874  0.7323
17577SOL     OW57092   7.188  10.587   1.201 -0.5121  0.4458  0.6441
17577SOL    HW157093   7.234  10.630   1.128  1.4460 -2.0312  0.2623
17577SOL    HW257094   7.235  10.616   1.279 -1.5162  1.7645  0.7792
17578SOL     OW57095   5.341   5.502   5.676 -0.0236 -0.3947  0.0158
17578SOL    HW157096   5.258   5.519   5.631 -1.0195  0.7583  2.1465
17578SOL    HW257097   5.323   5.427   5.732  0.4754 -0.3504  0.2368
17579SOL     OW57098  10.854   3.577   6.650 -0.1752  0.3839 -0.1381
17579SOL    HW157099  10.823   3.624   6.573 -1.0123 -1.1397 -0.7678
17579SOL    HW257100  10.914   3.638   6.693 -1.1058  1.9497 -0.9924
17580SOL     OW57101   3.401   1.260   5.435 -0.7206  0.2826  0.5162
17580SOL    HW157102   3.429   1.325   5.500 -3.3291 -0.7346  2.8556
17580SOL    HW257103   3.322   1.296   5.397 -0.4253 -0.1212 -0.5011
17581SOL     OW57104   2.019   8.757   3.499  0.4046  0.2652 -0.0165
17581SOL    HW157105   1.949   8.818   3.521  1.3428  1.0192  0.9598
17581SOL    HW257106   2.097   8.811   3.490  1.2356 -0.7473  0.7277
17582SOL     OW57107   9.727   9.891   6.967 -0.0911 -0.2286 -0.7259
17582SOL    HW157108   9.660   9.885   7.035  0.1463 -0.5268 -0.5154
17582SOL    HW257109   9.773   9.973   6.986 -0.3708 -0.0387 -0.8510
17583SOL     OW57110   8.992   2.567   2.266  0.2567 -0.0960 -0.5450
17583SOL    HW157111   8.967   2.518   2.344  1.7569  0.2098  0.1809
17583SOL    HW257112   8.918   2.559   2.207 -0.8685 -0.4579  0.8600
17584SOL     OW57113   3.868   3.735   3.059 -0.1208 -0.0118  0.1025
17584SOL    HW157114   3.823   3.654   3.083  0.2629 -0.3503 -0.3200
17584SOL    HW257115   3.940   3.707   3.002 -0.3113  0.6682 -0.4856
17585SOL     OW57116  10.099   9.695   1.634 -0.4683 -0.2832 -0.2476
17585SOL    HW157117  10.086   9.752   1.558 -0.4157  1.5768  1.0666
17585SOL    HW257118  10.084   9.752   1.710  1.4184 -1.5329  1.1720
17586SOL     OW57119   7.312  10.854   1.516 -0.3718 -0.4482 -0.0676
17586SOL    HW157120   7.389  10.910   1.510  0.2994 -1.3493 -0.0662
17586SOL    HW257121   7.271  10.879   1.599 -0.2095  0.1820 -0.1706
17587SOL     OW57122   0.509   3.304   7.656  0.0472  0.3295  0.1432
17587SOL    HW157123   0.458   3.385   7.650  0.0615  0.3297  0.0174
17587SOL    HW257124   0.448   3.240   7.693 -0.1597  0.2344 -0.3501
17588SOL     OW57125   5.396   0.347   6.095  0.6353  0.3598  0.0933
17588SOL    HW157126   5.397   0.353   6.191 -0.2001  1.7034  0.0475
17588SOL    HW257127   5.364   0.259   6.077  1.2973 -0.0973  1.0375
17589SOL     OW57128   2.331   0.604   5.763  0.1900  0.4435 -0.1567
17589SOL    HW157129   2.328   0.509   5.756  0.2749  0.5588 -2.9560
17589SOL    HW257130   2.259   0.626   5.823 -1.8914 -1.2568 -1.8535
17590SOL     OW57131   7.776   0.505   9.705 -0.2765  0.4230 -0.2461
17590SOL    HW157132   7.784   0.563   9.781  1.1479  1.4242 -1.1213
17590SOL    HW257133   7.696   0.454   9.722  0.1341  0.4405  2.0294
17591SOL     OW57134   8.509   3.749   3.099 -0.1465  0.5590 -0.4284
17591SOL    HW157135   8.441   3.707   3.152  0.9943  2.0665  2.4563
17591SOL    HW257136   8.462   3.817   3.050 -0.8030  1.5614  1.4943
17592SOL     OW57137   5.317   4.308   0.490  0.2107  0.0468 -0.2052
17592SOL    HW157138   5.222   4.315   0.496  0.1231 -1.0180 -0.1355
17592SOL    HW257139   5.348   4.335   0.576  0.1955  3.1259 -1.0355
17593SOL     OW57140   3.802   2.485   5.511 -0.0237  0.1924  0.0522
17593SOL    HW157141   3.791   2.572   5.472  0.2701 -0.0102 -0.4935
17593SOL    HW257142   3.726   2.474   5.568  0.6743  1.4004  1.2680
17594SOL     OW57143   2.523   5.329   6.071 -0.0962  0.3344 -0.5442
17594SOL    HW157144   2.469   5.402   6.042 -0.0266 -0.3523 -2.5425
17594SOL    HW257145   2.609   5.367   6.088 -0.5656  1.0251  0.3408
17595SOL     OW57146   9.018   3.592   9.144  0.7898 -0.8170 -0.1751
17595SOL    HW157147   8.981   3.505   9.158  2.2884 -1.5931 -0.7493
17595SOL    HW257148   9.026   3.600   9.049 -0.8204  0.6384 -0.2330
17596SOL     OW57149   9.508   7.137   7.013  0.2131 -0.1224 -0.2144
17596SOL    HW157150   9.451   7.083   7.067  1.2666  0.0133  1.0731
17596SOL    HW257151   9.472   7.225   7.021 -0.8951 -0.4140 -1.4961
17597SOL     OW57152   9.872   8.787   9.260  0.7194  0.1811  0.3956
17597SOL    HW157153   9.800   8.727   9.244 -0.1318  1.2351  0.1854
17597SOL    HW257154   9.866   8.809   9.353  0.9186  0.0782  0.4340
17598SOL     OW57155   4.354   9.438  10.658 -0.0886  0.9503 -0.3061
17598SOL    HW157156   4.300   9.485  10.722 -3.3412  0.9315 -2.7788
17598SOL    HW257157   4.355   9.348  10.690  0.6189  1.4019  1.0415
17599SOL     OW57158   8.979   8.295   9.700  0.3996  0.3897  0.1105
17599SOL    HW157159   8.955   8.364   9.638  0.7807 -0.9609 -1.6316
17599SOL    HW257160   9.072   8.278   9.681  1.0677  1.1987  2.3693
17600SOL     OW57161   7.739   5.190   3.106  0.1703  0.6695  0.1298
17600SOL    HW157162   7.693   5.214   3.187  0.6239  1.1186  0.2597
17600SOL    HW257163   7.819   5.148   3.135 -0.2886 -0.4011 -0.1002
17601SOL     OW57164   8.961   3.875   7.379 -0.6535  0.0423 -0.0823
17601SOL    HW157165   9.006   3.936   7.320 -2.3887  0.8809 -0.6223
17601SOL    HW257166   8.926   3.807   7.322  0.5062 -1.0074  0.4159
17602SOL     OW57167   1.833   3.201   9.560 -0.0006  0.2291 -0.5829
17602SOL    HW157168   1.894   3.261   9.517 -1.3347 -0.0328 -2.9857
17602SOL    HW257169   1.881   3.118   9.567  0.9291  0.8199  0.3603
17603SOL     OW57170   4.048   1.759   6.613 -0.2278 -0.4708  0.1488
17603SOL    HW157171   4.099   1.686   6.649 -0.9024 -0.9865  0.0834
17603SOL    HW257172   4.112   1.811   6.565  0.6659  0.0999  1.8452
17604SOL     OW57173   3.360   9.905   4.903 -0.2535 -0.1077 -0.5851
17604SOL    HW157174   3.371   9.981   4.960 -0.9458 -0.5215  0.1132
17604SOL    HW257175   3.349   9.831   4.963 -2.1596 -0.3933 -1.2376
17605SOL     OW57176  10.050   5.028   5.749  0.0912  0.0496 -0.0126
17605SOL    HW157177   9.988   5.085   5.704  0.3126 -0.0642 -0.4581
17605SOL    HW257178  10.045   5.056   5.841 -1.8421 -1.0588  0.2634
17606SOL     OW57179   3.812   6.987   1.449  0.5192 -0.5055 -0.1120
17606SOL    HW157180   3.785   6.994   1.358 -0.1269 -0.5544  0.0698
17606SOL    HW257181   3.883   7.050   1.458  0.3472 -0.2444 -0.5629
17607SOL     OW57182   8.405   2.756   6.207 -0.1002 -0.1670  0.1000
17607SOL    HW157183   8.384   2.757   6.114 -0.2669  1.1542  0.1341
17607SOL    HW257184   8.464   2.681   6.218  1.0348  0.4602 -1.3311
17608SOL     OW57185  10.345   0.383   5.849  0.0120 -0.0221  0.1002
17608SOL    HW157186  10.324   0.472   5.880  1.4006  1.1877 -2.1603
17608SOL    HW257187  10.374   0.337   5.928 -2.5364  0.8813  1.6935
17609SOL     OW57188   3.655   8.799   5.653  0.4546 -0.5757 -0.1911
17609SOL    HW157189   3.724   8.844   5.604  0.1082  2.8895  2.0918
17609SOL    HW257190   3.586   8.783   5.589  0.6563  2.2998 -1.2812
17610SOL     OW57191   6.409   4.385   1.261  0.2698 -0.0478 -0.2824
17610SOL    HW157192   6.320   4.415   1.281  1.1776  2.2544  0.6586
17610SOL    HW257193   6.443   4.353   1.345  0.1828 -1.4643 -0.7589
17611SOL     OW57194   5.556   4.065   9.218  0.1444 -0.4835  0.0022
17611SOL    HW157195   5.581   3.985   9.264 -0.4590 -1.1087 -0.7423
17611SOL    HW257196   5.600   4.059   9.133  2.1776  1.1915  0.8354
17612SOL     OW57197  10.840   3.028   7.903  0.0090 -0.0636  0.8033
17612SOL    HW157198  10.892   3.095   7.948  0.6541 -0.0443  0.0443
17612SOL    HW257199  10.866   2.946   7.946 -0.6947  0.1441  1.6534
17613SOL     OW57200   8.956   0.348   1.829 -0.4790  0.1644 -0.0001
17613SOL    HW157201   8.990   0.314   1.746  1.6532 -0.6437  1.1453
17613SOL    HW257202   9.016   0.419   1.852  1.2794 -2.0257  2.6503
17614SOL     OW57203  10.934   6.294   4.873  0.2812  0.1652  0.1076
17614SOL    HW157204  10.994   6.353   4.827 -1.6673  0.3519 -2.3920
17614SOL    HW257205  10.849   6.310   4.832 -1.1627 -1.3250  2.3263
17615SOL     OW57206  10.394   8.384   5.373 -0.1653  0.1157 -0.7643
17615SOL    HW157207  10.372   8.469   5.333 -2.5581  0.6539  1.3995
17615SOL    HW257208  10.312   8.334   5.369  0.1649 -0.6862  1.1612
17616SOL     OW57209   7.650   5.258   2.126  0.3417  0.0312  0.4363
17616SOL    HW157210   7.633   5.319   2.198  0.3117  1.0809 -0.4287
17616SOL    HW257211   7.582   5.191   2.136  0.2072  0.2743  1.2577
17617SOL     OW57212   0.191   2.440  10.143 -0.0785  0.3429  0.0104
17617SOL    HW157213   0.163   2.530  10.162 -2.0610 -0.2386  0.0703
17617SOL    HW257214   0.109   2.391  10.133  0.9573 -1.4239 -0.2369
17618SOL     OW57215   0.898   1.806   3.195  0.3771  0.3892 -0.0790
17618SOL    HW157216   0.977   1.766   3.158 -1.0538 -0.0851 -2.8571
17618SOL    HW257217   0.871   1.746   3.265  2.5509  0.6987  1.1072
17619SOL     OW57218   8.628   9.006   5.378  0.2441 -0.0466 -0.3187
17619SOL    HW157219   8.655   9.092   5.347  0.6409 -0.0518  0.0088
17619SOL    HW257220   8.575   9.024   5.456  1.3929 -0.1480  0.5091
17620SOL     OW57221   8.469   9.003   1.039  0.3591 -0.2030  0.1729
17620SOL    HW157222   8.431   9.091   1.043  0.5647 -0.1434  1.7012
17620SOL    HW257223   8.558   9.015   1.073  1.4913 -0.4969 -2.4691
17621SOL     OW57224   1.782   4.934   9.708  0.0828  0.3768  0.5354
17621SOL    HW157225   1.806   5.027   9.715  0.3254  0.3349  0.2587
17621SOL    HW257226   1.718   4.931   9.637  0.6294  0.2296  0.0429
17622SOL     OW57227   2.890   6.265   1.453 -0.1567  0.5965  0.0474
17622SOL    HW157228   2.814   6.324   1.452  0.0076  0.8104 -0.0665
17622SOL    HW257229   2.946   6.299   1.383 -0.5214 -0.3080 -0.6999
17623SOL     OW57230  10.856   7.195   0.785 -0.4290  0.1769  0.5141
17623SOL    HW157231  10.780   7.246   0.814 -0.5602  1.3169 -1.6300
17623SOL    HW257232  10.818   7.115   0.749 -0.5117  0.2099  0.5266
17624SOL     OW57233   0.942  10.716   5.500 -0.4980 -0.4122  0.1677
17624SOL    HW157234   0.920  10.730   5.408  3.3923 -0.4206 -0.9349
17624SOL    HW257235   0.998  10.638   5.500  3.7875  2.2809  1.5998
17625SOL     OW57236   4.597   9.857   5.419  0.6724 -0.3344  0.6834
17625SOL    HW157237   4.534   9.836   5.488  0.6078 -1.3864  0.3225
17625SOL    HW257238   4.656   9.782   5.416  0.7965 -0.2181 -0.2610
17626SOL     OW57239  10.581   2.017  10.379 -0.5954  0.1500  0.3580
17626SOL    HW157240  10.493   1.984  10.362  0.2872 -1.2459 -2.0282
17626SOL    HW257241  10.613   1.962  10.451 -1.5349  0.4920  1.0637
17627SOL     OW57242  10.804   4.221   1.631  0.6636  0.5424  0.6628
17627SOL    HW157243  10.822   4.271   1.552  1.9753 -0.0103  0.5942
17627SOL    HW257244  10.863   4.258   1.697 -0.6034  1.1807  1.4848
17628SOL     OW57245  10.455   1.469   2.765 -0.1465 -0.8777 -0.1016
17628SOL    HW157246  10.495   1.435   2.685 -0.3225  1.4219 -1.2422
17628SOL    HW257247  10.528   1.503   2.817 -0.2951  0.5451 -0.7882
17629SOL     OW57248   6.091   7.997   2.697  0.2832  0.6928 -0.2308
17629SOL    HW157249   6.161   7.957   2.645 -2.1278 -3.9533 -0.4557
17629SOL    HW257250   6.036   8.041   2.632  1.1434  1.4112 -0.4961
17630SOL     OW57251   8.991   0.816   2.633  0.4549 -0.6776 -0.2441
17630SOL    HW157252   8.929   0.848   2.698  0.4782 -1.5437  0.2184
17630SOL    HW257253   9.073   0.861   2.654 -0.0663  0.7267 -1.0659
17631SOL     OW57254   5.260   8.775   4.777 -0.0305  0.2904  0.1773
17631SOL    HW157255   5.287   8.684   4.788  1.2722  0.8311  1.8434
17631SOL    HW257256   5.168   8.776   4.805  0.0633 -0.4349  0.5387
17632SOL     OW57257   3.852   5.417   5.239 -0.1754 -0.0701 -0.0188
17632SOL    HW157258   3.869   5.435   5.146  1.8149  1.9663  0.6521
17632SOL    HW257259   3.757   5.401   5.243 -0.5194  1.0015 -2.2280
17633SOL     OW57260   3.302   3.511   7.889 -0.1915 -0.4566  0.6248
17633SOL    HW157261   3.353   3.578   7.935  1.4187 -1.5483  0.4986
17633SOL    HW257262   3.267   3.557   7.812 -0.2474  0.5666  1.2394
17634SOL     OW57263   6.652  10.342   3.411 -0.4236  0.2405 -0.3691
17634SOL    HW157264   6.683  10.412   3.353 -0.4876  1.4531  1.0060
17634SOL    HW257265   6.712  10.345   3.486 -1.0969 -0.4524  0.2097
17635SOL     OW57266   9.254   5.163   3.258 -0.5964 -0.1840 -0.0236
17635SOL    HW157267   9.233   5.224   3.187  1.2011  1.6945  0.9576
17635SOL    HW257268   9.318   5.103   3.220  1.5242  1.7412  0.3012
17636SOL     OW57269  10.863   4.443   3.202  0.8285  0.2565 -0.3424
17636SOL    HW157270  10.954   4.431   3.230  0.7796 -0.0560 -0.3087
17636SOL    HW257271  10.845   4.535   3.218  1.5555  0.6461 -1.5620
17637SOL     OW57272   8.080   1.864  10.922 -0.2810  0.3650  1.3446
17637SOL    HW157273   8.168   1.827  10.917 -0.5022 -0.0034 -1.5127
17637SOL    HW257274   8.023   1.797  10.885 -1.5952  1.0937  1.9666
17638SOL     OW57275   5.428   2.594   3.611 -0.0528 -0.4315 -0.1085
17638SOL    HW157276   5.384   2.649   3.546  1.0481  0.4207 -0.1607
17638SOL    HW257277   5.407   2.505   3.584 -0.0397 -0.0861 -1.3422
17639SOL     OW57278   7.140   4.306   7.533  0.5975 -0.0084 -0.5372
17639SOL    HW157279   7.154   4.266   7.618  0.0981  0.5813 -0.1700
17639SOL    HW257280   7.057   4.352   7.541  0.9150  0.6949 -1.0960
17640SOL     OW57281   8.795   8.889   6.946  0.5973 -0.6743 -0.3403
17640SOL    HW157282   8.763   8.820   6.888  1.9235 -0.1855 -1.7218
17640SOL    HW257283   8.851   8.844   7.008  0.8364 -0.9572 -0.7531
17641SOL     OW57284   8.549   6.638   7.274  0.0016  0.2882  0.0175
17641SOL    HW157285   8.461   6.651   7.310 -0.6149  1.4358 -1.7829
17641SOL    HW257286   8.535   6.599   7.188  1.2636  0.3513 -0.2440
17642SOL     OW57287   9.638   1.994   4.361  0.4982  0.1477 -0.6173
17642SOL    HW157288   9.657   1.929   4.428 -0.7107  0.7801  0.3788
17642SOL    HW257289   9.566   1.957   4.311  0.2680  0.4193 -0.4866
17643SOL     OW57290   9.475   5.556   3.758 -0.7691 -0.1120  0.0853
17643SOL    HW157291   9.539   5.550   3.829 -0.8040 -2.0883  0.0023
17643SOL    HW257292   9.423   5.475   3.765  0.0655 -1.0524 -2.9721
17644SOL     OW57293   0.320   5.801   2.676  0.3532 -0.3725 -0.2965
17644SOL    HW157294   0.407   5.772   2.705 -0.0767 -0.2538  1.1968
17644SOL    HW257295   0.328   5.896   2.667  0.6738 -0.4823 -1.2814
17645SOL     OW57296   0.965   1.977   5.987 -0.2740  0.2846  0.3448
17645SOL    HW157297   0.965   1.952   5.894 -2.0500  0.6611  0.1938
17645SOL    HW257298   0.937   1.899   6.033  1.9871 -0.3426  0.7687
17646SOL     OW57299  10.272   7.336   3.163 -0.6136  0.0292 -0.0579
17646SOL    HW157300  10.310   7.405   3.109 -1.5594  1.8324  1.4305
17646SOL    HW257301  10.343   7.274   3.177  1.0629  1.9556  0.4972
17647SOL     OW57302  10.960   7.375   4.273  0.5075 -0.4340  0.2638
17647SOL    HW157303  10.991   7.354   4.185  0.5791  0.9645 -0.0619
17647SOL    HW257304  10.927   7.292   4.307 -1.0069 -0.6990 -1.6716
17648SOL     OW57305   7.316   8.008   4.618 -0.2149 -0.5058  0.0636
17648SOL    HW157306   7.279   7.926   4.585  1.1004 -0.8084 -0.7812
17648SOL    HW257307   7.410   7.999   4.600  0.2754  0.2169  2.0739
17649SOL     OW57308   5.559   1.896   0.768 -0.6410  0.2697  0.0656
17649SOL    HW157309   5.647   1.916   0.737 -0.5167 -0.4683 -0.0888
17649SOL    HW257310   5.515   1.859   0.691  0.2532 -3.3921  1.1073
17650SOL     OW57311   6.883   8.660   9.973  0.3470  0.0311  0.7201
17650SOL    HW157312   6.947   8.671   9.903  0.2990  1.3136  0.8525
17650SOL    HW257313   6.878   8.746  10.015  0.9914 -0.9010  2.8486
17651SOL     OW57314   3.673   6.525   8.832 -0.3121  0.0130 -0.1518
17651SOL    HW157315   3.605   6.468   8.869 -0.1452 -1.1182 -1.5041
17651SOL    HW257316   3.754   6.475   8.841  0.1840  0.8936  0.4366
17652SOL     OW57317   1.841   7.438   0.085 -0.0147  0.8949  0.7770
17652SOL    HW157318   1.888   7.509   0.041 -0.9615  0.8277 -0.3896
17652SOL    HW257319   1.749   7.459   0.071 -0.3781 -1.7326 -1.6268
17653SOL     OW57320   2.905   4.911   1.842  0.3438  0.6205  0.1957
17653SOL    HW157321   2.850   4.955   1.907 -0.2246  0.5816 -0.2509
17653SOL    HW257322   2.843   4.877   1.778  0.7999 -0.5189  0.3376
17654SOL     OW57323   9.510   8.801   7.410 -0.0847  0.0539 -0.1430
17654SOL    HW157324   9.470   8.888   7.414 -2.0598 -0.8204  1.2977
17654SOL    HW257325   9.592   8.810   7.458 -1.1069  0.7809  1.5693
17655SOL     OW57326   1.537   2.176   3.447  0.2617 -0.2578  0.5631
17655SOL    HW157327   1.476   2.134   3.508 -0.0037 -0.3896  0.2133
17655SOL    HW257328   1.483   2.197   3.370 -0.1728  2.7331  1.5549
17656SOL     OW57329   9.173   8.519   3.920 -0.5502 -0.0514 -0.1918
17656SOL    HW157330   9.110   8.447   3.920 -1.7158  0.9240  0.9967
17656SOL    HW257331   9.119   8.598   3.925  0.7614  0.8327  0.4624
17657SOL     OW57332   7.305   3.878   3.294 -0.2832 -0.0380  0.1890
17657SOL    HW157333   7.331   3.927   3.216 -1.2402  0.1673 -0.0088
17657SOL    HW257334   7.214   3.851   3.276  0.1073 -1.6290  0.4046
17658SOL     OW57335   2.415   4.728   6.628 -0.1613  0.3225  0.5883
17658SOL    HW157336   2.444   4.690   6.545  0.8817 -0.3012  1.2124
17658SOL    HW257337   2.335   4.679   6.649 -0.1495  0.1281  0.2036
17659SOL     OW57338   3.057   6.632   6.613  0.4237  0.0706  0.1433
17659SOL    HW157339   2.984   6.634   6.551  1.4502  0.8973 -1.1121
17659SOL    HW257340   3.039   6.558   6.670 -1.7778  0.7090  0.3587
17660SOL     OW57341   5.147   5.775   0.401 -0.9141  0.2480  0.1688
17660SOL    HW157342   5.165   5.856   0.353  0.5279  0.3222  0.7838
17660SOL    HW257343   5.229   5.755   0.445 -2.1792  0.2422  2.7147
17661SOL     OW57344   0.541   6.249   1.043  0.0584  0.1144 -0.1247
17661SOL    HW157345   0.473   6.275   1.106 -0.8788  0.0182 -1.0588
17661SOL    HW257346   0.517   6.159   1.019  0.1336  0.3177 -0.9685
17662SOL     OW57347   1.811   7.413   9.668  0.2051 -0.6995 -0.0104
17662SOL    HW157348   1.827   7.326   9.705 -2.0862 -0.7033  1.1235
17662SOL    HW257349   1.862   7.472   9.724  3.5979 -1.3643 -2.1111
17663SOL     OW57350   7.093   2.099   3.220 -0.2300 -0.3113 -0.4014
17663SOL    HW157351   7.164   2.056   3.173 -0.7391 -0.2053 -1.3083
17663SOL    HW257352   7.032   2.126   3.151 -0.9465 -0.0337  0.3184
17664SOL     OW57353   2.278   7.342   7.404  0.2280  0.0159 -0.2278
17664SOL    HW157354   2.263   7.251   7.378  0.5132 -0.1905  0.2973
17664SOL    HW257355   2.207   7.361   7.465  0.4540 -0.0224  0.0504
17665SOL     OW57356   8.343   8.216   6.065  0.4836  0.6630 -0.0020
17665SOL    HW157357   8.342   8.200   6.159  0.7045  1.4521  0.1417
17665SOL    HW257358   8.326   8.130   6.026  0.6678  0.2740  0.7467
17666SOL     OW57359   8.891   5.774   7.564 -0.6131 -0.4071 -0.0453
17666SOL    HW157360   8.902   5.863   7.597 -0.2540 -0.6250  0.4441
17666SOL    HW257361   8.798   5.755   7.574 -0.9035  0.3074 -1.1936
17667SOL     OW57362   5.416   1.054   7.199 -0.0269  0.6238 -0.2871
17667SOL    HW157363   5.477   1.041   7.126  0.6959 -0.4784  0.5007
17667SOL    HW257364   5.455   1.007   7.272 -1.8418 -0.1240  0.2371
17668SOL     OW57365   2.087   8.387   2.530 -0.1403  0.0138  0.1662
17668SOL    HW157366   2.118   8.457   2.587  0.9311  0.2331 -0.6430
17668SOL    HW257367   2.079   8.429   2.444 -1.9295 -0.2518  0.1579
17669SOL     OW57368  10.957   2.269   1.333 -0.0351  0.5239  0.1981
17669SOL    HW157369  10.930   2.340   1.274 -2.1889 -0.5439 -0.2081
17669SOL    HW257370  10.889   2.268   1.400 -0.7935 -1.9439 -0.5246
17670SOL     OW57371   1.924   1.722   6.441  0.0774 -0.4693 -0.7213
17670SOL    HW157372   1.960   1.727   6.353 -1.0168 -1.9020 -1.2883
17670SOL    HW257373   1.979   1.658   6.487  0.4750  0.0692 -0.4303
17671SOL     OW57374   8.770   7.535   8.554  0.2585  0.3818  0.4212
17671SOL    HW157375   8.739   7.620   8.522  0.6154  1.4077  2.6094
17671SOL    HW257376   8.835   7.557   8.620  1.2758 -1.6535  0.1485
17672SOL     OW57377   9.867   2.864   9.364  0.3685  0.9186 -0.0746
17672SOL    HW157378   9.897   2.895   9.278 -0.2887  1.3798 -0.1420
17672SOL    HW257379   9.865   2.769   9.356  1.6409  0.8745 -0.1275
17673SOL     OW57380   3.095   7.991   8.925  0.2455 -0.1059  0.5175
17673SOL    HW157381   3.019   7.937   8.947  0.5657 -0.4343  0.8147
17673SOL    HW257382   3.077   8.023   8.837 -1.4333  1.8453  1.4689
17674SOL     OW57383   2.745   2.410   3.626  0.2867  0.0977 -0.3233
17674SOL    HW157384   2.714   2.498   3.604 -1.1777  0.3667  2.3629
17674SOL    HW257385   2.675   2.373   3.681  1.0215 -2.6418 -1.0870
17675SOL     OW57386  10.220   5.236   6.849 -0.3562 -0.2753  0.4654
17675SOL    HW157387  10.177   5.288   6.781  0.5626  1.8362  1.4013
17675SOL    HW257388  10.166   5.250   6.927 -0.2006 -0.8871  0.6837
17676SOL     OW57389   4.126   0.887   4.446  0.4391  0.0967  0.5187
17676SOL    HW157390   4.146   0.980   4.445 -0.5655  0.3195  0.0848
17676SOL    HW257391   4.129   0.861   4.354  0.8322 -0.3228  0.6486
17677SOL     OW57392   6.664   2.882   4.327  0.0022  0.3958  0.8619
17677SOL    HW157393   6.740   2.863   4.383  1.8758  2.7358 -0.6674
17677SOL    HW257394   6.675   2.823   4.253  1.4822  1.9500 -0.2382
17678SOL     OW57395   4.128   2.313   3.489  0.1897 -0.6542 -0.4530
17678SOL    HW157396   4.116   2.376   3.418 -2.2482 -2.1716 -1.4900
17678SOL    HW257397   4.196   2.353   3.544 -0.9844  2.7275 -1.2071
17679SOL     OW57398   4.589   2.236   2.845  0.0859 -0.3727  0.8066
17679SOL    HW157399   4.493   2.234   2.846  0.1029 -1.0209  1.7667
17679SOL    HW257400   4.615   2.193   2.926  1.1906  0.5309  0.9535
17680SOL     OW57401   6.925   9.676   9.111  0.6212  0.5802  0.1745
17680SOL    HW157402   6.999   9.637   9.064 -0.3046  0.0026 -0.8419
17680SOL    HW257403   6.913   9.762   9.071  0.0723  0.2390 -0.4158
17681SOL     OW57404   0.600   1.717  10.579  0.0878 -0.1905  0.4836
17681SOL    HW157405   0.604   1.683  10.668 -2.6348 -0.2724  0.6529
17681SOL    HW257406   0.664   1.665  10.530  0.9417 -0.7751  2.1585
17682SOL     OW57407   4.680   2.924   1.675  0.0904  0.3650 -0.6522
17682SOL    HW157408   4.707   2.844   1.629  0.0017  0.0798 -0.2145
17682SOL    HW257409   4.620   2.893   1.743 -0.6681  0.9065 -1.0741
17683SOL     OW57410   4.243   6.139  10.062 -0.2062 -0.1326  0.4166
17683SOL    HW157411   4.266   6.231  10.048  0.7800 -0.5046 -0.5363
17683SOL    HW257412   4.246   6.100   9.975 -0.5660 -1.0862  0.8227
17684SOL     OW57413   4.785   6.187   3.660  0.1037  0.5233 -0.2087
17684SOL    HW157414   4.722   6.222   3.597  0.5636  0.1516 -0.8793
17684SOL    HW257415   4.871   6.205   3.622  0.3808  0.0774  0.1885
17685SOL     OW57416   8.991   9.966   3.360  0.2736 -0.2334  0.2456
17685SOL    HW157417   8.918   9.907   3.379  0.4688 -0.2029  1.1295
17685SOL    HW257418   9.042   9.968   3.441  0.9147  0.2348 -0.1589
17686SOL     OW57419   1.523   8.530   3.433 -0.0908 -0.2899  0.1345
17686SOL    HW157420   1.445   8.522   3.379  0.6044 -2.4172 -0.6720
17686SOL    HW257421   1.590   8.481   3.385  1.8203  1.6293  0.6952
17687SOL     OW57422   0.597   9.346   1.012  0.3207  0.1499  0.0438
17687SOL    HW157423   0.644   9.395   0.944 -0.1369  2.7417  1.4625
17687SOL    HW257424   0.663   9.332   1.080 -0.2315  1.5032  0.9117
17688SOL     OW57425   1.286   0.323   1.159 -0.0996  0.1455 -0.1595
17688SOL    HW157426   1.366   0.284   1.124 -0.2177 -0.3069  0.0749
17688SOL    HW257427   1.282   0.292   1.249 -0.6843 -0.0573 -0.2530
17689SOL     OW57428   0.395  10.726   4.790 -0.7345 -0.5224 -0.2892
17689SOL    HW157429   0.358  10.811   4.768  0.6297  0.6269  1.5713
17689SOL    HW257430   0.354  10.702   4.874  1.5224  0.1392  1.1141
17690SOL     OW57431   4.271   5.970   2.680  0.6704  0.1333 -0.2192
17690SOL    HW157432   4.258   5.975   2.775 -0.9462  1.0209 -0.4458
17690SOL    HW257433   4.361   6.000   2.666 -0.3944  4.4237  0.7631
17691SOL     OW57434   8.772   9.627   9.449  0.0405  0.9166 -0.0719
17691SOL    HW157435   8.817   9.696   9.402  2.4196 -0.5441 -0.1080
17691SOL    HW257436   8.832   9.552   9.446 -2.2232 -1.0635  0.2729
17692SOL     OW57437   7.147   4.406   6.920  0.0762 -0.5292  0.6132
17692SOL    HW157438   7.070   4.463   6.928  0.7266  0.5079 -0.3192
17692SOL    HW257439   7.186   4.430   6.836  1.6012 -0.8383  1.2157
17693SOL     OW57440   8.589   4.810   2.664 -0.2289  0.1376 -0.1415
17693SOL    HW157441   8.592   4.905   2.653  1.8783  0.1783  0.4444
17693SOL    HW257442   8.499   4.793   2.693 -0.1938  2.1580  1.3995
17694SOL     OW57443   9.430   3.566   6.547 -0.2115  0.1964 -0.1253
17694SOL    HW157444   9.373   3.606   6.481 -0.5358 -2.4474 -1.5653
17694SOL    HW257445   9.518   3.571   6.509 -0.0073  0.8952  0.4096
17695SOL     OW57446   4.986   1.723   6.232 -0.0133 -0.5522 -0.3472
17695SOL    HW157447   5.004   1.709   6.139  1.5055 -2.8696  0.2179
17695SOL    HW257448   5.040   1.658   6.277 -0.3621  0.8014  2.2007
17696SOL     OW57449  10.053   8.454   4.300 -0.2634 -0.2434  0.0839
17696SOL    HW157450   9.990   8.398   4.346  0.5728  0.8306  2.7331
17696SOL    HW257451  10.135   8.404   4.301  0.2176  0.5242  1.5017
17697SOL     OW57452   0.486   3.360   4.243 -0.7215 -0.0674  0.5051
17697SOL    HW157453   0.413   3.310   4.280 -0.4072 -0.3644  0.7367
17697SOL    HW257454   0.552   3.294   4.223 -1.6945 -0.2095 -2.6579
17698SOL     OW57455   4.221   3.657   1.196 -0.1151 -0.6105  0.4824
17698SOL    HW157456   4.166   3.584   1.223  0.0875 -0.5461  1.0879
17698SOL    HW257457   4.309   3.633   1.227 -0.1280  0.0915  1.0832
17699SOL     OW57458   3.513   2.265   7.801  0.1272 -0.1987  0.1619
17699SOL    HW157459   3.474   2.349   7.826 -1.2611  0.0624 -2.5517
17699SOL    HW257460   3.448   2.199   7.828 -0.6505 -0.0391 -1.2398
17700SOL     OW57461  10.049  10.183   1.561  0.3438  0.6725 -0.5865
17700SOL    HW157462   9.966  10.227   1.580  1.9917  2.7647  2.4737
17700SOL    HW257463  10.109  10.254   1.537  2.1671 -0.2986  0.8667
17701SOL     OW57464   0.795  10.674   4.273 -0.1394 -0.5808  0.0027
17701SOL    HW157465   0.736  10.740   4.308  0.9071 -0.4118  1.5673
17701SOL    HW257466   0.883  10.709   4.289  0.4308 -2.0624  0.2863
17702SOL     OW57467   3.424   8.355   6.311  0.1257  0.5421  0.0517
17702SOL    HW157468   3.361   8.403   6.258  0.1985 -1.1844 -1.6934
17702SOL    HW257469   3.374   8.284   6.352  0.8878 -0.9350 -1.4662
17703SOL     OW57470   6.980   9.121  10.683  0.4336  0.9051 -0.3141
17703SOL    HW157471   6.959   9.188  10.748 -0.2108  0.8128 -0.4201
17703SOL    HW257472   6.974   9.038  10.732  1.4422  0.9372 -0.1304
17704SOL     OW57473   9.426   9.820   3.721 -0.4920  0.2354  0.0509
17704SOL    HW157474   9.377   9.760   3.777  0.0300  0.6269  0.9497
17704SOL    HW257475   9.432   9.774   3.637 -2.1675  0.0777 -0.0204
17705SOL     OW57476  10.471   4.009   5.632 -0.2960 -0.1387  0.0116
17705SOL    HW157477  10.408   4.049   5.572 -1.0144  0.1106  0.9048
17705SOL    HW257478  10.430   4.017   5.718  0.4902 -0.9315  0.4760
17706SOL     OW57479  11.027   0.635   0.743  0.2189  0.1371  0.2748
17706SOL    HW157480  10.959   0.584   0.699  2.4148 -1.6985 -1.2239
17706SOL    HW257481  11.078   0.571   0.792  2.1032  1.0683 -0.3494
17707SOL     OW57482   8.722   7.791   1.010 -0.3025  0.0907 -0.8517
17707SOL    HW157483   8.802   7.817   1.054  0.2145 -1.6986 -0.6579
17707SOL    HW257484   8.653   7.807   1.074  0.2434 -0.9189  0.0126
17708SOL     OW57485   7.046   8.722   9.162 -0.2432 -0.7626 -0.0624
17708SOL    HW157486   6.978   8.782   9.194 -0.4967 -1.6644  1.1727
17708SOL    HW257487   7.126   8.774   9.161 -0.2190 -0.6600  2.1204
17709SOL     OW57488   7.253  10.104   5.479 -0.0492  0.4373 -0.1923
17709SOL    HW157489   7.276  10.056   5.559  0.3235 -0.8053 -1.0054
17709SOL    HW257490   7.269  10.196   5.500  0.4673  0.0905  1.0146
17710SOL     OW57491   7.258   2.335   0.151 -0.1503  0.4577  0.3290
17710SOL    HW157492   7.302   2.385   0.083  0.0526 -0.4594 -0.2175
17710SOL    HW257493   7.289   2.374   0.233 -0.4688  1.6230 -0.0853
17711SOL     OW57494   4.177   8.398   0.812 -0.9819  0.7574 -0.4509
17711SOL    HW157495   4.103   8.420   0.755 -0.2225 -0.0737 -1.8016
17711SOL    HW257496   4.173   8.302   0.820 -1.3300  0.8717  1.3063
17712SOL     OW57497   1.766   8.954   2.072  0.1507 -0.2017 -0.1746
17712SOL    HW157498   1.861   8.959   2.063  0.1313 -1.1143 -1.2477
17712SOL    HW257499   1.749   8.862   2.092 -0.5363 -0.2014 -0.7032
17713SOL     OW57500   4.453   6.868  10.492 -0.0748 -0.0123 -0.4189
17713SOL    HW157501   4.469   6.851  10.399  1.5061 -1.9985  0.1494
17713SOL    HW257502   4.536   6.847  10.535 -1.0135  0.0848  1.5405
17714SOL     OW57503   6.915   3.412   3.429 -0.0688 -0.3402 -0.0284
17714SOL    HW157504   6.883   3.459   3.352 -0.5120 -1.5646 -0.6304
17714SOL    HW257505   6.841   3.410   3.489  0.2061  0.4190  0.3440
17715SOL     OW57506   6.511   0.181   9.868  0.3353 -0.4308  0.7049
17715SOL    HW157507   6.541   0.125   9.939  2.4882 -0.0228  0.1808
17715SOL    HW257508   6.442   0.130   9.825  1.1208 -1.9725  1.2074
17716SOL     OW57509   3.922   6.718  10.325  0.3360 -0.6771  0.3408
17716SOL    HW157510   3.984   6.780  10.287  0.7684 -0.7457  0.9211
17716SOL    HW257511   3.914   6.745  10.416 -0.2040 -0.9010  0.3635
17717SOL     OW57512   6.274   6.826   4.493  0.1671  0.0611 -0.3182
17717SOL    HW157513   6.329   6.768   4.440 -0.5640  0.3603 -1.4116
17717SOL    HW257514   6.326   6.907   4.500 -0.2453  0.4622 -1.6258
17718SOL     OW57515   9.861   0.720   9.948  0.3419  0.1470 -0.0444
17718SOL    HW157516   9.908   0.790   9.903  1.1487 -0.8724 -0.8278
17718SOL    HW257517   9.770   0.729   9.920  0.6217  0.2697 -0.9210
17719SOL     OW57518   8.363   4.968   1.776  0.3294  0.0839  0.0772
17719SOL    HW157519   8.380   4.931   1.863  2.6623 -0.5972 -0.5984
17719SOL    HW257520   8.282   4.926   1.748 -0.5287  0.3778  1.9262
17720SOL     OW57521   8.934   0.237   8.126 -0.0219  0.0494  0.4104
17720SOL    HW157522   8.964   0.275   8.043 -0.7777  0.7509  0.4369
17720SOL    HW257523   8.928   0.143   8.109 -1.4926  0.3156 -0.7841
17721SOL     OW57524   9.097   7.140   3.415 -0.3795 -0.2353 -0.7322
17721SOL    HW157525   9.021   7.098   3.456  1.0573  1.3483  4.2028
17721SOL    HW257526   9.156   7.068   3.394 -0.8181 -1.1779  1.0603
17722SOL     OW57527   9.352   0.717   2.524  0.0252 -0.6314 -0.9535
17722SOL    HW157528   9.267   0.674   2.519 -1.2239  1.5930 -0.3191
17722SOL    HW257529   9.391   0.686   2.606 -0.5939 -0.9485 -0.7811
17723SOL     OW57530   9.919   3.751   0.763 -0.1601  0.1092 -0.1406
17723SOL    HW157531   9.979   3.737   0.835 -0.6535 -1.0422  0.0622
17723SOL    HW257532   9.968   3.806   0.701  0.3628  0.8657  0.9144
17724SOL     OW57533  10.849   2.597   8.199  0.0593  0.2268 -0.2750
17724SOL    HW157534  10.906   2.657   8.247  0.4696  2.1913 -3.0250
17724SOL    HW257535  10.908   2.544   8.146 -0.4634 -0.9905  0.3037
17725SOL     OW57536  10.823   8.347   0.851  0.0291 -0.2328  0.0731
17725SOL    HW157537  10.858   8.263   0.882  0.5018  0.5464  1.8176
17725SOL    HW257538  10.894   8.410   0.867 -0.3878  0.5370 -1.0182
17726SOL     OW57539   3.549   7.829   7.955 -0.1640  0.4758  0.1230
17726SOL    HW157540   3.478   7.819   8.019  0.5007 -0.6424  0.7146
17726SOL    HW257541   3.559   7.741   7.918  1.9532  0.2140  1.1938
17727SOL     OW57542   6.346   6.677   0.580 -0.4477  0.4339  1.2220
17727SOL    HW157543   6.375   6.649   0.667 -0.5533 -0.2562  1.0359
17727SOL    HW257544   6.417   6.650   0.521  0.6127  2.7065  1.3169
17728SOL     OW57545   7.039   8.557   1.100 -0.2257  0.2775  0.2910
17728SOL    HW157546   6.954   8.518   1.120 -1.1890  2.4720  0.6929
17728SOL    HW257547   7.039   8.569   1.005  0.0366 -0.5242  0.1762
17729SOL     OW57548  10.150   0.983   5.087  0.0638 -0.0366  0.2688
17729SOL    HW157549  10.100   0.963   5.007  1.8825 -0.4714 -0.8127
17729SOL    HW257550  10.150   1.078   5.092 -1.3722 -0.0198  0.6673
17730SOL     OW57551   2.568   9.611   4.984 -0.4458 -0.0348 -0.4772
17730SOL    HW157552   2.493   9.670   4.985 -0.7797 -0.3854 -2.0646
17730SOL    HW257553   2.529   9.523   4.982 -0.0413 -0.2089 -2.0647
17731SOL     OW57554   6.559   1.266   8.010  0.2762  0.0364 -0.1928
17731SOL    HW157555   6.578   1.254   7.917 -1.2030 -1.0283 -0.3963
17731SOL    HW257556   6.560   1.178   8.046  0.6183  0.4203  0.7619
17732SOL     OW57557   2.748   6.484   2.574  0.2698  0.0179  0.6288
17732SOL    HW157558   2.781   6.532   2.498  2.0561 -1.5031  0.3520
17732SOL    HW257559   2.800   6.517   2.647  0.5268 -0.4893  0.6781
17733SOL     OW57560   7.015   3.575   6.448  0.0463  0.2746 -0.2487
17733SOL    HW157561   6.930   3.614   6.468 -0.4808 -0.4321 -1.0679
17733SOL    HW257562   7.001   3.481   6.459  0.3702  0.0460 -1.6146
17734SOL     OW57563   6.581   7.863   7.051 -0.6178 -0.1065 -0.1717
17734SOL    HW157564   6.583   7.955   7.076  0.2405 -0.3500  0.7106
17734SOL    HW257565   6.669   7.846   7.018 -0.0915 -1.1096  1.6190
17735SOL     OW57566  10.885   5.230   6.310 -0.2347  0.2160  0.8086
17735SOL    HW157567  10.897   5.218   6.216  1.0622  2.0417  0.6941
17735SOL    HW257568  10.806   5.178   6.330  0.4364 -1.6192 -0.9138
17736SOL     OW57569   4.404  10.988   1.861 -0.4886  0.1013  0.3141
17736SOL    HW157570   4.404  10.967   1.768 -0.1044  1.4086 -0.0061
17736SOL    HW257571   4.319  10.957   1.893 -0.1796 -1.3674 -0.2044
17737SOL     OW57572   5.812   5.366   1.487  0.1583  0.4067 -0.3016
17737SOL    HW157573   5.777   5.277   1.483  0.7112  0.2190 -1.5792
17737SOL    HW257574   5.848   5.375   1.575 -1.0276 -0.1860  0.2629
17738SOL     OW57575   9.945   9.109   5.493  0.2475 -0.3057  0.3052
17738SOL    HW157576   9.930   9.132   5.401 -1.7863 -1.8092  0.1839
17738SOL    HW257577   9.863   9.132   5.537  0.6797 -0.9096  1.4754
17739SOL     OW57578   2.014   9.769   0.597 -0.1365  0.8946 -0.2826
17739SOL    HW157579   2.101   9.739   0.624  0.2040  0.4568 -1.7976
17739SOL    HW257580   2.000   9.849   0.648  0.3062 -0.0487  1.4348
17740SOL     OW57581   9.809   1.980   7.735  0.0635  0.3520 -0.0626
17740SOL    HW157582   9.725   2.001   7.776 -1.5653  0.7252 -3.2887
17740SOL    HW257583   9.811   1.885   7.731 -1.6668  0.3285 -2.4770
17741SOL     OW57584  10.784   6.416   0.593  0.3685 -0.5371  0.3933
17741SOL    HW157585  10.860   6.367   0.563 -0.6214 -0.8843 -1.6567
17741SOL    HW257586  10.799   6.505   0.561  0.2994 -0.4066  0.7165
17742SOL     OW57587  10.603   8.006   3.210  0.3544  0.3827  0.1844
17742SOL    HW157588  10.636   8.060   3.139  1.1057 -0.5332 -0.1951
17742SOL    HW257589  10.679   7.954   3.238 -0.4437 -0.8399  0.1716
17743SOL     OW57590   5.310   9.104  10.277  0.1745  0.0539  0.1372
17743SOL    HW157591   5.256   9.030  10.251  0.0755  0.0727  0.2887
17743SOL    HW257592   5.389   9.065  10.314  0.2244  0.0252  0.0018
17744SOL     OW57593   5.478   7.160   3.056  0.3850 -0.0745  0.2015
17744SOL    HW157594   5.397   7.124   3.022  0.2365  0.2817  0.1771
17744SOL    HW257595   5.451   7.217   3.128  0.3595  2.2496 -1.5415
17745SOL     OW57596   4.945   9.627   4.724  0.3859  0.7910  0.2525
17745SOL    HW157597   5.007   9.698   4.711 -1.1689  2.3100  0.7293
17745SOL    HW257598   4.954   9.603   4.817  0.3059  0.9593  0.3033
17746SOL     OW57599   5.014   4.643  10.731  1.0651 -0.2815 -0.3463
17746SOL    HW157600   5.081   4.673  10.669  0.8741 -1.7917 -1.3222
17746SOL    HW257601   4.953   4.716  10.737 -0.0019 -0.7380 -3.5333
17747SOL     OW57602   6.018  10.233   9.503 -0.0286  0.2459  0.1538
17747SOL    HW157603   5.997  10.229   9.596 -1.6452 -1.2616 -0.2371
17747SOL    HW257604   5.953  10.292   9.466 -1.8628 -2.1146 -0.5821
17748SOL     OW57605   8.203   5.643  10.985  0.3042  0.3678 -0.2909
17748SOL    HW157606   8.139   5.584  11.024  1.2442 -0.0959  0.5854
17748SOL    HW257607   8.282   5.591  10.975  1.6568  1.8103  1.9343
17749SOL     OW57608   1.985   3.900   3.265 -0.0836  0.5605 -0.7767
17749SOL    HW157609   2.022   3.822   3.307 -0.3342 -0.3059 -2.1179
17749SOL    HW257610   2.061   3.955   3.245  0.0884  0.7151  0.2288
17750SOL     OW57611   1.159   7.642   5.813 -0.6643 -0.6880 -0.0213
17750SOL    HW157612   1.091   7.682   5.868  0.7501 -0.0826  1.3427
17750SOL    HW257613   1.188   7.712   5.755 -1.3068 -1.0053 -0.7564
17751SOL     OW57614   8.591   7.214  10.739  0.2794 -0.0380  0.2446
17751SOL    HW157615   8.663   7.152  10.749 -0.1407 -0.4565  0.7567
17751SOL    HW257616   8.619   7.291  10.790  0.9356  0.3315 -0.6478
17752SOL     OW57617   9.971   8.141   1.702 -0.6586  0.3644 -0.0710
17752SOL    HW157618  10.056   8.112   1.737  0.3356  2.7106 -0.3399
17752SOL    HW257619   9.923   8.060   1.687  0.8155 -0.9778  1.8489
17753SOL     OW57620   1.184   4.902   4.476  0.3944  0.5805  0.4235
17753SOL    HW157621   1.159   4.993   4.491  0.8757  0.4186  2.5526
17753SOL    HW257622   1.213   4.870   4.562  1.5433 -1.1820 -0.5400
17754SOL     OW57623   2.923   7.618   5.233  0.2487 -0.2695  0.2926
17754SOL    HW157624   2.898   7.680   5.301  0.0279 -0.5427  0.4618
17754SOL    HW257625   2.900   7.662   5.151  0.0536 -0.1432  0.4152
17755SOL     OW57626   1.828   8.861   7.736 -0.1758  0.4341 -0.0404
17755SOL    HW157627   1.850   8.901   7.820 -1.0166  0.6373  0.0977
17755SOL    HW257628   1.845   8.768   7.748 -1.7262  0.2343  0.8783
17756SOL     OW57629   1.337   7.598   0.995 -0.7653 -0.0517 -0.0281
17756SOL    HW157630   1.260   7.543   1.009 -0.9996  0.0060 -1.0699
17756SOL    HW257631   1.404   7.537   0.964 -0.2211 -0.1920  1.3633
17757SOL     OW57632   8.606   7.235   1.428  0.2081  0.5287  0.1436
17757SOL    HW157633   8.533   7.283   1.390  1.1978  0.4869 -1.9741
17757SOL    HW257634   8.654   7.300   1.479  0.2798  1.2569 -0.8340
17758SOL     OW57635   4.390   4.882   6.730 -0.1922  0.0803  0.0479
17758SOL    HW157636   4.319   4.907   6.788 -0.2788  1.5034 -0.6516
17758SOL    HW257637   4.357   4.899   6.642  0.8796  0.4341 -0.3003
17759SOL     OW57638   9.462   4.808   3.821 -0.1298  0.5612  0.3905
17759SOL    HW157639   9.406   4.790   3.896 -0.3385 -0.0395  0.0958
17759SOL    HW257640   9.403   4.844   3.755 -0.0417  0.5945  0.3290
17760SOL     OW57641   4.892   1.249   2.421 -0.0163 -0.2061 -0.0938
17760SOL    HW157642   4.923   1.291   2.341 -0.6636 -1.2734 -0.9342
17760SOL    HW257643   4.969   1.204   2.456 -0.2794 -1.9512 -1.5947
17761SOL     OW57644   8.411   3.573   8.427  0.1236 -0.6188  0.1596
17761SOL    HW157645   8.488   3.590   8.481 -0.4541  0.8515  0.5938
17761SOL    HW257646   8.350   3.528   8.486 -0.0855 -0.0033  0.4270
17762SOL     OW57647  10.968   8.093   5.590  0.3750  0.9905 -0.0697
17762SOL    HW157648  10.880   8.113   5.620  0.1149 -1.6262  1.1969
17762SOL    HW257649  10.957   8.070   5.498 -0.3798  0.2708  0.1841
17763SOL     OW57650   6.194   4.198   1.767  0.2000 -0.4493 -0.5647
17763SOL    HW157651   6.153   4.284   1.755  2.4348  0.7376 -0.3342
17763SOL    HW257652   6.201   4.188   1.862 -1.1070 -1.4634 -0.5552
17764SOL     OW57653   1.328   5.632   4.415 -0.2714  0.2312 -0.0564
17764SOL    HW157654   1.423   5.622   4.410 -0.4883 -1.7791 -0.9946
17764SOL    HW257655   1.313   5.726   4.398  1.5317  0.6138  0.3029
17765SOL     OW57656   4.103   7.748   2.065 -0.3549 -0.1580  0.0842
17765SOL    HW157657   4.146   7.767   2.148  1.2247 -0.7462 -0.5533
17765SOL    HW257658   4.080   7.834   2.029 -0.4089  0.1297  0.8004
17766SOL     OW57659   4.776  10.348   5.821 -0.0960 -0.0317 -0.0136
17766SOL    HW157660   4.786  10.283   5.890 -1.4148  0.3004  0.5417
17766SOL    HW257661   4.719  10.415   5.860  0.4200  0.9500 -0.8992
17767SOL     OW57662  10.858   7.138   4.337  0.0940 -0.2449  0.2699
17767SOL    HW157663  10.791   7.143   4.270 -0.1336  0.1220  0.5149
17767SOL    HW257664  10.918   7.069   4.308  0.2561  0.2283 -0.5373
17768SOL     OW57665   2.091   1.145   4.871 -0.4884  0.0519  0.4205
17768SOL    HW157666   2.126   1.078   4.812  1.2712  0.9818  0.3637
17768SOL    HW257667   2.067   1.097   4.950  1.0421 -0.6285  0.4992
17769SOL     OW57668   9.851   4.325   0.072  0.4113  0.4217  0.2145
17769SOL    HW157669   9.871   4.251   0.129 -2.2302  0.4094  1.2952
17769SOL    HW257670   9.912   4.317  -0.001  1.9463 -1.2623  1.5930
17770SOL     OW57671   0.948   4.352   1.530 -0.2773  0.4576  0.0165
17770SOL    HW157672   0.941   4.417   1.460  1.7259 -0.9967 -1.6826
17770SOL    HW257673   1.031   4.374   1.574 -0.7776  0.4503  0.9885
17771SOL     OW57674   0.913   4.220   7.976 -0.3247  0.2780 -0.2985
17771SOL    HW157675   0.960   4.189   7.899 -0.8586  0.8610 -0.8661
17771SOL    HW257676   0.908   4.143   8.034  2.1079  0.4137  0.1985
17772SOL     OW57677   5.907   8.442   3.522 -0.4091  0.4278  0.3637
17772SOL    HW157678   5.841   8.385   3.483 -0.7688 -0.3792  2.0415
17772SOL    HW257679   5.975   8.451   3.455 -0.0796 -2.4365  0.1865
17773SOL     OW57680   7.795   3.489   2.682  0.4588  0.3368  0.2901
17773SOL    HW157681   7.787   3.395   2.699  1.1914  0.3893  0.9919
17773SOL    HW257682   7.714   3.526   2.715 -1.0924 -0.3317 -2.4781
17774SOL     OW57683   6.020   0.715   2.554 -0.1975 -0.1539 -0.0163
17774SOL    HW157684   6.021   0.791   2.613 -1.9621  1.8204 -2.2860
17774SOL    HW257685   6.108   0.712   2.517  0.3101 -0.1214  1.1604
17775SOL     OW57686   8.229   5.428   7.832  0.1271 -0.0946 -0.5603
17775SOL    HW157687   8.223   5.378   7.913 -2.0085  0.1317 -0.5191
17775SOL    HW257688   8.281   5.373   7.773 -0.0160 -1.1866  0.3133
17776SOL     OW57689   7.127   5.101   4.480  0.6082  0.4928 -0.0708
17776SOL    HW157690   7.104   5.106   4.573 -1.9824  1.3695 -0.6643
17776SOL    HW257691   7.218   5.074   4.479  0.7323  0.5256  2.7268
17777SOL     OW57692   6.068   2.454   8.870 -0.0867 -0.3525 -0.4314
17777SOL    HW157693   6.057   2.542   8.835 -1.0253 -0.3637 -0.1967
17777SOL    HW257694   6.012   2.452   8.948 -0.0227 -1.1312 -0.3988
17778SOL     OW57695   1.430   0.868   0.823  0.3109  0.5420  0.2227
17778SOL    HW157696   1.419   0.876   0.728  1.4831  1.2375  0.1208
17778SOL    HW257697   1.525   0.864   0.835  0.1408 -0.9985  1.2732
17779SOL     OW57698  10.622   4.456  10.176 -0.4915 -0.4310  0.1996
17779SOL    HW157699  10.707   4.411  10.183  0.5345  1.2144 -0.9499
17779SOL    HW257700  10.565   4.395  10.131  0.3942 -1.1865  0.0850
17780SOL     OW57701   5.033   5.625   2.848  0.0867 -0.1659  0.5870
17780SOL    HW157702   4.958   5.669   2.807 -0.3779 -0.5815  0.9615
17780SOL    HW257703   5.068   5.689   2.909  1.0025  0.5823 -0.6933
17781SOL     OW57704   8.586   5.090   2.110 -0.5930  0.2577  0.1004
17781SOL    HW157705   8.566   4.997   2.100 -1.8575  0.2823  1.7286
17781SOL    HW257706   8.681   5.094   2.120 -0.2532 -0.5634 -2.2760
17782SOL     OW57707   3.639   6.469   0.801 -0.5832 -0.0529  0.3324
17782SOL    HW157708   3.714   6.525   0.822 -0.1680 -0.8772  1.1486
17782SOL    HW257709   3.599   6.450   0.886 -1.2004 -0.3312 -0.0117
17783SOL     OW57710   6.989   5.819   7.383 -0.4025  0.1299  0.1387
17783SOL    HW157711   7.011   5.907   7.355 -2.0073  0.9071  1.1302
17783SOL    HW257712   7.021   5.814   7.474 -2.8718  0.8045  1.1232
17784SOL     OW57713   7.291   5.444   7.168 -0.2057  0.5377 -0.0322
17784SOL    HW157714   7.278   5.453   7.073 -0.6227 -1.9418 -0.2642
17784SOL    HW257715   7.218   5.492   7.207 -2.6477 -2.0513 -1.1055
17785SOL     OW57716   9.975   5.638   4.893  0.3431  1.3285 -0.1220
17785SOL    HW157717  10.024   5.558   4.912  0.2591  1.6185  1.5242
17785SOL    HW257718   9.969   5.642   4.798  0.6686 -0.4247 -0.2359
17786SOL     OW57719   7.594  10.503   9.546 -0.1254 -0.1548  0.2371
17786SOL    HW157720   7.514  10.498   9.599 -0.5207 -1.9229 -0.4402
17786SOL    HW257721   7.645  10.427   9.574 -1.1594 -2.3148 -3.0254
17787SOL     OW57722  10.168   2.199   6.508  0.1379 -0.0344 -0.4975
17787SOL    HW157723  10.152   2.106   6.488 -1.6889 -0.5269  2.6260
17787SOL    HW257724  10.084   2.241   6.493  0.2260  0.5731  0.6492
17788SOL     OW57725   9.724   1.033   2.468  0.3271  0.1894  0.3423
17788SOL    HW157726   9.665   0.959   2.479 -0.0007  0.3945 -0.0209
17788SOL    HW257727   9.798   0.999   2.417 -0.3042  0.3568 -0.7126
17789SOL     OW57728   5.719   6.252   1.549 -0.1029  0.3438  0.5422
17789SOL    HW157729   5.787   6.315   1.574 -1.2799  1.8804  0.0034
17789SOL    HW257730   5.723   6.185   1.618  0.9243  1.1966  1.3571
17790SOL     OW57731  10.138  11.109   2.498  0.4605  0.4458  0.0407
17790SOL    HW157732  10.205  11.107   2.430  1.3053 -0.7344  0.8516
17790SOL    HW257733  10.060  11.073   2.456  0.6462  0.7974 -0.6130
17791SOL     OW57734   9.487   5.813   0.069 -0.3022  0.3396 -0.2740
17791SOL    HW157735   9.567   5.853   0.104 -0.3361 -0.0440  0.2605
17791SOL    HW257736   9.423   5.884   0.067 -0.4734  0.2517  1.0146
17792SOL     OW57737  10.860   5.659   8.547  0.0170 -0.0688 -0.4225
17792SOL    HW157738  10.788   5.603   8.516  0.6511 -0.3522 -1.4572
17792SOL    HW257739  10.891   5.616   8.627 -0.3948 -0.4279 -0.4503
17793SOL     OW57740   9.409   7.919   7.686  0.2520  0.5823 -0.1045
17793SOL    HW157741   9.404   7.860   7.611  1.0841 -0.0343  0.3081
17793SOL    HW257742   9.320   7.953   7.695 -0.2566 -0.6289 -0.3384
17794SOL     OW57743   1.196   1.065   4.722 -0.4178 -0.0203  0.7074
17794SOL    HW157744   1.287   1.047   4.745 -0.3963  0.1261  0.7378
17794SOL    HW257745   1.159   1.104   4.801 -0.7862 -1.0310  1.0513
17795SOL     OW57746   9.494   4.173   4.842  0.1991 -0.1295  0.1412
17795SOL    HW157747   9.416   4.181   4.786  0.4727 -1.0986 -0.4164
17795SOL    HW257748   9.525   4.262   4.853 -1.5349  0.3979  1.1770
17796SOL     OW57749  11.087   1.610  10.854 -0.6996  0.5142 -0.9293
17796SOL    HW157750  11.113   1.555  10.928 -1.3175  1.7710  0.2743
17796SOL    HW257751  11.150   1.682  10.853 -1.0792  0.8517 -1.2084
17797SOL     OW57752   7.223   8.360   4.358  0.3798 -0.5481 -0.0877
17797SOL    HW157753   7.186   8.295   4.298 -0.6364 -0.1003  0.0374
17797SOL    HW257754   7.221   8.442   4.309 -0.1269 -0.2467  0.4262
17798SOL     OW57755   3.770   2.510   1.742  0.4747  0.7160  0.3505
17798SOL    HW157756   3.718   2.487   1.820 -0.0404 -0.7877 -0.3997
17798SOL    HW257757   3.852   2.461   1.753  1.2358  2.0677  0.8959
17799SOL     OW57758   5.324  10.579   4.582 -1.1035  0.1142  0.0014
17799SOL    HW157759   5.407  10.610   4.546 -0.9164 -0.2148  0.1439
17799SOL    HW257760   5.346  10.546   4.669 -1.2899 -0.4692 -0.1697
17800SOL     OW57761   4.491   6.919   8.753  0.2991  0.2692  0.3179
17800SOL    HW157762   4.463   6.844   8.806  0.2684  0.0496 -0.0080
17800SOL    HW257763   4.584   6.904   8.737  0.3352  0.3966  0.4063
17801SOL     OW57764   4.021   9.962   9.880 -0.3019 -0.4128  0.1267
17801SOL    HW157765   4.083  10.033   9.866  0.2447 -0.6697  1.1278
17801SOL    HW257766   3.957   9.970   9.809  0.4948  0.2719 -0.5220
17802SOL     OW57767  10.631   7.423   3.096 -0.6260 -0.2948 -0.2040
17802SOL    HW157768  10.661   7.513   3.086 -1.5364 -0.0137 -0.5782
17802SOL    HW257769  10.614   7.414   3.190 -1.4970  0.2669 -0.2916
17803SOL     OW57770   4.433   0.900   8.200 -0.7667 -0.4493  0.4633
17803SOL    HW157771   4.522   0.935   8.188 -0.6561 -0.8057  0.2372
17803SOL    HW257772   4.392   0.960   8.262  0.2833 -1.4120  2.1376
17804SOL     OW57773   1.384   4.674   7.056 -0.0166  1.0485 -0.0886
17804SOL    HW157774   1.299   4.712   7.079 -1.7933 -1.5797 -1.6970
17804SOL    HW257775   1.401   4.704   6.967  0.6389  1.3437  0.1284
17805SOL     OW57776   4.035   1.757   3.654  0.0525 -0.0098 -0.1448
17805SOL    HW157777   3.954   1.805   3.636 -0.5643 -0.2700  1.7605
17805SOL    HW257778   4.096   1.787   3.586 -1.4831  0.5417 -1.3311
17806SOL     OW57779   6.139   6.537   3.318 -0.2135  0.0372  0.1983
17806SOL    HW157780   6.158   6.626   3.348  0.0394  0.0713 -0.0580
17806SOL    HW257781   6.044   6.530   3.323 -0.2943  0.5499 -0.4154
17807SOL     OW57782   2.710   8.240   2.028  0.2091  0.0434 -0.2365
17807SOL    HW157783   2.688   8.328   1.998  1.8758  0.7406  0.4544
17807SOL    HW257784   2.698   8.243   2.123 -1.9466 -1.1969 -0.4044
17808SOL     OW57785   2.334   5.259   7.755 -0.5168  0.0737  0.5747
17808SOL    HW157786   2.375   5.219   7.679 -0.5858 -1.1246  1.1321
17808SOL    HW257787   2.312   5.348   7.727  0.8838  0.1811 -0.2733
17809SOL     OW57788   2.934   5.968   5.164 -0.7300  0.3389 -0.4710
17809SOL    HW157789   2.896   6.055   5.156 -0.4164  0.5526  0.2632
17809SOL    HW257790   3.025   5.979   5.137 -0.6591  0.2705 -0.2673
17810SOL     OW57791   1.179   9.380   7.448 -0.3012 -0.4474 -0.0003
17810SOL    HW157792   1.261   9.376   7.498 -0.3356 -1.1912  0.0095
17810SOL    HW257793   1.207   9.381   7.356 -0.1622  2.6468 -0.0292
17811SOL     OW57794   6.588   6.297   2.838  0.0901  0.1975 -0.4507
17811SOL    HW157795   6.606   6.343   2.920 -0.5060  0.3396 -0.3926
17811SOL    HW257796   6.541   6.361   2.784 -1.3459 -0.5369 -0.1166
17812SOL     OW57797  10.131   3.681  10.563  0.5768  0.4696 -0.1088
17812SOL    HW157798  10.134   3.694  10.468  0.7726 -0.7335 -0.2873
17812SOL    HW257799  10.062   3.616  10.576  1.5287 -0.4686  0.4243
17813SOL     OW57800   2.873   6.035   4.765 -0.0543 -0.5435  0.3923
17813SOL    HW157801   2.935   5.977   4.809 -0.7098 -1.4018  0.2153
17813SOL    HW257802   2.924   6.076   4.695  0.7979  0.2503  1.4491
17814SOL     OW57803   4.467   5.270   8.348 -0.0852 -0.2421 -0.0420
17814SOL    HW157804   4.546   5.324   8.345 -1.1625  1.3661 -0.3568
17814SOL    HW257805   4.407   5.317   8.405 -0.7939 -1.5233  0.3175
17815SOL     OW57806   0.897   6.415   5.171  0.2984 -0.7280 -0.5744
17815SOL    HW157807   0.904   6.321   5.154 -2.1850 -1.0392 -0.2060
17815SOL    HW257808   0.897   6.455   5.084  0.9542 -1.0722 -0.7448
17816SOL     OW57809   9.999   5.291   6.186 -0.2741  0.3148 -0.2036
17816SOL    HW157810   9.940   5.361   6.156 -1.6001 -0.0732  1.3525
17816SOL    HW257811   9.989   5.290   6.281  0.1788 -1.5852 -0.1368
17817SOL     OW57812   9.427   7.768   3.832  0.1720  0.6357  0.0192
17817SOL    HW157813   9.382   7.689   3.802 -1.7211  1.7294 -0.1659
17817SOL    HW257814   9.455   7.811   3.751 -0.8461  1.2747 -0.0135
17818SOL     OW57815   4.892   5.118   9.137  0.0951 -0.0067  0.4961
17818SOL    HW157816   4.817   5.066   9.165  0.3222 -0.7962 -0.3136
17818SOL    HW257817   4.894   5.191   9.198 -0.5620 -0.6556  1.3268
17819SOL     OW57818   1.130   9.683   1.873 -0.7265 -0.5553  0.0782
17819SOL    HW157819   1.214   9.641   1.891  0.2733  0.7922 -1.2490
17819SOL    HW257820   1.139   9.771   1.909 -1.6002 -0.4068 -0.0428
17820SOL     OW57821   2.947   1.400   7.568 -0.3787  0.4745  0.2116
17820SOL    HW157822   2.972   1.428   7.656  1.4915 -1.6251  0.4406
17820SOL    HW257823   2.981   1.468   7.510  5.3933 -1.5407  0.5830
17821SOL     OW57824   9.342   5.311   0.853 -0.3314  0.0705 -0.3983
17821SOL    HW157825   9.343   5.236   0.912 -0.5520  1.8151  1.9989
17821SOL    HW257826   9.434   5.336   0.844 -0.4025  0.8009  0.6629
17822SOL     OW57827  10.244   8.293   5.795  0.1174 -0.1932  0.1133
17822SOL    HW157828  10.264   8.386   5.799  0.5075 -0.1432 -1.8660
17822SOL    HW257829  10.326   8.250   5.820  0.0207 -0.0209  0.7499
17823SOL     OW57830   3.667   4.697   0.871 -0.3501 -0.1707 -0.4327
17823SOL    HW157831   3.755   4.734   0.881 -0.1069 -0.5707 -0.9982
17823SOL    HW257832   3.620   4.760   0.817 -0.5556  0.2671  0.2565
17824SOL     OW57833  10.313   9.386   6.518 -0.8268  0.0658 -0.1064
17824SOL    HW157834  10.363   9.441   6.459  0.2198  0.8830  1.4708
17824SOL    HW257835  10.379   9.336   6.567 -1.6538 -0.6800  0.2905
17825SOL     OW57836   7.630   6.577   6.119 -0.7559  0.0095 -0.4237
17825SOL    HW157837   7.707   6.625   6.090  1.0500 -1.6450  1.2514
17825SOL    HW257838   7.556   6.617   6.073  0.9003  2.6673 -0.9401
17826SOL     OW57839   6.244   9.888   2.210  0.5763  0.2704  0.2087
17826SOL    HW157840   6.275   9.858   2.295 -1.2103 -0.2305  0.7358
17826SOL    HW257841   6.163   9.839   2.196  1.5891 -0.8553 -2.5079
17827SOL     OW57842   6.042   9.445   9.508  0.4430 -0.0523  0.0413
17827SOL    HW157843   6.052   9.488   9.593 -1.0786  2.0454 -0.7418
17827SOL    HW257844   6.126   9.456   9.465  1.2498 -1.1940  1.2528
17828SOL     OW57845   1.053   0.906   9.036 -0.0247 -0.3939 -0.6465
17828SOL    HW157846   1.016   0.840   8.978  0.4213  0.1797 -1.6142
17828SOL    HW257847   0.981   0.967   9.054 -0.4096 -1.0657  0.1679
17829SOL     OW57848   0.791   4.304   3.179 -0.0034  0.2351 -0.5068
17829SOL    HW157849   0.833   4.311   3.094 -0.4456 -2.1143 -0.9738
17829SOL    HW257850   0.839   4.235   3.225 -0.3540  0.8208  0.7921
17830SOL     OW57851   1.881  10.202   9.861  0.0748 -0.5137 -0.4598
17830SOL    HW157852   1.815  10.150   9.906 -1.0219 -0.2652 -1.7335
17830SOL    HW257853   1.921  10.142   9.798  0.5470 -0.4589 -0.2185
17831SOL     OW57854   9.703   5.259   4.750  0.2484 -0.5317  0.2024
17831SOL    HW157855   9.702   5.205   4.671 -1.6402  0.4285 -0.4980
17831SOL    HW257856   9.622   5.235   4.796  1.1722 -0.8640  1.7303
17832SOL     OW57857   4.764   8.117   6.711  0.4819 -0.0930  0.3182
17832SOL    HW157858   4.817   8.060   6.767  0.4069 -2.5162 -1.8951
17832SOL    HW257859   4.827   8.163   6.656  0.4336 -0.5100 -0.0922
17833SOL     OW57860   7.571   0.271   9.476 -0.2636 -0.0313 -0.0102
17833SOL    HW157861   7.590   0.362   9.456  0.3144 -0.3252 -0.8569
17833SOL    HW257862   7.657   0.232   9.494 -0.3619 -0.7055 -0.9528
17834SOL     OW57863   7.919   1.904   6.495 -0.2719  0.1266 -0.4871
17834SOL    HW157864   7.848   1.860   6.448  0.2158 -0.1311 -1.0018
17834SOL    HW257865   7.875   1.967   6.552 -0.9211 -0.1957 -0.6266
17835SOL     OW57866   5.469   8.540   6.936  0.0718 -0.2787  0.0673
17835SOL    HW157867   5.549   8.561   6.985 -1.0269 -0.5977  2.1345
17835SOL    HW257868   5.399   8.550   7.001 -1.5654 -0.1079 -1.6569
17836SOL     OW57869   8.616   1.769   8.124 -0.5404  0.0273  0.0955
17836SOL    HW157870   8.558   1.830   8.077 -1.3596  0.1998  1.3010
17836SOL    HW257871   8.653   1.821   8.195  1.6744  0.1172 -1.0351
17837SOL     OW57872   7.635   6.481   0.037 -0.0980 -0.0997  0.4488
17837SOL    HW157873   7.588   6.497   0.119 -0.5714  0.7002  0.0370
17837SOL    HW257874   7.710   6.540   0.040  0.3687 -0.7047  0.6944
17838SOL     OW57875   5.969  10.895   7.672 -0.4871  0.3765 -0.0587
17838SOL    HW157876   5.895  10.835   7.686 -0.7620  0.0352 -2.5161
17838SOL    HW257877   6.039  10.839   7.639 -0.5478  1.2523 -1.7968
17839SOL     OW57878   4.933   5.234  10.771  0.1454 -0.5331 -0.3481
17839SOL    HW157879   4.915   5.309  10.829  1.1062 -0.6158  0.0710
17839SOL    HW257880   4.877   5.249  10.695  0.1132  0.4669 -0.1449
17840SOL     OW57881   6.331  10.288   1.476  0.3519 -0.2006 -0.0435
17840SOL    HW157882   6.416  10.306   1.515 -0.7851  2.3303  1.5389
17840SOL    HW257883   6.326  10.344   1.399 -0.8447  1.9669  1.4678
17841SOL     OW57884   3.587  10.062   3.196 -0.1296  0.4135  0.6712
17841SOL    HW157885   3.551  10.118   3.265 -0.3531 -0.7289  1.5046
17841SOL    HW257886   3.652  10.117   3.152 -0.3774  1.3406  1.4270
17842SOL     OW57887   7.365   0.375   9.196 -0.1663  0.1664  0.1242
17842SOL    HW157888   7.312   0.422   9.261  1.6045  1.6349  0.6066
17842SOL    HW257889   7.422   0.318   9.248 -1.9995 -2.3650 -0.4369
17843SOL     OW57890   3.783   8.112  10.740  0.0287 -0.3103 -1.0917
17843SOL    HW157891   3.868   8.078  10.767 -0.4987 -1.0775 -0.3504
17843SOL    HW257892   3.726   8.035  10.737 -0.5493  0.1365 -1.9522
17844SOL     OW57893   8.565   8.100   4.840  0.2660 -0.3672 -0.1741
17844SOL    HW157894   8.521   8.114   4.924 -1.7475 -0.3563 -1.1654
17844SOL    HW257895   8.544   8.177   4.788  0.2346 -1.0234 -1.1715
17845SOL     OW57896  10.400   2.392   3.579 -0.0511 -0.2704  0.0806
17845SOL    HW157897  10.392   2.453   3.652  1.2037  0.2633 -0.1857
17845SOL    HW257898  10.330   2.417   3.519 -1.1840 -0.8102  1.1372
17846SOL     OW57899   8.218   5.650   9.540 -0.1880  0.1340 -0.3149
17846SOL    HW157900   8.286   5.651   9.472  0.6604  0.6854  0.5289
17846SOL    HW257901   8.156   5.583   9.510 -0.0172  0.5884 -1.8062
17847SOL     OW57902   3.676   7.158   3.125  0.2406  0.1629 -0.1053
17847SOL    HW157903   3.630   7.087   3.169 -0.1111  1.1583  1.1982
17847SOL    HW257904   3.663   7.140   3.031  1.0569 -2.0327  0.1359
17848SOL     OW57905   7.848   2.242   5.143 -0.0418  0.2719  0.5320
17848SOL    HW157906   7.912   2.313   5.132 -0.3803  0.2860 -1.9231
17848SOL    HW257907   7.896   2.163   5.117  0.1434 -0.3797  2.6551
17849SOL     OW57908   9.759  10.238   4.664  0.1792  0.5131  0.4015
17849SOL    HW157909   9.825  10.288   4.617  1.6650 -1.3753  0.3826
17849SOL    HW257910   9.718  10.183   4.597 -0.2414  0.4407  0.7093
17850SOL     OW57911   9.778   8.265  10.501 -0.4806  0.3647  0.2701
17850SOL    HW157912   9.799   8.172  10.501 -0.0253  0.3809 -2.2738
17850SOL    HW257913   9.848   8.306  10.450 -1.2667  1.9344  0.3767
17851SOL     OW57914   6.447   4.072   6.531  0.1309 -0.5624  0.0485
17851SOL    HW157915   6.466   4.035   6.445  0.0530  1.8803 -1.1088
17851SOL    HW257916   6.354   4.054   6.544 -0.3276  0.6507 -1.2808
17852SOL     OW57917   5.748   6.533   5.227 -0.0887 -0.2557 -0.5138
17852SOL    HW157918   5.708   6.499   5.147 -1.4425 -0.8291  0.3865
17852SOL    HW257919   5.675   6.558   5.283  0.6848 -2.5024  1.6993
17853SOL     OW57920  10.570   0.038   4.186 -0.3100 -0.4272 -0.3452
17853SOL    HW157921  10.619   0.114   4.157  0.2098  0.4039  2.4280
17853SOL    HW257922  10.609   0.015   4.271 -2.7784 -1.5360  0.5920
17854SOL     OW57923  10.637   2.520   8.842 -0.7576 -0.2877  0.2875
17854SOL    HW157924  10.697   2.591   8.818  0.6854 -1.9872 -1.3718
17854SOL    HW257925  10.578   2.512   8.767 -1.6394 -0.1462  0.9426
17855SOL     OW57926   0.239   6.520   0.249  0.5825  0.2896  0.9490
17855SOL    HW157927   0.243   6.573   0.169 -0.2243 -1.6887 -0.5021
17855SOL    HW257928   0.305   6.559   0.307 -0.2732  3.0857  0.1881
17856SOL     OW57929   9.020   6.645   2.970 -0.1789  0.1455  0.1288
17856SOL    HW157930   9.070   6.719   2.935  0.7740 -1.0458 -1.1178
17856SOL    HW257931   9.080   6.571   2.965 -1.8019 -1.1803 -0.7292
17857SOL     OW57932   6.844   1.408  10.412 -0.4132  0.2376  0.0149
17857SOL    HW157933   6.897   1.421  10.334  0.8446 -0.4100  0.7190
17857SOL    HW257934   6.757   1.438  10.388  0.1529  0.8532 -1.3507
17858SOL     OW57935   0.389   7.859   1.752 -0.3051  0.0078 -0.2344
17858SOL    HW157936   0.403   7.935   1.696 -0.1824  0.1169 -0.0579
17858SOL    HW257937   0.410   7.890   1.840  0.3652 -0.4002 -0.2409
17859SOL     OW57938   9.841   1.543   2.433 -0.2303 -0.1585 -0.4420
17859SOL    HW157939   9.890   1.557   2.352  2.0755 -0.8050  0.7531
17859SOL    HW257940   9.772   1.481   2.408 -0.2407  0.4520 -2.1091
17860SOL     OW57941   1.050   7.415   5.289  0.7314 -0.8220 -0.0251
17860SOL    HW157942   1.083   7.447   5.205  2.3024  0.1089  0.8997
17860SOL    HW257943   0.957   7.399   5.273  0.8108  0.1189 -1.7183
17861SOL     OW57944   1.708   0.005   5.034 -0.5033 -0.1651  0.4474
17861SOL    HW157945   1.773   0.066   5.067 -2.2639  2.5837 -0.7784
17861SOL    HW257946   1.650  -0.011   5.108 -0.6759  0.6374  0.4991
17862SOL     OW57947   9.677   3.630   6.393 -0.1472  0.1328 -0.4181
17862SOL    HW157948   9.681   3.677   6.310  0.9637  1.4722  0.3450
17862SOL    HW257949   9.749   3.667   6.445 -0.2817 -1.2688  0.8310
17863SOL     OW57950  10.331   6.392  11.072 -0.0685 -0.0385  0.8150
17863SOL    HW157951  10.259   6.380  11.134 -1.1437 -1.2072 -0.5808
17863SOL    HW257952  10.288   6.412  10.988  1.2323 -0.6121 -0.0277
17864SOL     OW57953   6.292   5.691   8.446  0.4978 -0.3243  0.6335
17864SOL    HW157954   6.344   5.767   8.473  0.8459 -0.3218 -0.0099
17864SOL    HW257955   6.286   5.636   8.524 -0.9969  1.0352  1.5430
17865SOL     OW57956   0.780   8.596   7.499 -0.1403  0.3524 -0.5411
17865SOL    HW157957   0.872   8.592   7.526  0.5025  1.9315 -2.3136
17865SOL    HW257958   0.739   8.654   7.563  0.0438 -0.4390  0.3200
17866SOL     OW57959  11.010   7.537   0.255  0.3321  0.1472 -0.2790
17866SOL    HW157960  10.933   7.518   0.202  0.3266 -0.4824 -0.0606
17866SOL    HW257961  11.072   7.576   0.194 -0.9473  2.8143  0.0038
17867SOL     OW57962   5.153   4.328   9.194 -0.5343 -0.5718 -0.1005
17867SOL    HW157963   5.165   4.237   9.223  0.2894 -0.9996 -1.6740
17867SOL    HW257964   5.202   4.334   9.112 -2.5825  0.6297 -1.3047
17868SOL     OW57965   4.982   8.924   2.149  0.5398  0.2875 -0.1649
17868SOL    HW157966   4.946   8.988   2.209  1.6397  1.6302 -0.8841
17868SOL    HW257967   4.960   8.957   2.062 -0.4697 -1.2869 -0.5592
17869SOL     OW57968   8.218   3.798   3.026  0.0541  0.5978 -0.1446
17869SOL    HW157969   8.131   3.814   2.989  0.3917  1.7353 -0.4887
17869SOL    HW257970   8.236   3.706   3.008 -1.5809  0.0063  1.0156
17870SOL     OW57971  10.433   9.543   5.234 -0.7027 -0.6485  0.0128
17870SOL    HW157972  10.347   9.520   5.199 -1.6238  1.9293  0.3714
17870SOL    HW257973  10.428   9.520   5.326 -0.2823 -2.2707 -0.3457
17871SOL     OW57974   4.200   3.759   7.884 -0.2579  0.2406 -0.2995
17871SOL    HW157975   4.140   3.684   7.883 -0.4482  0.3014  2.0891
17871SOL    HW257976   4.144   3.835   7.871 -0.8060  0.2998  1.9535
17872SOL     OW57977   0.022  10.269   8.081  0.0236  0.1440  0.1461
17872SOL    HW157978   0.052  10.228   7.999 -0.8126  0.6644 -0.4345
17872SOL    HW257979   0.073  10.225   8.149 -0.4238 -1.4703 -0.4944
17873SOL     OW57980   1.684   5.231   6.699  0.0158 -0.0064  0.5070
17873SOL    HW157981   1.665   5.299   6.763 -2.3680 -1.8163  1.8753
17873SOL    HW257982   1.603   5.222   6.648  1.4843  0.6421 -2.1765
17874SOL     OW57983   3.362   0.007   8.689 -0.2423  0.2392 -0.1593
17874SOL    HW157984   3.369  -0.033   8.775 -0.4159  0.6503  0.0487
17874SOL    HW257985   3.357   0.101   8.706 -0.2997  0.3227 -0.6146
17875SOL     OW57986   2.253  10.405   5.692 -0.2251  0.3245 -0.1784
17875SOL    HW157987   2.292  10.447   5.768 -0.4252 -1.1743  0.7883
17875SOL    HW257988   2.245  10.475   5.628 -0.7546  1.8178  1.4377
17876SOL     OW57989   2.496   9.643   4.134  0.6638 -0.8116 -0.4036
17876SOL    HW157990   2.544   9.703   4.077  0.6706 -0.5933 -0.1712
17876SOL    HW257991   2.528   9.663   4.222 -1.9610  1.4793  0.1879
17877SOL     OW57992   3.082   7.716   0.519 -0.3808 -0.0082  0.1306
17877SOL    HW157993   3.119   7.778   0.456 -0.5946  1.6112  1.5386
17877SOL    HW257994   3.071   7.766   0.600 -0.3233 -1.9503  1.4290
17878SOL     OW57995   2.609   4.584   4.510  0.5290  0.3813 -0.1747
17878SOL    HW157996   2.522   4.617   4.533  0.1262 -0.1005 -0.9575
17878SOL    HW257997   2.666   4.660   4.514  0.9658  0.1302  4.3372
17879SOL     OW57998   2.883   8.357   5.825  0.4996  0.2921 -0.5179
17879SOL    HW157999   2.845   8.364   5.912 -1.7537  1.2446 -1.5050
17879SOL    HW258000   2.972   8.392   5.834 -0.8199  3.6922  0.7272
17880SOL     OW58001   9.945   1.863  10.074  0.0129  0.1477 -0.6500
17880SOL    HW158002   9.867   1.879  10.127  1.5164  1.2006  1.4347
17880SOL    HW258003   9.949   1.938  10.015 -0.2924  0.3456 -0.4242
17881SOL     OW58004   4.579   1.706   6.145 -0.3115 -0.0495  0.2139
17881SOL    HW158005   4.628   1.664   6.216 -0.0364 -2.0665 -1.0903
17881SOL    HW258006   4.647   1.748   6.092 -0.4131  0.4877  0.4948
17882SOL     OW58007   1.608   1.974   1.737 -0.2929 -0.1423  0.7370
17882SOL    HW158008   1.636   1.934   1.819 -0.5964  0.3604  1.0923
17882SOL    HW258009   1.565   1.903   1.688  1.2453 -0.8261  0.3436
17883SOL     OW58010  10.914   3.580   2.295 -0.1699  0.3257 -0.3429
17883SOL    HW158011  10.950   3.553   2.210 -0.7280 -2.0188  0.0936
17883SOL    HW258012  10.825   3.607   2.276  0.1173  1.0809 -0.6672
17884SOL     OW58013   5.428   3.236   2.746 -0.3277  0.3073 -0.2611
17884SOL    HW158014   5.381   3.319   2.736  0.4053  0.5075 -2.8614
17884SOL    HW258015   5.513   3.251   2.705 -0.5222 -1.9499 -1.7048
17885SOL     OW58016   8.691   1.060   7.960 -0.0647 -0.1985  0.4475
17885SOL    HW158017   8.655   1.142   7.993 -2.9403 -1.0388 -0.3208
17885SOL    HW258018   8.686   1.068   7.865 -2.1968 -1.9172  0.3449
17886SOL     OW58019   4.347   1.328   4.310 -0.0848 -0.4251 -0.3347
17886SOL    HW158020   4.275   1.386   4.287  2.0068  1.8332 -1.6499
17886SOL    HW258021   4.385   1.367   4.388 -0.6272 -1.9909  0.7610
17887SOL     OW58022   2.252   6.796  10.231  0.3707 -0.0849  0.3444
17887SOL    HW158023   2.250   6.729  10.300 -0.8258  0.3943  0.7972
17887SOL    HW258024   2.262   6.878  10.278  0.6161  0.1606 -0.1303
17888SOL     OW58025   0.822   5.071  10.676 -0.1728  0.0000 -0.3096
17888SOL    HW158026   0.748   5.042  10.623 -1.1775 -0.1824  1.1493
17888SOL    HW258027   0.793   5.152  10.716  0.2535 -0.2897  0.6155
17889SOL     OW58028   0.248   8.403   5.979  0.6398  0.7139  0.6294
17889SOL    HW158029   0.166   8.356   5.959  1.5376  0.1440 -2.1614
17889SOL    HW258030   0.220   8.493   5.996 -0.6074  0.4568  0.0934
17890SOL     OW58031   8.762   5.104   5.232 -0.0517 -0.3048 -0.7753
17890SOL    HW158032   8.836   5.098   5.292 -0.5002 -0.8607 -0.2680
17890SOL    HW258033   8.797   5.147   5.154  0.4834  0.6309 -0.0313
17891SOL     OW58034   5.994   7.938   9.186 -0.3528 -0.4521  0.1278
17891SOL    HW158035   5.930   7.921   9.255  1.0259  0.2294  1.6242
17891SOL    HW258036   5.964   8.019   9.145 -2.1075 -1.7090 -1.2721
17892SOL     OW58037   9.192   2.488   6.455 -0.1399 -0.8073 -0.1022
17892SOL    HW158038   9.132   2.545   6.503 -0.0784 -0.0811 -0.8570
17892SOL    HW258039   9.252   2.455   6.521 -0.4565 -0.3550  0.4246
17893SOL     OW58040  10.084  10.700   3.485 -0.3738 -0.0354 -0.4332
17893SOL    HW158041  10.103  10.606   3.484  0.6136  0.1149  1.1028
17893SOL    HW258042  10.168  10.742   3.502 -0.9779  1.0644 -0.0407
17894SOL     OW58043  10.417   1.821   3.550 -0.0852  0.2295 -0.0087
17894SOL    HW158044  10.324   1.824   3.571 -0.2688  0.5326 -0.8194
17894SOL    HW258045  10.426   1.880   3.475  0.7212  0.0447 -0.0622
17895SOL     OW58046   5.470   2.519   2.087 -0.2536  0.9020 -0.2460
17895SOL    HW158047   5.412   2.460   2.136 -2.3867  1.9316 -1.4103
17895SOL    HW258048   5.540   2.540   2.149 -1.8822  0.7339  1.7668
17896SOL     OW58049   2.887   3.839   3.177  0.7175  0.3594  0.1990
17896SOL    HW158050   2.836   3.892   3.116 -0.0981  0.6111  1.0709
17896SOL    HW258051   2.860   3.749   3.159 -1.1748  0.5836  1.6149
17897SOL     OW58052   2.252   0.359   2.158  0.0814 -0.2102 -0.1063
17897SOL    HW158053   2.229   0.279   2.112 -2.1318  0.6856 -0.7032
17897SOL    HW258054   2.329   0.393   2.111 -0.4405 -0.7402 -1.3735
17898SOL     OW58055   7.965   5.890  11.114 -0.6941 -0.2761 -0.1282
17898SOL    HW158056   7.933   5.806  11.144 -0.0529 -0.3792  0.3012
17898SOL    HW258057   7.909   5.955  11.156 -1.3689 -0.4910 -0.6858
17899SOL     OW58058   9.322   2.895   4.249 -0.3197 -0.4765 -0.2214
17899SOL    HW158059   9.228   2.897   4.228 -0.7289 -1.5707  1.3245
17899SOL    HW258060   9.345   2.802   4.246  0.3021 -0.3856  1.0212
17900SOL     OW58061   7.790   8.375   2.410  0.2799 -0.4477 -0.1114
17900SOL    HW158062   7.811   8.400   2.320  2.2089  1.1178  0.7165
17900SOL    HW258063   7.739   8.294   2.401 -0.4453  0.2070 -2.6290
17901SOL     OW58064   3.720   6.687   3.514 -0.3443  0.1144  0.2665
17901SOL    HW158065   3.810   6.654   3.510 -0.1321  0.7854 -0.8345
17901SOL    HW258066   3.729   6.780   3.535 -0.7441  0.2859 -0.2800
17902SOL     OW58067   5.462   3.575   6.443  0.3872 -0.0430 -0.8195
17902SOL    HW158068   5.518   3.610   6.512 -1.2386  0.3837  0.3403
17902SOL    HW258069   5.498   3.489   6.424 -1.0290 -1.7280  3.0608
17903SOL     OW58070   9.303   8.511   6.276 -0.4117 -0.2825  0.7582
17903SOL    HW158071   9.350   8.576   6.224  0.1286 -1.0120  0.3163
17903SOL    HW258072   9.233   8.560   6.319 -0.8084  0.3557 -0.5802
17904SOL     OW58073   5.772   4.071   8.718 -0.0053  0.7781 -0.1224
17904SOL    HW158074   5.773   3.976   8.714 -1.4040  0.7317  0.1901
17904SOL    HW258075   5.683   4.096   8.692 -0.1635  1.8985  1.2980
17905SOL     OW58076  10.509   8.554   6.243  0.1786  0.7199 -0.3072
17905SOL    HW158077  10.446   8.570   6.313 -0.8718  0.6999 -1.2210
17905SOL    HW258078  10.475   8.604   6.169  1.3347  0.8376 -0.7795
17906SOL     OW58079   0.410   9.673   6.911 -0.5581 -0.4487 -0.1470
17906SOL    HW158080   0.464   9.740   6.868 -0.4811  0.4920  1.3270
17906SOL    HW258081   0.337   9.659   6.851  1.0777 -1.4637 -2.0140
17907SOL     OW58082   6.237   8.864  10.972  0.0103  0.3179  0.1923
17907SOL    HW158083   6.217   8.770  10.967 -1.2211  0.6043 -0.8094
17907SOL    HW258084   6.295   8.880  10.897 -0.0661  0.4242  0.1558
17908SOL     OW58085  11.062   5.438   9.646  0.0981  0.5391 -0.2685
17908SOL    HW158086  11.129   5.403   9.705  0.5462 -0.0441 -1.1108
17908SOL    HW258087  11.109   5.457   9.565 -0.8073 -0.1839 -0.9828
17909SOL     OW58088   4.200  11.060   6.902  0.1011 -0.4472 -0.0827
17909SOL    HW158089   4.150  11.142   6.902  0.4742 -0.2180 -0.0165
17909SOL    HW258090   4.234  11.053   6.991  1.5385  0.2349 -0.5500
17910SOL     OW58091   1.437   7.927   3.739 -0.3011  0.7505  0.1761
17910SOL    HW158092   1.518   7.913   3.690 -0.1356 -0.6884  0.8220
17910SOL    HW258093   1.451   8.010   3.784  0.0560  1.4512 -1.1686
17911SOL     OW58094   1.225   7.275   0.750  0.1118 -0.1497  0.0276
17911SOL    HW158095   1.242   7.348   0.689  1.1748 -2.3419 -2.5193
17911SOL    HW258096   1.131   7.257   0.740  0.1957 -0.2253 -0.7075
17912SOL     OW58097   1.693  10.787   8.222 -0.6599  0.2490  0.3977
17912SOL    HW158098   1.703  10.865   8.167 -0.3729  0.5042  0.8036
17912SOL    HW258099   1.783  10.761   8.241 -0.7588 -0.0996  0.3834
17913SOL     OW58100   8.835   5.803   0.202  0.2666  0.2602 -0.2473
17913SOL    HW158101   8.781   5.752   0.262  1.1638 -1.1802 -0.6161
17913SOL    HW258102   8.919   5.756   0.199  1.3851  2.1519 -0.0769
17914SOL     OW58103   9.787   0.372   8.843 -0.2373 -0.2921 -0.2793
17914SOL    HW158104   9.850   0.324   8.788  0.7282  1.3041 -0.6284
17914SOL    HW258105   9.790   0.327   8.927  1.3600 -0.2911 -0.3030
17915SOL     OW58106   5.431   0.954   6.827  0.0795 -0.6607  0.2170
17915SOL    HW158107   5.439   0.997   6.742 -0.3083 -1.6017 -0.3103
17915SOL    HW258108   5.487   1.006   6.885  0.7521 -0.3048 -0.7168
17916SOL     OW58109   1.423   6.490   7.278 -0.3604  0.1227 -0.2610
17916SOL    HW158110   1.439   6.448   7.193 -0.1369 -0.4938  0.0829
17916SOL    HW258111   1.347   6.546   7.262  0.9412  1.6734 -1.4272
17917SOL     OW58112   6.189   5.490   4.662  0.5047  0.4922 -0.3218
17917SOL    HW158113   6.126   5.464   4.595  0.1164 -0.1581  0.2715
17917SOL    HW258114   6.272   5.453   4.633 -0.0239 -1.5269  0.4859
17918SOL     OW58115  10.080   8.159   7.166  0.3316 -0.0033 -0.7288
17918SOL    HW158116  10.155   8.101   7.179 -0.0717 -0.5093 -0.6371
17918SOL    HW258117  10.119   8.242   7.136  0.9759 -0.0242  0.0261
17919SOL     OW58118   4.417   6.091   7.212 -0.3311 -0.6685 -0.6067
17919SOL    HW158119   4.345   6.142   7.250  0.6181 -0.4204  0.9361
17919SOL    HW258120   4.434   6.133   7.127 -0.2241  0.9972  0.1914
17920SOL     OW58121   0.071   3.669   9.543  0.3976 -0.2379  0.1817
17920SOL    HW158122   0.044   3.759   9.565 -0.6980 -0.5113 -0.0035
17920SOL    HW258123   0.048   3.658   9.451  0.4807 -0.7257  0.2152
17921SOL     OW58124   9.805   7.026   0.257 -0.6714 -0.4025  0.4481
17921SOL    HW158125   9.738   7.057   0.196 -1.2411 -1.5529  0.4573
17921SOL    HW258126   9.769   7.044   0.344 -0.6725 -0.4024  0.4478
17922SOL     OW58127   2.041   6.698   6.953 -0.6613 -0.3876 -0.1972
17922SOL    HW158128   2.072   6.653   6.874 -1.3597 -0.2374 -0.5685
17922SOL    HW258129   1.961   6.743   6.925 -1.5761 -1.2839  0.8664
17923SOL     OW58130   8.182   9.516   1.900  0.1246 -0.2233 -0.4668
17923SOL    HW158131   8.222   9.470   1.825  0.5356 -0.9383  0.1758
17923SOL    HW258132   8.224   9.601   1.901  0.2092 -0.2534 -0.9705
17924SOL     OW58133   1.247   5.647   7.075 -0.2741 -0.2021  0.3203
17924SOL    HW158134   1.308   5.595   7.127  1.1152  2.3900  1.4929
17924SOL    HW258135   1.283   5.644   6.986  0.4276 -0.3667  0.6011
17925SOL     OW58136   1.707   8.583   1.978  0.0584  0.1007 -0.2995
17925SOL    HW158137   1.752   8.617   2.055 -0.5593  1.4680 -0.4975
17925SOL    HW258138   1.631   8.641   1.967 -0.4922 -0.7557 -1.2799
17926SOL     OW58139   4.825   5.762   2.718 -0.0521 -0.0681  0.0567
17926SOL    HW158140   4.800   5.696   2.653  0.6806  0.9803 -1.3123
17926SOL    HW258141   4.786   5.843   2.687  2.0467  0.8896 -0.2546
17927SOL     OW58142   3.044   9.071   9.938  0.2095  0.6853  0.1190
17927SOL    HW158143   3.107   9.118   9.883  1.0254  0.7643  1.0955
17927SOL    HW258144   3.078   8.982   9.943 -0.1897  0.5231  0.0069
17928SOL     OW58145   7.992   3.681   4.957 -0.0266 -0.0683 -0.3920
17928SOL    HW158146   8.076   3.686   5.003 -0.1143  1.3685 -0.3561
17928SOL    HW258147   7.991   3.593   4.919  0.2084 -1.1675  2.0082
17929SOL     OW58148   6.027   8.617   5.203  0.5680  0.3372 -0.5227
17929SOL    HW158149   5.938   8.651   5.193  0.1297 -0.3085  0.8815
17929SOL    HW258150   6.078   8.663   5.137 -0.8189  0.6738 -1.4025
17930SOL     OW58151   7.632   5.593   2.841  0.3698 -0.1483 -0.3558
17930SOL    HW158152   7.683   5.556   2.913 -0.2019  0.4650  0.3740
17930SOL    HW258153   7.697   5.610   2.772  1.2226  0.9898  0.6944
17931SOL     OW58154   3.546   8.469   5.299 -0.0794 -0.7312  0.5522
17931SOL    HW158155   3.637   8.456   5.270 -0.3793  0.0004 -0.7504
17931SOL    HW258156   3.511   8.380   5.307  0.9600 -1.0590  1.8183
17932SOL     OW58157   6.527  10.745  10.370 -0.4675  0.0785 -0.2185
17932SOL    HW158158   6.481  10.668  10.402 -0.0785  0.2767  0.8396
17932SOL    HW258159   6.619  10.720  10.368 -0.3213  0.5464  0.2603
17933SOL     OW58160   3.228   6.372  10.939 -0.0616 -0.0878 -0.6110
17933SOL    HW158161   3.247   6.357  10.847  0.7135 -0.8396 -0.3376
17933SOL    HW258162   3.134   6.352  10.948 -0.2426  0.4027 -1.3060
17934SOL     OW58163   5.823   0.725   5.169 -0.4633  0.1066 -0.4484
17934SOL    HW158164   5.827   0.681   5.254  0.3612  1.9354  0.5131
17934SOL    HW258165   5.914   0.750   5.151 -1.1310  3.3595  0.1797
17935SOL     OW58166   5.351   5.168   7.639 -0.1647  0.2464 -0.2135
17935SOL    HW158167   5.442   5.139   7.643 -0.3270 -0.3654 -0.7305
17935SOL    HW258168   5.348   5.245   7.695  0.4418 -0.3344  0.6427
17936SOL     OW58169   2.865   5.023   8.159 -0.1302 -0.4765 -0.2078
17936SOL    HW158170   2.881   5.112   8.128  1.4516 -0.6557  0.0107
17936SOL    HW258171   2.890   5.024   8.251 -1.5163 -0.8023  0.1939
17937SOL     OW58172   4.504   2.710   4.783  0.1878  0.4130 -0.2609
17937SOL    HW158173   4.464   2.692   4.698  1.3988  1.7731 -1.1550
17937SOL    HW258174   4.598   2.702   4.768  0.3891 -0.7217  1.3243
17938SOL     OW58175   9.095   9.739   1.655 -0.1116 -0.0326  0.6148
17938SOL    HW158176   9.028   9.763   1.719 -1.5408  0.3171 -0.9430
17938SOL    HW258177   9.138   9.822   1.633  2.1985 -0.4853  2.9672
17939SOL     OW58178   7.234   0.048   8.815 -0.6259 -0.1541  0.4245
17939SOL    HW158179   7.203   0.060   8.725  3.7188  1.9721 -1.0399
17939SOL    HW258180   7.229   0.135   8.854  0.4748 -0.3847  1.1231
17940SOL     OW58181   5.801  10.219   8.360 -0.1908  0.1898 -0.7911
17940SOL    HW158182   5.863  10.199   8.430  0.5413  1.1273 -1.1529
17940SOL    HW258183   5.823  10.157   8.290 -0.3239 -0.1374 -0.5465
17941SOL     OW58184   7.029   6.378   3.122 -0.0104 -0.2936  0.0114
17941SOL    HW158185   7.087   6.336   3.185 -1.8422 -1.2532  1.0998
17941SOL    HW258186   7.024   6.316   3.049  1.1614  0.2968 -0.6194
17942SOL     OW58187  10.413  10.933   5.933 -0.2517 -0.2184 -0.1826
17942SOL    HW158188  10.414  10.975   6.018  2.1613  0.1009 -0.2907
17942SOL    HW258189  10.343  10.978   5.884  0.2720  1.6106  0.6770
17943SOL     OW58190   7.140   0.911   7.235  0.6638  0.1524  0.1159
17943SOL    HW158191   7.220   0.882   7.279  0.4373 -1.7707 -0.6377
17943SOL    HW258192   7.082   0.938   7.306  1.6811  0.7803  0.7213
17944SOL     OW58193   4.758   8.292   7.222  0.2337 -0.4343 -0.4660
17944SOL    HW158194   4.813   8.213   7.218 -0.3931 -0.8227 -1.8768
17944SOL    HW258195   4.669   8.259   7.222 -0.0265  0.2567 -0.0225
17945SOL     OW58196   5.595   6.063   7.851 -0.5472  0.4468 -0.5936
17945SOL    HW158197   5.643   6.090   7.773 -0.2465  0.3970 -0.4286
17945SOL    HW258198   5.624   5.973   7.868  0.6754  0.9969  0.5199
17946SOL     OW58199   7.895   7.337   8.922  0.3846 -0.2434 -0.2729
17946SOL    HW158200   7.821   7.284   8.951 -1.1767  1.5902 -0.6800
17946SOL    HW258201   7.873   7.426   8.950  2.2150  0.4434 -0.8572
17947SOL     OW58202   9.608   3.105   1.519 -0.1803 -0.2415  0.3968
17947SOL    HW158203   9.516   3.078   1.514 -0.3526  0.4060 -0.0531
17947SOL    HW258204   9.656   3.024   1.531 -0.6117 -0.8600 -1.7056
17948SOL     OW58205   0.235   3.977   9.001 -0.0669 -0.6872 -0.7913
17948SOL    HW158206   0.165   3.958   8.938 -0.6856 -1.0624 -0.0069
17948SOL    HW258207   0.309   3.924   8.971 -0.0932 -0.2450 -1.6614
17949SOL     OW58208   6.620   2.300   2.080  0.0595 -0.2400 -0.4691
17949SOL    HW158209   6.538   2.292   2.128  0.2975 -0.6967 -0.1260
17949SOL    HW258210   6.651   2.389   2.099  0.6899 -0.7527  1.1307
17950SOL     OW58211   7.475   6.594   2.927 -0.3635  0.2594  0.2306
17950SOL    HW158212   7.517   6.612   3.011  2.4231  2.0400 -1.4046
17950SOL    HW258213   7.452   6.501   2.931 -0.5072  0.3215  2.9793
17951SOL     OW58214   5.004  10.481   1.729 -0.5610 -0.3294  0.4260
17951SOL    HW158215   5.050  10.434   1.660  0.8926  2.5329 -0.7246
17951SOL    HW258216   5.050  10.457   1.810 -0.5443 -1.6285  0.0517
17952SOL     OW58217   8.775   2.370   5.360  0.0585  0.5477 -0.1610
17952SOL    HW158218   8.812   2.394   5.445 -0.5993  0.6248  0.1043
17952SOL    HW258219   8.775   2.451   5.310 -0.4073  0.7031  0.0860
17953SOL     OW58220   8.415   3.309  10.493  0.3117 -0.3771  0.1558
17953SOL    HW158221   8.333   3.357  10.494  1.0888  1.0487  1.7959
17953SOL    HW258222   8.390   3.218  10.480 -2.0100 -0.6270  4.5055
17954SOL     OW58223  10.951   0.610   2.051  0.0043 -0.2798 -0.4915
17954SOL    HW158224  10.929   0.517   2.045  0.7115 -0.5358  0.5240
17954SOL    HW258225  10.871   0.651   2.084  0.4950 -0.9756  1.7408
17955SOL     OW58226   7.940   2.679   8.372  0.1070 -0.4216  0.4806
17955SOL    HW158227   7.890   2.599   8.355 -0.6343  0.3781 -1.4716
17955SOL    HW258228   8.030   2.656   8.352  0.1805 -1.2478  1.7096
17956SOL     OW58229   0.105   8.096   4.060 -0.4881  0.5160 -0.3361
17956SOL    HW158230   0.020   8.088   4.016 -2.6512 -2.1978  3.6720
17956SOL    HW258231   0.135   8.006   4.071  0.5354  1.0615  2.2771
17957SOL     OW58232   8.568   1.330   3.662 -0.5267  0.2506 -0.1980
17957SOL    HW158233   8.661   1.319   3.681 -0.9468 -1.1835  1.1730
17957SOL    HW258234   8.543   1.408   3.712 -0.3901 -0.2694  0.7039
17958SOL     OW58235   3.121   7.634   0.972  0.2061 -0.7923  0.2089
17958SOL    HW158236   3.212   7.608   0.987 -0.1198 -1.3187  1.4154
17958SOL    HW258237   3.070   7.554   0.987 -0.4394 -0.5600 -0.6932
17959SOL     OW58238   7.940  10.366   1.394 -0.4344 -0.0471 -0.5504
17959SOL    HW158239   7.911  10.456   1.376  0.1035  0.1589 -0.4239
17959SOL    HW258240   8.019  10.356   1.340 -0.7002 -0.5749 -0.8482
17960SOL     OW58241   8.498   9.436   1.462  0.2473  0.3057  0.1671
17960SOL    HW158242   8.526   9.455   1.551  2.6605 -2.3068  0.0781
17960SOL    HW258243   8.545   9.501   1.408  0.5761  0.4319  0.6018
17961SOL     OW58244   0.283   6.861   1.992  0.3276  0.6910 -0.0498
17961SOL    HW158245   0.204   6.912   2.005  0.0568  0.6706 -1.4355
17961SOL    HW258246   0.285   6.843   1.898  0.9746 -0.9265  0.2320
17962SOL     OW58247   1.373   6.656   9.595 -0.2320 -0.0226  0.2620
17962SOL    HW158248   1.309   6.585   9.601 -0.1317 -0.2903 -1.3640
17962SOL    HW258249   1.321   6.733   9.570 -0.0396 -0.0388 -0.1898
17963SOL     OW58250   8.022  10.831  10.290 -0.0635  0.4498 -0.0069
17963SOL    HW158251   8.022  10.917  10.248  0.2467  0.3137 -0.2856
17963SOL    HW258252   7.939  10.791  10.263 -0.6984  1.0566  0.9524
17964SOL     OW58253   2.165   9.732   3.100  0.3131  0.2710  0.5495
17964SOL    HW158254   2.099   9.799   3.117  3.2189  3.5278  0.1704
17964SOL    HW258255   2.194   9.705   3.187 -0.6634 -0.2944  0.7096
17965SOL     OW58256   8.934   7.714   5.675  0.4134  0.4538  0.1324
17965SOL    HW158257   9.000   7.668   5.623  0.4611  2.3181 -1.6242
17965SOL    HW258258   8.973   7.721   5.762  1.7712 -0.0444 -0.3994
17966SOL     OW58259  10.974   0.373   8.422 -0.2295  0.0664 -0.4073
17966SOL    HW158260  10.987   0.305   8.355 -2.0072 -0.0904 -0.6313
17966SOL    HW258261  10.944   0.450   8.373  0.1775  0.5107  0.0292
17967SOL     OW58262   1.219   9.105   4.403  0.2055  0.1454  0.0981
17967SOL    HW158263   1.134   9.147   4.389  0.7351  0.9214 -0.9156
17967SOL    HW258264   1.282   9.173   4.382  1.1113 -1.1641 -1.6084
17968SOL     OW58265   0.227   8.555   7.291  0.8529  0.5092 -0.2211
17968SOL    HW158266   0.286   8.601   7.352 -0.3703  0.2219  1.2416
17968SOL    HW258267   0.170   8.503   7.348  0.8662 -1.2373 -1.7356
17969SOL     OW58268   8.601   9.006   5.823  0.9681 -0.0080  0.2665
17969SOL    HW158269   8.666   8.936   5.828  1.2169  0.2794  1.2490
17969SOL    HW258270   8.527   8.966   5.777  2.0451 -0.1474 -1.4668
17970SOL     OW58271   5.048   7.347   1.567 -0.0695  0.2357  0.3494
17970SOL    HW158272   4.964   7.302   1.569  0.5910 -1.0723  2.6998
17970SOL    HW258273   5.026   7.439   1.582 -1.0786 -0.1394  1.3125
17971SOL     OW58274   9.744   8.615  10.699  0.2876  0.0117  0.1296
17971SOL    HW158275   9.777   8.555  10.766 -0.5718  1.1142  1.5771
17971SOL    HW258276   9.649   8.616  10.712  0.0638  0.0818 -1.2751
17972SOL     OW58277   7.003   1.891  10.154  0.2752 -0.3629 -0.0443
17972SOL    HW158278   6.999   1.816  10.095  1.2266 -0.4829  0.0342
17972SOL    HW258279   7.096   1.910  10.164  0.1065  0.0020  0.9850
17973SOL     OW58280   8.941   1.417   6.373  0.4633 -0.1461 -0.3698
17973SOL    HW158281   8.997   1.493   6.388  0.6940  0.2220 -2.6595
17973SOL    HW258282   8.857   1.454   6.347  0.6338 -0.6254 -1.6989
17974SOL     OW58283   1.818  10.964  10.395  0.2222 -0.1522 -0.0944
17974SOL    HW158284   1.835  10.875  10.362 -0.8905 -0.6730  0.6770
17974SOL    HW258285   1.898  10.987  10.442 -0.4639 -1.9264  2.1455
17975SOL     OW58286  10.297   8.412   7.292  0.0518  0.2000 -0.4438
17975SOL    HW158287  10.354   8.337   7.276 -1.3288 -1.2016  0.9269
17975SOL    HW258288  10.243   8.418   7.213  0.6497  0.2407 -0.8612
17976SOL     OW58289   4.510   5.355  10.792  0.5113 -0.6223 -0.8433
17976SOL    HW158290   4.451   5.314  10.729 -1.8584  2.8107 -1.1697
17976SOL    HW258291   4.549   5.428  10.744 -1.3505  2.1042  1.4285
17977SOL     OW58292   9.498   5.010   4.825  0.2892  0.0363  0.2752
17977SOL    HW158293   9.575   4.961   4.855  0.0540 -0.5398 -0.0540
17977SOL    HW258294   9.424   4.952   4.844 -0.0265  0.4126  0.1974
17978SOL     OW58295   1.016   4.960   1.492 -0.8285 -0.1802 -0.4843
17978SOL    HW158296   1.061   4.997   1.569 -1.4458  1.5287 -0.8912
17978SOL    HW258297   1.074   4.980   1.419 -0.4896 -1.3452 -0.5485
17979SOL     OW58298   2.031   9.566   6.208  0.0857  0.4675 -0.3432
17979SOL    HW158299   1.959   9.534   6.153 -0.2887  0.2639  0.2506
17979SOL    HW258300   1.988   9.622   6.273  0.5842  1.1404 -0.5821
17980SOL     OW58301   9.141   4.991   0.346 -0.0051 -0.3621 -0.5100
17980SOL    HW158302   9.049   4.986   0.370  0.0848  0.2944  0.0063
17980SOL    HW258303   9.144   4.963   0.254 -0.7600 -0.0505 -0.6320
17981SOL     OW58304   7.124   4.184   1.906  0.5805 -0.3066  0.2219
17981SOL    HW158305   7.211   4.216   1.880  1.0779 -2.5283 -1.0449
17981SOL    HW258306   7.138   4.092   1.928 -1.4280 -0.6506  0.2014
17982SOL     OW58307   7.347   7.452   6.344 -0.0035  0.5576  0.2086
17982SOL    HW158308   7.332   7.475   6.252 -3.5056  0.3024  0.6012
17982SOL    HW258309   7.437   7.420   6.346  0.2472  0.7263 -3.0740
17983SOL     OW58310   0.068   0.968   8.229  0.2776 -0.3429 -0.3548
17983SOL    HW158311   0.097   1.020   8.304 -1.3553  1.6583 -1.0331
17983SOL    HW258312   0.022   0.894   8.268 -0.1554  0.4227  0.6282
17984SOL     OW58313  10.746   3.555   2.623 -0.1448 -0.0658 -0.7339
17984SOL    HW158314  10.767   3.642   2.592  0.4340 -0.1294 -0.5448
17984SOL    HW258315  10.828   3.523   2.662 -0.5084 -0.4584 -0.2685
17985SOL     OW58316   1.741   0.191   6.252 -0.2391  0.0274 -0.2074
17985SOL    HW158317   1.822   0.218   6.294 -0.5268 -0.6590  0.8125
17985SOL    HW258318   1.741   0.238   6.168  0.7545  0.7465  0.1763
17986SOL     OW58319   0.103   7.204   7.108  0.4591 -0.2440 -0.0363
17986SOL    HW158320   0.041   7.176   7.176 -0.4419  0.2384 -0.6462
17986SOL    HW258321   0.118   7.297   7.126  1.2040 -0.4029  0.2389
17987SOL     OW58322   4.222   1.743   0.513 -0.3171 -0.1700  0.4574
17987SOL    HW158323   4.197   1.652   0.527 -1.9458  0.1500 -0.1834
17987SOL    HW258324   4.152   1.780   0.458  0.4606  1.3869  0.4382
17988SOL     OW58325   1.976   4.915   5.448 -0.0297  0.0253 -0.1863
17988SOL    HW158326   1.966   4.922   5.353  0.1619  2.5840 -0.0711
17988SOL    HW258327   1.886   4.911   5.481 -0.2137  1.7429 -0.3759
17989SOL     OW58328   3.032  10.670   0.254 -0.6464 -0.4386  0.3430
17989SOL    HW158329   2.978  10.601   0.216 -1.0888 -0.6043  1.2645
17989SOL    HW258330   3.120  10.654   0.218 -0.5503 -1.9997  1.2114
17990SOL     OW58331   8.545   7.263   2.950  0.2971  0.2569 -0.4699
17990SOL    HW158332   8.634   7.295   2.936  0.1336  0.1177 -1.9514
17990SOL    HW258333   8.537   7.187   2.893 -1.4586  1.5731 -2.1015
17991SOL     OW58334   9.976   4.965   2.349  0.5293  0.0306  0.2525
17991SOL    HW158335   9.935   5.015   2.420  0.2736 -0.0603  0.1726
17991SOL    HW258336  10.061   4.940   2.383  0.1457 -0.5760  0.7808
17992SOL     OW58337   9.928   9.325   7.692 -0.0458 -0.2092 -0.5963
17992SOL    HW158338   9.885   9.328   7.606 -0.5387 -0.5219 -0.3644
17992SOL    HW258339  10.009   9.373   7.679 -0.0533 -0.3590 -1.2770
17993SOL     OW58340   1.970   6.306   9.825  0.2039 -0.1286  0.2857
17993SOL    HW158341   2.063   6.311   9.848  0.5010  1.7788 -1.0453
17993SOL    HW258342   1.932   6.384   9.866 -0.6136 -0.3904  0.0316
17994SOL     OW58343   5.638   6.743   0.495  0.2400  0.1091  0.0567
17994SOL    HW158344   5.696   6.708   0.562 -0.3055 -1.0450 -0.0519
17994SOL    HW258345   5.555   6.759   0.539  0.3053  0.7341 -0.0298
17995SOL     OW58346  10.133   4.092   2.240  0.1527 -0.2208  0.0709
17995SOL    HW158347  10.050   4.104   2.194  0.4476  1.3271 -0.1016
17995SOL    HW258348  10.125   4.147   2.318  0.6176 -0.8963  0.6054
17996SOL     OW58349   9.913   4.913   6.304  0.0825  0.1640  0.2160
17996SOL    HW158350   9.978   4.848   6.278 -0.1751  0.1127 -0.3155
17996SOL    HW258351   9.949   4.953   6.383  0.5503 -0.1686  0.1741
17997SOL     OW58352  10.040  10.182   0.407 -0.3756  0.1243  0.2512
17997SOL    HW158353  10.121  10.229   0.424  0.5417 -1.3327  0.0843
17997SOL    HW258354  10.014  10.211   0.320  1.3844 -1.2550 -0.8075
17998SOL     OW58355   9.062   2.427   6.006 -0.1660 -0.3382  0.2936
17998SOL    HW158356   9.134   2.381   6.048 -0.5707 -0.5434  0.7651
17998SOL    HW258357   9.002   2.449   6.077 -0.3175  0.2946 -0.0205
17999SOL     OW58358   1.195   6.955   6.651 -0.5432 -0.2196  0.0592
17999SOL    HW158359   1.283   6.918   6.642 -0.3571  0.6724 -2.4054
17999SOL    HW258360   1.140   6.899   6.596 -1.4680 -0.4794  1.2036
18000SOL     OW58361   5.957   3.848   5.454  0.0724  0.0039  0.1842
18000SOL    HW158362   5.954   3.885   5.542 -1.3084 -1.4906  0.8174
18000SOL    HW258363   6.037   3.796   5.452  1.4614  2.0248 -0.3612
18001SOL     OW58364   3.813   9.439   4.607  0.4942 -0.4262  0.0801
18001SOL    HW158365   3.751   9.510   4.627  0.0137 -0.3526 -1.4911
18001SOL    HW258366   3.874   9.439   4.680 -0.6088  0.3630  1.0462
18002SOL     OW58367   2.547  11.079   0.642 -0.4048  0.6509  0.1849
18002SOL    HW158368   2.585  11.164   0.619 -0.4964  1.1848  1.8969
18002SOL    HW258369   2.612  11.015   0.612 -0.2331  1.3076 -0.9246
18003SOL     OW58370   7.845   9.034   9.983  0.2072  0.0632  0.0002
18003SOL    HW158371   7.803   9.112  10.020  0.1704  0.4193 -0.7765
18003SOL    HW258372   7.897   9.068   9.910 -1.2492 -0.8478 -1.5121
18004SOL     OW58373   2.939   9.743   3.607 -0.1658  0.2482 -0.5428
18004SOL    HW158374   2.992   9.709   3.535 -0.5982  2.0144 -1.7628
18004SOL    HW258375   2.903   9.825   3.574 -1.2960  0.5642  1.3062
18005SOL     OW58376   4.210   4.685   6.299  0.6847 -0.0268 -0.0932
18005SOL    HW158377   4.253   4.748   6.357  1.7857  0.3291 -1.2492
18005SOL    HW258378   4.214   4.602   6.346  1.7335  0.2146  0.2739
18006SOL     OW58379   0.521   8.278  10.084  0.0680 -0.2119 -0.0577
18006SOL    HW158380   0.535   8.303  10.175  0.0134 -0.8698  0.1424
18006SOL    HW258381   0.605   8.291  10.041 -0.5014  2.5101 -0.5365
18007SOL     OW58382   7.724   9.723   5.573 -0.5553  0.0139  0.3051
18007SOL    HW158383   7.657   9.767   5.625 -0.2533 -1.0738  1.6907
18007SOL    HW258384   7.749   9.787   5.507 -0.2717  1.8909  2.1093
18008SOL     OW58385   8.908   3.260   1.865 -0.1680 -0.3299  0.3794
18008SOL    HW158386   8.906   3.207   1.945  2.2982 -0.7077  0.2702
18008SOL    HW258387   8.945   3.344   1.892 -2.2407  0.7108  0.1688
18009SOL     OW58388   9.693   6.466   6.207  0.2620  0.5848 -0.2242
18009SOL    HW158389   9.737   6.546   6.236  2.1640 -0.1991 -0.7666
18009SOL    HW258390   9.764   6.403   6.195 -1.1233 -0.9966 -0.4488
18010SOL     OW58391   4.426   7.761   9.434  0.3515 -0.0714  0.3457
18010SOL    HW158392   4.347   7.767   9.380  0.2975 -0.6953  0.3407
18010SOL    HW258393   4.489   7.713   9.379  0.9584  0.9810  0.1000
18011SOL     OW58394   0.828   1.637   7.412 -0.7013  0.0021  0.4424
18011SOL    HW158395   0.823   1.543   7.397 -0.2204 -0.1956  1.4579
18011SOL    HW258396   0.741   1.670   7.388  0.0814 -0.1734 -3.2139
18012SOL     OW58397   5.030   9.626   2.743 -0.5900 -0.0306  0.1161
18012SOL    HW158398   4.939   9.606   2.763 -0.7798 -0.4357 -1.1037
18012SOL    HW258399   5.029   9.717   2.713 -0.7445 -0.3370 -0.8226
18013SOL     OW58400   2.282  10.823   7.154  0.3751  0.0950  1.1129
18013SOL    HW158401   2.375  10.847   7.152  0.2846  0.4482  1.1000
18013SOL    HW258402   2.270  10.782   7.239  1.2181 -2.7370  0.0064
18014SOL     OW58403   8.007   7.547   3.190 -0.2742  0.0939 -0.3624
18014SOL    HW158404   7.931   7.501   3.227  0.2608 -1.0825 -0.6947
18014SOL    HW258405   8.076   7.481   3.187  0.5595  0.9645 -0.7350
18015SOL     OW58406   8.840   3.585  10.509  0.1458  0.0362  0.5055
18015SOL    HW158407   8.767   3.530  10.481  0.8864 -0.4363 -0.5600
18015SOL    HW258408   8.805   3.637  10.581 -0.5829 -1.8599  1.6108
18016SOL     OW58409   4.994   4.431   5.526 -0.1541  0.7407  0.5165
18016SOL    HW158410   4.934   4.418   5.599 -1.4511  0.8505 -0.4950
18016SOL    HW258411   5.066   4.370   5.543 -1.0771 -0.1897  1.1934
18017SOL     OW58412   3.314   3.885  10.277 -0.9175 -0.3141  0.5901
18017SOL    HW158413   3.330   3.825  10.205 -0.5989 -0.8410  1.0945
18017SOL    HW258414   3.326   3.833  10.356 -0.6057  0.4189  1.0418
18018SOL     OW58415   1.180   6.497  10.325 -0.2718 -0.5878  0.2756
18018SOL    HW158416   1.115   6.513  10.394 -0.4905 -1.3747  0.2668
18018SOL    HW258417   1.258   6.544  10.353 -1.3666  1.9109 -0.5827
18019SOL     OW58418   5.502   9.210   7.607  0.2892 -0.0984  0.1285
18019SOL    HW158419   5.502   9.115   7.606  3.7212 -0.2199 -1.7448
18019SOL    HW258420   5.468   9.235   7.521 -0.7041  0.4185  0.6527
18020SOL     OW58421   5.953   2.573  11.112 -0.0558 -0.1665  0.3397
18020SOL    HW158422   5.922   2.659  11.142 -0.4272 -0.7570  1.7127
18020SOL    HW258423   5.878   2.536  11.064  0.2656  0.4513 -0.6686
18021SOL     OW58424   4.516   4.759   3.820 -0.1240 -0.1473 -0.7568
18021SOL    HW158425   4.585   4.729   3.879  0.1064  1.5397 -0.1153
18021SOL    HW258426   4.562   4.781   3.739 -0.1538 -0.5931 -0.8961
18022SOL     OW58427   8.093   5.315   0.443 -0.3125  0.6685  0.0568
18022SOL    HW158428   8.018   5.374   0.426 -0.5529  0.3504  0.0037
18022SOL    HW258429   8.092   5.254   0.369  0.3551  1.0185 -0.2517
18023SOL     OW58430   2.438   6.989   7.187  0.7630 -0.1626  0.0746
18023SOL    HW158431   2.508   7.054   7.191 -0.3730  1.1280 -0.3388
18023SOL    HW258432   2.478   6.913   7.144  1.9062  0.5247 -0.1144
18024SOL     OW58433   9.778   8.355   5.092 -0.5350 -0.2882 -0.2436
18024SOL    HW158434   9.708   8.403   5.135 -0.9158 -0.7458 -0.3442
18024SOL    HW258435   9.854   8.367   5.149 -0.4509  0.9538 -0.5965
18025SOL     OW58436  10.879   6.021   2.691 -0.2541 -0.2598 -0.7997
18025SOL    HW158437  10.938   5.971   2.634  2.1955 -0.0044  1.3475
18025SOL    HW258438  10.911   6.111   2.685  0.4867 -0.3211  1.3522
18026SOL     OW58439   9.182  10.901   5.712  0.4745  0.2706 -0.4991
18026SOL    HW158440   9.196  10.918   5.806 -2.8226  0.8967 -0.0110
18026SOL    HW258441   9.111  10.838   5.709 -0.1042  0.9429 -2.5880
18027SOL     OW58442   9.626   3.121   7.834 -0.3067 -0.3622 -0.5393
18027SOL    HW158443   9.669   3.171   7.903 -1.1329 -2.1600  1.3691
18027SOL    HW258444   9.573   3.186   7.787 -1.0423  0.6741  1.5786
18028SOL     OW58445   5.682   0.904   8.510  0.2054 -0.6977 -0.4753
18028SOL    HW158446   5.772   0.900   8.478 -0.1266 -0.1199 -1.5520
18028SOL    HW258447   5.633   0.847   8.451  0.2850 -3.3959  1.8650
18029SOL     OW58448   9.121   7.917   7.624 -0.6135  0.3499  0.0191
18029SOL    HW158449   9.100   7.980   7.693 -1.6382 -1.0755  1.0843
18029SOL    HW258450   9.144   7.837   7.672 -0.1523 -0.3322 -1.2934
18030SOL     OW58451   8.712   3.223   7.153 -0.0216 -0.0594  0.1934
18030SOL    HW158452   8.714   3.215   7.057 -1.6221  1.1058  0.0186
18030SOL    HW258453   8.755   3.144   7.184  2.2315  0.3835 -1.4924
18031SOL     OW58454   6.701   0.351   6.171  0.2457  0.2739 -0.5334
18031SOL    HW158455   6.781   0.402   6.187 -0.1285  0.9973 -0.9145
18031SOL    HW258456   6.633   0.417   6.157 -0.4220 -0.3362 -0.2116
18032SOL     OW58457   0.509   7.963   2.439  0.2486 -0.5309  0.7606
18032SOL    HW158458   0.415   7.975   2.454  0.1035 -1.7000  0.8461
18032SOL    HW258459   0.551   8.028   2.495 -0.5031 -0.0903  0.8184
18033SOL     OW58460   2.154   6.103   8.604  0.4673  0.8515  0.2093
18033SOL    HW158461   2.236   6.105   8.653  0.7973 -1.5070 -0.0948
18033SOL    HW258462   2.090   6.067   8.665  0.4459 -0.3293 -0.4747
18034SOL     OW58463  10.629   0.606   7.280 -0.2102 -0.0548 -0.1014
18034SOL    HW158464  10.702   0.565   7.235 -0.8837 -0.7768 -0.5600
18034SOL    HW258465  10.572   0.638   7.209 -0.5941  0.0337  0.2410
18035SOL     OW58466   7.626   2.956   9.430  0.0111 -0.4105 -0.2640
18035SOL    HW158467   7.675   3.014   9.371 -0.4821  0.0484 -0.2306
18035SOL    HW258468   7.604   3.012   9.505 -1.5034 -0.2923 -0.7753
18036SOL     OW58469   5.702   6.585   6.613 -0.2360  0.0473 -0.2996
18036SOL    HW158470   5.687   6.679   6.623 -0.4262  0.1582 -1.4262
18036SOL    HW258471   5.619   6.545   6.636 -0.0066  0.1040  0.6773
18037SOL     OW58472   3.411   4.715   9.875 -0.7525 -0.0605 -0.0129
18037SOL    HW158473   3.459   4.670   9.805  0.6093  0.3467  0.6088
18037SOL    HW258474   3.319   4.702   9.853 -0.3958 -1.6666 -0.7821
18038SOL     OW58475   9.139   1.639   6.440  0.2116 -0.3293  0.5773
18038SOL    HW158476   9.127   1.712   6.378 -0.7674 -0.6232  0.4049
18038SOL    HW258477   9.097   1.668   6.520 -3.3205 -1.9730 -0.4936
18039SOL     OW58478   3.369   7.068   2.826  0.0955  0.2882  0.2425
18039SOL    HW158479   3.380   7.037   2.916  1.7226  0.4273  0.1217
18039SOL    HW258480   3.458   7.082   2.794 -0.4877  1.4099 -0.9968
18040SOL     OW58481   8.255   5.461   2.028  0.0232 -0.0797  0.2481
18040SOL    HW158482   8.292   5.529   2.083  0.6444  0.3182 -0.6251
18040SOL    HW258483   8.326   5.397   2.018  0.4330  0.5564 -1.2235
18041SOL     OW58484   3.701   2.695   6.631 -0.0934 -0.5787 -0.3900
18041SOL    HW158485   3.632   2.755   6.602 -1.4162 -1.4904  0.7437
18041SOL    HW258486   3.660   2.643   6.699  1.3967 -1.9496 -0.4878
18042SOL     OW58487   6.908   0.962   8.166 -0.7726 -0.7852  0.0949
18042SOL    HW158488   6.820   0.938   8.137 -0.8096 -1.7814  0.9845
18042SOL    HW258489   6.893   1.026   8.237 -0.7101  0.5871 -1.0761
18043SOL     OW58490  10.612   7.492   9.157 -0.3128  0.0199  0.2272
18043SOL    HW158491  10.582   7.412   9.201  2.5381 -2.1558 -1.4269
18043SOL    HW258492  10.541   7.513   9.097 -0.5172 -2.2818 -0.4526
18044SOL     OW58493   7.902   3.702   9.164  0.2735  0.0060  0.0161
18044SOL    HW158494   7.931   3.707   9.072 -1.2534 -0.0969 -0.4979
18044SOL    HW258495   7.832   3.767   9.170  2.4063  2.3050  1.9687
18045SOL     OW58496  11.095   9.868   3.424 -0.0496  0.4653 -0.2818
18045SOL    HW158497  11.190   9.869   3.433 -0.1687 -1.6131  2.9008
18045SOL    HW258498  11.074   9.777   3.403 -1.3636  1.0003 -1.4779
18046SOL     OW58499   0.552   3.236   9.706 -0.2962 -0.2791  0.5114
18046SOL    HW158500   0.616   3.215   9.774 -0.3228  0.3126  0.7256
18046SOL    HW258501   0.472   3.193   9.735  0.1864 -1.6861 -0.1543
18047SOL     OW58502   5.961   6.474   8.147 -0.1388 -0.0259  0.4344
18047SOL    HW158503   5.898   6.485   8.218 -2.7654 -0.8296 -1.5789
18047SOL    HW258504   5.999   6.388   8.161 -0.9978 -0.3869  0.6553
18048SOL     OW58505   6.947   7.106   7.158 -0.0940  0.2415 -0.0941
18048SOL    HW158506   7.027   7.106   7.212 -1.0007 -1.4761  1.3399
18048SOL    HW258507   6.976   7.075   7.072  0.4528 -2.9615  1.1042
18049SOL     OW58508   9.069  10.580   7.631  0.0626 -0.0814 -0.5418
18049SOL    HW158509   9.108  10.667   7.623 -2.6436  1.2043 -0.9026
18049SOL    HW258510   9.083  10.540   7.545  0.9676  0.1586 -0.5095
18050SOL     OW58511   7.958  10.298  10.235  0.3160  0.1054  0.1475
18050SOL    HW158512   7.963  10.286  10.330  0.6416 -0.4700  0.0559
18050SOL    HW258513   7.995  10.218  10.198 -0.0867  0.2001 -0.4689
18051SOL     OW58514   2.282   9.637   4.928 -0.5152 -0.1679  0.8849
18051SOL    HW158515   2.214   9.681   4.979 -1.6608 -0.5463 -0.2597
18051SOL    HW258516   2.246   9.551   4.909  0.6750 -0.7112  1.0129
18052SOL     OW58517   7.075   5.374   9.938  0.1252  0.0076  0.6167
18052SOL    HW158518   7.076   5.331   9.852 -0.0444 -0.4347  0.8356
18052SOL    HW258519   7.018   5.450   9.926  0.2831  0.0778  0.2777
18053SOL     OW58520   9.887   7.170   8.636  0.4662  0.2310 -0.0478
18053SOL    HW158521   9.806   7.122   8.620  0.4000  1.0531 -2.5542
18053SOL    HW258522   9.859   7.251   8.679  0.3282 -0.7688  1.8545
18054SOL     OW58523   1.248   5.201   8.257 -0.6455 -0.5087 -0.1438
18054SOL    HW158524   1.154   5.185   8.266 -0.6741 -0.5098 -0.4217
18054SOL    HW258525   1.285   5.115   8.237 -0.5123 -0.6052  0.5116
18055SOL     OW58526   6.233   9.439  10.594 -0.1285  0.1571  0.3661
18055SOL    HW158527   6.144   9.474  10.584 -0.5609 -1.0476 -0.2593
18055SOL    HW258528   6.221   9.345  10.602  1.0995 -0.0343  0.2088
18056SOL     OW58529   9.673   2.462   4.378  0.6148  0.3492 -0.1233
18056SOL    HW158530   9.678   2.557   4.372  1.8149  0.4341  1.5306
18056SOL    HW258531   9.690   2.431   4.289  0.6561  1.6651 -0.5897
18057SOL     OW58532   6.595  10.727   1.097 -0.0547 -0.3465  0.4431
18057SOL    HW158533   6.587  10.770   1.012 -0.3619  2.4612  1.7608
18057SOL    HW258534   6.688  10.709   1.106  0.2922  1.2666  0.3355
18058SOL     OW58535   8.135   1.553   6.440  0.3762 -0.5004 -0.0558
18058SOL    HW158536   8.188   1.631   6.455  1.0362 -0.7515 -0.9885
18058SOL    HW258537   8.192   1.481   6.465 -0.4748 -0.6928  1.4938
18059SOL     OW58538   1.540   5.147   8.548 -0.1384 -0.3757 -0.1977
18059SOL    HW158539   1.551   5.062   8.504  0.5122  0.2897 -1.3702
18059SOL    HW258540   1.481   5.128   8.621 -0.3740 -1.7489 -0.7033
18060SOL     OW58541   8.586   1.326   6.348  0.1699  0.6739  0.3289
18060SOL    HW158542   8.639   1.396   6.311 -0.0117  0.0399 -1.2298
18060SOL    HW258543   8.590   1.256   6.282 -3.9531  1.2145 -0.7983
18061SOL     OW58544   3.693   1.373   1.836 -0.8562 -0.2107 -0.2360
18061SOL    HW158545   3.673   1.426   1.759 -2.5151  0.5355  0.6558
18061SOL    HW258546   3.638   1.409   1.905 -0.2441 -1.5826  1.0335
18062SOL     OW58547  10.898   0.334   9.102 -0.5089  0.1992  0.1195
18062SOL    HW158548  10.967   0.370   9.158  0.6944 -1.1504 -0.4319
18062SOL    HW258549  10.931   0.249   9.075 -1.2995  0.5749 -2.2061
18063SOL     OW58550   3.220   7.047   9.998 -0.4738  0.1931  0.2612
18063SOL    HW158551   3.270   7.117   9.956  1.5443 -1.4207 -0.2063
18063SOL    HW258552   3.265   7.031  10.081 -0.5489 -0.9323  0.0988
18064SOL     OW58553   2.660   5.158   2.720  0.2313  0.1791 -0.0464
18064SOL    HW158554   2.608   5.138   2.642  0.1721  0.5513 -0.1028
18064SOL    HW258555   2.730   5.215   2.688 -0.3227  1.0798  0.3359
18065SOL     OW58556   0.024   0.668   7.393  0.3712  0.0434  0.5237
18065SOL    HW158557  -0.031   0.727   7.445 -0.4219  1.2722 -1.5833
18065SOL    HW258558  -0.031   0.592   7.375 -0.2703  0.7471 -0.5910
18066SOL     OW58559   6.942  10.004   5.521  0.2815 -0.1065 -0.3616
18066SOL    HW158560   7.029   9.986   5.486  0.1696  1.7236 -1.7257
18066SOL    HW258561   6.957  10.063   5.595  0.3197 -1.7261  0.9766
18067SOL     OW58562   8.998   3.426   5.562 -0.1752 -0.0081 -0.2625
18067SOL    HW158563   8.908   3.431   5.592  0.1936  1.8206  0.6744
18067SOL    HW258564   9.013   3.509   5.517  1.2342  0.0262  0.2187
18068SOL     OW58565   7.245   3.203   6.389  0.0881  0.5778 -0.6569
18068SOL    HW158566   7.316   3.141   6.373 -1.7568 -2.2902  1.2070
18068SOL    HW258567   7.189   3.195   6.311  0.0656  0.2079 -0.6049
18069SOL     OW58568   0.794  10.043   6.079 -0.0023  0.1963 -0.4156
18069SOL    HW158569   0.792  10.049   6.174  0.7965  1.7634 -0.4750
18069SOL    HW258570   0.758  10.127   6.049  1.3551  0.4307 -1.4746
18070SOL     OW58571   7.078   2.870   2.833  0.3997 -0.3689 -0.4861
18070SOL    HW158572   7.064   2.794   2.889  1.8489 -0.0830  0.3105
18070SOL    HW258573   7.172   2.870   2.815  0.3086  0.8020 -1.0779
18071SOL     OW58574   7.052   4.767   3.605  0.1894  0.4393 -0.2118
18071SOL    HW158575   7.073   4.708   3.678 -2.2777  0.1921  0.3802
18071SOL    HW258576   7.107   4.844   3.620 -0.8962  0.8082  2.5018
18072SOL     OW58577   1.584   5.062  10.497 -0.0442  0.2689  0.0677
18072SOL    HW158578   1.494   5.058  10.465  0.1132  0.5048 -0.4215
18072SOL    HW258579   1.619   4.974  10.483 -0.4786 -0.0976  1.1369
18073SOL     OW58580   2.209   9.561  10.258  0.3823 -0.0855 -0.2345
18073SOL    HW158581   2.262   9.600  10.189 -1.1649 -1.2051 -2.1727
18073SOL    HW258582   2.118   9.579  10.231 -0.2823 -0.7799  1.3869
18074SOL     OW58583  10.588  11.073   1.313  0.3148  0.2078  0.3096
18074SOL    HW158584  10.636  11.113   1.386  0.6955  1.1394 -0.4155
18074SOL    HW258585  10.511  11.129   1.301 -0.6906 -0.9563  1.1045
18075SOL     OW58586   0.562   8.369   9.775 -0.3189  0.5381  0.2282
18075SOL    HW158587   0.486   8.421   9.802 -0.5939  0.9395 -1.2227
18075SOL    HW258588   0.550   8.356   9.681  1.0318 -0.0428  0.1097
18076SOL     OW58589   1.541   8.913   9.784 -0.1451  0.1384  0.1901
18076SOL    HW158590   1.500   8.826   9.778  0.4676 -0.2570  1.3783
18076SOL    HW258591   1.551   8.928   9.878  1.6129  0.6070 -0.0441
18077SOL     OW58592   2.560   0.724   9.461 -0.4858  0.1382 -0.0545
18077SOL    HW158593   2.583   0.632   9.469 -2.7420 -0.5758 -0.9732
18077SOL    HW258594   2.555   0.739   9.366 -1.3642  0.8480  0.0928
18078SOL     OW58595   7.868   6.224  10.805  0.4502 -0.2514  0.2235
18078SOL    HW158596   7.888   6.317  10.811 -1.1643  0.0684  1.5333
18078SOL    HW258597   7.792   6.212  10.862  0.0209 -2.2056 -0.6628
18079SOL     OW58598  10.192   6.596   6.890 -0.3654  0.0811 -0.2875
18079SOL    HW158599  10.262   6.590   6.955 -0.1048  0.3595 -0.5408
18079SOL    HW258600  10.119   6.636   6.937 -0.3458 -0.1817 -0.0301
18080SOL     OW58601   9.311   8.930   5.798  0.1458  0.1892 -0.8578
18080SOL    HW158602   9.396   8.898   5.768  0.6481  0.6153  0.1085
18080SOL    HW258603   9.248   8.881   5.744  0.8509 -2.6610  0.6788
18081SOL     OW58604   3.026   3.787   3.555  0.3711  0.1405 -0.0892
18081SOL    HW158605   2.942   3.831   3.545 -1.3589 -3.1859 -2.2358
18081SOL    HW258606   3.072   3.803   3.472 -0.1032 -1.5762 -0.7234
18082SOL     OW58607   6.024   9.349   4.486 -0.7161 -0.3025  0.2431
18082SOL    HW158608   5.929   9.351   4.494 -0.9065 -0.3839 -1.5554
18082SOL    HW258609   6.056   9.402   4.559 -2.1342 -0.1867  0.8075
18083SOL     OW58610   0.057   8.929  10.268 -0.7832  0.0324 -0.2719
18083SOL    HW158611   0.093   8.842  10.290  1.2501  0.5092 -1.4149
18083SOL    HW258612   0.115   8.990  10.314 -1.8228  0.8125  0.0171
18084SOL     OW58613   5.866   9.894   9.069 -0.3269  0.4368  0.2986
18084SOL    HW158614   5.813   9.934   9.000 -1.1711 -1.4554 -0.2114
18084SOL    HW258615   5.842   9.940   9.149 -2.2991  0.0539 -0.0375
18085SOL     OW58616   9.142   1.273   3.590 -0.2133 -0.7268 -0.4059
18085SOL    HW158617   9.185   1.203   3.541 -1.3212  0.0717 -2.6842
18085SOL    HW258618   9.060   1.289   3.543 -1.1919  0.3835  1.5445
18086SOL     OW58619   6.178   1.118   3.980  0.3573 -0.1914  0.3049
18086SOL    HW158620   6.147   1.172   3.907  0.2317 -0.7801 -0.0783
18086SOL    HW258621   6.264   1.154   4.000  1.0913 -1.0254 -1.1821
18087SOL     OW58622  11.108   1.789   8.603 -0.4905  0.3063  0.2861
18087SOL    HW158623  11.147   1.806   8.688 -1.9556  0.1482  1.0055
18087SOL    HW258624  11.016   1.810   8.613 -0.8788 -0.6389 -0.9788
18088SOL     OW58625   9.343   4.672   2.399  0.3129 -0.5696 -0.5939
18088SOL    HW158626   9.383   4.744   2.351 -0.2419  0.0626 -0.1130
18088SOL    HW258627   9.397   4.661   2.477  0.1151 -0.3472 -0.4237
18089SOL     OW58628  10.806   2.500   7.852  0.3644 -0.6141  0.3638
18089SOL    HW158629  10.830   2.528   7.764  2.3868 -1.1744  0.6952
18089SOL    HW258630  10.886   2.509   7.903 -1.1968  1.4814  2.6610
18090SOL     OW58631   6.662   7.964   0.177 -0.3634  0.4130 -0.6145
18090SOL    HW158632   6.744   8.002   0.146 -0.1524  0.5915  0.1426
18090SOL    HW258633   6.674   7.954   0.272 -0.7527 -0.6964 -0.6682
18091SOL     OW58634   9.080   2.457   1.061 -0.0327 -0.2201  0.8656
18091SOL    HW158635   8.991   2.429   1.041 -0.9036  2.6395  0.3493
18091SOL    HW258636   9.126   2.452   0.977 -1.1225  2.8206 -0.0574
18092SOL     OW58637   4.657  10.234   5.613  0.2653  0.3426  0.1919
18092SOL    HW158638   4.642  10.292   5.538 -1.0491 -0.4095 -0.1480
18092SOL    HW258639   4.706  10.288   5.675 -1.6366  2.1308  0.2458
18093SOL     OW58640   7.556   0.601   2.028 -0.2226  0.9679  0.1593
18093SOL    HW158641   7.536   0.585   1.935  2.9526 -0.6609 -0.3831
18093SOL    HW258642   7.499   0.540   2.075  1.7766 -2.1984 -1.1508
18094SOL     OW58643  10.713   3.878   9.017  0.1127  0.0423  0.0771
18094SOL    HW158644  10.750   3.822   9.086  1.3488  2.0246  1.1093
18094SOL    HW258645  10.762   3.853   8.938  0.5036 -0.4753  0.4713
18095SOL     OW58646   9.724   4.184   7.338  0.4347 -0.3644  0.8221
18095SOL    HW158647   9.632   4.161   7.346  0.5346 -0.9411  0.3207
18095SOL    HW258648   9.725   4.280   7.343 -0.2783 -0.3055 -0.0590
18096SOL     OW58649   6.099   2.864   9.198  0.0191 -0.1531  0.3837
18096SOL    HW158650   6.169   2.868   9.133 -0.0627  0.0867  0.3108
18096SOL    HW258651   6.143   2.851   9.281  0.1021 -0.9947  0.2214
18097SOL     OW58652   7.729   2.832  10.747  0.3557  0.4556 -0.0091
18097SOL    HW158653   7.820   2.857  10.734  0.3136  0.8529  0.3951
18097SOL    HW258654   7.694   2.900  10.806 -0.1840  0.2823 -0.1198
18098SOL     OW58655   7.942   7.854   3.345  0.0187 -0.5722  0.1522
18098SOL    HW158656   7.900   7.855   3.431 -0.3856 -0.3087 -0.0425
18098SOL    HW258657   7.876   7.817   3.287 -0.0774  0.1509 -0.2189
18099SOL     OW58658   7.341   2.770   5.190  0.3136 -0.1336  0.4383
18099SOL    HW158659   7.383   2.728   5.265  2.7654 -0.5555 -1.0433
18099SOL    HW258660   7.381   2.857   5.186 -0.3604  0.1647  0.0432
18100SOL     OW58661  10.554   6.158   4.886  0.6337  0.0154 -0.3772
18100SOL    HW158662  10.557   6.179   4.979  1.6027 -0.8290 -0.1952
18100SOL    HW258663  10.591   6.235   4.843  1.2443 -0.0415  0.0325
18101SOL     OW58664   6.905   4.190   7.006  0.0037  0.3049 -0.1300
18101SOL    HW158665   6.978   4.129   7.018  1.1006  1.4849 -0.5916
18101SOL    HW258666   6.836   4.138   6.966  0.4023 -0.9555  0.7561
18102SOL     OW58667   7.484   8.732   4.916 -0.5501 -0.0528  0.3714
18102SOL    HW158668   7.507   8.780   4.996 -0.7017  0.5207  0.0780
18102SOL    HW258669   7.547   8.661   4.912  0.9016  1.1945 -0.1551
18103SOL     OW58670   1.023   2.165   7.119  0.3018 -0.1154  0.1310
18103SOL    HW158671   1.025   2.124   7.032  0.9329  1.0995 -0.4671
18103SOL    HW258672   0.979   2.102   7.175  0.4164 -1.1883 -0.9453
18104SOL     OW58673   9.463   3.749   9.764  0.3424  0.2558  0.3216
18104SOL    HW158674   9.409   3.794   9.698  0.4017  0.5056  0.4411
18104SOL    HW258675   9.402   3.728   9.835 -0.1720 -1.8173 -0.6431
18105SOL     OW58676   4.409   6.709   4.878 -0.5251 -0.1064  1.0099
18105SOL    HW158677   4.470   6.708   4.804  0.5918 -1.8606  1.8718
18105SOL    HW258678   4.345   6.776   4.856  0.1929 -0.0673 -1.1951
18106SOL     OW58679   9.600   8.690   2.355  0.8358 -0.0172  0.3549
18106SOL    HW158680   9.661   8.618   2.377 -0.0935 -0.8646  0.2255
18106SOL    HW258681   9.625   8.715   2.266  2.1170  0.8376  0.9156
18107SOL     OW58682   6.806  10.032   1.217  0.7210  0.6571 -0.6986
18107SOL    HW158683   6.792   9.941   1.242 -0.2672  0.7754 -0.7868
18107SOL    HW258684   6.826  10.077   1.299 -0.2754  0.6297 -0.4296
18108SOL     OW58685   9.559   8.720   9.550  0.6312 -0.0928 -0.2903
18108SOL    HW158686   9.514   8.684   9.473 -0.3787 -0.2615  0.3559
18108SOL    HW258687   9.595   8.644   9.595 -1.7087 -0.4506  1.2055
18109SOL     OW58688   1.164   2.677   3.447 -0.2712  0.2784 -0.0767
18109SOL    HW158689   1.103   2.603   3.460 -1.5970  0.5574 -3.6295
18109SOL    HW258690   1.248   2.636   3.428  0.3225 -0.1283  2.8850
18110SOL     OW58691   3.817  11.083   8.508  0.7999 -0.4260  0.2997
18110SOL    HW158692   3.784  11.144   8.575 -2.0860 -0.6186 -0.7907
18110SOL    HW258693   3.851  11.009   8.557  0.8069  0.3906  1.5793
18111SOL     OW58694   0.718   0.551   9.168  0.0155 -0.0005  0.4200
18111SOL    HW158695   0.695   0.492   9.239  1.5269  1.0010  1.8011
18111SOL    HW258696   0.641   0.549   9.110 -2.2295  0.7330  3.1124
18112SOL     OW58697   6.289   9.899   4.948 -0.4563 -0.2775  0.4960
18112SOL    HW158698   6.230   9.887   5.022 -2.0071  0.8313 -0.5135
18112SOL    HW258699   6.237   9.875   4.871  0.8781 -0.6783 -0.3165
18113SOL     OW58700  10.555   2.547   1.540 -0.1901  0.1050  0.3699
18113SOL    HW158701  10.487   2.480   1.536 -0.9901  0.9179 -0.0192
18113SOL    HW258702  10.637   2.498   1.535 -0.7575 -0.7331 -1.6678
18114SOL     OW58703   0.503   2.603   1.204 -0.2559 -0.5921 -0.0904
18114SOL    HW158704   0.434   2.578   1.266 -0.6676  0.0445 -0.2845
18114SOL    HW258705   0.503   2.698   1.204 -0.8995 -0.5550 -1.7436
18115SOL     OW58706   1.950   0.773   5.287 -0.0423  0.2631 -0.1094
18115SOL    HW158707   1.914   0.793   5.200  0.0358  2.3618  0.2927
18115SOL    HW258708   2.044   0.766   5.272 -0.2091 -1.7652 -0.5543
18116SOL     OW58709   5.387   0.595   8.589 -0.1588  0.2455 -0.5488
18116SOL    HW158710   5.462   0.546   8.622 -0.2906 -1.5997 -2.7205
18116SOL    HW258711   5.315   0.571   8.647  0.6304  1.1938  0.9007
18117SOL     OW58712   3.382   7.337   5.177 -0.0337 -0.2527  0.7134
18117SOL    HW158713   3.306   7.392   5.199 -0.4298 -0.1748 -0.7386
18117SOL    HW258714   3.434   7.335   5.257  0.5116  3.0738  0.5897
18118SOL     OW58715  11.004   0.058  10.175 -0.1875  0.2367 -0.0518
18118SOL    HW158716  10.981   0.032  10.086  2.0571  0.4673 -0.7870
18118SOL    HW258717  10.926   0.101  10.209 -1.5121 -0.9504 -1.4498
18119SOL     OW58718   7.032   9.107   1.616 -0.4354 -0.1682 -0.3774
18119SOL    HW158719   7.116   9.147   1.641 -1.6105  2.8654 -0.8271
18119SOL    HW258720   7.051   9.063   1.533  0.6666  0.7156 -0.6261
18120SOL     OW58721   4.915   0.232   2.268 -0.4842 -0.3854 -0.0843
18120SOL    HW158722   4.873   0.309   2.304 -0.3711 -1.6046  2.9926
18120SOL    HW258723   4.844   0.168   2.259 -0.1986 -0.6908 -0.1890
18121SOL     OW58724   9.802   7.768   2.589 -0.6616 -0.5076 -0.5846
18121SOL    HW158725   9.837   7.738   2.673 -1.3332 -0.3741 -0.2468
18121SOL    HW258726   9.707   7.765   2.600 -0.7846 -1.5926 -1.7275
18122SOL     OW58727   5.295   9.313   0.045  0.4823 -0.1671 -0.6098
18122SOL    HW158728   5.318   9.286  -0.044 -1.4482 -3.4795 -0.2214
18122SOL    HW258729   5.219   9.370   0.034  1.0152  0.4787 -1.0947
18123SOL     OW58730   9.994   0.832   1.470  0.5895 -0.0611 -0.4329
18123SOL    HW158731  10.037   0.762   1.519  0.1111 -0.3304 -0.3834
18123SOL    HW258732  10.000   0.908   1.527  0.2707 -0.3059 -0.0658
18124SOL     OW58733   5.114   4.035   8.622  0.3550  0.1953  0.4794
18124SOL    HW158734   5.180   4.104   8.624  1.6365 -0.9756 -0.2150
18124SOL    HW258735   5.158   3.958   8.657  0.2512 -1.2951 -2.3812
18125SOL     OW58736   1.933  10.847   5.512  0.3480 -0.3003  0.5638
18125SOL    HW158737   1.907  10.935   5.485  0.7114 -0.0021  1.1824
18125SOL    HW258738   2.020  10.835   5.474  0.1066 -0.5787  0.0852
18126SOL     OW58739   4.181   3.671  11.108 -0.2951  0.7043 -0.3203
18126SOL    HW158740   4.191   3.578  11.084  1.7888  0.8354 -0.1556
18126SOL    HW258741   4.154   3.714  11.027  0.0159  0.1495 -0.7218
18127SOL     OW58742   7.815   6.865   7.205 -0.3005 -0.0160  0.5237
18127SOL    HW158743   7.726   6.832   7.193  0.1144 -0.5189 -1.6599
18127SOL    HW258744   7.869   6.808   7.149  1.0156  1.8481 -0.1969
18128SOL     OW58745  10.549   7.139  10.357 -0.7643 -0.3108  0.0002
18128SOL    HW158746  10.575   7.151  10.448  1.5871  0.4915 -0.7039
18128SOL    HW258747  10.501   7.057  10.357 -0.4435 -0.5494  1.9070
18129SOL     OW58748   4.490   0.689   6.192 -0.6897  0.2354  0.3329
18129SOL    HW158749   4.429   0.753   6.157 -0.8514 -0.2498 -0.2896
18129SOL    HW258750   4.494   0.620   6.126  2.4355  1.3926 -0.8953
18130SOL     OW58751   9.110   4.321   6.473 -0.2021 -0.6555 -0.0101
18130SOL    HW158752   9.162   4.356   6.401 -0.8776 -0.5758 -0.4686
18130SOL    HW258753   9.118   4.386   6.542 -2.6860  1.3142 -1.3762
18131SOL     OW58754   0.998   6.837   2.666 -0.0792  0.0590  0.0097
18131SOL    HW158755   0.944   6.763   2.637  0.2282  0.1916 -0.9197
18131SOL    HW258756   0.975   6.848   2.759 -1.6548  0.1114 -0.3524
18132SOL     OW58757   1.780   8.329   2.993  0.5331  0.1691 -0.0497
18132SOL    HW158758   1.700   8.283   2.970  0.0659  0.9349  0.0139
18132SOL    HW258759   1.808   8.288   3.075  0.2835 -0.1981 -0.1464
18133SOL     OW58760   2.602   2.669   8.741 -0.1772  0.4422 -0.4450
18133SOL    HW158761   2.541   2.705   8.676  0.7410  0.0914 -1.5413
18133SOL    HW258762   2.553   2.670   8.823 -1.7650 -0.1064 -1.3322
18134SOL     OW58763   6.019   9.581   7.429  0.3180 -0.4227 -0.6081
18134SOL    HW158764   6.034   9.649   7.495 -2.0440  0.6979 -1.1168
18134SOL    HW258765   6.081   9.601   7.359  1.5172 -0.4781  0.3970
18135SOL     OW58766   1.673   1.756   1.226 -0.1676 -0.0016 -0.1246
18135SOL    HW158767   1.680   1.668   1.189  2.4495 -0.0362  0.2435
18135SOL    HW258768   1.670   1.742   1.320  2.0712  0.2654  0.0462
18136SOL     OW58769   8.313   5.771   8.400 -0.0774  0.2257 -0.1253
18136SOL    HW158770   8.273   5.824   8.468  0.1948 -0.2630  0.4208
18136SOL    HW258771   8.396   5.742   8.437 -0.9569 -2.0065  0.2919
18137SOL     OW58772   1.813   2.747   4.113 -0.3113  0.6982 -0.1055
18137SOL    HW158773   1.884   2.798   4.074 -0.0555  0.8126  0.4912
18137SOL    HW258774   1.792   2.794   4.195 -0.4485  0.1518  0.1786
18138SOL     OW58775   2.393   9.737   8.919 -0.0780 -0.3251 -0.2674
18138SOL    HW158776   2.342   9.670   8.966  0.8236  0.1554  1.5025
18138SOL    HW258777   2.424   9.795   8.988 -0.6812  1.8526 -1.7321
18139SOL     OW58778   5.344   6.105   2.459 -0.1055 -0.1284  0.3381
18139SOL    HW158779   5.338   6.193   2.422  0.0597 -0.3413 -0.2232
18139SOL    HW258780   5.374   6.051   2.385 -0.4766 -0.7027  0.5995
18140SOL     OW58781   1.268   6.775   1.190  0.5057 -0.7208 -0.5866
18140SOL    HW158782   1.224   6.700   1.150  1.5024 -1.2992 -0.6504
18140SOL    HW258783   1.201   6.817   1.244 -0.6939 -0.3089 -2.3105
18141SOL     OW58784   8.946   7.281   1.327 -0.1216  0.9391 -0.5669
18141SOL    HW158785   9.028   7.330   1.334  1.2206 -1.0679 -1.3000
18141SOL    HW258786   8.946   7.224   1.404 -0.6888  0.7376 -0.7138
18142SOL     OW58787   0.096   3.395   9.654 -0.6076  0.7232 -0.2109
18142SOL    HW158788   0.040   3.471   9.640  2.2004  3.0891  0.3521
18142SOL    HW258789   0.182   3.432   9.676  1.2131 -2.6225 -0.9582
18143SOL     OW58790   2.510  10.652  10.525  0.4518  0.3739 -0.0637
18143SOL    HW158791   2.594  10.614  10.498 -0.2890 -0.8261 -0.7759
18143SOL    HW258792   2.445  10.592  10.491 -0.7072  1.2010  0.6258
18144SOL     OW58793   5.659   9.937  10.334 -0.2193  0.4667  0.1247
18144SOL    HW158794   5.675   9.913  10.243  0.0122  0.8911  0.0557
18144SOL    HW258795   5.567   9.916  10.348  0.0545 -0.8156  0.1695
18145SOL     OW58796   6.203   7.532   7.815  0.4696  0.4802 -0.1077
18145SOL    HW158797   6.227   7.620   7.845  0.4655  0.4321  0.0405
18145SOL    HW258798   6.247   7.522   7.731  3.2906 -0.6333  1.3586
18146SOL     OW58799   9.456   3.723   5.326 -0.7457 -0.5603 -0.0132
18146SOL    HW158800   9.402   3.774   5.387  0.8923  0.4976  0.6049
18146SOL    HW258801   9.401   3.713   5.248 -2.1562 -0.2870  0.9167
18147SOL     OW58802  10.319   7.902   0.042 -0.4796 -0.7726 -0.2271
18147SOL    HW158803  10.337   7.893   0.136 -0.9884 -1.4369 -0.1896
18147SOL    HW258804  10.239   7.954   0.038  0.2254  0.3418 -0.3389
18148SOL     OW58805   3.354   6.636   7.363  0.0519 -0.6704 -0.0269
18148SOL    HW158806   3.376   6.566   7.424 -0.9250 -1.9895 -1.1165
18148SOL    HW258807   3.259   6.638   7.362  0.0394 -0.6613 -1.4336
18149SOL     OW58808   7.801   8.901   0.797  0.3568  0.0421  0.1222
18149SOL    HW158809   7.879   8.936   0.754 -0.1715  0.4658 -0.5118
18149SOL    HW258810   7.804   8.807   0.781  1.1161 -0.0446  0.7332
18150SOL     OW58811   8.306   3.682   3.265  0.1519  0.7341  0.2279
18150SOL    HW158812   8.260   3.732   3.198  1.5972  1.8093 -0.0078
18150SOL    HW258813   8.248   3.684   3.341 -0.7697  0.9187 -0.4702
18151SOL     OW58814   4.044   4.722   2.023 -0.0139  0.1755  0.5475
18151SOL    HW158815   4.099   4.751   1.950  0.6715 -0.5700  0.7522
18151SOL    HW258816   3.960   4.702   1.983  1.3639 -3.8619 -0.8290
18152SOL     OW58817   8.507   8.470   6.124 -0.0004 -0.1622 -0.2040
18152SOL    HW158818   8.461   8.532   6.182  0.1649 -0.1164 -0.1222
18152SOL    HW258819   8.443   8.401   6.108 -1.1427  1.2889 -2.3929
18153SOL     OW58820   3.541   1.949   5.287 -0.3125  0.5231  0.0990
18153SOL    HW158821   3.511   1.877   5.343  0.2739  0.1811 -0.0225
18153SOL    HW258822   3.521   1.920   5.198  0.8535  0.0494 -0.0247
18154SOL     OW58823   8.626   0.404   3.382  0.0376  0.2272 -0.2616
18154SOL    HW158824   8.564   0.437   3.318 -1.9471 -1.9721  0.3734
18154SOL    HW258825   8.650   0.317   3.349  1.6858  0.4462  0.2683
18155SOL     OW58826   3.363   3.585   8.935  0.2713  0.3357 -0.3467
18155SOL    HW158827   3.455   3.559   8.940  0.0531 -0.4197 -0.0763
18155SOL    HW258828   3.326   3.527   8.868 -0.3901 -0.5879  0.7798
18156SOL     OW58829   4.456   0.996   7.247  0.0373 -0.1135 -0.4148
18156SOL    HW158830   4.511   0.929   7.208  2.3180  1.4151 -0.0161
18156SOL    HW258831   4.405   1.030   7.174  1.8494  0.4597 -1.4734
18157SOL     OW58832   1.850   4.386   5.753  0.1651 -0.1084  0.3876
18157SOL    HW158833   1.809   4.328   5.688 -0.4744  1.7533 -0.9305
18157SOL    HW258834   1.937   4.403   5.718  0.3006 -0.1435  0.7069
18158SOL     OW58835   4.527  10.454   0.072  0.4344 -0.1923 -0.2950
18158SOL    HW158836   4.598  10.510   0.104 -1.1275  2.4770 -1.2436
18158SOL    HW258837   4.494  10.410   0.150  1.0645  0.9838  0.6613
18159SOL     OW58838   1.041   7.922   3.073 -0.4545 -0.4053 -0.0992
18159SOL    HW158839   1.038   7.873   2.991 -1.0617 -0.8002  0.1435
18159SOL    HW258840   0.953   7.909   3.111  0.4502 -1.9719  1.6148
18160SOL     OW58841   7.653   7.006   1.630  0.2957  0.6584 -0.3066
18160SOL    HW158842   7.577   7.016   1.687 -0.3891 -0.5276 -0.9725
18160SOL    HW258843   7.711   6.947   1.677  0.2030  0.5053 -0.3853
18161SOL     OW58844   7.382   9.571   5.205 -0.2927 -0.0581 -0.7298
18161SOL    HW158845   7.424   9.547   5.122 -0.7485  0.5851 -1.1664
18161SOL    HW258846   7.355   9.663   5.192  0.2952  0.2966  0.4049
18162SOL     OW58847   1.802   0.514   0.763  0.0380 -0.3712 -0.0774
18162SOL    HW158848   1.721   0.482   0.724 -1.6311 -0.1255  2.8398
18162SOL    HW258849   1.856   0.436   0.775 -1.8651 -1.4912  2.2795
18163SOL     OW58850   6.356   5.525  10.588 -0.4948  0.8433  0.1319
18163SOL    HW158851   6.285   5.583  10.560 -0.6839 -0.3040 -1.9540
18163SOL    HW258852   6.434   5.562  10.548 -0.6322 -0.3253 -1.3073
18164SOL     OW58853   4.815   4.715   6.051  0.3509  0.0844  0.2049
18164SOL    HW158854   4.854   4.691   6.135  1.1045 -3.6236 -1.0104
18164SOL    HW258855   4.850   4.651   5.990 -3.7942 -0.4101 -2.0000
18165SOL     OW58856   5.073   7.417   5.956  0.7877 -0.0806 -0.2525
18165SOL    HW158857   5.162   7.391   5.933  0.5501 -0.6521 -0.5363
18165SOL    HW258858   5.069   7.409   6.051  1.0989  0.1462 -0.2182
18166SOL     OW58859   4.958   4.561  11.073 -0.1188  0.3879 -0.4084
18166SOL    HW158860   4.930   4.539  10.984 -0.2591 -0.8709 -0.0657
18166SOL    HW258861   4.918   4.494  11.128 -0.3021  1.3392  0.6570
18167SOL     OW58862   2.188   1.333   1.626  0.0440 -0.0262  0.2442
18167SOL    HW158863   2.229   1.414   1.656 -0.0167 -0.1649  0.7086
18167SOL    HW258864   2.256   1.288   1.576  0.2853  0.0043  0.5439
18168SOL     OW58865   6.899  10.869   1.393  0.8254  0.4662  0.1803
18168SOL    HW158866   6.861  10.891   1.477  3.8529  1.0568  1.5503
18168SOL    HW258867   6.855  10.927   1.330 -2.8372 -1.2936  0.8726
18169SOL     OW58868   9.546   9.102  10.262  0.0028  0.0245 -0.0192
18169SOL    HW158869   9.592   9.042  10.203 -0.4971  0.1499 -0.5550
18169SOL    HW258870   9.556   9.064  10.349  0.1922 -0.5179 -0.2746
18170SOL     OW58871   8.971   1.045   1.220 -0.4382 -0.1549  0.4836
18170SOL    HW158872   9.008   1.120   1.267  1.3520 -1.2585  0.9178
18170SOL    HW258873   8.905   1.010   1.279  1.1570 -0.9794  1.8619
18171SOL     OW58874   1.261   2.477   3.672 -0.5220 -0.1699  0.2046
18171SOL    HW158875   1.320   2.407   3.701 -1.3280 -0.5562  0.9617
18171SOL    HW258876   1.285   2.552   3.727  0.2907  0.1526 -0.5550
18172SOL     OW58877   3.941   0.731   8.246 -0.4788  0.4973 -0.2549
18172SOL    HW158878   4.027   0.756   8.210 -0.6189  0.2554 -0.7751
18172SOL    HW258879   3.941   0.636   8.242 -1.1471  0.5220 -1.1775
18173SOL     OW58880   6.519   9.187   4.212 -0.3618  0.1826  0.0236
18173SOL    HW158881   6.441   9.234   4.185  0.0095 -0.0185 -1.4651
18173SOL    HW258882   6.509   9.177   4.307 -1.3919  1.4848  0.0753
18174SOL     OW58883   5.958   4.216   4.287 -0.4950  0.0775 -0.2049
18174SOL    HW158884   5.922   4.302   4.267  2.1904  1.4682  0.4784
18174SOL    HW258885   5.909   4.187   4.364  0.6352  2.5136  1.5566
18175SOL     OW58886   1.357   7.931   6.594 -0.5123  0.0812  0.2242
18175SOL    HW158887   1.405   7.869   6.648 -0.9311  0.2867  0.8410
18175SOL    HW258888   1.268   7.929   6.628 -0.3547  1.6370  0.8208
18176SOL     OW58889   7.809   0.162   1.792 -0.3049  0.5522 -0.0081
18176SOL    HW158890   7.783   0.190   1.880 -0.0287 -0.3664  0.3854
18176SOL    HW258891   7.749   0.090   1.772 -0.0451  0.4331 -0.3605
18177SOL     OW58892   5.870   4.651   9.438 -0.3823 -0.7059  0.5210
18177SOL    HW158893   5.964   4.664   9.435 -0.5547  0.8323  0.9372
18177SOL    HW258894   5.835   4.719   9.381 -1.2128 -1.9040 -0.4591
18178SOL     OW58895   9.373   9.525   0.776 -0.0284  1.0377  0.1946
18178SOL    HW158896   9.388   9.482   0.860  2.5790  2.6561  0.6589
18178SOL    HW258897   9.400   9.460   0.711 -1.3392  0.0608  0.5696
18179SOL     OW58898   3.472   3.734   0.466  0.0398 -0.3141 -0.6029
18179SOL    HW158899   3.426   3.815   0.443 -1.8439 -1.1252  0.0786
18179SOL    HW258900   3.471   3.683   0.385 -0.2225 -0.3101 -0.6032
18180SOL     OW58901   9.675   2.154   7.280  0.7372 -0.8914 -0.0711
18180SOL    HW158902   9.734   2.121   7.348 -0.0947 -0.9540  0.6434
18180SOL    HW258903   9.675   2.085   7.214  0.3962 -1.5309  0.5771
18181SOL     OW58904   5.133   4.981   0.369 -0.0417  0.3981  0.0456
18181SOL    HW158905   5.069   4.916   0.340 -0.8301  1.1916 -0.0017
18181SOL    HW258906   5.171   5.015   0.288  0.4540 -0.0579  0.0727
18182SOL     OW58907   7.405   9.155   0.432  0.0566  0.2599  0.0773
18182SOL    HW158908   7.335   9.194   0.485  1.6435  1.3194  1.5131
18182SOL    HW258909   7.417   9.217   0.359 -1.0558 -0.3777 -0.6701
18183SOL     OW58910   6.461   1.316   3.788 -0.2114  0.3664  0.2521
18183SOL    HW158911   6.387   1.290   3.734 -0.1347  1.5345 -0.4483
18183SOL    HW258912   6.517   1.368   3.729  2.4695 -2.4917 -0.0222
18184SOL     OW58913  10.658   0.215   9.064  0.3164  0.2680 -0.7166
18184SOL    HW158914  10.701   0.136   9.098 -1.5286 -1.1812 -1.5345
18184SOL    HW258915  10.727   0.282   9.064  2.5076 -1.8069 -1.7235
18185SOL     OW58916   6.787   8.804   1.615  0.1527  0.3671 -0.5043
18185SOL    HW158917   6.838   8.754   1.551 -0.7802 -0.6060 -0.5198
18185SOL    HW258918   6.716   8.844   1.565  0.4666  1.0990 -0.3674
18186SOL     OW58919   2.167   6.970   8.063  0.7961  0.0720  0.0706
18186SOL    HW158920   2.248   6.955   8.112  0.3908  0.7322  0.9865
18186SOL    HW258921   2.113   7.023   8.123  0.6718  1.7923 -1.4741
18187SOL     OW58922   2.837  10.013   5.730 -0.0087 -0.1210 -0.1702
18187SOL    HW158923   2.892  10.026   5.807 -0.5700 -1.1611  0.4385
18187SOL    HW258924   2.898   9.989   5.661  0.4325  0.0248  0.1648
18188SOL     OW58925   0.228   6.590   8.513 -0.3793 -0.0132 -0.4243
18188SOL    HW158926   0.172   6.573   8.438 -1.5963  1.2371  0.1444
18188SOL    HW258927   0.240   6.685   8.512  3.6506 -0.3479 -1.8095
18189SOL     OW58928   0.513   0.527   4.942  0.3575  0.2709  0.0436
18189SOL    HW158929   0.536   0.449   4.992 -0.7809  0.1496  0.3938
18189SOL    HW258930   0.489   0.495   4.855 -0.2395  0.2144  0.2278
18190SOL     OW58931   3.469   0.543   2.400 -0.0619  0.5976  0.1127
18190SOL    HW158932   3.471   0.608   2.330 -2.4544  0.1920 -0.4141
18190SOL    HW258933   3.484   0.594   2.480  0.8741  1.3415 -0.5199
18191SOL     OW58934   9.760   5.512   6.390 -0.3227  0.0567  0.1094
18191SOL    HW158935   9.745   5.510   6.295  0.6383  1.0047 -0.0891
18191SOL    HW258936   9.678   5.544   6.427 -0.7988 -0.5938 -0.3711
18192SOL     OW58937  10.675   0.776   3.036  0.3058  0.0062  0.1169
18192SOL    HW158938  10.610   0.837   3.002  0.6203 -0.5548 -1.5649
18192SOL    HW258939  10.733   0.758   2.962  1.7456 -0.3471  1.2769
18193SOL     OW58940   9.329   5.405   1.809 -1.1574  0.5071 -0.5289
18193SOL    HW158941   9.350   5.402   1.715  0.2273 -0.7866 -0.2146
18193SOL    HW258942   9.255   5.345   1.818 -0.9509  0.2202 -0.7168
18194SOL     OW58943   6.052   3.496   4.659  0.1014 -0.0368  0.2533
18194SOL    HW158944   6.109   3.556   4.611 -0.4324  0.5201  0.2949
18194SOL    HW258945   6.002   3.451   4.591  0.3820 -0.3191  0.2298
18195SOL     OW58946   0.981   8.807   4.297 -0.2778 -0.0640 -0.2628
18195SOL    HW158947   0.941   8.765   4.373  0.0941 -0.0165 -0.0407
18195SOL    HW258948   1.075   8.795   4.309 -0.2634 -2.3036 -1.9952
18196SOL     OW58949   4.599   7.229   3.634  0.0187  0.0928 -0.0015
18196SOL    HW158950   4.683   7.242   3.589  0.5680 -0.1534  0.9085
18196SOL    HW258951   4.587   7.308   3.686 -1.9145  1.5703 -2.4899
18197SOL     OW58952   2.807  10.521   1.667  0.0096 -0.5849  0.0198
18197SOL    HW158953   2.871  10.565   1.611 -2.6564  2.6978 -0.8068
18197SOL    HW258954   2.781  10.443   1.618  2.7290 -1.6207  0.0738
18198SOL     OW58955   2.316   1.282   2.720  0.1239 -0.5571  0.0763
18198SOL    HW158956   2.264   1.353   2.683 -0.4724 -0.3168  1.3125
18198SOL    HW258957   2.403   1.320   2.732  0.1732 -0.4692 -0.5420
18199SOL     OW58958   2.927   6.721   4.754 -0.3495 -0.2535  0.2269
18199SOL    HW158959   2.895   6.767   4.676 -1.2060 -0.2545  0.5729
18199SOL    HW258960   2.857   6.730   4.818  0.0516 -0.8645  0.7650
18200SOL     OW58961   5.719   6.723   9.485 -0.2247 -0.2557 -0.5667
18200SOL    HW158962   5.805   6.745   9.448  0.0625 -1.9824 -1.0067
18200SOL    HW258963   5.656   6.757   9.422 -0.0196  2.9209  0.7619
18201SOL     OW58964   8.147   4.896   0.072  0.0406  0.3650 -0.0079
18201SOL    HW158965   8.078   4.943   0.026  0.5793  0.5636 -0.6354
18201SOL    HW258966   8.164   4.950   0.150  1.7078  2.1569 -1.4668
18202SOL     OW58967   2.211   5.168  11.063  0.1220  0.1842 -0.3705
18202SOL    HW158968   2.233   5.086  11.107 -0.2408 -0.0615 -0.6377
18202SOL    HW258969   2.178   5.225  11.133  2.2816  0.8497  0.1977
18203SOL     OW58970   4.735   2.377   4.865  0.4977  0.5992 -0.1929
18203SOL    HW158971   4.813   2.424   4.893  0.6531  0.4466 -0.3682
18203SOL    HW258972   4.715   2.412   4.779 -1.3111  2.7331  0.9894
18204SOL     OW58973   2.915   5.333   5.857 -0.1435  0.4122  0.0071
18204SOL    HW158974   2.858   5.288   5.795  0.6891 -0.7620  0.0559
18204SOL    HW258975   2.870   5.325   5.941 -0.8229  1.1965 -0.2668
18205SOL     OW58976   1.050   8.462   9.334 -0.3762  0.0483 -0.1828
18205SOL    HW158977   1.012   8.544   9.366  0.7190  0.3824  0.2930
18205SOL    HW258978   1.045   8.402   9.409  3.1812  1.1582  1.1069
18206SOL     OW58979   1.679   6.228   3.779 -0.9387 -0.0483 -0.0034
18206SOL    HW158980   1.661   6.289   3.708 -0.3381 -0.8660 -0.8911
18206SOL    HW258981   1.765   6.254   3.811 -0.4052 -0.7597 -0.7876
18207SOL     OW58982   5.876   6.704   3.447 -0.2858  0.1305 -0.0256
18207SOL    HW158983   5.852   6.652   3.370  1.2724 -0.1860 -0.3435
18207SOL    HW258984   5.834   6.789   3.432 -0.7492 -0.2195 -0.7852
18208SOL     OW58985   4.378   8.694   9.871  0.1407 -0.5215  0.0689
18208SOL    HW158986   4.444   8.764   9.860  0.4897 -1.0502 -1.5633
18208SOL    HW258987   4.294   8.740   9.869  0.3711 -0.1165 -0.8149
18209SOL     OW58988   4.245   8.364   6.395 -0.3485  0.0388 -0.2113
18209SOL    HW158989   4.219   8.341   6.306  0.6522 -1.7774 -0.0793
18209SOL    HW258990   4.339   8.381   6.389  0.2188 -2.3676  0.8457
18210SOL     OW58991   0.203  11.103   9.793 -0.2439  0.2981 -0.5014
18210SOL    HW158992   0.291  11.077   9.766 -0.5545  0.4029 -1.6797
18210SOL    HW258993   0.152  11.103   9.712 -1.5348 -0.5373  0.2669
18211SOL     OW58994   7.336   3.067   6.632 -0.2980  0.0451 -0.2860
18211SOL    HW158995   7.264   3.099   6.577 -1.9353 -1.6327  0.7755
18211SOL    HW258996   7.412   3.065   6.573 -1.8389 -1.0762 -2.3652
18212SOL     OW58997   4.586   4.610   5.639 -0.0587 -0.0912  0.0458
18212SOL    HW158998   4.567   4.589   5.548 -1.3011 -0.0725  0.2928
18212SOL    HW258999   4.670   4.657   5.636  0.7378 -1.5239 -0.9041
18213SOL     OW59000   3.006  10.831   6.238 -0.1020  0.3333  0.0365
18213SOL    HW159001   2.984  10.770   6.308 -1.0470  0.2930 -0.2839
18213SOL    HW259002   3.101  10.828   6.232 -0.0335  0.1227  1.1190
18214SOL     OW59003  10.139   8.495   8.893 -0.4481  0.0918 -0.1211
18214SOL    HW159004  10.108   8.568   8.947  0.5747 -0.2947  1.0429
18214SOL    HW259005  10.211   8.533   8.841  0.0476 -0.0593  0.4449
18215SOL     OW59006   9.993   6.111   7.420 -0.0319 -0.2379  0.3556
18215SOL    HW159007   9.981   6.156   7.503  0.4092  1.8728 -0.6777
18215SOL    HW259008  10.084   6.083   7.420  0.7308  2.0524 -0.4410
18216SOL     OW59009   1.022   2.534   4.438 -0.4090  0.3104 -0.0166
18216SOL    HW159010   1.115   2.542   4.414 -0.8971  2.5418 -1.4174
18216SOL    HW259011   0.984   2.482   4.367 -0.7516  1.9676 -1.0972
18217SOL     OW59012   8.385   7.792   8.297  0.0320 -0.3370  0.0015
18217SOL    HW159013   8.336   7.794   8.379 -0.6092  1.3131 -0.3745
18217SOL    HW259014   8.403   7.699   8.281 -0.9915 -0.7813  1.3171
18218SOL     OW59015   8.861   0.821   5.081 -0.4104 -0.1531  0.1839
18218SOL    HW159016   8.802   0.815   5.155 -1.2489  1.0382 -0.3605
18218SOL    HW259017   8.914   0.741   5.086 -1.1370 -0.5787  1.4580
18219SOL     OW59018   4.857   2.395   1.625 -0.6062 -0.1994 -0.1597
18219SOL    HW159019   4.817   2.329   1.683  1.0418  0.2127  1.5303
18219SOL    HW259020   4.947   2.402   1.655 -0.4687  2.1211 -0.9544
18220SOL     OW59021   7.625   3.717   8.507  0.3773 -0.8540  0.0534
18220SOL    HW159022   7.530   3.726   8.517  0.5188 -0.4689  1.2822
18220SOL    HW259023   7.640   3.623   8.498 -0.2554 -0.7919 -2.0256
18221SOL     OW59024   3.470   5.543   8.109  0.0048 -0.1584 -0.4377
18221SOL    HW159025   3.413   5.480   8.064 -2.1115  1.3460 -0.0316
18221SOL    HW259026   3.410   5.613   8.137  1.3167 -0.3657  3.5647
18222SOL     OW59027   6.345   1.459   7.523  0.4615 -0.2552 -0.1937
18222SOL    HW159028   6.296   1.462   7.441 -1.1793 -2.5754  0.5896
18222SOL    HW259029   6.392   1.375   7.519 -0.9538 -1.2145  1.8566
18223SOL     OW59030   0.518   1.286   7.942 -0.1363 -0.7166 -0.2902
18223SOL    HW159031   0.542   1.208   7.892  0.2409 -1.4835  1.0265
18223SOL    HW259032   0.516   1.257   8.033  2.4033  1.3000  0.5507
18224SOL     OW59033   4.813  10.244   5.170  0.3764  0.5073 -0.5143
18224SOL    HW159034   4.798  10.189   5.247  3.6270 -1.6068 -1.1596
18224SOL    HW259035   4.858  10.322   5.205  2.0927 -0.5687 -0.2013
18225SOL     OW59036   6.393   4.447   4.013 -0.1166  0.3520  0.6170
18225SOL    HW159037   6.349   4.372   3.973  1.8562 -0.6894  0.2629
18225SOL    HW259038   6.362   4.447   4.104 -1.3094  0.0805  0.2344
18226SOL     OW59039   2.699   7.851   2.693  0.2966  0.1134 -0.6579
18226SOL    HW159040   2.723   7.896   2.775  2.8214  0.8535 -1.7072
18226SOL    HW259041   2.630   7.906   2.656  1.1589  1.4293 -0.4025
18227SOL     OW59042   4.758  10.629   9.828  0.1653  0.4247  0.1533
18227SOL    HW159043   4.826  10.567   9.856 -0.0563 -1.1771 -2.4616
18227SOL    HW259044   4.676  10.585   9.850 -0.0002  0.4064 -0.4880
18228SOL     OW59045   5.037   5.344  10.158  0.0652  0.3223 -0.4931
18228SOL    HW159046   5.021   5.409  10.089  1.7212  1.1629 -0.1298
18228SOL    HW259047   5.020   5.391  10.239 -0.6553 -0.3008 -0.2751
18229SOL     OW59048  10.795   5.603   0.461 -0.0938  0.1060  0.6774
18229SOL    HW159049  10.719   5.643   0.419  1.4366  0.4825 -1.9090
18229SOL    HW259050  10.838   5.675   0.507  0.1926  0.4885 -0.1812
18230SOL     OW59051   0.635   6.371   4.954 -0.1394 -0.5515  0.8814
18230SOL    HW159052   0.596   6.290   4.988  0.0744  0.0495  2.7090
18230SOL    HW259053   0.726   6.347   4.936  0.1599 -0.5500  2.2509
18231SOL     OW59054  10.483   6.697   8.518  0.1816 -0.0409  0.1658
18231SOL    HW159055  10.395   6.680   8.549 -0.6723  1.3239 -1.3558
18231SOL    HW259056  10.501   6.788   8.544  0.9054 -0.1188 -0.0290
18232SOL     OW59057   4.024   9.192   3.317  0.0829 -0.6688 -0.3893
18232SOL    HW159058   4.013   9.225   3.228 -0.3769  3.0409  0.8925
18232SOL    HW259059   4.118   9.203   3.335 -0.2962  1.4417  0.5124
18233SOL     OW59060   8.572   3.488   3.825  0.4442  0.3847 -0.3073
18233SOL    HW159061   8.534   3.553   3.767 -0.9175  0.2164  0.3644
18233SOL    HW259062   8.508   3.418   3.828  1.9937 -1.1717 -1.2402
18234SOL     OW59063   5.480   3.232   5.868  0.0017 -0.0157  0.6888
18234SOL    HW159064   5.529   3.305   5.906  0.6912 -0.7156  1.1610
18234SOL    HW259065   5.429   3.196   5.941  1.1052 -1.1782  0.9231
18235SOL     OW59066  10.807   4.820   3.496  0.0127 -0.0956 -0.3689
18235SOL    HW159067  10.856   4.815   3.415  0.0896  0.5454 -0.3660
18235SOL    HW259068  10.716   4.804   3.471  0.0649 -0.1059 -0.5475
18236SOL     OW59069  10.504   8.327   6.926  0.1192  0.2889 -0.1616
18236SOL    HW159070  10.477   8.269   6.856  1.8075 -0.2207 -0.4273
18236SOL    HW259071  10.585   8.289   6.960  0.1433  1.3440  1.0646
18237SOL     OW59072   2.649   3.401   9.826  0.1204  0.1763  0.2402
18237SOL    HW159073   2.684   3.402   9.915 -0.5028  1.3794  0.4825
18237SOL    HW259074   2.727   3.397   9.770  0.5392  0.1299  0.8148
18238SOL     OW59075   9.753   2.464   2.883  0.5842  0.1371 -0.2760
18238SOL    HW159076   9.743   2.548   2.926 -1.1637 -0.9981  1.7044
18238SOL    HW259077   9.847   2.446   2.888  0.5627  0.3618  2.6254
18239SOL     OW59078   5.801   7.162   4.918  0.0059  0.2291 -0.1556
18239SOL    HW159079   5.755   7.246   4.921  0.1145  0.2637  0.9061
18239SOL    HW259080   5.732   7.098   4.904 -0.0804  0.4875 -0.9518
18240SOL     OW59081   8.759   1.713   8.417  0.1637  0.2318 -0.5227
18240SOL    HW159082   8.755   1.640   8.478 -1.6544  1.2793  0.6997
18240SOL    HW259083   8.728   1.678   8.334 -0.1102 -0.5200 -0.1044
18241SOL     OW59084   9.168   1.783   9.498  0.1724 -0.4139 -0.4154
18241SOL    HW159085   9.232   1.773   9.568 -2.1714  0.0933  1.9533
18241SOL    HW259086   9.131   1.695   9.487  0.4796 -0.4758 -1.0063
18242SOL     OW59087   4.696   8.049  10.063  0.5755  0.2470 -0.1031
18242SOL    HW159088   4.627   8.110  10.086  0.2747 -0.5048  1.0714
18242SOL    HW259089   4.749   8.041  10.142  0.9149 -0.5965 -0.3975
18243SOL     OW59090   4.789   5.505   0.373  0.2503  0.2033 -0.0695
18243SOL    HW159091   4.867   5.468   0.415  1.0379 -0.1103 -1.7415
18243SOL    HW259092   4.823   5.568   0.310 -0.7337 -0.7951 -1.6851
18244SOL     OW59093   4.127   3.800   1.983 -0.3469 -0.0004 -0.3397
18244SOL    HW159094   4.081   3.717   1.991  1.0344 -0.7685 -0.2578
18244SOL    HW259095   4.103   3.832   1.895 -0.0377 -1.0080 -0.8079
18245SOL     OW59096   6.498   3.952   7.712 -0.1689  0.2366 -0.2330
18245SOL    HW159097   6.558   3.951   7.787  0.7994 -0.3054 -0.9917
18245SOL    HW259098   6.463   3.863   7.707  0.6531 -0.0662 -1.0816
18246SOL     OW59099   2.593   2.233   7.987  0.2240 -0.3663  0.0418
18246SOL    HW159100   2.544   2.259   8.066 -0.2250 -0.3987 -0.2240
18246SOL    HW259101   2.641   2.312   7.962  2.7520 -1.1237  2.0457
18247SOL     OW59102   3.400   8.464   8.366  0.2064  0.2611  0.0630
18247SOL    HW159103   3.402   8.384   8.418 -1.4531  0.4276  0.4310
18247SOL    HW259104   3.362   8.530   8.424  2.6109  1.6721  0.1789
18248SOL     OW59105   1.052   8.883   6.251 -0.8469 -0.8813  0.1863
18248SOL    HW159106   1.093   8.926   6.327 -0.4283 -0.6584 -0.1601
18248SOL    HW259107   1.124   8.835   6.210 -0.8300 -0.1594 -0.6677
18249SOL     OW59108   3.742   9.762   3.603  0.0761  0.5413 -0.4713
18249SOL    HW159109   3.736   9.671   3.633 -1.3011  0.9441  0.5612
18249SOL    HW259110   3.814   9.799   3.654 -0.0410  0.3094 -0.1341
18250SOL     OW59111   0.167   5.031   8.688 -0.2086  0.3862 -0.0994
18250SOL    HW159112   0.106   5.089   8.734 -3.0066  0.1098 -3.0095
18250SOL    HW259113   0.149   4.944   8.723  0.6099  0.6458  1.0101
18251SOL     OW59114   4.431   9.673   1.975 -0.1034 -0.4231  0.7551
18251SOL    HW159115   4.440   9.751   2.030  1.0820 -1.4673  2.1257
18251SOL    HW259116   4.428   9.601   2.037  1.1788 -1.6578 -0.5413
18252SOL     OW59117   3.711   4.486   0.412  0.1532  0.1573  0.1320
18252SOL    HW159118   3.696   4.563   0.357  1.4757 -0.7282 -1.5891
18252SOL    HW259119   3.804   4.490   0.434  0.6886 -1.7697 -1.4356
18253SOL     OW59120   7.933   3.766  10.368 -0.0483 -0.2786 -0.0735
18253SOL    HW159121   8.003   3.701  10.382 -0.6854 -0.9727 -0.0453
18253SOL    HW259122   7.925   3.811  10.451 -0.1920 -0.7667  0.1830
18254SOL     OW59123  10.647   0.860   2.447  0.2452 -0.5169  0.7158
18254SOL    HW159124  10.613   0.886   2.362 -0.4018 -0.2253  1.0606
18254SOL    HW259125  10.742   0.857   2.434  0.1478 -0.5684 -0.0366
18255SOL     OW59126   9.441   6.777   6.782 -0.3587 -0.1882  0.6978
18255SOL    HW159127   9.464   6.780   6.689 -2.1041 -1.6835  0.1432
18255SOL    HW259128   9.483   6.698   6.815  0.2643  0.3444  1.2006
18256SOL     OW59129   5.219   6.763   1.439  0.0325 -0.4176 -0.4436
18256SOL    HW159130   5.158   6.753   1.512 -1.9919 -3.4433 -2.3152
18256SOL    HW259131   5.216   6.856   1.417 -0.8123  0.2095  1.9829
18257SOL     OW59132   9.095   8.099   7.822  0.7564 -0.1952 -0.0956
18257SOL    HW159133   9.118   8.073   7.911 -0.1559  1.2425  0.6087
18257SOL    HW259134   9.143   8.180   7.807 -0.6240  0.6675 -0.1097
18258SOL     OW59135   2.068  10.705   1.044  0.1321 -0.4674  0.5018
18258SOL    HW159136   2.145  10.659   1.009 -0.3847  0.0766 -1.4611
18258SOL    HW259137   2.095  10.797   1.048  0.3427 -0.5729  2.0859
18259SOL     OW59138   1.190  10.478   6.816 -0.2940 -0.3926 -0.5946
18259SOL    HW159139   1.113  10.480   6.759  0.1052 -0.7940 -1.1658
18259SOL    HW259140   1.160  10.516   6.899 -0.4035  2.0379 -1.6524
18260SOL     OW59141   4.542   9.353   9.432  0.5864 -0.1532 -0.1088
18260SOL    HW159142   4.535   9.266   9.393 -1.2791 -0.4399  0.7401
18260SOL    HW259143   4.608   9.398   9.380  0.1508 -1.4185 -1.8372
18261SOL     OW59144  10.278  10.680   6.455 -0.5203 -0.1347  0.3884
18261SOL    HW159145  10.372  10.661   6.458 -0.6030 -0.9147 -0.9971
18261SOL    HW259146  10.237  10.609   6.505 -0.3970  0.0169  0.7060
18262SOL     OW59147   8.330   0.777  10.403 -0.0459  0.0237 -0.5523
18262SOL    HW159148   8.410   0.816  10.368  0.6270 -0.6866  0.1820
18262SOL    HW259149   8.282   0.747  10.325  1.6734 -2.0206 -0.8942
18263SOL     OW59150   8.377   2.980   1.452 -0.5242  0.0174  0.1914
18263SOL    HW159151   8.412   2.937   1.529  1.2454 -0.0598 -0.6134
18263SOL    HW259152   8.435   2.952   1.380  0.6704  3.5875 -0.4034
18264SOL     OW59153   8.086   4.098   6.269 -0.1148 -0.0437  0.4732
18264SOL    HW159154   8.019   4.078   6.335 -0.5712 -2.5512 -0.6320
18264SOL    HW259155   8.147   4.156   6.315 -2.0057  0.8253  2.1013
18265SOL     OW59156   9.448   8.730   6.891 -1.1646 -0.3647 -0.1523
18265SOL    HW159157   9.393   8.654   6.874  0.6580 -1.8995  0.5505
18265SOL    HW259158   9.476   8.720   6.982  1.9706 -0.8537 -1.0623
18266SOL     OW59159   0.659   5.161   2.226 -0.1893  0.8371  0.1486
18266SOL    HW159160   0.651   5.234   2.288 -0.1428 -0.1651  1.3640
18266SOL    HW259161   0.574   5.118   2.229 -0.0665  0.5666 -0.2281
18267SOL     OW59162   7.632   4.933   0.176  0.6248  0.2796 -0.0648
18267SOL    HW159163   7.643   4.964   0.086  0.8199  1.7900  0.4508
18267SOL    HW259164   7.562   4.869   0.171 -0.3854  1.4191 -1.0882
18268SOL     OW59165   2.218   7.428   1.012 -0.3510  0.1036 -0.1610
18268SOL    HW159166   2.143   7.389   1.057 -0.9714 -0.0765 -1.3129
18268SOL    HW259167   2.210   7.398   0.922  0.5521  0.9019 -0.5235
18269SOL     OW59168   6.202   6.716   7.155 -0.4464 -0.4950  0.2053
18269SOL    HW159169   6.159   6.737   7.238  1.6220 -0.0863  1.2345
18269SOL    HW259170   6.220   6.801   7.116 -2.8920 -0.6801 -1.5653
18270SOL     OW59171   1.964   6.719  10.124  0.1369 -0.3402 -0.1311
18270SOL    HW159172   2.052   6.725  10.159 -0.0343 -1.7603  0.5876
18270SOL    HW259173   1.919   6.657  10.181 -0.7572 -1.1260 -1.6280
18271SOL     OW59174   3.270   1.965   4.849  0.0112 -0.7179  0.1501
18271SOL    HW159175   3.191   1.971   4.903  0.9167  1.4545  1.3924
18271SOL    HW259176   3.251   2.020   4.773  0.3049 -0.1946  0.4492
18272SOL     OW59177   8.236   2.029  10.207  0.1204  0.1632  0.4080
18272SOL    HW159178   8.306   2.042  10.142 -0.2101 -1.0414 -0.2289
18272SOL    HW259179   8.160   2.003  10.155 -0.3399 -0.1497  1.2270
18273SOL     OW59180   9.214   2.728   7.051 -0.5139  0.3255 -0.4818
18273SOL    HW159181   9.281   2.717   6.984  0.0054 -2.0003  0.3167
18273SOL    HW259182   9.225   2.819   7.081  2.4255  0.0279 -0.2796
18274SOL     OW59183   7.891   8.601   2.894 -0.4795  0.0133 -0.3935
18274SOL    HW159184   7.888   8.538   2.822  1.2519  0.0474 -0.5333
18274SOL    HW259185   7.956   8.565   2.955  1.3616  2.1155 -0.9841
18275SOL     OW59186   3.190   5.300   7.997 -0.4373 -0.0002 -0.4735
18275SOL    HW159187   3.182   5.207   7.975  1.6784 -0.6351  1.0558
18275SOL    HW259188   3.254   5.333   7.934  2.3092 -0.7834  1.6927
18276SOL     OW59189   6.766   5.908   0.038  0.3428  0.2178  0.6165
18276SOL    HW159190   6.816   5.941  -0.036 -0.0544  1.7668  0.9942
18276SOL    HW259191   6.716   5.834   0.004  0.1423  0.9277 -0.6594
18277SOL     OW59192   3.420   5.396   7.501 -0.1510 -0.4550 -0.2798
18277SOL    HW159193   3.461   5.456   7.563 -0.7195 -0.6384  0.2876
18277SOL    HW259194   3.364   5.452   7.447  0.7358 -0.2244 -0.9660
18278SOL     OW59195   9.559   2.920   0.826  0.2726 -0.5770 -0.0503
18278SOL    HW159196   9.596   2.887   0.908  2.6395  1.9637  0.0475
18278SOL    HW259197   9.610   2.877   0.758  0.8667  0.0719 -0.0301
18279SOL     OW59198   9.082   9.806   1.958 -0.3180 -0.1671  0.2542
18279SOL    HW159199   9.101   9.725   2.006  0.6072 -0.2586 -0.2672
18279SOL    HW259200   8.992   9.794   1.927 -0.8512 -0.2168  1.7292
18280SOL     OW59201   4.102   5.131   0.287 -0.1908 -0.4548 -0.0725
18280SOL    HW159202   4.080   5.201   0.349 -0.3512 -0.7204  0.1717
18280SOL    HW259203   4.197   5.134   0.281  0.1134 -2.2322  2.3513
18281SOL     OW59204   5.579   1.680   0.155 -0.0291 -0.2291  0.0871
18281SOL    HW159205   5.541   1.639   0.233 -0.2352  0.2814  0.2638
18281SOL    HW259206   5.595   1.608   0.094 -0.3944 -0.5633  0.3855
18282SOL     OW59207   9.180   3.165  11.061  0.2433  0.3449 -0.1333
18282SOL    HW159208   9.130   3.097  11.017  0.2426  0.6662 -0.6316
18282SOL    HW259209   9.271   3.145  11.040  0.3565 -0.3595  0.9410
18283SOL     OW59210   6.770   0.303  10.680 -0.4437 -0.5754  0.2236
18283SOL    HW159211   6.858   0.341  10.686 -0.2899 -1.0545  1.3658
18283SOL    HW259212   6.740   0.301  10.771 -2.3961  1.2855 -0.3065
18284SOL     OW59213   3.687   9.902   0.298  0.3317  0.0186  0.4367
18284SOL    HW159214   3.706   9.981   0.350 -0.1609  0.1050  0.4903
18284SOL    HW259215   3.750   9.905   0.226 -0.5756  1.2031 -0.3444
18285SOL     OW59216  10.788   0.150   7.186 -0.3197 -0.3143 -0.1284
18285SOL    HW159217  10.852   0.079   7.197 -1.4810 -1.8203 -2.3608
18285SOL    HW259218  10.784   0.165   7.091 -1.5658  1.3947  0.1350
18286SOL     OW59219   2.997   9.560   5.977  0.0560 -0.0082  0.2335
18286SOL    HW159220   2.968   9.547   6.067  0.6433  0.5616  0.5181
18286SOL    HW259221   3.078   9.510   5.970 -0.4268 -0.7412 -0.2406
18287SOL     OW59222   0.894   7.820   5.244 -0.7347  0.1043  0.7219
18287SOL    HW159223   0.940   7.786   5.167 -1.0446 -1.1530  1.0543
18287SOL    HW259224   0.913   7.756   5.312 -2.0716  0.1437  1.1531
18288SOL     OW59225   3.143   4.825   9.576  0.4332  0.7524 -0.5005
18288SOL    HW159226   3.166   4.918   9.570 -0.9372  1.2733  1.1496
18288SOL    HW259227   3.086   4.820   9.653  2.2104 -1.8296  0.8022
18289SOL     OW59228   6.693   7.747   1.311  0.4070  0.4381 -0.2085
18289SOL    HW159229   6.756   7.698   1.364  0.1333 -0.4470 -0.6647
18289SOL    HW259230   6.619   7.687   1.301 -0.3677  1.3276  0.0260
18290SOL     OW59231  10.784   3.991   2.181 -0.7691 -0.0791 -0.6987
18290SOL    HW159232  10.811   3.972   2.092  1.3202 -1.1823  0.0992
18290SOL    HW259233  10.840   3.936   2.236 -1.2531  1.3182  1.3491
18291SOL     OW59234   3.178   8.823   2.761 -0.8306 -0.5313 -0.1115
18291SOL    HW159235   3.097   8.852   2.719 -1.8221 -1.7869  0.8327
18291SOL    HW259236   3.241   8.817   2.690 -1.2163  1.5982 -0.6875
18292SOL     OW59237   7.381   5.716   4.570  0.4208 -0.0443  0.7210
18292SOL    HW159238   7.363   5.646   4.633  0.6534 -0.9264 -0.1496
18292SOL    HW259239   7.300   5.724   4.520  0.3999  0.3036  0.8131
18293SOL     OW59240  10.105   0.020   6.924 -0.2403 -0.0105 -0.0843
18293SOL    HW159241  10.168   0.010   6.996 -2.0921  1.0119  1.8025
18293SOL    HW259242  10.152   0.069   6.857  1.1435  0.1835  0.9776
18294SOL     OW59243  10.836   8.045   2.745 -0.2568  0.2698  0.2867
18294SOL    HW159244  10.891   7.972   2.715  0.2426  0.3521  0.9887
18294SOL    HW259245  10.817   8.095   2.666  0.6760  0.2384  0.0387
18295SOL     OW59246   5.087   5.402   9.145  0.0166 -0.3319 -0.0723
18295SOL    HW159247   4.995   5.413   9.170 -0.1362 -0.3497 -0.6204
18295SOL    HW259248   5.086   5.333   9.079  0.2985  0.3521 -0.8084
18296SOL     OW59249  10.204   5.315   5.776 -0.1110  0.1722 -0.0665
18296SOL    HW159250  10.219   5.261   5.698 -0.6794  0.1716 -0.1782
18296SOL    HW259251  10.266   5.281   5.840 -0.0779 -0.2529 -0.3158
18297SOL     OW59252   7.044   2.152   9.667  0.1890 -0.2588  0.8950
18297SOL    HW159253   7.088   2.217   9.612  1.2609 -1.1857  0.6315
18297SOL    HW259254   6.971   2.121   9.613  1.9260 -2.0360 -0.5777
18298SOL     OW59255   7.090   6.792   4.265  0.2727  0.0481 -0.2046
18298SOL    HW159256   7.094   6.723   4.332  1.4062  0.5141  0.2251
18298SOL    HW259257   7.008   6.839   4.285 -0.1619 -0.7406 -0.0828
18299SOL     OW59258   8.467   8.346   1.107 -0.1559  0.2926  0.4363
18299SOL    HW159259   8.458   8.407   1.181  1.8150 -0.1958  1.1425
18299SOL    HW259260   8.525   8.391   1.046  2.1953 -1.1665  1.4339
18300SOL     OW59261   6.640  10.940   2.033 -0.5835 -0.0940 -0.8683
18300SOL    HW159262   6.578  10.967   1.965 -0.6747 -0.7196 -1.0420
18300SOL    HW259263   6.607  10.856   2.064 -2.1721  1.4498  1.9916
18301SOL     OW59264   8.227   2.067   8.047 -0.1481 -0.0069 -0.2440
18301SOL    HW159265   8.173   2.035   8.119 -0.0204 -2.2926 -1.0720
18301SOL    HW259266   8.316   2.047   8.074 -0.1021 -0.8887 -0.9964
18302SOL     OW59267   1.456   9.769   4.141 -0.3528  0.0815 -0.5170
18302SOL    HW159268   1.453   9.676   4.118  1.1870  0.1930 -1.2855
18302SOL    HW259269   1.406   9.812   4.072 -1.5713 -0.1829  0.1508
18303SOL     OW59270   0.040   4.477   8.905  1.3105  0.0415  0.1248
18303SOL    HW159271  -0.037   4.422   8.919  1.7666 -0.6579 -0.0669
18303SOL    HW259272   0.052   4.522   8.989  0.9226 -0.1326  0.2781
18304SOL     OW59273   0.266   8.671   1.030 -0.3200 -1.1181 -0.2825
18304SOL    HW159274   0.192   8.712   1.073  1.4197 -0.3526  2.2632
18304SOL    HW259275   0.297   8.606   1.094  0.7414 -1.9723 -1.6026
18305SOL     OW59276   4.493   8.118   6.137  0.6241  0.4671  0.6659
18305SOL    HW159277   4.521   8.047   6.196 -0.6675 -1.0962 -0.5386
18305SOL    HW259278   4.398   8.120   6.145  0.6720  2.7735  1.3898
18306SOL     OW59279   2.113   2.226   6.905  0.1244 -0.6345 -0.1042
18306SOL    HW159280   2.058   2.179   6.843 -3.0278  0.4421  1.6299
18306SOL    HW259281   2.108   2.175   6.986  0.6500  0.1670  0.4609
18307SOL     OW59282   4.905   2.744   2.347  0.2279 -0.5942 -0.2670
18307SOL    HW159283   4.990   2.720   2.309 -0.5795 -0.9749 -1.9617
18307SOL    HW259284   4.850   2.667   2.332 -0.8119  0.1780 -0.5208
18308SOL     OW59285  11.001  10.496   2.619  0.0656 -0.5997  0.1570
18308SOL    HW159286  10.962  10.412   2.643 -1.7239  0.0487 -0.2852
18308SOL    HW259287  10.926  10.552   2.599  1.2560  0.4561 -1.7001
18309SOL     OW59288   2.707  10.777   2.343  0.4794 -0.1929  0.2954
18309SOL    HW159289   2.742  10.697   2.305  0.0582 -0.9145  1.3870
18309SOL    HW259290   2.668  10.824   2.269 -0.0128 -1.3933 -0.2288
18310SOL     OW59291   0.236   3.827   7.712  0.2027  0.3238  0.3724
18310SOL    HW159292   0.190   3.783   7.640  1.0546  0.6197 -0.3832
18310SOL    HW259293   0.326   3.794   7.706  0.6279  1.4343  0.3892
18311SOL     OW59294   1.823   0.872   4.194  0.1569 -0.4814 -0.2319
18311SOL    HW159295   1.779   0.793   4.164 -0.2801  0.2450 -1.5628
18311SOL    HW259296   1.917   0.854   4.183  0.0159 -0.2452 -2.1082
18312SOL     OW59297  11.080   7.040   7.344 -0.1425 -0.2448  0.7747
18312SOL    HW159298  11.106   6.952   7.369 -1.8857 -0.1704  3.1967
18312SOL    HW259299  11.141   7.098   7.389  0.6360 -0.1654 -0.3421
18313SOL     OW59300   6.100   0.845   3.834 -0.2744  0.4670 -0.1309
18313SOL    HW159301   6.018   0.895   3.834 -0.1108  0.9534  3.1298
18313SOL    HW259302   6.168   0.910   3.852  0.4923 -0.3083 -0.1523
18314SOL     OW59303   8.679   7.467  10.839 -0.4013 -0.5565 -0.0018
18314SOL    HW159304   8.760   7.471  10.789 -1.2593 -0.6022 -1.4426
18314SOL    HW259305   8.616   7.517  10.788 -1.3393 -0.6577  1.0078
18315SOL     OW59306   4.965  10.477   5.187 -0.1462 -0.0100 -0.2139
18315SOL    HW159307   4.978  10.516   5.100  0.6964  0.8754  0.2780
18315SOL    HW259308   4.994  10.545   5.248 -1.7272 -0.2049  0.8160
18316SOL     OW59309   0.839   2.734   3.564  0.0340  0.2857  0.4242
18316SOL    HW159310   0.888   2.725   3.646  1.4547 -0.2488 -0.4625
18316SOL    HW259311   0.808   2.825   3.565 -0.3049  0.1847  1.7115
18317SOL     OW59312   5.891   4.784   4.466  0.0927  0.0146 -0.3392
18317SOL    HW159313   5.820   4.843   4.492  0.7701 -0.0367  1.8711
18317SOL    HW259314   5.915   4.813   4.378 -1.8922  0.7583 -0.6869
18318SOL     OW59315   8.567   4.108  10.523 -0.0721 -0.4653  0.5806
18318SOL    HW159316   8.517   4.071  10.451 -0.2254 -0.1550  0.5240
18318SOL    HW259317   8.647   4.143  10.483 -1.1791  1.7835  0.1660
18319SOL     OW59318   3.446   0.778   1.926 -0.7906 -0.1516 -0.0799
18319SOL    HW159319   3.428   0.777   2.020 -1.2773 -0.2965 -0.1749
18319SOL    HW259320   3.406   0.698   1.892 -0.8166  0.0135 -0.4485
18320SOL     OW59321  10.260   8.225   0.313  0.2439 -0.1199  0.1274
18320SOL    HW159322  10.235   8.245   0.403  0.8939  1.1500  0.0438
18320SOL    HW259323  10.200   8.277   0.260 -1.0559 -1.8867 -0.2607
18321SOL     OW59324   7.968   5.342   4.742  0.1018  0.1082  0.6737
18321SOL    HW159325   8.016   5.346   4.825  4.8558  0.5938 -1.7203
18321SOL    HW259326   7.957   5.249   4.725  1.6422 -0.1134  0.6945
18322SOL     OW59327   8.760   9.960   0.686 -0.5831 -0.3482  0.1494
18322SOL    HW159328   8.740  10.054   0.683  1.2276  0.0685  0.2369
18322SOL    HW259329   8.850   9.953   0.654 -0.4359 -1.9796  0.8073
18323SOL     OW59330   9.204   0.476   9.466  0.0836 -0.1937 -0.2159
18323SOL    HW159331   9.218   0.444   9.377  0.1786  0.0466 -0.2892
18323SOL    HW259332   9.159   0.560   9.455  1.3018  0.5026 -0.1000
18324SOL     OW59333   0.415   0.439   7.819  0.0991  0.3524  0.0834
18324SOL    HW159334   0.319   0.431   7.822  0.1449 -0.0465  1.0316
18324SOL    HW259335   0.431   0.532   7.810 -0.3855  0.3269 -1.2009
18325SOL     OW59336  10.768  10.177  11.087 -0.8805 -0.2801 -0.1960
18325SOL    HW159337  10.761  10.246  11.021  0.8929  0.0629 -0.0632
18325SOL    HW259338  10.860  10.151  11.085 -0.4773  0.5207  2.8596
18326SOL     OW59339  11.038   1.169   1.483  0.1352 -0.5110 -0.1473
18326SOL    HW159340  11.076   1.240   1.534 -0.2212 -0.0099 -0.5791
18326SOL    HW259341  11.073   1.089   1.524  2.3511 -0.0688 -1.0647
18327SOL     OW59342  10.669   5.711   1.987  0.4051 -0.5280 -0.8420
18327SOL    HW159343  10.585   5.686   1.949  0.6778  1.4215 -2.9528
18327SOL    HW259344  10.661   5.804   2.006  1.8603 -0.4473 -0.4475
18328SOL     OW59345   5.825   5.875   4.055 -0.5296  0.6034 -0.1033
18328SOL    HW159346   5.757   5.940   4.067 -0.2639  0.7416  0.7021
18328SOL    HW259347   5.850   5.849   4.143 -1.6176 -1.6395 -0.3903
18329SOL     OW59348   8.002   1.143   6.080  0.2578 -0.0318  0.5194
18329SOL    HW159349   7.994   1.165   6.173  1.4105  1.8586  0.2269
18329SOL    HW259350   8.069   1.203   6.047 -0.8162  0.0241 -1.7473
18330SOL     OW59351   2.184   6.614  10.421  0.0904  0.0737 -0.0905
18330SOL    HW159352   2.231   6.547  10.369 -0.4809 -0.2069 -0.2511
18330SOL    HW259353   2.209   6.596  10.511  0.6706  0.2278 -0.2141
18331SOL     OW59354   7.114   2.170   7.665  0.4843  0.0701 -0.2197
18331SOL    HW159355   7.078   2.198   7.581  1.0041  0.1487 -0.4150
18331SOL    HW259356   7.133   2.251   7.712 -0.1374  0.0272  0.1224
18332SOL     OW59357   0.622   2.989   5.552  0.0300 -0.1989  0.0595
18332SOL    HW159358   0.586   2.923   5.494 -1.5824 -0.5446  1.3727
18332SOL    HW259359   0.590   3.072   5.517 -1.1205 -0.4214  0.5296
18333SOL     OW59360   7.697   7.893   7.228  0.7057  1.0467 -0.0700
18333SOL    HW159361   7.608   7.858   7.226  0.8792  0.4551  1.4125
18333SOL    HW259362   7.707   7.938   7.144  0.1681 -1.7200 -1.7414
18334SOL     OW59363   2.728   2.816   5.747 -0.3104 -0.1245  0.5668
18334SOL    HW159364   2.673   2.854   5.816 -1.4340 -0.1461 -0.2848
18334SOL    HW259365   2.803   2.779   5.794 -1.4823 -0.9456  1.8709
18335SOL     OW59366   2.666   5.939  10.269  0.0084  0.0929  0.3026
18335SOL    HW159367   2.663   5.952  10.364 -1.6938  0.6631  0.1978
18335SOL    HW259368   2.575   5.945  10.241  0.2535 -2.0100 -1.1435
18336SOL     OW59369   4.188  10.799   0.914 -0.0489  0.8871  0.3584
18336SOL    HW159370   4.152  10.753   0.838  0.8423 -0.8064  0.8909
18336SOL    HW259371   4.126  10.783   0.985  1.0168 -0.9568  0.9524
18337SOL     OW59372   8.087  10.756   8.008  0.3049  0.3787 -0.2941
18337SOL    HW159373   8.089  10.682   8.068 -0.0321  0.3629 -0.3022
18337SOL    HW259374   8.037  10.823   8.055  0.1583  0.4150 -0.5010
18338SOL     OW59375   9.929   3.210  10.601  0.0725 -0.0428 -0.1282
18338SOL    HW159376   9.891   3.225  10.688 -0.7591 -3.1177  0.1559
18338SOL    HW259377   9.860   3.235  10.540 -0.6144 -0.9483  0.2481
18339SOL     OW59378   9.369   6.963   3.657  0.3237 -0.3761 -0.0526
18339SOL    HW159379   9.282   6.998   3.633  0.2028  0.2309  1.2224
18339SOL    HW259380   9.354   6.869   3.668 -0.4429 -0.1236  1.2550
18340SOL     OW59381   4.115   6.731   0.106 -0.3063  0.3082 -0.2221
18340SOL    HW159382   4.091   6.639   0.120 -2.1510  0.8000  0.0627
18340SOL    HW259383   4.143   6.734   0.014 -0.2527 -0.5195 -0.2462
18341SOL     OW59384  11.103   5.876   7.261  0.3703  0.3530  0.2535
18341SOL    HW159385  11.140   5.883   7.173  0.9810 -2.4332  0.1998
18341SOL    HW259386  11.019   5.922   7.254  0.6864  0.7623 -1.5961
18342SOL     OW59387   8.340   7.888   2.580 -0.4570 -0.3108  0.3307
18342SOL    HW159388   8.263   7.834   2.595  0.4678 -2.0541 -0.9060
18342SOL    HW259389   8.413   7.836   2.614  0.7049 -0.8528 -2.7281
18343SOL     OW59390   5.594   8.681   7.951  0.2457  0.0844  0.4521
18343SOL    HW159391   5.667   8.737   7.922 -0.3844 -0.1779 -1.8622
18343SOL    HW259392   5.520   8.741   7.960 -0.9691 -0.3761 -3.9763
18344SOL     OW59393   9.106  10.062   2.707  0.1146 -0.0940 -0.4107
18344SOL    HW159394   9.155  10.141   2.684  0.6844 -0.1422  0.5910
18344SOL    HW259395   9.170  10.004   2.749 -0.5513 -0.6066 -0.0678
18345SOL     OW59396  10.161   5.428  10.854  0.3620  0.1530  0.1055
18345SOL    HW159397  10.127   5.453  10.939  0.1047 -1.2532  0.4364
18345SOL    HW259398  10.201   5.342  10.868  0.9258  0.2025 -1.0426
18346SOL     OW59399  10.519   8.423   9.109  0.0103  0.2059 -0.4523
18346SOL    HW159400  10.458   8.465   9.171 -0.4558  0.7671 -1.2742
18346SOL    HW259401  10.569   8.363   9.163 -1.4421 -0.4568  0.2233
18347SOL     OW59402   9.527   5.568   6.109 -0.3522 -0.0067 -0.2775
18347SOL    HW159403   9.533   5.558   6.015  0.7389  0.5783 -0.2951
18347SOL    HW259404   9.517   5.663   6.122 -2.7970 -0.2684  0.1236
18348SOL     OW59405   1.422   8.877   1.689  0.7592 -0.3369  0.0144
18348SOL    HW159406   1.369   8.948   1.728 -0.3897 -1.1582 -0.0059
18348SOL    HW259407   1.506   8.918   1.671  0.1848  0.9845  0.1811
18349SOL     OW59408   2.943   9.312   2.218  1.1211  0.1901 -0.0460
18349SOL    HW159409   3.016   9.263   2.254  0.0060 -1.2928  0.2536
18349SOL    HW259410   2.917   9.372   2.288 -0.8253 -2.4441  1.6530
18350SOL     OW59411   1.658   4.130   2.732  0.3273 -0.4934  0.1091
18350SOL    HW159412   1.695   4.160   2.650  1.8753 -2.2249  0.1104
18350SOL    HW259413   1.617   4.047   2.711 -1.3584  0.1644  0.6519
18351SOL     OW59414  10.951  10.956  11.105  0.3118  0.4081 -0.2525
18351SOL    HW159415  11.012  10.894  11.146  0.5697  0.9584  0.2042
18351SOL    HW259416  10.968  11.039  11.148  0.1276  0.8587 -1.0199
18352SOL     OW59417   5.724   8.172   4.360  0.7926  0.5424 -0.5314
18352SOL    HW159418   5.761   8.240   4.415  0.1725  0.1345  0.4273
18352SOL    HW259419   5.677   8.218   4.291  1.8514  1.0616 -0.9191
18353SOL     OW59420   1.189   0.579   9.004  0.8382  0.1578 -0.0255
18353SOL    HW159421   1.270   0.559   9.051  0.8436 -0.6743 -0.3511
18353SOL    HW259422   1.155   0.493   8.979 -0.3625  0.4769  0.4471
18354SOL     OW59423   2.255   0.480   0.649 -0.5899  0.2507 -0.4097
18354SOL    HW159424   2.317   0.549   0.627  1.2330 -1.4457 -0.8573
18354SOL    HW259425   2.267   0.466   0.743 -0.2509 -0.1162 -0.5071
18355SOL     OW59426   7.466   6.450   8.596  0.3168  0.0915  0.2785
18355SOL    HW159427   7.466   6.383   8.527 -0.2999  1.9179 -1.5967
18355SOL    HW259428   7.559   6.463   8.616  0.4246 -1.8812  1.3256
18356SOL     OW59429   5.986   5.081   3.720  0.6628 -0.3338 -0.8526
18356SOL    HW159430   5.949   5.146   3.660 -1.3074  0.4511  1.0545
18356SOL    HW259431   5.946   4.998   3.695 -0.0388 -0.0342 -0.7458
18357SOL     OW59432   6.119  10.602   3.900 -0.1467  0.2130 -0.3439
18357SOL    HW159433   6.085  10.550   3.828  1.1511 -1.5064  0.2170
18357SOL    HW259434   6.210  10.575   3.908  0.7575  2.9916 -0.3413
18358SOL     OW59435   8.782   2.965   2.341  0.4973  0.4720 -0.3509
18358SOL    HW159436   8.872   2.978   2.311  0.0952  1.9416 -0.9897
18358SOL    HW259437   8.755   3.051   2.374 -0.4421 -0.1270  0.5000
18359SOL     OW59438   3.166   2.088   7.122 -0.4388  0.3429 -0.2221
18359SOL    HW159439   3.245   2.117   7.078 -0.3916  1.5298  0.5810
18359SOL    HW259440   3.197   2.032   7.193 -0.1978  1.6883  0.7795
18360SOL     OW59441   1.055   0.296  10.764 -0.7043 -0.0795  0.1005
18360SOL    HW159442   1.119   0.353  10.720 -1.0423 -0.2769 -0.6744
18360SOL    HW259443   1.107   0.226  10.802 -0.3415  0.4267  0.5502
18361SOL     OW59444   0.162   1.561   7.569  0.3466 -0.1534  0.0908
18361SOL    HW159445   0.133   1.487   7.515  1.6137  0.8607 -2.1210
18361SOL    HW259446   0.229   1.525   7.627  1.4393 -0.6506 -1.4319
18362SOL     OW59447   5.236   7.423   9.775  0.1611 -0.4924  0.6711
18362SOL    HW159448   5.328   7.398   9.776  0.5989  0.8153 -1.2335
18362SOL    HW259449   5.189   7.339   9.778  1.2883 -1.1464  3.2962
18363SOL     OW59450   6.609   4.965   1.077 -0.2747  0.1852 -0.6071
18363SOL    HW159451   6.564   5.022   1.015 -2.0244 -0.6951 -0.2148
18363SOL    HW259452   6.661   5.025   1.131 -0.5284  1.1871 -1.4374
18364SOL     OW59453   0.570   9.545   4.129 -0.2621 -0.0681 -0.2785
18364SOL    HW159454   0.536   9.625   4.169 -1.9311 -0.6837 -0.3900
18364SOL    HW259455   0.579   9.566   4.036  0.7917  0.4533 -0.0673
18365SOL     OW59456   2.444   2.641   7.567 -0.1312  0.1029  0.1876
18365SOL    HW159457   2.362   2.690   7.572 -1.0619 -1.3335 -0.6581
18365SOL    HW259458   2.437   2.575   7.636  0.3981  0.0715  0.2200
18366SOL     OW59459   8.627  11.093   8.266  0.0558 -0.4801  0.1926
18366SOL    HW159460   8.709  11.047   8.246 -1.1332 -2.8505  0.3303
18366SOL    HW259461   8.606  11.141   8.186  1.4593  0.0086  0.0884
18367SOL     OW59462   4.283  10.285   1.454  0.5318 -0.1041 -0.1398
18367SOL    HW159463   4.223  10.210   1.461 -0.4405  0.6090 -0.5353
18367SOL    HW259464   4.265  10.320   1.367  0.0368  1.3495  0.5210
18368SOL     OW59465   6.037   0.008   1.863 -0.0735 -0.0168  0.0351
18368SOL    HW159466   5.963   0.030   1.920 -0.6903 -0.8786 -0.4080
18368SOL    HW259467   6.042  -0.087   1.866  0.7026  0.0061 -0.3455
18369SOL     OW59468   9.521   4.773   5.828 -0.6089 -1.1768  0.0761
18369SOL    HW159469   9.558   4.772   5.917  0.8626 -0.0740 -0.4777
18369SOL    HW259470   9.492   4.863   5.816  0.6055 -0.9007 -1.0668
18370SOL     OW59471   8.480   5.704   7.652 -0.5130  0.2282 -0.0442
18370SOL    HW159472   8.553   5.659   7.694 -0.1529  1.9147  1.2512
18370SOL    HW259473   8.509   5.718   7.562  1.2391  1.7189  0.6793
18371SOL     OW59474   4.204   0.917   0.334 -0.2917  0.2485  0.1826
18371SOL    HW159475   4.270   0.961   0.387  0.9320 -0.1831 -0.9127
18371SOL    HW259476   4.248   0.839   0.301 -1.9501 -1.0418  0.8856
18372SOL     OW59477  10.039   9.629   4.978 -0.1686  0.4056  0.0160
18372SOL    HW159478   9.960   9.679   4.998 -0.4684  0.3760 -1.0498
18372SOL    HW259479  10.008   9.542   4.952  0.0934  0.8045 -1.7593
18373SOL     OW59480   7.146   2.779   4.854 -0.5532 -0.3795 -0.0581
18373SOL    HW159481   7.220   2.721   4.874  0.5309  0.4813 -1.3951
18373SOL    HW259482   7.165   2.859   4.905  0.5460  0.6029 -1.8972
18374SOL     OW59483   3.794  10.003   3.803  0.0792  0.6798  0.5135
18374SOL    HW159484   3.731  10.006   3.731 -1.0745  1.4912  1.5027
18374SOL    HW259485   3.776   9.919   3.846  0.7977  0.1756 -0.1480
18375SOL     OW59486   9.621  10.174  11.018 -0.0629 -0.1692 -0.2424
18375SOL    HW159487   9.685  10.211  11.079 -2.2044 -0.9791  2.7542
18375SOL    HW259488   9.651  10.084  11.004 -0.2281 -0.3942  0.7535
18376SOL     OW59489  10.279   7.083   2.080  0.5593 -0.6918 -0.2318
18376SOL    HW159490  10.244   7.171   2.071  0.5264 -0.4908  1.4020
18376SOL    HW259491  10.293   7.053   1.991  0.0557  0.7560 -0.8319
18377SOL     OW59492   8.701   2.263   3.911 -0.1021 -0.7360 -0.0301
18377SOL    HW159493   8.608   2.243   3.917 -0.4272  0.5856 -0.4221
18377SOL    HW259494   8.723   2.300   3.996 -0.5021  1.1297 -0.7021
18378SOL     OW59495   9.261   4.391   5.115 -0.5991 -0.0951  0.3328
18378SOL    HW159496   9.199   4.462   5.131 -1.7876 -0.7501 -1.1073
18378SOL    HW259497   9.209   4.311   5.125 -0.4012 -0.6450 -2.1611
18379SOL     OW59498   3.444  10.222  10.462 -0.1525  0.6485  0.2382
18379SOL    HW159499   3.536  10.208  10.440 -0.5048  0.7091 -1.3936
18379SOL    HW259500   3.447  10.278  10.541  1.1838 -0.3182  0.9188
18380SOL     OW59501   4.504   4.948   5.834  0.6359  0.3685  1.0268
18380SOL    HW159502   4.411   4.970   5.834  0.5480  0.0191  0.3991
18380SOL    HW259503   4.515   4.889   5.908 -0.0880 -1.3634 -0.1854
18381SOL     OW59504   4.149   7.003   3.110  0.9483 -0.1004 -0.2474
18381SOL    HW159505   4.093   6.986   3.186  0.1755  0.1794 -0.7342
18381SOL    HW259506   4.087   7.020   3.039  1.6576  0.5318 -0.7302
18382SOL     OW59507   2.693   0.800   1.521 -0.9733 -0.0793 -0.9156
18382SOL    HW159508   2.691   0.852   1.601 -1.3075 -2.8778  1.0442
18382SOL    HW259509   2.604   0.807   1.486 -1.3530 -0.2527 -0.0151
18383SOL     OW59510   3.074   0.841   0.668  0.1847  0.3106 -0.2121
18383SOL    HW159511   3.076   0.746   0.651  0.9888  0.2962 -0.0384
18383SOL    HW259512   2.990   0.869   0.631 -0.1281 -0.4920 -0.1427
18384SOL     OW59513   6.263   8.495   1.251 -0.2996 -0.6348 -0.0599
18384SOL    HW159514   6.170   8.474   1.239  0.1851 -2.5819 -0.7678
18384SOL    HW259515   6.262   8.571   1.310 -2.3484  0.0093 -0.7997
18385SOL     OW59516  11.035   3.305   0.698  0.0316 -0.1055  0.1187
18385SOL    HW159517  10.963   3.309   0.634  0.2471 -0.0644 -0.1200
18385SOL    HW259518  11.008   3.366   0.767 -0.8647 -1.2005  0.7583
18386SOL     OW59519   4.567   4.265   3.220 -0.0944  0.1431  0.0473
18386SOL    HW159520   4.544   4.315   3.142 -0.2960  1.3324  0.8368
18386SOL    HW259521   4.654   4.297   3.244  0.1480 -0.5246  0.0686
18387SOL     OW59522   4.954   6.715  11.112 -0.4986 -0.1359  0.1989
18387SOL    HW159523   5.037   6.692  11.154 -0.7623  0.0499  0.8263
18387SOL    HW259524   4.889   6.706  11.181 -1.0129 -0.3152 -0.3023
18388SOL     OW59525   0.207   3.232   9.412  0.1865  0.5905  0.4690
18388SOL    HW159526   0.199   3.291   9.487 -1.4906  0.3571  0.5233
18388SOL    HW259527   0.147   3.160   9.433  0.8165 -0.2117 -0.4319
18389SOL     OW59528   3.333   8.384   9.211  0.1962 -0.1004 -0.5702
18389SOL    HW159529   3.265   8.317   9.210 -0.6599  0.6590  1.4007
18389SOL    HW259530   3.326   8.424   9.298  2.3821  0.8218 -0.7587
18390SOL     OW59531  10.597   6.568   8.024 -0.3909 -0.6029 -0.2542
18390SOL    HW159532  10.556   6.507   7.963 -0.4071  1.9500 -3.0091
18390SOL    HW259533  10.669   6.519   8.062 -1.4078 -2.8321 -1.0218
18391SOL     OW59534  10.959   0.285   2.544  0.0054 -0.0768  0.1899
18391SOL    HW159535  10.906   0.278   2.624  0.5078 -0.8541  0.4636
18391SOL    HW259536  11.049   0.281   2.574  0.2384 -3.6404 -0.6249
18392SOL     OW59537   7.546   6.318   6.169 -0.1829  0.4823  0.7247
18392SOL    HW159538   7.571   6.263   6.095  0.3709  0.5300  0.8710
18392SOL    HW259539   7.574   6.406   6.144  0.9927  0.3355  1.4198
18393SOL     OW59540   9.582  10.411   8.669 -0.5683  0.1621 -0.1954
18393SOL    HW159541   9.606  10.502   8.655 -2.6781  0.9478  0.9156
18393SOL    HW259542   9.644  10.380   8.735 -0.1216  0.9317 -0.2430
18394SOL     OW59543   9.270  10.012   0.255 -0.3293 -0.5872  0.1568
18394SOL    HW159544   9.336   9.990   0.320  1.4116  0.6469 -1.0882
18394SOL    HW259545   9.299   9.969   0.175 -0.4891  0.7569 -0.6540
18395SOL     OW59546  10.787   7.356   8.109 -0.1972 -0.2177  0.0995
18395SOL    HW159547  10.741   7.386   8.188 -1.3098 -1.1209 -0.1796
18395SOL    HW259548  10.879   7.368   8.129 -0.4615 -0.4445  1.5642
18396SOL     OW59549  10.185   7.018   3.190  0.1251  0.5183  0.1830
18396SOL    HW159550  10.111   7.065   3.152  0.2803 -0.0260 -0.8293
18396SOL    HW259551  10.151   6.983   3.273 -1.1914 -0.8704 -0.8942
18397SOL     OW59552   7.528   3.770   5.392  0.0605 -0.1859  0.2454
18397SOL    HW159553   7.569   3.718   5.323  1.7106  0.5676  0.6317
18397SOL    HW259554   7.595   3.779   5.459 -0.3002  2.1375  0.3567
18398SOL     OW59555   8.308   8.653   5.143  0.7841 -0.7134 -0.5173
18398SOL    HW159556   8.250   8.577   5.146 -0.3244  0.0964 -0.9163
18398SOL    HW259557   8.319   8.678   5.234 -0.2886 -0.2916 -0.4958
18399SOL     OW59558   1.078  10.847   9.753 -0.1886 -0.4071 -0.2355
18399SOL    HW159559   0.982  10.853   9.749 -0.0859  0.6206 -1.7002
18399SOL    HW259560   1.100  10.773   9.697 -0.0547  0.2218 -1.0252
18400SOL     OW59561   6.380   1.177   5.342 -0.8523  0.0565 -0.0973
18400SOL    HW159562   6.317   1.119   5.384 -1.9009  1.1867 -0.0520
18400SOL    HW259563   6.450   1.119   5.314 -1.9996 -1.2776 -0.3366
18401SOL     OW59564   7.225   2.273   1.413 -0.0273 -0.7082 -0.0404
18401SOL    HW159565   7.173   2.234   1.343  1.9652  0.1169 -2.1308
18401SOL    HW259566   7.303   2.218   1.419  0.2744 -0.2089  0.8469
18402SOL     OW59567   1.748   3.608   6.806 -0.1723 -0.0471 -1.0057
18402SOL    HW159568   1.711   3.639   6.889 -0.5470 -0.9605 -0.8243
18402SOL    HW259569   1.842   3.612   6.818 -0.2234 -0.4622 -0.4181
18403SOL     OW59570   2.130   8.016   0.317  0.2673  0.0785  0.2822
18403SOL    HW159571   2.068   8.056   0.379  1.0530  0.4856  0.8132
18403SOL    HW259572   2.189   7.965   0.371  0.2201 -0.5583 -0.2588
18404SOL     OW59573   9.711  10.677   0.695 -0.1252  0.1450 -0.1195
18404SOL    HW159574   9.791  10.632   0.720  0.3260  0.0413 -1.6377
18404SOL    HW259575   9.675  10.625   0.623  0.5539  2.2346 -2.1157
18405SOL     OW59576   0.399   4.098  10.849 -1.0020  0.2233  0.6005
18405SOL    HW159577   0.479   4.045  10.848 -1.2648 -0.1698 -0.4516
18405SOL    HW259578   0.333   4.040  10.887 -1.0696  0.1392  0.3500
18406SOL     OW59579   7.043   3.320   5.028  0.1702 -0.1106  0.1162
18406SOL    HW159580   7.109   3.315   4.959  0.3888 -0.4713  0.3420
18406SOL    HW259581   7.053   3.407   5.065  0.4274 -0.1126  0.0546
18407SOL     OW59582   7.896   7.180   0.695 -0.3627 -0.1789  0.7406
18407SOL    HW159583   7.917   7.232   0.618  0.8535  0.4476  1.4603
18407SOL    HW259584   7.945   7.099   0.683  1.3043  0.6373  1.6587
18408SOL     OW59585   0.240   6.771   7.593 -0.3247 -0.2021  0.0919
18408SOL    HW159586   0.282   6.686   7.608  0.8812 -0.1074 -2.3190
18408SOL    HW259587   0.312   6.834   7.599 -0.7912  0.3862 -0.3690
18409SOL     OW59588   8.052   2.419   7.344 -0.3027  0.4204 -0.1898
18409SOL    HW159589   7.967   2.425   7.388  0.0507 -0.4989  0.6636
18409SOL    HW259590   8.064   2.325   7.328 -0.3621  0.7110 -2.2095
18410SOL     OW59591   4.002   5.729   2.639  0.5502 -0.8215  0.7027
18410SOL    HW159592   4.003   5.822   2.620  0.8328 -1.3270 -2.3496
18410SOL    HW259593   4.056   5.719   2.717  0.2170  1.5522  1.3200
18411SOL     OW59594   3.891   4.379   5.952  0.1126 -0.1171  0.2102
18411SOL    HW159595   3.823   4.352   6.012 -0.7030  0.8594 -0.2346
18411SOL    HW259596   3.966   4.401   6.008 -0.2707 -0.2424  0.7751
18412SOL     OW59597  11.016   8.638   9.003  0.2636 -0.5249 -0.0269
18412SOL    HW159598  11.017   8.629   8.908 -1.8130  2.2348 -0.4284
18412SOL    HW259599  10.954   8.571   9.033 -0.5349 -0.1896 -0.8659
18413SOL     OW59600   1.625  10.223   3.928  0.4041 -0.1319  0.5135
18413SOL    HW159601   1.651  10.147   3.876  0.3209 -0.2822  0.6929
18413SOL    HW259602   1.652  10.202   4.017  1.2879  0.4692  0.3992
18414SOL     OW59603   3.744   7.842   4.545 -0.1004 -0.1164 -0.1211
18414SOL    HW159604   3.836   7.841   4.569  0.0451  1.2018 -0.5618
18414SOL    HW259605   3.743   7.832   4.450 -0.5475 -2.5469  0.0895
18415SOL     OW59606   0.270   5.898   7.823 -0.1497 -0.0055  0.6100
18415SOL    HW159607   0.261   5.967   7.758 -0.3260 -0.6139 -0.0254
18415SOL    HW259608   0.182   5.858   7.828  0.4317 -1.5246 -0.5668
18416SOL     OW59609   9.859   0.590   2.523 -0.2231  0.1276  1.0416
18416SOL    HW159610   9.902   0.674   2.507  1.6286 -1.2753 -2.6194
18416SOL    HW259611   9.919   0.543   2.580  1.1611 -0.3181 -0.7052
18417SOL     OW59612  10.791   8.822   2.569  0.2412 -0.1335 -0.3475
18417SOL    HW159613  10.761   8.760   2.635 -1.7430 -1.4856 -2.3584
18417SOL    HW259614  10.873   8.857   2.604 -1.2203  0.0811  3.2834
18418SOL     OW59615   0.826   4.505   3.372  0.2349 -0.3553  0.7029
18418SOL    HW159616   0.919   4.523   3.356 -0.2311  0.2527 -1.6833
18418SOL    HW259617   0.799   4.449   3.298 -1.9960  2.0672 -0.4691
18419SOL     OW59618   8.431  10.025   2.067  0.0712 -0.0456 -0.0622
18419SOL    HW159619   8.501  10.057   2.123  0.8060 -4.2395  1.8584
18419SOL    HW259620   8.472  10.014   1.981  0.9180  0.3145  0.2823
18420SOL     OW59621   7.782   7.514   6.112  0.2999 -0.0416 -0.4023
18420SOL    HW159622   7.729   7.492   6.035 -1.2835  0.5656  0.4507
18420SOL    HW259623   7.783   7.610   6.113  0.2877 -0.0429  0.3180
18421SOL     OW59624   5.206   4.656   2.148 -0.3090  0.9905 -0.0218
18421SOL    HW159625   5.170   4.571   2.123  0.2113  0.9775 -0.7366
18421SOL    HW259626   5.198   4.657   2.244 -0.1273  0.0463  0.0205
18422SOL     OW59627   6.181   5.557   7.923 -0.5823 -0.2221 -0.0256
18422SOL    HW159628   6.196   5.563   7.829  0.1537  0.9491  0.1523
18422SOL    HW259629   6.262   5.519   7.957 -0.3730  0.4771  0.2650
18423SOL     OW59630   8.407   5.662   9.367  0.1351 -0.1844 -0.1912
18423SOL    HW159631   8.488   5.624   9.400  0.7390  2.2853  1.4582
18423SOL    HW259632   8.431   5.749   9.337 -2.0247  1.1123  1.4773
18424SOL     OW59633   7.028   9.574   6.812  0.2020 -0.4383  0.3244
18424SOL    HW159634   6.970   9.650   6.817  0.2905 -0.1804 -1.8488
18424SOL    HW259635   6.969   9.499   6.818  0.0320 -0.2186  1.6419
18425SOL     OW59636   8.645   1.238   0.514  0.0038 -0.7323 -0.2640
18425SOL    HW159637   8.624   1.148   0.490  0.3311 -0.6076 -1.0811
18425SOL    HW259638   8.560   1.281   0.521 -0.2420 -1.4489  1.6781
18426SOL     OW59639   5.986   2.255   8.331 -0.0862  0.2487  0.0258
18426SOL    HW159640   6.014   2.321   8.394  0.5738 -0.8362  0.9016
18426SOL    HW259641   5.984   2.302   8.247  0.7250  1.2892  0.5612
18427SOL     OW59642   2.878   9.808  10.329  0.3633  0.2169  0.2043
18427SOL    HW159643   2.885   9.713  10.323  1.2991  0.3554 -1.7905
18427SOL    HW259644   2.822   9.823  10.405 -1.2970 -1.9872 -0.4773
18428SOL     OW59645   7.063   3.832   7.188  0.2297  0.3823 -0.1470
18428SOL    HW159646   7.099   3.877   7.112 -0.8072  0.2311 -0.7474
18428SOL    HW259647   6.990   3.888   7.217 -1.0755 -0.8722 -0.9065
18429SOL     OW59648   9.662   4.189   2.240 -0.1873  0.4912  0.4000
18429SOL    HW159649   9.742   4.228   2.274 -0.4913  1.7768 -0.2930
18429SOL    HW259650   9.598   4.261   2.240 -0.9205 -0.1305 -0.4176
18430SOL     OW59651   4.354   7.522   3.511  0.8839 -0.6411 -0.0799
18430SOL    HW159652   4.325   7.444   3.465 -0.3493  0.6032 -1.5562
18430SOL    HW259653   4.286   7.587   3.493  2.7049  1.3002 -0.3841
18431SOL     OW59654   2.475   9.476   1.871 -0.0793 -0.1050  0.0629
18431SOL    HW159655   2.564   9.466   1.903  0.6346 -0.5851 -1.9553
18431SOL    HW259656   2.450   9.388   1.840 -0.3330  0.5111 -1.5891
18432SOL     OW59657   9.838   6.924  10.017  0.5536  0.3064  0.3229
18432SOL    HW159658   9.810   6.855  10.078  0.6806  2.0792  2.4863
18432SOL    HW259659   9.892   6.878   9.953 -1.3921 -2.0079  0.1721
18433SOL     OW59660   6.824   3.783   8.746 -0.1381  0.1739  0.3659
18433SOL    HW159661   6.886   3.813   8.812 -1.0339  2.1379  0.3950
18433SOL    HW259662   6.825   3.688   8.753  2.1428  0.1917  0.9873
18434SOL     OW59663   6.937   0.120   8.353  0.2228  0.2265 -0.1474
18434SOL    HW159664   6.953   0.214   8.350  0.9097  0.1440  0.6838
18434SOL    HW259665   7.020   0.080   8.327  1.1194 -0.1822  2.9626
18435SOL     OW59666   7.051   4.757   7.996 -0.3884  0.1809  0.1278
18435SOL    HW159667   6.995   4.832   7.975 -0.0487 -0.0119 -1.5845
18435SOL    HW259668   7.009   4.682   7.955  0.9212 -0.0213 -0.9212
18436SOL     OW59669   9.454   5.657   2.406  0.0236 -0.4559 -0.1933
18436SOL    HW159670   9.488   5.738   2.368  0.6503 -0.5784  0.1140
18436SOL    HW259671   9.430   5.680   2.496  0.8416 -0.7817  0.1089
18437SOL     OW59672   4.715   6.602   7.498  0.3048 -0.7302  0.2843
18437SOL    HW159673   4.709   6.574   7.589  0.5711 -0.8747  0.2550
18437SOL    HW259674   4.771   6.538   7.455 -2.0217 -2.3065 -0.6348
18438SOL     OW59675   3.892   5.925   4.913  0.1575  0.3627 -1.1535
18438SOL    HW159676   3.942   5.919   4.994 -1.9856 -0.1000  0.2259
18438SOL    HW259677   3.860   6.016   4.911 -0.4525  0.1558 -1.0382
18439SOL     OW59678   2.477   3.921  11.106 -0.4417  0.3195 -0.4059
18439SOL    HW159679   2.544   3.934  11.173 -0.3715 -0.2256 -0.3678
18439SOL    HW259680   2.395   3.946  11.149 -0.5502 -1.0344  0.2547
18440SOL     OW59681   2.535   5.155  10.611  0.0384  0.0641 -0.5898
18440SOL    HW159682   2.516   5.085  10.549 -1.0986 -0.0873 -0.1145
18440SOL    HW259683   2.449   5.193  10.630  0.2905 -0.1518  1.1625
18441SOL     OW59684   1.715   3.391   6.246 -0.5063  0.4536  0.1837
18441SOL    HW159685   1.665   3.317   6.281 -0.9442  0.6421 -0.0293
18441SOL    HW259686   1.722   3.372   6.152 -1.2211  1.0169  0.0064
18442SOL     OW59687  10.115   6.380   0.129  0.3946 -0.0683  0.1778
18442SOL    HW159688  10.047   6.323   0.092 -0.1122  1.2755 -1.0320
18442SOL    HW259689  10.076   6.467   0.127  2.1242  0.7214 -0.4503
18443SOL     OW59690   4.003   5.586   3.471  0.2122 -0.4669 -0.2360
18443SOL    HW159691   3.926   5.544   3.435  1.1240 -2.3045 -0.1674
18443SOL    HW259692   3.973   5.673   3.498 -1.1434 -0.0377 -2.8042
18444SOL     OW59693   5.398   6.324   9.528 -0.3237  0.1380  0.6181
18444SOL    HW159694   5.379   6.272   9.606  0.9610  1.3315  1.7898
18444SOL    HW259695   5.393   6.415   9.558 -1.4066  0.7069 -1.0995
18445SOL     OW59696   1.916  10.651   8.256 -0.2779  0.0799 -0.1589
18445SOL    HW159697   1.991  10.701   8.224  0.2054 -0.8302 -0.4939
18445SOL    HW259698   1.900  10.585   8.189 -0.3195 -0.7862  0.6728
18446SOL     OW59699  10.158   3.804   4.969 -0.2696 -0.1292  0.5628
18446SOL    HW159700  10.188   3.857   4.895  1.5649  0.7288  1.8262
18446SOL    HW259701  10.065   3.823   4.977  0.1594  2.3058  0.4534
18447SOL     OW59702   7.133   8.469   9.037  0.4073 -0.1500 -0.5660
18447SOL    HW159703   7.101   8.549   9.079 -1.7457 -0.6540 -1.1026
18447SOL    HW259704   7.079   8.399   9.074  1.7037 -1.2502 -0.7057
18448SOL     OW59705   3.508   4.424   7.109  0.4253  0.3637  0.0203
18448SOL    HW159706   3.535   4.462   7.025  0.6048 -0.6768 -0.4012
18448SOL    HW259707   3.589   4.420   7.160  0.3579  0.7827  0.1641
18449SOL     OW59708   1.603   4.770   3.588  0.9073 -0.4808 -0.4546
18449SOL    HW159709   1.516   4.799   3.612  0.4770 -0.7937 -1.5589
18449SOL    HW259710   1.661   4.808   3.654  0.2950  2.1341 -1.3201
18450SOL     OW59711   9.794   4.433   1.194  0.6371  0.5792 -0.1090
18450SOL    HW159712   9.757   4.472   1.273 -0.9280  0.2641 -0.6527
18450SOL    HW259713   9.796   4.505   1.131  1.0131  0.6037 -0.0721
18451SOL     OW59714   2.890   4.797   7.353 -0.2953 -0.6032 -0.3731
18451SOL    HW159715   2.814   4.841   7.315 -0.5316 -0.6070  0.0869
18451SOL    HW259716   2.965   4.846   7.320 -0.6062  2.3253  2.6855
18452SOL     OW59717   4.298   4.210   4.985  0.3943  0.5063 -0.3777
18452SOL    HW159718   4.381   4.173   5.015 -1.0198 -1.3163  1.6781
18452SOL    HW259719   4.275   4.274   5.052 -0.3577  0.2013 -0.3342
18453SOL     OW59720   9.592   6.130   4.449 -0.2334 -0.0286  0.4488
18453SOL    HW159721   9.660   6.063   4.456  0.3687  0.4593 -0.5111
18453SOL    HW259722   9.558   6.120   4.360 -0.1830  0.9014  0.3187
18454SOL     OW59723   0.589   6.064   5.290 -0.0453 -0.3139  0.7129
18454SOL    HW159724   0.665   6.105   5.249 -0.5152  0.6887  0.8191
18454SOL    HW259725   0.587   5.976   5.253  0.1135  0.2460 -0.6685
18455SOL     OW59726  10.366   0.156   9.858  0.0765  0.3434  0.0299
18455SOL    HW159727  10.288   0.179   9.907 -0.0282 -0.5161  0.2799
18455SOL    HW259728  10.439   0.172   9.918  0.0590  0.6845 -0.0390
18456SOL     OW59729   6.783   8.080   1.416  0.2594 -0.0259  0.3252
18456SOL    HW159730   6.713   8.017   1.397  1.5823 -0.9392 -1.9887
18456SOL    HW259731   6.853   8.027   1.454  0.2025  0.6586  1.4343
18457SOL     OW59732   3.051   1.304   3.228 -0.4091  0.3730  0.2600
18457SOL    HW159733   2.993   1.347   3.290 -1.6888  0.0814 -0.6913
18457SOL    HW259734   3.016   1.216   3.219  1.3295 -0.4619  1.0885
18458SOL     OW59735   7.259   3.517   9.585  0.1388  0.0167  0.3593
18458SOL    HW159736   7.192   3.453   9.558  0.3496 -0.2918  0.5579
18458SOL    HW259737   7.209   3.587   9.628  0.0743 -1.0917  2.2196
18459SOL     OW59738   4.637   4.874   7.651  0.2348  0.3050  0.0611
18459SOL    HW159739   4.557   4.908   7.692  0.3871 -0.2723  0.8715
18459SOL    HW259740   4.670   4.810   7.714  2.3040  1.7790  0.5465
18460SOL     OW59741  10.594   0.196  10.871 -0.6795  0.3642 -0.4233
18460SOL    HW159742  10.600   0.232  10.959  2.9040 -1.7153  0.3628
18460SOL    HW259743  10.510   0.150  10.869 -0.6895  0.1617  2.0292
18461SOL     OW59744   8.937  10.295   0.521 -0.2217  0.1843 -0.0063
18461SOL    HW159745   8.904  10.382   0.498  0.4418  0.5515  0.3949
18461SOL    HW259746   9.032  10.305   0.519 -0.1356 -0.6305 -0.3060
18462SOL     OW59747   4.811   2.665   2.998  0.6326  0.1186  0.5962
18462SOL    HW159748   4.878   2.697   2.938 -1.0646  0.1926 -1.3505
18462SOL    HW259749   4.786   2.742   3.049  0.7947  0.4890  0.1206
18463SOL     OW59750   1.743   8.919   2.935 -0.4126 -0.0089  0.2548
18463SOL    HW159751   1.696   8.979   2.993  1.1968  1.5336  0.0511
18463SOL    HW259752   1.742   8.836   2.981  1.1372  1.2384  2.7798
18464SOL     OW59753   8.458   3.336   6.539  0.3317 -0.0897 -0.3859
18464SOL    HW159754   8.367   3.357   6.560  0.0076 -0.7905 -1.0571
18464SOL    HW259755   8.472   3.372   6.451  1.0217  0.9019  0.1063
18465SOL     OW59756  11.056   5.037  10.298  0.3165  0.2017  0.0737
18465SOL    HW159757  10.973   5.049  10.345 -0.3668  1.2508 -1.3171
18465SOL    HW259758  11.034   5.056  10.206  1.9118 -0.3715 -0.4545
18466SOL     OW59759   0.846   3.527   7.745  0.5676  0.4089  0.2975
18466SOL    HW159760   0.937   3.506   7.767  0.3528 -0.9128 -0.0049
18466SOL    HW259761   0.826   3.471   7.670 -0.5022  0.6788  0.3723
18467SOL     OW59762   0.645   3.759   5.166  0.3097  0.2045 -0.0178
18467SOL    HW159763   0.598   3.836   5.196 -0.1481 -0.3026  0.6069
18467SOL    HW259764   0.723   3.755   5.220  0.1900  0.0799  0.1495
18468SOL     OW59765   2.806   1.166   8.366 -0.2073  0.3955  0.2526
18468SOL    HW159766   2.806   1.070   8.359  1.3953  0.4594 -1.0548
18468SOL    HW259767   2.745   1.195   8.299 -0.3037  0.3177  0.3048
18469SOL     OW59768   7.529   5.711   7.902 -0.2935  0.3239  0.1939
18469SOL    HW159769   7.562   5.622   7.909 -1.0716  0.0514  0.5729
18469SOL    HW259770   7.593   5.757   7.847 -1.9760 -1.5725 -3.7646
18470SOL     OW59771   6.533  10.874   7.122 -0.4408 -0.6210  0.8198
18470SOL    HW159772   6.440  10.893   7.126  0.0085  1.7464  1.9511
18470SOL    HW259773   6.569  10.943   7.067  0.7997 -0.6506  1.5496
18471SOL     OW59774   9.127   5.294   3.636 -0.1746 -0.5285  0.4671
18471SOL    HW159775   9.152   5.378   3.597  0.9916 -1.3484 -0.6137
18471SOL    HW259776   9.189   5.283   3.709 -0.7981 -0.1276  1.0683
18472SOL     OW59777   8.603   5.179   8.453  0.0428 -0.0493 -0.6159
18472SOL    HW159778   8.671   5.217   8.396  2.0283 -2.7527 -0.2472
18472SOL    HW259779   8.564   5.110   8.400 -0.3947 -0.4397  0.2059
18473SOL     OW59780   8.806   1.535  11.114 -0.1235  0.9833  0.2769
18473SOL    HW159781   8.831   1.602  11.177  4.3653  0.2480 -0.3878
18473SOL    HW259782   8.834   1.570  11.030  1.0329 -1.1089 -0.2558
18474SOL     OW59783   2.698   0.923   1.123 -0.1429 -0.0777  0.4187
18474SOL    HW159784   2.764   0.862   1.154 -0.2030 -1.6235 -2.1768
18474SOL    HW259785   2.746   1.005   1.110  0.4036 -0.1145  1.9878
18475SOL     OW59786   7.925   4.676   8.603  0.1476  0.7992  0.3839
18475SOL    HW159787   7.972   4.755   8.577  0.2479  0.8495  0.7120
18475SOL    HW259788   7.993   4.613   8.626  0.0850  0.3459 -0.6362
18476SOL     OW59789   0.499   8.976   2.656  0.0361  0.0542  0.0767
18476SOL    HW159790   0.582   8.929   2.657  0.6304  0.9333 -2.2005
18476SOL    HW259791   0.457   8.949   2.574 -0.1406  2.5061 -0.7212
18477SOL     OW59792   5.503   7.394   6.112  0.1620 -0.2047 -0.4500
18477SOL    HW159793   5.446   7.411   6.037  1.8320 -1.8227 -2.1952
18477SOL    HW259794   5.500   7.299   6.124 -0.4073  0.0370  1.8959
18478SOL     OW59795   2.220   5.532   8.488  0.5724 -0.0789  0.1344
18478SOL    HW159796   2.236   5.453   8.540 -0.6034 -0.4794 -0.0839
18478SOL    HW259797   2.230   5.503   8.397  0.4790  0.1046  0.0659
18479SOL     OW59798   3.909  11.067   9.672  0.2577  0.1779  0.1455
18479SOL    HW159799   3.888  11.065   9.578  0.0075  1.3039  0.1572
18479SOL    HW259800   3.831  11.031   9.714  0.0176  0.4894 -0.0321
18480SOL     OW59801   5.566   8.714  10.378  0.4023 -0.7662 -0.4020
18480SOL    HW159802   5.652   8.751  10.394  0.1342 -0.6106  0.8016
18480SOL    HW259803   5.579   8.651  10.307  1.1156  0.6330 -1.5678
18481SOL     OW59804   4.751   0.999   6.285 -0.0378 -0.2312  0.2030
18481SOL    HW159805   4.844   1.003   6.262 -0.0185 -0.8076  0.1687
18481SOL    HW259806   4.725   0.909   6.266 -0.2698 -0.4607  1.4754
18482SOL     OW59807  10.787   0.231  10.259  0.0310 -0.5432 -0.0545
18482SOL    HW159808  10.697   0.218  10.291  0.4567 -1.4371  0.8242
18482SOL    HW259809  10.782   0.312  10.206 -1.4776 -1.0730 -0.7948
18483SOL     OW59810   4.100   1.889   8.066 -0.3842  0.3382 -0.5313
18483SOL    HW159811   4.170   1.911   8.128  0.2368 -2.3393 -0.1853
18483SOL    HW259812   4.091   1.968   8.012  1.7718  1.3564  0.4559
18484SOL     OW59813   6.443  11.083   4.676 -0.1502 -0.6282  0.2664
18484SOL    HW159814   6.463  11.071   4.769  0.1101  1.3508  0.5054
18484SOL    HW259815   6.523  11.122   4.639 -1.1718  1.1596 -0.1814
18485SOL     OW59816   4.345   8.240   9.331 -0.2895  0.2797  0.1600
18485SOL    HW159817   4.309   8.328   9.345  0.5616  0.6569  0.0945
18485SOL    HW259818   4.440   8.253   9.337 -0.2051 -0.9137  1.6382
18486SOL     OW59819   4.797   6.813   9.683  0.1644  0.1133  0.1298
18486SOL    HW159820   4.782   6.907   9.675 -1.8834 -0.1546  0.3596
18486SOL    HW259821   4.763   6.791   9.770  1.7744 -0.6649  0.6069
18487SOL     OW59822   1.931   4.972   8.067  0.5851  0.1522 -0.3417
18487SOL    HW159823   1.966   5.039   8.126 -1.8095  0.7256  0.5653
18487SOL    HW259824   1.983   4.894   8.086  0.6466  0.6329  1.7464
18488SOL     OW59825   2.718   5.479   4.425 -0.2203 -0.1431  0.5814
18488SOL    HW159826   2.680   5.470   4.338  1.3793 -0.0484 -0.1796
18488SOL    HW259827   2.811   5.460   4.412  0.1343  0.3225  2.1901
18489SOL     OW59828   3.390  11.041   1.132  0.1071  0.0754  0.0782
18489SOL    HW159829   3.346  11.117   1.171  0.1006 -0.3528  0.9388
18489SOL    HW259830   3.452  11.012   1.199  0.8873 -0.0266 -0.6695
18490SOL     OW59831   0.891   6.442   4.906  0.6133  0.5093  0.3475
18490SOL    HW159832   0.972   6.470   4.862  1.0380  0.8664  1.3191
18490SOL    HW259833   0.821   6.467   4.845  1.2640 -0.6266 -0.9242
18491SOL     OW59834  10.160   3.234   6.433  0.0313 -0.0206 -0.5339
18491SOL    HW159835  10.149   3.258   6.525 -0.4547  0.1407 -0.6311
18491SOL    HW259836  10.254   3.225   6.421  0.0208 -2.0427  0.4890
18492SOL     OW59837   7.717   0.245   4.633  0.5876 -0.2420 -0.0590
18492SOL    HW159838   7.643   0.306   4.625 -0.9543 -1.7230  1.9084
18492SOL    HW259839   7.710   0.190   4.555  1.1958  1.1784 -1.1722
18493SOL     OW59840   9.469   5.259   7.345  0.4750 -0.4967  0.5319
18493SOL    HW159841   9.434   5.179   7.305 -1.0837  0.9785 -1.2939
18493SOL    HW259842   9.485   5.236   7.436 -0.4668 -2.7229  0.1918
18494SOL     OW59843   5.172   5.865   2.588 -0.3973 -0.0803  0.2622
18494SOL    HW159844   5.258   5.895   2.561 -0.2108 -0.5012  0.3859
18494SOL    HW259845   5.151   5.794   2.527 -0.9656  0.4830 -0.2192
18495SOL     OW59846   3.079   9.372   9.722 -0.2432 -0.0782 -0.0991
18495SOL    HW159847   3.072   9.277   9.707 -0.1552 -0.2862  1.0845
18495SOL    HW259848   3.147   9.380   9.789  1.5350  1.0092 -1.9347
18496SOL     OW59849   2.771   8.599   3.938  0.0916  0.0764 -0.0840
18496SOL    HW159850   2.756   8.518   3.890 -1.4463 -0.1742  0.7652
18496SOL    HW259851   2.699   8.656   3.913 -0.4864  0.1137  1.5311
18497SOL     OW59852  11.102   2.282   5.231  0.4218 -0.0126 -0.3531
18497SOL    HW159853  11.192   2.249   5.219 -0.3367 -1.7822 -1.5187
18497SOL    HW259854  11.069   2.233   5.306  0.2017  0.1814 -0.3236
18498SOL     OW59855   1.968   2.680   6.485  0.5666 -0.0673  0.6622
18498SOL    HW159856   1.945   2.770   6.509 -1.0525 -0.0593 -0.8163
18498SOL    HW259857   1.946   2.628   6.563 -3.1133  0.1761 -0.0715
18499SOL     OW59858   3.865   0.126   4.764 -1.1238 -0.4710  0.2855
18499SOL    HW159859   3.810   0.070   4.708 -2.2691  0.1532  0.7502
18499SOL    HW259860   3.882   0.204   4.710  0.2001 -1.0924 -0.2402
18500SOL     OW59861   3.204   3.160   3.382 -0.1383 -0.9152  0.7970
18500SOL    HW159862   3.188   3.083   3.328  2.1851 -1.7747  1.2216
18500SOL    HW259863   3.249   3.127   3.459 -1.9506  0.4911  2.5842
18501SOL     OW59864   4.050   2.741   5.476 -0.7259  1.0755 -0.7389
18501SOL    HW159865   3.988   2.736   5.549 -2.1916  0.3014 -1.9751
18501SOL    HW259866   4.072   2.650   5.456 -0.3668  1.2723 -1.2869
18502SOL     OW59867   6.983   6.451   8.707 -0.1072  0.6021  0.2942
18502SOL    HW159868   6.934   6.491   8.779  0.9633  0.8345  0.9242
18502SOL    HW259869   7.057   6.510   8.693  1.5259 -1.0985  1.2486
18503SOL     OW59870   7.370   6.032   5.494  0.1590 -0.0511  0.0205
18503SOL    HW159871   7.376   5.986   5.411 -1.3848 -0.4102  0.0734
18503SOL    HW259872   7.433   5.987   5.551 -0.0625 -0.9663 -0.4411
18504SOL     OW59873  10.514   9.135   6.955  0.1730  0.0898  0.2476
18504SOL    HW159874  10.428   9.096   6.973  0.7600 -0.2618  2.5961
18504SOL    HW259875  10.566   9.062   6.924 -0.5459  0.4690 -2.0076
18505SOL     OW59876   7.003   9.343   8.911  0.6150  0.5731 -0.7502
18505SOL    HW159877   6.981   9.436   8.905 -1.6021  0.1167 -0.2467
18505SOL    HW259878   6.956   9.302   8.839 -0.7665 -0.5312  0.7276
18506SOL     OW59879   7.594   8.537   5.991 -0.0968 -0.2597  0.2087
18506SOL    HW159880   7.555   8.608   6.041 -2.1939 -1.3776  0.2744
18506SOL    HW259881   7.521   8.497   5.944  1.4266 -0.7725 -1.8836
18507SOL     OW59882   0.023   3.854   5.700 -0.0051  0.4019  0.3738
18507SOL    HW159883   0.006   3.786   5.766 -0.5850  0.8614  0.7134
18507SOL    HW259884   0.031   3.807   5.618  0.6680 -0.1794  0.7568
18508SOL     OW59885   4.267   4.407   7.165 -0.0424 -0.6285  1.0236
18508SOL    HW159886   4.340   4.370   7.216  0.1869 -0.3548  0.8930
18508SOL    HW259887   4.189   4.362   7.200  0.3812 -2.5827 -0.3433
18509SOL     OW59888   6.374   6.272  10.617 -0.1890 -0.0641 -0.0294
18509SOL    HW159889   6.464   6.283  10.588 -0.3902  2.6840  0.1751
18509SOL    HW259890   6.321   6.302  10.544 -0.8513  0.8981  0.8158
18510SOL     OW59891  10.241   2.414   3.091 -0.4449 -0.0013  0.1687
18510SOL    HW159892  10.297   2.477   3.045  1.2218 -1.4438  0.1386
18510SOL    HW259893  10.226   2.455   3.177 -0.5848  1.0753 -0.3508
18511SOL     OW59894   2.834   7.291   5.887  0.2204  0.0641 -0.3770
18511SOL    HW159895   2.901   7.229   5.916  0.9993  0.1942 -1.7758
18511SOL    HW259896   2.844   7.366   5.944  0.3749 -0.4488  0.2844
18512SOL     OW59897   3.577   9.668   1.665 -0.4292 -0.4593 -0.0156
18512SOL    HW159898   3.567   9.573   1.656 -3.5201 -0.0542 -2.6905
18512SOL    HW259899   3.500   9.704   1.621  0.3287  3.3211  1.4028
18513SOL     OW59900   6.297   6.159   2.494  0.2208  0.4805  0.4935
18513SOL    HW159901   6.257   6.073   2.482 -1.6637  1.4432 -0.6598
18513SOL    HW259902   6.383   6.152   2.452 -0.1595 -0.6515 -0.1315
18514SOL     OW59903   0.164   3.201   6.711 -0.6886 -0.4612  0.2858
18514SOL    HW159904   0.212   3.132   6.758 -0.0686 -0.8363 -0.8539
18514SOL    HW259905   0.144   3.162   6.626 -0.0024  0.8798 -0.5270
18515SOL     OW59906   5.167   0.463   4.192 -0.2833  0.1577  0.5142
18515SOL    HW159907   5.200   0.421   4.271  1.0559  0.5314  0.1807
18515SOL    HW259908   5.237   0.524   4.166 -0.6979  0.0602 -0.9325
18516SOL     OW59909   2.201   2.423   5.930 -0.3180 -0.5355 -0.2862
18516SOL    HW159910   2.160   2.413   5.844  0.3876  0.4825 -0.7657
18516SOL    HW259911   2.267   2.354   5.933  0.3888  0.0766 -1.0365
18517SOL     OW59912   3.576  11.077   3.982  0.1859  0.1834 -0.0642
18517SOL    HW159913   3.534  11.053   4.065 -0.7478  0.2035 -0.5209
18517SOL    HW259914   3.668  11.051   3.994  0.0111 -0.0593  0.8725
18518SOL     OW59915   1.799   9.110   7.570 -0.0337  0.0089 -0.1593
18518SOL    HW159916   1.750   9.077   7.495  1.3727 -0.5145 -0.8900
18518SOL    HW259917   1.823   9.031   7.619  1.8165  0.0327 -0.9441
18519SOL     OW59918   6.306   2.014   9.255  0.3344  0.3213  0.6632
18519SOL    HW159919   6.303   2.047   9.345 -0.2492 -1.6313  1.4038
18519SOL    HW259920   6.400   2.007   9.235  0.4762  0.1847  1.3484
18520SOL     OW59921   6.516   0.656   2.298 -0.1860 -0.0265  0.1659
18520SOL    HW159922   6.552   0.586   2.353 -0.0939  1.1656  1.6951
18520SOL    HW259923   6.540   0.736   2.344 -2.4582  0.9133 -0.1961
18521SOL     OW59924   2.731  10.957   5.770  0.3235 -0.3764 -0.9678
18521SOL    HW159925   2.658  10.940   5.710  0.6824  0.7749 -1.7503
18521SOL    HW259926   2.804  10.906   5.734  0.6965  0.7593 -1.8579
18522SOL     OW59927   2.837   9.626   4.063 -0.2316  0.0157 -0.5619
18522SOL    HW159928   2.789   9.611   4.144  0.4013  1.2566  0.0721
18522SOL    HW259929   2.798   9.705   4.025 -0.5541 -0.5816 -1.5021
18523SOL     OW59930   6.889   3.420   7.434 -0.5248  0.8088 -0.2107
18523SOL    HW159931   6.804   3.380   7.453 -0.5958  1.3045  0.5617
18523SOL    HW259932   6.933   3.425   7.519  0.4925  0.0995 -0.6719
18524SOL     OW59933   6.935   6.410   0.046 -0.4240 -0.0729 -0.6159
18524SOL    HW159934   6.903   6.406   0.137  2.1004 -2.6926  0.3027
18524SOL    HW259935   6.874   6.355  -0.003 -0.7035 -0.2332 -0.1071
18525SOL     OW59936  10.586   8.896   9.287 -0.2571 -0.4112 -0.1676
18525SOL    HW159937  10.610   8.805   9.274  1.6935 -0.1941  1.4958
18525SOL    HW259938  10.545   8.898   9.374 -1.8789  0.0533 -0.9049
18526SOL     OW59939   0.742   5.119   8.399  0.1836  0.3503 -0.4768
18526SOL    HW159940   0.757   5.157   8.486 -1.6048  0.4125 -0.1478
18526SOL    HW259941   0.720   5.027   8.416 -1.2142  0.6089 -0.7272
18527SOL     OW59942   9.389   2.129   1.552 -0.0769 -0.1545  0.1556
18527SOL    HW159943   9.356   2.141   1.641 -0.5709  1.5490 -0.2335
18527SOL    HW259944   9.484   2.126   1.562 -0.1730 -1.9118  0.9262
18528SOL     OW59945   8.158   5.380   8.196 -0.1124  0.2864 -0.1646
18528SOL    HW159946   8.101   5.344   8.128 -3.5562 -0.1998  2.6535
18528SOL    HW259947   8.189   5.304   8.244 -0.5823  0.7002  0.8228
18529SOL     OW59948   2.142   5.316   7.017 -0.8716  0.2097 -0.1169
18529SOL    HW159949   2.163   5.254   6.947  1.0236  1.2967 -0.5710
18529SOL    HW259950   2.072   5.370   6.980 -1.1147 -0.3381 -0.4865
18530SOL     OW59951  10.572   4.231   4.150 -0.1671  0.6684  0.0433
18530SOL    HW159952  10.556   4.223   4.244 -1.2674  0.5473 -0.1353
18530SOL    HW259953  10.486   4.219   4.110  0.4255 -0.2323 -1.0362
18531SOL     OW59954   4.361   8.470   2.746 -0.5293 -0.0161  0.2569
18531SOL    HW159955   4.322   8.487   2.832  1.2444  0.5736  1.0028
18531SOL    HW259956   4.455   8.462   2.764  0.0309  1.2753 -1.7664
18532SOL     OW59957   8.000   2.072   8.608 -0.2010 -0.0179 -0.5488
18532SOL    HW159958   7.958   2.157   8.594 -0.0395 -0.0187 -1.0542
18532SOL    HW259959   8.067   2.067   8.539  1.7333  0.6626  1.1807
18533SOL     OW59960   4.059   2.357   9.228 -0.2995 -0.0522  0.2477
18533SOL    HW159961   4.060   2.342   9.322 -0.3815  1.1823  0.4632
18533SOL    HW259962   4.058   2.452   9.219 -1.2421 -0.1512 -0.9875
18534SOL     OW59963   5.196   0.188   3.312 -0.4785 -0.1937 -0.3857
18534SOL    HW159964   5.214   0.103   3.272 -0.1425  0.2375 -1.1782
18534SOL    HW259965   5.102   0.202   3.299 -1.1776 -1.7107  2.3018
18535SOL     OW59966   3.473   9.328   1.904  0.4444  0.3920 -0.2401
18535SOL    HW159967   3.534   9.364   1.968 -0.1999  2.9099 -0.9449
18535SOL    HW259968   3.393   9.311   1.953  0.7164  0.0025  0.0742
18536SOL     OW59969   1.612   6.945   7.903 -0.2218 -0.1600  0.0522
18536SOL    HW159970   1.556   6.870   7.924 -0.1279 -0.1189  0.4658
18536SOL    HW259971   1.701   6.911   7.907 -0.1797 -0.0321  0.2273
18537SOL     OW59972   2.721   9.685   3.275  0.6632 -0.2641 -0.3500
18537SOL    HW159973   2.691   9.733   3.352  0.8784 -2.4554  1.2206
18537SOL    HW259974   2.769   9.610   3.311 -0.2574 -2.0515 -2.5795
18538SOL     OW59975   9.064  10.985   6.325 -0.3312 -0.2719  0.0602
18538SOL    HW159976   9.144  11.032   6.347  0.1556  0.2821 -2.5140
18538SOL    HW259977   8.996  11.052   6.325 -0.3776 -0.3200  0.1879
18539SOL     OW59978   6.894   7.607   1.441  0.1109  0.3121  0.4479
18539SOL    HW159979   6.929   7.578   1.525 -0.1559 -2.4667 -0.2827
18539SOL    HW259980   6.964   7.589   1.378  0.0347  1.6516 -0.0491
18540SOL     OW59981   3.236   5.165   7.081 -0.2852  0.0418 -0.1498
18540SOL    HW159982   3.198   5.147   6.995 -0.9069 -0.8411  0.2993
18540SOL    HW259983   3.331   5.160   7.067 -0.3905 -0.5621 -0.6957
18541SOL     OW59984  10.127  10.969  10.499 -0.3106  0.3622 -0.4250
18541SOL    HW159985  10.217  10.969  10.532 -0.6045  1.0725  0.3947
18541SOL    HW259986  10.118  10.883  10.457  0.1843 -0.4542  1.0653
18542SOL     OW59987   6.168   5.476   4.295 -0.3262  0.1489 -0.5491
18542SOL    HW159988   6.124   5.445   4.217 -1.1005  0.2408 -0.1537
18542SOL    HW259989   6.190   5.567   4.276  0.5156 -0.1578 -1.0906
18543SOL     OW59990   2.693  11.106   9.978  0.0233 -0.0775 -0.6736
18543SOL    HW159991   2.620  11.156   9.942  0.2739  0.7223 -0.0806
18543SOL    HW259992   2.676  11.101  10.072  0.4856 -0.2878 -0.5959
18544SOL     OW59993   1.501   9.818   7.762  0.5416  0.2074 -0.2247
18544SOL    HW159994   1.567   9.880   7.731  2.8938 -1.3917  1.2411
18544SOL    HW259995   1.541   9.732   7.751 -1.6363 -0.9260  0.0476
18545SOL     OW59996  10.421   4.314  10.045 -0.1819  0.5869 -0.1018
18545SOL    HW159997  10.438   4.305   9.951  2.6154  1.3000  0.2496
18545SOL    HW259998  10.369   4.394  10.052  0.4897  1.1123 -0.9667
18546SOL     OW59999   7.701   2.091   0.591 -0.1649 -0.3550 -0.0877
18546SOL    HW160000   7.777   2.118   0.643 -0.5895  0.5413  0.0891
18546SOL    HW260001   7.732   2.094   0.500 -0.1867  0.7057 -0.0666
18547SOL     OW60002   6.025   8.743   9.832  0.1863 -0.6638 -0.3087
18547SOL    HW160003   6.015   8.707   9.744 -2.0580  0.1593 -0.4487
18547SOL    HW260004   5.981   8.828   9.829 -0.0443 -0.6651  1.6367
18548SOL     OW60005   4.060  10.017   7.802  0.7622  0.4417 -0.8367
18548SOL    HW160006   4.022  10.039   7.887 -0.4665  1.1180 -1.5306
18548SOL    HW260007   4.149   9.991   7.822  0.1219 -0.6697  0.8052
18549SOL     OW60008   7.129   4.226   5.038  0.1139 -0.0708 -0.1643
18549SOL    HW160009   7.051   4.282   5.030 -0.1867 -0.4417  0.1322
18549SOL    HW260010   7.161   4.216   4.949 -0.8931 -0.9276 -0.4473
18550SOL     OW60011   2.617  10.857   9.269  0.0395 -0.2660  0.3137
18550SOL    HW160012   2.641  10.850   9.361 -0.6625 -1.1752  0.4531
18550SOL    HW260013   2.700  10.859   9.222  0.3973 -0.4343  0.9271
18551SOL     OW60014   7.678   8.336   8.444 -0.0671 -0.4837 -0.4002
18551SOL    HW160015   7.691   8.280   8.521  0.1816 -0.5007 -0.4570
18551SOL    HW260016   7.738   8.409   8.457  1.5507 -1.5309 -1.6087
18552SOL     OW60017   2.032   9.267   3.503 -0.1031  0.0858  0.8228
18552SOL    HW160018   2.065   9.343   3.551 -0.7207  0.0162  1.3699
18552SOL    HW260019   2.042   9.194   3.564  1.9729 -0.6041 -0.2515
18553SOL     OW60020  10.523  10.216   8.617 -0.5449 -0.0551 -0.2053
18553SOL    HW160021  10.539  10.129   8.652  0.9288  0.6376  0.9275
18553SOL    HW260022  10.609  10.245   8.584 -0.3196  2.0481  2.0027
18554SOL     OW60023   5.638   5.289   5.033  0.4861 -0.3322  0.1977
18554SOL    HW160024   5.649   5.380   5.004 -0.3410  0.8251  3.1987
18554SOL    HW260025   5.728   5.257   5.043  0.8566 -0.8401 -3.2898
18555SOL     OW60026   4.317   5.800   5.813  0.5749  0.2027  0.0633
18555SOL    HW160027   4.263   5.759   5.880  1.0737  0.7986  0.8357
18555SOL    HW260028   4.289   5.758   5.731 -1.4630  0.8875  0.3617
18556SOL     OW60029   2.895  11.090   6.231 -0.3410 -0.3104  0.5514
18556SOL    HW160030   2.822  11.063   6.175  1.0761 -0.6269 -1.2517
18556SOL    HW260031   2.942  11.009   6.250 -0.4763 -0.1206  1.7494
18557SOL     OW60032   1.613   7.439   8.735 -0.0394  0.2529 -0.4214
18557SOL    HW160033   1.648   7.414   8.821 -0.6155  0.1703 -0.2060
18557SOL    HW260034   1.542   7.500   8.755 -0.2416  0.1547 -0.8343
18558SOL     OW60035  10.232   9.832   0.978  0.0317  0.2435 -0.0560
18558SOL    HW160036  10.211   9.925   0.974  0.4466  0.2986 -1.4748
18558SOL    HW260037  10.152   9.787   0.949 -0.0085  0.1761  0.1539
18559SOL     OW60038   5.125   7.638  10.485 -0.2643 -0.0668 -0.1231
18559SOL    HW160039   5.058   7.590  10.436 -0.8408  0.8424 -0.2375
18559SOL    HW260040   5.081   7.717  10.516 -0.3310 -1.1866  3.0562
18560SOL     OW60041   7.617   5.253   5.839  0.0114  0.0529  0.2995
18560SOL    HW160042   7.607   5.331   5.784  0.9905  0.2150  0.3299
18560SOL    HW260043   7.654   5.286   5.921 -0.4045 -0.3326  0.6451
18561SOL     OW60044   1.808   6.766   1.691 -0.3984 -0.2519  0.3697
18561SOL    HW160045   1.723   6.771   1.734 -0.2277 -0.2801  0.7064
18561SOL    HW260046   1.831   6.857   1.673  0.7745 -0.0105  2.7611
18562SOL     OW60047   1.477  11.070   8.388  0.1681  0.1473 -0.4462
18562SOL    HW160048   1.488  11.129   8.314  0.2152 -0.2763 -0.7808
18562SOL    HW260049   1.566  11.054   8.419  0.1640  0.1544 -0.4308
18563SOL     OW60050   3.912   9.170   4.205  0.0481 -0.4193  0.0995
18563SOL    HW160051   3.934   9.108   4.136 -1.9540 -1.0661 -0.0261
18563SOL    HW260052   3.995   9.213   4.227  1.1695 -1.9600 -0.9608
18564SOL     OW60053   4.126   3.784   6.280 -0.0284 -0.0122  0.0704
18564SOL    HW160054   4.189   3.856   6.278 -0.1668  0.1761  1.4154
18564SOL    HW260055   4.159   3.726   6.349 -0.5580 -0.6374 -0.1996
18565SOL     OW60056  10.212   9.223   0.250  0.1863 -0.4118  0.6844
18565SOL    HW160057  10.138   9.269   0.210  1.6039  1.5627  0.1738
18565SOL    HW260058  10.214   9.138   0.206 -0.8441  0.1080 -0.4094
18566SOL     OW60059  10.181   2.786   5.057  0.3480 -0.0932 -0.3487
18566SOL    HW160060  10.234   2.841   5.000 -2.4570  0.8644 -2.2738
18566SOL    HW260061  10.156   2.712   5.002 -0.1234 -0.6223  0.5467
18567SOL     OW60062   6.055   1.857   2.640  0.0294 -0.1215  0.1622
18567SOL    HW160063   5.962   1.877   2.649 -0.1318 -0.3408 -0.8989
18567SOL    HW260064   6.093   1.934   2.596 -0.1898 -1.1344 -1.9269
18568SOL     OW60065   4.364   9.531   8.403 -0.0814  0.6928  0.1931
18568SOL    HW160066   4.308   9.525   8.480  1.6687  2.5263  1.6847
18568SOL    HW260067   4.315   9.586   8.342 -0.3356  1.4841  1.0890
18569SOL     OW60068   0.812   3.854   4.800 -0.3729 -0.5155  0.1066
18569SOL    HW160069   0.765   3.936   4.807 -0.5041 -0.5603 -0.2479
18569SOL    HW260070   0.802   3.828   4.708  1.3757  0.1009 -0.3005
18570SOL     OW60071   5.305   8.049   3.843  0.6848 -0.1472 -0.2715
18570SOL    HW160072   5.337   8.037   3.754  0.7563 -2.2552 -0.0271
18570SOL    HW260073   5.307   8.143   3.858 -1.9016  0.6079 -3.4549
18571SOL     OW60074   6.102   7.589   8.716  0.0863 -0.3943  0.3027
18571SOL    HW160075   6.157   7.585   8.794 -1.0054  1.0490  1.1985
18571SOL    HW260076   6.027   7.535   8.737  0.2374 -0.7860 -0.1486
18572SOL     OW60077   5.161   4.070   8.282  0.2031  0.1748 -0.2597
18572SOL    HW160078   5.226   4.112   8.339  0.5830  0.6038 -0.9925
18572SOL    HW260079   5.111   4.013   8.341 -0.4057  1.7268  0.7907
18573SOL     OW60080   6.044   0.047   9.453 -0.6894 -0.3347 -0.3006
18573SOL    HW160081   6.044   0.038   9.358 -0.3608 -0.3990 -0.2929
18573SOL    HW260082   6.133   0.072   9.476 -0.2890 -2.0510  0.1645
18574SOL     OW60083   5.278   9.957  10.116 -0.2849 -0.0625  0.5996
18574SOL    HW160084   5.327   9.928  10.193 -0.4844  0.8645  1.0904
18574SOL    HW260085   5.265  10.051  10.129 -0.6695  0.0350 -0.3748
18575SOL     OW60086   8.852   3.759   9.288 -0.2270 -0.3521  0.2284
18575SOL    HW160087   8.916   3.737   9.220 -1.1200  0.9141 -1.0695
18575SOL    HW260088   8.852   3.683   9.346  0.1969 -1.6982 -1.4634
18576SOL     OW60089   5.821   8.982  10.654 -0.3183  0.4047 -0.2253
18576SOL    HW160090   5.888   8.923  10.688  0.3542  1.4564  0.3010
18576SOL    HW260091   5.857   9.070  10.666 -1.7859  0.9990  0.0668
18577SOL     OW60092   1.304  10.557   3.555 -0.1056  0.1892 -0.1347
18577SOL    HW160093   1.367  10.624   3.581 -0.4246  0.2054  0.6224
18577SOL    HW260094   1.345  10.474   3.580 -0.9477  0.2658  1.6609
18578SOL     OW60095   4.057  10.773   8.460 -0.5160 -0.0449 -0.2327
18578SOL    HW160096   3.973  10.768   8.414 -1.3211  0.8467  1.0833
18578SOL    HW260097   4.053  10.704   8.526  0.2841 -0.7548 -0.8923
18579SOL     OW60098   2.077  10.016   4.190 -0.7275  0.2485  0.7751
18579SOL    HW160099   2.150   9.963   4.221  1.9366  2.7479 -0.7590
18579SOL    HW260100   2.001   9.957   4.193  1.3694 -2.5915  2.1163
18580SOL     OW60101   2.509   7.542  10.000 -0.0121 -0.1426 -0.7213
18580SOL    HW160102   2.509   7.499   9.914 -0.3380  0.9711 -1.3027
18580SOL    HW260103   2.494   7.471  10.062 -0.0888 -0.9283 -1.6026
18581SOL     OW60104   8.032   0.664   2.851  0.1496  0.1177  0.3430
18581SOL    HW160105   7.971   0.706   2.912  0.5593 -1.1101  1.6396
18581SOL    HW260106   8.109   0.720   2.852 -0.0603  0.4099  0.5116
18582SOL     OW60107   4.255   4.648   9.461 -0.1394  0.4737  0.5037
18582SOL    HW160108   4.207   4.657   9.543 -0.0136 -0.9834  0.7532
18582SOL    HW260109   4.267   4.554   9.449  1.4568  0.7289 -0.2528
18583SOL     OW60110  10.983   3.768   3.799  0.0250 -0.4817 -0.6753
18583SOL    HW160111  10.929   3.843   3.774  0.5599 -0.7416 -2.7946
18583SOL    HW260112  10.970   3.760   3.893 -0.3402  2.0300 -0.4314
18584SOL     OW60113   2.163   5.406  10.869  0.9640  0.3574  0.2623
18584SOL    HW160114   2.241   5.421  10.816  1.5186 -1.5175  0.4599
18584SOL    HW260115   2.180   5.322  10.913 -0.8875  0.2298  0.8217
18585SOL     OW60116   4.264   5.080   3.357  0.0859 -0.4622  0.0563
18585SOL    HW160117   4.177   5.089   3.396  0.1963  0.1073  0.1790
18585SOL    HW260118   4.305   5.165   3.371 -0.6378  0.5534 -3.1903
18586SOL     OW60119   9.991   5.637   3.812 -0.0701  0.1698 -0.1208
18586SOL    HW160120  10.032   5.605   3.732  1.2114  2.4313 -0.4493
18586SOL    HW260121   9.929   5.703   3.783 -1.5444 -0.8371  0.6213
18587SOL     OW60122   8.640   3.601   4.060  0.7198 -0.2588 -0.2649
18587SOL    HW160123   8.644   3.550   3.980  0.4949  0.7167 -0.9211
18587SOL    HW260124   8.678   3.686   4.036 -0.1813  0.3557  0.3966
18588SOL     OW60125   0.549   1.523   6.300 -0.2835 -0.7100  0.3818
18588SOL    HW160126   0.572   1.495   6.211 -0.0863 -0.7992  0.4602
18588SOL    HW260127   0.469   1.575   6.289 -0.1216 -0.5119  0.1191
18589SOL     OW60128   1.485   5.363   6.280 -0.3275 -0.2342 -0.4910
18589SOL    HW160129   1.479   5.268   6.289 -0.1695 -0.3135 -1.1486
18589SOL    HW260130   1.403   5.396   6.318  0.0737 -0.5546  0.6814
18590SOL     OW60131   2.518  10.923   5.593  0.2199 -0.4690 -0.8078
18590SOL    HW160132   2.460  10.975   5.539  0.5262 -0.2872 -0.9661
18590SOL    HW260133   2.554  10.856   5.534  1.2393  0.2762 -1.0634
18591SOL     OW60134   8.703   2.327   3.263  0.4141 -0.5609 -0.5525
18591SOL    HW160135   8.767   2.389   3.230 -0.3209  1.3887  1.4659
18591SOL    HW260136   8.618   2.367   3.244 -0.1306 -1.5698 -0.3347
18592SOL     OW60137   1.379  10.406   6.625 -0.2758  0.1471  0.9166
18592SOL    HW160138   1.373  10.314   6.602  0.5078  0.3314 -0.1108
18592SOL    HW260139   1.310  10.420   6.690 -1.3763 -0.8197 -0.0089
18593SOL     OW60140   8.358   7.539  10.958  0.2063  0.3012 -0.3751
18593SOL    HW160141   8.361   7.476  10.885 -1.3632  0.3316 -0.5069
18593SOL    HW260142   8.423   7.506  11.021 -0.1519 -1.1165 -0.7014
18594SOL     OW60143   9.174   2.365   1.911 -0.2452  0.6270  0.2764
18594SOL    HW160144   9.140   2.314   1.985  0.1282 -1.0014 -0.6402
18594SOL    HW260145   9.097   2.411   1.876 -0.5102  1.0480  1.3693
18595SOL     OW60146  10.520  10.467   9.562  1.0640 -0.1267  0.1689
18595SOL    HW160147  10.605  10.509   9.547  0.2236  1.4253 -0.4543
18595SOL    HW260148  10.476  10.471   9.477  1.1622 -2.8793 -0.0833
18596SOL     OW60149   9.777   4.722   9.082 -0.1338 -0.7146 -0.0880
18596SOL    HW160150   9.694   4.762   9.111 -0.3296 -1.8700  1.0846
18596SOL    HW260151   9.768   4.713   8.987 -1.0889 -0.2240 -0.0549
18597SOL     OW60152   7.522   1.865   7.986 -0.4553 -0.0675 -0.3272
18597SOL    HW160153   7.554   1.778   7.961 -0.9236  0.1582 -1.8193
18597SOL    HW260154   7.453   1.884   7.923 -0.4800  1.3226  0.0880
18598SOL     OW60155   5.482   2.939   2.412 -0.3757 -0.0812 -0.2076
18598SOL    HW160156   5.561   2.968   2.458 -0.2829 -0.7200  0.0456
18598SOL    HW260157   5.477   2.845   2.429 -1.8360  0.1437  0.7618
18599SOL     OW60158   9.834   8.353   9.251 -0.1220  0.0961 -0.1988
18599SOL    HW160159   9.839   8.349   9.155  2.7928 -1.4809 -0.0964
18599SOL    HW260160   9.764   8.293   9.274 -1.8099  1.5372 -1.3408
18600SOL     OW60161  10.740  10.017   9.917  0.4614  0.1158  0.2198
18600SOL    HW160162  10.799  10.087   9.888  1.2075  0.0151  1.4427
18600SOL    HW260163  10.704  10.050  10.000 -2.7883  1.0784 -1.4086
18601SOL     OW60164  10.454   8.106   5.225 -0.0168  0.3387 -0.4940
18601SOL    HW160165  10.458   8.194   5.262 -1.7491 -0.3186  1.4297
18601SOL    HW260166  10.504   8.052   5.285 -0.2415 -0.2356 -0.8189
18602SOL     OW60167   3.832   7.845   1.758 -0.0630  0.4890  0.5577
18602SOL    HW160168   3.913   7.887   1.788  0.1675 -0.2753  1.0342
18602SOL    HW260169   3.861   7.767   1.711 -0.3671  2.0285 -2.4361
18603SOL     OW60170   5.469  10.582  10.581 -0.5158  0.1804  0.5582
18603SOL    HW160171   5.443  10.548  10.496  0.2793 -1.8218  1.0330
18603SOL    HW260172   5.424  10.525  10.644 -0.8521  1.4247  1.4829
18604SOL     OW60173   8.305   6.751   3.621 -0.2281  0.6310  0.3549
18604SOL    HW160174   8.308   6.657   3.637  2.3104  0.7234  0.9677
18604SOL    HW260175   8.259   6.788   3.696 -1.0724 -0.0969  0.2017
18605SOL     OW60176  11.065   0.242   4.297  0.1594 -0.2066  0.5188
18605SOL    HW160177  11.008   0.250   4.220  0.9565 -1.8326 -0.2960
18605SOL    HW260178  11.018   0.289   4.366 -0.5892  1.2848 -0.9353
18606SOL     OW60179   0.605   0.284   5.694  0.0923  0.1137 -0.4980
18606SOL    HW160180   0.656   0.205   5.715  0.9604  0.6391 -0.6000
18606SOL    HW260181   0.612   0.338   5.772  0.4957  0.6074 -0.8748
18607SOL     OW60182   8.818  10.481   9.303 -0.4459  0.2841  0.9735
18607SOL    HW160183   8.895  10.432   9.332 -0.0185  2.1877  3.3996
18607SOL    HW260184   8.772  10.420   9.245  2.0923 -1.4463  0.5621
18608SOL     OW60185   9.530   7.249   4.848 -0.1735  0.3083  0.4723
18608SOL    HW160186   9.561   7.166   4.812  0.0349  0.0371  1.2409
18608SOL    HW260187   9.452   7.224   4.898 -0.7225  0.7423 -0.1511
18609SOL     OW60188  10.722   5.501  10.269 -0.7932 -0.4501  0.5934
18609SOL    HW160189  10.640   5.538  10.301 -1.0915 -2.0270  1.7258
18609SOL    HW260190  10.705   5.408  10.260  0.5660 -0.6464 -0.2138
18610SOL     OW60191   2.893   8.837   6.301 -0.5644  0.6775  0.2421
18610SOL    HW160192   2.802   8.859   6.321 -0.0784  2.4854  0.6074
18610SOL    HW260193   2.942   8.864   6.378  0.1831 -1.2856  0.4975
18611SOL     OW60194   9.266   0.538   4.843 -0.0782 -0.4200  0.1217
18611SOL    HW160195   9.307   0.507   4.762 -1.0680  0.7477 -0.8612
18611SOL    HW260196   9.331   0.597   4.881  0.6201 -1.3987  0.5020
18612SOL     OW60197   7.491   4.099   6.931 -0.3234  0.0571  0.6114
18612SOL    HW160198   7.508   4.052   7.012  0.4242 -0.0205  0.4148
18612SOL    HW260199   7.537   4.182   6.941 -0.2107  0.0388  0.2629
18613SOL     OW60200   4.142   1.641   4.863 -0.3968 -0.1546  0.0194
18613SOL    HW160201   4.051   1.633   4.836 -0.0520 -1.4429 -0.8322
18613SOL    HW260202   4.176   1.552   4.862  0.9995  0.3523 -0.1549
18614SOL     OW60203   3.943   8.921   8.763 -0.3480 -0.5206 -0.1589
18614SOL    HW160204   3.868   8.977   8.780  0.1500  0.0695  0.1455
18614SOL    HW260205   3.973   8.895   8.850 -0.5619 -1.2493 -0.2972
18615SOL     OW60206   5.889   5.910   6.783 -0.2569  0.4771 -0.1269
18615SOL    HW160207   5.868   5.837   6.724  0.3100  0.7701 -0.7040
18615SOL    HW260208   5.983   5.922   6.774 -0.2281  0.7972  0.5399
18616SOL     OW60209   4.061   9.338   8.569 -0.5180 -0.6604 -0.8798
18616SOL    HW160210   4.086   9.430   8.578  1.0992 -1.1900  0.6044
18616SOL    HW260211   4.104   9.309   8.489  1.1397 -0.7394 -0.0016
18617SOL     OW60212  10.735   7.964   9.097  0.1428 -0.3395 -0.3536
18617SOL    HW160213  10.726   7.914   9.178 -0.7479 -0.8746 -0.7611
18617SOL    HW260214  10.653   7.948   9.050 -0.2515  1.6499 -0.4274
18618SOL     OW60215  10.073   6.177   3.528 -0.3424 -0.3319 -0.1316
18618SOL    HW160216  10.068   6.266   3.563 -2.8049 -0.1760 -0.6603
18618SOL    HW260217   9.992   6.167   3.478  0.3684 -2.5316 -0.9572
18619SOL     OW60218   7.359   5.279   8.001  0.0233 -0.2815 -0.1043
18619SOL    HW160219   7.319   5.256   8.085  1.4721  0.4830  0.8415
18619SOL    HW260220   7.326   5.367   7.982 -1.7542 -1.1614 -1.3052
18620SOL     OW60221   3.854   5.203  10.735  0.1219  0.3712 -0.1947
18620SOL    HW160222   3.885   5.215  10.825  0.3939  0.9783 -0.3677
18620SOL    HW260223   3.924   5.239  10.681  0.3905 -0.8597 -0.6919
18621SOL     OW60224   3.479   3.039  10.820 -0.0365  0.0896 -0.1420
18621SOL    HW160225   3.492   2.957  10.772 -0.1244  1.2102 -2.2220
18621SOL    HW260226   3.412   3.019  10.885  1.4895 -2.0206  0.8853
18622SOL     OW60227   0.782   8.530   9.551  0.1728  0.7811  0.1308
18622SOL    HW160228   0.819   8.587   9.483  1.6528 -1.0906 -0.7557
18622SOL    HW260229   0.689   8.553   9.554  0.9551  4.5354  1.2259
18623SOL     OW60230   6.460   6.934   1.848 -0.0452  0.2258  0.0834
18623SOL    HW160231   6.462   6.937   1.943  1.1133  2.1751  0.0316
18623SOL    HW260232   6.393   6.868   1.828  0.5779 -1.1654  2.2139
18624SOL     OW60233   5.060   9.450  11.115  0.2598  1.3215 -0.1766
18624SOL    HW160234   5.083   9.487  11.029 -0.7030  1.5818 -0.3351
18624SOL    HW260235   4.966   9.466  11.123 -0.4199 -1.7461 -0.6069
18625SOL     OW60236   5.305   4.983   2.294  0.2310  1.0039 -0.2124
18625SOL    HW160237   5.349   4.929   2.360 -0.9794  0.6927  0.3692
18625SOL    HW260238   5.261   5.051   2.344 -0.4428  0.9531 -0.7229
18626SOL     OW60239   8.201   2.190   4.951 -0.0865 -0.1501  0.1682
18626SOL    HW160240   8.293   2.208   4.971 -0.0457 -0.3993  0.2101
18626SOL    HW260241   8.156   2.272   4.971  0.3008  0.3891 -1.0995
18627SOL     OW60242   9.057   9.075  10.531  0.2304 -0.1466  0.2886
18627SOL    HW160243   9.067   9.123  10.613 -0.1357  2.2479 -0.9747
18627SOL    HW260244   9.144   9.039  10.513  0.4482 -0.2367  1.4103
18628SOL     OW60245   9.307   2.630   3.818 -0.3613  0.1145  0.7971
18628SOL    HW160246   9.244   2.600   3.883 -1.2475  0.7810  0.2792
18628SOL    HW260247   9.272   2.714   3.789 -1.8417 -1.5393 -2.8906
18629SOL     OW60248   6.118   3.797   4.333 -0.6194  0.1885  0.1142
18629SOL    HW160249   6.056   3.829   4.268 -0.6017  0.1299  0.0685
18629SOL    HW260250   6.192   3.858   4.328 -0.0227 -0.5789 -0.8639
18630SOL     OW60251  11.003   1.306   4.356 -0.0598  0.3645 -0.7248
18630SOL    HW160252  11.097   1.287   4.364 -0.1994  0.3813  1.6976
18630SOL    HW260253  10.995   1.398   4.380 -0.8381 -0.0381  0.6552
18631SOL     OW60254   4.786   1.819   6.406 -0.3574 -0.8293 -0.0585
18631SOL    HW160255   4.849   1.795   6.338 -1.3979 -1.7965 -0.7132
18631SOL    HW260256   4.727   1.881   6.362 -1.4744 -2.0196 -0.2947
18632SOL     OW60257   5.213   9.692   1.810  0.0262  0.4760  0.1303
18632SOL    HW160258   5.138   9.712   1.867 -1.6521  0.5006 -1.9831
18632SOL    HW260259   5.205   9.598   1.793 -0.2950  0.7231 -1.1399
18633SOL     OW60260   4.043   2.985  10.338  0.1042 -0.6923  0.1102
18633SOL    HW160261   4.072   3.069  10.373  0.1409 -1.3815  1.8350
18633SOL    HW260262   4.025   2.932  10.415 -1.4706 -1.7600 -0.9289
18634SOL     OW60263   3.451   8.415  10.250  0.2116 -0.0562  0.2670
18634SOL    HW160264   3.380   8.439  10.310  0.4037 -0.6884  0.7665
18634SOL    HW260265   3.499   8.496  10.236 -0.1662  0.2182  0.5350
18635SOL     OW60266   7.584   4.590  10.253  0.0009  0.4355 -0.8178
18635SOL    HW160267   7.623   4.671  10.286  0.0427 -0.4134  1.4325
18635SOL    HW260268   7.656   4.527  10.251 -0.5356 -0.2420  0.0997
18636SOL     OW60269   1.155   8.816   1.849 -0.1384  0.1831  0.3052
18636SOL    HW160270   1.095   8.881   1.885  0.9610  2.0482 -1.0486
18636SOL    HW260271   1.125   8.801   1.760 -0.3452 -1.1941  0.5789
18637SOL     OW60272   3.196   9.587   2.535 -0.1634  0.0356 -0.3481
18637SOL    HW160273   3.284   9.553   2.517  0.0114  1.1994 -1.9162
18637SOL    HW260274   3.139   9.511   2.529  0.5642 -0.4903 -0.7832
18638SOL     OW60275   8.132   5.028   9.297  0.2288  0.3721 -0.1097
18638SOL    HW160276   8.038   5.016   9.289  0.3170 -0.3871 -0.1041
18638SOL    HW260277   8.167   5.006   9.210  0.5453 -1.0078  0.3433
18639SOL     OW60278   5.037   2.793   8.628  0.1604  0.5156  0.3540
18639SOL    HW160279   5.048   2.760   8.539 -0.8313  1.5886 -0.2013
18639SOL    HW260280   5.085   2.732   8.683  1.6995  0.4124 -1.0237
18640SOL     OW60281   0.729   1.855   3.964 -0.0340 -0.5284  0.2450
18640SOL    HW160282   0.716   1.878   3.872  1.4576  1.8680  0.5512
18640SOL    HW260283   0.682   1.772   3.975 -0.6660 -0.6266 -2.5266
18641SOL     OW60284   9.314   1.304   0.122  0.3212  0.2482  0.4186
18641SOL    HW160285   9.237   1.352   0.151  0.1735  0.8028 -0.8027
18641SOL    HW260286   9.359   1.365   0.063  1.1019 -0.4629  0.2584
18642SOL     OW60287   4.364  10.407   2.393  0.7517  0.3639 -0.3650
18642SOL    HW160288   4.352  10.487   2.445  1.4699 -0.0557  0.4873
18642SOL    HW260289   4.418  10.351   2.449 -1.3654 -1.5299 -0.1112
18643SOL     OW60290   8.114   9.311  10.976  0.6165 -0.4638  0.1992
18643SOL    HW160291   8.195   9.267  10.952  0.7932 -1.1214  1.8528
18643SOL    HW260292   8.141   9.400  10.999  0.9317 -0.7467  0.9725
18644SOL     OW60293   4.369   7.752   2.495 -0.2892 -0.1572 -0.0286
18644SOL    HW160294   4.420   7.799   2.561  0.1589  0.6500 -0.9129
18644SOL    HW260295   4.406   7.664   2.494 -0.4114 -0.2234  0.8991
18645SOL     OW60296   2.151  10.324   2.888  0.0306 -0.3333  0.6066
18645SOL    HW160297   2.198  10.243   2.908  0.0179 -0.9865 -1.6536
18645SOL    HW260298   2.060  10.296   2.877 -0.0869  0.1081  0.4450
18646SOL     OW60299   7.888   3.418   5.373 -0.4068  0.4271 -0.0076
18646SOL    HW160300   7.949   3.460   5.434  0.2780  1.4306 -1.3334
18646SOL    HW260301   7.823   3.486   5.354 -2.5163 -0.8527  1.9970
18647SOL     OW60302   8.562   0.721   8.098 -0.4183  0.3204 -0.3572
18647SOL    HW160303   8.553   0.661   8.172  1.4397  1.4844  0.9024
18647SOL    HW260304   8.491   0.784   8.108 -3.0779 -2.1145 -2.3028
18648SOL     OW60305   6.205   3.990   0.810  0.0765  0.8809 -0.4660
18648SOL    HW160306   6.112   4.005   0.827 -0.1781 -0.8109 -0.1368
18648SOL    HW260307   6.249   4.019   0.890 -0.4263 -0.4424  0.3286
18649SOL     OW60308   5.165   8.080   8.637 -0.1658  0.1455  0.4042
18649SOL    HW160309   5.101   8.052   8.571 -0.0787 -0.3266  0.5178
18649SOL    HW260310   5.248   8.041   8.607 -0.2455 -0.6008  1.1280
18650SOL     OW60311   5.985   2.716   1.187 -0.3041  0.5308  0.1129
18650SOL    HW160312   6.049   2.662   1.233 -2.0848 -0.4793  1.5335
18650SOL    HW260313   5.988   2.800   1.233  1.3769  1.1909 -1.1181
18651SOL     OW60314   9.765   1.117   9.951  0.0453  0.4871 -0.2898
18651SOL    HW160315   9.738   1.209   9.943  0.9191  0.8306  0.5183
18651SOL    HW260316   9.735   1.076   9.870 -3.1528  0.7552  0.6407
18652SOL     OW60317   1.643  11.080   7.576 -0.3728  0.1138  0.2625
18652SOL    HW160318   1.611  11.043   7.494  0.4022  0.8040 -0.3594
18652SOL    HW260319   1.703  11.150   7.550  1.1014 -0.6596  1.3851
18653SOL     OW60320   6.479   8.236   4.474 -0.0926 -0.7249 -0.5775
18653SOL    HW160321   6.485   8.242   4.569  3.2404  0.7422 -0.7625
18653SOL    HW260322   6.412   8.301   4.450  2.6054  2.7788  0.5640
18654SOL     OW60323   7.266   9.189   9.225  0.0013  0.3263 -0.0690
18654SOL    HW160324   7.271   9.262   9.286 -0.1323  0.0375  0.2902
18654SOL    HW260325   7.311   9.117   9.269  0.4238  0.2834 -0.5609
18655SOL     OW60326   4.126   5.274   4.848 -0.0570  0.8925 -0.2282
18655SOL    HW160327   4.091   5.200   4.898  1.3915 -0.0793 -0.5888
18655SOL    HW260328   4.157   5.234   4.767  0.2762  1.9940 -0.6466
18656SOL     OW60329   2.083   0.229   5.817  0.7562  0.1138  0.4198
18656SOL    HW160330   2.019   0.293   5.847  1.6312  1.2977 -0.1449
18656SOL    HW260331   2.167   0.275   5.823  1.4486 -1.0939  0.2860
18657SOL     OW60332   3.675  10.093   4.930 -0.1633 -0.0888  0.0555
18657SOL    HW160333   3.663  10.178   4.887 -0.3119 -0.0738  0.1239
18657SOL    HW260334   3.614  10.095   5.003 -1.1824 -0.8058 -0.7463
18658SOL     OW60335   5.971   9.314   2.782  0.5435 -0.2887 -0.2266
18658SOL    HW160336   5.910   9.356   2.843  0.3658 -0.0927 -0.5362
18658SOL    HW260337   6.026   9.259   2.837 -0.2286 -0.8473  0.0016
18659SOL     OW60338   5.598   4.268   4.749 -1.2047 -0.5062 -0.0653
18659SOL    HW160339   5.651   4.201   4.793  0.3556 -0.0526 -1.1737
18659SOL    HW260340   5.541   4.218   4.690 -0.5285 -0.9032 -0.3935
18660SOL     OW60341   7.814   6.361   2.679  0.3395 -0.0135 -0.6939
18660SOL    HW160342   7.788   6.414   2.604  0.0486  1.4211  0.3633
18660SOL    HW260343   7.894   6.403   2.711  0.3723 -0.5049 -0.1226
18661SOL     OW60344   2.239   9.249   5.975 -0.0838  0.1410 -0.4253
18661SOL    HW160345   2.330   9.263   5.949 -0.1464 -0.4460 -0.9788
18661SOL    HW260346   2.238   9.270   6.068  0.4397  0.9459 -0.5854
18662SOL     OW60347   2.455   3.896   8.606  0.1632 -0.2203 -0.3222
18662SOL    HW160348   2.524   3.890   8.540  1.3764 -2.1752  0.9860
18662SOL    HW260349   2.459   3.812   8.652 -2.3983  0.0317  0.5318
18663SOL     OW60350   7.013  10.906   7.914 -0.0396 -0.2808 -0.0514
18663SOL    HW160351   7.097  10.935   7.877 -0.0699  0.4375  0.4297
18663SOL    HW260352   7.019  10.810   7.913  1.2259 -0.2479  0.9246
18664SOL     OW60353   6.912   9.972   7.850  0.1874 -0.5037 -0.3654
18664SOL    HW160354   6.986  10.007   7.899 -1.1572  0.0696  1.3792
18664SOL    HW260355   6.914  10.019   7.767  0.2021  1.6036  0.7359
18665SOL     OW60356   8.903   8.449  10.843 -0.1205 -0.3448  0.8141
18665SOL    HW160357   8.967   8.388  10.806 -1.3602 -0.4463 -1.2940
18665SOL    HW260358   8.830   8.449  10.781 -0.2818  3.1201  0.7865
18666SOL     OW60359  10.196   2.982   3.587  0.3056 -0.0866 -0.2320
18666SOL    HW160360  10.171   3.073   3.600 -2.1578 -0.8914  1.5491
18666SOL    HW260361  10.201   2.945   3.676  1.7142 -1.5946 -0.8747
18667SOL     OW60362  10.314   9.647   1.155 -0.3970 -0.3069  0.3482
18667SOL    HW160363  10.285   9.714   1.093 -3.4397 -0.6074  1.2886
18667SOL    HW260364  10.385   9.688   1.204  0.9518  0.5336 -2.0940
18668SOL     OW60365   6.900   3.752   6.065  0.0957 -0.4814  0.0299
18668SOL    HW160366   6.920   3.774   6.156 -0.2468  1.0404 -0.2310
18668SOL    HW260367   6.818   3.702   6.070 -0.1566 -0.0267  0.5295
18669SOL     OW60368   1.318   7.017   4.333 -0.2938 -0.3496 -0.5688
18669SOL    HW160369   1.261   7.041   4.407  1.1615 -0.4802  0.6340
18669SOL    HW260370   1.404   7.052   4.357  0.2235 -0.4226 -2.2075
18670SOL     OW60371   8.398   5.874  11.066 -0.2044  0.1592  0.0165
18670SOL    HW160372   8.329   5.815  11.035  0.5575 -0.5651 -0.3401
18670SOL    HW260373   8.390   5.872  11.161 -0.4951 -0.1359 -0.0101
18671SOL     OW60374   1.101   2.085   6.663 -0.2635 -0.1761  0.6833
18671SOL    HW160375   1.011   2.065   6.637  0.3278 -1.1396 -0.7648
18671SOL    HW260376   1.126   2.159   6.607  0.1762 -0.5707  0.3575
18672SOL     OW60377   7.347  10.214   9.286 -0.1552 -0.1167  0.3601
18672SOL    HW160378   7.277  10.217   9.351 -0.2471  0.9699  0.2275
18672SOL    HW260379   7.308  10.253   9.207 -0.0816 -1.5194 -0.3900
18673SOL     OW60380   4.916   3.961   6.531  0.0785  0.1026  0.2181
18673SOL    HW160381   4.897   3.869   6.513  0.1635  0.0239  0.5287
18673SOL    HW260382   4.996   3.979   6.482 -0.4655  0.2807 -0.6314
18674SOL     OW60383   8.830  10.025  10.245  0.1791  0.1881  0.2117
18674SOL    HW160384   8.905   9.975  10.213  0.2183 -0.7233  1.6401
18674SOL    HW260385   8.823  10.002  10.338 -1.3301  0.9396  0.3230
18675SOL     OW60386  10.562   7.167   5.600  0.7085 -0.3110  0.1134
18675SOL    HW160387  10.470   7.193   5.600  0.9978  0.8836  1.4029
18675SOL    HW260388  10.585   7.164   5.693  2.0926 -0.1369 -0.2132
18676SOL     OW60389   9.652   7.388   0.808 -0.0647 -0.0291  0.3808
18676SOL    HW160390   9.577   7.346   0.767  0.1966 -1.6771  1.5075
18676SOL    HW260391   9.728   7.347   0.767  0.2064  0.3350  0.5136
18677SOL     OW60392   0.370   3.212   1.416 -0.1072 -0.9350  0.2358
18677SOL    HW160393   0.292   3.185   1.463 -0.8800 -0.5272 -0.7556
18677SOL    HW260394   0.348   3.198   1.324  0.8062 -0.3659 -0.0830
18678SOL     OW60395   0.744   6.306  10.771  0.8555  0.6686  0.3535
18678SOL    HW160396   0.752   6.293  10.865  0.1386 -0.3838  0.2841
18678SOL    HW260397   0.686   6.382  10.762  0.4898  0.4405  0.7586
18679SOL     OW60398  10.410  10.619   0.494 -0.6954  0.5292 -0.0786
18679SOL    HW160399  10.377  10.708   0.494 -2.2501  0.0238 -2.2000
18679SOL    HW260400  10.451  10.608   0.408  2.3985  0.1245  1.2884
18680SOL     OW60401   4.052   4.234   7.250  0.1254 -0.0599 -0.3237
18680SOL    HW160402   4.092   4.167   7.195 -0.1184 -0.3887 -0.1060
18680SOL    HW260403   3.965   4.247   7.212  0.1430  0.0771 -0.3174
18681SOL     OW60404   9.886   9.519   6.812 -0.4185  0.1957  0.4042
18681SOL    HW160405   9.930   9.600   6.785 -1.4453 -0.0526 -2.2646
18681SOL    HW260406   9.919   9.453   6.751 -2.0707 -0.6735  0.4241
18682SOL     OW60407   5.515   8.909   7.584  0.1099 -0.2469 -0.6457
18682SOL    HW160408   5.560   8.895   7.501  1.8536 -0.7225  0.3363
18682SOL    HW260409   5.535   8.831   7.636  0.4296  0.7597  0.8093
18683SOL     OW60410   6.414   0.629   2.801  0.0467 -0.2365  0.2057
18683SOL    HW160411   6.364   0.549   2.786  0.5319 -0.9708  2.1705
18683SOL    HW260412   6.396   0.652   2.892  1.2779  0.9160  0.1900
18684SOL     OW60413   8.802   9.797   0.909  0.0391  0.5263  0.6114
18684SOL    HW160414   8.816   9.870   0.850  0.5613  1.0954  1.4228
18684SOL    HW260415   8.848   9.724   0.868  1.9708  1.3613  1.1860
18685SOL     OW60416   0.446   1.284   8.545  0.3435 -0.2493 -0.5800
18685SOL    HW160417   0.520   1.232   8.515  2.0029  0.3785  2.1070
18685SOL    HW260418   0.396   1.225   8.601  1.0495  0.3748  0.7579
18686SOL     OW60419   5.134   2.858   4.541 -0.0774 -0.0734  0.5215
18686SOL    HW160420   5.222   2.895   4.541 -0.0950  0.0049 -0.6533
18686SOL    HW260421   5.076   2.934   4.535 -0.1391 -0.2181 -1.0659
18687SOL     OW60422   2.110   2.617   1.552  0.0974 -0.0397 -0.4755
18687SOL    HW160423   2.100   2.627   1.646 -2.1809  0.6922 -0.7106
18687SOL    HW260424   2.071   2.532   1.532  3.2785 -1.6222 -0.4998
18688SOL     OW60425   7.846   5.132   9.845 -0.0592 -0.1417 -0.0503
18688SOL    HW160426   7.767   5.078   9.850 -0.0631 -0.0867  0.5892
18688SOL    HW260427   7.822   5.213   9.891  0.1768  0.1187 -0.3838
18689SOL     OW60428  10.710   5.249   7.088  0.3176 -0.1170 -0.5973
18689SOL    HW160429  10.640   5.309   7.113  0.4448  0.8660 -2.3620
18689SOL    HW260430  10.719   5.189   7.161 -0.3449  1.5659  0.9385
18690SOL     OW60431  10.424   8.750  10.904 -0.1124 -0.4437 -0.4463
18690SOL    HW160432  10.344   8.785  10.865  0.2362  1.9343  0.8068
18690SOL    HW260433  10.494   8.805  10.869  0.6604 -0.8656  0.4076
18691SOL     OW60434   0.029   3.730   6.922 -0.1468  0.3796  0.0089
18691SOL    HW160435   0.098   3.788   6.952 -0.4522  0.5529  0.3831
18691SOL    HW260436   0.054   3.643   6.954 -0.5462  0.5850  0.9160
18692SOL     OW60437   3.899  10.315  10.487  0.6606 -0.1717  0.1046
18692SOL    HW160438   3.904  10.303  10.582  3.3185 -1.1523 -0.0659
18692SOL    HW260439   3.985  10.289  10.455  0.5471  2.0747 -2.3971
18693SOL     OW60440   7.254   9.683   7.648 -0.0898 -0.6101  0.3068
18693SOL    HW160441   7.294   9.608   7.604  0.2230 -0.8679  1.0156
18693SOL    HW260442   7.166   9.653   7.670  0.2007 -0.9667  1.0405
18694SOL     OW60443   2.581   3.520   3.593  0.1673 -0.1705 -0.4339
18694SOL    HW160444   2.582   3.595   3.653 -0.5195  0.0752 -0.7220
18694SOL    HW260445   2.503   3.534   3.539 -0.1450 -1.2455 -0.2852
18695SOL     OW60446  10.879   5.652   0.136 -0.4555 -0.0928 -0.4695
18695SOL    HW160447  10.957   5.627   0.186 -0.4349 -0.1500 -0.5295
18695SOL    HW260448  10.871   5.746   0.148 -1.4656 -0.3350  1.1151
18696SOL     OW60449   8.136   0.974  10.741  0.3056 -0.2112 -0.6308
18696SOL    HW160450   8.130   0.909  10.672  1.5383 -2.2574  1.0806
18696SOL    HW260451   8.195   1.041  10.706 -0.6145 -0.1899 -2.2378
18697SOL     OW60452   1.895   3.204   8.265  0.1146  0.9173 -0.7550
18697SOL    HW160453   1.950   3.265   8.314 -0.0070  0.9370 -0.6411
18697SOL    HW260454   1.904   3.231   8.174 -0.3713  1.4539 -0.6490
18698SOL     OW60455   3.787   7.819  10.871  0.6960 -0.4261 -0.2503
18698SOL    HW160456   3.772   7.755  10.941 -0.4620  0.1672  0.0638
18698SOL    HW260457   3.708   7.814  10.817  0.3716  1.0814  0.0589
18699SOL     OW60458   2.321   4.308   0.191  0.1984 -0.3197 -0.1715
18699SOL    HW160459   2.381   4.374   0.155  1.4229 -0.6161  1.2169
18699SOL    HW260460   2.234   4.347   0.184  0.7854  0.9731 -0.4233
18700SOL     OW60461  10.471   6.090   8.210  0.4812  0.1014 -0.7149
18700SOL    HW160462  10.432   6.040   8.138  2.2507 -1.7675 -0.4587
18700SOL    HW260463  10.565   6.082   8.197  0.8619 -0.4669  1.8829
18701SOL     OW60464   3.282   1.632   3.428 -0.6923 -0.0404 -0.3834
18701SOL    HW160465   3.354   1.691   3.405 -0.7982 -0.0104 -0.6401
18701SOL    HW260466   3.299   1.552   3.379 -0.3004 -0.3942  0.3194
18702SOL     OW60467   6.205   9.930   6.652 -0.0299 -0.1069  0.1978
18702SOL    HW160468   6.235  10.011   6.612 -2.1888  1.0351  0.7534
18702SOL    HW260469   6.144   9.893   6.588 -1.4385  0.3454  1.2515
18703SOL     OW60470   5.878   3.631   9.803 -0.0395 -0.2825 -0.2068
18703SOL    HW160471   5.949   3.569   9.816 -1.1555 -2.2838 -2.7031
18703SOL    HW260472   5.798   3.578   9.804 -1.1318  1.1914 -1.6968
18704SOL     OW60473   6.641   3.714   1.203  0.5708 -0.3810  0.0918
18704SOL    HW160474   6.573   3.677   1.259  0.1408  0.0034 -0.1674
18704SOL    HW260475   6.641   3.658   1.125 -0.7638  0.7034 -0.7382
18705SOL     OW60476   4.236   5.892   6.794  0.4613 -0.6760  0.3178
18705SOL    HW160477   4.190   5.875   6.712  0.8195 -0.9020  0.1612
18705SOL    HW260478   4.233   5.987   6.805 -0.3994 -0.7217  0.5194
18706SOL     OW60479   2.559   5.527   3.890  0.5917 -0.3773  0.2483
18706SOL    HW160480   2.614   5.478   3.829 -1.5979 -0.3539 -1.9245
18706SOL    HW260481   2.594   5.616   3.889  0.7655 -0.4451 -0.8062
18707SOL     OW60482   1.889   4.573   0.731 -0.0578 -0.0573  0.1604
18707SOL    HW160483   1.869   4.489   0.772 -0.0679  0.5445  1.4598
18707SOL    HW260484   1.875   4.559   0.637 -0.0355 -1.4977  0.3534
18708SOL     OW60485   7.562   5.929   1.124  0.4074  0.1547  0.6092
18708SOL    HW160486   7.522   5.997   1.070 -0.2985 -0.7532 -0.0558
18708SOL    HW260487   7.602   5.869   1.061  3.8425  1.5534  1.2558
18709SOL     OW60488   3.406   1.227   8.392 -0.0673 -0.2146  0.1648
18709SOL    HW160489   3.439   1.138   8.380  1.4043  0.5503 -2.2948
18709SOL    HW260490   3.326   1.231   8.340  0.4549  0.1593 -0.6342
18710SOL     OW60491   2.484  10.062   8.640 -0.2377  0.0410  0.3390
18710SOL    HW160492   2.504   9.986   8.694 -0.2543 -0.1759  0.0388
18710SOL    HW260493   2.389  10.074   8.649 -0.3913 -0.5768 -0.4054
18711SOL     OW60494   1.963   7.571   9.442 -0.0955 -0.2958  0.2589
18711SOL    HW160495   1.905   7.532   9.508 -1.4398  0.7119 -0.2673
18711SOL    HW260496   2.014   7.636   9.490 -1.1106  0.4761  0.3566
18712SOL     OW60497   5.137   1.468   6.166 -0.1828 -0.6852 -0.1531
18712SOL    HW160498   5.125   1.507   6.079  2.0419 -0.3247 -0.3584
18712SOL    HW260499   5.123   1.374   6.152 -0.0739 -0.6056 -0.8483
18713SOL     OW60500   6.291   0.719   3.541 -0.6934  0.0451  0.8687
18713SOL    HW160501   6.311   0.800   3.494 -1.6173 -1.2091 -1.9137
18713SOL    HW260502   6.363   0.709   3.604  0.9723  1.5519 -0.6760
18714SOL     OW60503   4.878   7.978   3.825  0.0662 -0.0765  0.0812
18714SOL    HW160504   4.913   8.042   3.763  0.5243 -1.5627 -1.2682
18714SOL    HW260505   4.783   7.979   3.809  0.1942 -0.5584 -0.7977
18715SOL     OW60506   3.796   1.484   0.559  0.2704 -0.1997  0.4321
18715SOL    HW160507   3.769   1.528   0.639  1.3624 -0.8223  1.1758
18715SOL    HW260508   3.722   1.494   0.499 -0.1141  1.2475  1.1204
18716SOL     OW60509   7.929   2.559   9.986  0.3638  0.2118 -0.6785
18716SOL    HW160510   8.016   2.573  10.025  0.1470  0.9348 -0.4451
18716SOL    HW260511   7.868   2.575  10.057 -0.0036  0.7182 -1.1060
18717SOL     OW60512   7.267   0.391   8.361  0.2814 -0.5965 -0.0210
18717SOL    HW160513   7.344   0.351   8.321 -0.1361 -0.9564 -0.4837
18717SOL    HW260514   7.298   0.475   8.395  0.5251 -0.0164 -1.6094
18718SOL     OW60515  10.192   9.452  10.025  0.5628 -0.0001  0.0455
18718SOL    HW160516  10.254   9.523  10.010 -0.0871  0.2147 -1.8829
18718SOL    HW260517  10.124   9.490  10.079  0.5882  0.6347 -0.3636
18719SOL     OW60518  10.865   1.329   8.249 -0.3091  0.3860 -0.0793
18719SOL    HW160519  10.874   1.368   8.336 -0.1801  1.0604 -0.3903
18719SOL    HW260520  10.945   1.278   8.238  0.3528  1.4491 -0.3681
18720SOL     OW60521   7.209   5.952   6.248  0.3640 -0.1000 -0.3103
18720SOL    HW160522   7.119   5.926   6.264  0.1354  1.0212  0.3108
18720SOL    HW260523   7.261   5.897   6.306  0.1282 -1.0320 -0.9651
18721SOL     OW60524   8.009   9.895   2.076  0.2241 -0.0758 -0.2057
18721SOL    HW160525   8.064   9.833   2.123 -0.1442  0.4075  0.9076
18721SOL    HW260526   8.064   9.974   2.067 -0.1952  0.3508  0.7669
18722SOL     OW60527   9.591   1.829   4.013 -0.1935  0.1782  0.3046
18722SOL    HW160528   9.514   1.774   4.029 -0.3863  0.7600  1.5363
18722SOL    HW260529   9.555   1.916   3.997  0.0567 -0.1330 -2.4635
18723SOL     OW60530   8.488   0.517   3.151 -0.0499  0.3992 -0.4332
18723SOL    HW160531   8.539   0.523   3.070 -0.0195 -0.4713 -0.4813
18723SOL    HW260532   8.420   0.453   3.132  0.4807 -0.4569  0.5054
18724SOL     OW60533   8.642   3.148  10.529  0.1760 -0.4962  0.4113
18724SOL    HW160534   8.588   3.222  10.554  1.1728  0.3045  0.2687
18724SOL    HW260535   8.716   3.187  10.482  0.3102 -1.6421 -0.3891
18725SOL     OW60536   6.004   6.840   6.210  0.2951  0.7716  0.6005
18725SOL    HW160537   6.072   6.815   6.272  2.1465  1.7290 -0.9158
18725SOL    HW260538   6.008   6.773   6.142  0.9366  1.7358 -0.3417
18726SOL     OW60539   1.630   6.515   9.677 -0.4009  0.2576 -0.6445
18726SOL    HW160540   1.547   6.547   9.643 -0.8349 -0.3187 -0.1330
18726SOL    HW260541   1.672   6.592   9.715 -0.8841  0.4686 -0.5406
18727SOL     OW60542   6.507   4.360   0.194 -0.1230 -0.2485 -0.1135
18727SOL    HW160543   6.599   4.358   0.168  0.0102 -1.1871  0.4127
18727SOL    HW260544   6.501   4.434   0.255  0.6497 -1.2105  1.1677
18728SOL     OW60545   9.206  11.009   1.789  0.4843 -0.5601  0.6121
18728SOL    HW160546   9.227  10.952   1.863  0.2537 -1.4302  0.0141
18728SOL    HW260547   9.144  10.959   1.736  2.1032 -0.7857 -1.2050
18729SOL     OW60548   4.579   1.098   2.557 -0.1908  0.1064  0.2562
18729SOL    HW160549   4.635   1.076   2.630 -0.8739  0.2139  0.8261
18729SOL    HW260550   4.601   1.189   2.536  0.1584  0.0058  0.1801
18730SOL     OW60551   8.777   6.112  10.316 -0.1433 -0.0756  0.4188
18730SOL    HW160552   8.863   6.114  10.274  1.1610  1.0962  2.9010
18730SOL    HW260553   8.728   6.045  10.269  1.3338  0.7275 -2.4840
18731SOL     OW60554   8.344   4.189   7.511 -0.9752  0.3567  0.3185
18731SOL    HW160555   8.429   4.145   7.502 -2.1139 -2.0192  0.4050
18731SOL    HW260556   8.365   4.273   7.553  1.3719  0.0970 -0.1960
18732SOL     OW60557   7.875  10.726   0.800  0.1919 -0.0531  0.1656
18732SOL    HW160558   7.920  10.658   0.849  3.1631  2.2040  0.8791
18732SOL    HW260559   7.871  10.801   0.860 -0.6188  1.2366 -1.3986
18733SOL     OW60560   2.113   7.500   8.061 -0.4562  0.2901  0.3824
18733SOL    HW160561   2.182   7.555   8.024  1.0859 -1.3357  0.7476
18733SOL    HW260562   2.070   7.462   7.984  1.2753 -1.3025  0.1226
18734SOL     OW60563  10.358   8.468   8.013 -0.0286 -0.0735  0.5662
18734SOL    HW160564  10.383   8.409   7.941  0.5021  1.5040 -0.5968
18734SOL    HW260565  10.415   8.442   8.085 -0.0102 -1.1658  0.1782
18735SOL     OW60566  10.884   2.699  10.698  0.3836  0.7926  0.6667
18735SOL    HW160567  10.966   2.685  10.651 -0.1404 -1.7383  0.3475
18735SOL    HW260568  10.910   2.712  10.790  1.1469 -3.0084  1.1374
18736SOL     OW60569   5.365   1.496   9.672  0.4260  0.0812  0.4574
18736SOL    HW160570   5.414   1.516   9.592  0.9407  0.5934  0.8924
18736SOL    HW260571   5.282   1.543   9.661  0.0592 -0.7059 -0.2380
18737SOL     OW60572   8.039   6.397  10.221 -0.0345  0.0146 -0.2537
18737SOL    HW160573   7.972   6.330  10.207  1.7872 -1.9247 -0.2280
18737SOL    HW260574   8.005   6.451  10.292 -1.2789 -1.2881  0.1879
18738SOL     OW60575   9.916   0.942   0.549  0.3499  0.2885  0.1270
18738SOL    HW160576   9.887   1.033   0.560 -4.4393 -0.8656 -0.8440
18738SOL    HW260577   9.902   0.903   0.635 -1.5715 -0.3836 -0.4559
18739SOL     OW60578   2.558   8.658   3.435 -0.1011  0.5925 -0.0058
18739SOL    HW160579   2.536   8.573   3.398 -0.4676  0.3226  0.8127
18739SOL    HW260580   2.625   8.639   3.501 -0.1251  0.9429  0.1237
18740SOL     OW60581   8.785   4.339   0.205 -0.1776  0.9622  0.0358
18740SOL    HW160582   8.746   4.252   0.220 -0.2451  0.7823 -1.0535
18740SOL    HW260583   8.716   4.388   0.161  0.3381  1.0906 -0.6548
18741SOL     OW60584   6.799   4.247   3.989 -0.5011  0.3457 -0.0809
18741SOL    HW160585   6.811   4.156   3.963  0.4940  0.2032  0.7917
18741SOL    HW260586   6.712   4.270   3.957 -1.0553 -1.1226  0.2718
18742SOL     OW60587   3.983   1.046   1.607  0.7183 -0.1921 -0.3868
18742SOL    HW160588   3.932   0.971   1.637 -0.8496  0.1885 -1.9983
18742SOL    HW260589   3.986   1.038   1.512  2.8995  0.3224 -0.4297
18743SOL     OW60590   7.142   9.744  10.079  0.2185  0.2020 -0.1180
18743SOL    HW160591   7.057   9.700  10.090  0.9343 -1.6115 -1.2540
18743SOL    HW260592   7.137   9.784   9.992  0.8235 -0.6878 -0.5774
18744SOL     OW60593   7.321   9.966   5.750  0.1411  0.3653  0.0484
18744SOL    HW160594   7.351   9.971   5.841 -0.9605  2.0517  0.3672
18744SOL    HW260595   7.268   9.887   5.747  2.4487 -1.2752  0.1018
18745SOL     OW60596   2.301   7.208   9.682 -0.4329  0.4258 -0.2719
18745SOL    HW160597   2.330   7.119   9.664 -2.2766  0.3914 -4.0363
18745SOL    HW260598   2.213   7.198   9.718 -0.2767  0.7623  0.2289
18746SOL     OW60599   6.480   9.583   0.382  0.6090  0.1661 -0.2914
18746SOL    HW160600   6.500   9.497   0.345  1.3668  0.7928 -1.4044
18746SOL    HW260601   6.547   9.596   0.449  0.9439  0.1837 -0.6216
18747SOL     OW60602   2.649   5.943   3.310 -0.1128 -0.2378  0.1145
18747SOL    HW160603   2.739   5.916   3.290  0.2136  1.5712 -1.1215
18747SOL    HW260604   2.653   5.977   3.399  1.1561  2.4836 -0.8826
18748SOL     OW60605   8.213   7.384   0.686 -0.2786  0.2245 -0.3585
18748SOL    HW160606   8.202   7.333   0.766  0.9212  0.8684  0.2417
18748SOL    HW260607   8.201   7.475   0.714  2.3577  0.6503 -0.4215
18749SOL     OW60608   1.161   9.961   5.998 -0.3235  0.2217 -0.4451
18749SOL    HW160609   1.122   9.995   5.917  0.6886 -0.6840 -1.3275
18749SOL    HW260610   1.171  10.039   6.054 -0.8673  0.8786 -1.2389
18750SOL     OW60611   3.045   8.757   5.136 -0.5975  0.7420 -0.5529
18750SOL    HW160612   3.028   8.784   5.046  0.1425 -1.6299 -1.5034
18750SOL    HW260613   3.109   8.686   5.128 -2.3116 -1.2269  1.6052
18751SOL     OW60614   9.931   6.974   6.263 -0.1678  0.4740 -0.2318
18751SOL    HW160615  10.021   6.973   6.230 -0.5761 -0.3645 -1.3558
18751SOL    HW260616   9.910   6.882   6.280 -0.3653  0.7807  1.3275
18752SOL     OW60617   4.233   9.855   2.370  0.1553  0.5190 -0.7900
18752SOL    HW160618   4.239   9.949   2.391 -1.1381  0.9281 -2.1101
18752SOL    HW260619   4.269   9.848   2.281 -0.5892 -0.0832 -1.0509
18753SOL     OW60620  10.983   6.613   1.873 -0.3802 -0.3343  0.5744
18753SOL    HW160621  10.999   6.522   1.897 -0.7845 -0.7209 -0.5708
18753SOL    HW260622  10.888   6.621   1.874 -0.4202 -0.3551 -0.7724
18754SOL     OW60623   4.417   8.598   2.013 -0.4693 -0.0513  0.0587
18754SOL    HW160624   4.480   8.529   1.990 -0.9614 -0.5924  0.2840
18754SOL    HW260625   4.461   8.651   2.079  0.0157  0.0041 -0.3100
18755SOL     OW60626  10.941   9.887   3.952  0.3784  0.4622 -0.2588
18755SOL    HW160627  11.018   9.889   3.894  1.6275 -1.9235  1.1928
18755SOL    HW260628  10.934   9.797   3.981 -3.5067  0.3776 -0.8787
18756SOL     OW60629   5.915   7.690   0.891 -0.3322 -0.2127 -0.1982
18756SOL    HW160630   5.908   7.630   0.965  0.6233 -0.9678 -0.7105
18756SOL    HW260631   5.992   7.744   0.911 -0.4435  0.0067 -0.3505
18757SOL     OW60632   9.041  10.821   5.118 -0.1442 -0.5226 -0.2296
18757SOL    HW160633   9.054  10.750   5.181  1.8455 -1.2173 -1.3094
18757SOL    HW260634   9.104  10.888   5.143 -2.2163  1.0839  0.9556
18758SOL     OW60635   3.665   4.344   3.282  0.1964  0.3521  0.3003
18758SOL    HW160636   3.615   4.263   3.287  1.0130 -0.1497  0.6245
18758SOL    HW260637   3.615   4.407   3.334 -0.2262 -0.0621  0.4004
18759SOL     OW60638  10.435   4.846   8.499 -0.3207  0.1657 -0.4084
18759SOL    HW160639  10.412   4.835   8.591  0.7636 -1.2251 -0.2671
18759SOL    HW260640  10.387   4.923   8.471  0.0558  1.1772  1.5748
18760SOL     OW60641   0.759   6.896  10.133 -0.0171 -0.3650  0.3451
18760SOL    HW160642   0.836   6.937  10.173  0.9214 -0.1128 -1.6282
18760SOL    HW260643   0.719   6.846  10.204  2.9528 -1.9664  1.0595
18761SOL     OW60644   8.425   4.920   5.421 -0.7068 -0.2508 -0.2490
18761SOL    HW160645   8.496   4.864   5.453 -0.6366 -0.4262 -0.7144
18761SOL    HW260646   8.464   4.972   5.351 -0.4030  1.3672  1.0494
18762SOL     OW60647   0.646   5.085  10.976 -0.0086  0.2424  0.0955
18762SOL    HW160648   0.607   5.032  11.046 -0.9733  1.3289  0.4201
18762SOL    HW260649   0.571   5.129  10.935  0.7184  0.9979 -0.4658
18763SOL     OW60650   1.313   2.487   7.868 -0.0873  0.3984 -0.2557
18763SOL    HW160651   1.283   2.437   7.944  1.3741 -2.7267 -1.5384
18763SOL    HW260652   1.395   2.526   7.895  0.3083 -0.5092 -0.1200
18764SOL     OW60653   4.666   8.592   6.681 -0.4852  0.0136 -0.1073
18764SOL    HW160654   4.656   8.524   6.614 -0.8961  0.6953 -0.7440
18764SOL    HW260655   4.619   8.667   6.646  0.7654  0.9437  0.1575
18765SOL     OW60656   5.992   0.252   7.183  0.4132 -0.4314  0.1324
18765SOL    HW160657   5.996   0.252   7.278  0.0111 -0.5843  0.1522
18765SOL    HW260658   5.905   0.217   7.162  0.5994 -0.6544 -0.2938
18766SOL     OW60659   7.898   0.767  10.756  0.0841 -0.0002  0.4057
18766SOL    HW160660   7.837   0.725  10.695 -0.2792  0.7369  0.2577
18766SOL    HW260661   7.982   0.766  10.711 -0.6436  2.7415 -1.1947
18767SOL     OW60662   9.760   3.975   0.043  0.5034 -0.3620 -0.1973
18767SOL    HW160663   9.794   3.890   0.013  0.2773  0.3082 -2.5484
18767SOL    HW260664   9.669   3.959   0.065  0.6604 -0.8617  0.1093
18768SOL     OW60665   4.147   9.184   4.797 -0.0588 -0.2656 -0.4878
18768SOL    HW160666   4.193   9.143   4.870  0.0191  0.2139 -0.2612
18768SOL    HW260667   4.166   9.128   4.721  1.1933  0.1088 -0.4748
18769SOL     OW60668   1.190   3.560   4.381 -0.2553  0.2298  0.6199
18769SOL    HW160669   1.159   3.645   4.410 -1.0220  0.0008  0.5083
18769SOL    HW260670   1.114   3.502   4.392 -0.0096 -0.2476 -0.1055
18770SOL     OW60671  10.479   8.269  10.881 -0.2225 -0.6233 -0.1879
18770SOL    HW160672  10.528   8.351  10.873  0.4501 -1.1347 -2.0555
18770SOL    HW260673  10.518   8.224  10.955  2.2797 -1.0273 -1.6332
18771SOL     OW60674   9.443   9.755   1.364  0.5209  0.1728  0.1599
18771SOL    HW160675   9.432   9.845   1.335  1.2889  0.7619  1.5502
18771SOL    HW260676   9.530   9.730   1.333  1.1602  0.6528  1.4852
18772SOL     OW60677   6.744   3.013   7.157  0.1073  0.1146  0.6086
18772SOL    HW160678   6.727   3.051   7.243  0.0401  0.1346  0.5862
18772SOL    HW260679   6.695   3.067   7.096 -0.6137 -0.4679  0.6568
18773SOL     OW60680   4.278   4.755   8.764  0.2943 -0.5811  0.1834
18773SOL    HW160681   4.243   4.666   8.757  1.1934 -0.9587  0.3732
18773SOL    HW260682   4.296   4.781   8.674 -0.4351 -0.3859  0.0833
18774SOL     OW60683   2.587   1.607   5.906  0.1792 -0.3393  0.0729
18774SOL    HW160684   2.617   1.518   5.921  0.9128 -0.1419 -0.1504
18774SOL    HW260685   2.582   1.646   5.993  0.5163 -0.4025  0.1241
18775SOL     OW60686   7.633   4.351   3.614 -0.8373 -0.3357 -0.2541
18775SOL    HW160687   7.646   4.276   3.557 -1.8260  0.4306 -1.5630
18775SOL    HW260688   7.636   4.427   3.555 -0.5845  0.5909  0.9117
18776SOL     OW60689   5.222  10.109   7.660 -0.3492 -0.1613  0.3774
18776SOL    HW160690   5.292  10.043   7.663 -1.5302 -1.4439  0.8684
18776SOL    HW260691   5.141  10.058   7.655 -1.2297  1.2889 -1.2424
18777SOL     OW60692   5.169   2.722   5.540 -0.1325  0.4174 -0.1243
18777SOL    HW160693   5.190   2.766   5.458  0.7007 -1.5918 -1.0707
18777SOL    HW260694   5.250   2.675   5.563 -0.5145  0.5376  1.5857
18778SOL     OW60695   5.846   2.261  10.310 -0.3830 -0.0673  0.0524
18778SOL    HW160696   5.833   2.272  10.404  0.5304  2.0318  0.0129
18778SOL    HW260697   5.811   2.341  10.272  2.1724  0.6558 -1.0220
18779SOL     OW60698   3.500   4.661   8.981 -0.6830 -0.1940 -0.4558
18779SOL    HW160699   3.428   4.598   8.979  0.3984 -1.5322  0.4177
18779SOL    HW260700   3.508   4.685   9.074 -0.7891  0.9112 -0.7165
18780SOL     OW60701   6.828   3.657   8.199 -0.1170 -0.6253 -0.0980
18780SOL    HW160702   6.838   3.739   8.246 -2.9267 -1.3471  2.0018
18780SOL    HW260703   6.808   3.683   8.109  1.1372  0.8868  0.0297
18781SOL     OW60704   4.489   6.187   3.157 -0.0244  0.1296 -0.1911
18781SOL    HW160705   4.567   6.233   3.186  0.3617  0.4236 -1.6199
18781SOL    HW260706   4.441   6.251   3.105 -0.7483 -0.3293 -0.1013
18782SOL     OW60707  10.783   1.297   9.669  0.1047  0.5612 -0.1204
18782SOL    HW160708  10.771   1.204   9.689  1.6723 -0.0608 -1.7181
18782SOL    HW260709  10.696   1.328   9.644 -0.4562 -0.4648  0.4939
18783SOL     OW60710   1.667   3.001   6.328  0.3734  0.3361  0.0271
18783SOL    HW160711   1.750   3.043   6.349  0.4918  0.7094 -1.1143
18783SOL    HW260712   1.603   3.072   6.326  0.0940  0.1071  0.4871
18784SOL     OW60713   6.060   1.624   3.843  0.3680  0.2167  0.0827
18784SOL    HW160714   6.041   1.703   3.792 -0.7065 -1.0332 -1.5410
18784SOL    HW260715   6.155   1.615   3.838  0.3398  0.4314 -1.2962
18785SOL     OW60716   1.910   3.181   4.423 -0.2990  0.0193 -0.2820
18785SOL    HW160717   1.958   3.189   4.340 -1.6427  1.0859 -1.0108
18785SOL    HW260718   1.975   3.151   4.486  0.5788 -1.6709 -1.8971
18786SOL     OW60719   5.217   4.341   5.293  0.4573  0.2334  0.5734
18786SOL    HW160720   5.260   4.377   5.216  0.5542 -1.8550 -0.4173
18786SOL    HW260721   5.140   4.397   5.306  0.2448  0.4291 -1.2628
18787SOL     OW60722   6.743   0.008   9.305  0.3617  0.2227 -0.6231
18787SOL    HW160723   6.811  -0.054   9.332 -1.5720 -1.8002 -0.0403
18787SOL    HW260724   6.761   0.024   9.212  2.8241  1.4734 -0.0067
18788SOL     OW60725   9.289   7.671   8.051  0.1796  0.0092  0.4588
18788SOL    HW160726   9.344   7.718   8.113 -0.7502  2.1327 -0.2169
18788SOL    HW260727   9.237   7.612   8.104 -0.3364  1.5123  1.6956
18789SOL     OW60728   9.005   3.966   6.130  0.5932  0.0512  0.8545
18789SOL    HW160729   8.996   4.035   6.064 -0.7519  0.2300  1.1971
18789SOL    HW260730   9.002   3.884   6.081 -0.6718  0.1754  0.7044
18790SOL     OW60731   1.226   8.315   6.358 -0.6078 -0.1901 -0.1486
18790SOL    HW160732   1.278   8.260   6.299 -1.3553 -1.2429  0.1406
18790SOL    HW260733   1.226   8.267   6.441 -0.8692  0.4988  0.2625
18791SOL     OW60734   4.661   7.688   6.635 -0.4388  0.3286 -0.0115
18791SOL    HW160735   4.639   7.619   6.697 -1.2972  1.1344  0.6084
18791SOL    HW260736   4.604   7.672   6.560 -0.3861  0.1697 -0.0188
18792SOL     OW60737   5.314   5.290  10.053 -0.3103  0.2865 -0.2721
18792SOL    HW160738   5.361   5.372  10.066 -0.8026  0.6294 -0.6590
18792SOL    HW260739   5.230   5.303  10.097  0.4947 -0.8654  1.7651
18793SOL     OW60740   2.373   9.830  10.097  0.3460 -0.3057 -0.0766
18793SOL    HW160741   2.297   9.884  10.075  0.1012 -0.5480  0.1764
18793SOL    HW260742   2.414   9.811  10.012 -0.2400 -0.7089 -0.2763
18794SOL     OW60743   6.591  10.156   3.000 -0.4781 -0.0457  1.1457
18794SOL    HW160744   6.617  10.207   3.076 -0.3212 -1.4762  2.0918
18794SOL    HW260745   6.627  10.204   2.925 -1.0272  1.6240  1.9176
18795SOL     OW60746   0.121   6.535  11.014  0.0110  0.0139 -0.4855
18795SOL    HW160747   0.134   6.543  10.919 -0.3431  0.7433 -0.4748
18795SOL    HW260748   0.148   6.620  11.049  4.8955 -1.6578  0.6611
18796SOL     OW60749   1.883  10.126   4.800  0.0821 -0.3535  0.4419
18796SOL    HW160750   1.848  10.088   4.881  1.6172  0.1846  1.4153
18796SOL    HW260751   1.907  10.215   4.824 -0.3731  0.1597 -0.9113
18797SOL     OW60752  10.401   9.460   0.325 -0.5335 -0.2092  0.2841
18797SOL    HW160753  10.417   9.538   0.272  0.8261 -1.1727 -0.7952
18797SOL    HW260754  10.339   9.408   0.273  0.0398 -0.7019  0.0787
18798SOL     OW60755   3.029   6.371  10.330 -0.0566  0.1154 -0.2292
18798SOL    HW160756   3.023   6.376  10.235  0.3096 -0.8702 -0.3146
18798SOL    HW260757   2.938   6.364  10.359 -0.2550  1.5657 -0.4083
18799SOL     OW60758   1.304   4.961  10.506 -0.1638 -0.2801 -0.3617
18799SOL    HW160759   1.253   4.892  10.550 -0.8323  0.1091 -0.5198
18799SOL    HW260760   1.273   5.042  10.545  0.4055 -0.0406 -0.4005
18800SOL     OW60761   4.615   9.451   8.313  0.1184  0.1391  0.0229
18800SOL    HW160762   4.625   9.370   8.364  1.2107 -1.1157 -2.0360
18800SOL    HW260763   4.530   9.485   8.339 -0.1429 -1.4047  1.3559
18801SOL     OW60764   7.927   0.001   6.884  0.1482  0.5187 -0.5442
18801SOL    HW160765   7.889   0.064   6.822  0.5391  0.6391 -0.6637
18801SOL    HW260766   7.863  -0.003   6.956  0.0341  0.9123 -0.6221
18802SOL     OW60767   1.569   6.680   3.390  0.3277  0.3353  0.1675
18802SOL    HW160768   1.555   6.763   3.345  0.2390  0.5661  0.6100
18802SOL    HW260769   1.663   6.665   3.385  0.1045 -0.6197 -1.7759
18803SOL     OW60770   3.044   0.874   4.205  0.1851  0.1004  0.3884
18803SOL    HW160771   3.018   0.945   4.147  1.6502 -0.1031 -0.5672
18803SOL    HW260772   3.096   0.916   4.273  4.4141 -0.3275 -2.2592
18804SOL     OW60773   4.144   6.815   2.740 -0.9799 -0.0711 -0.3090
18804SOL    HW160774   4.151   6.828   2.835 -2.0498 -0.4174 -0.1722
18804SOL    HW260775   4.149   6.903   2.704 -1.8337  0.1895  0.1674
18805SOL     OW60776   7.739   6.442   2.373  0.0854  0.0289  0.1664
18805SOL    HW160777   7.780   6.523   2.342  0.3901 -0.3104 -0.3393
18805SOL    HW260778   7.676   6.420   2.304 -0.9482  0.5270  0.9179
18806SOL     OW60779   6.679   8.081  10.772 -0.8609 -0.1333  0.6498
18806SOL    HW160780   6.679   7.987  10.756  0.4861 -0.0584  0.0736
18806SOL    HW260781   6.767   8.109  10.748 -2.1832  1.8216 -2.5587
18807SOL     OW60782   8.753   8.234   7.978 -0.4745 -0.5987  0.1328
18807SOL    HW160783   8.774   8.208   8.068 -1.6310  0.6944  0.8032
18807SOL    HW260784   8.658   8.241   7.976 -0.5148 -1.1153 -1.3630
18808SOL     OW60785   8.012   1.692   6.696 -0.3805 -0.2447  0.5243
18808SOL    HW160786   8.055   1.693   6.611  1.2925  0.6056  1.3408
18808SOL    HW260787   7.932   1.744   6.684  0.0224  0.1700 -0.4230
18809SOL     OW60788   2.387  10.565   1.182  0.0705 -0.0717 -0.2909
18809SOL    HW160789   2.335  10.530   1.110 -0.5967 -1.0378  0.6302
18809SOL    HW260790   2.354  10.521   1.260  2.0848 -0.5416  0.3742
18810SOL     OW60791   6.823  11.068   8.040 -0.0328 -0.3817 -0.6479
18810SOL    HW160792   6.891  11.031   7.983  1.7771  0.7146  0.7031
18810SOL    HW260793   6.801  10.997   8.101  2.2465  0.1573  0.9029
18811SOL     OW60794   6.238   6.842   6.745 -0.3753  0.3387 -0.3376
18811SOL    HW160795   6.182   6.882   6.678 -2.7112 -1.0709  0.6779
18811SOL    HW260796   6.257   6.913   6.806 -1.2005  0.8093 -0.6149
18812SOL     OW60797   9.836   8.979   3.402  0.4620 -0.5701 -0.3804
18812SOL    HW160798   9.818   8.890   3.432 -2.5072 -0.0592 -0.3664
18812SOL    HW260799   9.802   8.982   3.313  0.8748  0.4367 -0.5170
18813SOL     OW60800   5.815   6.392   7.354  0.0172  0.0782  0.0929
18813SOL    HW160801   5.793   6.356   7.440 -0.2645 -1.5157 -0.6059
18813SOL    HW260802   5.905   6.364   7.338  0.3873  1.1440  0.2381
18814SOL     OW60803   4.950   6.614   1.748  0.1481 -0.4696 -0.2337
18814SOL    HW160804   5.007   6.689   1.729  1.1002 -0.5090  2.0828
18814SOL    HW260805   5.010   6.541   1.761 -0.7403 -1.5358 -1.8465
18815SOL     OW60806   0.505   9.844   4.709 -0.1887  0.3759  0.1637
18815SOL    HW160807   0.558   9.803   4.777  0.9250  1.5621  0.0472
18815SOL    HW260808   0.555   9.921   4.682 -1.2276  0.6579 -1.0840
18816SOL     OW60809   1.257   8.275   7.040 -0.0926 -0.5952  0.1456
18816SOL    HW160810   1.289   8.194   7.002 -0.9101 -0.1621 -1.5508
18816SOL    HW260811   1.176   8.250   7.086 -0.7433 -0.6343 -1.0026
18817SOL     OW60812   7.735  10.834   9.080 -0.4482  0.3328 -0.2883
18817SOL    HW160813   7.759  10.794   9.163  0.4571 -0.0262 -0.7151
18817SOL    HW260814   7.640  10.847   9.087 -0.1307  2.2237  1.6095
18818SOL     OW60815   3.110  10.084   3.004  0.2925  0.1168 -0.4343
18818SOL    HW160816   3.132  10.176   2.996 -1.6400  0.7218  0.6791
18818SOL    HW260817   3.024  10.076   2.963  1.7266 -1.8864 -3.4660
18819SOL     OW60818   0.110   2.159   3.853  0.3269  0.6288  0.3442
18819SOL    HW160819   0.192   2.204   3.830  0.6986 -0.2555 -0.0994
18819SOL    HW260820   0.072   2.213   3.923 -0.3623  2.8654 -1.6426
18820SOL     OW60821   9.714   5.111   6.261 -0.4350 -0.2287  0.6155
18820SOL    HW160822   9.732   5.151   6.176  1.1013  0.2167  1.1122
18820SOL    HW260823   9.777   5.039   6.267  0.9495  1.0483  2.2197
18821SOL     OW60824   8.665   3.025   5.148 -0.4040 -0.1349  0.1763
18821SOL    HW160825   8.740   3.040   5.206 -1.4610 -1.0217  1.8337
18821SOL    HW260826   8.595   3.079   5.185 -0.7063  0.4192 -1.1560
18822SOL     OW60827   9.464   7.654   7.791 -0.0149 -0.1578  0.5613
18822SOL    HW160828   9.440   7.672   7.882  1.3288 -1.3927  1.2140
18822SOL    HW260829   9.548   7.699   7.780  1.4123 -2.5448  0.9827
18823SOL     OW60830   1.217   7.492   0.565  0.3898  0.9227 -0.1610
18823SOL    HW160831   1.282   7.485   0.494  0.3277  0.1362 -0.1467
18823SOL    HW260832   1.226   7.582   0.596  0.7280  1.1458 -0.8726
18824SOL     OW60833   8.191   1.618   9.562  0.4832  0.2968  0.0698
18824SOL    HW160834   8.103   1.643   9.589  0.0890  0.7880 -1.5739
18824SOL    HW260835   8.231   1.700   9.533  0.4772 -0.3217 -1.8317
18825SOL     OW60836   5.685   3.264   2.965  0.1469 -0.2050  0.0647
18825SOL    HW160837   5.618   3.199   2.988 -0.2076  0.5113  1.1507
18825SOL    HW260838   5.647   3.348   2.993 -0.7939  0.9841 -4.0798
18826SOL     OW60839   4.682  10.438   5.416 -0.0222 -0.8574 -0.5860
18826SOL    HW160840   4.693  10.533   5.404 -0.8501 -0.6537  0.0965
18826SOL    HW260841   4.615  10.414   5.353 -0.0621 -0.9155 -0.5216
18827SOL     OW60842  10.466   7.144   1.512  0.2881  0.0868 -0.3235
18827SOL    HW160843  10.482   7.107   1.599 -0.6026 -1.2454 -0.7041
18827SOL    HW260844  10.554   7.154   1.474  0.5864 -1.0881  0.0233
18828SOL     OW60845   4.355   2.028   4.309  0.1078 -0.0420 -0.0666
18828SOL    HW160846   4.375   2.019   4.216 -0.1859  1.1117 -0.2632
18828SOL    HW260847   4.308   1.948   4.332 -0.1879 -0.1543 -1.0163
18829SOL     OW60848   3.098   8.450   8.664  0.4650 -0.0884  0.2212
18829SOL    HW160849   3.015   8.495   8.650  0.0408 -0.8958  0.1193
18829SOL    HW260850   3.074   8.365   8.700  1.3324  0.2985  1.8123
18830SOL     OW60851   7.112  10.656   3.998  0.1323 -0.3863  0.2501
18830SOL    HW160852   7.035  10.698   4.036  0.7067  0.7706  0.1913
18830SOL    HW260853   7.138  10.713   3.926 -0.1160 -1.8248 -1.0215
18831SOL     OW60854   0.216  10.274  10.223  0.3051  0.0812  0.6721
18831SOL    HW160855   0.253  10.315  10.145 -0.8170 -1.5060 -0.7441
18831SOL    HW260856   0.164  10.344  10.263 -1.8292  0.0981 -1.8589
18832SOL     OW60857   1.970   2.506   6.678 -0.4115 -0.2216  0.2286
18832SOL    HW160858   1.922   2.428   6.707 -0.6009 -0.7272 -1.3722
18832SOL    HW260859   2.060   2.490   6.706 -0.6757 -0.4602  0.9670
18833SOL     OW60860   5.224   0.292   6.578 -0.0879  0.3498 -0.3825
18833SOL    HW160861   5.286   0.302   6.650  2.4047  4.3821 -2.7434
18833SOL    HW260862   5.166   0.367   6.585  0.5721  1.1753 -2.7675
18834SOL     OW60863   1.359   8.760   1.298  0.1604  0.2958 -0.0609
18834SOL    HW160864   1.385   8.709   1.375  1.0429  1.6102  0.5284
18834SOL    HW260865   1.349   8.849   1.330 -1.8949  0.4477 -0.9669
18835SOL     OW60866   2.412   7.050   1.619 -0.9127  0.9951 -0.0403
18835SOL    HW160867   2.440   7.140   1.600  2.0075  0.3771  0.7676
18835SOL    HW260868   2.465   6.996   1.560 -1.3300 -0.2652  0.7068
18836SOL     OW60869   7.157   9.850   3.947 -0.0464  0.1426  0.1007
18836SOL    HW160870   7.062   9.848   3.933  0.1319 -1.2233 -1.1632
18836SOL    HW260871   7.182   9.758   3.955  1.0988  0.5142  1.1658
18837SOL     OW60872   8.067   4.137   3.849 -0.2124 -0.0999  0.0360
18837SOL    HW160873   8.123   4.102   3.918  0.0483  1.1961  0.4972
18837SOL    HW260874   7.980   4.144   3.889 -0.7603 -2.1107 -0.6784
18838SOL     OW60875   5.895   6.419   6.603 -1.1836  0.1127 -0.0195
18838SOL    HW160876   5.855   6.337   6.573 -1.5704  0.7596 -1.3295
18838SOL    HW260877   5.826   6.484   6.594 -0.5928  0.7657  0.1101
18839SOL     OW60878   0.142   8.356  10.065  0.4443  0.1228 -0.1026
18839SOL    HW160879   0.185   8.273  10.083 -1.1359 -0.0228  4.2179
18839SOL    HW260880   0.197   8.422  10.107 -0.0906  0.7950 -0.4305
18840SOL     OW60881   6.605   6.566   8.019 -0.0271  0.5876  0.9132
18840SOL    HW160882   6.541   6.498   8.035  2.1857 -1.1813  2.8568
18840SOL    HW260883   6.652   6.537   7.940 -0.7680  1.2700  0.1974
18841SOL     OW60884   8.358   5.583  10.587  0.3749 -0.0187  0.3471
18841SOL    HW160885   8.393   5.515  10.645  1.4789 -0.8420 -1.1856
18841SOL    HW260886   8.264   5.578  10.598  0.3412 -2.5733 -0.4504
18842SOL     OW60887   2.664   4.934   7.251  0.6763  0.2923  0.4459
18842SOL    HW160888   2.591   4.873   7.252 -0.5462  1.6996  2.0256
18842SOL    HW260889   2.667   4.968   7.161  0.6268 -1.1678 -0.1210
18843SOL     OW60890  10.671  10.312   5.796 -0.2248 -0.0138 -0.3544
18843SOL    HW160891  10.734  10.370   5.753 -2.2979  0.8661 -2.4403
18843SOL    HW260892  10.628  10.368   5.861 -0.2743 -0.0240 -0.3781
18844SOL     OW60893   4.765   1.812   9.339  0.1323  0.5753  0.3627
18844SOL    HW160894   4.819   1.847   9.268 -0.1755  0.9446  0.3080
18844SOL    HW260895   4.679   1.800   9.300  0.0347  0.5071  0.5969
18845SOL     OW60896   0.370   0.929   1.434 -0.3439 -0.1169  0.6019
18845SOL    HW160897   0.358   0.927   1.529 -1.1858  1.9825  0.5943
18845SOL    HW260898   0.291   0.889   1.399 -1.5310  1.9352  0.7838
18846SOL     OW60899   9.954   1.110   6.778 -0.3427 -0.1518 -0.7586
18846SOL    HW160900   9.913   1.186   6.737  0.8894  2.2276  2.0243
18846SOL    HW260901   9.880   1.057   6.809 -1.2243 -0.3461 -2.9949
18847SOL     OW60902   7.289   2.838   5.825 -0.4279 -0.5127 -0.1450
18847SOL    HW160903   7.230   2.777   5.780 -0.4710 -1.2635  0.8933
18847SOL    HW260904   7.274   2.922   5.781 -2.8386 -0.5059  0.5626
18848SOL     OW60905   6.532   1.762   0.278  0.3547 -0.3376 -0.0490
18848SOL    HW160906   6.580   1.833   0.321  0.8287 -1.7657  1.9217
18848SOL    HW260907   6.598   1.715   0.227  0.2814 -0.0958 -0.3710
18849SOL     OW60908   7.344   3.948   0.928 -0.0297  0.4337 -0.2172
18849SOL    HW160909   7.436   3.974   0.918  0.3366  0.2497  2.1436
18849SOL    HW260910   7.343   3.891   1.005 -2.2341  1.0494  0.2903
18850SOL     OW60911   4.565  10.211  10.794 -0.2382 -0.2616 -0.2463
18850SOL    HW160912   4.595  10.276  10.857 -0.8916  0.5735 -0.7794
18850SOL    HW260913   4.550  10.260  10.714  1.1603 -1.4120 -1.2527
18851SOL     OW60914   8.205   0.534   9.532 -0.4062  0.3764 -0.1589
18851SOL    HW160915   8.237   0.610   9.581  0.8859 -0.8570  0.9907
18851SOL    HW260916   8.276   0.470   9.537 -0.3855 -0.0033 -3.3066
18852SOL     OW60917   4.583  10.577   6.239  0.1728  0.2208  0.4016
18852SOL    HW160918   4.557  10.495   6.196 -0.8225  0.3133  0.7977
18852SOL    HW260919   4.558  10.646   6.177  0.0698  0.2769  0.5055
18853SOL     OW60920   3.570   5.158   3.764  0.0152  0.1817  0.4280
18853SOL    HW160921   3.627   5.210   3.821  0.3514  0.2231  0.0643
18853SOL    HW260922   3.631   5.115   3.703 -0.1241 -1.7640  1.5843
18854SOL     OW60923   1.018   1.144   6.995  0.1945  0.0722  0.2144
18854SOL    HW160924   0.964   1.177   7.066 -1.2729  0.6389 -1.0963
18854SOL    HW260925   1.103   1.186   7.008  0.5620 -1.2319  2.6159
18855SOL     OW60926   2.588   7.640   8.487 -0.1783 -0.2736  0.8771
18855SOL    HW160927   2.549   7.600   8.410  0.9440  2.0861 -1.0638
18855SOL    HW260928   2.564   7.733   8.480  2.7702  0.6350  1.4576
18856SOL     OW60929   5.944   7.935   6.445 -0.4670 -0.1558 -0.2078
18856SOL    HW160930   5.982   7.983   6.371  1.9831  0.5977  1.4260
18856SOL    HW260931   6.017   7.883   6.480 -1.9809 -1.7669  0.7340
18857SOL     OW60932   5.440   0.107   2.132  0.1200  0.1053  0.1092
18857SOL    HW160933   5.419   0.061   2.213 -0.0841 -0.4797 -0.2748
18857SOL    HW260934   5.371   0.173   2.124 -1.0673 -1.1788 -0.6450
18858SOL     OW60935   3.739   4.078   6.942 -0.9590 -0.8844 -0.3645
18858SOL    HW160936   3.663   4.057   6.997 -1.5756  2.2325  0.1583
18858SOL    HW260937   3.701   4.118   6.863 -0.0659  4.0850  1.3823
18859SOL     OW60938   0.827   3.898   1.292  0.1487 -0.0856  0.3687
18859SOL    HW160939   0.864   3.972   1.244 -0.2387 -0.5242 -0.6253
18859SOL    HW260940   0.889   3.883   1.363  1.3441 -0.1293 -0.6356
18860SOL     OW60941   6.644   5.346   0.095 -0.9073 -0.1738 -0.1648
18860SOL    HW160942   6.622   5.269   0.043 -1.4855 -0.0070 -0.1772
18860SOL    HW260943   6.678   5.409   0.032  0.5034 -0.7541 -0.0205
18861SOL     OW60944   8.439   3.996   7.256  0.4399  0.1353 -0.0338
18861SOL    HW160945   8.410   3.928   7.317 -0.1248 -0.4606 -0.9479
18861SOL    HW260946   8.359   4.025   7.213  0.9741 -0.4010 -1.4433
18862SOL     OW60947   0.165   7.674   8.127 -0.4331 -0.0957  0.0696
18862SOL    HW160948   0.195   7.749   8.075  0.4682 -0.3848  0.1418
18862SOL    HW260949   0.164   7.706   8.217 -0.6264 -0.0006  0.0337
18863SOL     OW60950   9.853   0.047   2.031  0.2850  0.1968 -0.1728
18863SOL    HW160951   9.775   0.052   2.086  0.8100  0.4495  0.5598
18863SOL    HW260952   9.862  -0.046   2.010  1.7867 -0.4279  2.7067
18864SOL     OW60953   0.425   5.330   8.630 -0.1349  0.3174  0.5232
18864SOL    HW160954   0.516   5.359   8.623  0.3668 -1.0268  1.1590
18864SOL    HW260955   0.385   5.356   8.547  0.6793  1.3645  0.4370
18865SOL     OW60956   8.176   6.454   8.673 -0.1550 -0.2940  0.2748
18865SOL    HW160957   8.208   6.524   8.616 -0.3914 -0.2964  0.1405
18865SOL    HW260958   8.099   6.491   8.715  0.6401  0.1211  1.4472
18866SOL     OW60959   7.540   6.094   1.781  0.5756  0.0849  0.8387
18866SOL    HW160960   7.492   6.039   1.843 -0.2358 -0.0190  0.1486
18866SOL    HW260961   7.595   6.033   1.733  0.9806  0.1229  1.2576
18867SOL     OW60962   1.300  10.485   1.960 -0.5288 -0.1474 -0.3813
18867SOL    HW160963   1.286  10.548   1.890  0.4898 -0.0994 -0.5581
18867SOL    HW260964   1.332  10.407   1.915 -1.6040 -0.7466 -0.1454
18868SOL     OW60965   7.172   1.625   9.864  0.2302  0.0249  0.1534
18868SOL    HW160966   7.183   1.714   9.829 -0.2449  0.7682  1.7498
18868SOL    HW260967   7.097   1.590   9.818  0.0066  0.7242 -0.0265
18869SOL     OW60968  10.009   7.494   5.039  0.8030  0.2667  0.7447
18869SOL    HW160969   9.997   7.578   5.084 -0.0143 -0.2426  1.5219
18869SOL    HW260970  10.055   7.516   4.958 -0.0816  1.5667  0.5685
18870SOL     OW60971   7.892   9.606  10.493 -0.6706 -0.7704 -0.9788
18870SOL    HW160972   7.922   9.579  10.407 -1.1440 -1.0510 -1.0645
18870SOL    HW260973   7.859   9.695  10.481  0.2847 -0.3943 -0.8411
18871SOL     OW60974   1.508   5.485   4.163 -0.0639 -0.3532  0.0396
18871SOL    HW160975   1.601   5.467   4.156  0.0946 -0.3060  1.6569
18871SOL    HW260976   1.469   5.404   4.196 -0.6521 -0.4708 -0.9050
18872SOL     OW60977   0.158   8.483   8.372 -0.0377 -0.5606  0.2558
18872SOL    HW160978   0.241   8.447   8.405 -1.3864 -2.7256  1.5308
18872SOL    HW260979   0.128   8.419   8.308 -1.3229 -0.4370  0.7163
18873SOL     OW60980   5.586   2.817  10.149 -0.3540  0.1578 -0.5158
18873SOL    HW160981   5.499   2.818  10.188 -1.3600  0.9542 -2.6190
18873SOL    HW260982   5.606   2.724  10.136 -0.2087 -0.1012  1.3100
18874SOL     OW60983   3.870   9.999   9.656  0.3823  0.1269 -0.0278
18874SOL    HW160984   3.812   9.923   9.659 -0.6296  0.9137  1.0716
18874SOL    HW260985   3.896  10.005   9.564 -3.1788  1.1062 -1.1303
18875SOL     OW60986   7.995   7.625   4.435 -0.2558 -0.2876  0.8741
18875SOL    HW160987   8.078   7.592   4.470  0.2462  0.4128  0.3975
18875SOL    HW260988   8.008   7.720   4.433 -0.4347 -0.2742 -0.7597
18876SOL     OW60989   1.370   8.542   3.765 -0.3470 -0.1338 -0.1479
18876SOL    HW160990   1.278   8.566   3.774 -0.4473  0.0726 -1.5042
18876SOL    HW260991   1.418   8.614   3.805 -0.7773 -0.9207  1.8915
18877SOL     OW60992   8.173   4.097   0.264 -0.4443 -0.5446  0.1826
18877SOL    HW160993   8.145   4.160   0.330  0.4146 -0.8606  0.8695
18877SOL    HW260994   8.097   4.041   0.250 -1.4674  1.0161 -0.9460
18878SOL     OW60995   0.781   4.866   8.474  0.1985 -0.1283  0.5345
18878SOL    HW160996   0.800   4.785   8.521 -1.5163 -1.4847 -0.9670
18878SOL    HW260997   0.849   4.872   8.407 -0.1039 -0.7515  0.1667
18879SOL     OW60998   2.282   0.644   2.428 -0.2990 -0.5996 -0.4052
18879SOL    HW160999   2.282   0.576   2.494 -0.8617 -0.9163 -0.7268
18879SOL    HW261000   2.227   0.610   2.358  0.2123 -0.2317 -1.0006
18880SOL     OW61001   6.764   6.567   7.800 -0.1300  0.1351  0.7174
18880SOL    HW161002   6.760   6.472   7.795  0.8885  0.0603  1.1906
18880SOL    HW261003   6.857   6.587   7.811 -0.5855  1.0258  3.7025
18881SOL     OW61004   0.969   7.871   5.599  0.3496  0.2305  0.4835
18881SOL    HW161005   1.050   7.858   5.649 -0.7257  0.0711  2.2866
18881SOL    HW261006   0.969   7.800   5.535  0.7804 -0.8712  1.6578
18882SOL     OW61007   7.122   6.609   2.035 -0.1507 -0.5798 -0.8904
18882SOL    HW161008   7.096   6.665   2.109 -1.6979  1.4980 -2.8662
18882SOL    HW261009   7.214   6.589   2.052 -0.5780 -0.5809  1.8166
18883SOL     OW61010   2.829   3.191   4.867  0.0179  0.1157 -0.5203
18883SOL    HW161011   2.758   3.252   4.887  0.4853  0.3808  0.4605
18883SOL    HW261012   2.792   3.129   4.805 -0.6907  0.9754 -0.9808
18884SOL     OW61013   0.825   0.129   4.201  0.2944  0.6119  0.1605
18884SOL    HW161014   0.783   0.183   4.133 -0.6810  1.4856  1.4010
18884SOL    HW261015   0.763   0.130   4.274  1.5714  0.2164  1.3012
18885SOL     OW61016   8.196   0.281   0.467 -0.4027 -0.9614 -0.1281
18885SOL    HW161017   8.288   0.289   0.494 -0.6220 -2.0213  1.0469
18885SOL    HW261018   8.168   0.371   0.452  0.5494 -0.5384  0.4983
18886SOL     OW61019   3.613   8.872   6.964  0.0237  0.3623 -0.1215
18886SOL    HW161020   3.701   8.891   6.930  0.6719 -0.8499  0.8171
18886SOL    HW261021   3.599   8.779   6.945 -0.5707  0.2559  0.7934
18887SOL     OW61022   6.625   4.934   4.350 -0.3421  0.0028  0.0556
18887SOL    HW161023   6.663   4.875   4.286 -1.6276 -0.8854  0.0676
18887SOL    HW261024   6.675   4.919   4.430  0.3838  0.1147 -0.3748
18888SOL     OW61025   4.920   9.076   3.684 -0.6643 -0.1831  0.0043
18888SOL    HW161026   4.982   9.029   3.628 -0.0423  0.6258 -0.0126
18888SOL    HW261027   4.842   9.021   3.686 -0.2509 -0.8082 -0.6724
18889SOL     OW61028   4.202   7.349   3.359  0.3113 -0.0513 -0.0362
18889SOL    HW161029   4.237   7.319   3.275 -3.0989 -0.6721 -1.3942
18889SOL    HW261030   4.124   7.400   3.336 -0.2262  0.5412  2.7291
18890SOL     OW61031   3.347   5.800   8.100  0.2713 -0.0261  0.6131
18890SOL    HW161032   3.419   5.841   8.054  2.1557 -1.7679  1.8442
18890SOL    HW261033   3.281   5.786   8.032  1.6012  0.4491 -0.8407
18891SOL     OW61034   4.871   3.298   2.017 -0.4684 -0.3480  0.6063
18891SOL    HW161035   4.873   3.214   2.062 -2.5353 -0.4720  0.5361
18891SOL    HW261036   4.957   3.337   2.035 -0.7030 -0.9782  3.5076
18892SOL     OW61037   2.475   1.381   3.911 -0.1329  0.1213 -0.1806
18892SOL    HW161038   2.391   1.422   3.929  0.2691  0.9316 -0.1183
18892SOL    HW261039   2.504   1.421   3.829  1.1414  1.3674  0.8495
18893SOL     OW61040   7.410   0.155   4.424  0.9815 -0.0558 -0.4124
18893SOL    HW161041   7.505   0.165   4.417  1.0764 -0.6377 -0.0202
18893SOL    HW261042   7.375   0.228   4.374  1.6266 -1.2847 -2.7899
18894SOL     OW61043   7.063   3.437   6.102  0.1205 -0.1714  0.5901
18894SOL    HW161044   6.976   3.434   6.143 -0.0567  1.3415  0.3736
18894SOL    HW261045   7.086   3.530   6.103  0.0698 -0.0035 -2.8090
18895SOL     OW61046   5.109   5.520   5.847  0.5250 -0.1721  0.1838
18895SOL    HW161047   5.173   5.448   5.854  0.3051 -0.2600  1.8481
18895SOL    HW261048   5.153   5.585   5.793  1.3344 -0.9535 -0.1341
18896SOL     OW61049   3.888   0.319   4.553 -0.1942 -0.1773  0.1016
18896SOL    HW161050   3.841   0.402   4.556 -1.7075 -1.0340  1.7585
18896SOL    HW261051   3.934   0.320   4.469 -1.2790  1.7238 -0.5110
18897SOL     OW61052   5.803   7.927  10.912 -0.1648  0.2884 -0.2667
18897SOL    HW161053   5.755   7.891  10.987 -0.4759  0.9463 -0.1397
18897SOL    HW261054   5.869   7.862  10.892 -1.2066 -0.7137 -0.5376
18898SOL     OW61055  10.486   6.904   0.860 -0.3863 -0.1159  0.4673
18898SOL    HW161056  10.403   6.865   0.833  0.7702 -1.9042 -0.7376
18898SOL    HW261057  10.530   6.928   0.779  0.7103 -0.1893  1.0109
18899SOL     OW61058   9.424   1.497   2.953 -0.2165  0.1419  0.7399
18899SOL    HW161059   9.423   1.433   2.882 -1.1599  1.0676 -0.1040
18899SOL    HW261060   9.442   1.445   3.031  0.4773 -0.9458 -0.1166
18900SOL     OW61061  11.090   8.557  10.957 -0.7557 -0.7132  0.4587
18900SOL    HW161062  11.038   8.559  10.876  0.5342 -1.0471 -0.4041
18900SOL    HW261063  11.147   8.481  10.947  0.6777  0.2685  0.8664
18901SOL     OW61064   5.788   2.257   1.256  0.0250 -0.1306  0.2802
18901SOL    HW161065   5.734   2.266   1.178  1.4733  0.6797 -0.6824
18901SOL    HW261066   5.869   2.217   1.224  0.7279  0.4286  1.3063
18902SOL     OW61067   1.249   4.292   2.306 -0.4696  0.0273 -0.3211
18902SOL    HW161068   1.176   4.290   2.243 -0.5993  0.4935 -0.1939
18902SOL    HW261069   1.259   4.201   2.334 -2.9658  0.3234  1.8870
18903SOL     OW61070   9.031   3.336   3.865 -0.1124  0.2317 -0.3223
18903SOL    HW161071   8.978   3.350   3.787  1.4719 -0.4066 -1.5411
18903SOL    HW261072   8.967   3.338   3.937 -2.2985 -3.3481 -1.8998
18904SOL     OW61073   8.377   2.636  10.874  0.0041 -0.3747 -0.4103
18904SOL    HW161074   8.402   2.544  10.875 -0.5956 -0.5424 -0.6079
18904SOL    HW261075   8.401   2.668  10.961 -1.7951 -1.2757  0.4656
18905SOL     OW61076   2.976   4.766   4.303 -0.2939 -1.3216 -0.2185
18905SOL    HW161077   3.053   4.797   4.351  0.1375  1.5105 -2.4305
18905SOL    HW261078   3.010   4.694   4.249  0.5996 -0.7201 -0.4867
18906SOL     OW61079   9.839   0.396   3.634 -0.3579 -0.3371  0.4018
18906SOL    HW161080   9.811   0.323   3.690 -0.5939 -0.4089  0.1888
18906SOL    HW261081   9.778   0.466   3.654 -1.6346 -0.9612 -1.1405
18907SOL     OW61082   3.992   7.081   4.825  0.4527 -0.1477  0.0506
18907SOL    HW161083   3.955   7.059   4.911 -1.2228 -1.5341 -0.9644
18907SOL    HW261084   4.069   7.134   4.845  0.0769 -0.3889  2.4037
18908SOL     OW61085   6.939   3.408   2.104  0.0637  0.2157 -0.6184
18908SOL    HW161086   7.023   3.381   2.140 -0.9553 -1.7506  0.4868
18908SOL    HW261087   6.920   3.343   2.037 -1.8398 -1.2145  1.1591
18909SOL     OW61088   5.430   0.574   8.149 -0.3175  0.1316  0.4645
18909SOL    HW161089   5.463   0.663   8.139 -0.7321  0.0554 -2.1572
18909SOL    HW261090   5.472   0.524   8.079 -1.0621 -1.4495  1.0946
18910SOL     OW61091  11.089   0.573   1.560 -0.2427  0.1741 -0.0639
18910SOL    HW161092  11.163   0.632   1.574  0.2043 -0.3580 -0.1245
18910SOL    HW261093  11.107   0.499   1.619  0.5522 -1.1077 -1.8242
18911SOL     OW61094   1.905   0.182   6.698 -0.5145  0.2069 -0.2983
18911SOL    HW161095   1.849   0.104   6.696 -1.4403  0.8379  0.5944
18911SOL    HW261096   1.942   0.186   6.609  0.8975 -2.1833  0.1024
18912SOL     OW61097   0.794   7.889   6.961 -0.0149 -0.3597  0.3787
18912SOL    HW161098   0.829   7.952   7.024  1.5594 -1.9570  1.2024
18912SOL    HW261099   0.705   7.870   6.991  0.2923 -0.1861  1.4347
18913SOL     OW61100   5.515   5.471   0.364 -0.2942 -0.2420 -0.2791
18913SOL    HW161101   5.512   5.532   0.291 -0.7098 -0.3477 -0.3554
18913SOL    HW261102   5.608   5.461   0.384 -0.2741  2.5900  1.5675
18914SOL     OW61103   8.390   2.778   4.566  0.3183  0.4223  0.2739
18914SOL    HW161104   8.357   2.708   4.509  0.2205 -0.3656  1.2575
18914SOL    HW261105   8.331   2.852   4.550  0.8841  0.5420 -1.3344
18915SOL     OW61106  10.037   8.176   2.259  0.4433 -0.5696 -0.1688
18915SOL    HW161107  10.089   8.179   2.340 -0.8241  1.0581  0.6522
18915SOL    HW261108   9.998   8.263   2.253  0.6072 -0.5987 -2.6503
18916SOL     OW61109   4.115   5.770   7.421 -0.5342 -0.0984 -0.5391
18916SOL    HW161110   4.167   5.782   7.341  0.1221  0.3570 -0.0580
18916SOL    HW261111   4.164   5.817   7.488 -1.6009  0.3802 -0.0770
18917SOL     OW61112  10.869   7.168   3.399 -0.6271  0.4787 -0.3386
18917SOL    HW161113  10.845   7.135   3.312 -0.9308 -0.1682 -0.0114
18917SOL    HW261114  10.800   7.230   3.421 -0.5440  0.6517 -0.5617
18918SOL     OW61115   0.446   5.406   2.874  0.0236 -0.2215  0.6728
18918SOL    HW161116   0.428   5.313   2.857  1.1767 -0.1444 -1.2776
18918SOL    HW261117   0.373   5.452   2.833  1.5504 -0.1529 -2.2173
18919SOL     OW61118   3.257   9.296   8.638 -0.2227  0.3065  0.2036
18919SOL    HW161119   3.230   9.296   8.546  0.1708 -0.0228  0.0859
18919SOL    HW261120   3.215   9.374   8.675  0.9641  1.3998 -0.6573
18920SOL     OW61121   7.759   2.789   4.658 -0.2416 -0.1419  0.0642
18920SOL    HW161122   7.720   2.772   4.744 -0.8112  0.5474 -0.0504
18920SOL    HW261123   7.689   2.770   4.595  0.0682 -0.3184 -0.2308
18921SOL     OW61124   2.087   9.162   3.254 -0.2057  0.3955  0.5224
18921SOL    HW161125   2.066   9.174   3.347 -0.0066 -1.4446  0.8280
18921SOL    HW261126   2.153   9.229   3.236  1.3297 -0.5801  2.2694
18922SOL     OW61127   7.652   6.965   9.713  0.3236  0.1369 -0.3277
18922SOL    HW161128   7.582   6.976   9.649 -0.4399 -1.7630  0.0979
18922SOL    HW261129   7.612   6.987   9.797  1.1169  1.9256 -0.3868
18923SOL     OW61130   3.691   2.546   8.876  0.7965  0.3546 -0.5191
18923SOL    HW161131   3.711   2.605   8.949  1.6216  2.5280 -2.3689
18923SOL    HW261132   3.632   2.598   8.820 -1.1341 -1.8343 -0.6813
18924SOL     OW61133   1.791  10.796   2.684 -0.3029 -0.3777  0.3883
18924SOL    HW161134   1.788  10.889   2.662  1.4908 -0.0649  1.3055
18924SOL    HW261135   1.703  10.764   2.663 -0.3229  1.0083 -2.0391
18925SOL     OW61136   4.191   4.609   3.393  0.1878 -0.5360  0.1798
18925SOL    HW161137   4.108   4.655   3.402  0.6532  0.2267  0.6955
18925SOL    HW261138   4.196   4.587   3.300  0.3466  1.2618 -0.2837
18926SOL     OW61139   5.578  10.140   4.679  0.2392  0.5069  0.1735
18926SOL    HW161140   5.508  10.155   4.742 -0.2353  0.8754 -0.4219
18926SOL    HW261141   5.548  10.185   4.600  1.1637  0.6869 -0.0807
18927SOL     OW61142   6.444   2.981   8.360 -0.0337 -0.1874  0.0136
18927SOL    HW161143   6.425   2.938   8.443  3.9467  0.7917  1.6717
18927SOL    HW261144   6.524   2.940   8.329 -0.4595  0.6931 -2.4853
18928SOL     OW61145  10.930  10.216   7.463 -0.5766  0.1101  0.1497
18928SOL    HW161146  11.004  10.243   7.517 -0.3473  0.2396 -0.2265
18928SOL    HW261147  10.967  10.154   7.399 -0.8979 -0.2646  0.3215
18929SOL     OW61148   2.121   5.192   8.520  0.0450 -0.6061  0.2602
18929SOL    HW161149   2.137   5.105   8.484 -0.3879 -0.6910  0.2641
18929SOL    HW261150   2.208   5.231   8.529  0.1191 -0.2033 -1.7972
18930SOL     OW61151  10.385  10.358   5.790  0.3668  0.0002  0.1663
18930SOL    HW161152  10.383  10.413   5.869 -0.4954  1.5304 -0.8757
18930SOL    HW261153  10.322  10.398   5.731  0.0388 -1.8861 -0.8375
18931SOL     OW61154   3.717   6.943   3.734  0.5500 -0.3496  0.1731
18931SOL    HW161155   3.792   6.885   3.744  2.4775  2.3439  3.5866
18931SOL    HW261156   3.662   6.925   3.810 -2.0457 -1.7388 -1.8851
18932SOL     OW61157   6.023   3.076   0.738 -0.3545 -0.1801  0.4917
18932SOL    HW161158   6.042   3.003   0.681  1.3131  2.3169 -2.4359
18932SOL    HW261159   6.102   3.088   0.790  0.6065  1.2319 -1.1782
18933SOL     OW61160   4.008   9.708   2.360 -0.4314 -0.7713 -0.5025
18933SOL    HW161161   3.939   9.769   2.389  0.3488 -0.1948  0.1943
18933SOL    HW261162   4.089   9.759   2.365  0.4590 -2.2381  1.4765
18934SOL     OW61163   7.662   7.166   8.194 -0.3332 -0.3064  0.6760
18934SOL    HW161164   7.654   7.256   8.227 -0.4227  0.1697 -0.5804
18934SOL    HW261165   7.757   7.149   8.195  0.0795  1.1624 -2.3930
18935SOL     OW61166   4.861   2.579   9.791  0.9964  1.0391  0.1921
18935SOL    HW161167   4.842   2.493   9.754 -0.6321  1.7725 -0.7471
18935SOL    HW261168   4.864   2.564   9.886  0.1164  0.0550  0.0752
18936SOL     OW61169   2.751   9.365   8.733 -0.5509  0.1456 -0.7262
18936SOL    HW161170   2.777   9.447   8.692  0.8850  0.4025  0.6020
18936SOL    HW261171   2.656   9.374   8.748 -0.1796  2.2297  0.7737
18937SOL     OW61172   1.000   7.250   2.784  0.7944  0.5814  0.6167
18937SOL    HW161173   1.063   7.185   2.753  0.9143  0.3908  1.2606
18937SOL    HW261174   0.920   7.230   2.735  0.5864 -0.5867  1.4135
18938SOL     OW61175   5.148   4.607   7.886  0.3836 -0.3699 -0.5080
18938SOL    HW161176   5.129   4.525   7.932  0.1111 -0.0448 -0.0318
18938SOL    HW261177   5.093   4.672   7.929  0.5750  0.0607 -0.9030
18939SOL     OW61178   1.976   3.698   3.465  0.4010  0.9471 -0.3944
18939SOL    HW161179   1.931   3.758   3.524 -1.1243 -1.2711  0.8530
18939SOL    HW261180   1.907   3.666   3.406  1.1036  0.1776 -0.8248
18940SOL     OW61181   1.698   8.585   9.326 -0.3256 -0.3069  0.7370
18940SOL    HW161182   1.684   8.620   9.414 -0.6294  0.6668  0.3137
18940SOL    HW261183   1.613   8.550   9.300 -0.7215  1.0023  0.1620
18941SOL     OW61184   9.935   0.317   5.282 -0.2727 -0.3820  0.1752
18941SOL    HW161185   9.847   0.356   5.281  0.1540  0.6273  0.3642
18941SOL    HW261186   9.994   0.392   5.282  0.5856 -1.0375  0.7278
18942SOL     OW61187   3.091   9.490   4.425 -1.1086  0.0351 -0.0625
18942SOL    HW161188   3.179   9.490   4.388 -1.3004  1.7024 -0.5706
18942SOL    HW261189   3.070   9.397   4.436  0.9207 -0.4035  0.6125
18943SOL     OW61190   6.788   5.333   9.069 -0.1574  0.0233 -0.1153
18943SOL    HW161191   6.786   5.362   9.160 -1.0580  0.2183 -0.1930
18943SOL    HW261192   6.750   5.245   9.070  4.1909 -2.1506  0.4071
18944SOL     OW61193   0.870   5.326   2.185  0.3098 -0.2567  0.0143
18944SOL    HW161194   0.821   5.249   2.213 -0.0880 -0.3618 -0.9196
18944SOL    HW261195   0.950   5.290   2.146  0.5558 -0.1495  0.4195
18945SOL     OW61196   4.151   3.334   6.616 -0.1027  0.0410 -0.5280
18945SOL    HW161197   4.131   3.241   6.626  2.4252 -0.3353  5.2473
18945SOL    HW261198   4.242   3.337   6.585  0.5869  0.3581  1.3897
18946SOL     OW61199   1.909   5.409   3.416 -0.4119 -0.8348 -0.4713
18946SOL    HW161200   1.900   5.367   3.502 -0.4153  0.4344  0.1682
18946SOL    HW261201   2.000   5.437   3.413 -1.0967  1.7468  0.4057
18947SOL     OW61202   5.491   1.873   8.424  0.4067 -0.2975  0.1200
18947SOL    HW161203   5.518   1.827   8.345 -0.9629 -2.5446  0.8733
18947SOL    HW261204   5.467   1.804   8.486  0.6955  1.3948  2.2632
18948SOL     OW61205   0.895   6.210   1.854  0.8652  0.4025  0.0138
18948SOL    HW161206   0.903   6.281   1.918  2.0707  0.2407  0.0709
18948SOL    HW261207   0.854   6.251   1.778 -1.6831  0.3224  1.2673
18949SOL     OW61208   3.532   3.873   5.154  0.0583 -0.7244  0.0617
18949SOL    HW161209   3.485   3.892   5.235 -2.4336 -0.1004 -1.3921
18949SOL    HW261210   3.508   3.783   5.133  0.3912 -0.7615 -0.1597
18950SOL     OW61211   6.012   5.560   6.989 -0.6806 -0.7137  0.1439
18950SOL    HW161212   6.061   5.533   7.067 -0.6417 -0.6847  0.1294
18950SOL    HW261213   6.067   5.627   6.948 -1.7957  1.0027  1.3559
18951SOL     OW61214   4.175   1.533   2.623  0.3859 -0.2780 -0.3693
18951SOL    HW161215   4.145   1.443   2.636 -0.4581  0.1458  0.8143
18951SOL    HW261216   4.096   1.581   2.598  0.6564  0.2914 -0.1485
18952SOL     OW61217   2.869   4.135   1.175  0.5186  0.0964 -0.5771
18952SOL    HW161218   2.904   4.210   1.126  1.6939  0.6486  1.0199
18952SOL    HW261219   2.887   4.059   1.119 -1.2170  1.0074 -2.4887
18953SOL     OW61220   1.911  10.448  10.596  0.5298 -0.3352  0.5299
18953SOL    HW161221   2.005  10.434  10.588  0.5246 -0.2522  0.2985
18953SOL    HW261222   1.893  10.440  10.689  0.8493  0.1534  0.6410
18954SOL     OW61223   9.662   5.146   3.666 -0.1643  0.1522  0.1016
18954SOL    HW161224   9.712   5.204   3.724 -0.1977  0.7799 -0.4738
18954SOL    HW261225   9.725   5.119   3.600 -0.3750  0.2810 -0.1549
18955SOL     OW61226   7.572   4.676   4.462 -0.0645  0.9754 -0.1748
18955SOL    HW161227   7.484   4.701   4.434 -0.4031 -0.7960 -0.8013
18955SOL    HW261228   7.614   4.642   4.383  0.7036  0.5306  0.4121
18956SOL     OW61229   9.855   9.411   3.490  0.2324  0.2547  0.0245
18956SOL    HW161230   9.894   9.450   3.412 -0.3962  1.0358  0.0882
18956SOL    HW261231   9.836   9.485   3.547 -1.4215 -0.0855 -0.0367
18957SOL     OW61232   7.537   0.808   1.052  0.4900  0.0519  0.2151
18957SOL    HW161233   7.553   0.884   1.108 -2.5781  0.7476  0.3074
18957SOL    HW261234   7.563   0.733   1.106 -0.1977  0.8358  1.6971
18958SOL     OW61235   9.602   0.991   4.854 -0.2028 -0.3640  0.4785
18958SOL    HW161236   9.524   1.019   4.901 -1.0955 -0.8095 -0.6840
18958SOL    HW261237   9.582   0.902   4.825  0.1162  0.0485 -1.1010
18959SOL     OW61238   0.227   2.281   4.653  0.5225 -0.1360 -0.2992
18959SOL    HW161239   0.267   2.229   4.722 -1.4539 -0.5412  0.6272
18959SOL    HW261240   0.226   2.370   4.688 -0.5064 -0.3462  0.2579
18960SOL     OW61241   9.026   5.366   6.036  0.0558 -0.4869  0.4824
18960SOL    HW161242   8.976   5.285   6.031  0.2542 -0.5261 -1.6658
18960SOL    HW261243   9.054   5.372   6.128  0.1303 -2.8858  0.6614
18961SOL     OW61244   7.702   0.530   3.263  0.2334 -0.1027 -0.5493
18961SOL    HW161245   7.795   0.524   3.287  0.3638  0.9816 -0.7401
18961SOL    HW261246   7.670   0.440   3.272  1.0270 -0.3000  0.6139
18962SOL     OW61247   6.516   3.922   8.175  0.2259 -0.0147  0.0582
18962SOL    HW161248   6.456   3.848   8.185  0.5828 -0.4122 -0.6651
18962SOL    HW261249   6.459   3.998   8.165 -0.1801 -0.4593 -1.1738
18963SOL     OW61250   1.412   3.714   7.826  0.4007  0.6885 -0.1868
18963SOL    HW161251   1.492   3.762   7.807  0.2858  0.7060 -0.6309
18963SOL    HW261252   1.389   3.740   7.915  0.2325  1.6132 -0.4888
18964SOL     OW61253   3.605   4.702   6.068 -0.4508 -0.0294 -0.3910
18964SOL    HW161254   3.649   4.784   6.092 -0.0383 -0.5639  0.7345
18964SOL    HW261255   3.539   4.729   6.004 -0.7827  1.2901  0.4559
18965SOL     OW61256   7.646   0.478  11.028 -0.2553 -0.0895 -0.0834
18965SOL    HW161257   7.638   0.549  10.965  1.9259  1.1093  0.8585
18965SOL    HW261258   7.661   0.522  11.112 -0.2968 -1.6645  0.8014
18966SOL     OW61259   0.911   9.542  11.037 -0.3918  0.4111  0.3032
18966SOL    HW161260   0.969   9.617  11.047 -1.0807  1.1596 -0.9760
18966SOL    HW261261   0.823   9.578  11.043 -0.7382 -0.3093 -0.1622
18967SOL     OW61262  10.684   6.888   1.242  0.5161 -0.1282  0.2103
18967SOL    HW161263  10.702   6.970   1.196 -0.8781 -0.3883 -0.8502
18967SOL    HW261264  10.655   6.828   1.174  0.7806 -1.2769  1.0899
18968SOL     OW61265  10.746   2.092   7.710  0.2085 -0.4716  0.7080
18968SOL    HW161266  10.684   2.145   7.759  1.5274  0.6338  1.2319
18968SOL    HW261267  10.815   2.153   7.683  1.9244 -1.9293  1.5607
18969SOL     OW61268   1.950   0.468   3.784  0.2017  0.5899 -0.0517
18969SOL    HW161269   1.949   0.403   3.854  1.0233  0.6749  0.0490
18969SOL    HW261270   2.013   0.433   3.720 -0.3443  0.6423 -0.6232
18970SOL     OW61271   7.387   0.308   2.601  0.1035  0.4736  0.2063
18970SOL    HW161272   7.351   0.235   2.551 -0.8865  1.4215 -0.4996
18970SOL    HW261273   7.333   0.312   2.680 -2.5567  2.8656 -1.5460
18971SOL     OW61274   9.814   8.745   8.446  0.3261 -0.0975 -0.4023
18971SOL    HW161275   9.852   8.781   8.366  2.1933 -0.7397  0.1585
18971SOL    HW261276   9.888   8.711   8.495 -1.0301 -1.9261  0.4952
18972SOL     OW61277   0.167   9.183  10.882 -0.2645 -0.0949  0.6325
18972SOL    HW161278   0.089   9.128  10.879  0.0652 -0.6272  1.3842
18972SOL    HW261279   0.137   9.264  10.922 -0.5835 -0.0321  0.2701
18973SOL     OW61280   9.628   0.609   6.244 -0.2509 -0.4335  0.2839
18973SOL    HW161281   9.540   0.616   6.280 -0.7405 -1.2968 -0.6985
18973SOL    HW261282   9.624   0.536   6.182  1.3979 -1.1257  0.9103
18974SOL     OW61283   1.587   2.947   2.841  0.2130 -0.2394 -0.1613
18974SOL    HW161284   1.580   2.929   2.747  0.4025 -0.7338 -0.0893
18974SOL    HW261285   1.511   2.904   2.879 -0.9740  1.6566 -0.2863
18975SOL     OW61286   2.545   5.533  10.476  0.0799  0.2777 -0.1197
18975SOL    HW161287   2.615   5.570  10.422  0.1610  2.5832  1.4317
18975SOL    HW261288   2.587   5.515  10.560 -0.8999  0.4156  0.4086
18976SOL     OW61289   4.460   1.064   8.602  0.7584  0.0679 -0.1333
18976SOL    HW161290   4.422   1.065   8.514  0.1714  0.8844  0.1234
18976SOL    HW261291   4.549   1.098   8.590  0.9008 -0.4176 -0.4983
18977SOL     OW61292   5.193   8.052   8.956  0.2049  0.3643  0.4954
18977SOL    HW161293   5.181   8.087   8.867 -1.2943 -0.2999  0.4193
18977SOL    HW261294   5.112   8.006   8.975 -0.1689  1.8757  2.8834
18978SOL     OW61295   3.854   6.181   8.211 -0.4670 -0.3376 -0.0672
18978SOL    HW161296   3.775   6.130   8.225 -0.0295 -0.8828  0.4485
18978SOL    HW261297   3.925   6.117   8.209 -0.0672  0.1083 -0.8656
18979SOL     OW61298   0.417   7.542   1.331 -0.1336  0.1609 -0.3919
18979SOL    HW161299   0.334   7.512   1.368  0.6315 -2.0589 -0.3534
18979SOL    HW261300   0.391   7.603   1.262 -1.7385  0.3948  0.3535
18980SOL     OW61301   6.859   0.625   9.485  0.1806 -0.3672 -0.2127
18980SOL    HW161302   6.905   0.633   9.401  1.9721 -1.4348  0.6266
18980SOL    HW261303   6.927   0.602   9.548 -1.2156 -0.1040  1.4663
18981SOL     OW61304   0.966   2.420   1.668  0.0157 -0.0796  0.0276
18981SOL    HW161305   0.917   2.462   1.598 -0.5418  0.6940  0.8561
18981SOL    HW261306   0.915   2.341   1.689 -0.4461  0.2884  0.3254
18982SOL     OW61307   1.687   6.191   7.484  0.3582  0.2393  0.3793
18982SOL    HW161308   1.595   6.213   7.479  0.4606  0.6566  0.3035
18982SOL    HW261309   1.698   6.119   7.420  0.3717  1.1829 -0.7163
18983SOL     OW61310  11.031   2.524   3.751  0.1111  0.2719 -0.0253
18983SOL    HW161311  11.008   2.435   3.724  0.9088 -0.0299  0.2667
18983SOL    HW261312  10.957   2.552   3.804 -0.5774  0.1370 -0.8843
18984SOL     OW61313   3.388   9.540   4.853 -0.1136  0.6407  0.3169
18984SOL    HW161314   3.471   9.527   4.899  0.4045  1.1393 -0.4508
18984SOL    HW261315   3.402   9.499   4.767 -1.5646 -1.5895  1.0559
18985SOL     OW61316   9.875   0.914   1.911 -0.0774 -0.3047 -0.0493
18985SOL    HW161317   9.959   0.891   1.871  0.0965  1.3801 -0.7047
18985SOL    HW261318   9.818   0.934   1.837 -0.3922  0.7527  0.4668
18986SOL     OW61319   5.151   3.378   3.280 -0.0976 -0.3348  0.2040
18986SOL    HW161320   5.206   3.312   3.238  2.4746  1.1360  0.9865
18986SOL    HW261321   5.062   3.345   3.270  0.6824 -1.9841 -2.8341
18987SOL     OW61322   6.406   9.923   8.083  0.0415 -0.7023  0.0895
18987SOL    HW161323   6.494   9.956   8.098  0.3013 -0.1966 -2.1788
18987SOL    HW261324   6.416   9.828   8.078  0.2112 -0.7533  1.1443
18988SOL     OW61325   2.262   2.159   8.782 -0.0732 -0.6374 -0.0678
18988SOL    HW161326   2.189   2.097   8.778  0.0906 -0.8599  0.3751
18988SOL    HW261327   2.336   2.111   8.744  0.3091 -1.0850  1.2022
18989SOL     OW61328   2.118   0.704   5.927 -0.5844 -0.2053 -0.0440
18989SOL    HW161329   2.084   0.764   5.994 -0.3530  0.0433 -0.1484
18989SOL    HW261330   2.042   0.651   5.903 -1.1214  0.8551 -0.8196
18990SOL     OW61331   1.376   3.619  10.638 -0.2595 -0.0236  0.3877
18990SOL    HW161332   1.447   3.672  10.602 -2.0913  0.9285 -2.1792
18990SOL    HW261333   1.378   3.538  10.588  0.0971 -0.7384  1.5423
18991SOL     OW61334  10.875   6.732   3.820  0.2865 -0.3852 -0.1814
18991SOL    HW161335  10.967   6.750   3.838 -0.0634  0.4221  0.8815
18991SOL    HW261336  10.875   6.691   3.734  1.4885  1.1011 -0.9327
18992SOL     OW61337   4.723   1.858   2.934 -0.6990 -0.2240  0.1630
18992SOL    HW161338   4.752   1.871   2.843  0.2627 -1.0251  0.3479
18992SOL    HW261339   4.735   1.944   2.975 -0.6930  0.0197 -0.3356
18993SOL     OW61340   3.011   8.426   5.488  0.3385  0.8116  0.0175
18993SOL    HW161341   2.985   8.498   5.430  1.0605  1.0571 -0.0130
18993SOL    HW261342   3.101   8.447   5.513  0.1411  0.5368  0.9731
18994SOL     OW61343   8.733   0.889   9.646 -0.2209 -0.0498  0.1663
18994SOL    HW161344   8.655   0.867   9.596 -0.9440  0.8773  0.8619
18994SOL    HW261345   8.716   0.976   9.682  0.7398 -0.2177  1.1031
18995SOL     OW61346   5.983   8.456   0.930 -0.2247 -0.2630 -0.2967
18995SOL    HW161347   5.888   8.446   0.939 -0.4753  0.6230 -1.6178
18995SOL    HW261348   6.014   8.471   1.019 -1.1705 -1.5632  0.2979
18996SOL     OW61349   6.091   7.032   2.336  0.0720 -0.4921 -0.3772
18996SOL    HW161350   6.025   7.075   2.390  1.8845  2.9249 -0.6115
18996SOL    HW261351   6.067   7.055   2.246  1.1364  0.1685 -0.5045
18997SOL     OW61352   1.037   8.570   9.638  0.0657  0.6913  0.3346
18997SOL    HW161353   1.035   8.584   9.733  0.4665 -0.8639  0.5931
18997SOL    HW261354   0.946   8.556   9.614  0.1207 -0.4808  0.7601
18998SOL     OW61355  10.766   5.302   7.927  0.3687 -0.2390  0.4863
18998SOL    HW161356  10.808   5.255   7.999 -1.5091 -1.2751  0.9612
18998SOL    HW261357  10.806   5.265   7.848 -0.8037 -2.4255  0.8627
18999SOL     OW61358   5.657   2.782   0.858 -0.4940  0.0474 -0.4582
18999SOL    HW161359   5.698   2.828   0.930 -0.3033 -0.1187 -0.4598
18999SOL    HW261360   5.716   2.795   0.784 -0.5124 -0.0733 -0.4950
19000SOL     OW61361   6.165   1.285   9.554  0.5616 -0.4398  0.3038
19000SOL    HW161362   6.117   1.301   9.635  0.0510  0.2502 -0.1245
19000SOL    HW261363   6.243   1.237   9.581 -0.5419 -1.9374  0.9696
19001SOL     OW61364   5.792   0.673   1.365 -0.3331 -0.0106  0.1604
19001SOL    HW161365   5.714   0.619   1.379  0.1706 -0.6931  0.3837
19001SOL    HW261366   5.773   0.722   1.285 -0.2861 -1.4779 -0.7746
19002SOL     OW61367   0.496   4.968   5.389  0.8188 -0.1554  0.1665
19002SOL    HW161368   0.454   4.891   5.350  1.9013 -1.1491  0.8917
19002SOL    HW261369   0.440   4.989   5.465  0.3812 -0.0671 -0.1764
19003SOL     OW61370   6.595   5.776  11.021  0.2129  0.1234 -0.1859
19003SOL    HW161371   6.516   5.739  11.060  0.9085 -1.0064  0.2112
19003SOL    HW261372   6.571   5.866  10.998 -0.8160  0.1893  1.0409
19004SOL     OW61373   5.264   6.264   8.322  0.2170  0.4122 -0.1770
19004SOL    HW161374   5.204   6.303   8.385  0.2657  0.2012  0.0029
19004SOL    HW261375   5.351   6.283   8.356  0.2677 -1.8597  1.2198
19005SOL     OW61376   9.708   3.729   1.053 -0.3524  0.0949 -0.1594
19005SOL    HW161377   9.728   3.637   1.039 -1.6135 -0.3359  0.7113
19005SOL    HW261378   9.789   3.767   1.087 -0.2858 -1.0437  0.9760
19006SOL     OW61379   8.982   9.828  10.451 -0.6123 -0.0391  0.0277
19006SOL    HW161380   8.902   9.780  10.474 -0.0960 -1.2806 -0.7149
19006SOL    HW261381   9.033   9.767  10.399  0.5256  0.9851 -0.0992
19007SOL     OW61382   6.738   5.713   3.929 -0.5113  0.4886 -0.0230
19007SOL    HW161383   6.788   5.684   3.853 -2.3240 -0.5091 -0.9004
19007SOL    HW261384   6.687   5.637   3.956 -1.9829  1.5800  0.4597
19008SOL     OW61385   1.927   8.718   2.484  0.4942 -0.3119 -0.4703
19008SOL    HW161386   1.990   8.667   2.535 -0.0897 -0.5433  0.0372
19008SOL    HW261387   1.949   8.809   2.503  0.4614 -0.3934 -0.0200
19009SOL     OW61388   9.941   4.403   1.517  0.2795  0.1113 -0.3211
19009SOL    HW161389   9.851   4.414   1.485 -0.0669 -0.4720  0.4367
19009SOL    HW261390   9.959   4.310   1.507  0.2167 -0.0647  0.9981
19010SOL     OW61391   2.446   0.212   9.732 -0.0001  0.4873  0.4372
19010SOL    HW161392   2.490   0.145   9.680  1.6791  1.5841  0.3453
19010SOL    HW261393   2.410   0.165   9.807  0.4569 -0.6195 -0.0199
19011SOL     OW61394   8.191   2.538   4.829 -0.0848  0.1448 -0.2568
19011SOL    HW161395   8.169   2.485   4.752  2.4684 -1.9331  0.2751
19011SOL    HW261396   8.150   2.492   4.902  1.0752 -0.4386  0.0591
19012SOL     OW61397   3.334   5.510   1.276 -0.3134  0.0162  0.2202
19012SOL    HW161398   3.246   5.498   1.311  0.0830 -2.0536  0.6505
19012SOL    HW261399   3.392   5.477   1.345  0.6891 -0.3873 -0.7800
19013SOL     OW61400   8.435   7.859   3.346 -0.1281  0.3882  0.1763
19013SOL    HW161401   8.484   7.808   3.281  0.1118  0.3968  0.3470
19013SOL    HW261402   8.395   7.930   3.296 -0.6908 -0.1273 -0.1073
19014SOL     OW61403   2.538   3.144   8.417 -0.5082  0.3519  0.3832
19014SOL    HW161404   2.563   3.172   8.329  0.2619  0.1742  0.5372
19014SOL    HW261405   2.445   3.123   8.410 -1.2976  3.3892  0.3656
19015SOL     OW61406   2.478   0.473   6.558 -0.7378 -0.0492  0.3854
19015SOL    HW161407   2.541   0.417   6.603 -1.1895 -0.0964  0.9712
19015SOL    HW261408   2.478   0.554   6.608 -0.6796  0.1797  0.0169
19016SOL     OW61409   9.928   1.966   5.583  0.5715  0.0698 -0.4634
19016SOL    HW161410   9.978   1.902   5.533  1.3748  0.0208  0.3684
19016SOL    HW261411   9.993   2.011   5.637 -0.1078  0.9536 -0.3612
19017SOL     OW61412   1.596   6.636   5.866  0.0080 -0.1649  0.2096
19017SOL    HW161413   1.525   6.592   5.820  0.7498 -0.2353 -0.9058
19017SOL    HW261414   1.676   6.607   5.821  0.5327  2.2523 -0.5403
19018SOL     OW61415   4.737  10.386  10.141  0.4040  0.1595 -0.4661
19018SOL    HW161416   4.675  10.455  10.162  0.3547  0.4778 -1.5675
19018SOL    HW261417   4.685  10.306  10.139  0.2115  0.2853 -0.4667
19019SOL     OW61418   6.780   7.440  10.203 -0.6157 -0.1157  0.1338
19019SOL    HW161419   6.836   7.500  10.252 -1.6712  0.4298  0.7087
19019SOL    HW261420   6.807   7.451  10.112 -0.9372  1.4337  0.1903
19020SOL     OW61421   9.088   7.544   0.091 -0.0823 -1.0207 -0.5619
19020SOL    HW161422   9.129   7.572   0.173 -1.9072 -1.3685  0.5078
19020SOL    HW261423   9.052   7.625   0.054 -0.3078 -1.0515 -0.4095
19021SOL     OW61424   8.221   2.536   9.296 -0.0898 -0.0760 -0.7007
19021SOL    HW161425   8.178   2.578   9.221 -0.9676  1.4563  0.5851
19021SOL    HW261426   8.314   2.543   9.277 -0.2677  1.2326 -1.1990
19022SOL     OW61427   8.001   2.595   2.226  0.1804  0.3574 -0.0771
19022SOL    HW161428   7.980   2.687   2.207  0.3020  0.6933  1.2966
19022SOL    HW261429   7.948   2.574   2.302 -0.9989 -1.2066 -1.2741
19023SOL     OW61430   9.702   9.757   8.205 -0.1187 -0.6963 -0.7130
19023SOL    HW161431   9.653   9.787   8.282  0.0978 -1.9153 -0.0752
19023SOL    HW261432   9.671   9.667   8.191 -0.0734 -0.5237 -1.9902
19024SOL     OW61433  10.095   8.569   3.830  0.2404  0.0729 -0.1256
19024SOL    HW161434  10.060   8.579   3.741  0.6156  0.1292 -0.2687
19024SOL    HW261435  10.033   8.510   3.873 -1.8043  2.5638  0.6218
19025SOL     OW61436   5.527   5.540   8.090  0.1072 -0.4755  0.1549
19025SOL    HW161437   5.559   5.463   8.043  0.9757  0.0611 -0.1587
19025SOL    HW261438   5.444   5.512   8.129  0.0557 -1.3422 -0.5566
19026SOL     OW61439   3.073   4.527  11.046  0.2279  0.2505 -0.3803
19026SOL    HW161440   3.044   4.510  11.135 -0.0523 -2.9457 -0.9546
19026SOL    HW261441   3.004   4.582  11.009 -0.1830  0.7488  1.0645
19027SOL     OW61442   8.659   0.022   9.527 -0.2945  0.0027  0.3783
19027SOL    HW161443   8.634   0.015   9.619  1.5709  1.8996  1.1162
19027SOL    HW261444   8.629   0.109   9.501  0.8302  0.2304 -0.2183
19028SOL     OW61445   4.534   5.982   7.738  0.3002  0.0899 -0.2956
19028SOL    HW161446   4.503   6.072   7.723 -1.8575  0.1253  3.1799
19028SOL    HW261447   4.627   5.992   7.757  0.3236  1.4514 -1.0280
19029SOL     OW61448   0.714   4.331   4.793  0.4072  0.5153  0.0691
19029SOL    HW161449   0.756   4.417   4.787 -0.4051  0.8357 -1.7218
19029SOL    HW261450   0.633   4.347   4.843  1.3487  0.2890  1.7540
19030SOL     OW61451  10.591   2.241  10.235 -0.3289  0.0070 -0.1997
19030SOL    HW161452  10.678   2.263  10.268  0.0284 -1.1063 -0.3729
19030SOL    HW261453  10.584   2.146  10.246 -1.5047  0.0746 -0.2321
19031SOL     OW61454   4.509   1.951   3.525  0.1614 -0.4081  0.2664
19031SOL    HW161455   4.544   1.862   3.519  2.8277  0.5305  0.7260
19031SOL    HW261456   4.563   1.994   3.591  0.9316  2.3807 -1.9576
19032SOL     OW61457   2.545   5.260  10.155 -0.2654 -0.0142  0.2447
19032SOL    HW161458   2.591   5.285  10.075 -1.2639  2.3870  0.3412
19032SOL    HW261459   2.611   5.271  10.224 -0.2364  0.8792  0.0855
19033SOL     OW61460   7.058   5.719   8.264  0.1160  0.3696  0.1639
19033SOL    HW161461   6.981   5.685   8.309  0.0192  0.3654 -0.0038
19033SOL    HW261462   7.109   5.641   8.240 -0.7633  0.2389 -1.4127
19034SOL     OW61463   8.751   2.542   3.733  0.9601 -0.3876 -0.3482
19034SOL    HW161464   8.724   2.466   3.785 -0.5245 -0.3563 -1.0316
19034SOL    HW261465   8.684   2.608   3.751  1.2226  0.1195 -1.2065
19035SOL     OW61466   5.729  10.533   0.257  0.3926 -0.2129  0.5085
19035SOL    HW161467   5.726  10.445   0.219  0.6585 -0.3300  0.7561
19035SOL    HW261468   5.693  10.524   0.345 -0.8699  0.1928  0.0462
19036SOL     OW61469   6.134  10.967   4.766 -0.2739 -0.4388 -0.1746
19036SOL    HW161470   6.107  10.969   4.674  1.6595 -1.2930 -0.8062
19036SOL    HW261471   6.215  11.017   4.768 -0.4570 -0.1502  1.1559
19037SOL     OW61472   6.628   9.560   7.208  0.5822 -0.0741  0.1615
19037SOL    HW161473   6.625   9.476   7.162  3.2138  0.3024 -0.8576
19037SOL    HW261474   6.703   9.605   7.170  0.5034  1.8892  2.1763
19038SOL     OW61475   2.219   0.250   8.290 -0.0721 -0.7026  0.7631
19038SOL    HW161476   2.222   0.293   8.375  0.9735  0.4049  0.2012
19038SOL    HW261477   2.292   0.187   8.292  0.7469  0.2000  0.2704
19039SOL     OW61478   0.651   7.084   6.231  0.1587 -0.1812 -0.3625
19039SOL    HW161479   0.610   7.069   6.145 -0.8704 -0.8784  0.2273
19039SOL    HW261480   0.712   7.012   6.241 -1.3489 -1.4136  0.4231
19040SOL     OW61481   5.705   1.558   3.077  0.4540 -0.4498  0.0094
19040SOL    HW161482   5.772   1.603   3.026  0.0751 -1.7944 -1.7666
19040SOL    HW261483   5.628   1.557   3.020 -1.2655  1.2901  2.0890
19041SOL     OW61484   8.028   3.234  10.579 -0.0504  0.1505  1.0928
19041SOL    HW161485   7.945   3.206  10.542  1.0527 -2.0684  0.0964
19041SOL    HW261486   8.065   3.293  10.512 -0.7739  1.1336  1.5351
19042SOL     OW61487   8.281   8.652   2.201 -0.0731  0.0469  0.2712
19042SOL    HW161488   8.185   8.653   2.197 -0.0538  0.4464 -0.1141
19042SOL    HW261489   8.309   8.640   2.111  0.2573  1.2753  0.1869
19043SOL     OW61490   6.525   6.822   1.081 -0.0617 -0.2148 -0.0065
19043SOL    HW161491   6.488   6.738   1.055  0.2987 -0.4154  0.1143
19043SOL    HW261492   6.618   6.815   1.058  0.8098 -1.2517  3.2774
19044SOL     OW61493   6.544   0.173   2.852  0.2174 -0.1296 -0.6691
19044SOL    HW161494   6.462   0.186   2.899  0.8641  0.6977  0.2824
19044SOL    HW261495   6.560   0.255   2.807  1.3007  0.3221  0.4588
19045SOL     OW61496   2.859   9.369   8.987 -0.6060  0.6259  0.2847
19045SOL    HW161497   2.832   9.362   8.896  0.5554 -0.3563 -0.0146
19045SOL    HW261498   2.851   9.462   9.008 -1.1049  0.8260 -0.7390
19046SOL     OW61499   8.779   7.164   2.524  0.8127 -0.1361  0.3396
19046SOL    HW161500   8.805   7.103   2.594 -0.4225 -1.8876 -0.6523
19046SOL    HW261501   8.740   7.238   2.571  2.1965 -0.1491  1.5809
19047SOL     OW61502   3.712   0.249   9.163 -0.3504  0.5319  0.0025
19047SOL    HW161503   3.757   0.321   9.118  1.2442 -0.6089 -0.2881
19047SOL    HW261504   3.769   0.174   9.151 -1.8419 -0.7379  0.5604
19048SOL     OW61505   4.773   8.140   7.769 -0.6208 -0.0332 -0.6777
19048SOL    HW161506   4.829   8.218   7.772 -0.5991 -0.0578 -0.4485
19048SOL    HW261507   4.833   8.069   7.745  0.1290 -0.6642  2.6297
19049SOL     OW61508   8.110   7.009  10.939  0.1934 -0.5984 -0.2713
19049SOL    HW161509   8.150   7.056  10.865  0.3113  0.4935  0.4640
19049SOL    HW261510   8.148   7.050  11.017 -0.9220 -0.8348  0.4207
19050SOL     OW61511   2.365  10.864   2.282  0.2104 -0.1924  0.7795
19050SOL    HW161512   2.379  10.949   2.323  2.4517  0.1745 -0.5435
19050SOL    HW261513   2.350  10.804   2.355 -1.0608  1.2515  1.7558
19051SOL     OW61514   1.167   9.589   1.375  0.6067 -0.4425 -0.7191
19051SOL    HW161515   1.122   9.606   1.458  0.6883  0.8490 -0.9190
19051SOL    HW261516   1.206   9.673   1.351  2.0005 -1.1982 -1.2325
19052SOL     OW61517   6.525   2.183  10.230  0.2780 -0.1762  0.3240
19052SOL    HW161518   6.574   2.137  10.162 -1.7993  1.4065 -2.4311
19052SOL    HW261519   6.434   2.176  10.203 -0.4267  2.4072  1.7333
19053SOL     OW61520   0.902   2.387   7.783  0.9010  0.3306 -0.6329
19053SOL    HW161521   0.931   2.349   7.700  0.8558 -1.0535 -0.0443
19053SOL    HW261522   0.830   2.331   7.811  1.8717 -0.1452  1.0436
19054SOL     OW61523   4.924   6.830   5.368  0.3466  0.3855  0.7038
19054SOL    HW161524   4.885   6.910   5.404 -1.6923 -0.6154  0.8674
19054SOL    HW261525   4.923   6.768   5.441 -0.3345 -0.5150 -0.0498
19055SOL     OW61526   2.270   5.012   6.140  0.1165  0.2469 -0.1197
19055SOL    HW161527   2.349   5.044   6.183 -0.3813 -0.7519  1.6167
19055SOL    HW261528   2.287   4.919   6.124 -0.3709  0.2239 -0.5541
19056SOL     OW61529   2.408   6.035   5.069 -0.0142 -0.0188 -0.1472
19056SOL    HW161530   2.431   6.068   4.983 -0.1358 -2.2730 -1.1169
19056SOL    HW261531   2.314   6.015   5.062 -0.0785 -0.0021  0.5959
19057SOL     OW61532   0.501   7.381   5.851  0.6436 -0.0833  0.4394
19057SOL    HW161533   0.548   7.336   5.781 -0.7116  0.8383 -1.1492
19057SOL    HW261534   0.437   7.316   5.882  1.0791 -0.4135  0.6474
19058SOL     OW61535  10.010   1.001   9.447 -0.0101 -0.2976 -0.2175
19058SOL    HW161536  10.014   1.068   9.378 -1.8498  0.5522  0.4327
19058SOL    HW261537  10.028   1.048   9.528 -2.2944 -0.2948  0.3705
19059SOL     OW61538   9.027   5.381   0.399  0.7645 -0.0366 -0.0371
19059SOL    HW161539   8.951   5.404   0.345  0.9851 -0.1262 -0.3822
19059SOL    HW261540   8.989   5.363   0.486  0.4710  0.6225 -0.0193
19060SOL     OW61541   1.422   3.975   9.117  0.0565  0.0398  0.8599
19060SOL    HW161542   1.341   4.021   9.142 -0.3647 -0.8255  1.1325
19060SOL    HW261543   1.485   4.045   9.101 -1.3434  0.8580 -1.5440
19061SOL     OW61544   2.176  10.353   9.555 -0.1251  0.1637 -0.3132
19061SOL    HW161545   2.206  10.270   9.519  3.9220 -0.4181  3.5118
19061SOL    HW261546   2.233  10.419   9.515  2.0593 -0.0776  2.1359
19062SOL     OW61547  10.198   6.444   4.251  0.1641 -0.1999 -0.4637
19062SOL    HW161548  10.141   6.505   4.298 -0.6112 -0.3920 -1.1224
19062SOL    HW261549  10.144   6.366   4.240  0.8983 -0.7455 -0.2665
19063SOL     OW61550   3.584   4.179   8.626 -0.1928  0.1977 -0.2935
19063SOL    HW161551   3.493   4.197   8.603 -0.2733 -1.9433 -1.9982
19063SOL    HW261552   3.592   4.084   8.619  2.0340  0.2806  0.3750
19064SOL     OW61553   3.721   7.502   6.165  0.6203 -0.0271  1.1041
19064SOL    HW161554   3.725   7.595   6.142 -0.5559 -0.0337  0.7926
19064SOL    HW261555   3.736   7.456   6.082  0.7917 -0.1111  1.1810
19065SOL     OW61556   5.643   9.441   0.447  0.6702  0.7130 -0.5768
19065SOL    HW161557   5.561   9.426   0.494  1.2917  1.7211  0.8833
19065SOL    HW261558   5.616   9.452   0.355 -0.6413 -0.5102 -0.3729
19066SOL     OW61559   2.163   5.205   7.266 -0.2320  0.4003 -0.0355
19066SOL    HW161560   2.143   5.277   7.325  0.1899 -0.5104  1.2777
19066SOL    HW261561   2.157   5.242   7.178 -0.2593  1.9569  0.6044
19067SOL     OW61562   5.209   6.981  11.049  0.5616 -0.2069  0.0191
19067SOL    HW161563   5.150   7.036  11.101 -0.1985 -2.0676  1.2591
19067SOL    HW261564   5.158   6.958  10.971  0.5655  0.1653 -0.0935
19068SOL     OW61565   7.627   0.157   5.570  0.4836  0.0180 -0.1880
19068SOL    HW161566   7.613   0.221   5.640  0.3342  1.2563 -1.3062
19068SOL    HW261567   7.719   0.130   5.580 -0.1302 -1.5581  1.8438
19069SOL     OW61568   2.299   5.566   3.942 -0.1170 -0.4242 -0.0888
19069SOL    HW161569   2.394   5.552   3.946 -0.0192  0.2194 -0.0211
19069SOL    HW261570   2.270   5.514   3.867  0.1825 -1.1985  0.3327
19070SOL     OW61571   6.489   5.215   3.908  1.0252 -0.5272 -0.2319
19070SOL    HW161572   6.526   5.304   3.904 -0.9760  0.5986  2.4408
19070SOL    HW261573   6.417   5.217   3.845  0.9378 -0.1982 -0.1290
19071SOL     OW61574   8.803   5.411   0.880 -0.0339  0.2296 -0.0285
19071SOL    HW161575   8.847   5.478   0.932 -0.2666  0.2211  0.1864
19071SOL    HW261576   8.810   5.331   0.933 -0.0449  0.1601 -0.1312
19072SOL     OW61577   5.591   8.042   4.634  0.6721 -0.1220 -0.4702
19072SOL    HW161578   5.587   7.963   4.580 -0.9194 -0.3392 -0.0800
19072SOL    HW261579   5.681   8.074   4.622  1.3098 -1.8754 -0.7674
19073SOL     OW61580  10.409   8.034   2.386  0.2290  0.2034  0.0518
19073SOL    HW161581  10.440   7.990   2.465  1.2859 -0.3477 -0.6455
19073SOL    HW261582  10.324   7.993   2.367  0.3117 -0.1753  0.4936
19074SOL     OW61583   2.462  10.928   2.657  0.6596 -0.0650  0.5701
19074SOL    HW161584   2.387  10.945   2.600  1.0216 -2.7577 -0.8814
19074SOL    HW261585   2.428  10.935   2.746 -1.0672 -0.2399 -0.0539
19075SOL     OW61586   7.609   1.741   7.398  0.3580  0.2131  0.3132
19075SOL    HW161587   7.693   1.739   7.445  0.3585  1.9276  0.4523
19075SOL    HW261588   7.634   1.752   7.306  0.3106  2.1712  0.4957
19076SOL     OW61589   9.672   0.598   7.807 -0.1936 -0.3516  0.6220
19076SOL    HW161590   9.668   0.674   7.865  1.6636  0.3098 -0.0305
19076SOL    HW261591   9.763   0.596   7.778 -0.4106 -2.3566 -0.0289
19077SOL     OW61592   0.170  10.357  11.097  0.2751  0.4208  0.0621
19077SOL    HW161593   0.145  10.325  11.183 -1.7624 -0.8232 -0.9034
19077SOL    HW261594   0.260  10.328  11.085 -0.3366 -1.9160  0.6626
19078SOL     OW61595   4.328  10.635  10.365 -0.6531  0.7735 -0.1336
19078SOL    HW161596   4.336  10.651  10.459  0.0415 -1.2546  0.2072
19078SOL    HW261597   4.236  10.651  10.345 -1.4567 -1.4103  1.4908
19079SOL     OW61598   0.640   7.634   9.456 -0.6275 -0.1316  0.1122
19079SOL    HW161599   0.548   7.615   9.474 -0.7693  1.1060  0.7897
19079SOL    HW261600   0.639   7.723   9.420  0.4663  0.6790  1.9731
19080SOL     OW61601   1.215   3.050   5.645  0.2253  0.2709 -0.6987
19080SOL    HW161602   1.200   3.034   5.552 -1.1077 -1.1870 -0.2787
19080SOL    HW261603   1.284   3.116   5.647 -0.4633  1.1365 -2.7287
19081SOL     OW61604   1.563  10.474   4.056 -0.4176  0.0117  0.3598
19081SOL    HW161605   1.591  10.515   4.138  0.8416  0.2678 -0.1729
19081SOL    HW261606   1.645  10.446   4.014 -1.0979 -0.8732 -0.4211
19082SOL     OW61607   1.734   0.179   0.208 -0.0145  0.4064  0.4006
19082SOL    HW161608   1.745   0.182   0.303  0.9714 -0.9928  0.3579
19082SOL    HW261609   1.788   0.106   0.180 -2.8463 -1.3683 -0.8783
19083SOL     OW61610   8.246   4.902   9.552 -0.4562 -0.0313 -0.3277
19083SOL    HW161611   8.233   4.943   9.637  0.5100  0.0468 -0.2100
19083SOL    HW261612   8.210   4.965   9.489  0.2445  0.6311 -0.0859
19084SOL     OW61613   2.054   5.190   0.959  0.3142  0.3435 -0.5209
19084SOL    HW161614   2.001   5.161   0.884  1.6892 -0.2592 -1.3063
19084SOL    HW261615   2.144   5.185   0.927  1.0229 -0.9432  1.5126
19085SOL     OW61616   8.588   6.943   7.163  0.2511 -0.2635 -0.0919
19085SOL    HW161617   8.585   6.924   7.070  0.8249 -0.4231 -0.0817
19085SOL    HW261618   8.623   6.864   7.203  0.3226 -0.0757  0.2237
19086SOL     OW61619   8.768   2.033   1.800 -0.3265 -0.1806  0.5247
19086SOL    HW161620   8.767   1.966   1.869 -0.0986  0.1892  0.8900
19086SOL    HW261621   8.800   2.111   1.843 -1.0328  0.2965  0.2104
19087SOL     OW61622   4.513   0.596   4.534  0.6596  0.4945  0.2971
19087SOL    HW161623   4.559   0.676   4.559 -0.2828  0.9322  0.6763
19087SOL    HW261624   4.437   0.626   4.485  0.1566 -0.1491  0.6650
19088SOL     OW61625   5.467   3.225   8.425  0.6071  0.1502  0.2858
19088SOL    HW161626   5.420   3.168   8.365  1.2183 -0.8499  0.7235
19088SOL    HW261627   5.412   3.229   8.503 -0.3979  1.8024 -0.4640
19089SOL     OW61628   8.101   2.431   4.427  0.2893  0.0973  0.2614
19089SOL    HW161629   8.148   2.385   4.496 -0.2427  0.2109  0.7066
19089SOL    HW261630   8.028   2.474   4.472 -0.5405 -0.4911 -0.4897
19090SOL     OW61631   0.300   5.009   6.498  0.1709 -0.6195 -0.8084
19090SOL    HW161632   0.245   4.965   6.433 -0.0586 -0.0535 -1.0095
19090SOL    HW261633   0.365   5.056   6.445 -0.3240  0.2569 -0.6701
19091SOL     OW61634   5.721   2.618   9.053  0.1663 -0.4253 -0.0120
19091SOL    HW161635   5.683   2.617   8.965  0.2192  0.2799 -0.0554
19091SOL    HW261636   5.664   2.562   9.105 -1.2511  0.9933  0.0369
19092SOL     OW61637   5.128   6.713   3.368  0.1205  0.1227 -0.2330
19092SOL    HW161638   5.172   6.779   3.314 -1.2043 -0.2649 -1.8402
19092SOL    HW261639   5.036   6.738   3.367 -0.7306 -2.6617 -2.3532
19093SOL     OW61640  10.029   8.158   5.903 -0.7720  0.7222  0.3203
19093SOL    HW161641  10.109   8.172   5.852 -0.9908  0.4544 -0.1043
19093SOL    HW261642  10.017   8.240   5.952 -0.8366  1.1878 -0.4531
19094SOL     OW61643   5.584   9.541   1.025  0.1257  0.1850 -0.1082
19094SOL    HW161644   5.646   9.614   1.024  0.4057 -0.0465 -0.4999
19094SOL    HW261645   5.564   9.526   0.932 -2.3771  1.7937  0.0952
19095SOL     OW61646   6.212   9.032   1.501  0.4617  0.2000  0.4384
19095SOL    HW161647   6.132   9.068   1.540  1.2403  1.1675  1.1894
19095SOL    HW261648   6.227   8.951   1.549  1.2251  1.2157  1.9964
19096SOL     OW61649   4.854   0.304   8.194 -0.2830  0.0753 -0.6252
19096SOL    HW161650   4.778   0.263   8.237  0.1492 -1.5917 -1.3572
19096SOL    HW261651   4.893   0.359   8.262 -1.7352  0.4337 -0.0262
19097SOL     OW61652   7.507   5.381   1.372 -0.3448 -0.0645 -0.0146
19097SOL    HW161653   7.508   5.378   1.468  2.1616 -1.6514  0.0048
19097SOL    HW261654   7.495   5.290   1.346  0.5781  0.1180 -1.1518
19098SOL     OW61655   2.096  10.318   1.341  0.2109  0.2746  0.0908
19098SOL    HW161656   2.015  10.340   1.387  0.4352  1.1500  0.0950
19098SOL    HW261657   2.162  10.376   1.380  0.4771  0.7814 -1.0644
19099SOL     OW61658   6.939   1.950  10.848  0.3012 -0.4980  0.3462
19099SOL    HW161659   6.939   1.897  10.769 -0.3066  0.2808 -0.1857
19099SOL    HW261660   7.014   1.918  10.898 -0.2118 -2.0421  0.1732
19100SOL     OW61661   0.543  10.581  10.401  0.2492  0.7178  0.0300
19100SOL    HW161662   0.605  10.617  10.464 -0.7796  0.0377  1.5094
19100SOL    HW261663   0.568  10.489  10.392  0.8671  0.9849 -1.2018
19101SOL     OW61664   3.709   9.143  11.072 -0.3712 -0.4018  0.1170
19101SOL    HW161665   3.729   9.199  10.996  1.4605 -1.8666 -0.5475
19101SOL    HW261666   3.744   9.192  11.147 -0.9920  0.4454 -0.1280
19102SOL     OW61667   2.563   9.072   9.908  0.0772 -0.3725 -0.8690
19102SOL    HW161668   2.564   8.985   9.868  1.8256 -0.6528 -0.2904
19102SOL    HW261669   2.540   9.130   9.836  0.0301 -1.1947 -1.5387
19103SOL     OW61670   0.101  10.692   9.397  0.3240  0.4894 -0.6270
19103SOL    HW161671   0.039  10.671   9.326  0.1854  2.5854 -1.1854
19103SOL    HW261672   0.046  10.702   9.475  0.4453 -1.5281 -0.2220
19104SOL     OW61673   3.611   2.927   8.843 -0.5860 -0.1937 -0.4002
19104SOL    HW161674   3.623   2.983   8.919  1.3308  0.7276 -1.2966
19104SOL    HW261675   3.584   2.986   8.773  0.3162 -0.5467 -1.0749
19105SOL     OW61676   0.878   5.936   9.390 -0.0120  0.6825  0.2678
19105SOL    HW161677   0.905   6.003   9.453 -1.7114  1.4359  0.2497
19105SOL    HW261678   0.782   5.937   9.393 -0.1217 -0.0540 -1.5259
19106SOL     OW61679   6.755   0.521   7.486 -0.3088 -0.2450 -0.1159
19106SOL    HW161680   6.693   0.452   7.464  0.2531 -0.0992 -2.4049
19106SOL    HW261681   6.841   0.480   7.480 -0.0474  0.1330  0.7503
19107SOL     OW61682   7.048   7.802   5.890 -0.0365 -0.4113 -0.2113
19107SOL    HW161683   7.128   7.854   5.902  0.7324 -1.3233 -1.2417
19107SOL    HW261684   7.011   7.834   5.808 -0.1343 -0.7675 -0.3039
19108SOL     OW61685   8.312  10.652   5.733 -0.3496 -0.2514 -0.2196
19108SOL    HW161686   8.314  10.610   5.647 -0.2001 -0.2036 -0.2391
19108SOL    HW261687   8.218  10.663   5.751 -0.5322 -3.2343  1.0824
19109SOL     OW61688  10.413   6.863   5.033 -0.3190  0.3407  0.0280
19109SOL    HW161689  10.428   6.936   5.094  0.2045  0.6783 -0.4907
19109SOL    HW261690  10.397   6.787   5.089  0.8222  0.5044  0.6010
19110SOL     OW61691   7.921  10.841   6.277 -0.1859 -0.0819  0.2022
19110SOL    HW161692   7.913  10.915   6.217 -1.7477 -1.8257 -1.8769
19110SOL    HW261693   7.857  10.859   6.345 -1.1379  0.1090 -0.7226
19111SOL     OW61694   6.941   1.602   9.068 -0.3740 -0.2602 -0.1838
19111SOL    HW161695   6.933   1.566   8.980 -1.1994  0.2081 -0.3100
19111SOL    HW261696   6.862   1.573   9.113 -0.3574  0.1980  0.1468
19112SOL     OW61697   0.270   9.797   5.328  0.4647 -0.0453  0.0330
19112SOL    HW161698   0.236   9.869   5.275 -0.3925 -1.3641 -1.2904
19112SOL    HW261699   0.194   9.743   5.348  1.0318 -0.4232  1.3036
19113SOL     OW61700   4.813   1.055   8.872  0.8649 -0.4604  0.3820
19113SOL    HW161701   4.730   1.009   8.883  0.6144  0.2750  1.8439
19113SOL    HW261702   4.866   1.029   8.947  1.5889 -0.1584 -0.0067
19114SOL     OW61703   3.816   0.675   3.093  0.7743  0.1401  0.2811
19114SOL    HW161704   3.888   0.634   3.141 -0.5500 -3.3799 -0.3971
19114SOL    HW261705   3.757   0.708   3.160  1.6527  0.4953  0.8917
19115SOL     OW61706   6.105   1.990   7.663  0.0325  0.4438  0.5599
19115SOL    HW161707   6.189   1.945   7.656  0.3755  1.1953 -0.3446
19115SOL    HW261708   6.041   1.920   7.674  0.2666 -0.5224 -3.0342
19116SOL     OW61709   0.523   0.734   9.574 -0.0297 -0.4460 -0.4330
19116SOL    HW161710   0.442   0.689   9.549  1.0085 -1.8637 -1.3976
19116SOL    HW261711   0.543   0.700   9.661 -1.1048  0.8612  0.3568
19117SOL     OW61712   6.778   3.743   6.910  0.1462  0.2746  0.1969
19117SOL    HW161713   6.761   3.834   6.933  3.0653  1.1044 -0.4854
19117SOL    HW261714   6.719   3.725   6.837 -0.3079  1.7233  0.1792
19118SOL     OW61715   7.210  10.930   2.936  0.1082 -0.0713  0.2607
19118SOL    HW161716   7.144  10.862   2.948  1.2899 -1.1254  1.0846
19118SOL    HW261717   7.161  11.012   2.932 -1.1475 -0.5479  3.3013
19119SOL     OW61718   7.056   8.603   0.828  0.2133 -0.3327 -0.2741
19119SOL    HW161719   7.004   8.546   0.770  0.7847 -1.5501  0.3584
19119SOL    HW261720   7.014   8.688   0.823 -1.8695 -1.2715  0.2386
19120SOL     OW61721   1.976   3.581   5.023  0.0433  0.0893 -0.0996
19120SOL    HW161722   2.058   3.630   5.033  0.2684 -0.4848  1.0901
19120SOL    HW261723   2.000   3.491   5.046 -1.1634  0.1248  1.4434
19121SOL     OW61724  10.690   2.793   8.377  0.3251  0.4518  0.0658
19121SOL    HW161725  10.697   2.729   8.306  2.0160  1.4415 -0.7269
19121SOL    HW261726  10.611   2.843   8.356 -0.4258 -0.6704  0.1256
19122SOL     OW61727  10.378   3.326   1.463  0.2589 -0.5961 -0.5853
19122SOL    HW161728  10.301   3.383   1.455  2.5354  2.7208 -0.7784
19122SOL    HW261729  10.418   3.351   1.546  2.3420 -0.5471 -1.5470
19123SOL     OW61730   7.452   5.120   9.341  0.0153  0.4552 -0.1233
19123SOL    HW161731   7.457   5.080   9.428  0.9656 -1.0788 -0.8308
19123SOL    HW261732   7.370   5.169   9.341  0.2197  0.8600  1.7809
19124SOL     OW61733   4.690   4.768   9.418 -0.1645 -0.7673 -0.2346
19124SOL    HW161734   4.761   4.742   9.359 -2.3615 -0.3796 -3.3301
19124SOL    HW261735   4.720   4.850   9.457  2.2514 -2.1053  0.9636
19125SOL     OW61736  11.060   4.938   0.449 -0.0470  0.6253  0.4151
19125SOL    HW161737  11.094   4.858   0.488  1.1402  0.5300 -0.7384
19125SOL    HW261738  11.107   5.009   0.494 -0.5355  0.6439  0.9017
19126SOL     OW61739   2.167  10.236  10.339  0.0575  0.1771 -0.1955
19126SOL    HW161740   2.213  10.278  10.267 -0.4497 -0.3520 -0.8425
19126SOL    HW261741   2.084  10.207  10.301 -0.0306 -0.5037  0.4898
19127SOL     OW61742   5.124   0.672   5.014 -0.1526  0.3359  0.6349
19127SOL    HW161743   5.155   0.736   5.078  0.3250  1.2458 -0.4740
19127SOL    HW261744   5.123   0.719   4.931 -1.0612 -0.7292  0.0128
19128SOL     OW61745   2.794   3.351   3.747 -0.4925 -0.5950 -0.1020
19128SOL    HW161746   2.826   3.436   3.778 -0.2090 -0.9476  0.6052
19128SOL    HW261747   2.725   3.372   3.685  0.6289  0.1754 -1.1223
19129SOL     OW61748   4.978   1.304   1.600  0.6415  0.0751  0.7714
19129SOL    HW161749   5.069   1.287   1.626  1.1237 -2.2419 -1.9457
19129SOL    HW261750   4.926   1.267   1.672  1.8419 -0.3188  1.4804
19130SOL     OW61751   9.685   9.965   1.142 -0.5039 -0.3065 -0.0138
19130SOL    HW161752   9.589   9.961   1.145 -0.5986  0.4434 -1.2679
19130SOL    HW261753   9.707   9.946   1.051  0.5996 -1.0722  0.3837
19131SOL     OW61754   9.883   6.672   9.676 -0.2343  0.0039  0.0953
19131SOL    HW161755   9.828   6.641   9.748  0.2458  1.0547  0.9404
19131SOL    HW261756   9.962   6.706   9.719 -0.2651  1.3525 -0.8563
19132SOL     OW61757   6.344   8.458   4.307 -0.9549  0.4620 -0.2644
19132SOL    HW161758   6.321   8.494   4.222  0.6453  1.1636 -0.4455
19132SOL    HW261759   6.436   8.483   4.319 -0.1651 -2.3622  0.2341
19133SOL     OW61760  10.601   3.256   3.188 -0.4490  0.1347  0.4499
19133SOL    HW161761  10.666   3.278   3.121  0.1663  2.6648  1.7540
19133SOL    HW261762  10.521   3.239   3.139 -0.2854  2.8742 -0.9883
19134SOL     OW61763   0.675   9.825   1.431 -0.9346  0.6459  0.7329
19134SOL    HW161764   0.654   9.770   1.507  0.8801 -1.2978 -0.0432
19134SOL    HW261765   0.593   9.830   1.382 -1.8608  1.0374  2.2633
19135SOL     OW61766  10.373   9.931   8.864 -0.0656  0.7931 -0.0161
19135SOL    HW161767  10.451   9.979   8.837 -1.2093  2.0748 -1.2200
19135SOL    HW261768  10.389   9.908   8.955  1.4644  1.5266 -0.0698
19136SOL     OW61769   9.011   0.336   2.769  0.1263  0.3543 -0.4728
19136SOL    HW161770   8.964   0.419   2.772  0.3026  0.4425 -0.0177
19136SOL    HW261771   8.987   0.291   2.850  1.6063  0.8540  0.2963
19137SOL     OW61772   5.840   4.168   7.579 -0.3536 -0.3213  0.4855
19137SOL    HW161773   5.811   4.165   7.487 -0.8169  0.2465  0.6016
19137SOL    HW261774   5.912   4.105   7.584  0.8754  0.9127 -0.7009
19138SOL     OW61775   1.536   5.827   6.963  0.0368  0.0822  0.4978
19138SOL    HW161776   1.508   5.867   7.045  1.4386  0.6130  0.7524
19138SOL    HW261777   1.598   5.890   6.926  1.4368 -1.3312  0.3452
19139SOL     OW61778   1.395   2.846   6.670  0.3068  0.0311 -0.2443
19139SOL    HW161779   1.468   2.860   6.610  1.5602 -0.4455  1.0759
19139SOL    HW261780   1.366   2.757   6.652 -0.3911  0.4515 -1.2197
19140SOL     OW61781   9.404  10.093   2.906  0.2666  0.0664 -0.0516
19140SOL    HW161782   9.425   9.999   2.902 -0.6615 -0.2448  1.6163
19140SOL    HW261783   9.464  10.128   2.972  0.3599  0.5850 -0.4074
19141SOL     OW61784   2.526  10.301   6.395  0.2525 -0.2196 -0.1044
19141SOL    HW161785   2.438  10.340   6.401  0.1095 -0.5133 -0.2581
19141SOL    HW261786   2.524  10.228   6.457  0.7540  0.4377  0.7142
19142SOL     OW61787   1.238   4.361   6.387 -0.4687  0.3371  0.1865
19142SOL    HW161788   1.205   4.352   6.476  1.2725  0.3080  0.8652
19142SOL    HW261789   1.329   4.331   6.391 -0.7227 -0.9560 -1.8915
19143SOL     OW61790   2.639   1.257   8.797  0.5154 -0.5612 -0.0043
19143SOL    HW161791   2.689   1.303   8.729 -0.2546  1.6629  0.8461
19143SOL    HW261792   2.703   1.200   8.839  1.6198 -0.0111 -0.8720
19144SOL     OW61793   1.569   4.535   5.704 -0.4074  0.1163 -0.1200
19144SOL    HW161794   1.556   4.561   5.795 -0.7650  0.3836 -0.2442
19144SOL    HW261795   1.664   4.523   5.695 -0.2550  1.1220  0.0097
19145SOL     OW61796   6.925   7.975  10.224 -0.0302 -0.2625  0.1925
19145SOL    HW161797   6.915   8.051  10.281 -1.1047 -0.0501 -0.2654
19145SOL    HW261798   6.839   7.962  10.185  0.9915  0.5891 -2.5983
19146SOL     OW61799   2.842   9.552  10.869 -0.0860  0.1201  0.1109
19146SOL    HW161800   2.817   9.460  10.866 -1.2561  0.4133  0.4104
19146SOL    HW261801   2.909   9.556  10.938  0.4523 -0.6040 -0.3610
19147SOL     OW61802   1.713   2.627  10.407  0.3666 -0.4541 -0.2692
19147SOL    HW161803   1.712   2.720  10.429 -0.4544 -0.6224  0.4784
19147SOL    HW261804   1.779   2.619  10.338 -0.2334  0.8279 -1.0265
19148SOL     OW61805   6.017   0.505   7.602 -0.7785  0.1295 -0.3875
19148SOL    HW161806   6.059   0.461   7.676 -0.4016 -1.4761 -1.5076
19148SOL    HW261807   6.015   0.597   7.627 -0.1887 -0.3095  1.3923
19149SOL     OW61808   8.439   7.322   8.003  0.1722  0.3300 -0.0422
19149SOL    HW161809   8.432   7.268   8.082 -1.9656 -0.0914 -0.4603
19149SOL    HW261810   8.454   7.260   7.933 -0.6476  0.4274 -0.3112
19150SOL     OW61811   3.825   5.540   0.982  0.2242  0.3215  0.2328
19150SOL    HW161812   3.869   5.484   0.917 -0.7802  1.0623 -1.1462
19150SOL    HW261813   3.876   5.621   0.980 -0.4022  0.7117 -0.4107
19151SOL     OW61814   7.161   2.339   9.494  0.0050 -0.2339 -0.1513
19151SOL    HW161815   7.085   2.342   9.437  0.1708 -0.1654 -0.3703
19151SOL    HW261816   7.236   2.337   9.434  0.2086  0.5599  0.0685
19152SOL     OW61817   4.312   0.757   0.672  0.0938 -0.2263 -0.3826
19152SOL    HW161818   4.233   0.703   0.665  0.3626 -0.5077 -1.3260
19152SOL    HW261819   4.384   0.696   0.661  0.3884  0.4319 -2.4207
19153SOL     OW61820  10.084   5.462   0.417  0.0150  0.1457  0.2203
19153SOL    HW161821  10.021   5.429   0.352 -0.0444  0.1973  0.2524
19153SOL    HW261822  10.074   5.557   0.415  0.1030  0.1552  0.2140
19154SOL     OW61823   9.315   9.918   9.732  0.8682  0.1710  0.7652
19154SOL    HW161824   9.359   9.947   9.812  0.2239 -1.0325  1.5901
19154SOL    HW261825   9.384   9.878   9.679  1.7682  2.9665 -0.3704
19155SOL     OW61826   9.938   4.451  10.879  0.0208  0.5609 -0.7825
19155SOL    HW161827   9.933   4.505  10.958 -2.3663 -1.9440  0.9912
19155SOL    HW261828   9.891   4.501  10.813  1.3527  2.3555 -0.4587
19156SOL     OW61829   4.287   8.578   6.983 -0.1141 -0.7306  0.7283
19156SOL    HW161830   4.208   8.613   7.025  0.8521  0.2288  1.8122
19156SOL    HW261831   4.338   8.540   7.054  0.9852 -0.2035  0.2530
19157SOL     OW61832   9.504   0.916   6.424 -0.1065  0.0750 -0.4129
19157SOL    HW161833   9.529   0.937   6.334 -0.7050 -0.6709 -0.7675
19157SOL    HW261834   9.540   0.987   6.476  0.6690  0.2710 -1.1849
19158SOL     OW61835   2.641   2.841   7.612 -0.3149  0.2905  0.4664
19158SOL    HW161836   2.586   2.857   7.689 -2.2145 -0.2004 -0.7159
19158SOL    HW261837   2.583   2.796   7.551  1.2693  0.2901 -1.1006
19159SOL     OW61838   4.475   4.183   8.887  0.3081  0.2808 -0.2018
19159SOL    HW161839   4.511   4.271   8.904  0.4859  0.1504  0.1172
19159SOL    HW261840   4.477   4.175   8.792  0.2125  0.6559 -0.2384
19160SOL     OW61841   6.174   0.749   4.169 -0.8423  0.4353  0.0123
19160SOL    HW161842   6.120   0.684   4.124 -0.3548 -0.4394  0.6536
19160SOL    HW261843   6.123   0.830   4.165 -0.7982  0.4155 -2.1138
19161SOL     OW61844   8.590   2.904   7.985  0.0704  0.0698 -0.2233
19161SOL    HW161845   8.611   2.813   7.963  1.2907  0.4653 -0.7175
19161SOL    HW261846   8.670   2.953   7.967 -0.4952  1.2137  0.2778
19162SOL     OW61847   8.012   4.959   2.831 -0.0207  0.4767  0.6748
19162SOL    HW161848   7.997   5.053   2.840  1.6793  0.7506  1.0653
19162SOL    HW261849   8.094   4.944   2.878  1.2115 -0.7200 -1.6724
19163SOL     OW61850   8.755   3.008   6.942 -0.3952  0.3822  0.4958
19163SOL    HW161851   8.721   2.924   6.910  0.4530  1.3451 -3.5739
19163SOL    HW261852   8.833   2.985   6.991  0.0541 -1.2533 -0.8640
19164SOL     OW61853   5.667   0.904   6.197  0.0948  0.1691  0.1770
19164SOL    HW161854   5.625   0.973   6.145 -0.7301  0.1374  0.7733
19164SOL    HW261855   5.597   0.872   6.254  0.2506 -1.7049 -0.6099
19165SOL     OW61856   9.179   1.187   7.958  0.0484 -0.0721  0.2992
19165SOL    HW161857   9.183   1.146   7.871  0.2872 -0.1282  0.3365
19165SOL    HW261858   9.269   1.212   7.977  0.0338 -0.2830  0.6399
19166SOL     OW61859  10.566   5.987  10.385  0.3274 -0.1862  0.1153
19166SOL    HW161860  10.612   5.951  10.461 -0.1709 -0.2002  0.4133
19166SOL    HW261861  10.615   5.954  10.309 -0.5229 -2.0905  0.3404
19167SOL     OW61862   0.631   7.378  10.221 -0.0534 -0.3386  0.3881
19167SOL    HW161863   0.699   7.438  10.190  0.5982 -0.4064  1.5971
19167SOL    HW261864   0.650   7.295  10.178 -0.6015  0.1507 -0.8328
19168SOL     OW61865  10.576   9.735   2.262 -0.1324 -0.3655  0.5707
19168SOL    HW161866  10.582   9.800   2.192 -0.3734  0.8733  1.6613
19168SOL    HW261867  10.489   9.697   2.252  0.0051 -0.5176 -0.0730
19169SOL     OW61868   8.996   4.125  10.570  0.0619  0.5148  0.3355
19169SOL    HW161869   9.059   4.169  10.626 -0.5065 -0.1385  1.5332
19169SOL    HW261870   9.021   4.150  10.481  1.7153  0.6277  0.7985
19170SOL     OW61871   6.706   2.356  10.342  0.1454 -0.0424 -0.3364
19170SOL    HW161872   6.754   2.287  10.296 -0.4920 -0.1018 -0.9289
19170SOL    HW261873   6.615   2.340  10.320  0.0545  1.6561 -1.4516
19171SOL     OW61874   2.044   3.857   3.905 -0.3487  0.2727 -0.1300
19171SOL    HW161875   2.110   3.833   3.839  0.7107  1.0424  0.6091
19171SOL    HW261876   1.967   3.807   3.881  0.2901 -0.1298 -1.4453
19172SOL     OW61877  10.186   7.387   8.159 -0.2329  0.1379  0.0566
19172SOL    HW161878  10.169   7.339   8.240 -1.3739 -0.3070 -0.4255
19172SOL    HW261879  10.132   7.343   8.093  0.3547  0.7548 -0.8563
19173SOL     OW61880  10.667   9.968   0.490 -0.1385  0.3337 -0.0374
19173SOL    HW161881  10.718   9.994   0.413  0.1362  3.6274  1.1126
19173SOL    HW261882  10.734   9.949   0.557 -0.3576  1.6438  0.5778
19174SOL     OW61883   0.613   8.070   0.328  0.3405 -0.1592  0.4284
19174SOL    HW161884   0.575   8.157   0.333  0.0207 -0.3554  1.5658
19174SOL    HW261885   0.676   8.076   0.256 -1.4659  0.3055 -1.2325
19175SOL     OW61886   6.195   6.360   2.684  0.3635  0.6400 -0.1926
19175SOL    HW161887   6.107   6.325   2.677  0.4958  0.0095  1.0799
19175SOL    HW261888   6.252   6.290   2.652  0.6301 -0.4186  2.3725
19176SOL     OW61889   1.789   9.313   4.416  0.1781 -0.2254 -0.2983
19176SOL    HW161890   1.864   9.342   4.469 -0.9200  0.4103  0.9517
19176SOL    HW261891   1.759   9.392   4.372  1.1408 -0.7656 -2.0192
19177SOL     OW61892   3.939   6.363   2.070 -0.2391 -0.3869 -0.0743
19177SOL    HW161893   3.875   6.411   2.122  1.5138  0.2322  1.6690
19177SOL    HW261894   3.911   6.271   2.076 -0.8258 -0.1567  0.8594
19178SOL     OW61895   6.859   8.663   2.639 -0.1795 -0.9975 -0.0936
19178SOL    HW161896   6.914   8.630   2.569  1.2149  1.8180 -0.4793
19178SOL    HW261897   6.917   8.716   2.693 -2.1235  0.6544  0.5229
19179SOL     OW61898   8.855   8.333   5.349 -0.4323  0.0663 -0.0429
19179SOL    HW161899   8.935   8.284   5.332  0.5738  1.4139  0.5407
19179SOL    HW261900   8.884   8.407   5.403 -1.8280  1.3958 -1.0254
19180SOL     OW61901   0.934   9.839   8.416 -0.3168  0.3218  0.3717
19180SOL    HW161902   0.970   9.889   8.342 -0.3461  0.4161  0.4214
19180SOL    HW261903   0.889   9.905   8.469 -0.5322  0.2097  0.3271
19181SOL     OW61904   2.010   9.064   0.303  0.0285  0.8229 -0.1463
19181SOL    HW161905   1.924   9.095   0.276 -0.5840  0.8165  1.6656
19181SOL    HW261906   2.017   9.089   0.395  1.1281 -0.9394  0.3014
19182SOL     OW61907  10.484   9.850   9.132 -0.6384 -0.1406 -0.2288
19182SOL    HW161908  10.498   9.882   9.221  0.5953  1.5614 -1.0037
19182SOL    HW261909  10.571   9.846   9.093 -1.0241 -2.0420 -1.0091
19183SOL     OW61910   2.503   1.139   8.547  0.3245  0.2404 -0.1235
19183SOL    HW161911   2.475   1.230   8.533 -1.3550 -0.1044  0.7462
19183SOL    HW261912   2.560   1.143   8.624 -1.1620  0.3471  0.9988
19184SOL     OW61913   5.193   6.833   7.544 -0.1552 -0.1963  0.5529
19184SOL    HW161914   5.191   6.929   7.550  0.7782  0.1008 -2.1737
19184SOL    HW261915   5.120   6.812   7.485  1.6348 -0.7678 -1.5909
19185SOL     OW61916  10.480   7.245   4.510  0.4023  0.2020 -0.4019
19185SOL    HW161917  10.539   7.316   4.484  0.4998 -0.3410 -1.7488
19185SOL    HW261918  10.472   7.191   4.431 -1.7288  0.1440 -0.1880
19186SOL     OW61919  10.515   6.186  11.057  0.0292 -0.3784 -0.5248
19186SOL    HW161920  10.469   6.123  11.112 -0.6120  1.9676  1.7749
19186SOL    HW261921  10.451   6.255  11.040  1.6581  1.3409 -0.0469
19187SOL     OW61922   4.702   0.720   6.390 -0.0305 -0.3514 -0.2779
19187SOL    HW161923   4.631   0.700   6.329  0.3234 -0.8085 -0.5444
19187SOL    HW261924   4.731   0.634   6.421 -0.3702 -0.1166  0.7287
19188SOL     OW61925   0.219   1.604   2.297  0.6185  0.0322  0.7111
19188SOL    HW161926   0.251   1.692   2.281  1.7825 -0.6756 -1.1211
19188SOL    HW261927   0.298   1.550   2.307  0.0287 -1.3002 -1.2272
19189SOL     OW61928   1.204   2.031   1.859 -0.4190  0.1090  0.0274
19189SOL    HW161929   1.261   2.066   1.790  2.4056 -0.2743  1.9756
19189SOL    HW261930   1.143   1.974   1.812 -0.7673  2.3034 -2.4444
19190SOL     OW61931   5.543   6.156   3.131  0.6709 -0.2625 -0.2283
19190SOL    HW161932   5.452   6.181   3.115  0.7409  1.0633  1.1969
19190SOL    HW261933   5.551   6.068   3.095 -1.7119 -1.1780  1.2638
19191SOL     OW61934   0.847   6.964   9.390 -0.1426 -1.0015  0.0366
19191SOL    HW161935   0.870   7.014   9.469  0.0066  1.1741 -1.2940
19191SOL    HW261936   0.765   7.002   9.361  0.9941 -0.0210 -2.1643
19192SOL     OW61937  10.943   0.768   7.568  0.2360 -0.5563 -0.0292
19192SOL    HW161938  10.997   0.733   7.639 -0.0644 -0.4566  0.2502
19192SOL    HW261939  10.853   0.752   7.597  0.1036  0.0281 -0.1105
19193SOL     OW61940   0.395   2.535   1.916  0.3437  0.2246  0.1714
19193SOL    HW161941   0.347   2.543   1.833  2.0425 -0.6535 -0.9570
19193SOL    HW261942   0.345   2.471   1.967 -0.0090 -0.2442 -0.7422
19194SOL     OW61943   1.117   6.149   8.194  0.4049  0.3311  0.3210
19194SOL    HW161944   1.067   6.070   8.170  1.2437 -0.6571  1.6820
19194SOL    HW261945   1.184   6.117   8.254  0.3226  2.2076  1.4833
19195SOL     OW61946   4.026   2.941   5.279 -0.0659 -0.7001  0.8573
19195SOL    HW161947   4.020   2.889   5.359  0.7738 -1.5631  0.3912
19195SOL    HW261948   3.942   2.929   5.236 -0.0468 -1.3258  0.9802
19196SOL     OW61949   5.414  10.596  10.897  0.2581 -0.6381  0.2307
19196SOL    HW161950   5.391  10.588  10.989  1.6662  0.6724  0.7519
19196SOL    HW261951   5.345  10.651  10.859  1.1211  1.2238  1.2075
19197SOL     OW61952   2.615   4.702   0.288 -0.9781  0.1164  0.3598
19197SOL    HW161953   2.671   4.708   0.211 -0.6994 -2.2855  0.3267
19197SOL    HW261954   2.667   4.739   0.359 -0.5968  0.7869 -0.2504
19198SOL     OW61955   2.221   9.157   7.040  0.1116 -0.0691 -0.1522
19198SOL    HW161956   2.294   9.218   7.056  0.8397 -0.9525 -0.0504
19198SOL    HW261957   2.227   9.137   6.946 -1.3142  1.4824 -0.6362
19199SOL     OW61958   4.466   5.346   9.869  0.2720  0.0957  0.6622
19199SOL    HW161959   4.453   5.252   9.853  0.0789  0.0331  1.1556
19199SOL    HW261960   4.547   5.350   9.920  0.9554  0.3003 -0.4224
19200SOL     OW61961   4.648   9.050   5.059 -0.3071  0.8290 -0.2432
19200SOL    HW161962   4.735   9.079   5.086 -0.5790  0.9385  0.5367
19200SOL    HW261963   4.637   9.086   4.971  0.0773  1.5904  0.0108
19201SOL     OW61964   0.270   9.548   6.144 -0.3301 -0.2894  0.1008
19201SOL    HW161965   0.355   9.578   6.110  0.4961 -2.1413  0.3748
19201SOL    HW261966   0.249   9.609   6.214 -0.1462  1.2826 -1.1549
19202SOL     OW61967   6.217   0.552   3.330 -0.4798 -0.0850  0.6603
19202SOL    HW161968   6.123   0.548   3.347 -0.9241  1.8427 -0.9754
19202SOL    HW261969   6.249   0.622   3.386 -0.4605  0.7662 -0.3832
19203SOL     OW61970   8.045   3.114   8.504 -0.7126 -0.6382 -0.2109
19203SOL    HW161971   8.045   3.148   8.415 -0.9047 -0.3305 -0.0977
19203SOL    HW261972   7.981   3.168   8.550  0.5687  0.3331  0.5244
19204SOL     OW61973   7.309   8.063   9.495 -0.6354 -0.1709 -0.1451
19204SOL    HW161974   7.398   8.034   9.478  0.3226  1.5501  1.5266
19204SOL    HW261975   7.268   8.069   9.409  1.2559  0.1766 -1.0590
19205SOL     OW61976   7.145   5.896   1.192  0.0704  0.2101  0.2666
19205SOL    HW161977   7.230   5.921   1.229  0.0497 -0.6485  0.9367
19205SOL    HW261978   7.082   5.954   1.235  0.0515 -0.7541  1.5825
19206SOL     OW61979   9.561   8.961  10.533  0.2923 -0.1641  0.1919
19206SOL    HW161980   9.655   8.978  10.536  0.6621 -1.7128 -0.9985
19206SOL    HW261981   9.555   8.870  10.504 -1.6022  0.4079 -1.4130
19207SOL     OW61982   0.518   8.803   4.639 -0.0059 -1.2904  0.1510
19207SOL    HW161983   0.432   8.842   4.644  0.7916  0.6427 -0.4377
19207SOL    HW261984   0.555   8.815   4.726  1.5173  2.5600 -0.8464
19208SOL     OW61985   0.350  10.173   0.703 -0.1811  0.0534  0.7093
19208SOL    HW161986   0.313  10.257   0.678  0.2931  0.1808  0.4409
19208SOL    HW261987   0.362  10.126   0.621  0.2745  0.0218  0.7897
19209SOL     OW61988   2.322   3.836   9.024  0.9328  0.4478 -0.3320
19209SOL    HW161989   2.362   3.817   8.938  0.7547  0.4797 -0.4224
19209SOL    HW261990   2.252   3.898   9.004  2.0511  1.8972  0.0466
19210SOL     OW61991   6.361   3.951   0.596 -0.6129  0.0964  0.0242
19210SOL    HW161992   6.313   3.972   0.676 -0.6521  1.3150 -0.2962
19210SOL    HW261993   6.445   3.996   0.606 -0.1850 -0.6439 -0.1524
19211SOL     OW61994  10.691  10.344   2.249 -0.3330 -0.6740 -0.4324
19211SOL    HW161995  10.689  10.435   2.219  0.0269  0.0547  1.6485
19211SOL    HW261996  10.619  10.302   2.200 -1.6375  1.1250 -0.1800
19212SOL     OW61997   2.943   8.549   0.477  0.3883  0.9576  0.1575
19212SOL    HW161998   2.887   8.618   0.441  1.7949  1.8853 -0.3105
19212SOL    HW261999   3.028   8.563   0.437  1.0835 -0.1812  1.1542
19213SOL     OW62000   3.670   5.984   8.261  0.0656  0.2028 -0.5560
19213SOL    HW162001   3.605   5.999   8.329 -1.3181 -0.3980 -1.6955
19213SOL    HW262002   3.673   5.889   8.251  0.9327  0.2400 -0.7008
19214SOL     OW62003   7.188  10.226   3.664  0.4926  0.1212 -0.1213
19214SOL    HW162004   7.142  10.265   3.589  0.7182  0.1420 -0.2507
19214SOL    HW262005   7.207  10.299   3.722 -2.0441 -0.1950  1.2726
19215SOL     OW62006   7.818   3.442  10.568 -0.2707 -0.2585 -0.1450
19215SOL    HW162007   7.898   3.469  10.524  1.8185 -0.4839  3.1520
19215SOL    HW262008   7.808   3.350  10.545 -0.1917  0.0365 -1.4078
19216SOL     OW62009   9.249   3.763   9.504 -0.2267 -0.1189  0.6553
19216SOL    HW162010   9.248   3.766   9.409  0.5649  1.3532  0.6622
19216SOL    HW262011   9.266   3.672   9.525  0.8452 -0.2463 -0.6401
19217SOL     OW62012   9.670   9.841   4.822 -0.4745 -0.2793  0.1037
19217SOL    HW162013   9.639   9.870   4.908 -0.1049 -1.1598  0.5446
19217SOL    HW262014   9.743   9.899   4.802 -0.5037 -0.1258  0.4274
19218SOL     OW62015   4.027   1.934   5.652 -0.2056  0.7918  0.5398
19218SOL    HW162016   4.056   2.012   5.604  0.3130  0.9849  1.1415
19218SOL    HW262017   4.030   1.863   5.587 -1.4808  1.4088 -0.2294
19219SOL     OW62018   0.219   6.987   1.728  0.8424 -0.2917 -0.8152
19219SOL    HW162019   0.208   6.965   1.636  1.2057  0.5607 -1.0733
19219SOL    HW262020   0.131   6.987   1.764  0.6895 -0.5333 -1.1866
19220SOL     OW62021   0.038   4.115  10.333  0.9175 -0.3255 -0.2004
19220SOL    HW162022   0.043   4.034  10.385  0.5508  0.4043  0.9919
19220SOL    HW262023  -0.014   4.090  10.256 -2.1934 -0.4630  1.7493
19221SOL     OW62024   7.990   8.642   6.048 -0.1411  0.3838 -0.1946
19221SOL    HW162025   8.005   8.551   6.074  1.1887  0.6650  0.1066
19221SOL    HW262026   7.972   8.688   6.130  0.3335  0.5869 -0.1975
19222SOL     OW62027   5.942   5.811   8.705 -0.2240 -0.0047  0.1175
19222SOL    HW162028   5.933   5.726   8.664 -0.2579  0.7386 -1.4800
19222SOL    HW262029   5.852   5.836   8.728 -0.1925 -0.4671  0.7850
19223SOL     OW62030   9.662   6.616   3.368  0.3285  0.2624  0.2376
19223SOL    HW162031   9.602   6.578   3.432  0.0484  1.6690  0.8492
19223SOL    HW262032   9.623   6.595   3.283 -1.5988  1.9865  0.6398
19224SOL     OW62033   6.063  11.030   4.455 -0.4334 -0.3243  0.6019
19224SOL    HW162034   6.143  10.978   4.451  0.2711  0.8258 -0.8750
19224SOL    HW262035   6.007  10.993   4.386 -1.1936 -1.0957  1.5980
19225SOL     OW62036   0.434   0.301   2.880 -0.5991  0.6905  0.0213
19225SOL    HW162037   0.500   0.370   2.876 -0.9103  0.9823 -0.2405
19225SOL    HW262038   0.429   0.267   2.790  1.7538 -1.8215  0.7135
19226SOL     OW62039   8.900   4.507  10.487 -0.3017  0.3044 -0.3723
19226SOL    HW162040   8.993   4.515  10.507 -0.5937 -1.1836  2.0277
19226SOL    HW262041   8.858   4.578  10.535 -0.3806  1.6094 -2.2690
19227SOL     OW62042   2.164   3.755  10.157  0.1527 -0.2392 -0.0792
19227SOL    HW162043   2.174   3.661  10.139  0.1210 -0.3484  0.4529
19227SOL    HW262044   2.204   3.798  10.082  0.1207 -0.6806 -0.3565
19228SOL     OW62045   1.254   3.760   6.616  0.1416 -0.4293 -0.4553
19228SOL    HW162046   1.232   3.823   6.548  1.0475 -0.9820 -1.3006
19228SOL    HW262047   1.325   3.801   6.665 -0.0298 -0.3232 -0.2976
19229SOL     OW62048   9.359   2.367   0.649 -0.3177 -0.5479 -0.0855
19229SOL    HW162049   9.412   2.446   0.662 -1.3079  0.2697 -0.9009
19229SOL    HW262050   9.403   2.301   0.702 -1.4404  1.3727  3.6423
19230SOL     OW62051   8.811  11.026   1.215  0.1323  0.5074  0.1334
19230SOL    HW162052   8.765  10.945   1.238 -0.3812  0.6600 -0.3309
19230SOL    HW262053   8.778  11.048   1.128  0.5801  0.9953  0.0840
19231SOL     OW62054   7.135   1.914   9.774 -0.5943  0.6251  0.1940
19231SOL    HW162055   7.085   1.911   9.693  1.2710  0.1782 -1.0034
19231SOL    HW262056   7.185   1.995   9.768  1.2058 -0.4515 -0.1992
19232SOL     OW62057  10.342   6.006   8.707  0.3531 -0.3732  0.2099
19232SOL    HW162058  10.319   5.916   8.730 -0.5353  0.1560  1.5404
19232SOL    HW262059  10.387   5.999   8.623 -0.2257 -1.9888  0.0051
19233SOL     OW62060   7.451   3.790  11.087 -0.0159 -0.0274  0.0302
19233SOL    HW162061   7.356   3.796  11.096 -0.0217 -1.2317  1.0823
19233SOL    HW262062   7.467   3.699  11.064  0.9478 -0.1222  0.9959
19234SOL     OW62063   5.141   2.473  10.596  0.6283  0.1354  0.1088
19234SOL    HW162064   5.094   2.493  10.677  1.9373 -0.1826  0.9818
19234SOL    HW262065   5.115   2.384  10.574  0.1758  0.2666  0.1158
19235SOL     OW62066   3.397   5.843   2.757  0.0935 -0.6185  0.5695
19235SOL    HW162067   3.311   5.826   2.719  0.4541 -2.5776  0.5217
19235SOL    HW262068   3.381   5.909   2.824 -0.8987  1.3629 -1.4883
19236SOL     OW62069   6.584   5.369   8.401  1.2227  0.6227  0.4296
19236SOL    HW162070   6.551   5.416   8.477 -0.0657 -1.5047  1.2692
19236SOL    HW262071   6.515   5.306   8.380  2.8195 -0.8555 -0.6535
19237SOL     OW62072   3.138   8.358   0.229 -0.3403  0.5061 -0.0565
19237SOL    HW162073   3.105   8.281   0.184 -0.5249  0.0471  0.8384
19237SOL    HW262074   3.227   8.370   0.197 -0.0437 -0.5318  0.3576
19238SOL     OW62075   5.546   9.550   9.859  0.2565 -0.3502 -0.1639
19238SOL    HW162076   5.556   9.558   9.954  0.7823  2.5802 -0.3644
19238SOL    HW262077   5.452   9.558   9.843  0.3592  1.7629  0.0199
19239SOL     OW62078   7.233  10.536   7.351  0.0355 -0.4131  0.0356
19239SOL    HW162079   7.233  10.479   7.274 -0.4767 -0.9352  0.4217
19239SOL    HW262080   7.236  10.625   7.314  1.4534 -0.6889 -0.5468
19240SOL     OW62081   6.600   9.446   2.683 -0.1029 -0.8165 -0.0738
19240SOL    HW162082   6.597   9.380   2.753 -1.2854 -0.3156  0.3757
19240SOL    HW262083   6.677   9.499   2.704 -1.0850  0.0778  1.6062
19241SOL     OW62084   7.150   4.509   5.127 -0.0134 -0.0909 -0.1010
19241SOL    HW162085   7.086   4.484   5.194 -0.0903  0.5238  0.0614
19241SOL    HW262086   7.207   4.433   5.119 -1.1209 -0.8987 -0.6919
19242SOL     OW62087   5.287   1.658   4.647  0.5092  0.5258  0.0279
19242SOL    HW162088   5.243   1.573   4.641  0.2176  0.7243 -0.8111
19242SOL    HW262089   5.218   1.723   4.633  0.8525  0.8805 -0.0604
19243SOL     OW62090   2.838   6.407   9.401 -0.2482 -0.2422 -0.1805
19243SOL    HW162091   2.917   6.404   9.456 -0.3112  0.1741 -0.0682
19243SOL    HW262092   2.871   6.406   9.312 -0.1546 -1.3471 -0.1480
19244SOL     OW62093   5.765   5.552   4.441  0.2188  0.1119  0.8542
19244SOL    HW162094   5.710   5.562   4.519  0.4907  0.6387  0.9840
19244SOL    HW262095   5.718   5.489   4.386 -0.0022 -0.2197  1.4193
19245SOL     OW62096   2.079   7.931   8.577 -0.7833  0.0801  0.3499
19245SOL    HW162097   2.017   7.918   8.649 -0.9148 -0.0765  0.2054
19245SOL    HW262098   2.104   7.843   8.549 -0.9189  0.1401  0.0390
19246SOL     OW62099   0.448   1.566   4.077 -0.0160 -0.3396 -0.3332
19246SOL    HW162100   0.496   1.617   4.142  0.8749 -1.1741 -0.3280
19246SOL    HW262101   0.421   1.631   4.012  0.2365  0.2932  0.1802
19247SOL     OW62102   7.278   2.545   4.302  0.1630  0.0388 -0.7575
19247SOL    HW162103   7.352   2.535   4.363  0.2234 -1.2342 -1.0023
19247SOL    HW262104   7.255   2.637   4.307  2.5873  0.7760 -1.6061
19248SOL     OW62105   7.973   0.193   0.313 -0.0516  0.1188 -0.3629
19248SOL    HW162106   7.968   0.242   0.230 -1.2551 -1.1730 -1.0895
19248SOL    HW262107   8.065   0.169   0.321  0.0176 -0.0355 -1.5080
19249SOL     OW62108   2.514   6.330   1.674 -0.6731 -0.0105  0.0496
19249SOL    HW162109   2.495   6.423   1.662 -0.3834 -0.1315 -1.5213
19249SOL    HW262110   2.609   6.324   1.673 -0.6927 -0.3398 -0.0452
19250SOL     OW62111   0.042   4.277   2.628 -0.3491  0.3746 -0.0240
19250SOL    HW162112   0.054   4.285   2.723  1.4286  1.0055 -0.2604
19250SOL    HW262113   0.083   4.357   2.592  1.6870 -1.2005 -1.4560
19251SOL     OW62114   8.464   2.908   1.699  0.1127  0.0338 -0.0677
19251SOL    HW162115   8.431   2.949   1.779  0.6624  0.5823 -0.1110
19251SOL    HW262116   8.423   2.822   1.697  1.0773 -0.4944  1.4665
19252SOL     OW62117  10.579   6.552   2.705  0.4874 -0.5977  0.4247
19252SOL    HW162118  10.548   6.587   2.622 -1.1299  0.2017  1.3181
19252SOL    HW262119  10.647   6.613   2.733  0.0786 -0.0869  0.3283
19253SOL     OW62120   5.360   8.695   6.695  0.3909 -0.6216 -0.1613
19253SOL    HW162121   5.409   8.644   6.760  0.2415 -1.0895 -0.4126
19253SOL    HW262122   5.271   8.699   6.730  0.6877  0.6296  0.5307
19254SOL     OW62123   8.922   0.448  10.190  0.1139  0.0378  0.3548
19254SOL    HW162124   8.939   0.362  10.230  2.5862  0.6773  0.8342
19254SOL    HW262125   8.993   0.503  10.221 -0.2577  1.7308 -1.6200
19255SOL     OW62126   1.601   9.720   9.400  0.3198  0.1111 -0.1588
19255SOL    HW162127   1.586   9.777   9.324 -0.1351  0.5573  0.2664
19255SOL    HW262128   1.524   9.663   9.403  0.3984  0.0080 -0.1076
19256SOL     OW62129   7.015   0.183   9.294  0.9017  0.1757 -0.2563
19256SOL    HW162130   6.964   0.262   9.315 -1.5594 -1.0544 -1.1841
19256SOL    HW262131   6.999   0.169   9.201  0.3385 -1.9853  0.1050
19257SOL     OW62132  10.895   4.449   4.445 -0.4555 -0.2975 -0.2467
19257SOL    HW162133  10.837   4.470   4.372  1.5570  1.7368 -1.4020
19257SOL    HW262134  10.906   4.531   4.492 -0.1197 -1.1143  1.1525
19258SOL     OW62135   5.418   5.503   1.259 -0.1477 -0.1405 -0.2585
19258SOL    HW162136   5.329   5.537   1.270 -0.9854 -2.8307  2.6365
19258SOL    HW262137   5.475   5.579   1.278 -1.8190  1.0417  0.2679
19259SOL     OW62138   2.737   6.865   7.519 -0.3799  0.4995 -0.2749
19259SOL    HW162139   2.820   6.908   7.499  0.3185 -1.0676 -0.8977
19259SOL    HW262140   2.670   6.932   7.503  0.8027  2.3412  1.8406
19260SOL     OW62141   9.825   1.971   5.943 -0.5085  0.2677  0.0181
19260SOL    HW162142   9.854   2.059   5.968 -0.7035  0.5759 -0.8151
19260SOL    HW262143   9.903   1.929   5.908  0.0473 -0.5593  2.0914
19261SOL     OW62144   1.053   1.755   5.467 -0.1835 -0.0492  0.0202
19261SOL    HW162145   1.033   1.723   5.555  3.4469  0.3867  1.1518
19261SOL    HW262146   1.089   1.842   5.480  0.8297 -0.1301 -1.8508
19262SOL     OW62147   3.976   6.287   4.100 -0.4403 -0.2660 -0.6694
19262SOL    HW162148   3.990   6.373   4.139  0.1520 -1.1914  1.2609
19262SOL    HW262149   4.062   6.261   4.068 -0.3312 -0.7192 -0.0081
19263SOL     OW62150   7.634   6.999   2.966 -0.5366  0.1168  0.2809
19263SOL    HW162151   7.559   7.018   3.022  0.8620 -0.4204  2.4541
19263SOL    HW262152   7.627   6.906   2.948  0.9862 -0.5800  2.8075
19264SOL     OW62153   0.892   3.621   5.231  0.1657  0.0547 -1.2484
19264SOL    HW162154   0.952   3.678   5.280  0.0826 -0.1600 -0.8962
19264SOL    HW262155   0.879   3.666   5.148 -0.7411  1.0868 -0.5688
19265SOL     OW62156   3.484   9.018   6.778  0.3899 -0.1958 -0.4983
19265SOL    HW162157   3.541   8.964   6.832  0.5835 -0.3803 -0.8810
19265SOL    HW262158   3.474   8.968   6.697 -0.6342 -0.3560 -0.2880
19266SOL     OW62159   4.737  10.744   3.974  0.4755  0.2713 -0.1194
19266SOL    HW162160   4.771  10.731   4.063  0.6758  0.8019 -0.1153
19266SOL    HW262161   4.672  10.814   3.983  0.2960  0.1362 -0.3458
19267SOL     OW62162   3.980   6.380   0.783 -0.2371 -0.2479 -0.0255
19267SOL    HW162163   3.926   6.365   0.706 -1.0120 -2.7133  0.8928
19267SOL    HW262164   3.917   6.395   0.854  0.3897  0.1739  0.4585
19268SOL     OW62165  10.583   7.908   8.284 -0.2374 -0.0966  0.0135
19268SOL    HW162166  10.518   7.974   8.308 -0.0805  0.2225 -0.4099
19268SOL    HW262167  10.582   7.845   8.356 -2.4225 -1.1734 -0.8656
19269SOL     OW62168   9.505   4.721   5.198  0.4455  0.2109  0.7048
19269SOL    HW162169   9.478   4.811   5.215  2.1090  0.6629  1.1248
19269SOL    HW262170   9.539   4.723   5.108 -0.9882 -0.3924  0.1127
19270SOL     OW62171   7.516   4.158   1.213  0.2772  0.0619 -0.7494
19270SOL    HW162172   7.531   4.145   1.120 -0.4138 -2.3383 -0.5827
19270SOL    HW262173   7.533   4.072   1.252  1.8592  1.3166  1.5324
19271SOL     OW62174   4.560   6.408   6.751 -0.1306 -0.6127  0.0988
19271SOL    HW162175   4.467   6.423   6.736 -0.0440  1.5698  1.4197
19271SOL    HW262176   4.603   6.446   6.675 -0.2784 -1.4694 -0.4289
19272SOL     OW62177  10.025   9.790   8.349 -0.3217 -0.0031  0.0632
19272SOL    HW162178  10.005   9.780   8.256 -1.2004 -1.7636  0.3909
19272SOL    HW262179   9.968   9.726   8.393  0.3390  0.5223  1.7766
19273SOL     OW62180   3.614   6.643  10.694  0.3617  0.3763  0.1126
19273SOL    HW162181   3.543   6.654  10.631 -1.5762  2.2425  2.4622
19273SOL    HW262182   3.572   6.650  10.779  3.3542  1.4517  1.6294
19274SOL     OW62183  10.140   1.357   7.107  0.1241 -0.4677  0.1076
19274SOL    HW162184  10.045   1.355   7.120 -0.0771  1.5151 -0.6954
19274SOL    HW262185  10.176   1.349   7.195 -0.9047  1.9312  0.8196
19275SOL     OW62186  11.056   1.027   2.381 -0.0414 -0.2127 -0.0729
19275SOL    HW162187  11.151   1.026   2.382  0.1340  3.3458 -1.0374
19275SOL    HW262188  11.031   0.992   2.467  2.1940  0.4055  0.9117
19276SOL     OW62189   0.367   9.967   5.886 -0.0327 -0.0423 -0.0236
19276SOL    HW162190   0.456   9.955   5.853 -0.4218  1.8842 -2.0023
19276SOL    HW262191   0.311   9.930   5.817 -0.8003  0.5684  0.2583
19277SOL     OW62192   6.946   7.940   6.826  0.1995  0.5085 -0.2037
19277SOL    HW162193   6.903   7.972   6.747 -0.4914 -0.6044 -0.3097
19277SOL    HW262194   6.908   7.853   6.839  2.1747 -0.3848 -0.1046
19278SOL     OW62195   2.760   9.222   9.542  0.1587 -0.2261 -0.0871
19278SOL    HW162196   2.743   9.257   9.454 -0.4649  1.2977  0.6018
19278SOL    HW262197   2.763   9.299   9.598  0.6865 -1.1657  1.2212
19279SOL     OW62198   0.828  10.756   1.281 -0.2188 -0.2191  0.2475
19279SOL    HW162199   0.897  10.708   1.236  0.1435 -0.6553  1.2496
19279SOL    HW262200   0.760  10.768   1.214  0.7638  0.1231 -0.7224
19280SOL     OW62201   6.658   3.998   1.259 -0.1290 -0.1867 -0.0657
19280SOL    HW162202   6.601   3.999   1.336 -0.2323  0.2506 -0.1431
19280SOL    HW262203   6.673   3.906   1.242  2.1758 -0.3412  2.1528
19281SOL     OW62204   5.669  10.307   5.599 -0.1487 -0.5061  0.0798
19281SOL    HW162205   5.737  10.282   5.536 -1.0292 -0.8530 -0.7756
19281SOL    HW262206   5.590  10.266   5.564 -0.8109 -0.0148  0.9911
19282SOL     OW62207  11.045   3.521   7.977 -0.1037  0.5881 -0.3494
19282SOL    HW162208  11.024   3.427   7.976 -0.9543  0.7650  0.0791
19282SOL    HW262209  11.012   3.555   7.894 -1.1511  0.7804  0.1310
19283SOL     OW62210   1.540   9.541   5.540 -0.5581  0.2961 -0.0769
19283SOL    HW162211   1.634   9.520   5.542 -0.3433  1.1911 -0.4247
19283SOL    HW262212   1.503   9.478   5.479 -0.2660 -0.3693  0.4185
19284SOL     OW62213   2.898  10.919   2.077 -0.1831 -0.2394  0.2486
19284SOL    HW162214   2.899  10.997   2.022  1.2093  1.3772  2.4356
19284SOL    HW262215   2.806  10.911   2.104 -0.3954  0.4741 -0.2178
19285SOL     OW62216   5.651   3.209   8.997  0.2522  0.5037  0.0544
19285SOL    HW162217   5.728   3.161   9.029  1.0870  1.0696 -1.0033
19285SOL    HW262218   5.577   3.166   9.039  1.1179 -0.3330  0.7912
19286SOL     OW62219   3.066   4.514   1.639 -0.1590  0.0714  0.7884
19286SOL    HW162220   3.000   4.509   1.708  0.5037  0.6961  1.5025
19286SOL    HW262221   3.068   4.607   1.615  0.6008  0.1001  0.9321
19287SOL     OW62222   0.980   3.089   2.608  0.3124  0.2346 -0.3583
19287SOL    HW162223   1.026   3.135   2.678  1.8359 -2.0594  0.2513
19287SOL    HW262224   0.976   2.998   2.638 -1.1189 -0.3768 -2.2239
19288SOL     OW62225   4.120   2.860   9.743  0.0562 -0.1613  0.0676
19288SOL    HW162226   4.079   2.780   9.713 -0.4551 -0.1211  0.6250
19288SOL    HW262227   4.075   2.880   9.826 -0.7040  1.3581 -0.6600
19289SOL     OW62228   7.915  11.094   7.353  0.0423 -0.0440  0.3794
19289SOL    HW162229   7.941  11.023   7.412 -1.8138 -2.0855 -1.0929
19289SOL    HW262230   7.887  11.049   7.273  0.7936  2.5130 -1.4340
19290SOL     OW62231   9.049   8.496   6.802  0.2881 -0.3272 -0.6884
19290SOL    HW162232   8.965   8.540   6.789  0.4194  0.7771  1.6247
19290SOL    HW262233   9.031   8.428   6.866  1.3792  0.8984  0.9997
19291SOL     OW62234  10.979   5.168   7.432 -0.2591 -0.1924 -0.5360
19291SOL    HW162235  11.049   5.176   7.367  0.0461 -2.2605 -0.5227
19291SOL    HW262236  10.900   5.196   7.385  0.2795  0.3069 -1.1549
19292SOL     OW62237   8.520   0.265   4.769  0.2721 -0.3462  0.0577
19292SOL    HW162238   8.521   0.175   4.736  1.1333 -0.1663 -0.4172
19292SOL    HW262239   8.603   0.302   4.742  1.3722 -0.3689  2.9849
19293SOL     OW62240   5.165   5.153   6.487 -0.0778 -0.4596 -0.6278
19293SOL    HW162241   5.121   5.068   6.477  0.8759 -1.1932  0.9493
19293SOL    HW262242   5.254   5.130   6.516  0.2285  1.0795 -0.2805
19294SOL     OW62243  10.032   2.432   3.856  0.3626 -0.8143 -0.2992
19294SOL    HW162244  10.031   2.337   3.865 -0.9395 -1.0374 -2.2374
19294SOL    HW262245  10.077   2.449   3.773 -1.0443  0.1073 -0.9178
19295SOL     OW62246   0.562   8.473  10.306 -0.5876  0.1728 -0.1127
19295SOL    HW162247   0.562   8.523  10.387 -0.4937 -1.4651  0.9310
19295SOL    HW262248   0.644   8.497  10.262  0.0981 -0.0633  1.0144
19296SOL     OW62249   1.593   9.143   2.028  0.2667 -0.1584  0.1036
19296SOL    HW162250   1.633   9.221   1.989 -0.7296  1.6809  2.4486
19296SOL    HW262251   1.659   9.075   2.019  2.8324  1.9712  1.2800
19297SOL     OW62252  11.048   0.576   2.331 -0.3141  0.0871 -0.5744
19297SOL    HW162253  11.052   0.543   2.241  0.0362 -0.6702 -0.2939
19297SOL    HW262254  11.140   0.591   2.355 -0.1626 -2.1683  0.5129
19298SOL     OW62255   1.657  10.294   7.298 -0.2853  0.0222  0.3029
19298SOL    HW162256   1.569  10.328   7.316  0.0348  0.4379  1.1507
19298SOL    HW262257   1.662  10.290   7.202 -1.4665 -0.6674  0.2477
19299SOL     OW62258   5.456   3.134   7.728  0.3108 -0.0274 -0.4584
19299SOL    HW162259   5.496   3.214   7.763 -1.3298  0.3377  0.6954
19299SOL    HW262260   5.510   3.063   7.763 -0.7809  0.3789  2.2131
19300SOL     OW62261   7.614   3.672   4.148  0.6919 -0.0073  0.4506
19300SOL    HW162262   7.700   3.713   4.158  0.7483 -0.5113  2.3823
19300SOL    HW262263   7.565   3.733   4.092  1.9220  0.8771  0.2978
19301SOL     OW62264   9.682   1.252   6.289 -0.1744  0.3539  0.0596
19301SOL    HW162265   9.594   1.261   6.252 -0.6536  1.2136  1.3324
19301SOL    HW262266   9.741   1.285   6.221 -0.6745 -1.5450 -1.3764
19302SOL     OW62267   8.749   7.125   8.064  0.4221  0.0443  0.1080
19302SOL    HW162268   8.691   7.093   8.134  0.1497  0.7336  0.2058
19302SOL    HW262269   8.805   7.189   8.107 -0.5243  1.3368 -0.5418
19303SOL     OW62270   3.542   8.859   4.663  0.2011  0.0669 -0.7479
19303SOL    HW162271   3.553   8.770   4.697  2.2324  0.0759 -1.2779
19303SOL    HW262272   3.577   8.856   4.574 -0.4350  1.2228 -1.0615
19304SOL     OW62273   0.672  11.084  10.931 -0.4918  0.1081  0.1546
19304SOL    HW162274   0.623  11.005  10.950 -1.0042  0.5968  0.9099
19304SOL    HW262275   0.762  11.054  10.916 -0.9422 -0.7497 -0.9275
19305SOL     OW62276   0.119   5.169   7.261  0.7319  0.2047 -0.4607
19305SOL    HW162277   0.151   5.079   7.247  0.0879  0.0417 -0.9121
19305SOL    HW262278   0.149   5.217   7.184 -0.8460 -0.1580 -1.3353
19306SOL     OW62279   3.683   2.975   1.896 -0.0222  0.2604 -0.2080
19306SOL    HW162280   3.743   3.024   1.841  1.0410  0.8334  1.3786
19306SOL    HW262281   3.740   2.921   1.952 -0.9018  1.2031  1.6969
19307SOL     OW62282   7.354   2.695   7.116  0.4783 -0.6217 -0.2376
19307SOL    HW162283   7.346   2.696   7.211  0.0554 -0.5934 -0.2730
19307SOL    HW262284   7.272   2.658   7.085  0.1594  0.3893 -0.6367
19308SOL     OW62285   6.910   5.677   6.787 -0.0484  0.1583  0.1936
19308SOL    HW162286   6.934   5.698   6.697  0.2820 -1.3983 -0.1156
19308SOL    HW262287   6.853   5.749   6.814  0.6347  1.1514 -0.9162
19309SOL     OW62288   9.903   2.123   3.974  1.4517 -0.3475  0.1862
19309SOL    HW162289   9.955   2.129   3.894  2.0565  0.2076  0.6059
19309SOL    HW262290   9.883   2.030   3.983 -0.5896 -0.1978 -1.8281
19310SOL     OW62291   1.432   9.402   0.447  0.3542 -0.1282 -0.1359
19310SOL    HW162292   1.521   9.418   0.415  0.0511 -1.0038 -1.5392
19310SOL    HW262293   1.383   9.481   0.421  0.4081 -0.2675 -0.6723
19311SOL     OW62294  10.085   7.288   1.696  0.2566 -0.0404 -0.1163
19311SOL    HW162295  10.003   7.326   1.663  1.2616  2.1798 -0.2754
19311SOL    HW262296  10.110   7.224   1.629 -0.7267  0.1202 -0.6661
19312SOL     OW62297   9.157   0.517   1.883 -0.3823  0.1169  0.1434
19312SOL    HW162298   9.235   0.481   1.841 -1.3626 -1.8501 -0.1225
19312SOL    HW262299   9.190   0.586   1.940  1.4310  0.0318 -0.7393
19313SOL     OW62300   1.071   7.448   8.264  0.0144 -0.0398  0.4212
19313SOL    HW162301   1.118   7.530   8.282  3.2904 -1.5214 -0.5825
19313SOL    HW262302   1.004   7.473   8.200  0.8942  1.8885  0.1719
19314SOL     OW62303   2.780   8.337   9.015 -0.5130 -0.6115 -0.2230
19314SOL    HW162304   2.829   8.260   8.987  0.2745  0.2957 -1.4076
19314SOL    HW262305   2.694   8.327   8.974 -0.1080 -0.4125 -1.1310
19315SOL     OW62306   7.231   4.738   9.930 -0.4721 -0.3365 -0.0049
19315SOL    HW162307   7.286   4.815   9.947 -1.1542  0.2015 -0.1730
19315SOL    HW262308   7.253   4.713   9.840 -0.3902 -0.2216 -0.0177
19316SOL     OW62309   2.494   0.423   3.998 -0.3291  0.3832 -0.8954
19316SOL    HW162310   2.442   0.391   4.072 -0.0164  0.7428 -0.5186
19316SOL    HW262311   2.479   0.517   3.997  0.0626  0.4454 -0.9803
19317SOL     OW62312   6.930  10.278  10.907 -0.0025 -0.4449 -0.4323
19317SOL    HW162313   6.945  10.373  10.908  0.3600 -0.4907 -0.8580
19317SOL    HW262314   6.838  10.268  10.931  0.8639 -0.2217  3.6401
19318SOL     OW62315   0.579   8.924   0.173 -0.4969 -0.4076  0.0985
19318SOL    HW162316   0.662   8.920   0.221 -0.4374 -0.0187  0.0262
19318SOL    HW262317   0.542   8.836   0.183 -0.9975 -0.0410  1.7761
19319SOL     OW62318   2.304   9.342   7.418 -0.2705 -0.1819 -0.0461
19319SOL    HW162319   2.240   9.403   7.383 -1.2036 -1.4135 -0.5169
19319SOL    HW262320   2.375   9.399   7.450 -1.0472  1.1331 -0.5685
19320SOL     OW62321   1.197   6.913  10.350  0.4366 -0.5360  0.0425
19320SOL    HW162322   1.289   6.926  10.373  1.0923 -0.6649 -2.2569
19320SOL    HW262323   1.166   6.846  10.410  2.2034 -1.3857  0.0606
19321SOL     OW62324  10.690   7.650   4.688  0.0454 -0.3032  0.0783
19321SOL    HW162325  10.690   7.681   4.778  1.3519  0.3470 -0.1017
19321SOL    HW262326  10.769   7.689   4.650 -0.1090 -1.1182 -1.1520
19322SOL     OW62327   7.140   8.141   0.371 -0.5885 -0.7610 -0.3027
19322SOL    HW162328   7.115   8.189   0.450 -0.2298 -0.0975 -0.5884
19322SOL    HW262329   7.112   8.051   0.388  0.6428 -0.9099  1.1399
19323SOL     OW62330  11.041   9.112   9.212 -0.4308  0.3909 -0.0574
19323SOL    HW162331  10.948   9.132   9.201 -0.6966  0.0829  1.3613
19323SOL    HW262332  11.045   9.017   9.221  0.0404  0.3863 -0.2673
19324SOL     OW62333   9.247   4.488   9.476 -0.1328 -0.0042 -0.1042
19324SOL    HW162334   9.188   4.414   9.461 -0.4034  0.1452  0.2023
19324SOL    HW262335   9.302   4.460   9.549  2.8475 -1.7288 -2.7517
19325SOL     OW62336   6.767   9.438   6.539 -0.0840  0.4618 -0.4251
19325SOL    HW162337   6.819   9.399   6.609 -0.9872  1.3650  0.7974
19325SOL    HW262338   6.820   9.426   6.460  1.4933  0.4268  0.5966
19326SOL     OW62339  10.802   4.180   3.135 -0.0408  0.1125  0.0865
19326SOL    HW162340  10.812   4.272   3.158 -2.4036 -0.3045  3.5630
19326SOL    HW262341  10.848   4.133   3.204 -1.1848 -1.2943 -0.0688
19327SOL     OW62342   0.713   1.065   3.170 -0.4299  0.2584 -0.5780
19327SOL    HW162343   0.743   0.985   3.127 -2.0183 -0.0154 -1.2531
19327SOL    HW262344   0.761   1.136   3.127 -0.7427 -0.1576 -1.6326
19328SOL     OW62345   7.496   5.159  10.862  0.6619 -0.2982  0.1556
19328SOL    HW162346   7.535   5.130  10.779  0.9277  0.3879  0.0361
19328SOL    HW262347   7.408   5.120  10.861  0.4425  0.1730 -0.7279
19329SOL     OW62348   5.941   4.685   3.464  0.5478  0.0254 -0.2377
19329SOL    HW162349   5.922   4.632   3.387  0.1159 -0.7518  0.3974
19329SOL    HW262350   6.014   4.640   3.507  1.0596  0.6797 -0.3959
19330SOL     OW62351   5.524   0.840   8.249 -0.4135 -0.8769 -0.1774
19330SOL    HW162352   5.580   0.831   8.171  0.2275  2.6277 -0.2600
19330SOL    HW262353   5.515   0.934   8.262 -0.6124 -1.2805  3.9389
19331SOL     OW62354   7.512   7.061   6.501  0.1477 -0.5615  0.4070
19331SOL    HW162355   7.546   7.019   6.421 -0.1257 -1.4447  0.7406
19331SOL    HW262356   7.418   7.067   6.487  0.0926 -0.7660  0.6792
19332SOL     OW62357   3.006   2.347   9.848 -0.0426 -0.3155  0.0461
19332SOL    HW162358   2.931   2.368   9.903  0.9425 -0.0724  1.3282
19332SOL    HW262359   2.988   2.393   9.766 -0.5100  1.1197  0.9207
19333SOL     OW62360   8.864   0.431   8.320  0.2482 -0.2155 -0.1894
19333SOL    HW162361   8.903   0.363   8.265 -0.5378 -1.0043  0.2196
19333SOL    HW262362   8.771   0.409   8.325  0.1806  0.2544  0.8689
19334SOL     OW62363   9.174   7.015   0.168  0.6212  0.8848  1.1675
19334SOL    HW162364   9.226   6.950   0.215  0.5610  1.2928  1.8304
19334SOL    HW262365   9.124   7.059   0.237 -0.5932  0.5229  0.5532
19335SOL     OW62366   7.455   4.562   8.096  0.7589 -0.4462 -0.2872
19335SOL    HW162367   7.526   4.564   8.032  0.7698 -0.8267 -0.2888
19335SOL    HW262368   7.379   4.533   8.046  0.5596  0.1270 -0.3231
19336SOL     OW62369   6.820   8.540   9.547 -0.1589  0.1891  0.1523
19336SOL    HW162370   6.891   8.579   9.496  0.4274 -0.5933  0.3527
19336SOL    HW262371   6.860   8.514   9.629 -0.3727 -1.3813 -0.2060
19337SOL     OW62372   1.842   7.986   6.042 -0.3527  0.6382  0.0306
19337SOL    HW162373   1.918   7.968   5.986 -1.8344 -1.9819 -1.2896
19337SOL    HW262374   1.797   7.902   6.050 -1.3402  1.3390  3.5905
19338SOL     OW62375   5.817   1.499   2.034  0.3142  0.1258 -0.1322
19338SOL    HW162376   5.909   1.483   2.017  0.9043  2.1866  0.7688
19338SOL    HW262377   5.816   1.572   2.095 -1.9063 -0.5144  0.7159
19339SOL     OW62378   9.314   4.248   4.104 -0.4868 -0.1455  0.0909
19339SOL    HW162379   9.260   4.322   4.075  1.7285  1.6723  0.3496
19339SOL    HW262380   9.402   4.269   4.073  0.9470 -0.8077  3.3463
19340SOL     OW62381   9.825   4.827   8.762 -0.1213  0.4558 -0.1337
19340SOL    HW162382   9.763   4.816   8.690  0.0290  0.7780 -0.3138
19340SOL    HW262383   9.896   4.879   8.724 -0.4857  1.4392  0.5041
19341SOL     OW62384   8.070   9.334   9.708 -0.4069  0.6104 -0.0508
19341SOL    HW162385   8.090   9.332   9.801  2.0317 -0.2268 -0.5058
19341SOL    HW262386   8.075   9.427   9.685 -1.5542  0.8769  0.7246
19342SOL     OW62387   0.006   6.980   8.912 -0.2995 -0.4407  0.0239
19342SOL    HW162388   0.015   6.924   8.988  1.2966  0.4418  0.5261
19342SOL    HW262389   0.096   6.994   8.882 -0.5106  2.6200  0.5336
19343SOL     OW62390   7.364  10.813   6.697  0.5772 -0.2862 -0.2646
19343SOL    HW162391   7.293  10.751   6.682 -0.0810  0.2473  0.5785
19343SOL    HW262392   7.434  10.760   6.736 -0.1010 -0.4615  0.7611
19344SOL     OW62393   0.884  10.742   0.354 -1.0683  0.4404  0.3452
19344SOL    HW162394   0.948  10.729   0.283 -1.5453 -2.2912  0.3117
19344SOL    HW262395   0.832  10.817   0.326  0.8821  1.5301 -0.5455
19345SOL     OW62396   3.672   7.063   8.550  0.2232 -1.0495 -0.5050
19345SOL    HW162397   3.714   7.145   8.579 -0.6679 -0.5960 -0.4674
19345SOL    HW262398   3.615   7.090   8.478 -2.2927 -1.0991  1.3337
19346SOL     OW62399   6.872   2.653   2.862  0.4844  0.1717 -0.2620
19346SOL    HW162400   6.788   2.609   2.851 -0.2689  1.7479 -1.2464
19346SOL    HW262401   6.910   2.653   2.774  1.5693 -0.5999  0.1925
19347SOL     OW62402   6.058   9.416   3.457 -0.3156  0.4176 -0.0361
19347SOL    HW162403   5.981   9.389   3.406  1.3005  0.7930 -2.9183
19347SOL    HW262404   6.071   9.508   3.433  0.4735  0.6520  1.2144
19348SOL     OW62405   9.737   2.331   4.159 -0.4298  0.2397 -0.4575
19348SOL    HW162406   9.800   2.264   4.131  0.2897  0.3127  0.8979
19348SOL    HW262407   9.736   2.394   4.087  1.9806  0.8401 -0.0872
19349SOL     OW62408   4.944   8.108   0.510  0.7438 -0.0464 -0.4187
19349SOL    HW162409   4.923   8.018   0.485 -0.6935  0.4222 -0.9901
19349SOL    HW262410   5.027   8.126   0.467  0.4963 -0.7397 -1.2224
19350SOL     OW62411  11.057   2.971   4.288  0.1415 -0.7165 -0.2892
19350SOL    HW162412  11.101   2.984   4.204 -0.3935 -1.7194 -0.7358
19350SOL    HW262413  11.071   3.054   4.335 -1.0715  0.5758 -2.0512
19351SOL     OW62414   8.224   3.711   7.835 -0.2548  0.7302 -0.4441
19351SOL    HW162415   8.238   3.626   7.876  0.2719  0.9166 -0.2247
19351SOL    HW262416   8.309   3.735   7.798 -0.7356  0.5453 -1.7179
19352SOL     OW62417   6.009  10.064   1.518 -0.0521 -0.2427 -0.3663
19352SOL    HW162418   5.975  10.071   1.607 -0.2983 -0.1144 -0.4691
19352SOL    HW262419   6.100  10.036   1.529 -0.1374 -0.4123 -0.0819
19353SOL     OW62420   8.298   4.148   9.652  0.3493 -0.2536  0.2064
19353SOL    HW162421   8.227   4.085   9.661 -0.9594  0.8891 -1.4935
19353SOL    HW262422   8.258   4.224   9.609  2.2770  1.0127  0.5153
19354SOL     OW62423   3.515   5.559   3.152 -0.3515  0.1397 -0.2444
19354SOL    HW162424   3.544   5.472   3.179  2.2660  0.8105 -0.6113
19354SOL    HW262425   3.420   5.558   3.164 -0.1254 -1.9584  1.9994
19355SOL     OW62426  10.608   0.825   5.698 -0.3855  0.7563  0.4186
19355SOL    HW162427  10.671   0.840   5.769  1.9508  2.8464 -1.8994
19355SOL    HW262428  10.611   0.730   5.684  3.2704  0.8383 -0.3338
19356SOL     OW62429   7.952   0.224   3.389  0.0531 -0.1306 -0.2404
19356SOL    HW162430   7.955   0.191   3.299  1.7894 -0.0522 -0.2427
19356SOL    HW262431   8.043   0.218   3.419 -0.4444  0.2015  1.3843
19357SOL     OW62432   9.402   5.270   6.504  0.2505 -0.4909 -0.3537
19357SOL    HW162433   9.496   5.256   6.519 -0.1011 -1.7548  0.8756
19357SOL    HW262434   9.398   5.346   6.446  1.9616  1.7076  2.1572
19358SOL     OW62435   0.455  10.511   2.780  0.2438 -0.5819 -0.0742
19358SOL    HW162436   0.545  10.488   2.759  0.3754 -0.4810  0.3697
19358SOL    HW262437   0.441  10.596   2.738 -0.3990 -1.6266 -2.1349
19359SOL     OW62438   1.388   8.623   8.651  0.3796  0.5693 -0.3285
19359SOL    HW162439   1.472   8.639   8.607 -0.8397  2.3327 -2.1564
19359SOL    HW262440   1.411   8.569   8.727  3.1999  1.2563 -0.5892
19360SOL     OW62441   0.851   4.560   9.439  0.2894 -0.2451  0.0067
19360SOL    HW162442   0.818   4.489   9.493  0.8500 -1.4654 -1.1877
19360SOL    HW262443   0.793   4.634   9.458 -1.3023 -1.4704  0.1060
19361SOL     OW62444   6.020  10.719   5.118  0.0355  0.4468  0.5276
19361SOL    HW162445   6.003  10.812   5.111 -0.2259  0.3424 -0.2661
19361SOL    HW262446   6.115  10.711   5.120  0.0543  0.7426  0.8368
19362SOL     OW62447   3.224   2.640   1.856 -0.2042  0.1493  0.2299
19362SOL    HW162448   3.316   2.643   1.830 -0.0662  1.1021  0.8021
19362SOL    HW262449   3.225   2.627   1.951 -0.6293  1.4067  0.4202
19363SOL     OW62450   4.118   7.555   2.369  0.3544 -0.1199 -0.0686
19363SOL    HW162451   4.124   7.505   2.288  2.4064 -0.0346 -0.0306
19363SOL    HW262452   4.114   7.646   2.340  0.6534 -0.1120 -0.0903
19364SOL     OW62453   9.387   6.739   3.032 -0.4405  0.1596 -0.1675
19364SOL    HW162454   9.419   6.670   3.090 -2.2347 -0.8895 -0.3703
19364SOL    HW262455   9.350   6.694   2.957 -0.8653  1.3822 -0.7297
19365SOL     OW62456   6.793   2.204   7.965  0.6563  0.1718 -0.2676
19365SOL    HW162457   6.881   2.236   7.985  0.9213  0.3348 -1.5922
19365SOL    HW262458   6.784   2.217   7.871 -1.3446  1.5356  0.0506
19366SOL     OW62459   9.435  10.263   4.903  0.6351 -0.1359 -0.3190
19366SOL    HW162460   9.462  10.220   4.822  0.6407  0.6218 -0.7249
19366SOL    HW262461   9.378  10.335   4.875 -0.9194 -1.0123  0.4518
19367SOL     OW62462   5.389   5.142  10.608  0.0138  0.1689 -0.3669
19367SOL    HW162463   5.384   5.223  10.558  1.5308 -0.1319 -1.0370
19367SOL    HW262464   5.364   5.074  10.546 -0.3025  0.0098 -0.0707
19368SOL     OW62465   2.689   0.096   1.381 -0.1389 -0.0645  0.3763
19368SOL    HW162466   2.673   0.005   1.357  0.2978  0.0918 -0.5540
19368SOL    HW262467   2.769   0.093   1.433  1.8498  0.1100 -2.4767
19369SOL     OW62468   0.358   2.095  10.315  1.1563  0.3929 -0.0038
19369SOL    HW162469   0.387   2.149  10.243  1.6955 -1.3211 -1.1406
19369SOL    HW262470   0.407   2.013  10.305  0.8453 -0.0915  1.9888
19370SOL     OW62471   7.197   8.128   3.898 -0.1057  0.4552 -0.3839
19370SOL    HW162472   7.277   8.178   3.879 -0.3949  0.6086 -1.2634
19370SOL    HW262473   7.168   8.161   3.983  0.2475  1.0892 -0.4970
19371SOL     OW62474  10.022   5.655  10.067  0.0868 -0.2420  0.6301
19371SOL    HW162475  10.049   5.599   9.995 -1.9363  1.7514 -1.8595
19371SOL    HW262476  10.003   5.594  10.139  1.9378 -2.3352 -0.5420
19372SOL     OW62477   2.122   8.877   9.739  0.2762 -0.1530  0.0043
19372SOL    HW162478   2.208   8.836   9.731  1.7334  2.7939 -0.8714
19372SOL    HW262479   2.094   8.892   9.649  0.5726  2.0661  0.2159
19373SOL     OW62480   3.290   5.665   3.427  0.2205 -0.0551  0.2528
19373SOL    HW162481   3.253   5.625   3.348  1.3362 -0.5966 -0.0107
19373SOL    HW262482   3.232   5.739   3.445 -1.2732 -1.1327  0.1360
19374SOL     OW62483   9.100   7.855   2.386 -0.5687 -0.1039  0.3566
19374SOL    HW162484   9.095   7.936   2.335  0.3342  0.9619  1.8832
19374SOL    HW262485   9.028   7.862   2.449 -2.0124 -1.6523 -1.0297
19375SOL     OW62486  10.288   4.360   5.654  0.4346 -0.1762 -0.3027
19375SOL    HW162487  10.333   4.426   5.707  0.9297 -1.7084  1.2784
19375SOL    HW262488  10.200   4.355   5.693  0.3165 -0.2755 -0.5805
19376SOL     OW62489   4.729   2.270   6.991  0.3330  0.1544  0.3756
19376SOL    HW162490   4.694   2.212   7.058  0.6101 -0.5639 -0.0923
19376SOL    HW262491   4.707   2.358   7.022  1.7002 -0.0571  2.1524
19377SOL     OW62492   2.338   6.820   1.926 -0.0485  0.2970 -0.8926
19377SOL    HW162493   2.282   6.852   1.856  1.3421  0.8346 -1.8121
19377SOL    HW262494   2.415   6.877   1.922  0.9514 -0.9743 -0.2775
19378SOL     OW62495   9.913   5.174   1.659  0.2105 -0.3194 -0.4201
19378SOL    HW162496   9.870   5.092   1.682  1.4037 -1.0485 -0.6955
19378SOL    HW262497   9.910   5.227   1.740 -2.7735  0.4275 -0.9138
19379SOL     OW62498   8.660   4.347   5.241 -0.0127 -0.2554 -0.1929
19379SOL    HW162499   8.626   4.271   5.289  1.6701 -1.0928 -0.2429
19379SOL    HW262500   8.656   4.321   5.149 -1.2539  0.5215 -0.3881
19380SOL     OW62501   3.593   5.073   3.354  0.2334  0.0576  0.1949
19380SOL    HW162502   3.615   5.115   3.271 -2.9486 -1.2392 -1.4527
19380SOL    HW262503   3.575   5.146   3.414  1.6281  0.9969 -0.4601
19381SOL     OW62504   7.407   5.068   1.393  0.3148 -0.9393 -0.0133
19381SOL    HW162505   7.497   5.073   1.424  0.7694  0.7707 -1.4731
19381SOL    HW262506   7.380   4.978   1.413  2.3353 -1.5007  0.4030
19382SOL     OW62507   0.493   4.062   9.144  0.4082 -0.1967 -0.5396
19382SOL    HW162508   0.562   4.128   9.141  0.6872 -0.3903  0.8957
19382SOL    HW262509   0.526   3.990   9.089  0.1271  0.7940 -2.0569
19383SOL     OW62510   7.156   8.393  10.407 -0.6632  0.1029  0.5744
19383SOL    HW162511   7.157   8.371  10.314  0.6559 -0.9926  0.8067
19383SOL    HW262512   7.236   8.444  10.420 -2.1321  2.5654  0.6549
19384SOL     OW62513   6.745   8.034   3.309  0.6408  0.0244 -0.3538
19384SOL    HW162514   6.743   8.023   3.404  1.8700 -1.4511 -0.4453
19384SOL    HW262515   6.683   8.104   3.291  2.8602  2.8067  1.8440
19385SOL     OW62516   5.402   5.521   2.738 -0.8821  0.1184  0.5587
19385SOL    HW162517   5.422   5.533   2.831  6.4943  0.7830 -0.4967
19385SOL    HW262518   5.412   5.609   2.701  2.0246 -0.8522 -1.2812
19386SOL     OW62519   6.784   6.093   4.356  0.2855 -0.2565 -0.2968
19386SOL    HW162520   6.731   6.095   4.437 -0.4348  3.3293 -0.6713
19386SOL    HW262521   6.735   6.036   4.297 -1.0428 -0.2264  0.7157
19387SOL     OW62522   5.976   7.821   4.193  0.1634  0.4584  0.0081
19387SOL    HW162523   5.979   7.728   4.216 -0.9303  0.9880  2.6567
19387SOL    HW262524   6.054   7.858   4.234  0.2650  0.8246 -0.5063
19388SOL     OW62525   7.238   2.084  10.593 -0.4701 -0.0586  0.1730
19388SOL    HW162526   7.229   2.082  10.689 -0.9506  0.5328  0.1418
19388SOL    HW262527   7.149   2.095  10.561 -0.2975 -0.1696 -0.3486
19389SOL     OW62528   6.138   8.074   2.940 -0.3884 -0.1263 -0.6022
19389SOL    HW162529   6.093   8.005   2.990  0.7545 -0.7925 -0.4398
19389SOL    HW262530   6.114   8.057   2.849  0.2049 -1.0221 -0.6100
19390SOL     OW62531   8.255   6.541  10.997  0.4763 -0.0887  0.4671
19390SOL    HW162532   8.349   6.550  10.982  0.2899  3.9272  0.5577
19390SOL    HW262533   8.241   6.578  11.084 -1.3420  1.3945 -0.3863
19391SOL     OW62534   4.239   6.194   8.673  0.2555  0.8076 -0.2285
19391SOL    HW162535   4.168   6.136   8.646  0.7901  0.4700 -0.9135
19391SOL    HW262536   4.243   6.261   8.605  0.3673  1.0271 -0.0085
19392SOL     OW62537   1.313   6.477   8.885 -0.8566 -0.1410  0.0470
19392SOL    HW162538   1.228   6.465   8.842  0.4389 -0.5137 -2.6167
19392SOL    HW262539   1.367   6.521   8.820  0.4997  1.8370  2.3512
19393SOL     OW62540   2.715   6.898   9.204 -0.3660 -0.0674 -0.1633
19393SOL    HW162541   2.775   6.898   9.129  1.8234  0.2088  1.4978
19393SOL    HW262542   2.736   6.818   9.252 -2.3510 -0.6921 -0.2298
19394SOL     OW62543   4.165   6.677   4.469  0.1827 -0.2659 -0.6855
19394SOL    HW162544   4.168   6.598   4.414  2.0408 -1.1272  0.5832
19394SOL    HW262545   4.131   6.646   4.553 -0.1145  0.5343 -0.5044
19395SOL     OW62546   8.126   1.343   3.850  0.1421 -0.0598 -0.2350
19395SOL    HW162547   8.061   1.274   3.863  0.0930  0.1139  0.4888
19395SOL    HW262548   8.200   1.299   3.807 -0.0792 -0.4589 -0.2128
19396SOL     OW62549   4.627   3.943   9.844 -0.3340  0.3364  0.5700
19396SOL    HW162550   4.648   3.850   9.833  1.1566  0.6577  0.4413
19396SOL    HW262551   4.687   3.988   9.784 -0.4644  1.4228  1.2272
19397SOL     OW62552   3.102  10.505   6.015 -0.2363 -0.2124 -0.3628
19397SOL    HW162553   3.130  10.418   6.043  1.5937  0.6979  0.7366
19397SOL    HW262554   3.029  10.527   6.074 -1.9702 -1.6758 -1.8183
19398SOL     OW62555   4.601   5.541   3.290  0.4055 -0.3631  0.0910
19398SOL    HW162556   4.662   5.467   3.296 -1.8447 -2.4109 -0.6534
19398SOL    HW262557   4.525   5.513   3.342 -0.0657  1.9717  0.7518
19399SOL     OW62558   5.798   2.057   7.264 -0.1184 -0.3364  0.2276
19399SOL    HW162559   5.706   2.079   7.251 -0.1868 -1.2238 -0.9108
19399SOL    HW262560   5.797   1.984   7.326 -0.0960  0.3643  1.0800
19400SOL     OW62561   4.953   7.375   5.119 -0.6781  0.4543 -0.2062
19400SOL    HW162562   4.960   7.413   5.032 -1.7695  1.0341 -0.0674
19400SOL    HW262563   4.903   7.294   5.106 -1.5768  0.9666 -0.0256
19401SOL     OW62564  10.587   0.511   8.669 -0.4678  0.1809  0.5002
19401SOL    HW162565  10.588   0.451   8.595 -0.8718  1.4074 -0.5397
19401SOL    HW262566  10.623   0.592   8.634  1.8335  0.0559  2.3477
19402SOL     OW62567   0.582   9.148   3.195 -0.3265  0.7830  0.8086
19402SOL    HW162568   0.521   9.222   3.188 -0.8443  0.2868 -0.0427
19402SOL    HW262569   0.642   9.159   3.122  0.2795  0.9655  1.3269
19403SOL     OW62570  10.738   9.952   5.370  0.7405 -0.0883  0.1713
19403SOL    HW162571  10.701  10.016   5.309  0.0021 -0.8858 -0.2321
19403SOL    HW262572  10.807  10.001   5.416 -1.0200  1.5719  1.2120
19404SOL     OW62573   3.835  10.605   6.035 -0.5567  0.2848  0.3621
19404SOL    HW162574   3.763  10.666   6.017  0.4968  1.4131 -0.1659
19404SOL    HW262575   3.858  10.569   5.949 -0.3842  0.0511  0.5060
19405SOL     OW62576   4.795   8.665   2.305 -0.0946  0.1405 -0.2241
19405SOL    HW162577   4.851   8.690   2.379  1.0441 -0.6430 -0.7772
19405SOL    HW262578   4.857   8.637   2.237 -1.1735 -1.1039 -0.7447
19406SOL     OW62579   5.313   5.263   2.052  0.0103 -0.1936  0.0681
19406SOL    HW162580   5.254   5.205   2.003 -0.0921 -0.0402  0.0081
19406SOL    HW262581   5.397   5.256   2.007  0.8060 -2.5152  1.7389
19407SOL     OW62582   8.259   3.126   0.186 -0.4281  0.6596  0.0325
19407SOL    HW162583   8.318   3.132   0.111  0.5772 -0.9013  0.6428
19407SOL    HW262584   8.201   3.201   0.178  0.4887  1.2244 -1.5940
19408SOL     OW62585   4.328   0.631   3.606 -0.1684 -0.8510  0.2553
19408SOL    HW162586   4.399   0.673   3.559 -1.2742 -0.4561 -1.1338
19408SOL    HW262587   4.273   0.592   3.538 -2.3463  0.5391  1.0926
19409SOL     OW62588   6.850   4.415   8.067  0.3711  0.0900 -0.0043
19409SOL    HW162589   6.794   4.490   8.047 -0.5373  0.1150  2.3064
19409SOL    HW262590   6.935   4.439   8.031 -0.5047  1.1063 -1.5099
19410SOL     OW62591   0.751   8.702   7.216  0.3820 -0.3892 -0.9700
19410SOL    HW162592   0.660   8.690   7.192  0.1766  1.1201 -1.0778
19410SOL    HW262593   0.750   8.712   7.311 -0.0400  2.7197 -1.1936
19411SOL     OW62594   1.060   4.524   7.592 -0.0461 -0.3135  0.1597
19411SOL    HW162595   1.115   4.464   7.543 -2.0703 -1.5034 -0.8023
19411SOL    HW262596   1.026   4.472   7.665  0.7108  0.6331  1.2197
19412SOL     OW62597   8.896   2.854   6.148  0.1469 -0.1873  0.2727
19412SOL    HW162598   8.824   2.800   6.114 -1.1086  1.4130  0.2280
19412SOL    HW262599   8.942   2.797   6.210 -1.6473 -1.0484  0.8915
19413SOL     OW62600   0.675  10.596   0.432  0.2895 -0.2944 -0.0992
19413SOL    HW162601   0.620  10.655   0.483 -1.4796  1.4568 -3.6796
19413SOL    HW262602   0.742  10.653   0.393  1.5347 -1.5507  0.0904
19414SOL     OW62603   3.430  10.075   6.815  0.4015  0.5136  0.2595
19414SOL    HW162604   3.397  10.025   6.741  0.9527  1.2320 -0.4941
19414SOL    HW262605   3.365  10.145   6.827  1.2482  1.5093 -0.7719
19415SOL     OW62606   2.737   1.164   7.232 -0.8723  0.3042 -0.4913
19415SOL    HW162607   2.774   1.100   7.294 -0.1507 -0.3042 -1.5277
19415SOL    HW262608   2.795   1.240   7.239 -1.5247  0.7298  0.4836
19416SOL     OW62609   4.917   2.080   9.238 -0.1447 -0.2545 -0.2063
19416SOL    HW162610   4.983   2.070   9.307 -0.4204 -0.4812  0.0272
19416SOL    HW262611   4.866   2.156   9.265  0.4509  0.3475 -0.7457
19417SOL     OW62612   5.268   9.571   9.943 -0.1165  0.1567 -0.1320
19417SOL    HW162613   5.200   9.621   9.898  1.6255 -0.3554 -3.5874
19417SOL    HW262614   5.236   9.481   9.941  0.3088  0.0217 -1.0917
19418SOL     OW62615   1.265   7.148   4.981 -0.2401 -0.2895 -0.3100
19418SOL    HW162616   1.193   7.153   5.043  0.0908  1.0359 -0.0078
19418SOL    HW262617   1.340   7.184   5.028  0.6084 -1.4824 -0.6755
19419SOL     OW62618   9.089   0.236   4.261  0.4778  0.2667 -0.0448
19419SOL    HW162619   9.035   0.265   4.334  0.1267 -0.5186  0.0181
19419SOL    HW262620   9.089   0.141   4.267  2.0084  0.2401  0.0409
19420SOL     OW62621   5.070   5.273   2.349 -0.3040  0.5531 -0.0012
19420SOL    HW162622   5.013   5.334   2.397  0.1749  0.3184  0.9027
19420SOL    HW262623   5.014   5.235   2.282 -1.1584  0.4975  0.7229
19421SOL     OW62624   0.758   3.393   6.884 -0.1045 -0.3650  0.2538
19421SOL    HW162625   0.830   3.449   6.914 -0.0786  0.2037 -0.8501
19421SOL    HW262626   0.801   3.317   6.846 -0.0853 -0.1334 -0.1936
19422SOL     OW62627   8.436   1.718   3.469 -0.6106  0.2408  0.2085
19422SOL    HW162628   8.519   1.743   3.430 -0.1977  1.6112  1.8317
19422SOL    HW262629   8.438   1.757   3.556 -3.4513  1.3313 -0.1162
19423SOL     OW62630   6.073   7.565  10.559  0.0633  0.2222  0.4763
19423SOL    HW162631   6.165   7.582  10.578  1.7340 -0.2768 -5.2296
19423SOL    HW262632   6.034   7.652  10.547  0.4424  0.4044  0.5533
19424SOL     OW62633   7.264   5.512   8.237  0.0205  0.4281 -0.5141
19424SOL    HW162634   7.234   5.421   8.233  0.3816  0.3164 -0.6720
19424SOL    HW262635   7.286   5.526   8.329  1.2983 -0.0785 -0.7202
19425SOL     OW62636  10.650   1.938   9.793 -0.1438 -0.0438  0.0506
19425SOL    HW162637  10.653   2.030   9.768 -0.1531 -0.4722 -1.6257
19425SOL    HW262638  10.579   1.932   9.857 -0.5059  1.0156 -0.2427
19426SOL     OW62639  11.085   2.250   7.909  0.3423  0.0387 -0.1516
19426SOL    HW162640  11.118   2.195   7.838 -0.0738 -1.0216  0.4551
19426SOL    HW262641  11.107   2.202   7.989  0.1980  0.8820  0.4113
19427SOL     OW62642   9.284   5.322   3.849  0.1663  0.8105  0.5850
19427SOL    HW162643   9.353   5.338   3.913  0.9266 -0.8629  0.2592
19427SOL    HW262644   9.213   5.282   3.900 -0.0149  1.2632  0.6923
19428SOL     OW62645   0.827   3.007   9.473 -0.2676 -0.0623  0.2604
19428SOL    HW162646   0.818   3.009   9.568  1.9708 -0.0665  0.5384
19428SOL    HW262647   0.917   2.976   9.458 -0.7281 -0.5329 -1.8669
19429SOL     OW62648   7.535   7.143   7.712  0.1680  0.3336  0.6986
19429SOL    HW162649   7.474   7.088   7.663  0.0062  0.4782  0.7382
19429SOL    HW262650   7.594   7.179   7.645 -0.8730  1.6081  0.4242
19430SOL     OW62651   6.638   7.056   2.428 -0.2453 -0.3347 -0.2214
19430SOL    HW162652   6.572   7.081   2.362  0.3087 -2.1923 -1.5414
19430SOL    HW262653   6.721   7.086   2.391 -0.1055  0.2803  0.5526
19431SOL     OW62654   8.330   8.524  10.705 -0.0381  0.1366 -0.0261
19431SOL    HW162655   8.331   8.557  10.615 -1.1634  1.8302  0.5247
19431SOL    HW262656   8.267   8.581  10.750 -0.5065 -1.5188  1.5184
19432SOL     OW62657  11.064   4.755   7.873 -0.8176 -0.2201 -0.2021
19432SOL    HW162658  11.120   4.724   7.945  1.9653  0.3828 -1.9499
19432SOL    HW262659  11.106   4.836   7.843 -3.3451  0.9013 -0.9226
19433SOL     OW62660   4.045   5.609   8.071 -0.5761 -0.6014 -0.2877
19433SOL    HW162661   4.057   5.612   7.976 -0.2634  1.2862 -0.2228
19433SOL    HW262662   4.004   5.693   8.093 -0.5567 -0.9720  1.2605
19434SOL     OW62663   5.915   6.447   7.873 -0.2582 -0.0273 -0.2793
19434SOL    HW162664   5.844   6.384   7.858  0.0521 -0.3757 -0.3030
19434SOL    HW262665   5.938   6.436   7.965 -0.3967  0.2545 -0.2123
19435SOL     OW62666   6.938   1.738   1.109  0.0488 -0.3182 -0.3274
19435SOL    HW162667   6.947   1.644   1.125  0.8310 -0.3155 -0.6915
19435SOL    HW262668   6.871   1.744   1.040 -0.5304 -0.5577  0.2052
19436SOL     OW62669  10.244   8.678   3.037 -0.0960  0.4788  0.0464
19436SOL    HW162670  10.189   8.752   3.064 -0.2434  0.4938 -0.2787
19436SOL    HW262671  10.205   8.602   3.080  1.6805  0.9316  2.6020
19437SOL     OW62672   2.614   3.508  10.259 -0.3455 -0.0350  0.5727
19437SOL    HW162673   2.576   3.518  10.172 -0.1108 -0.0423  0.4676
19437SOL    HW262674   2.562   3.565  10.315 -1.5097 -1.2053  0.7391
19438SOL     OW62675   9.364   3.857   6.373  0.2556  0.3656  0.4163
19438SOL    HW162676   9.299   3.924   6.392 -0.2597 -0.1399  0.4498
19438SOL    HW262677   9.441   3.882   6.424  0.2471  1.2176  0.0169
19439SOL     OW62678   4.349   7.021  10.747  0.0062 -0.4265  0.3834
19439SOL    HW162679   4.336   6.929  10.725 -1.2050 -0.4271  0.9888
19439SOL    HW262680   4.443   7.036  10.739 -0.0868 -0.8760 -3.0186
19440SOL     OW62681   8.442   3.765   1.464  0.3718  0.5636 -0.0477
19440SOL    HW162682   8.452   3.824   1.539  3.3251 -0.5556  0.5625
19440SOL    HW262683   8.458   3.820   1.388 -0.5652  1.2705  0.2463
19441SOL     OW62684   0.351   9.159  10.669  0.6784  0.0316  0.1403
19441SOL    HW162685   0.299   9.162  10.748 -1.1504  1.6132 -1.0512
19441SOL    HW262686   0.407   9.237  10.673  0.3024  0.3297 -0.2854
19442SOL     OW62687   9.471   5.826   4.397  0.0086  0.3527 -0.4271
19442SOL    HW162688   9.521   5.792   4.471 -0.2073 -1.7140 -1.1763
19442SOL    HW262689   9.447   5.915   4.423  2.1260  0.6053  0.8892
19443SOL     OW62690   5.970   6.309  10.885  0.3707 -0.0058  1.0388
19443SOL    HW162691   5.955   6.288  10.792 -1.6643 -0.1663  1.3699
19443SOL    HW262692   6.065   6.316  10.892  0.6296 -0.8806 -0.8735
19444SOL     OW62693   0.327   8.837   3.259 -0.6806  0.3957  0.4268
19444SOL    HW162694   0.317   8.761   3.317 -1.1179 -0.6817 -1.0062
19444SOL    HW262695   0.421   8.856   3.262  0.1596 -2.6017 -2.0043
19445SOL     OW62696   8.703   8.531   4.564  0.2309 -0.2683 -0.1783
19445SOL    HW162697   8.642   8.598   4.534 -1.3894 -0.0200  3.2710
19445SOL    HW262698   8.659   8.448   4.543 -0.6179 -0.1063  0.8704
19446SOL     OW62699   0.711   0.958   6.396  0.4756  0.0251  0.4904
19446SOL    HW162700   0.802   0.930   6.412  0.6701 -1.3680 -2.3856
19446SOL    HW262701   0.718   1.052   6.379  1.0481  0.3353  2.2533
19447SOL     OW62702   5.802   7.722   0.441  0.7411 -0.9752 -0.2402
19447SOL    HW162703   5.717   7.761   0.461  1.9057  0.8086  1.7314
19447SOL    HW262704   5.827   7.677   0.522  1.7904 -1.2481 -0.7000
19448SOL     OW62705   8.576   7.194   3.207  0.6581  0.6026 -0.0407
19448SOL    HW162706   8.570   7.220   3.115  0.2342 -1.7123 -0.7450
19448SOL    HW262707   8.490   7.215   3.244  0.4903  0.6275 -0.4449
19449SOL     OW62708   9.953   0.084   9.769 -0.1089 -0.0975  0.4939
19449SOL    HW162709  10.008   0.019   9.725  0.1544 -0.1960  0.9550
19449SOL    HW262710   9.864   0.066   9.737 -0.1498 -1.1681  1.1570
19450SOL     OW62711   6.357   1.245   3.052 -0.4948  0.5828  0.1308
19450SOL    HW162712   6.274   1.223   3.011 -0.1686 -0.3256 -0.0850
19450SOL    HW262713   6.403   1.299   2.987 -0.6831  0.6047  0.0152
19451SOL     OW62714   8.442   8.015   1.941 -0.0711 -0.2149 -0.5709
19451SOL    HW162715   8.517   8.074   1.931 -1.5582  1.7574 -0.7341
19451SOL    HW262716   8.368   8.073   1.956 -1.5148 -2.1217  0.0509
19452SOL     OW62717   6.198   9.711   3.660 -0.1320 -0.4095 -0.3780
19452SOL    HW162718   6.242   9.728   3.743 -0.1743 -0.9057 -0.2506
19452SOL    HW262719   6.221   9.786   3.605  1.2060 -0.8552 -0.4575
19453SOL     OW62720  10.074   9.460   5.774  0.6078 -0.4277 -0.0481
19453SOL    HW162721  10.073   9.485   5.682  0.8089  0.8082  0.2567
19453SOL    HW262722  10.001   9.399   5.784  0.3325 -0.2532 -0.9417
19454SOL     OW62723   9.580   3.926   6.516 -0.1299 -0.1716  0.0628
19454SOL    HW162724   9.540   3.873   6.585 -0.0494 -0.2516  0.0477
19454SOL    HW262725   9.667   3.947   6.550 -0.2339  0.1153  0.1557
19455SOL     OW62726  10.678   0.288   4.066 -0.4835 -0.0093  0.1220
19455SOL    HW162727  10.622   0.358   4.099 -0.9847  0.3923 -1.4587
19455SOL    HW262728  10.656   0.282   3.973  0.5382 -1.3444 -0.0655
19456SOL     OW62729   6.829   0.825   4.360  0.0816 -0.2471 -0.0840
19456SOL    HW162730   6.877   0.843   4.441 -0.9869  0.5868  0.3872
19456SOL    HW262731   6.815   0.911   4.320 -0.0472 -0.5829 -0.7764
19457SOL     OW62732   4.622  10.796   7.375 -0.2912 -0.0273 -0.0444
19457SOL    HW162733   4.561  10.725   7.360  0.7254 -1.5013  2.3453
19457SOL    HW262734   4.588  10.843   7.451 -0.8778  2.0431 -1.4972
19458SOL     OW62735   4.834   8.276   4.684 -0.4341  0.1806 -0.1617
19458SOL    HW162736   4.905   8.323   4.727 -0.9404  0.5022  0.3368
19458SOL    HW262737   4.878   8.207   4.634  0.1920  0.0469  0.5491
19459SOL     OW62738   5.439   6.500   1.735  0.0826  0.4164 -0.1502
19459SOL    HW162739   5.446   6.570   1.800  0.0697  0.3911 -0.1208
19459SOL    HW262740   5.514   6.443   1.754 -1.1294 -0.7993  1.3093
19460SOL     OW62741   1.485   4.372   2.394 -0.1164  0.0088  0.6495
19460SOL    HW162742   1.402   4.334   2.365 -0.8938  1.4470  0.9013
19460SOL    HW262743   1.468   4.400   2.484  0.4910  0.7694  0.5335
19461SOL     OW62744   4.852   0.668   6.054  0.1549 -0.3323  0.6073
19461SOL    HW162745   4.837   0.609   6.128 -0.1466 -0.1714  0.6750
19461SOL    HW262746   4.810   0.624   5.979  0.5378 -0.5390  0.5084
19462SOL     OW62747   6.789   7.357   6.661 -0.5028 -0.1929  0.2638
19462SOL    HW162748   6.733   7.280   6.651  0.1816 -0.7875  0.8883
19462SOL    HW262749   6.812   7.382   6.572 -1.0763 -0.4502  0.0408
19463SOL     OW62750   2.544   0.058   4.252 -0.0675  0.3139 -0.3111
19463SOL    HW162751   2.525   0.142   4.211 -0.7032 -0.2189 -1.1387
19463SOL    HW262752   2.462   0.032   4.293  0.6969  1.1049  1.8698
19464SOL     OW62753   4.993   6.675   5.999 -0.3255 -0.4545 -0.0487
19464SOL    HW162754   5.005   6.770   6.004  1.5209 -0.7153  1.1370
19464SOL    HW262755   4.898   6.664   5.997 -0.6151  1.3509  1.1874
19465SOL     OW62756   6.907   3.184   1.927  0.2961 -0.0511  0.1815
19465SOL    HW162757   6.848   3.228   1.866 -2.5988 -1.7402  1.5526
19465SOL    HW262758   6.950   3.117   1.874 -1.7007 -1.0835 -0.2400
19466SOL     OW62759   2.863   4.613   7.014  0.0822 -0.5119 -0.4004
19466SOL    HW162760   2.889   4.549   6.947 -0.9078 -0.0469 -1.2529
19466SOL    HW262761   2.768   4.609   7.015  0.0103  0.9281 -0.4418
19467SOL     OW62762   1.682   7.015   4.375  0.1017 -0.4760 -0.3776
19467SOL    HW162763   1.771   6.986   4.398  0.7360 -0.0122 -2.0466
19467SOL    HW262764   1.654   7.068   4.449 -0.9191 -4.7325  2.6213
19468SOL     OW62765   9.104   8.312  10.126 -0.1963 -0.0501  0.3752
19468SOL    HW162766   9.093   8.388  10.068  1.3872 -0.0335  0.0419
19468SOL    HW262767   9.064   8.339  10.209 -0.2345  0.9037  0.0633
19469SOL     OW62768   0.024   5.629   0.204  0.3491 -0.5089  0.3054
19469SOL    HW162769   0.058   5.613   0.116  0.7921  1.2519  0.1200
19469SOL    HW262770   0.099   5.613   0.262  0.2785 -0.8764  0.2985
19470SOL     OW62771   0.692   6.981   7.126  0.0848 -0.2405  0.0928
19470SOL    HW162772   0.708   7.061   7.176  0.8038  0.9179 -1.8777
19470SOL    HW262773   0.640   6.926   7.185  1.7831  0.5548  2.5085
19471SOL     OW62774   4.881   6.610   4.318 -0.5049  0.1913 -0.0051
19471SOL    HW162775   4.936   6.675   4.362 -1.0212  0.1704  0.6937
19471SOL    HW262776   4.842   6.657   4.244 -0.1356  0.4125 -0.0615
19472SOL     OW62777   2.761   7.383   5.398  0.0953  0.2991  0.6036
19472SOL    HW162778   2.827   7.449   5.419 -2.4838  3.4894 -0.5678
19472SOL    HW262779   2.703   7.383   5.474 -0.0640 -0.5699  0.4983
19473SOL     OW62780   0.768   6.379   2.594  0.0935 -0.4761 -0.1471
19473SOL    HW162781   0.828   6.424   2.654  0.2188  0.6063 -1.0492
19473SOL    HW262782   0.745   6.445   2.529 -0.1213 -1.5867 -1.2436
19474SOL     OW62783  11.011   3.271   5.302  0.3117 -0.7350 -0.1604
19474SOL    HW162784  11.046   3.183   5.287 -0.9524 -1.6505  1.8620
19474SOL    HW262785  10.919   3.257   5.322  0.5995  0.7446  2.7661
19475SOL     OW62786   9.719  10.656   2.427 -0.5769 -0.2346  0.0155
19475SOL    HW162787   9.646  10.626   2.481 -0.0147  0.0514  0.9752
19475SOL    HW262788   9.765  10.719   2.483  1.4125 -1.6912  0.1238
19476SOL     OW62789   6.917  10.461   0.559  0.5569  0.1980 -0.1197
19476SOL    HW162790   6.994  10.494   0.514  1.7221 -0.2132  1.4799
19476SOL    HW262791   6.889  10.533   0.615  0.2429  0.0724 -0.1139
19477SOL     OW62792   2.647   9.740  10.175 -0.5952  0.1387 -0.0092
19477SOL    HW162793   2.710   9.777  10.236 -2.3355  0.8642  1.4606
19477SOL    HW262794   2.582   9.809  10.163 -1.4979 -0.8221 -0.8563
19478SOL     OW62795   0.839   4.430   0.808  0.1386  0.3819 -0.0016
19478SOL    HW162796   0.871   4.350   0.851  0.2963  1.1700  1.4149
19478SOL    HW262797   0.913   4.491   0.814 -0.0030  0.6682 -1.0164
19479SOL     OW62798   3.400   7.323  10.796  0.0276 -0.0981 -0.4725
19479SOL    HW162799   3.491   7.321  10.826  0.2673  1.4480 -0.9709
19479SOL    HW262800   3.406   7.347  10.703 -0.9019  0.6921 -0.3500
19480SOL     OW62801   7.626  10.765   9.677  0.3075 -0.0408  0.5386
19480SOL    HW162802   7.629  10.686   9.623 -0.2049  0.6484 -0.5518
19480SOL    HW262803   7.717  10.786   9.695  0.4904 -0.2953 -0.0579
19481SOL     OW62804   5.868   4.801   6.484  0.3760  0.3939 -0.0961
19481SOL    HW162805   5.883   4.896   6.484 -1.6053  0.7635 -1.0986
19481SOL    HW262806   5.781   4.791   6.446  0.9901 -1.9155 -1.0414
19482SOL     OW62807   0.287   1.586   6.797  0.5466 -0.2227 -0.4311
19482SOL    HW162808   0.364   1.530   6.806  0.4080 -0.3442  0.0735
19482SOL    HW262809   0.318   1.674   6.818  0.2570 -0.4867  1.2590
19483SOL     OW62810  10.115   7.475   6.914  0.4888  0.2943 -0.0468
19483SOL    HW162811  10.063   7.424   6.851  0.2216 -0.2633  0.6148
19483SOL    HW262812  10.058   7.486   6.990 -0.0319  2.9241 -0.7318
19484SOL     OW62813   5.541   0.605   2.906  0.1462  0.1256  0.0094
19484SOL    HW162814   5.620   0.649   2.875  0.5225  0.6154  1.5668
19484SOL    HW262815   5.572   0.520   2.937 -0.1888 -0.2687 -0.7120
19485SOL     OW62816   4.689  10.792   2.211 -0.0421  0.6170  0.4033
19485SOL    HW162817   4.664  10.733   2.283 -0.2834  1.4945  1.0625
19485SOL    HW262818   4.606  10.812   2.167  0.3241 -1.4957 -1.4216
19486SOL     OW62819   9.612   2.532  10.544 -0.1494  0.3723 -0.5658
19486SOL    HW162820   9.564   2.608  10.577 -2.3091 -1.1334 -0.0694
19486SOL    HW262821   9.626   2.551  10.451  0.0987  1.7289 -0.2742
19487SOL     OW62822   7.436  10.121   1.369 -0.3200  0.2903 -0.2124
19487SOL    HW162823   7.366  10.108   1.432 -1.5777 -0.6642 -1.7371
19487SOL    HW262824   7.421  10.209   1.334  0.0583  0.6073  0.4086
19488SOL     OW62825   9.317   7.378   3.957  0.0548  0.5611  0.2046
19488SOL    HW162826   9.236   7.327   3.963 -0.7792  1.9552  1.3357
19488SOL    HW262827   9.358   7.369   4.043  0.8988  0.2451 -0.2125
19489SOL     OW62828   3.167  10.424  10.667 -0.4099  0.0786  0.0064
19489SOL    HW162829   3.249  10.468  10.644 -0.5203 -0.5334 -1.6682
19489SOL    HW262830   3.107  10.446  10.596 -0.9139 -1.5380 -0.1062
19490SOL     OW62831   9.446   4.360  10.150 -0.1375 -0.5935 -0.8406
19490SOL    HW162832   9.515   4.418  10.119  0.3117 -1.1096 -0.8323
19490SOL    HW262833   9.493   4.287  10.191 -0.6816  0.5424  2.0475
19491SOL     OW62834   8.853   8.623   2.815 -0.0789  0.0089 -0.2754
19491SOL    HW162835   8.826   8.548   2.762  0.6160  0.8187 -1.8778
19491SOL    HW262836   8.949   8.622   2.813 -0.0393  0.1814  0.8242
19492SOL     OW62837   7.915   3.876   8.711  0.3821  0.1296  0.2786
19492SOL    HW162838   7.872   3.897   8.628 -2.2079  0.0371  1.4919
19492SOL    HW262839   7.935   3.961   8.750 -0.1912  0.2149  0.3984
19493SOL     OW62840   3.994   6.945  10.001  0.0626 -0.1637  0.6173
19493SOL    HW162841   4.039   6.908   9.925  1.9547  0.3131  1.4483
19493SOL    HW262842   4.016   6.887  10.074 -0.8498 -0.0212  1.0309
19494SOL     OW62843   3.909   5.423   2.526 -0.3140  0.0179 -0.2572
19494SOL    HW162844   3.856   5.347   2.503 -0.0151  0.0231 -0.9917
19494SOL    HW262845   3.857   5.499   2.498  0.6725 -0.0148 -2.3363
19495SOL     OW62846   7.669   6.120   3.441 -0.1241 -0.3126 -0.5066
19495SOL    HW162847   7.737   6.098   3.505 -1.5125 -0.0951  1.1092
19495SOL    HW262848   7.636   6.035   3.412  0.6078 -0.4146 -1.0940
19496SOL     OW62849   5.205   3.342   9.662 -0.0818  0.0360 -0.4300
19496SOL    HW162850   5.221   3.407   9.731 -1.7774 -0.1062  0.1534
19496SOL    HW262851   5.292   3.309   9.640  0.4875 -1.2897  3.0196
19497SOL     OW62852   0.493   9.393  11.027 -0.3244  0.2202  0.0188
19497SOL    HW162853   0.445   9.397  11.109  1.4689  1.1091  1.0788
19497SOL    HW262854   0.551   9.469  11.029  0.3238 -0.1719 -1.7293
19498SOL     OW62855   7.086  11.003   3.224 -0.1734 -0.0805 -0.1378
19498SOL    HW162856   7.034  11.033   3.149 -0.1112 -0.5579 -0.3753
19498SOL    HW262857   7.137  11.080   3.249 -0.2506  0.1078 -0.5388
19499SOL     OW62858   3.381   2.856   4.521 -0.0919  0.4291 -0.3353
19499SOL    HW162859   3.471   2.825   4.517 -0.3839 -0.3546 -1.3743
19499SOL    HW262860   3.388   2.946   4.554  1.1051  0.5280 -0.8037
19500SOL     OW62861   1.968   8.641   9.323  0.2755 -0.1002 -0.4019
19500SOL    HW162862   2.008   8.556   9.343  1.5632  0.3886 -0.7523
19500SOL    HW262863   1.874   8.624   9.318  0.0296 -0.7849  3.4638
19501SOL     OW62864   3.378  10.479   5.128 -0.2393 -0.1583  0.5154
19501SOL    HW162865   3.284  10.467   5.113 -0.1236  0.2295 -0.6054
19501SOL    HW262866   3.398  10.421   5.201 -1.6284  0.8112  1.7273
19502SOL     OW62867   9.646   9.760   0.171 -0.2063 -0.3324  0.1412
19502SOL    HW162868   9.697   9.827   0.215  0.7027 -0.6425 -0.4082
19502SOL    HW262869   9.706   9.723   0.106 -1.3081 -0.3310 -0.9011
19503SOL     OW62870   0.801   9.479   0.864  0.2059  0.1728  0.1620
19503SOL    HW162871   0.842   9.470   0.778 -0.6403  0.2890 -0.2697
19503SOL    HW262872   0.866   9.525   0.917 -0.2596  2.6057 -1.2019
19504SOL     OW62873   2.370   1.594   7.649  0.7189 -0.4780  0.1363
19504SOL    HW162874   2.374   1.655   7.574 -0.7215 -0.0868  0.3578
19504SOL    HW262875   2.413   1.642   7.720 -1.1668  0.6944  0.5519
19505SOL     OW62876   2.083   5.082   3.061  0.2750  0.4075  0.4034
19505SOL    HW162877   2.037   5.033   3.129  0.0216  0.6653  0.4211
19505SOL    HW262878   2.176   5.062   3.075  0.2943  1.0584  1.3177
19506SOL     OW62879   4.919   8.844   1.769 -0.5836  0.0054  0.1883
19506SOL    HW162880   4.960   8.868   1.686 -1.7244 -1.3931 -0.8216
19506SOL    HW262881   4.980   8.875   1.836  0.6317  0.6544 -1.1745
19507SOL     OW62882   2.285   3.674   8.030 -0.4314 -0.1697  0.7480
19507SOL    HW162883   2.333   3.658   8.111  1.0936 -0.1847 -0.1330
19507SOL    HW262884   2.250   3.763   8.040 -2.5952 -1.1163  2.5193
19508SOL     OW62885   5.490   2.162   8.776  0.1362 -0.6256  0.1150
19508SOL    HW162886   5.446   2.091   8.823  0.7046  0.3411  2.2383
19508SOL    HW262887   5.462   2.242   8.821  2.0333  0.2120 -0.0975
19509SOL     OW62888   7.276   5.202   2.415  0.1121  0.1003 -0.4656
19509SOL    HW162889   7.318   5.280   2.452  0.9654 -1.0517  1.1395
19509SOL    HW262890   7.305   5.130   2.472 -1.0772 -1.3147 -1.5647
19510SOL     OW62891  11.024  10.516   4.478 -0.1703 -0.5132  0.0575
19510SOL    HW162892  10.993  10.568   4.404 -1.3320 -0.9899  0.1921
19510SOL    HW262893  11.118  10.538   4.485 -0.2602  0.2666 -0.9323
19511SOL     OW62894   8.639   8.744   4.046  0.8361  0.8037 -0.1643
19511SOL    HW162895   8.704   8.792   4.096  0.7421  2.6910 -1.7320
19511SOL    HW262896   8.557   8.791   4.062 -0.7913 -2.6541  3.3810
19512SOL     OW62897   9.181   8.171   0.936  0.4056 -0.0857 -0.0731
19512SOL    HW162898   9.272   8.188   0.915  0.1030  0.7682 -0.7426
19512SOL    HW262899   9.155   8.244   0.993  0.3272 -0.6925  0.6874
19513SOL     OW62900   8.722   7.111   7.356  0.1147 -0.4537  0.0895
19513SOL    HW162901   8.689   7.079   7.272 -1.0875 -2.4625  1.2624
19513SOL    HW262902   8.760   7.034   7.398  0.4499  0.4553  1.5270
19514SOL     OW62903   7.993   2.112  10.076  0.4057 -0.2497 -0.2264
19514SOL    HW162904   7.920   2.161  10.112  0.3464 -0.1400 -0.4921
19514SOL    HW262905   7.972   2.102   9.983 -1.0879 -3.4219  0.3267
19515SOL     OW62906   6.757   7.237   1.345  0.4278  0.9721 -0.4032
19515SOL    HW162907   6.767   7.233   1.250 -0.3150 -0.2000 -0.4569
19515SOL    HW262908   6.846   7.242   1.379  0.6615  3.0906 -1.1957
19516SOL     OW62909   7.373  10.835  10.783  0.2128 -0.2511  0.1449
19516SOL    HW162910   7.366  10.807  10.692 -0.7039  0.3436  0.0158
19516SOL    HW262911   7.462  10.869  10.792 -0.5122  2.3314 -1.3370
19517SOL     OW62912  10.513   2.194   2.719 -0.0345  0.3358  0.1052
19517SOL    HW162913  10.449   2.206   2.789  0.4423  0.2226  0.5736
19517SOL    HW262914  10.502   2.269   2.661 -2.7311 -1.2006 -1.5680
19518SOL     OW62915   5.724  10.474   7.340  0.1483 -0.0966  0.5448
19518SOL    HW162916   5.634  10.465   7.370 -0.3698  1.7475 -0.3499
19518SOL    HW262917   5.718  10.474   7.244  1.0395  0.5524  0.4772
19519SOL     OW62918   6.751   0.197   6.411 -0.6212 -0.3379  0.3978
19519SOL    HW162919   6.710   0.111   6.400  0.7520 -0.7459 -2.4154
19519SOL    HW262920   6.748   0.237   6.324  0.7614  1.5632  1.1364
19520SOL     OW62921   0.299   5.862   1.714 -0.7335  0.1090 -0.3840
19520SOL    HW162922   0.284   5.795   1.647 -1.2091  0.2985 -0.4727
19520SOL    HW262923   0.251   5.939   1.682 -1.4200  0.0369  0.4360
19521SOL     OW62924   4.280   8.719   4.508 -0.6482 -0.7177  0.0233
19521SOL    HW162925   4.230   8.658   4.562  0.8817 -1.2297  0.9145
19521SOL    HW262926   4.248   8.704   4.419 -2.2850 -0.7896  0.5834
19522SOL     OW62927   6.516  10.806   2.599 -0.3067  0.5489  0.4045
19522SOL    HW162928   6.539  10.894   2.570 -0.9238  0.5960  0.0412
19522SOL    HW262929   6.590  10.752   2.571 -0.2153  0.8456  0.0643
19523SOL     OW62930   2.955   1.133   5.809  0.0288  0.3543 -0.3352
19523SOL    HW162931   2.881   1.159   5.753 -0.3168  0.3220  0.1010
19523SOL    HW262932   3.022   1.199   5.791 -1.0920  2.0425  1.2834
19524SOL     OW62933   0.622   7.213   2.270  0.3350 -0.0820 -0.3051
19524SOL    HW162934   0.577   7.293   2.242  0.7682  0.3665  0.2812
19524SOL    HW262935   0.552   7.157   2.304  0.1704  0.4770  0.2843
19525SOL     OW62936   7.646  10.227  11.090 -0.4289 -0.2482 -0.3018
19525SOL    HW162937   7.726  10.209  11.042 -0.6075  2.1766 -1.6644
19525SOL    HW262938   7.577  10.232  11.023 -1.3795 -0.3695  0.6279
19526SOL     OW62939   2.834   3.604   3.861  0.3336  0.4318 -0.2283
19526SOL    HW162940   2.773   3.675   3.841 -1.5789 -1.3028 -0.9107
19526SOL    HW262941   2.857   3.616   3.953 -0.6636  1.3978 -0.0898
19527SOL     OW62942   7.046   0.852   0.704 -0.1001  0.1403 -0.0772
19527SOL    HW162943   7.106   0.833   0.631 -0.0437  1.2746 -0.3545
19527SOL    HW262944   6.975   0.789   0.693 -0.0774  0.2611 -1.1059
19528SOL     OW62945  10.183  10.758   7.529 -0.4833  0.0424  0.4279
19528SOL    HW162946  10.212  10.767   7.439 -0.6010 -1.0784  0.2559
19528SOL    HW262947  10.150  10.668   7.535 -1.0776  0.3002  1.4170
19529SOL     OW62948   2.785  10.744   7.359  0.6181  0.3323  0.1654
19529SOL    HW162949   2.800  10.780   7.271  1.3451 -0.6609 -0.1342
19529SOL    HW262950   2.761  10.820   7.412  1.1465  1.1065 -0.6702
19530SOL     OW62951   7.735   6.283   1.241 -1.0052 -0.2299  0.2784
19530SOL    HW162952   7.714   6.277   1.148 -3.1844 -3.8111  0.8020
19530SOL    HW262953   7.827   6.306   1.244 -0.7949 -0.3507 -2.7861
19531SOL     OW62954   8.814   2.298  10.598  0.5538 -0.4175 -0.1868
19531SOL    HW162955   8.842   2.210  10.575 -0.9630 -0.9390 -0.1649
19531SOL    HW262956   8.844   2.310  10.688  0.1961 -1.1807  0.0445
19532SOL     OW62957  10.326   1.219  10.235 -0.5630 -0.3653  0.5263
19532SOL    HW162958  10.335   1.299  10.287 -0.2257 -0.5848  0.8112
19532SOL    HW262959  10.310   1.150  10.300  1.2809 -0.8787  0.4844
19533SOL     OW62960  10.735  10.500   8.861 -0.2460  0.1983 -0.2437
19533SOL    HW162961  10.756  10.416   8.903 -0.4954 -0.2776 -1.0397
19533SOL    HW262962  10.679  10.476   8.787 -0.0134  1.0348 -0.7012
19534SOL     OW62963   2.601   0.397   8.575 -0.1977 -0.2554  0.0833
19534SOL    HW162964   2.669   0.369   8.513 -1.3673 -1.0522 -0.8755
19534SOL    HW262965   2.571   0.316   8.616 -1.4540 -0.0894 -0.4528
19535SOL     OW62966   9.572   1.272   5.692 -0.2688 -0.0411 -0.2858
19535SOL    HW162967   9.545   1.204   5.754 -1.3943  1.6176  1.1438
19535SOL    HW262968   9.547   1.354   5.734 -0.2120  1.2179 -2.5549
19536SOL     OW62969   4.951  10.425   3.103 -0.0450  0.4467  0.5303
19536SOL    HW162970   4.925  10.407   3.193  1.1635 -1.4836  0.5490
19536SOL    HW262971   5.023  10.488   3.111 -0.4006  0.8155  0.8641
19537SOL     OW62972   5.795   5.452   9.892 -0.3881  0.2684  0.3564
19537SOL    HW162973   5.722   5.510   9.870 -0.4573  0.4323  0.9803
19537SOL    HW262974   5.863   5.511   9.924  0.0182  0.1127 -0.2126
19538SOL     OW62975   9.691   7.056  10.357 -0.2535 -0.5332  0.6491
19538SOL    HW162976   9.771   7.105  10.379  0.2963 -0.1676 -1.8684
19538SOL    HW262977   9.714   6.965  10.375  1.3530 -0.6173 -1.4739
19539SOL     OW62978   7.761   8.021   4.181 -0.0003 -0.4287 -0.3612
19539SOL    HW162979   7.831   8.038   4.244 -0.7393 -0.8010  0.5928
19539SOL    HW262980   7.802   8.035   4.096  1.8155 -2.5535  0.0498
19540SOL     OW62981   1.740   3.650   4.704 -0.2694  0.1689  0.0619
19540SOL    HW162982   1.730   3.687   4.616  0.6109 -0.5896 -0.3711
19540SOL    HW262983   1.791   3.715   4.751  0.2636  0.0581 -0.3470
19541SOL     OW62984   5.324   5.309   5.858  0.1220 -0.0559  0.0503
19541SOL    HW162985   5.281   5.238   5.811 -0.5895  0.1344  0.4080
19541SOL    HW262986   5.360   5.268   5.936  0.6389 -0.2235 -0.2709
19542SOL     OW62987   4.692   5.229   8.655 -0.0767 -0.4544 -0.2453
19542SOL    HW162988   4.693   5.169   8.580 -1.8695 -0.0494 -0.6306
19542SOL    HW262989   4.750   5.301   8.629  0.7411 -1.1859 -0.4803
19543SOL     OW62990   7.514   6.867   6.272 -0.0874 -0.3635 -0.1547
19543SOL    HW162991   7.565   6.802   6.319 -0.0561 -0.2888 -0.0853
19543SOL    HW262992   7.433   6.876   6.322  0.3945  0.5058  0.4912
19544SOL     OW62993   9.801   5.700   9.318  0.0284 -0.0930 -0.5854
19544SOL    HW162994   9.890   5.664   9.314  0.3937  0.6733  0.2345
19544SOL    HW262995   9.756   5.661   9.243  1.3807  0.4011 -1.7086
19545SOL     OW62996   3.176   8.913  10.664 -0.2800  0.5653  0.3098
19545SOL    HW162997   3.196   8.972  10.737  1.4850  0.5326 -0.0898
19545SOL    HW262998   3.152   8.830  10.706  1.1296  0.4175  0.8971
19546SOL     OW62999   2.575   4.565   5.539 -0.6147  0.5811 -0.1123
19546SOL    HW163000   2.662   4.595   5.564 -0.4010  0.7309 -1.0158
19546SOL    HW263001   2.529   4.552   5.623  0.3444  0.2691  0.3713
19547SOL     OW63002   8.938   1.925   2.317  0.2486  0.3164  0.7050
19547SOL    HW163003   8.915   2.017   2.331  1.5335  1.1738 -2.0190
19547SOL    HW263004   8.978   1.898   2.399 -3.5875  0.9008  2.9931
19548SOL     OW63005   9.289   3.014   8.719 -0.2615 -0.1587 -0.6846
19548SOL    HW163006   9.216   2.986   8.775  0.2472 -1.2810 -0.5649
19548SOL    HW263007   9.350   3.058   8.779 -1.1236  1.4124 -0.8964
19549SOL     OW63008   7.515   8.535   7.369  0.0274  0.5294 -0.0335
19549SOL    HW163009   7.454   8.580   7.427 -1.7079 -1.4211 -0.2376
19549SOL    HW263010   7.498   8.573   7.283 -0.9777 -0.0249 -0.0975
19550SOL     OW63011   2.565  10.013   0.539  0.3960  1.1016 -0.1314
19550SOL    HW163012   2.560  10.017   0.634  0.5821  0.5467 -0.0995
19550SOL    HW263013   2.632  10.078   0.516  2.5244 -0.8149  0.3304
19551SOL     OW63014   9.283   5.485   3.433 -0.1706  0.6669  0.5585
19551SOL    HW163015   9.350   5.418   3.446 -0.9039 -0.4685 -1.2101
19551SOL    HW263016   9.332   5.567   3.423  0.8685  0.0595  0.5827
19552SOL     OW63017   1.704   8.032   2.470  0.5143 -0.1060  0.1481
19552SOL    HW163018   1.684   8.117   2.510  1.8214  0.4455 -0.3350
19552SOL    HW263019   1.793   8.041   2.436  0.0164 -1.0762 -1.5253
19553SOL     OW63020   0.700   8.907   9.572 -0.0250  0.4875 -0.0761
19553SOL    HW163021   0.705   8.994   9.611 -0.3501  0.4656  0.0169
19553SOL    HW263022   0.724   8.920   9.481 -1.2346  0.8776 -0.3556
19554SOL     OW63023  10.631   8.501   9.574  0.1376  0.1230  0.6569
19554SOL    HW163024  10.563   8.560   9.608  0.4509  0.0586  1.4082
19554SOL    HW263025  10.702   8.559   9.547 -0.3049  0.2082 -0.3745
19555SOL     OW63026   1.618  10.361   2.103 -0.0458 -0.1522 -0.0434
19555SOL    HW163027   1.684  10.302   2.139  0.2586  0.5598  0.5933
19555SOL    HW263028   1.664  10.411   2.036 -0.5818 -1.3921 -1.3841
19556SOL     OW63029   7.843   9.888   4.913 -0.3974 -0.0289 -0.0516
19556SOL    HW163030   7.875   9.836   4.839  1.9337 -0.2592  1.0193
19556SOL    HW263031   7.895   9.858   4.987 -1.7142  1.1457  1.4169
19557SOL     OW63032  10.567   7.652   2.299 -0.7083  0.0246 -0.0115
19557SOL    HW163033  10.572   7.695   2.384  2.4431 -0.4114  0.1658
19557SOL    HW263034  10.527   7.567   2.317  0.0557 -0.1221  1.1264
19558SOL     OW63035   0.959   9.984   3.198 -0.1619 -0.8059  0.1052
19558SOL    HW163036   1.010   9.987   3.117  0.0506 -0.1512  0.2523
19558SOL    HW263037   1.021  10.014   3.266 -0.5217 -0.7354  0.4054
19559SOL     OW63038   2.323   8.107   4.205 -0.4337  0.4437 -0.0683
19559SOL    HW163039   2.235   8.136   4.227 -0.8377  0.2325 -1.3284
19559SOL    HW263040   2.379   8.145   4.273 -1.5274  0.2830  0.9464
19560SOL     OW63041  10.430   7.842  10.009  0.0143 -0.6509 -0.0137
19560SOL    HW163042  10.421   7.749  10.033 -0.1725 -0.0528  2.5821
19560SOL    HW263043  10.416   7.889  10.091 -1.1813  1.7775 -1.4848
19561SOL     OW63044   5.762   8.773   6.144  0.4938  0.5121 -0.4827
19561SOL    HW163045   5.741   8.746   6.234  0.8415  1.6853 -0.0286
19561SOL    HW263046   5.841   8.826   6.153 -1.0169  3.0561 -1.0522
19562SOL     OW63047   9.112   9.347   3.012  0.0327 -0.1328  0.1385
19562SOL    HW163048   9.135   9.377   3.100  1.1325 -0.0666 -0.1508
19562SOL    HW263049   9.080   9.426   2.968  0.2729  0.0229  0.2347
19563SOL     OW63050   5.767   4.406  10.198  0.1763 -0.3162 -0.3042
19563SOL    HW163051   5.800   4.489  10.233  0.2983 -0.8658  0.9279
19563SOL    HW263052   5.683   4.393  10.242 -0.0216 -0.6658 -0.7749
19564SOL     OW63053   9.217   4.245  10.678 -0.3431 -0.2034  0.0358
19564SOL    HW163054   9.225   4.337  10.704 -1.4741  0.1524 -0.8043
19564SOL    HW263055   9.265   4.239  10.596 -0.6185 -0.2605 -0.1231
19565SOL     OW63056   5.321   2.923   9.781  0.0103 -0.2059  0.2252
19565SOL    HW163057   5.255   2.990   9.767 -0.3602 -0.7878 -0.9474
19565SOL    HW263058   5.273   2.849   9.820  0.1300 -0.3323  0.1330
19566SOL     OW63059   6.243   9.529   1.642  0.0231 -0.0326  0.1997
19566SOL    HW163060   6.320   9.572   1.678 -0.7735  3.9425 -2.2212
19566SOL    HW263061   6.279   9.454   1.593  2.2750  1.1114 -0.0553
19567SOL     OW63062   8.882   0.524   3.462  0.3584 -0.0714  0.1886
19567SOL    HW163063   8.914   0.480   3.541 -0.1610 -0.0006  0.4411
19567SOL    HW263064   8.788   0.510   3.464  0.5832 -2.4681 -1.8698
19568SOL     OW63065   3.130   1.882   6.659  0.2692 -0.2603 -0.1466
19568SOL    HW163066   3.182   1.833   6.723  1.1541 -1.5324 -1.7817
19568SOL    HW263067   3.058   1.824   6.635 -0.6953  0.6399  0.4598
19569SOL     OW63068   6.556   3.413   6.084 -0.6171  0.4748 -0.1247
19569SOL    HW163069   6.602   3.413   6.001  0.3207 -1.4716  0.3604
19569SOL    HW263070   6.532   3.322   6.100  1.5225  0.2894  2.9453
19570SOL     OW63071   9.076   0.864   4.575  0.0657  0.2229  0.3747
19570SOL    HW163072   9.151   0.923   4.574 -1.1549  1.8622 -1.3020
19570SOL    HW263073   9.111   0.781   4.542  1.4588  0.4593  1.1805
19571SOL     OW63074   8.750   2.686   9.567  0.6724 -0.2082 -0.4416
19571SOL    HW163075   8.746   2.696   9.472 -1.8249 -1.8129 -0.5897
19571SOL    HW263076   8.732   2.774   9.601 -2.3050 -0.2832 -1.5288
19572SOL     OW63077   3.719   5.546   4.983 -0.4746  0.0541  0.0483
19572SOL    HW163078   3.722   5.583   4.895 -0.4518  1.7473  0.7346
19572SOL    HW263079   3.807   5.511   4.998 -1.0641 -2.2449 -1.3820
19573SOL     OW63080   6.831   8.566   7.147 -0.2533 -0.8300  0.4829
19573SOL    HW163081   6.887   8.558   7.224 -0.7775  1.5693  1.1988
19573SOL    HW263082   6.746   8.594   7.182 -0.2632  1.1565 -0.9830
19574SOL     OW63083   5.815   4.464   3.838  0.5119 -0.8257 -0.1803
19574SOL    HW163084   5.888   4.525   3.829  0.5535 -1.0011 -1.0813
19574SOL    HW263085   5.809   4.420   3.754 -2.5077  1.2678 -1.2474
19575SOL     OW63086   1.899   5.458   1.655  0.1543  0.3677 -0.0548
19575SOL    HW163087   1.908   5.435   1.562 -0.6119  1.2977 -0.3728
19575SOL    HW263088   1.852   5.542   1.655 -1.7261 -0.6166  1.2362
19576SOL     OW63089   2.116   7.130   4.712  0.0185  0.0196  0.7483
19576SOL    HW163090   2.187   7.194   4.714  0.5268 -0.3814 -1.4720
19576SOL    HW263091   2.143   7.066   4.645 -2.1616 -0.4616  0.2396
19577SOL     OW63092   8.281   2.841   0.702  0.1257  0.6921 -0.5465
19577SOL    HW163093   8.370   2.852   0.736  0.0773  1.1489 -0.5593
19577SOL    HW263094   8.292   2.838   0.607  0.3701 -1.5699 -0.5013
19578SOL     OW63095   4.563   3.054   9.673 -0.2796  0.3160  0.6522
19578SOL    HW163096   4.655   3.076   9.658 -0.4260  0.1225 -0.5854
19578SOL    HW263097   4.515   3.113   9.615 -0.7642 -2.1062 -1.5443
19579SOL     OW63098   6.637   1.828   8.483  0.0471 -0.2536 -0.1603
19579SOL    HW163099   6.625   1.735   8.502  0.5988 -0.0512  1.3316
19579SOL    HW263100   6.556   1.854   8.439 -0.9905 -1.0003  1.2138
19580SOL     OW63101   9.516   5.671   8.907 -0.2660  0.0212 -0.6665
19580SOL    HW163102   9.560   5.750   8.942  1.1264 -1.3826  0.9597
19580SOL    HW263103   9.441   5.658   8.965 -0.7942  0.3994 -1.2493
19581SOL     OW63104   5.383   5.135   3.196 -0.6966  0.4770 -0.5171
19581SOL    HW163105   5.341   5.059   3.238 -1.4927  0.7074 -0.8658
19581SOL    HW263106   5.444   5.097   3.133  1.3402  0.0983  1.5432
19582SOL     OW63107   6.365   7.720   4.087  0.8511 -0.2350  0.4494
19582SOL    HW163108   6.392   7.632   4.112 -1.6239 -0.9532  0.8207
19582SOL    HW263109   6.293   7.708   4.025  2.0647  1.5645 -1.4603
19583SOL     OW63110   2.630   2.163   8.538  0.1287  0.1199 -0.2797
19583SOL    HW163111   2.717   2.190   8.568  0.1153  0.4367 -0.5172
19583SOL    HW263112   2.569   2.211   8.595  0.0249 -3.2324  2.8045
19584SOL     OW63113   5.320   8.206   4.514 -0.5692 -0.7508 -0.1202
19584SOL    HW163114   5.400   8.185   4.562 -0.0661 -2.0536 -1.4510
19584SOL    HW263115   5.294   8.123   4.474 -1.0474  0.2073 -1.9207
19585SOL     OW63116   5.623   2.481  11.085 -0.1653  0.5384 -0.3742
19585SOL    HW163117   5.582   2.435  11.158 -0.4887  0.6669 -0.4705
19585SOL    HW263118   5.670   2.414  11.037  0.3152  0.5096  0.1349
19586SOL     OW63119   7.201  10.976   9.549  0.2911  0.3151  0.1927
19586SOL    HW163120   7.277  10.965   9.605  0.8710 -0.3547 -0.7026
19586SOL    HW263121   7.236  11.008   9.466 -0.3850 -0.0668 -0.2525
19587SOL     OW63122   8.462  10.385   8.790 -0.1286 -0.3027 -0.4095
19587SOL    HW163123   8.413  10.464   8.813 -0.9033 -1.0453  0.5895
19587SOL    HW263124   8.437  10.321   8.857  2.2790 -0.7142  0.1868
19588SOL     OW63125   1.225  11.106   0.696  0.3722 -0.2012  0.0962
19588SOL    HW163126   1.254  11.142   0.612 -0.2297 -0.8299 -0.3975
19588SOL    HW263127   1.142  11.062   0.676  1.0823 -1.8927  0.6482
19589SOL     OW63128   2.569   9.214   0.748  0.1840 -0.1734  0.1358
19589SOL    HW163129   2.628   9.144   0.720 -0.4040 -0.1000 -1.3711
19589SOL    HW263130   2.483   9.172   0.756  0.1331  0.0460  0.7788
19590SOL     OW63131  10.984   5.827   5.947  0.3650 -0.3917 -0.5610
19590SOL    HW163132  10.912   5.828   5.885  1.2268  0.1717 -1.5890
19590SOL    HW263133  11.026   5.913   5.937  0.6834 -0.3866  0.6134
19591SOL     OW63134   9.159   1.554   3.179  0.3948  0.1221  0.0109
19591SOL    HW163135   9.254   1.553   3.168  0.3050  1.9393 -1.3986
19591SOL    HW263136   9.133   1.462   3.168  1.7741 -0.1159 -1.8851
19592SOL     OW63137   2.730   4.208   9.319 -0.1396  0.2087  0.0894
19592SOL    HW163138   2.734   4.131   9.376 -0.8641  0.2681  0.2308
19592SOL    HW263139   2.753   4.281   9.376  1.8115 -0.0127 -0.3309
19593SOL     OW63140   2.570   0.824   5.009  0.1042 -0.2817  0.1658
19593SOL    HW163141   2.521   0.742   5.022 -0.5736  0.1292  0.2317
19593SOL    HW263142   2.510   0.893   5.037  0.6880  0.2410  0.1490
19594SOL     OW63143   2.486   9.119   2.025  0.0500 -0.1987 -0.0868
19594SOL    HW163144   2.438   9.179   1.969  1.0991 -0.0852 -0.9055
19594SOL    HW263145   2.565   9.167   2.051  1.3717 -1.4818 -1.5188
19595SOL     OW63146   5.329   3.086   0.280 -0.2615  0.1695 -0.0219
19595SOL    HW163147   5.264   3.039   0.228  0.3050 -1.0624  0.3284
19595SOL    HW263148   5.324   3.176   0.250  0.6414 -0.6181 -2.8642
19596SOL     OW63149   3.107   0.785   1.376 -0.4962  0.0603 -0.1833
19596SOL    HW163150   3.140   0.874   1.387 -2.3327  0.9372 -1.3732
19596SOL    HW263151   3.163   0.747   1.308 -0.8919  0.9650 -1.0279
19597SOL     OW63152   1.571   6.405   4.090  0.3476 -0.0451  0.4807
19597SOL    HW163153   1.661   6.379   4.110  0.1840 -0.9541  0.0832
19597SOL    HW263154   1.537   6.440   4.172  0.7730 -0.5581  0.8804
19598SOL     OW63155   4.209   5.370   7.081  0.1836  0.5691 -0.7623
19598SOL    HW163156   4.292   5.333   7.053  0.3609  0.1791  0.2335
19598SOL    HW263157   4.156   5.295   7.108 -0.2495  0.8641 -0.7663
19599SOL     OW63158   2.440   9.755   7.349  0.3053 -0.0921 -0.0939
19599SOL    HW163159   2.429   9.781   7.441 -1.3146 -1.8479  0.2883
19599SOL    HW263160   2.534   9.760   7.333  0.6884 -0.2751  1.8545
19600SOL     OW63161   8.534  10.465   1.514 -0.2698 -0.1692 -0.3587
19600SOL    HW163162   8.595  10.477   1.441 -0.0581 -0.9952 -0.3302
19600SOL    HW263163   8.447  10.464   1.473 -0.3968  2.0748 -0.2901
19601SOL     OW63164   8.538   9.409   7.648  0.1305  0.2763 -0.0152
19601SOL    HW163165   8.508   9.488   7.602  1.9168  0.3392 -1.1786
19601SOL    HW263166   8.523   9.338   7.585 -0.1164 -0.0972  0.4612
19602SOL     OW63167   7.767   7.646   0.608 -0.5711  0.0231  0.1535
19602SOL    HW163168   7.722   7.611   0.531  0.6402 -0.0231 -0.5500
19602SOL    HW263169   7.835   7.703   0.573 -0.1877  0.2260  1.1936
19603SOL     OW63170   1.535   0.545   1.086  0.3061 -0.0253 -0.4925
19603SOL    HW163171   1.540   0.621   1.143  0.6267 -0.8555  0.6058
19603SOL    HW263172   1.620   0.502   1.095 -0.6582 -1.7803  0.7265
19604SOL     OW63173   8.289   6.137   0.481 -0.4228 -0.1446 -0.5310
19604SOL    HW163174   8.385   6.140   0.489 -0.3316 -0.6897 -1.3333
19604SOL    HW263175   8.261   6.225   0.506  0.2643 -0.0749  0.0224
19605SOL     OW63176   6.407   7.614   8.259  0.3305  0.0423  0.2193
19605SOL    HW163177   6.412   7.546   8.192  0.1867  1.9731 -1.8590
19605SOL    HW263178   6.488   7.664   8.249 -0.7598  1.8209 -0.2328
19606SOL     OW63179   7.010  10.697   6.128 -0.4194  0.0176  0.0129
19606SOL    HW163180   7.052  10.611   6.132  0.5515  0.5027  1.2868
19606SOL    HW263181   7.008  10.726   6.220 -0.6670  1.3686 -0.3980
19607SOL     OW63182   1.012   0.181  10.209 -0.2812 -0.1659 -0.3848
19607SOL    HW163183   1.036   0.092  10.183 -1.0534 -0.4630 -0.1048
19607SOL    HW263184   0.974   0.172  10.296  0.0537  0.5047 -0.1575
19608SOL     OW63185   8.138  10.027   2.488  0.0024 -0.6418 -0.1465
19608SOL    HW163186   8.068   9.963   2.497  0.2092 -0.7529  0.7505
19608SOL    HW263187   8.128  10.085   2.564 -1.4551  1.6835 -1.9771
19609SOL     OW63188  11.070   5.495   2.488  0.2550 -0.0413  0.0160
19609SOL    HW163189  11.165   5.499   2.475 -0.0166  2.3834 -1.7990
19609SOL    HW263190  11.043   5.586   2.499 -1.4885 -0.8112  4.5810
19610SOL     OW63191   7.345   2.645   4.973 -0.0929 -0.4806 -0.1411
19610SOL    HW163192   7.360   2.557   5.009 -1.0456  0.1351  1.9051
19610SOL    HW263193   7.344   2.702   5.050 -1.4441  1.0578 -1.2388
19611SOL     OW63194   7.397   7.000   0.528  0.0431 -0.0299 -0.1730
19611SOL    HW163195   7.309   6.963   0.528 -0.9268  2.0667 -2.2738
19611SOL    HW263196   7.409   7.035   0.440  2.6508  0.5755  0.3284
19612SOL     OW63197   6.486   8.182   1.652 -0.0743  0.1015 -0.2028
19612SOL    HW163198   6.458   8.261   1.605  1.6083  1.3279  0.7482
19612SOL    HW263199   6.568   8.157   1.609 -0.7956 -1.4474 -0.7756
19613SOL     OW63200   9.537   1.172   2.337  0.2416  0.0963  0.2911
19613SOL    HW163201   9.554   1.174   2.243 -0.7152  0.6528  0.1078
19613SOL    HW263202   9.619   1.143   2.376  0.4480 -0.8073 -0.7577
19614SOL     OW63203   8.814   9.489   9.083  0.2650  0.2851  0.3601
19614SOL    HW163204   8.742   9.530   9.035  0.3319 -1.9092 -1.7991
19614SOL    HW263205   8.892   9.533   9.052  0.1679 -0.0930 -0.4588
19615SOL     OW63206   8.947   3.877   5.190  0.2468 -0.2027  0.4599
19615SOL    HW163207   8.863   3.833   5.173 -0.9166  2.8202 -2.8971
19615SOL    HW263208   8.992   3.819   5.252 -3.0630 -3.4713  0.1808
19616SOL     OW63209   1.989   5.156   1.648 -0.0348  0.3598  0.1658
19616SOL    HW163210   1.967   5.244   1.618  1.1153  0.6678  0.1973
19616SOL    HW263211   1.956   5.152   1.738 -2.8578 -0.3266 -0.7765
19617SOL     OW63212   6.457   7.745   6.804 -0.0032 -0.3915  0.3238
19617SOL    HW163213   6.438   7.821   6.750 -0.3783 -0.1501  0.7801
19617SOL    HW263214   6.509   7.687   6.749  3.2824  1.6477  1.0119
19618SOL     OW63215   1.000   7.800   2.821 -0.0240 -0.0254 -0.8855
19618SOL    HW163216   1.046   7.818   2.739 -0.9285 -2.9501 -2.1672
19618SOL    HW263217   1.013   7.706   2.836 -2.6640 -0.2695  0.4912
19619SOL     OW63218   9.963   3.714   9.093 -0.1520  0.4415  0.3879
19619SOL    HW163219   9.920   3.776   9.035 -1.7936 -0.5290  0.4903
19619SOL    HW263220   9.952   3.751   9.181  2.2922  1.8870  0.1670
19620SOL     OW63221   6.869   7.384   3.438  0.4394 -0.0646 -0.2076
19620SOL    HW163222   6.911   7.423   3.361  0.6201 -0.7706 -0.4793
19620SOL    HW263223   6.933   7.321   3.470  0.7645  0.9088  1.1203
19621SOL     OW63224   2.976   0.058   1.922 -0.4583 -0.3419  0.1427
19621SOL    HW163225   3.004   0.110   1.847 -1.3611  0.3379  0.2732
19621SOL    HW263226   3.046   0.070   1.987  0.3925 -1.0377 -0.6119
19622SOL     OW63227  10.827   2.750   6.321 -0.1779 -0.3334 -0.5153
19622SOL    HW163228  10.891   2.766   6.390 -0.4451 -0.2863 -0.2811
19622SOL    HW263229  10.765   2.688   6.359 -0.4152 -0.1858 -0.6563
19623SOL     OW63230   7.926  10.458   9.535 -0.1183  0.4962 -0.0170
19623SOL    HW163231   7.983  10.402   9.483 -0.2916 -1.6667  1.9683
19623SOL    HW263232   7.985  10.502   9.596 -0.2215  0.8442 -0.1660
19624SOL     OW63233   1.801   8.717   1.721 -0.2000 -0.4112 -0.3927
19624SOL    HW163234   1.799   8.644   1.782 -0.8308  0.2051  0.3531
19624SOL    HW263235   1.739   8.692   1.652 -1.5292  0.0112  0.5969
19625SOL     OW63236   9.283  10.815   1.968 -0.3095 -0.1832  0.0062
19625SOL    HW163237   9.233  10.734   1.976 -0.0073 -0.3045  0.7344
19625SOL    HW263238   9.357  10.804   2.027 -0.7418  0.9711  0.8130
19626SOL     OW63239   0.617  11.071   6.162 -0.0162  0.1995 -0.0489
19626SOL    HW163240   0.687  11.047   6.101  0.9209  0.2614  0.9767
19626SOL    HW263241   0.629  11.164   6.177  1.9114 -0.3739  2.7828
19627SOL     OW63242   5.179  10.205   4.563  0.0796  0.2748  0.0487
19627SOL    HW163243   5.190  10.225   4.470 -0.3802 -1.8715 -0.5276
19627SOL    HW263244   5.114  10.135   4.565  2.3092 -1.9113  1.7281
19628SOL     OW63245  10.178   2.913   2.030 -0.3302  0.0189  0.5734
19628SOL    HW163246  10.151   2.867   2.109 -1.6684 -1.8818 -0.8836
19628SOL    HW263247  10.253   2.864   1.997 -0.4678  0.1082  0.1092
19629SOL     OW63248   9.534   7.133   4.471 -0.2549 -0.3062 -0.3871
19629SOL    HW163249   9.557   7.181   4.391  0.5331 -1.7391 -1.0573
19629SOL    HW263250   9.618   7.116   4.513 -0.7430  1.9813  1.7456
19630SOL     OW63251   9.326   9.111   9.440  0.3754  0.1097  0.2584
19630SOL    HW163252   9.369   9.093   9.524 -1.0313  1.8736  1.4385
19630SOL    HW263253   9.233   9.098   9.459 -0.0772  1.7856 -0.6585
19631SOL     OW63254   3.437   1.857   3.336 -0.0476  0.5995  0.1773
19631SOL    HW163255   3.531   1.841   3.347  0.0927  2.5578  2.8781
19631SOL    HW263256   3.424   1.947   3.367 -2.7576  0.5908 -0.6381
19632SOL     OW63257  11.001   8.278   4.229  0.6303 -0.1473  0.2610
19632SOL    HW163258  11.023   8.236   4.145 -1.2011 -0.8548  0.0820
19632SOL    HW263259  10.905   8.282   4.229  0.6501  2.3916  1.1099
19633SOL     OW63260   2.542   9.280   5.991  0.3889  0.3355 -0.0891
19633SOL    HW163261   2.602   9.234   5.932 -1.2116 -0.4114 -1.2130
19633SOL    HW263262   2.540   9.226   6.070  0.3979 -0.2247 -0.4617
19634SOL     OW63263   9.771   5.381   4.423 -0.1216 -0.4194 -0.1577
19634SOL    HW163264   9.713   5.366   4.498 -1.5776 -0.1101 -1.1787
19634SOL    HW263265   9.848   5.328   4.441 -0.1527  0.1440  1.8630
19635SOL     OW63266  10.406   1.871   2.311 -0.4253  0.4234  0.3658
19635SOL    HW163267  10.436   1.922   2.386 -1.9762  1.7506  0.1302
19635SOL    HW263268  10.429   1.924   2.235 -1.3075  0.3838  0.0648
19636SOL     OW63269   9.592   4.044   5.875 -0.4880  0.0746 -0.0159
19636SOL    HW163270   9.588   3.981   5.803 -1.0009 -0.9717  0.9138
19636SOL    HW263271   9.567   3.995   5.952  0.3821  1.1041  0.9576
19637SOL     OW63272   9.085   6.049   1.770  0.1001 -0.6778  0.1871
19637SOL    HW163273   9.096   5.976   1.831  0.9527  0.4713  1.4765
19637SOL    HW263274   9.026   6.109   1.816  1.4407  0.6038  0.2887
19638SOL     OW63275   6.085   2.612  10.729 -0.0406 -0.6236  0.3172
19638SOL    HW163276   6.013   2.560  10.766  1.0923 -1.6930  1.1385
19638SOL    HW263277   6.163   2.579  10.774  1.0190  0.2151 -0.8384
19639SOL     OW63278   6.687   4.864   3.972  0.1816 -0.6636  0.2985
19639SOL    HW163279   6.611   4.818   3.935  0.4878 -3.3198  2.6332
19639SOL    HW263280   6.682   4.952   3.934 -3.4114 -1.0321 -0.5183
19640SOL     OW63281   9.137  10.706   4.006  0.0593 -0.1478  0.6595
19640SOL    HW163282   9.192  10.726   3.931  0.4387  0.4287  1.0828
19640SOL    HW263283   9.048  10.703   3.970  0.1915  0.5099  0.2540
19641SOL     OW63284   6.827   4.094   4.660 -0.8023 -0.0212 -0.4825
19641SOL    HW163285   6.819   4.010   4.615  1.2872  0.0271 -1.0156
19641SOL    HW263286   6.820   4.072   4.753  1.6034 -1.1182 -0.4899
19642SOL     OW63287   4.490   3.915   1.383 -0.3622 -0.5613 -0.3286
19642SOL    HW163288   4.550   3.882   1.315 -0.3583  0.2234 -0.7168
19642SOL    HW263289   4.488   3.846   1.449  1.7031 -0.2206  0.1500
19643SOL     OW63290   1.759  10.169  10.718 -0.7364  0.4233 -0.0111
19643SOL    HW163291   1.835  10.228  10.717 -1.4527  1.4256 -2.1100
19643SOL    HW263292   1.711  10.191  10.638 -0.6078 -3.6410 -1.4377
19644SOL     OW63293   5.352   5.228   0.563 -0.5717 -0.3223  0.4782
19644SOL    HW163294   5.279   5.236   0.625 -0.3873  1.2830  0.5364
19644SOL    HW263295   5.323   5.278   0.487 -1.4407 -3.5035 -1.4459
19645SOL     OW63296   6.145   3.143  10.208 -0.0900 -0.7758 -0.6198
19645SOL    HW163297   6.120   3.114  10.296  0.3710  1.9733  0.5332
19645SOL    HW263298   6.063   3.164  10.165 -0.2390  0.3605  0.1627
19646SOL     OW63299   4.185   3.629   7.053  0.4225  0.4520  0.3504
19646SOL    HW163300   4.189   3.615   6.959  2.9566  0.4297  0.3855
19646SOL    HW263301   4.094   3.654   7.070  0.1292  1.4230 -2.2130
19647SOL     OW63302  10.994   5.509  10.132  0.3320 -0.2844  0.1248
19647SOL    HW163303  10.908   5.533  10.169 -0.8296 -1.8343 -1.4076
19647SOL    HW263304  11.033   5.453  10.199 -0.8203 -1.3090 -0.0072
19648SOL     OW63305   8.133   3.543   0.038 -0.0746 -0.2432 -0.2660
19648SOL    HW163306   8.224   3.531   0.011 -0.0822  1.2513 -1.0526
19648SOL    HW263307   8.135   3.617   0.099 -0.4483 -1.8296  1.8070
19649SOL     OW63308   5.138   9.069   9.190  0.0426  0.0999  0.2410
19649SOL    HW163309   5.214   9.029   9.232 -0.8166 -0.1773  1.5840
19649SOL    HW263310   5.112   9.007   9.122 -0.2286 -0.8063  1.1556
19650SOL     OW63311  10.375   7.091   5.228 -0.5061 -0.6616  0.5762
19650SOL    HW163312  10.379   7.183   5.251  1.9433 -1.0007  1.8935
19650SOL    HW263313  10.309   7.055   5.287 -2.3256  0.3872 -0.7423
19651SOL     OW63314   6.467   8.882   4.032  0.1704  0.1928  0.6273
19651SOL    HW163315   6.549   8.904   4.077  1.1309 -0.3998 -0.7696
19651SOL    HW263316   6.486   8.896   3.939 -0.4334 -2.5498  0.0117
19652SOL     OW63317   3.459  10.983   9.982  0.3108 -0.4601  0.0213
19652SOL    HW163318   3.449  10.984   9.886  0.2196 -1.0949  0.0250
19652SOL    HW263319   3.491  11.071  10.003  0.7208 -0.4447 -0.6350
19653SOL     OW63320  10.141   7.418   0.470  0.0300 -0.1435 -0.2697
19653SOL    HW163321  10.142   7.486   0.403  1.0703  0.7835  0.6540
19653SOL    HW263322  10.081   7.352   0.436 -0.0737  0.6694 -1.7436
19654SOL     OW63323   8.643   4.993   8.972  0.4278  0.0616 -0.0413
19654SOL    HW163324   8.630   5.052   8.899 -0.2779 -0.1128 -0.0661
19654SOL    HW263325   8.725   5.021   9.012 -0.5051  1.8705  0.7091
19655SOL     OW63326   1.276   3.049  10.167 -0.6110  0.1613  0.0374
19655SOL    HW163327   1.365   3.020  10.189 -0.0674  2.0806  0.5095
19655SOL    HW263328   1.281   3.074  10.075 -0.9492 -0.6912 -0.2240
19656SOL     OW63329   0.485   7.071   5.183 -0.0519 -0.0706 -0.2471
19656SOL    HW163330   0.471   7.049   5.090  0.6520  0.4919 -0.4974
19656SOL    HW263331   0.436   7.004   5.231  0.6555 -1.1837 -1.0113
19657SOL     OW63332   6.317   2.899   2.733  0.1456 -0.1874  0.0391
19657SOL    HW163333   6.244   2.840   2.745  0.0904 -0.0060  0.5875
19657SOL    HW263334   6.293   2.978   2.781  0.9387 -0.3290  0.6759
19658SOL     OW63335   9.892   7.843   4.134  0.5878  0.3650 -0.1236
19658SOL    HW163336   9.819   7.812   4.081  1.2719 -0.8809 -0.3776
19658SOL    HW263337   9.851   7.892   4.206 -0.7647 -3.0362  1.6390
19659SOL     OW63338   0.497   0.184   1.645  0.5226  1.0528  0.6049
19659SOL    HW163339   0.508   0.160   1.737  1.3609  1.3798  0.6063
19659SOL    HW263340   0.422   0.133   1.615  1.7549 -0.9758  0.8092
19660SOL     OW63341   5.193   8.082   0.353 -0.1907 -0.1872  0.3365
19660SOL    HW163342   5.217   8.173   0.370 -0.2894 -0.3074  1.1723
19660SOL    HW263343   5.264   8.030   0.393 -0.0631 -0.4732 -0.2553
19661SOL     OW63344   6.886   0.177   7.717 -0.3588  0.1577  0.1652
19661SOL    HW163345   6.941   0.099   7.716 -0.8999 -0.2519 -1.9531
19661SOL    HW263346   6.797   0.144   7.718 -0.5923  0.7326 -0.5498
19662SOL     OW63347   8.703   2.789   7.480  0.4497 -0.6929 -0.2540
19662SOL    HW163348   8.691   2.884   7.486  0.2581 -0.6594 -1.0079
19662SOL    HW263349   8.770   2.778   7.412 -1.1486 -1.1461 -1.8542
19663SOL     OW63350   4.368   9.591   6.393 -0.9149 -0.4402 -0.0740
19663SOL    HW163351   4.325   9.505   6.387 -0.5736 -0.5319 -1.4796
19663SOL    HW263352   4.296   9.653   6.404 -1.0813 -1.0163  2.7547
19664SOL     OW63353   9.544   9.866   4.467  0.1327  0.4194 -0.6251
19664SOL    HW163354   9.489   9.789   4.453 -1.8671  1.8897 -1.4904
19664SOL    HW263355   9.625   9.832   4.506 -1.5305 -1.8426  1.1384
19665SOL     OW63356   0.633   8.782   0.545  0.7143 -0.8193  0.1890
19665SOL    HW163357   0.705   8.846   0.547  0.0790 -0.0945  0.4994
19665SOL    HW263358   0.557   8.834   0.520 -0.2012 -1.0386  2.3128
19666SOL     OW63359   2.770   1.474   6.611 -0.3858 -0.0837  0.0503
19666SOL    HW163360   2.770   1.405   6.678 -0.8580  0.2696  0.4195
19666SOL    HW263361   2.821   1.437   6.539  0.8122 -0.1660  0.9194
19667SOL     OW63362   8.302   6.800  10.826  0.1150 -0.2680 -0.8944
19667SOL    HW163363   8.322   6.891  10.847 -0.2389  0.1144 -2.1539
19667SOL    HW263364   8.375   6.750  10.862 -0.2646  0.3632  0.8779
19668SOL     OW63365   9.489   0.048   5.185  0.6169 -0.6588 -1.0860
19668SOL    HW163366   9.547   0.079   5.115  0.8471 -0.4580 -0.8105
19668SOL    HW263367   9.449  -0.031   5.150  2.2177 -1.6863 -0.7291
19669SOL     OW63368   7.685   1.586   6.068  0.1355  0.5259  0.1699
19669SOL    HW163369   7.761   1.530   6.047  0.6745  0.4272  2.1102
19669SOL    HW263370   7.635   1.534   6.132 -0.0943  1.6847  0.9591
19670SOL     OW63371   7.592   7.878   3.229  0.3624 -0.1627 -0.0616
19670SOL    HW163372   7.547   7.953   3.190 -0.5549 -0.9212 -0.5228
19670SOL    HW263373   7.651   7.847   3.160 -1.9658 -2.1083 -1.3828
19671SOL     OW63374   4.000   7.727   4.306  0.5917 -0.1746  0.1218
19671SOL    HW163375   3.942   7.665   4.351  0.6202  0.9448  1.8013
19671SOL    HW263376   4.086   7.685   4.310  0.3348 -0.7481 -0.2093
19672SOL     OW63377  10.250   6.222   7.887  0.4777  0.2494 -0.4619
19672SOL    HW163378  10.227   6.270   7.967  1.1580  1.2347 -0.8367
19672SOL    HW263379  10.288   6.140   7.919  0.2463  0.3960  0.2163
19673SOL     OW63380   4.555   9.231   6.334 -0.0726  0.0538  0.0778
19673SOL    HW163381   4.526   9.167   6.270  0.2051 -0.9102  0.8764
19673SOL    HW263382   4.608   9.293   6.284  1.0702 -1.3005 -0.4582
19674SOL     OW63383   7.841   5.680   8.060 -0.0734 -0.2789 -0.5651
19674SOL    HW163384   7.874   5.737   8.129  0.4373  0.8793 -1.7110
19674SOL    HW263385   7.838   5.593   8.099  0.8573  0.2293  0.6903
19675SOL     OW63386   1.232   4.274   5.818 -0.2186  0.0834  0.0417
19675SOL    HW163387   1.292   4.263   5.891  0.8757  0.3512 -0.7973
19675SOL    HW263388   1.182   4.192   5.816  0.7658 -0.5296  0.1697
19676SOL     OW63389   6.992   4.085   3.655  0.0543  0.2534 -0.1731
19676SOL    HW163390   6.902   4.116   3.652 -0.1149 -0.2688 -0.6428
19676SOL    HW263391   6.984   3.990   3.664  0.5312 -0.0034 -2.0354
19677SOL     OW63392   8.481   8.318   8.991  0.7822 -0.2872 -0.2698
19677SOL    HW163393   8.563   8.333   9.039 -0.0414  0.5813  0.9517
19677SOL    HW263394   8.508   8.306   8.900  2.1645  1.5689 -0.1799
19678SOL     OW63395   8.618   8.172   1.285  0.9071 -0.2997  0.3048
19678SOL    HW163396   8.634   8.223   1.365  0.0938 -1.9488  1.5850
19678SOL    HW263397   8.523   8.177   1.273  1.1735  1.4986 -1.7204
19679SOL     OW63398   2.660   7.712   3.990 -0.5006  0.3687 -0.1428
19679SOL    HW163399   2.599   7.760   4.047 -1.2720  0.2260 -0.8249
19679SOL    HW263400   2.669   7.768   3.913 -1.2757 -0.4892 -0.8732
19680SOL     OW63401   4.890   4.767   4.507  0.3131 -0.0551 -0.7097
19680SOL    HW163402   4.900   4.732   4.418 -0.8898 -0.8317 -0.5687
19680SOL    HW263403   4.864   4.858   4.494 -1.6788 -0.6323 -1.2540
19681SOL     OW63404   5.373   8.945   5.242  0.4453 -0.5182 -0.6895
19681SOL    HW163405   5.423   9.018   5.277  0.3055 -0.3164 -0.9108
19681SOL    HW263406   5.430   8.869   5.255  1.1336 -0.1841 -1.6069
19682SOL     OW63407   6.618   9.007   6.425  0.0910 -0.0082 -0.0696
19682SOL    HW163408   6.579   8.967   6.503 -1.7801  1.0993 -0.3730
19682SOL    HW263409   6.699   8.958   6.411 -0.8016 -1.9367  1.0594
19683SOL     OW63410   0.829   9.090   9.803  0.4839 -0.0612  0.0409
19683SOL    HW163411   0.803   9.101   9.894 -0.7843  0.1182 -0.3239
19683SOL    HW263412   0.806   9.172   9.761 -1.1431 -0.9339 -0.9026
19684SOL     OW63413   9.876   2.135   4.346 -0.1266 -0.4623 -0.4834
19684SOL    HW163414   9.878   2.161   4.254 -0.1052 -0.9642 -0.6252
19684SOL    HW263415   9.798   2.081   4.354 -0.9075  0.7020  0.1009
19685SOL     OW63416   2.306   6.131   0.730 -0.0409  0.1459  0.7614
19685SOL    HW163417   2.270   6.220   0.729  1.2004  0.6714  0.3044
19685SOL    HW263418   2.300   6.102   0.639  1.3024  0.5256  0.5267
19686SOL     OW63419   7.535   2.725   6.632  0.7042  0.3027  0.5866
19686SOL    HW163420   7.463   2.765   6.681  0.4370  0.1463  0.3222
19686SOL    HW263421   7.595   2.694   6.700  0.6921  0.7408  0.8003
19687SOL     OW63422   7.883   7.322   3.517  0.5272  0.0066  0.0237
19687SOL    HW163423   7.853   7.336   3.427 -2.6002 -0.9279  0.7937
19687SOL    HW263424   7.857   7.233   3.538  0.0941  0.5739  2.2171
19688SOL     OW63425   5.058   6.652   9.123 -0.0504  0.0003  0.6198
19688SOL    HW163426   5.026   6.690   9.041  1.7795 -0.8735 -0.5612
19688SOL    HW263427   5.024   6.709   9.191 -1.0477  1.1549 -0.7860
19689SOL     OW63428   2.703   2.477   7.891  0.1117 -0.0209 -0.0191
19689SOL    HW163429   2.790   2.445   7.911  0.3944  1.2878  1.0298
19689SOL    HW263430   2.692   2.554   7.948 -2.0026 -0.5832  0.4384
19690SOL     OW63431   9.717   8.705   1.543 -0.1846  0.0277  0.2647
19690SOL    HW163432   9.762   8.692   1.626  1.2008 -0.1883 -0.4880
19690SOL    HW263433   9.773   8.765   1.494 -0.6512 -0.3332 -0.7539
19691SOL     OW63434  10.898   7.177   2.630  0.3641 -0.2239  0.6735
19691SOL    HW163435  10.835   7.141   2.692 -1.2766  1.9676  0.3840
19691SOL    HW263436  10.956   7.232   2.683 -1.7287  2.5652  0.2817
19692SOL     OW63437   9.196  10.383   7.005  0.1439 -0.4931  0.2595
19692SOL    HW163438   9.233  10.339   6.929 -1.3448 -0.6892 -0.3830
19692SOL    HW263439   9.268  10.437   7.038  0.6350  0.1678 -1.7283
19693SOL     OW63440   3.765  10.912   1.044 -0.4910  0.1798  0.6718
19693SOL    HW163441   3.844  10.903   1.098 -1.2046  1.2042  1.9480
19693SOL    HW263442   3.700  10.857   1.086 -0.2225 -1.4996 -0.9760
19694SOL     OW63443   3.844   0.084   5.423  0.8648  0.4024 -0.2117
19694SOL    HW163444   3.789   0.146   5.374 -0.6723 -0.2538  0.6045
19694SOL    HW263445   3.932   0.096   5.387  0.1428  1.2764 -1.7959
19695SOL     OW63446   8.469   7.417   5.194 -0.3962  0.1551 -0.2423
19695SOL    HW163447   8.464   7.512   5.205 -0.7721  0.1457 -0.3119
19695SOL    HW263448   8.386   7.384   5.230  0.6888 -0.3595  1.9403
19696SOL     OW63449  10.487   7.881   8.977 -0.4923  0.2779 -0.4817
19696SOL    HW163450  10.501   7.973   8.997  0.9911  0.4163 -1.9259
19696SOL    HW263451  10.392   7.871   8.974 -0.6781  1.9495 -1.0501
19697SOL     OW63452   7.531   8.288   0.367  0.2516  0.3304  0.1423
19697SOL    HW163453   7.474   8.328   0.301  0.6450  0.0039 -0.3947
19697SOL    HW263454   7.552   8.360   0.427  0.0607  0.6744 -0.1994
19698SOL     OW63455   9.560   7.442   9.115 -0.6622 -0.3732  0.2100
19698SOL    HW163456   9.643   7.395   9.123  0.0563  0.4484 -1.8584
19698SOL    HW263457   9.506   7.387   9.059  0.0767  0.9965 -1.9794
19699SOL     OW63458   9.478   1.325   1.379 -0.6070 -0.5045 -0.6965
19699SOL    HW163459   9.423   1.285   1.445  0.3936 -1.2760 -0.2987
19699SOL    HW263460   9.479   1.262   1.307 -2.3553  0.6923 -1.8366
19700SOL     OW63461   9.104   4.483   3.450 -0.2266  0.0793 -0.2626
19700SOL    HW163462   9.065   4.569   3.469 -0.3306 -0.0796  0.2773
19700SOL    HW263463   9.159   4.498   3.374 -0.1674  0.6521 -0.1124
19701SOL     OW63464   5.347   1.748   9.375 -0.5795  0.0301  0.2149
19701SOL    HW163465   5.288   1.683   9.415  1.1891 -2.0202 -0.3092
19701SOL    HW263466   5.394   1.786   9.450 -1.5784  0.7182  0.5207
19702SOL     OW63467   2.377   6.178   6.529  0.0855  0.0495 -0.0586
19702SOL    HW163468   2.461   6.189   6.574 -0.5454 -0.3470  1.2552
19702SOL    HW263469   2.349   6.089   6.552 -1.7586  0.9417  1.4145
19703SOL     OW63470   2.647   4.271   1.624 -0.3908  0.2831 -0.1924
19703SOL    HW163471   2.691   4.290   1.541  0.1631  3.3404  0.6576
19703SOL    HW263472   2.554   4.282   1.604 -0.5059 -1.8148 -0.9947
19704SOL     OW63473   6.100   8.579   2.867 -0.0420  0.6637 -0.0124
19704SOL    HW163474   6.086   8.625   2.950 -1.3330  0.1084  0.0990
19704SOL    HW263475   6.133   8.647   2.808 -1.1016  1.5599  0.3766
19705SOL     OW63476   3.807   7.468   4.051  0.0478 -0.0443  0.1835
19705SOL    HW163477   3.851   7.458   4.136  0.1523 -0.8759  0.0417
19705SOL    HW263478   3.714   7.476   4.074 -0.0433 -1.2676  0.3523
19706SOL     OW63479   7.107   1.750   7.421  0.2846  0.3928 -0.0344
19706SOL    HW163480   7.053   1.699   7.482 -0.1929  1.6634  0.6524
19706SOL    HW263481   7.178   1.691   7.396 -0.4730 -0.7376  0.4003
19707SOL     OW63482   0.115   3.942   3.670  0.2032 -0.1315  0.0420
19707SOL    HW163483   0.049   3.873   3.660  0.3939 -0.1011 -1.9590
19707SOL    HW263484   0.199   3.898   3.655  0.4153  0.3061 -0.0894
19708SOL     OW63485   7.798   1.691   6.336 -0.0095  0.0631 -0.3764
19708SOL    HW163486   7.714   1.668   6.297  0.4559 -0.6325 -0.9901
19708SOL    HW263487   7.842   1.607   6.352  0.3505  0.3870  0.4505
19709SOL     OW63488   1.594   6.284   1.811  0.2520 -0.2138 -0.0015
19709SOL    HW163489   1.669   6.319   1.763 -0.1962  1.2326  0.2976
19709SOL    HW263490   1.593   6.191   1.789  0.3879  0.2720 -2.3265
19710SOL     OW63491   1.357   0.780   3.634  0.2030 -0.7478  0.3479
19710SOL    HW163492   1.435   0.837   3.634 -0.3970  0.1519 -1.3735
19710SOL    HW263493   1.330   0.776   3.725  2.2643 -1.0910  0.9879
19711SOL     OW63494  11.075  10.448  10.809  0.1860  0.0590  0.3086
19711SOL    HW163495  11.126  10.472  10.886 -2.1811  1.1032  1.6814
19711SOL    HW263496  10.989  10.423  10.844 -0.5997 -0.6307 -1.9145
19712SOL     OW63497   0.874   5.217   5.460 -0.1862 -0.1028 -0.6575
19712SOL    HW163498   0.871   5.196   5.367 -1.1338  1.0374 -0.9005
19712SOL    HW263499   0.901   5.309   5.463  0.3541 -0.2783  0.2243
19713SOL     OW63500   2.556   7.253   6.639 -0.1045 -0.1574  0.0833
19713SOL    HW163501   2.570   7.168   6.681  0.4212 -0.5082 -0.7571
19713SOL    HW263502   2.469   7.246   6.600  0.1272 -0.4936 -0.3831
19714SOL     OW63503   9.441   1.757   4.608 -0.1577  0.2362 -0.2855
19714SOL    HW163504   9.431   1.701   4.531 -0.5138 -0.0214 -0.0523
19714SOL    HW263505   9.528   1.795   4.599 -0.4854  0.7874 -1.2030
19715SOL     OW63506   8.402  10.915   6.907 -0.1229  0.6805 -0.0525
19715SOL    HW163507   8.383  10.969   6.830 -0.4121 -0.3158 -0.6955
19715SOL    HW263508   8.481  10.867   6.883  1.1600  2.0585  1.1854
19716SOL     OW63509   7.256   4.559   2.468 -0.4968  0.2172  0.9564
19716SOL    HW163510   7.301   4.557   2.384  0.3204  1.6780  1.3163
19716SOL    HW263511   7.215   4.473   2.476 -0.2165 -0.1046 -0.7179
19717SOL     OW63512   1.330   7.639  10.536 -0.1910 -0.2658 -0.1472
19717SOL    HW163513   1.336   7.556  10.584  0.6157 -0.1245  0.0134
19717SOL    HW263514   1.376   7.702  10.592  0.3808 -0.0036 -0.9052
19718SOL     OW63515   2.992   6.182   3.376 -0.3874  0.4998 -0.2428
19718SOL    HW163516   2.906   6.219   3.395 -0.1712  0.6922  0.3681
19718SOL    HW263517   3.034   6.172   3.461 -0.0915 -0.3043 -0.4764
19719SOL     OW63518   2.584   8.332   0.067  0.6037  0.1274  0.3458
19719SOL    HW163519   2.550   8.252   0.027  1.9761 -1.3620  1.9706
19719SOL    HW263520   2.511   8.393   0.064 -0.1732 -0.7983 -1.8966
19720SOL     OW63521   1.972  10.793   8.863 -0.5478 -0.0446  0.4530
19720SOL    HW163522   2.030  10.782   8.938  1.2197  1.2930 -0.5967
19720SOL    HW263523   2.028  10.836   8.797 -2.5506  0.5832 -0.9196
19721SOL     OW63524   5.596   2.074   9.838  0.4113  0.3655 -0.6629
19721SOL    HW163525   5.544   2.129   9.898  0.3986  0.4396 -0.7420
19721SOL    HW263526   5.585   1.985   9.872  1.6704  0.5835  0.3829
19722SOL     OW63527  10.100   5.104   6.054  0.5005 -0.4315  0.2284
19722SOL    HW163528  10.055   5.029   6.093  2.3603 -0.4754  2.4665
19722SOL    HW263529  10.065   5.179   6.102  2.8794 -0.4979  2.2749
19723SOL     OW63530   0.672   2.770   9.552 -0.4319  0.4119 -0.0849
19723SOL    HW163531   0.678   2.845   9.611  0.3328 -0.7077  1.3412
19723SOL    HW263532   0.596   2.720   9.584 -0.4576  0.1777 -0.5085
19724SOL     OW63533   6.736   5.711  10.277 -0.1356  0.4748  0.2794
19724SOL    HW163534   6.746   5.805  10.262 -2.1151  0.4398 -1.6892
19724SOL    HW263535   6.801   5.670  10.221  0.9822  0.6353  1.4160
19725SOL     OW63536   0.656   3.733   2.944 -0.6570 -0.1381  0.6832
19725SOL    HW163537   0.674   3.703   3.033 -3.0394 -2.7759  0.4293
19725SOL    HW263538   0.564   3.758   2.946 -1.0987 -1.4208 -1.2595
19726SOL     OW63539   8.061  10.590   9.818 -0.1535  0.2132 -0.2050
19726SOL    HW163540   8.122  10.517   9.825 -0.4829  0.0057  0.6752
19726SOL    HW263541   7.978  10.556   9.853 -0.7482  0.5248 -1.2849
19727SOL     OW63542   1.713   9.150   6.062  0.6014  0.1577  0.0665
19727SOL    HW163543   1.695   9.178   6.152  0.5265 -1.0269  0.4333
19727SOL    HW263544   1.633   9.171   6.014  0.4434  0.2934  0.3860
19728SOL     OW63545   4.269   4.866   8.090 -0.1364  0.6649  0.4849
19728SOL    HW163546   4.322   4.899   8.163 -1.2928 -0.4961  1.9145
19728SOL    HW263547   4.244   4.778   8.117 -1.6775  0.6926 -0.7529
19729SOL     OW63548   4.706   8.001   4.405  0.5936  0.2037  0.6274
19729SOL    HW163549   4.696   7.943   4.330  0.9078 -0.2847  0.9531
19729SOL    HW263550   4.786   8.050   4.388  0.4366  0.3985  0.4461
19730SOL     OW63551  10.160   1.675   3.694 -0.0837  0.6003  0.5615
19730SOL    HW163552  10.153   1.595   3.745  0.0151  0.0804 -0.2306
19730SOL    HW263553  10.141   1.649   3.605 -1.9673  1.8178  0.5541
19731SOL     OW63554  10.881   2.222   8.484  0.4641  0.3112  0.3619
19731SOL    HW163555  10.851   2.309   8.458  1.6397 -0.0672 -2.7201
19731SOL    HW263556  10.966   2.236   8.524  0.8385  0.5952 -0.5040
19732SOL     OW63557   8.710   0.044   3.862  0.2198 -0.6877  0.3493
19732SOL    HW163558   8.727   0.125   3.911 -1.3600 -0.9817  1.4819
19732SOL    HW263559   8.624   0.059   3.822 -1.6286 -2.8520  3.0960
19733SOL     OW63560   0.772   4.192   2.443  0.0257 -0.4437  0.1893
19733SOL    HW163561   0.726   4.270   2.411 -0.2050 -1.3532 -1.9048
19733SOL    HW263562   0.864   4.218   2.445 -0.1175  0.0825  0.1105
19734SOL     OW63563   7.358   1.628   5.748  0.1704  0.0316  0.0223
19734SOL    HW163564   7.403   1.708   5.720 -1.4844  0.7996 -0.5925
19734SOL    HW263565   7.428   1.564   5.759  1.3645  1.0127 -1.3928
19735SOL     OW63566   1.008  11.101   4.657 -0.3030  0.2153  0.5359
19735SOL    HW163567   1.030  11.008   4.669 -1.2514 -0.0708  0.1820
19735SOL    HW263568   0.991  11.132   4.746 -1.7378 -0.4350  0.5228
19736SOL     OW63569   1.318   3.220   3.282  0.1326 -0.2111  0.0179
19736SOL    HW163570   1.290   3.304   3.247 -0.2110 -0.3334 -0.0074
19736SOL    HW263571   1.413   3.225   3.284  0.2173 -0.4413 -1.5745
19737SOL     OW63572   0.179   9.303   2.348  0.2201 -0.4028 -0.5607
19737SOL    HW163573   0.115   9.257   2.294 -0.7806 -0.4316  0.6143
19737SOL    HW263574   0.127   9.355   2.408  1.2351 -1.5261  1.3958
19738SOL     OW63575   0.254   6.340   8.182 -0.0866  0.5155  0.0627
19738SOL    HW163576   0.329   6.398   8.170  0.8908 -0.7478 -0.1964
19738SOL    HW263577   0.268   6.269   8.119 -0.0158 -1.1884  1.8766
19739SOL     OW63578   0.391   5.872   5.760 -0.0596  0.3283 -0.4365
19739SOL    HW163579   0.475   5.901   5.724 -0.9747  3.2624 -0.5150
19739SOL    HW263580   0.369   5.938   5.826 -1.3992 -1.4691  1.0214
19740SOL     OW63581   0.831   1.291   1.760 -0.5849  0.3114  0.3612
19740SOL    HW163582   0.760   1.240   1.722 -0.2377 -0.3984  0.6555
19740SOL    HW263583   0.823   1.378   1.720  0.5829 -0.7409 -2.3539
19741SOL     OW63584   0.286   8.994   6.389 -0.1024  0.4288  0.0868
19741SOL    HW163585   0.340   8.967   6.463 -1.4260  1.0635  1.3266
19741SOL    HW263586   0.314   9.084   6.370  0.5777  0.0989 -0.5364
19742SOL     OW63587  10.151   0.298   0.080  0.1014  0.6480  0.0896
19742SOL    HW163588  10.073   0.292   0.025 -0.0364  0.6302  0.2874
19742SOL    HW263589  10.142   0.382   0.126  1.0507  1.4918 -1.1767
19743SOL     OW63590   0.258   6.972  10.178 -0.3189 -0.0217  0.3362
19743SOL    HW163591   0.223   7.061  10.184  0.6159  0.4098 -0.3713
19743SOL    HW263592   0.343   6.977  10.222  0.1736 -0.3128 -0.5539
19744SOL     OW63593   4.639   2.865   5.681 -0.3014 -0.1217 -0.6086
19744SOL    HW163594   4.709   2.854   5.745  0.7659  0.9616 -1.5165
19744SOL    HW263595   4.685   2.874   5.597 -1.7094 -3.3178 -1.8682
19745SOL     OW63596   0.524   8.150   7.116  0.0783 -0.0967 -0.0788
19745SOL    HW163597   0.508   8.082   7.050  0.9905  0.5185 -0.9582
19745SOL    HW263598   0.454   8.213   7.103  0.7493  0.4621 -1.0658
19746SOL     OW63599   1.009   8.544   1.787  0.1751  0.0813  0.3437
19746SOL    HW163600   1.029   8.618   1.729 -0.0009  0.4920  0.7958
19746SOL    HW263601   0.986   8.472   1.728  1.2617  0.1076 -0.1328
19747SOL     OW63602   4.804  10.802   2.883 -0.1320  0.9660 -0.3546
19747SOL    HW163603   4.719  10.767   2.858  0.1037 -0.2021  0.3987
19747SOL    HW263604   4.848  10.820   2.800 -0.7220  0.5972 -0.7586
19748SOL     OW63605  10.532   3.565   4.008 -0.0315 -0.2648  0.1201
19748SOL    HW163606  10.597   3.579   4.077 -0.3712  0.5623  0.2932
19748SOL    HW263607  10.448   3.566   4.054 -0.4981  3.1151 -0.5426
19749SOL     OW63608   0.205   7.647   3.855  0.2434 -0.0395  0.1134
19749SOL    HW163609   0.207   7.697   3.773  0.4355  0.8947  0.6823
19749SOL    HW263610   0.216   7.712   3.924 -0.9785 -0.6697  0.9565
19750SOL     OW63611   9.244   4.837  10.596  0.1064  0.0787 -0.3627
19750SOL    HW163612   9.154   4.848  10.627  0.0805  0.0909 -0.4415
19750SOL    HW263613   9.239   4.852  10.502  0.3910  1.3029 -0.2044
19751SOL     OW63614   2.062   5.531  10.574 -0.1086  0.3650 -0.1723
19751SOL    HW163615   2.146   5.496  10.603 -0.6180 -0.1452  0.7260
19751SOL    HW263616   2.085   5.595  10.506  0.8841 -1.2226 -1.4202
19752SOL     OW63617   8.806   3.621   3.570 -0.1483  0.2285  0.1957
19752SOL    HW163618   8.823   3.662   3.485  0.2706 -1.2866 -0.4847
19752SOL    HW263619   8.710   3.621   3.577 -0.1775  0.6120 -0.1503
19753SOL     OW63620   5.640   7.265  10.803  0.0046  0.1300 -0.1855
19753SOL    HW163621   5.646   7.180  10.848 -0.1160  0.8043  1.1520
19753SOL    HW263622   5.729   7.283  10.774 -0.0411 -0.6338 -0.8530
19754SOL     OW63623   1.934  10.941   7.421 -0.4923 -0.1650 -0.0931
19754SOL    HW163624   1.944  11.006   7.491 -0.9780  0.1267 -0.2948
19754SOL    HW263625   1.855  10.968   7.374 -0.6900 -0.8984 -0.1864
19755SOL     OW63626   0.302   1.836   2.631  0.5875 -0.0029  0.1284
19755SOL    HW163627   0.326   1.747   2.604  1.2010  0.5234 -1.1557
19755SOL    HW263628   0.385   1.881   2.643  0.2841  0.3143  1.1232
19756SOL     OW63629   0.940   9.000   1.245  0.3779 -0.2161 -0.1880
19756SOL    HW163630   0.888   9.033   1.319  1.6067  2.0561 -0.2408
19756SOL    HW263631   0.925   8.906   1.245 -2.2540  0.1082  0.9224
19757SOL     OW63632   8.444   3.977   9.065  0.3658 -0.5411 -0.0492
19757SOL    HW163633   8.526   4.009   9.029  1.7740 -1.4489  2.1812
19757SOL    HW263634   8.468   3.931   9.145 -2.4371  0.2478  1.3986
19758SOL     OW63635  10.895   8.251   3.915 -0.4166 -0.5870  0.0730
19758SOL    HW163636  10.915   8.344   3.913  0.4968 -0.7877 -1.1257
19758SOL    HW263637  10.818   8.242   3.859 -0.1288 -0.6314 -0.3178
19759SOL     OW63638   6.723   7.210   9.615  0.5414 -0.0174  0.3447
19759SOL    HW163639   6.797   7.193   9.672  0.3730 -0.2899  0.4849
19759SOL    HW263640   6.718   7.133   9.558  0.4023  0.0246  0.2993
19760SOL     OW63641   1.186   8.494   0.095 -0.2576 -0.2931  0.9708
19760SOL    HW163642   1.108   8.527   0.051  1.6677 -0.1907 -2.7545
19760SOL    HW263643   1.183   8.399   0.081  0.5738 -0.2169  0.2007
19761SOL     OW63644  10.681   5.882   8.478 -0.2584  0.1181  0.2951
19761SOL    HW163645  10.590   5.908   8.466  0.0350  1.3201  0.5866
19761SOL    HW263646  10.679   5.821   8.551 -0.9037 -0.3497 -0.1047
19762SOL     OW63647   8.952   2.794   6.941 -0.2057 -0.1719  0.1373
19762SOL    HW163648   8.956   2.788   6.845 -1.3058  0.9394 -0.0106
19762SOL    HW263649   9.033   2.753   6.971  1.6524  2.0696 -1.3977
19763SOL     OW63650   0.292   4.777   7.947  0.2613  0.6106 -0.2105
19763SOL    HW163651   0.243   4.815   8.020  2.1748  0.8985  0.9823
19763SOL    HW263652   0.235   4.790   7.871 -0.9791  2.0012  0.8915
19764SOL     OW63653   5.390   5.859  10.389  0.6174 -0.2754 -0.7832
19764SOL    HW163654   5.424   5.917  10.457 -1.1946  1.9916 -1.6722
19764SOL    HW263655   5.457   5.860  10.321  0.1906  1.7465 -1.2448
19765SOL     OW63656   1.828  10.581   6.688 -0.2729 -0.6541 -0.3481
19765SOL    HW163657   1.905  10.529   6.664 -0.8861 -0.5363 -2.8463
19765SOL    HW263658   1.784  10.529   6.755  0.5404 -2.0588 -0.8566
19766SOL     OW63659  10.076   8.719   9.051  0.0080 -0.3268 -0.0268
19766SOL    HW163660  10.140   8.744   9.117  0.7592 -0.0851 -0.8294
19766SOL    HW263661   9.994   8.759   9.080 -0.0230 -1.4272  1.5111
19767SOL     OW63662   9.792   6.219   4.790  0.4653  0.1614 -0.1123
19767SOL    HW163663   9.827   6.287   4.732  1.7951  0.0267  0.5099
19767SOL    HW263664   9.865   6.159   4.804 -0.0557 -0.2212  1.0960
19768SOL     OW63665   7.563   3.383   4.806  0.1249 -0.0251 -0.2475
19768SOL    HW163666   7.619   3.369   4.882 -0.3058 -1.0447 -0.0979
19768SOL    HW263667   7.614   3.439   4.748  0.4913  0.7215  0.7496
19769SOL     OW63668   9.668   0.446   7.220  0.1108 -0.0371 -0.2971
19769SOL    HW163669   9.597   0.481   7.165 -0.6032 -0.4467  0.3428
19769SOL    HW263670   9.677   0.355   7.193  0.5294  0.0667 -0.5100
19770SOL     OW63671   2.817   3.530   6.949  0.0645  0.0183 -0.0660
19770SOL    HW163672   2.769   3.542   6.867  2.4597 -1.0923 -1.7141
19770SOL    HW263673   2.754   3.486   7.007 -2.5818  3.2160 -0.2450
19771SOL     OW63674   8.702   4.039   8.980  0.2661  0.3229  0.2806
19771SOL    HW163675   8.741   3.953   8.961 -1.8788 -0.2504 -2.0355
19771SOL    HW263676   8.767   4.102   8.948  1.0518 -0.4750  0.2615
19772SOL     OW63677   2.166   3.199   5.915  0.0432  0.2787  0.0449
19772SOL    HW163678   2.150   3.142   5.989  1.8940  1.9629  1.8500
19772SOL    HW263679   2.249   3.170   5.878 -1.8911 -2.0564 -3.0288
19773SOL     OW63680   9.453   5.202   8.260 -0.0820 -0.6488 -0.0368
19773SOL    HW163681   9.536   5.220   8.216 -0.0669  0.5387  0.4347
19773SOL    HW263682   9.392   5.265   8.222 -1.2488 -2.6087 -1.6158
19774SOL     OW63683   5.042   7.539   1.112 -0.1929  0.2256 -0.3048
19774SOL    HW163684   5.021   7.614   1.056  0.1560 -0.5281 -1.4746
19774SOL    HW263685   4.956   7.508   1.142 -0.3267  1.3363  0.5752
19775SOL     OW63686   5.633   2.790   6.650  0.1541 -0.0473  0.0537
19775SOL    HW163687   5.728   2.795   6.654  0.0595  2.1278  1.1553
19775SOL    HW263688   5.606   2.875   6.614 -1.3531 -0.9988 -1.2155
19776SOL     OW63689  10.884   2.158   4.321  0.8417 -0.0013 -0.2727
19776SOL    HW163690  10.899   2.221   4.251 -0.6082 -0.1637 -0.7584
19776SOL    HW263691  10.899   2.208   4.401  2.1338  0.2885 -0.6709
19777SOL     OW63692   9.465   5.368   6.985  0.1604  0.2102  0.1410
19777SOL    HW163693   9.440   5.305   6.917  0.9402  0.4199 -0.3425
19777SOL    HW263694   9.473   5.452   6.939 -1.1575  0.7514  0.8298
19778SOL     OW63695   4.314   3.152   6.223  0.3699  0.2328  0.5417
19778SOL    HW163696   4.231   3.122   6.261  0.1193  1.8052  1.2977
19778SOL    HW263697   4.368   3.073   6.219 -0.4909 -0.4508  1.8212
19779SOL     OW63698   1.137   0.335   8.921 -0.1244  0.6064 -0.2473
19779SOL    HW163699   1.097   0.261   8.875 -1.7786  2.0528 -1.2551
19779SOL    HW263700   1.230   0.328   8.901  0.2319 -2.6176  1.8011
19780SOL     OW63701   0.071   0.227   5.175 -0.3167  0.1645 -0.1178
19780SOL    HW163702   0.044   0.238   5.267 -1.1944 -0.6405 -0.2625
19780SOL    HW263703   0.100   0.314   5.148  0.9549  0.1931  1.2293
19781SOL     OW63704   2.210   2.911   6.964  0.1733  0.2862 -0.2761
19781SOL    HW163705   2.286   2.945   6.917  0.2656 -1.5161 -1.5357
19781SOL    HW263706   2.142   2.901   6.897 -0.5155 -0.0044  0.4422
19782SOL     OW63707   0.813   6.495   9.338 -0.3563 -0.3370 -0.5089
19782SOL    HW163708   0.903   6.486   9.369 -0.5543 -1.6853 -0.2651
19782SOL    HW263709   0.781   6.576   9.380  0.7556  0.2072 -0.6841
19783SOL     OW63710   8.717   6.286   5.818  0.2735 -0.2766 -0.7915
19783SOL    HW163711   8.813   6.294   5.822  0.2882 -0.7875  2.3973
19783SOL    HW263712   8.694   6.233   5.894 -2.7606  2.1647  0.2303
19784SOL     OW63713   7.058   4.435   7.903  0.0204  0.6716  0.4980
19784SOL    HW163714   7.126   4.483   7.856  1.0740  0.0097  1.3082
19784SOL    HW263715   7.102   4.357   7.935 -1.7397 -1.1179 -1.1566
19785SOL     OW63716   0.253   4.084   3.848 -0.1318  0.0795  0.1447
19785SOL    HW163717   0.244   4.177   3.827  0.5627  0.1178 -0.0029
19785SOL    HW263718   0.188   4.041   3.793  0.4017  0.3583 -0.7186
19786SOL     OW63719   5.037   3.382   6.960 -0.2654  0.1624  0.7096
19786SOL    HW163720   5.099   3.334   6.906  0.5287 -1.2412  2.7361
19786SOL    HW263721   5.019   3.462   6.911  0.7778 -0.7946 -1.3472
19787SOL     OW63722   7.966  10.145   3.008 -0.3693  0.4085 -0.4332
19787SOL    HW163723   7.961  10.083   3.081  0.3183  0.4407 -0.3521
19787SOL    HW263724   8.022  10.215   3.041  1.6697 -0.5512 -1.6759
19788SOL     OW63725  10.709   9.254  11.057  0.6618  0.0529  0.6094
19788SOL    HW163726  10.616   9.251  11.078  0.5038 -0.8510 -0.1465
19788SOL    HW263727  10.749   9.189  11.115  0.6043 -0.5779 -0.0472
19789SOL     OW63728   8.564   9.989  10.161 -0.1980 -0.6274  0.0631
19789SOL    HW163729   8.656  10.010  10.174  0.5974 -2.6665 -1.5957
19789SOL    HW263730   8.535   9.953  10.244  0.7475 -0.7033  0.3712
19790SOL     OW63731   6.103   3.112   7.820 -0.6420 -0.0839  0.1001
19790SOL    HW163732   6.007   3.118   7.816 -0.7446 -0.9173  0.9708
19790SOL    HW263733   6.128   3.168   7.894 -0.3726  0.7343 -0.5886
19791SOL     OW63734   6.481  10.905   7.978 -0.1075  0.0639  0.0763
19791SOL    HW163735   6.558  10.934   7.929  0.3831 -0.0938  0.7393
19791SOL    HW263736   6.472  10.970   8.049 -0.3199 -0.1660  0.2639
19792SOL     OW63737   5.455   0.634   1.796 -0.3458  0.4650  0.3244
19792SOL    HW163738   5.439   0.543   1.769 -0.2014  1.2478 -2.7598
19792SOL    HW263739   5.548   0.648   1.779 -0.6855  1.5931 -0.7133
19793SOL     OW63740   3.879   4.666   6.221 -0.6205  0.2764 -0.4647
19793SOL    HW163741   3.860   4.624   6.304 -1.0528  0.6380 -0.3785
19793SOL    HW263742   3.941   4.607   6.177  0.1637  0.4334  0.4077
19794SOL     OW63743   7.925   2.748   9.654 -0.5248 -0.2969  0.0217
19794SOL    HW163744   7.986   2.786   9.717  0.8268 -2.2647 -0.0236
19794SOL    HW263745   7.839   2.763   9.693  0.2096 -0.4574  1.8001
19795SOL     OW63746   0.323   9.119   1.085  0.1894  0.7173  0.1931
19795SOL    HW163747   0.255   9.096   1.022  0.1786  0.2543  0.3736
19795SOL    HW263748   0.403   9.125   1.032  0.1524  0.4823  0.1112
19796SOL     OW63749   1.400   4.920   4.831  0.1298  0.0448  0.5430
19796SOL    HW163750   1.433   4.975   4.759 -2.0299 -0.1246 -0.6751
19796SOL    HW263751   1.403   4.831   4.796  0.9580 -0.2976  1.4491
19797SOL     OW63752   6.221   0.647   2.143  0.2772  0.5475 -0.3450
19797SOL    HW163753   6.261   0.734   2.143 -0.4703  0.9124 -1.8796
19797SOL    HW263754   6.223   0.620   2.235 -1.6991  3.1959  0.5826
19798SOL     OW63755   1.722  10.603   4.267 -0.6996  0.1685  0.3994
19798SOL    HW163756   1.787  10.541   4.300  1.4504  1.5888 -0.9674
19798SOL    HW263757   1.740  10.685   4.312 -2.2311  0.3729  0.7210
19799SOL     OW63758   4.079   9.657   3.464  0.4278  0.1527  0.0816
19799SOL    HW163759   4.015   9.586   3.457  1.7413 -0.9951 -0.9196
19799SOL    HW263760   4.068   9.708   3.384  0.2713  0.3818  0.2503
19800SOL     OW63761   5.168   1.474   2.538 -0.0174  0.0528 -0.3024
19800SOL    HW163762   5.098   1.530   2.572 -0.1980  0.5529 -1.4536
19800SOL    HW263763   5.169   1.490   2.444  0.0844 -1.7211 -0.6402
19801SOL     OW63764   2.033  10.386   6.166 -0.2656 -0.0503 -0.1154
19801SOL    HW163765   1.968  10.450   6.136  2.0175  2.0101 -1.0298
19801SOL    HW263766   2.114  10.436   6.173  1.7447 -2.9381 -1.1126
19802SOL     OW63767   6.990   6.822   6.184 -0.0421  0.6485  0.3527
19802SOL    HW163768   7.064   6.798   6.129 -0.6776  1.0318 -0.7057
19802SOL    HW263769   7.004   6.915   6.204  1.8131 -0.1569  3.4877
19803SOL     OW63770   3.255   1.668   7.140  0.2829  0.2553  0.0676
19803SOL    HW163771   3.309   1.599   7.102 -1.0415 -0.2420 -0.9931
19803SOL    HW263772   3.203   1.701   7.067  0.5432  2.0920  0.6418
19804SOL     OW63773   7.440   7.434   9.293  0.3399 -0.2827  0.2378
19804SOL    HW163774   7.389   7.481   9.360  1.6953  3.2109 -0.9635
19804SOL    HW263775   7.376   7.379   9.248 -1.1004 -0.7086  2.6368
19805SOL     OW63776   0.541   9.580   1.873  0.3388  0.9217  0.3308
19805SOL    HW163777   0.488   9.501   1.867 -0.7170  1.6035  0.3452
19805SOL    HW263778   0.528   9.612   1.962  0.7634  1.1045  0.3304
19806SOL     OW63779   3.856   3.370   6.007 -0.2607 -0.2242 -0.4255
19806SOL    HW163780   3.859   3.361   5.912 -2.5713  0.6876 -0.6722
19806SOL    HW263781   3.779   3.426   6.023  1.2946  1.4597  1.8757
19807SOL     OW63782   1.898   6.321   6.392 -0.3058 -0.3406 -0.4387
19807SOL    HW163783   1.915   6.232   6.363  0.8633 -0.0229 -0.7603
19807SOL    HW263784   1.813   6.343   6.353  0.4629 -0.5035 -2.2818
19808SOL     OW63785   6.876   8.298   8.499  0.0806  0.6296  0.3596
19808SOL    HW163786   6.934   8.371   8.477  0.9471 -0.3738 -0.8336
19808SOL    HW263787   6.795   8.317   8.452 -0.1528  1.4138  1.0431
19809SOL     OW63788   3.099   7.850   1.695 -0.3035 -0.0185 -0.5706
19809SOL    HW163789   3.183   7.819   1.660  0.0036  1.3106 -1.0607
19809SOL    HW263790   3.036   7.833   1.624 -0.3668 -0.5573 -0.3929
19810SOL     OW63791  10.086   1.042   4.038 -0.0032 -0.1764  0.2534
19810SOL    HW163792  10.058   0.962   4.082  1.3146 -0.9489 -0.2326
19810SOL    HW263793  10.170   1.019   3.998  0.5633  1.5458  0.3617
19811SOL     OW63794   6.698   5.491   7.042 -0.0804 -0.2029 -0.1595
19811SOL    HW163795   6.638   5.539   7.099 -3.1320 -1.7989 -1.7853
19811SOL    HW263796   6.683   5.527   6.955  0.4206 -1.4885 -0.7977
19812SOL     OW63797   0.103   2.707  10.147 -0.6111  0.3929 -0.0739
19812SOL    HW163798   0.105   2.701  10.243 -1.4723 -2.0569 -0.1561
19812SOL    HW263799   0.014   2.734  10.127 -0.8102 -0.3511 -0.2122
19813SOL     OW63800   0.326   5.783   1.144  0.1131  0.1500 -0.2116
19813SOL    HW163801   0.308   5.766   1.237  1.5075 -1.2420 -0.1492
19813SOL    HW263802   0.268   5.723   1.097 -0.5138  0.7768 -0.2469
19814SOL     OW63803   3.195   2.300   8.712  0.1628 -0.1453 -0.4555
19814SOL    HW163804   3.229   2.350   8.638  2.4846 -3.8495 -2.2393
19814SOL    HW263805   3.180   2.212   8.676 -1.5157 -1.3857  2.8421
19815SOL     OW63806   9.267   1.298   5.427  0.4208 -0.1210  0.1000
19815SOL    HW163807   9.294   1.369   5.369  1.4140 -1.0281 -0.5887
19815SOL    HW263808   9.184   1.268   5.390 -1.1925  2.0408  1.6611
19816SOL     OW63809   6.374   8.619   4.086 -1.0749  0.3126 -0.6271
19816SOL    HW163810   6.393   8.564   4.010 -2.2138 -0.0681 -0.6692
19816SOL    HW263811   6.379   8.709   4.052 -1.4044  0.1522 -1.1198
19817SOL     OW63812   6.133   5.704   3.186  0.1666 -0.0381 -0.4897
19817SOL    HW163813   6.117   5.694   3.280  0.2392 -2.2512 -0.6736
19817SOL    HW263814   6.204   5.768   3.181 -0.6562  1.0265  0.8843
19818SOL     OW63815   8.365   0.497   8.191 -0.3215  0.0192 -0.0096
19818SOL    HW163816   8.292   0.480   8.250 -3.1258  0.7282 -2.9559
19818SOL    HW263817   8.354   0.588   8.164  0.6961 -0.2989 -1.6974
19819SOL     OW63818   3.908   8.580   7.771 -0.0391  0.0070  0.4076
19819SOL    HW163819   3.823   8.546   7.797  0.1242  0.1049  1.0789
19819SOL    HW263820   3.964   8.503   7.765 -0.1550 -0.0509  0.0173
19820SOL     OW63821   4.829   5.051   1.719  0.2932  0.0473 -0.1888
19820SOL    HW163822   4.865   5.050   1.630  1.3393  2.0292  0.1648
19820SOL    HW263823   4.799   5.141   1.731 -0.6334 -0.4154  1.1931
19821SOL     OW63824  10.498   2.273   3.061 -0.0273  0.2993 -0.3063
19821SOL    HW163825  10.505   2.304   3.151  0.8271 -0.6986 -0.0195
19821SOL    HW263826  10.488   2.354   3.009 -0.2587  0.8964  0.6395
19822SOL     OW63827   6.053   3.300   5.609  0.1977  0.1444  0.6880
19822SOL    HW163828   6.048   3.204   5.611 -1.2583  0.1598 -0.3193
19822SOL    HW263829   6.145   3.320   5.629  0.9684 -1.5332 -0.8941
19823SOL     OW63830   3.764   0.081   8.828 -0.1371 -0.5558  0.1424
19823SOL    HW163831   3.839   0.120   8.871 -0.8306 -2.2207  3.1670
19823SOL    HW263832   3.706   0.155   8.807  0.5634  0.4001  1.4918
19824SOL     OW63833   3.432   6.189   2.554 -1.0542  0.1623 -0.5387
19824SOL    HW163834   3.388   6.183   2.639 -0.1830 -0.8516 -0.1358
19824SOL    HW263835   3.389   6.263   2.510 -2.8810 -0.5169 -0.0140
19825SOL     OW63836   9.216   9.981   5.725 -0.1406  0.5080 -0.3444
19825SOL    HW163837   9.280  10.052   5.723  0.3539  0.1592  1.3561
19825SOL    HW263838   9.178   9.985   5.813 -0.4779 -0.9842 -0.3897
19826SOL     OW63839   9.032   7.120   4.820 -0.0321  0.1691  0.7066
19826SOL    HW163840   9.123   7.148   4.808 -0.1708  0.2571 -0.1798
19826SOL    HW263841   8.997   7.112   4.731 -0.5442 -1.0160  0.9933
19827SOL     OW63842   2.430   6.386   0.552 -0.3369 -0.6444  0.2275
19827SOL    HW163843   2.490   6.386   0.627  1.2124  0.0830 -0.9610
19827SOL    HW263844   2.443   6.300   0.511  0.2347 -0.3231 -0.2771
19828SOL     OW63845   4.557   1.129   2.905 -0.0639 -0.3063  0.1682
19828SOL    HW163846   4.585   1.142   2.996  2.4146 -1.1687 -0.3987
19828SOL    HW263847   4.617   1.062   2.871 -0.9289 -0.0034 -2.1052
19829SOL     OW63848   3.104   4.525   8.614  0.2533 -0.0168 -0.0818
19829SOL    HW163849   3.045   4.516   8.539  1.2054 -0.3860 -0.7992
19829SOL    HW263850   3.053   4.492   8.689 -0.5795  0.0331 -0.6198
19830SOL     OW63851   1.967   3.331   9.008 -0.0028  0.1565  0.0684
19830SOL    HW163852   1.958   3.324   9.104  0.6845  1.7582  0.2768
19830SOL    HW263853   2.018   3.410   8.995 -0.5578  0.2554 -1.6695
19831SOL     OW63854   4.139  10.699   3.510  0.3225 -0.0658 -0.6121
19831SOL    HW163855   4.091  10.675   3.589 -1.2796  0.8081 -1.2802
19831SOL    HW263856   4.158  10.616   3.467  0.1090 -0.4679  0.0599
19832SOL     OW63857   1.875  10.449   3.158 -0.2219 -0.4721 -0.0050
19832SOL    HW163858   1.807  10.435   3.223  1.2723 -2.0372  1.3009
19832SOL    HW263859   1.918  10.530   3.186 -0.3375 -0.5006  0.2560
19833SOL     OW63860  10.983  10.007   1.823 -0.5621 -1.0203 -0.3834
19833SOL    HW163861  10.923  10.081   1.820 -1.7609 -1.8313  1.5665
19833SOL    HW263862  10.947   9.945   1.759  0.4647  0.0239 -2.0468
19834SOL     OW63863   5.038   1.847   2.459  0.2923  0.2416 -1.0126
19834SOL    HW163864   5.068   1.932   2.427 -1.4597  1.2164 -0.1900
19834SOL    HW263865   5.096   1.828   2.533 -0.4415  1.6333 -0.0353
19835SOL     OW63866   6.850   9.099   1.828 -0.3162  0.2657  0.2493
19835SOL    HW163867   6.907   9.079   1.754  0.1997 -1.9470  1.1755
19835SOL    HW263868   6.902   9.159   1.882  0.8024 -0.9988  0.6194
19836SOL     OW63869   4.732   3.746   4.062  0.2218 -0.6157  0.3740
19836SOL    HW163870   4.761   3.660   4.032 -0.6114 -1.0278  0.7342
19836SOL    HW263871   4.653   3.729   4.113 -0.9013  0.5142 -0.9111
19837SOL     OW63872   3.025   0.359   7.872 -0.3848 -0.1656 -0.2756
19837SOL    HW163873   3.118   0.385   7.875  0.1107 -1.8043 -0.3134
19837SOL    HW263874   2.980   0.437   7.838  0.6707  1.3862  1.6664
19838SOL     OW63875   2.218  10.497   0.983  0.0987  0.1723  0.0096
19838SOL    HW163876   2.268  10.496   0.901  0.8042  1.1630  0.4031
19838SOL    HW263877   2.131  10.467   0.959  0.6826 -0.9219 -0.8364
19839SOL     OW63878   4.878   7.817   0.474  0.3076  1.3747 -0.5812
19839SOL    HW163879   4.908   7.783   0.559 -1.8654  1.6050  0.3308
19839SOL    HW263880   4.946   7.790   0.413  0.0994 -2.2247  0.5330
19840SOL     OW63881   2.835   9.239   4.646  0.5054  0.4457 -0.0517
19840SOL    HW163882   2.829   9.334   4.634 -1.7027  0.4670  0.7210
19840SOL    HW263883   2.791   9.223   4.729  2.8097 -1.0799  0.9827
19841SOL     OW63884   1.659   3.921   5.183 -0.0846 -0.3466 -0.1351
19841SOL    HW163885   1.652   4.016   5.171 -0.1307 -0.4164 -0.6782
19841SOL    HW263886   1.605   3.884   5.113 -0.4393 -0.7694  0.3557
19842SOL     OW63887  10.921  11.093   9.371 -0.1562 -0.3491  0.3424
19842SOL    HW163888  11.015  11.104   9.357 -0.0079  0.5690  1.8581
19842SOL    HW263889  10.913  11.011   9.418 -0.1107 -0.3700  0.3140
19843SOL     OW63890   0.779   8.285   5.255 -0.4560  0.8084 -0.1670
19843SOL    HW163891   0.835   8.207   5.263  1.6464  2.2635  0.2581
19843SOL    HW263892   0.716   8.262   5.187 -0.2938 -1.4680  0.3801
19844SOL     OW63893   1.119   3.849   0.729 -0.5635  0.0179 -0.2045
19844SOL    HW163894   1.110   3.900   0.809  4.1960  0.6765  0.1972
19844SOL    HW263895   1.141   3.760   0.759  2.5384  0.5470 -0.5005
19845SOL     OW63896   7.979   2.857   1.052 -0.0189 -0.0527 -0.2658
19845SOL    HW163897   7.967   2.856   1.147 -1.9861 -1.6155 -0.4553
19845SOL    HW263898   7.890   2.851   1.017  0.6672  0.5111 -2.2161
19846SOL     OW63899   6.550   6.188   7.602 -0.3123 -0.7870 -0.5181
19846SOL    HW163900   6.619   6.183   7.536  0.5040 -1.3408  0.3447
19846SOL    HW263901   6.535   6.097   7.628  0.8986 -0.4686  1.5433
19847SOL     OW63902   2.489  10.403  10.188  1.0808 -0.0389 -0.3593
19847SOL    HW163903   2.423  10.360  10.133  2.3543  0.1242 -2.0926
19847SOL    HW263904   2.466  10.496  10.183 -1.2289 -0.2689  2.7935
19848SOL     OW63905   4.812  10.351   2.691  0.2890  0.3917  0.0367
19848SOL    HW163906   4.818  10.274   2.748 -1.5480  0.4139  0.3228
19848SOL    HW263907   4.875  10.335   2.622  0.2756 -1.1607  0.3527
19849SOL     OW63908   6.038   3.392   7.667 -0.5925 -0.5884  0.6621
19849SOL    HW163909   6.012   3.300   7.672 -1.3285 -0.5298 -1.1411
19849SOL    HW263910   6.079   3.400   7.580  1.4502  0.3347  1.6419
19850SOL     OW63911   0.950   4.242   7.680  0.0820  0.5295  0.3005
19850SOL    HW163912   0.953   4.164   7.625  0.1887  0.9194 -0.2596
19850SOL    HW263913   0.892   4.302   7.634  0.6387  1.0866  0.3052
19851SOL     OW63914   3.071   5.382  11.020 -0.1088  0.0649 -0.3123
19851SOL    HW163915   3.082   5.447  10.950 -2.8333  0.0758 -0.8414
19851SOL    HW263916   3.020   5.312  10.980 -0.1189 -0.8093  1.1708
19852SOL     OW63917  11.080  10.832   1.715  0.1756  0.0959 -0.3991
19852SOL    HW163918  11.006  10.873   1.759  0.6337  1.3841 -0.7841
19852SOL    HW263919  11.118  10.774   1.780 -0.1316  0.7425  0.3755
19853SOL     OW63920   5.071   9.726   2.410 -0.0899 -0.1012 -0.5826
19853SOL    HW163921   5.117   9.785   2.470 -0.8747 -1.1059  1.1141
19853SOL    HW263922   5.108   9.640   2.429 -2.2878 -0.8856  0.5616
19854SOL     OW63923   3.827   2.361   6.027 -0.1686  0.2483  0.1677
19854SOL    HW163924   3.737   2.334   6.045 -0.3721  0.0397 -1.0251
19854SOL    HW263925   3.836   2.352   5.932  1.1370  0.1983  0.2712
19855SOL     OW63926   5.645   5.961   2.082 -0.0756 -0.1021  0.2377
19855SOL    HW163927   5.699   5.916   2.017  0.4071  1.3409 -0.3962
19855SOL    HW263928   5.705   6.017   2.131 -0.6175 -0.3105  1.1699
19856SOL     OW63929   6.943   4.550   2.745  0.4992 -0.4217 -0.5092
19856SOL    HW163930   7.034   4.529   2.768 -0.0650 -0.5613  1.7560
19856SOL    HW263931   6.898   4.466   2.743 -0.0759 -0.1555  0.7399
19857SOL     OW63932   3.857   7.636   0.391 -0.8216  0.1118  0.5760
19857SOL    HW163933   3.778   7.643   0.445 -0.3563 -1.3916  1.5306
19857SOL    HW263934   3.853   7.548   0.355 -0.2031  0.4704 -0.4019
19858SOL     OW63935   0.263   3.906   3.228  0.4754  0.7214 -0.0824
19858SOL    HW163936   0.305   3.991   3.240 -1.0669  1.6255 -0.7896
19858SOL    HW263937   0.174   3.927   3.200  0.1324 -1.1413 -0.5192
19859SOL     OW63938   1.842  10.574   1.109 -0.8070 -0.2799  0.8011
19859SOL    HW163939   1.842  10.557   1.015  1.2408 -1.0202  0.8733
19859SOL    HW263940   1.916  10.633   1.123 -1.3742  0.2033  1.8929
19860SOL     OW63941   5.354   9.326   0.415  0.5489 -0.0810 -0.8336
19860SOL    HW163942   5.336   9.403   0.469  2.0208  0.0052 -0.4144
19860SOL    HW263943   5.268   9.286   0.400  0.0770 -0.1128  1.5823
19861SOL     OW63944   9.491   2.432   2.423 -0.2372 -0.1275 -0.3520
19861SOL    HW163945   9.413   2.486   2.434 -1.2933 -1.5785 -0.4835
19861SOL    HW263946   9.555   2.470   2.483 -1.2135  0.7569  0.1558
19862SOL     OW63947   1.350   4.692   1.969 -0.6609 -0.0374  0.1510
19862SOL    HW163948   1.257   4.673   1.966 -0.5901 -0.7989  1.7364
19862SOL    HW263949   1.393   4.608   1.954 -0.2782 -0.0550  1.2075
19863SOL     OW63950   0.361   6.705  10.409  0.1299  0.4122  0.2144
19863SOL    HW163951   0.353   6.775  10.474  0.0789  0.3539  0.2715
19863SOL    HW263952   0.324   6.628  10.452  1.6781 -0.0607  0.7629
19864SOL     OW63953   9.503   4.719   0.297  0.2747  0.2079 -0.3793
19864SOL    HW163954   9.478   4.793   0.351  1.2828 -0.2339  0.7676
19864SOL    HW263955   9.428   4.702   0.242 -0.1506  1.7686 -0.3200
19865SOL     OW63956   9.267   3.724   6.088 -0.1692 -0.3007 -0.1094
19865SOL    HW163957   9.291   3.750   6.177  0.6554  0.0804 -0.4250
19865SOL    HW263958   9.345   3.681   6.054 -0.0868  0.5111 -1.0046
19866SOL     OW63959   1.197   9.841   1.254 -0.1760 -0.1631  0.4060
19866SOL    HW163960   1.176   9.929   1.286 -1.6434 -0.7354  1.1174
19866SOL    HW263961   1.278   9.852   1.205  0.7044  1.2572  2.0640
19867SOL     OW63962   8.632  10.686   4.257  0.4488  0.0555 -0.2569
19867SOL    HW163963   8.603  10.695   4.166  0.5334  1.4890 -0.1644
19867SOL    HW263964   8.680  10.603   4.258 -1.2381 -0.9905 -1.0395
19868SOL     OW63965   9.963   3.388  10.015 -0.5925  0.1945  0.1869
19868SOL    HW163966   9.869   3.394  10.034 -0.6846  1.6022 -0.5526
19868SOL    HW263967   9.998   3.337  10.087 -1.7350  0.8036  1.2341
19869SOL     OW63968   2.488   8.415   3.358 -0.4204  0.2990 -0.0294
19869SOL    HW163969   2.582   8.402   3.344 -0.0137  1.8701  1.0698
19869SOL    HW263970   2.449   8.329   3.338  1.2859 -0.5199 -0.0105
19870SOL     OW63971   8.916   0.751   2.364  0.3153  0.0098 -0.2099
19870SOL    HW163972   8.872   0.668   2.383  0.9316 -0.5279 -1.0734
19870SOL    HW263973   8.943   0.783   2.450 -1.6038  0.2920  0.3331
19871SOL     OW63974   2.215   3.734   5.002 -0.0161  0.1559 -0.1335
19871SOL    HW163975   2.215   3.802   4.935 -2.3494  0.6731  0.2953
19871SOL    HW263976   2.303   3.697   4.999  0.0103  0.1851 -3.4622
19872SOL     OW63977   7.823   8.674   5.841  0.4226  0.5837  0.1450
19872SOL    HW163978   7.884   8.656   5.913  1.6770  0.0422 -1.0153
19872SOL    HW263979   7.748   8.616   5.858  0.5436  0.7154  1.1885
19873SOL     OW63980   9.764   4.423   9.043  0.1902  0.3495  0.5378
19873SOL    HW163981   9.804   4.482   8.980  0.1797  0.7910  0.9433
19873SOL    HW263982   9.802   4.447   9.127  1.3043 -1.1864  0.5200
19874SOL     OW63983   1.602   0.015   7.852  0.0094 -0.1648 -0.4096
19874SOL    HW163984   1.622   0.016   7.758 -0.5287 -0.9018 -0.5422
19874SOL    HW263985   1.508  -0.001   7.856  0.1914 -1.1812  0.2672
19875SOL     OW63986   2.943   7.824  10.459 -0.4850 -1.1792  0.1431
19875SOL    HW163987   3.023   7.793  10.501  0.8998  1.3968 -0.3609
19875SOL    HW263988   2.973   7.891  10.398 -3.0342 -0.2189 -0.1646
19876SOL     OW63989   3.624   1.375   6.046  0.5516 -0.0805  0.3511
19876SOL    HW163990   3.650   1.341   5.960 -0.3852 -0.8891  0.3800
19876SOL    HW263991   3.597   1.298   6.096  1.5038  0.3167  1.5501
19877SOL     OW63992   7.540  10.045   9.438  0.1866  0.1667 -0.1815
19877SOL    HW163993   7.477  10.082   9.376  0.2630 -2.4447 -1.9733
19877SOL    HW263994   7.495  10.049   9.523 -1.5235  0.3407 -1.0509
19878SOL     OW63995   8.291   5.205   1.666 -0.4251  0.1619 -0.2168
19878SOL    HW163996   8.343   5.138   1.712 -1.7866 -0.9272 -0.1828
19878SOL    HW263997   8.227   5.233   1.731 -0.4870  0.8018 -0.5466
19879SOL     OW63998   0.088   1.278   0.212 -0.0382  0.1793  0.3573
19879SOL    HW163999   0.001   1.242   0.197 -0.7828  1.5991  1.0695
19879SOL    HW264000   0.108   1.326   0.132 -0.3410  0.6638  0.5677
19880SOL     OW64001   3.695   5.681   0.174 -0.0380  0.5764  0.7001
19880SOL    HW164002   3.757   5.698   0.103 -1.2157 -1.3118 -0.9052
19880SOL    HW264003   3.750   5.652   0.247  1.0372 -1.5358 -0.8319
19881SOL     OW64004   5.863   4.966   0.883 -0.6165  0.0899 -0.0444
19881SOL    HW164005   5.817   5.028   0.826  0.1353 -0.5222 -1.3542
19881SOL    HW264006   5.820   4.976   0.968  0.3000  3.3378  0.1711
19882SOL     OW64007   8.697   6.218   6.466 -0.4392 -0.0705 -0.1465
19882SOL    HW164008   8.743   6.288   6.420 -0.3534  0.4757  0.7582
19882SOL    HW264009   8.614   6.208   6.418  0.0956 -0.2514 -1.0607
19883SOL     OW64010  10.845   1.735  10.212 -0.1176  0.2642  0.2878
19883SOL    HW164011  10.777   1.798  10.186  0.6504  1.3761  0.8547
19883SOL    HW264012  10.844   1.668  10.144 -0.6736  1.1377 -0.5875
19884SOL     OW64013   1.606   6.837   5.177 -0.2154  0.4135  0.3761
19884SOL    HW164014   1.587   6.929   5.165 -0.7212  0.0239 -2.2321
19884SOL    HW264015   1.548   6.809   5.248 -1.5928  1.6232 -0.2491
19885SOL     OW64016  10.357  10.109   3.572  0.5671  0.6634  0.5851
19885SOL    HW164017  10.338  10.196   3.607 -0.5250  0.6538  0.0695
19885SOL    HW264018  10.436  10.082   3.618 -0.1113  1.1543  2.1311
19886SOL     OW64019   1.684   1.666   3.774 -0.2617  0.5708  0.2472
19886SOL    HW164020   1.691   1.663   3.869  0.4930  2.2889  0.2957
19886SOL    HW264021   1.590   1.675   3.757 -0.6916 -2.1753  0.6528
19887SOL     OW64022   9.682   4.300   7.912 -0.6280 -0.6102  0.1601
19887SOL    HW164023   9.656   4.276   7.824 -1.8267 -0.4812  0.4634
19887SOL    HW264024   9.603   4.289   7.965  0.2095 -1.2560  1.3350
19888SOL     OW64025   0.980  10.548   6.659  0.0422  0.1965  0.3375
19888SOL    HW164026   1.002  10.601   6.582 -1.7908 -0.5035 -0.7302
19888SOL    HW264027   0.969  10.459   6.625  0.0707 -0.3117  1.5882
19889SOL     OW64028   1.247   4.294   7.587  0.2566 -0.9012 -0.1854
19889SOL    HW164029   1.212   4.248   7.510  1.5663 -2.0383 -0.1234
19889SOL    HW264030   1.323   4.242   7.614  0.9685  0.5653  0.7195
19890SOL     OW64031   2.701   6.213   0.597 -0.2273 -0.2003  0.1979
19890SOL    HW164032   2.669   6.150   0.661 -1.7858  1.0081  0.6664
19890SOL    HW264033   2.773   6.258   0.641 -1.6288  0.9941  1.3763
19891SOL     OW64034   2.240   4.881   9.273 -0.5455  0.0747  0.3423
19891SOL    HW164035   2.164   4.822   9.268 -1.0788  0.6444  1.3221
19891SOL    HW264036   2.316   4.823   9.271 -1.0310 -0.5728  0.2836
19892SOL     OW64037   4.417   4.473   5.987  0.0137  0.6392 -0.4738
19892SOL    HW164038   4.430   4.426   5.905 -0.6061  0.7272 -0.6302
19892SOL    HW264039   4.453   4.414   6.054 -0.8218 -0.1082 -0.6571
19893SOL     OW64040   9.569   5.648   8.641  0.0184  0.1284  0.3177
19893SOL    HW164041   9.562   5.642   8.736  1.6412  0.8048  0.5019
19893SOL    HW264042   9.633   5.581   8.617 -0.5799 -0.2230 -0.3373
19894SOL     OW64043   2.625   6.096   7.429 -0.1994 -0.3328 -0.0478
19894SOL    HW164044   2.643   6.047   7.510  0.4601 -1.4897 -0.8733
19894SOL    HW264045   2.553   6.047   7.387  1.7099 -1.7893 -1.8067
19895SOL     OW64046   1.025   6.002   0.924  0.2115 -0.0546  0.5897
19895SOL    HW164047   0.999   6.094   0.929 -0.7486 -0.3461  1.4942
19895SOL    HW264048   0.948   5.955   0.957  0.2792 -1.2467 -0.8893
19896SOL     OW64049   5.472   6.109   3.506 -0.2858  0.5965  0.1469
19896SOL    HW164050   5.394   6.057   3.490  0.4318 -0.5228  0.2107
19896SOL    HW264051   5.544   6.056   3.473  0.5669  1.1273  1.0983
19897SOL     OW64052   1.068   9.793   6.255  0.4661  0.1044 -0.3356
19897SOL    HW164053   1.032   9.834   6.176  0.0760  1.4054  0.4809
19897SOL    HW264054   0.992   9.766   6.306  0.3626  3.9546  1.9685
19898SOL     OW64055   3.757   1.979   7.172  0.1461  0.1652  0.2210
19898SOL    HW164056   3.844   1.984   7.132 -0.4884 -0.9615 -1.3879
19898SOL    HW264057   3.715   1.905   7.130 -0.7217 -0.9265  2.7925
19899SOL     OW64058   9.706   7.174   9.285  0.4599 -1.1502  0.2020
19899SOL    HW164059   9.699   7.211   9.373  1.1836 -0.7379  0.0961
19899SOL    HW264060   9.632   7.114   9.278 -0.5080 -0.0279  0.5385
19900SOL     OW64061   6.350   3.817   5.660  0.0491 -0.1851 -0.0518
19900SOL    HW164062   6.303   3.889   5.701  1.7979 -0.9729  3.7832
19900SOL    HW264063   6.286   3.777   5.602 -1.7610  2.8302 -0.3553
19901SOL     OW64064   9.300   6.051   2.043 -0.3739 -0.0591 -0.8553
19901SOL    HW164065   9.380   6.032   2.093 -1.0428 -0.6965 -0.0179
19901SOL    HW264066   9.327   6.044   1.951  0.6828  0.3716 -0.5945
19902SOL     OW64067   4.382   0.994   0.555  0.7908  0.0223 -0.0315
19902SOL    HW164068   4.334   0.918   0.589  0.4472  0.0189 -0.5073
19902SOL    HW264069   4.447   0.956   0.495  1.2505  0.0415  0.4503
19903SOL     OW64070   2.694   6.936   9.576 -0.7078  0.7122 -0.4200
19903SOL    HW164071   2.676   6.987   9.497 -1.0238  0.0201 -0.8047
19903SOL    HW264072   2.706   6.847   9.544 -2.5895  0.0851  0.4978
19904SOL     OW64073   0.234   7.597   6.907  0.5110 -0.3347 -0.4204
19904SOL    HW164074   0.168   7.624   6.843  0.9265  1.4678 -0.1260
19904SOL    HW264075   0.317   7.603   6.860  0.7521  0.3532  0.0763
19905SOL     OW64076  10.363   8.647   1.459 -0.0087  0.2043  0.3755
19905SOL    HW164077  10.430   8.643   1.527 -1.2168  0.2260  1.6196
19905SOL    HW264078  10.292   8.591   1.490  0.0043 -1.0119 -1.6082
19906SOL     OW64079   1.575   5.655  11.019 -0.2618  0.2859 -0.1601
19906SOL    HW164080   1.523   5.587  11.062  0.0177  0.3971  0.3610
19906SOL    HW264081   1.622   5.609  10.950 -1.5430  0.2943 -1.0767
19907SOL     OW64082   3.483  10.371   6.010 -0.2739  0.6787  0.3419
19907SOL    HW164083   3.468  10.452   5.961 -0.8929  0.6944  0.5555
19907SOL    HW264084   3.527  10.400   6.090  0.2289  0.7152  0.0561
19908SOL     OW64085   6.330   2.312   8.304 -0.3717 -0.3551  0.0413
19908SOL    HW164086   6.311   2.391   8.355 -1.0326 -0.3463 -0.2135
19908SOL    HW264087   6.277   2.321   8.225  1.4485  0.1293 -1.1664
19909SOL     OW64088   3.247   5.587   0.027  0.3328  0.5985 -0.3029
19909SOL    HW164089   3.219   5.676   0.049 -0.6974  0.3651 -0.6544
19909SOL    HW264090   3.174   5.549  -0.021  0.7309 -0.4759 -0.0912
19910SOL     OW64091   8.577   9.602   6.239  0.1886  0.4204  0.4137
19910SOL    HW164092   8.650   9.586   6.180  0.6976 -0.5767  1.2720
19910SOL    HW264093   8.509   9.541   6.210 -0.0074  0.7766  0.1191
19911SOL     OW64094   9.820   5.846   9.849  1.1885 -0.5369 -0.1144
19911SOL    HW164095   9.788   5.814   9.933  0.0043  0.5078 -0.1428
19911SOL    HW264096   9.864   5.770   9.810 -0.8982 -1.9620  0.1108
19912SOL     OW64097   8.116   6.460   6.091  0.6585  0.3741 -0.0683
19912SOL    HW164098   8.030   6.422   6.103  1.1492 -1.0802 -0.8564
19912SOL    HW264099   8.102   6.531   6.029  0.0663 -0.0715 -0.4567
19913SOL     OW64100   3.350   7.381   8.892  0.7009 -0.2081 -0.1182
19913SOL    HW164101   3.321   7.291   8.909 -1.3491  0.6513  1.3262
19913SOL    HW264102   3.314   7.432   8.964  1.3291  1.8789 -1.2087
19914SOL     OW64103   3.311   0.346   6.936  0.0933 -0.4785 -0.1221
19914SOL    HW164104   3.321   0.320   6.845 -0.5332  0.7076 -0.5469
19914SOL    HW264105   3.400   0.348   6.970  0.3470 -0.7688 -0.7569
19915SOL     OW64106   7.733   3.119   7.264  0.2010  0.2041  0.2468
19915SOL    HW164107   7.697   3.123   7.175  0.3119 -0.2361  0.1813
19915SOL    HW264108   7.778   3.035   7.268  1.5645  0.9133  0.2030
19916SOL     OW64109   5.042   9.887   5.204  0.0689  0.2919 -0.3948
19916SOL    HW164110   4.956   9.862   5.169 -0.2750  0.4321  0.3343
19916SOL    HW264111   5.045   9.982   5.193 -0.2635  0.4031  0.4367
19917SOL     OW64112   4.240   5.119   9.208  0.6865 -0.5882 -0.3591
19917SOL    HW164113   4.246   5.035   9.254  0.5267 -0.6636 -0.4737
19917SOL    HW264114   4.227   5.095   9.116  2.3839 -0.4457 -0.6617
19918SOL     OW64115  10.456   1.510  11.095 -0.4863  0.4717 -0.5570
19918SOL    HW164116  10.389   1.482  11.032  0.6924  0.8036 -2.0302
19918SOL    HW264117  10.478   1.599  11.069  1.6894 -0.1836 -1.2282
19919SOL     OW64118   3.138   7.945   4.593 -0.7374 -0.2737  0.0516
19919SOL    HW164119   3.102   8.026   4.556 -0.2986  0.6709  1.5925
19919SOL    HW264120   3.173   7.898   4.517  1.6121  2.3226 -0.6655
19920SOL     OW64121   4.742   9.335   7.601 -0.0121 -0.2448 -0.9011
19920SOL    HW164122   4.661   9.287   7.621 -0.8363  0.7290 -1.7941
19920SOL    HW264123   4.779   9.291   7.525  0.9099 -1.3694  0.1610
19921SOL     OW64124   0.329   0.788   3.057 -0.2207  0.2793  0.6600
19921SOL    HW164125   0.424   0.796   3.045 -0.2503  0.0310  0.2454
19921SOL    HW264126   0.312   0.694   3.051 -0.5162  0.3384  0.5628
19922SOL     OW64127   2.655   1.387   1.096  0.3885  0.0694  0.6182
19922SOL    HW164128   2.647   1.294   1.076  0.6080  0.2557 -0.3814
19922SOL    HW264129   2.579   1.428   1.053 -0.0161  0.2938  1.5154
19923SOL     OW64130   5.813   2.672   5.665  0.5412 -0.3043 -0.1841
19923SOL    HW164131   5.821   2.577   5.674 -2.3849 -0.7329 -0.8329
19923SOL    HW264132   5.786   2.702   5.752 -2.7539 -0.8073 -0.8783
19924SOL     OW64133   0.971   7.711   4.992 -1.1326  0.2820 -0.1013
19924SOL    HW164134   1.016   7.628   4.978 -0.3094  0.7232 -0.1794
19924SOL    HW264135   0.884   7.687   5.023 -1.4098 -0.6311 -1.5341
19925SOL     OW64136   6.235   3.468   5.296  0.3095 -0.1683 -0.4594
19925SOL    HW164137   6.274   3.509   5.219  0.3802  0.4257 -0.1168
19925SOL    HW264138   6.211   3.380   5.267  2.5396 -0.8256 -0.5049
19926SOL     OW64139   7.561   7.800  10.742 -0.0446 -0.0844 -1.0927
19926SOL    HW164140   7.574   7.876  10.798  0.9788 -1.4630  0.6699
19926SOL    HW264141   7.466   7.790  10.737 -0.1760 -0.0289  0.6508
19927SOL     OW64142   4.600   4.625   7.362  0.0205  0.5192  0.4585
19927SOL    HW164143   4.583   4.711   7.323 -1.6967 -0.8906 -2.1709
19927SOL    HW264144   4.661   4.583   7.301 -1.0177 -0.9714  0.4060
19928SOL     OW64145  10.186   3.145  10.768 -0.2165  0.0628 -0.5181
19928SOL    HW164146  10.127   3.199  10.716  0.9729  0.4252 -1.5415
19928SOL    HW264147  10.251   3.113  10.705  0.7906 -0.1645  0.5974
19929SOL     OW64148   3.870   4.172   2.157 -0.0644  0.0241 -0.1336
19929SOL    HW164149   3.949   4.192   2.208 -1.6490 -1.9690  3.4580
19929SOL    HW264150   3.823   4.255   2.153  1.3722  0.8494 -0.8297
19930SOL     OW64151   9.495   7.759  11.069  0.0448 -0.2184 -0.2876
19930SOL    HW164152   9.456   7.766  11.156 -0.3228 -1.4092 -0.3404
19930SOL    HW264153   9.569   7.700  11.080 -0.2973 -0.7666 -0.8732
19931SOL     OW64154   1.585   9.592   2.700 -0.0573 -0.1692  0.2015
19931SOL    HW164155   1.597   9.678   2.739  0.4904 -0.1840  0.0748
19931SOL    HW264156   1.533   9.543   2.764  1.1944 -0.3384  1.1323
19932SOL     OW64157   2.858   9.320   4.105 -0.0884  0.0712 -0.1994
19932SOL    HW164158   2.860   9.416   4.099  0.1802  0.0274 -0.9415
19932SOL    HW264159   2.764   9.298   4.105 -0.1804  0.3907  1.2493
19933SOL     OW64160   8.055   7.480   7.015  0.1895 -0.0854  0.2334
19933SOL    HW164161   8.081   7.471   6.923 -0.0972  0.4886  0.0875
19933SOL    HW264162   7.993   7.553   7.015  2.4616  1.9902  1.2876
19934SOL     OW64163   9.432   2.488   9.884  0.3322  0.1204  0.0776
19934SOL    HW164164   9.435   2.570   9.835 -0.4313 -0.0054 -0.1862
19934SOL    HW264165   9.345   2.452   9.866  0.9216 -1.1064 -0.3977
19935SOL     OW64166  11.000   7.418   2.322  0.2446 -0.0749 -0.4254
19935SOL    HW164167  11.069   7.453   2.265  2.3869 -2.0483  0.8010
19935SOL    HW264168  11.004   7.324   2.310 -1.1289 -0.3421  0.9425
19936SOL     OW64169   2.832   2.222   5.531 -0.1138 -0.1016  0.0928
19936SOL    HW164170   2.880   2.225   5.613 -0.4718  0.2994  0.2938
19936SOL    HW264171   2.791   2.135   5.530  1.9598 -1.1344 -0.8768
19937SOL     OW64172   4.543   9.131   7.313  0.5324  0.6998  0.3804
19937SOL    HW164173   4.613   9.075   7.281 -0.6596 -1.3311  1.1561
19937SOL    HW264174   4.478   9.071   7.347 -0.9681  2.5745  0.9901
19938SOL     OW64175   3.905  10.720   7.161 -0.0879 -0.1672 -0.4282
19938SOL    HW164176   3.912  10.752   7.071 -0.4728  1.0043 -0.0568
19938SOL    HW264177   3.875  10.629   7.151  1.7083 -0.6988 -1.5215
19939SOL     OW64178   4.855  10.663   3.389  0.3296  0.8662  0.2969
19939SOL    HW164179   4.840  10.758   3.387  0.7275  0.9372 -1.4108
19939SOL    HW264180   4.947  10.653   3.364  0.4109  0.0476  0.8919
19940SOL     OW64181   9.412   9.299   5.727 -0.4507  0.1193 -0.1001
19940SOL    HW164182   9.412   9.359   5.652  1.8963 -1.1777 -1.2357
19940SOL    HW264183   9.323   9.266   5.732 -0.3667 -0.8029 -3.2244
19941SOL     OW64184   4.730   9.953   4.551  0.5102 -0.1137 -0.2312
19941SOL    HW164185   4.708   9.860   4.563  1.7680 -0.2771  1.0736
19941SOL    HW264186   4.742   9.986   4.640 -0.3727  1.4377 -0.6547
19942SOL     OW64187   6.206   1.051   5.548  0.0578 -0.0159 -0.2082
19942SOL    HW164188   6.126   1.037   5.497 -0.7853  0.4921  0.9243
19942SOL    HW264189   6.180   1.112   5.617  1.5064  0.3877  0.0153
19943SOL     OW64190  10.600   1.273   8.490  0.8217  0.1185 -0.0030
19943SOL    HW164191  10.581   1.229   8.572 -1.6929 -0.8223 -0.9882
19943SOL    HW264192  10.579   1.365   8.506 -4.1278 -0.6306 -0.6189
19944SOL     OW64193  10.117  10.113   9.938  0.1659  0.8019  0.4821
19944SOL    HW164194  10.126  10.099   9.843  0.3183  0.7537  0.5055
19944SOL    HW264195  10.203  10.094   9.974  0.1587  1.0075  0.6091
19945SOL     OW64196   9.999   6.156  10.301  0.2410 -0.2395 -0.0041
19945SOL    HW164197  10.061   6.229  10.293 -0.7373  0.9468  2.1370
19945SOL    HW264198   9.913   6.199  10.300 -0.5271 -1.7118 -1.5887
19946SOL     OW64199   7.648   9.709   1.305 -0.7131  0.1616 -0.3905
19946SOL    HW164200   7.669   9.743   1.392  0.1083  0.9209 -0.8676
19946SOL    HW264201   7.553   9.716   1.299 -0.6722  1.1651  0.0189
19947SOL     OW64202   7.487   6.742  10.217 -0.0504  0.2654  0.4584
19947SOL    HW164203   7.552   6.716  10.152 -2.2229  0.5882 -1.9683
19947SOL    HW264204   7.530   6.811  10.267  1.1763  1.1046 -1.6501
19948SOL     OW64205   5.563   3.921   0.269 -0.6184  0.1000  0.5263
19948SOL    HW164206   5.540   3.923   0.362 -0.2982 -1.7362  0.6887
19948SOL    HW264207   5.563   3.828   0.247 -2.4002  0.5389 -1.7585
19949SOL     OW64208   2.522   9.506   8.843  0.1305  0.1730 -0.1715
19949SOL    HW164209   2.476   9.443   8.900  0.5716  0.3673  0.4095
19949SOL    HW264210   2.478   9.589   8.859 -0.3334  0.0548 -0.8025
19950SOL     OW64211   0.400   8.996   5.729 -0.3503  0.2441 -0.0127
19950SOL    HW164212   0.433   9.081   5.757 -1.3490  0.1941  1.4243
19950SOL    HW264213   0.314   8.989   5.770 -0.6609 -1.0853 -0.8344
19951SOL     OW64214   0.988   5.637   3.631  0.0672 -0.5412  0.2801
19951SOL    HW164215   0.944   5.696   3.570 -1.7835 -1.7675  0.3327
19951SOL    HW264216   0.965   5.549   3.599 -0.4101 -1.2212  2.3274
19952SOL     OW64217   4.373   4.177   3.382 -0.0461 -0.6957  0.3705
19952SOL    HW164218   4.446   4.225   3.343  0.2812  3.3120  4.9293
19952SOL    HW264219   4.297   4.204   3.332  0.8684 -0.0303 -0.7084
19953SOL     OW64220   4.783   1.817   0.935 -0.0342 -0.3501 -0.3689
19953SOL    HW164221   4.746   1.772   0.859 -0.6566 -1.3899  0.5185
19953SOL    HW264222   4.737   1.901   0.937 -2.5227 -1.6165  0.7307
19954SOL     OW64223   5.845   7.453   1.637  0.1693  0.5805  0.6087
19954SOL    HW164224   5.813   7.382   1.692  0.2082 -0.2119 -0.3518
19954SOL    HW264225   5.926   7.481   1.679  0.1148  0.1036  1.0481
19955SOL     OW64226   5.563  11.099   3.181  0.0663 -0.1088  0.4021
19955SOL    HW164227   5.507  11.023   3.163  1.4971 -1.3693  1.0522
19955SOL    HW264228   5.561  11.107   3.277 -1.0411  1.4829  0.2906
19956SOL     OW64229   2.664   6.109   3.093 -0.2877  0.5971 -0.6568
19956SOL    HW164230   2.650   6.037   3.155  0.7148  0.9938  0.0429
19956SOL    HW264231   2.723   6.073   3.028  2.7937  1.6279  1.3578
19957SOL     OW64232   1.805   0.951   8.093  0.1480 -0.5837  0.3311
19957SOL    HW164233   1.885   0.998   8.118  0.4484 -0.9543  0.0756
19957SOL    HW264234   1.836   0.865   8.067  0.4231  0.8037 -5.0568
19958SOL     OW64235   5.701   7.604   6.044 -0.3905 -0.5647 -0.0121
19958SOL    HW164236   5.763   7.547   6.088  0.9360  0.7898 -0.0421
19958SOL    HW264237   5.615   7.575   6.074  0.2564 -2.3490  0.1949
19959SOL     OW64238   4.635   5.160  10.199  0.3070 -0.0049  0.9099
19959SOL    HW164239   4.574   5.109  10.145 -0.8046  1.4330  0.7315
19959SOL    HW264240   4.701   5.192  10.138 -0.2300  0.5659  0.6216
19960SOL     OW64241   1.738   8.551   9.007 -0.3269  0.0654 -0.3361
19960SOL    HW164242   1.747   8.564   9.102 -0.9310  2.1588 -0.5149
19960SOL    HW264243   1.808   8.605   8.969 -1.5797  1.2047 -1.1120
19961SOL     OW64244   4.094  10.462   7.130 -0.3137 -0.5173 -0.3506
19961SOL    HW164245   4.010  10.443   7.170  0.1473  1.4641  1.7915
19961SOL    HW264246   4.072  10.504   7.047 -1.4234 -0.5373 -0.0822
19962SOL     OW64247   5.704   5.181   8.991  0.6792 -0.0043  0.1896
19962SOL    HW164248   5.648   5.222   9.056 -0.6005 -0.6880 -0.4430
19962SOL    HW264249   5.705   5.243   8.918  0.8804  0.0800  0.2632
19963SOL     OW64250   2.210   0.326   9.477 -0.1228 -0.3414  0.0348
19963SOL    HW164251   2.268   0.252   9.457  0.5515  0.4744 -1.1420
19963SOL    HW264252   2.260   0.379   9.539  0.3227  0.2546 -0.8206
19964SOL     OW64253   0.058   0.985   3.557  0.0710  0.1351  0.3920
19964SOL    HW164254   0.057   0.951   3.647  1.0102 -1.5051 -0.1834
19964SOL    HW264255   0.151   0.994   3.535 -0.1451  0.5037 -0.4184
19965SOL     OW64256   9.965   2.434  10.969 -0.2421 -0.1171 -0.8046
19965SOL    HW164257   9.962   2.479  11.053 -0.7972  0.6028 -1.2078
19965SOL    HW264258   9.876   2.401  10.955 -0.0525 -0.5914 -0.9184
19966SOL     OW64259   7.398   4.051  10.144  0.1193 -0.3869  0.9296
19966SOL    HW164260   7.403   4.140  10.179 -0.7410 -0.5620  1.5307
19966SOL    HW264261   7.306   4.026  10.153 -0.0814 -0.5733 -1.1760
19967SOL     OW64262   0.865   2.093   8.265 -0.3728  0.1812 -0.5986
19967SOL    HW164263   0.816   2.111   8.345 -2.5550  0.8080 -1.9605
19967SOL    HW264264   0.821   2.017   8.227 -0.9024  1.2846 -2.3073
19968SOL     OW64265   5.479   5.405   0.852  0.6343  0.3402  0.0609
19968SOL    HW164266   5.427   5.482   0.829 -0.4158 -0.1543  0.7244
19968SOL    HW264267   5.442   5.334   0.801  1.7415  0.2906 -0.7149
19969SOL     OW64268   9.425  10.695  10.745  0.3079  0.2216 -0.3200
19969SOL    HW164269   9.490  10.765  10.733 -0.2570  0.5610 -1.6499
19969SOL    HW264270   9.419  10.684  10.839  1.5079  0.9321 -0.1312
19970SOL     OW64271  10.689   1.154   9.152  0.2847  0.0505  0.0171
19970SOL    HW164272  10.717   1.202   9.074 -0.3820  1.5075  0.6338
19970SOL    HW264273  10.755   1.175   9.218 -0.3673  0.6835  0.4826
19971SOL     OW64274   4.207   1.472   0.359 -0.1511  0.5954  0.2045
19971SOL    HW164275   4.178   1.388   0.393 -1.0276  0.9823  0.4236
19971SOL    HW264276   4.129   1.527   0.357  0.3277  1.2938 -0.2957
19972SOL     OW64277   2.181  10.083   6.647  0.1358 -1.1137 -0.1234
19972SOL    HW164278   2.212  10.172   6.663 -0.7692 -0.6362 -0.8892
19972SOL    HW264279   2.157  10.083   6.555 -1.6325 -1.5859  0.3038
19973SOL     OW64280   9.837   6.204   3.353  0.4214  0.4988  0.4623
19973SOL    HW164281   9.830   6.237   3.263 -2.4801  0.8516  0.7135
19973SOL    HW264282   9.817   6.111   3.345 -1.8135  0.8959  0.9003
19974SOL     OW64283   2.493   6.462   9.891 -0.5349 -0.3289  1.0756
19974SOL    HW164284   2.490   6.394   9.958  0.4639 -0.2618  1.1975
19974SOL    HW264285   2.421   6.522   9.914 -1.7019 -1.5406  0.7216
19975SOL     OW64286   2.696  10.616   3.785  0.1527 -0.4067 -0.3518
19975SOL    HW164287   2.632  10.685   3.801 -0.8705 -1.3118 -0.3866
19975SOL    HW264288   2.780  10.661   3.779 -0.4047  0.7490  0.2753
19976SOL     OW64289   4.231   4.486   5.134 -0.2982  0.0400 -0.0350
19976SOL    HW164290   4.308   4.540   5.154 -1.2276  0.9409  1.3176
19976SOL    HW264291   4.178   4.541   5.076 -0.1237 -0.4077 -0.6227
19977SOL     OW64292   7.004   4.681  10.728 -0.6092 -0.0514  0.3664
19977SOL    HW164293   6.965   4.666  10.814 -0.1747 -1.5298  0.3253
19977SOL    HW264294   6.931   4.677  10.666 -0.5178 -2.4004  0.3311
19978SOL     OW64295   9.125   4.321   2.456 -0.5447 -0.1636 -0.0549
19978SOL    HW164296   9.059   4.380   2.492 -1.5772 -0.3815 -1.5283
19978SOL    HW264297   9.121   4.334   2.362  1.9130  0.1832 -0.1702
19979SOL     OW64298   7.295   2.501   6.714  0.1760 -0.2395  0.9172
19979SOL    HW164299   7.288   2.449   6.634  0.1170 -2.3206  2.2115
19979SOL    HW264300   7.250   2.449   6.781  0.1700  1.4688  2.3103
19980SOL     OW64301   8.455   8.390   4.940  0.3303  0.8445  0.1703
19980SOL    HW164302   8.433   8.325   5.006 -0.5754 -0.2819 -1.1663
19980SOL    HW264303   8.538   8.427   4.969 -1.1020  2.0374  3.0824
19981SOL     OW64304   7.594   9.388   6.440 -0.1495  0.2368  0.3375
19981SOL    HW164305   7.586   9.381   6.344 -1.3737  0.8683  0.3748
19981SOL    HW264306   7.514   9.349   6.473  0.0336  0.4990  1.0971
19982SOL     OW64307   4.439   1.653  10.104 -0.2183  0.2743 -0.0977
19982SOL    HW164308   4.365   1.601  10.074 -0.3462 -0.3257  1.2116
19982SOL    HW264309   4.486   1.676  10.023 -0.6105 -1.1763 -0.7796
19983SOL     OW64310   7.184   8.643   6.758 -0.0245  0.0280 -0.1217
19983SOL    HW164311   7.163   8.726   6.715 -0.9706  0.2906  0.8086
19983SOL    HW264312   7.249   8.602   6.700 -1.2480  0.3486 -1.8130
19984SOL     OW64313  10.725  11.085   1.572  0.1658  0.2900 -0.0914
19984SOL    HW164314  10.756  11.005   1.531  0.4348  0.7189 -0.7424
19984SOL    HW264315  10.731  11.068   1.666  1.1446 -0.1057 -0.2125
19985SOL     OW64316   8.558   9.670   1.356 -0.3458 -0.7483  0.1248
19985SOL    HW164317   8.602   9.686   1.273 -0.8281 -1.1616 -0.2129
19985SOL    HW264318   8.498   9.744   1.366 -1.4760 -1.5206 -0.7021
19986SOL     OW64319   8.198   3.659   1.562 -0.1870 -0.3956 -0.3855
19986SOL    HW164320   8.260   3.652   1.635 -1.1349  0.4009  0.5433
19986SOL    HW264321   8.248   3.700   1.492  0.8309 -1.4390 -0.3193
19987SOL     OW64322   0.032   2.225   7.092  0.4125 -0.2509 -0.1380
19987SOL    HW164323   0.099   2.160   7.112  2.0350  1.1638 -0.7689
19987SOL    HW264324  -0.011   2.241   7.176 -0.4138 -2.4616 -0.0569
19988SOL     OW64325   6.866   3.142   3.332 -0.3347  0.7206  0.0963
19988SOL    HW164326   6.872   3.235   3.355 -0.2919  0.9225 -0.7164
19988SOL    HW264327   6.913   3.134   3.249  1.4624 -0.4177  1.1661
19989SOL     OW64328   7.715   6.575  10.071 -0.4415 -0.2354  0.4611
19989SOL    HW164329   7.716   6.481  10.049  2.0076 -0.7142  2.2302
19989SOL    HW264330   7.777   6.614  10.009 -2.5590  0.5621 -1.2684
19990SOL     OW64331  10.931   5.918   9.834  0.0618  0.2267 -0.0731
19990SOL    HW164332  10.912   5.905   9.926  0.7880  1.8631  0.3468
19990SOL    HW264333  11.007   5.862   9.817  1.1538  1.3516  0.8601
19991SOL     OW64334   8.684   3.523   0.875  0.0412 -0.2479  0.6396
19991SOL    HW164335   8.627   3.564   0.940 -0.6580  0.6541 -0.4981
19991SOL    HW264336   8.646   3.436   0.862  0.4855 -0.6336  1.7766
19992SOL     OW64337   9.659   7.750   9.472  0.2682 -0.5189 -0.8940
19992SOL    HW164338   9.697   7.664   9.454  0.9726 -0.9205  1.9627
19992SOL    HW264339   9.590   7.733   9.536  2.2898  1.1803  1.9842
19993SOL     OW64340   2.650   7.569   7.570  0.0967  0.1200  0.4833
19993SOL    HW164341   2.713   7.497   7.561 -0.9011 -0.7249  0.0849
19993SOL    HW264342   2.592   7.559   7.495 -0.5578  0.8487  0.8833
19994SOL     OW64343   4.520   0.650   5.394  0.4662 -0.6333  0.2676
19994SOL    HW164344   4.515   0.735   5.352  0.8554 -1.7160 -2.1275
19994SOL    HW264345   4.430   0.630   5.421 -0.0019 -0.3164 -1.0006
19995SOL     OW64346  10.326   8.006   8.058  0.3171 -0.1956  0.1731
19995SOL    HW164347  10.417   8.033   8.047  0.0597  0.9504  0.7121
19995SOL    HW264348  10.278   8.060   7.995 -0.2009  0.6238  1.2339
19996SOL     OW64349   0.615   7.837   2.785 -0.1531 -0.1375 -0.2717
19996SOL    HW164350   0.528   7.827   2.747  0.2138 -0.2828 -1.1018
19996SOL    HW264351   0.653   7.749   2.781 -1.4100 -1.0728  3.8450
19997SOL     OW64352   3.005   4.114   3.911 -0.4050 -0.4537  0.3296
19997SOL    HW164353   3.096   4.123   3.940  0.4983 -0.2019 -2.2975
19997SOL    HW264354   2.976   4.204   3.898  0.0371 -0.5559 -1.6818
19998SOL     OW64355   1.189  10.966   1.477  0.0353  0.0031 -0.0591
19998SOL    HW164356   1.107  10.941   1.520 -0.4140  0.9643 -0.3523
19998SOL    HW264357   1.181  10.931   1.389  1.0907 -2.2502  0.6614
19999SOL     OW64358   3.368   4.178   1.975 -0.3328  0.8211 -0.5987
19999SOL    HW164359   3.429   4.137   1.913 -0.0512 -0.1490  0.2890
19999SOL    HW264360   3.342   4.260   1.932  2.2514  1.7156 -0.6569
20000SOL     OW64361   4.503   4.427   9.041 -0.1152  0.0864 -0.1058
20000SOL    HW164362   4.502   4.368   9.117  0.3004  0.0622 -0.1162
20000SOL    HW264363   4.530   4.511   9.077 -3.3445  1.0373  0.4271
20001SOL     OW64364   6.852   4.182   0.644 -0.3043  0.8638 -0.6948
20001SOL    HW164365   6.816   4.134   0.570  1.9996 -1.0336 -0.6955
20001SOL    HW264366   6.781   4.184   0.708 -1.1340 -0.7755 -1.5028
20002SOL     OW64367   4.112   3.902   4.310 -0.3456  1.3377  0.3549
20002SOL    HW164368   4.027   3.909   4.354 -0.9408  2.1355 -0.8422
20002SOL    HW264369   4.148   3.990   4.314  0.2183  1.1015  0.4546
20003SOL     OW64370   7.781   8.368   8.767 -0.3892 -0.4214  0.1096
20003SOL    HW164371   7.699   8.384   8.814 -0.1056  0.8315  0.1972
20003SOL    HW264372   7.794   8.446   8.714  1.1818 -0.2088  0.7411
20004SOL     OW64373   5.826   3.509   1.311 -0.1509  0.2140  0.1338
20004SOL    HW164374   5.771   3.494   1.389 -1.1626  0.6976 -0.4571
20004SOL    HW264375   5.829   3.424   1.267  1.7502 -0.4834  1.4833
20005SOL     OW64376   1.414   4.066   6.286 -0.0556  0.1996  0.5051
20005SOL    HW164377   1.468   4.130   6.332  0.5738 -0.3582  0.5549
20005SOL    HW264378   1.471   4.031   6.218 -1.1334  1.3837 -1.0729
20006SOL     OW64379   8.034   5.278   2.975  0.2880 -0.1621 -0.3744
20006SOL    HW164380   8.080   5.328   2.907  1.7769 -2.0848 -0.8818
20006SOL    HW264381   8.103   5.230   3.020 -0.9494 -0.8273  0.8858
20007SOL     OW64382   0.846   9.822   0.018  0.0507  0.7142  0.6257
20007SOL    HW164383   0.769   9.776  -0.016 -0.4474  1.2599  0.9944
20007SOL    HW264384   0.902   9.753   0.054 -1.8887  0.5369  3.6116
20008SOL     OW64385   7.014   1.514  10.182  0.3878 -0.0167  0.0993
20008SOL    HW164386   7.107   1.516  10.203  0.2867 -1.3547  0.7808
20008SOL    HW264387   7.001   1.588  10.123  1.6447  0.8900  0.9211
20009SOL     OW64388   5.742   6.517   4.072 -0.0045  0.0720  0.1847
20009SOL    HW164389   5.784   6.603   4.082  0.0393  0.0800 -0.0820
20009SOL    HW264390   5.652   6.537   4.046 -0.0839  0.0450  0.4371
20010SOL     OW64391   8.389   0.316   2.772  0.0599 -0.2454 -0.1402
20010SOL    HW164392   8.357   0.330   2.861  0.0280 -0.4584 -0.1182
20010SOL    HW264393   8.326   0.362   2.717  0.3992  0.3790 -0.0174
20011SOL     OW64394   1.136   6.059   6.268  0.1177  0.2256  0.4777
20011SOL    HW164395   1.192   5.983   6.284 -1.4424 -1.2555 -0.6131
20011SOL    HW264396   1.047   6.027   6.286 -0.5220  2.0860  0.8690
20012SOL     OW64397  10.577   7.169  10.989  0.4351  0.6307  0.4511
20012SOL    HW164398  10.490   7.209  10.993  0.2111  0.3038 -0.7400
20012SOL    HW264399  10.564   7.089  10.938  1.4958  0.7484 -0.0263
20013SOL     OW64400   4.249   3.092   9.673  0.1010  1.0674 -0.1079
20013SOL    HW164401   4.260   3.145   9.752 -1.4806  0.8701  0.2840
20013SOL    HW264402   4.218   3.008   9.704 -2.1731  1.5021 -0.9735
20014SOL     OW64403   4.249  10.435   2.152 -0.1993 -0.6036 -0.0066
20014SOL    HW164404   4.306  10.413   2.225  0.7134  0.2181 -0.4504
20014SOL    HW264405   4.291  10.395   2.076 -1.6791 -2.3417  0.0119
20015SOL     OW64406   9.426   6.527  11.097  0.3085  0.3922  0.3654
20015SOL    HW164407   9.398   6.547  11.007 -2.9901 -3.8797  0.0950
20015SOL    HW264408   9.520   6.510  11.090  0.4819  1.8602 -1.8855
20016SOL     OW64409   7.458   5.635  10.285 -0.2566 -0.4016  0.4408
20016SOL    HW164410   7.476   5.717  10.331 -1.3503 -1.3303  2.7083
20016SOL    HW264411   7.543   5.592  10.277  0.2346  0.6698 -0.2386
20017SOL     OW64412   8.201   5.338   1.112  0.0202 -0.8394  0.4264
20017SOL    HW164413   8.215   5.417   1.060 -1.5265 -0.2513  0.8455
20017SOL    HW264414   8.281   5.286   1.099  1.3195  1.0328  0.6013
20018SOL     OW64415   9.657   0.711   2.742  0.1006  0.7463 -0.2709
20018SOL    HW164416   9.746   0.732   2.769 -0.4443  1.3194  1.1747
20018SOL    HW264417   9.662   0.703   2.646  1.9745 -0.6526 -0.1145
20019SOL     OW64418   8.256   3.304   7.237 -1.5145 -0.0712  0.2494
20019SOL    HW164419   8.261   3.389   7.194 -2.0052  0.0197  0.3706
20019SOL    HW264420   8.163   3.289   7.252 -1.4408 -0.6737  0.1451
20020SOL     OW64421   0.772   3.918   3.853 -0.0046 -0.3613 -0.7247
20020SOL    HW164422   0.700   3.979   3.870 -1.4027 -2.1815  0.2252
20020SOL    HW264423   0.850   3.974   3.845 -0.9259  1.4425  1.8229
20021SOL     OW64424  10.555   7.765   2.541 -0.5754  0.2765 -0.3403
20021SOL    HW164425  10.510   7.812   2.611 -1.4606 -0.6220 -0.2787
20021SOL    HW264426  10.582   7.683   2.581 -2.3112 -0.8576 -1.3510
20022SOL     OW64427  10.203   9.428   2.462  0.0943 -0.2672  0.4929
20022SOL    HW164428  10.176   9.337   2.448 -0.5062 -0.0541  0.2265
20022SOL    HW264429  10.142   9.460   2.529 -0.7972  0.4306 -0.6182
20023SOL     OW64430   6.499   0.470   8.151  0.1336 -0.2200  0.4656
20023SOL    HW164431   6.590   0.491   8.130  0.0685  0.4660  0.8260
20023SOL    HW264432   6.481   0.521   8.230 -0.4752 -0.5727  0.5531
20024SOL     OW64433  11.061   6.124   9.077  0.9454 -0.1329 -0.4096
20024SOL    HW164434  11.042   6.185   9.006 -0.6716  0.2473  0.3126
20024SOL    HW264435  11.145   6.152   9.112  0.9579  0.7046 -1.1015
20025SOL     OW64436   8.613   0.124   5.617  0.2325 -0.1066  0.1096
20025SOL    HW164437   8.699   0.108   5.656  0.5200  0.0053 -0.4749
20025SOL    HW264438   8.577   0.036   5.603  0.2774 -0.1551  0.2955
20026SOL     OW64439   6.845   8.493   4.428 -0.1734  0.2018  0.4773
20026SOL    HW164440   6.764   8.488   4.377  0.4345 -0.5266 -0.4434
20026SOL    HW264441   6.871   8.402   4.441 -0.5926  0.3286  2.5937
20027SOL     OW64442   8.572   2.437   7.729  0.3607 -0.2508 -0.5829
20027SOL    HW164443   8.641   2.495   7.761  1.0917 -1.9867  1.2015
20027SOL    HW264444   8.616   2.353   7.715 -0.9459 -0.7811 -1.6993
20028SOL     OW64445   0.741   3.499  10.470 -0.1341 -0.1611 -0.0316
20028SOL    HW164446   0.792   3.544  10.403  1.3831 -0.7487  0.6978
20028SOL    HW264447   0.751   3.552  10.548  0.5191 -1.0081  0.4750
20029SOL     OW64448   4.646   6.438   9.811 -0.3312 -0.1207  0.1487
20029SOL    HW164449   4.561   6.405   9.781  0.5651 -1.3766 -1.1031
20029SOL    HW264450   4.704   6.429   9.735  1.1251 -0.0213  1.2127
20030SOL     OW64451   8.936   5.619   4.191 -0.1579  0.0863  0.5447
20030SOL    HW164452   8.960   5.526   4.180  1.9059  0.4994  1.1378
20030SOL    HW264453   8.895   5.642   4.108 -0.8951 -1.3987  0.4514
20031SOL     OW64454   3.581   4.246   9.365 -0.7020 -0.0830  0.0920
20031SOL    HW164455   3.580   4.276   9.275  0.4804  0.0493  0.1015
20031SOL    HW264456   3.652   4.296   9.406 -0.7258 -0.6789  0.8899
20032SOL     OW64457   6.629   6.312  10.497  0.4244 -0.4613 -0.4263
20032SOL    HW164458   6.584   6.390  10.462 -0.2541 -0.9013 -0.5511
20032SOL    HW264459   6.658   6.265  10.419 -1.1910 -1.5030 -0.4426
20033SOL     OW64460   3.476  10.337   6.572 -0.2114  0.1839 -0.0867
20033SOL    HW164461   3.464  10.432   6.576 -1.7901  0.0608 -1.0849
20033SOL    HW264462   3.424  10.304   6.645  1.2360  0.1154  0.9554
20034SOL     OW64463   1.710   9.433   0.402  0.1260 -0.5411  0.0993
20034SOL    HW164464   1.771   9.439   0.329 -1.3025 -1.5596 -1.2478
20034SOL    HW264465   1.693   9.524   0.428  0.8664 -0.1854 -0.6461
20035SOL     OW64466   3.124   0.351   2.203 -0.3153  0.0919 -0.5372
20035SOL    HW164467   3.217   0.336   2.220 -0.3996 -0.4054 -0.5025
20035SOL    HW264468   3.088   0.374   2.288 -0.4273 -0.7903 -0.3377
20036SOL     OW64469  10.573   8.262   1.440 -0.2050  0.5567  0.5084
20036SOL    HW164470  10.513   8.201   1.483 -0.9367  0.8173 -0.1201
20036SOL    HW264471  10.564   8.243   1.346  1.2956  0.0575  0.4292
20037SOL     OW64472   8.093   5.598  10.680  0.2380  0.5510  0.0999
20037SOL    HW164473   8.056   5.614  10.767  0.8827  1.2254  0.2560
20037SOL    HW264474   8.079   5.680  10.633 -0.2596  0.1340 -0.4974
20038SOL     OW64475   9.165   3.891   8.967 -0.0382  0.1877 -0.5499
20038SOL    HW164476   9.108   3.820   8.940 -1.2089  0.6674  0.5416
20038SOL    HW264477   9.242   3.883   8.911 -0.7498 -1.0689 -1.3937
20039SOL     OW64478   1.728   5.136   3.243 -0.6550 -0.0037 -0.2695
20039SOL    HW164479   1.670   5.100   3.310  0.7382 -2.7248 -0.4092
20039SOL    HW264480   1.789   5.192   3.291 -0.1139 -1.3570  0.6692
20040SOL     OW64481   9.441   6.354   6.153  0.2430  0.0668 -0.3859
20040SOL    HW164482   9.398   6.394   6.077  0.4821  1.4609  0.1670
20040SOL    HW264483   9.524   6.403   6.161  1.5672 -1.9700 -0.9122
20041SOL     OW64484   6.654   7.471   1.403  0.2850 -0.0064 -0.0063
20041SOL    HW164485   6.703   7.396   1.369  1.0389  0.3510  0.2678
20041SOL    HW264486   6.721   7.536   1.423 -0.3020  0.4656  0.4599
20042SOL     OW64487   0.786   6.849   9.753  0.6260  0.5751 -0.1670
20042SOL    HW164488   0.750   6.761   9.764  1.4487  0.0727 -1.2826
20042SOL    HW264489   0.824   6.871   9.838  3.9578 -1.8273 -0.8696
20043SOL     OW64490   4.694   6.845   8.056  0.0673 -0.1152 -0.0317
20043SOL    HW164491   4.770   6.863   8.111  0.7220 -1.1579 -0.5659
20043SOL    HW264492   4.731   6.825   7.970 -0.8514 -0.0923 -0.4419
20044SOL     OW64493   7.286   5.209   4.799 -0.2186 -0.4646 -0.0072
20044SOL    HW164494   7.308   5.141   4.862 -1.1513 -0.4010  0.4153
20044SOL    HW264495   7.352   5.202   4.731 -0.0847 -1.5391  0.2186
20045SOL     OW64496   7.250   7.972   5.910  0.5768 -0.4243 -0.3770
20045SOL    HW164497   7.317   8.024   5.864  1.3835 -0.9779  0.1475
20045SOL    HW264498   7.272   7.983   6.003 -1.2320  0.9577 -0.0516
20046SOL     OW64499   9.585   6.349   0.535  0.2030  0.3797  0.2135
20046SOL    HW164500   9.560   6.257   0.537  0.0226  0.4311  0.3985
20046SOL    HW264501   9.627   6.362   0.450  0.1114  0.1592  0.1360
20047SOL     OW64502   2.606   3.009   9.253  0.3731  0.1607  0.0243
20047SOL    HW164503   2.603   2.914   9.256  1.6053  0.0976 -0.0218
20047SOL    HW264504   2.694   3.031   9.284 -0.0364  1.3049  0.4402
20048SOL     OW64505   1.155   5.597   3.075  0.1275  0.4267  0.5684
20048SOL    HW164506   1.225   5.631   3.132  0.9226  1.1622 -0.8044
20048SOL    HW264507   1.084   5.576   3.135  0.7907  1.5475  1.7990
20049SOL     OW64508   1.159  10.058   9.792  0.3384 -0.3044 -0.0330
20049SOL    HW164509   1.165  10.052   9.887  0.3610  1.2285  0.0842
20049SOL    HW264510   1.197   9.976   9.760 -0.3456 -1.1755  1.2754
20050SOL     OW64511   5.824   5.394   3.163 -0.7539  0.5714 -0.2895
20050SOL    HW164512   5.853   5.449   3.090  0.6609  0.1538 -0.0595
20050SOL    HW264513   5.815   5.455   3.237  1.7446  0.4025  0.2204
20051SOL     OW64514  11.039   9.864   5.362 -0.4800  0.8107  0.1412
20051SOL    HW164515  11.030   9.914   5.443 -0.5390  0.3656  0.4110
20051SOL    HW264516  11.086   9.785   5.388  0.4886  1.1745 -0.4641
20052SOL     OW64517   9.224   5.966   1.198  0.1897  0.4689  0.5081
20052SOL    HW164518   9.292   6.032   1.180  0.8598 -0.0934  0.9199
20052SOL    HW264519   9.272   5.883   1.200 -0.6453 -0.0296  0.0036
20053SOL     OW64520   2.528   5.357   7.396 -0.2947 -0.2897 -0.2783
20053SOL    HW164521   2.605   5.300   7.390 -0.1096 -0.2651  1.4401
20053SOL    HW264522   2.459   5.301   7.431 -0.8844 -0.1338 -1.1638
20054SOL     OW64523   1.171   6.857   3.872  0.5709  0.1970  0.0522
20054SOL    HW164524   1.257   6.851   3.913  1.0787  1.2024 -0.8152
20054SOL    HW264525   1.134   6.768   3.879  2.3725 -0.6892 -1.0533
20055SOL     OW64526   2.878   3.481   6.251 -0.3841 -0.3852 -0.4089
20055SOL    HW164527   2.919   3.395   6.259  0.3575 -0.1691 -1.5594
20055SOL    HW264528   2.904   3.528   6.330 -1.5962 -1.5082  0.7045
20056SOL     OW64529   0.678  11.012   1.049 -0.4093  0.7124  0.0690
20056SOL    HW164530   0.657  11.073   1.121 -0.2353  1.0359 -0.1530
20056SOL    HW264531   0.771  11.026   1.032  0.1697 -1.1156  1.4227
20057SOL     OW64532   0.193   1.505   4.197  0.3347 -0.6243 -0.3255
20057SOL    HW164533   0.275   1.540   4.163  0.0013  0.4198 -0.0787
20057SOL    HW264534   0.195   1.525   4.291 -0.5013  0.0247 -0.4339
20058SOL     OW64535   8.411   3.389   7.706  0.0906 -0.3344  0.3871
20058SOL    HW164536   8.455   3.430   7.631 -0.6678 -0.2293 -0.0159
20058SOL    HW264537   8.452   3.429   7.782 -0.6832  1.2813  0.0029
20059SOL     OW64538   7.532   3.234   4.544 -0.5611  0.2704  0.0346
20059SOL    HW164539   7.589   3.249   4.619 -0.9541  0.3134  0.3319
20059SOL    HW264540   7.468   3.305   4.549  0.1168  0.9865 -1.0367
20060SOL     OW64541   6.308   4.164   7.832 -0.4979  0.3166 -0.2106
20060SOL    HW164542   6.341   4.092   7.778 -1.2624  0.5032 -0.9384
20060SOL    HW264543   6.353   4.242   7.799  1.4096  0.0459  1.4895
20061SOL     OW64544   5.687   9.812   6.203 -0.0293  0.1414  0.5104
20061SOL    HW164545   5.660   9.851   6.120  0.3645 -1.0452 -0.2124
20061SOL    HW264546   5.605   9.791   6.247 -0.2622 -0.0244  0.0150
20062SOL     OW64547   7.080   5.427   9.138  0.1127  0.0750  0.0150
20062SOL    HW164548   6.986   5.410   9.129  0.2694 -0.6048 -0.3579
20062SOL    HW264549   7.117   5.405   9.053  0.6247  0.2585  0.1845
20063SOL     OW64550   8.969   1.147   4.358 -0.1669  0.1804  0.3494
20063SOL    HW164551   8.959   1.153   4.263  0.2040 -0.0781  0.2916
20063SOL    HW264552   8.922   1.223   4.392  1.5229  1.5016 -0.1480
20064SOL     OW64553   7.025   8.291   7.262  0.5433 -0.3023  0.3610
20064SOL    HW164554   6.995   8.225   7.324  0.1246  1.0987  1.7185
20064SOL    HW264555   7.108   8.258   7.228 -0.8324 -2.7182 -0.9769
20065SOL     OW64556   0.550   6.526   4.469  0.3942  0.3350  0.0624
20065SOL    HW164557   0.468   6.526   4.518  1.5943 -0.3210  2.2346
20065SOL    HW264558   0.540   6.595   4.405 -2.3990 -0.6970 -0.7701
20066SOL     OW64559   9.059   2.967   2.682  0.4312  0.1009  0.0869
20066SOL    HW164560   9.096   2.916   2.753 -0.0598  0.8113  0.8738
20066SOL    HW264561   9.103   3.052   2.687  0.1911  0.2500 -0.2759
20067SOL     OW64562   7.598   1.889   3.517 -0.2691  0.2291  0.1968
20067SOL    HW164563   7.632   1.819   3.572 -0.3945 -0.2874 -0.3650
20067SOL    HW264564   7.547   1.944   3.576 -0.1251 -0.1195  0.6541
20068SOL     OW64565   0.195   9.813   4.237 -0.2043  0.1116  0.1264
20068SOL    HW164566   0.123   9.871   4.261 -1.2601 -1.8289  1.8976
20068SOL    HW264567   0.187   9.805   4.142 -2.8324 -0.6228  0.3272
20069SOL     OW64568   6.766   1.173   5.732  0.3617  0.1764 -0.1152
20069SOL    HW164569   6.768   1.256   5.683 -0.8447 -0.9964 -2.2806
20069SOL    HW264570   6.678   1.169   5.770  0.0184 -0.6058 -0.9658
20070SOL     OW64571   4.813   0.541   3.173 -0.1304 -0.0630 -0.0092
20070SOL    HW164572   4.898   0.521   3.133 -0.0399 -3.1340  1.4307
20070SOL    HW264573   4.752   0.481   3.131 -0.9944  0.1485  0.9119
20071SOL     OW64574   7.399   2.225   1.769 -0.3947  0.2225 -0.1837
20071SOL    HW164575   7.433   2.153   1.716 -0.6725 -0.5142  0.6222
20071SOL    HW264576   7.468   2.245   1.832 -0.4350  0.4615 -0.2125
20072SOL     OW64577   5.128   4.737   8.582  0.4335  0.4335  0.1603
20072SOL    HW164578   5.049   4.780   8.614 -0.6394 -0.6102 -0.9564
20072SOL    HW264579   5.141   4.773   8.494  0.8245  0.1288  0.0891
20073SOL     OW64580   3.092   8.095   4.929 -0.2643  0.1716 -0.2071
20073SOL    HW164581   3.043   8.016   4.907 -0.4034 -0.9738  3.4570
20073SOL    HW264582   3.183   8.073   4.913 -0.3065 -0.7842  0.7658
20074SOL     OW64583   8.364   5.052   6.100  0.1722 -0.3270  0.1433
20074SOL    HW164584   8.274   5.085   6.091 -0.3736 -1.4475  1.0854
20074SOL    HW264585   8.356   4.958   6.085  1.4509 -0.2617 -1.1288
20075SOL     OW64586   3.221   7.923   6.044 -0.5208  0.0343 -0.6180
20075SOL    HW164587   3.237   7.976   6.123 -2.0537  2.0810 -1.5667
20075SOL    HW264588   3.125   7.921   6.037 -0.4207  0.6621 -2.8648
20076SOL     OW64589   4.821   9.182   8.850 -0.4224  0.3699  0.2378
20076SOL    HW164590   4.825   9.112   8.784 -1.5783  0.6359 -0.1301
20076SOL    HW264591   4.828   9.263   8.799  0.4411  0.5493  0.6206
20077SOL     OW64592  10.672   4.679   0.134  0.0740  0.5555  0.3209
20077SOL    HW164593  10.663   4.752   0.195  1.9099  1.0438  0.0511
20077SOL    HW264594  10.605   4.694   0.067  0.0429  1.6459  0.5907
20078SOL     OW64595   5.164  10.107   5.545  0.2070 -0.2137  0.0560
20078SOL    HW164596   5.094  10.044   5.526 -0.5265  0.5135  0.2631
20078SOL    HW264597   5.138  10.146   5.629  1.1484 -0.3130  0.4015
20079SOL     OW64598   0.949  10.823   3.630  0.7245  0.5422 -0.1413
20079SOL    HW164599   0.869  10.831   3.682 -0.8646  2.5505 -2.6693
20079SOL    HW264600   1.005  10.894   3.661  0.3624  0.8629 -0.2130
20080SOL     OW64601   0.023   6.782  10.106  0.0076  0.0838 -0.0028
20080SOL    HW164602   0.088   6.849  10.126  3.2957 -2.0457 -2.4818
20080SOL    HW264603  -0.036   6.824  10.043  0.5222  1.3516  0.3453
20081SOL     OW64604   9.075  10.209   4.250 -0.2779 -0.2488 -0.6401
20081SOL    HW164605   9.164  10.220   4.216 -0.1432  0.1401 -0.1804
20081SOL    HW264606   9.022  10.270   4.199  0.0795  0.9980  0.4096
20082SOL     OW64607   5.639   6.413   3.336 -0.7063  0.7551 -0.1124
20082SOL    HW164608   5.600   6.331   3.305 -1.0331  0.3181  1.4027
20082SOL    HW264609   5.731   6.406   3.310 -0.8933  0.2679 -0.6816
20083SOL     OW64610   1.360  10.159   3.879 -0.2355 -0.0470  0.0794
20083SOL    HW164611   1.443  10.183   3.920 -0.4505  0.5351  0.1898
20083SOL    HW264612   1.331  10.238   3.835  0.1028 -0.7319 -1.4184
20084SOL     OW64613   9.576  10.636   6.401 -0.3367  0.3365 -0.1592
20084SOL    HW164614   9.655  10.671   6.358  0.2233 -1.9310 -1.0922
20084SOL    HW264615   9.582  10.542   6.389 -2.3450 -0.0332  1.2993
20085SOL     OW64616   8.426   4.422  10.300  0.0067  0.4761 -0.2410
20085SOL    HW164617   8.517   4.403  10.280 -0.1482  1.0747 -1.5690
20085SOL    HW264618   8.421   4.517  10.303 -0.1646  0.4657  1.9246
20086SOL     OW64619   5.642   9.661   8.242  0.1080  0.2528 -0.8243
20086SOL    HW164620   5.596   9.745   8.239 -1.8245 -0.7149 -0.0251
20086SOL    HW264621   5.593   9.605   8.181 -0.5899 -1.1447  0.9313
20087SOL     OW64622   7.363   2.572   3.811 -0.5061 -0.1655 -0.5945
20087SOL    HW164623   7.373   2.524   3.729  0.3497 -0.9629 -0.0403
20087SOL    HW264624   7.425   2.531   3.871 -1.4301  0.1121  0.5895
20088SOL     OW64625   8.320   8.137   1.209 -0.0404 -0.0282 -0.4607
20088SOL    HW164626   8.229   8.161   1.192 -1.0240 -1.8077  1.6776
20088SOL    HW264627   8.371   8.188   1.147 -2.5978 -0.1647 -2.8578
20089SOL     OW64628  10.507   0.701   6.405  0.3501  0.0587  0.4759
20089SOL    HW164629  10.455   0.642   6.460 -0.4989  1.7121  1.5048
20089SOL    HW264630  10.447   0.772   6.383  1.4012  0.6444 -0.6078
20090SOL     OW64631   3.173   8.026   9.637  0.2515  0.5047 -0.7432
20090SOL    HW164632   3.139   7.936   9.641 -2.0772  1.1987 -2.6051
20090SOL    HW264633   3.212   8.033   9.550  4.5916  0.1002  0.9158
20091SOL     OW64634   6.075   6.185   1.347  0.0373 -0.3181  0.3661
20091SOL    HW164635   6.071   6.273   1.310 -0.4970  0.0311  1.2149
20091SOL    HW264636   5.999   6.140   1.309  0.7307 -0.6627 -0.6476
20092SOL     OW64637   9.743   1.382   3.612  0.4541 -0.2462 -0.0232
20092SOL    HW164638   9.706   1.465   3.641 -0.5736 -0.6903 -0.0457
20092SOL    HW264639   9.715   1.319   3.677 -3.1519 -1.5666 -2.5450
20093SOL     OW64640   9.233   0.633   5.524  0.0482  0.2128 -0.1295
20093SOL    HW164641   9.179   0.622   5.602  0.0749  1.0343  0.0066
20093SOL    HW264642   9.172   0.626   5.451 -0.1686  0.6495  0.0085
20094SOL     OW64643  10.995   2.963  10.036 -0.3368 -0.4330 -0.4093
20094SOL    HW164644  11.032   3.048  10.010  0.2438 -0.5234  0.1147
20094SOL    HW264645  10.975   2.920   9.953 -0.5898  0.1907 -0.6812
20095SOL     OW64646   7.629   6.264   3.191  0.1009  0.1189  0.6109
20095SOL    HW164647   7.643   6.357   3.212  1.4927  0.2047 -0.5846
20095SOL    HW264648   7.663   6.217   3.267 -0.6607  0.5705  1.2495
20096SOL     OW64649   8.569   8.190   4.070  0.7924 -0.1524 -0.2173
20096SOL    HW164650   8.565   8.171   4.163 -1.6342  2.7500  0.4347
20096SOL    HW264651   8.617   8.273   4.063 -0.0430  0.2704 -1.3789
20097SOL     OW64652   1.141   3.921   8.303 -0.3072  0.5485  0.2144
20097SOL    HW164653   1.136   3.837   8.349  1.8901 -0.2616 -0.9000
20097SOL    HW264654   1.151   3.986   8.372  1.3674 -0.4869  1.0175
20098SOL     OW64655  10.372   3.908   4.725 -0.0817 -0.3962  0.4704
20098SOL    HW164656  10.440   3.943   4.668 -0.5191 -0.1435  0.1013
20098SOL    HW264657  10.417   3.892   4.808  0.2135  0.6925  0.5371
20099SOL     OW64658   0.715   0.092   5.438 -0.0717 -0.4032  0.1443
20099SOL    HW164659   0.718   0.044   5.521  1.0940 -0.8841 -0.1554
20099SOL    HW264660   0.737   0.182   5.462 -2.4785  0.0948  0.7419
20100SOL     OW64661   9.984   6.900   7.366 -0.2080  0.3321  0.1072
20100SOL    HW164662  10.052   6.885   7.300 -0.1144  0.2091  0.2297
20100SOL    HW264663   9.902   6.874   7.324 -0.1773  0.4666 -0.0366
20101SOL     OW64664   2.300   2.191   8.069  0.3829  0.1113 -0.0433
20101SOL    HW164665   2.285   2.113   8.016  1.4926 -0.7829  0.8984
20101SOL    HW264666   2.240   2.182   8.143 -1.1372  1.3381 -1.0627
20102SOL     OW64667   1.881   6.018  10.720 -0.2546  0.1777  0.4129
20102SOL    HW164668   1.836   5.974  10.647 -0.9914 -1.2939  1.6985
20102SOL    HW264669   1.893   6.108  10.689 -0.9364 -0.2794 -1.3473
20103SOL     OW64670   4.725   1.125   7.232 -0.2122  0.0088  0.4406
20103SOL    HW164671   4.636   1.091   7.233 -0.3369  0.3392  0.5195
20103SOL    HW264672   4.723   1.197   7.168  0.0785 -0.2005  0.1924
20104SOL     OW64673   6.559   9.453   8.621 -0.2429  0.1477 -0.3856
20104SOL    HW164674   6.552   9.411   8.535  0.2659  0.9446 -0.8384
20104SOL    HW264675   6.513   9.395   8.681  2.0627 -2.0934 -0.5976
20105SOL     OW64676   5.459   1.775   0.537 -0.5728 -0.3211  0.0210
20105SOL    HW164677   5.482   1.690   0.498  0.2755 -0.4880  0.8354
20105SOL    HW264678   5.383   1.756   0.592 -1.7274 -0.1004 -1.4327
20106SOL     OW64679   5.391   4.005   1.555 -0.6790  0.2799 -0.2259
20106SOL    HW164680   5.391   4.095   1.522  1.3009 -0.5193 -2.7391
20106SOL    HW264681   5.456   4.005   1.625  1.2300  0.3711 -1.9014
20107SOL     OW64682   9.827   5.576   7.122  0.4239  0.3267  0.1024
20107SOL    HW164683   9.855   5.585   7.031  3.4369 -0.9875  0.7648
20107SOL    HW264684   9.801   5.484   7.130  1.4336  0.0858  0.8307
20108SOL     OW64685   6.159   7.029   2.048  0.1817 -0.3388 -0.2065
20108SOL    HW164686   6.151   6.999   1.957  0.3766  0.9186 -0.6698
20108SOL    HW264687   6.096   7.102   2.054  1.0965  0.4315  0.2693
20109SOL     OW64688  10.415   2.468   0.574  0.0980 -0.5986 -0.4440
20109SOL    HW164689  10.363   2.415   0.634 -0.5655  1.1098  0.5519
20109SOL    HW264690  10.399   2.430   0.487 -0.8821 -1.5796  0.1504
20110SOL     OW64691   2.568  10.614   2.609 -0.1883  0.3498 -0.0535
20110SOL    HW164692   2.532  10.680   2.550 -2.4463 -2.1741 -1.7994
20110SOL    HW264693   2.507  10.613   2.683 -1.1224 -0.7628 -0.7956
20111SOL     OW64694   5.175   4.271   4.971  0.0394  0.1936 -0.2886
20111SOL    HW164695   5.086   4.244   4.948  0.5744 -0.4347 -1.6875
20111SOL    HW264696   5.173   4.367   4.965 -0.9372  0.3069  1.2468
20112SOL     OW64697  10.593  10.482   7.050 -0.4668 -0.4169 -0.4349
20112SOL    HW164698  10.624  10.522   6.968 -0.3410  2.0381  0.7200
20112SOL    HW264699  10.669  10.483   7.108 -0.4948 -2.3358 -0.3023
20113SOL     OW64700   0.223  10.979   0.890  0.2160 -0.1895 -0.5284
20113SOL    HW164701   0.311  10.948   0.915 -0.0432 -0.4937  0.0219
20113SOL    HW264702   0.185  10.907   0.841  0.4360  0.1146 -1.1588
20114SOL     OW64703   8.291   5.170   8.337 -0.0595 -0.3531  0.7010
20114SOL    HW164704   8.340   5.238   8.384  1.2367 -0.9697  0.2856
20114SOL    HW264705   8.348   5.093   8.340 -0.0765 -0.5191 -1.5272
20115SOL     OW64706   1.643   4.883   7.105  0.0455  0.0700 -0.0794
20115SOL    HW164707   1.612   4.935   7.031  1.0124  2.6323  1.1967
20115SOL    HW264708   1.691   4.810   7.065  1.8745  2.2022 -2.0398
20116SOL     OW64709   4.638   7.570   8.814  0.4625 -0.0590 -0.7652
20116SOL    HW164710   4.689   7.493   8.788  1.0936  0.5007 -1.2354
20116SOL    HW264711   4.556   7.561   8.766  0.8174 -0.0877 -1.3833
20117SOL     OW64712   6.224   2.442   3.104 -0.1207  0.2233  0.1157
20117SOL    HW164713   6.177   2.424   3.185 -0.9870  1.7533 -0.0259
20117SOL    HW264714   6.259   2.357   3.077 -1.1248 -0.5751  1.2726
20118SOL     OW64715   8.766   7.665   7.516 -0.0967 -0.6702 -0.6724
20118SOL    HW164716   8.732   7.633   7.433  0.8527 -3.5685 -0.0683
20118SOL    HW264717   8.847   7.614   7.530  0.6413  0.8900  1.2484
20119SOL     OW64718   4.132   8.169   5.238  0.8759 -0.0516  0.3589
20119SOL    HW164719   4.224   8.171   5.211  0.7928  0.1841  0.0968
20119SOL    HW264720   4.134   8.199   5.329  0.8905  1.5330 -0.1285
20120SOL     OW64721   8.618   9.815   7.654  0.2127 -0.1828  0.9254
20120SOL    HW164722   8.627   9.745   7.718  0.0237  0.1291  1.2931
20120SOL    HW264723   8.548   9.870   7.687 -0.3049 -0.3500  0.1381
20121SOL     OW64724   1.909   1.629   9.884 -0.3951  0.0359  0.1930
20121SOL    HW164725   1.959   1.547   9.883  0.9041  0.7924  0.6201
20121SOL    HW264726   1.974   1.696   9.902 -1.9393  0.8250  3.5408
20122SOL     OW64727  10.432   9.485   1.864 -0.3417 -0.3042  0.4200
20122SOL    HW164728  10.503   9.477   1.800 -0.5899 -1.8510  0.3025
20122SOL    HW264729  10.446   9.570   1.905 -0.1555  0.7493 -1.6681
20123SOL     OW64730   5.508   5.652   7.328 -0.1898  0.5163 -0.4319
20123SOL    HW164731   5.558   5.580   7.289  0.6756  1.1424 -0.5048
20123SOL    HW264732   5.573   5.720   7.346 -0.6075  0.4014  1.8124
20124SOL     OW64733   4.659   4.871   8.179 -0.2624 -0.2666 -0.1629
20124SOL    HW164734   4.641   4.860   8.086  0.5553  0.6032 -0.4377
20124SOL    HW264735   4.578   4.909   8.215  0.0051  1.0142 -0.8531
20125SOL     OW64736   8.407   2.572   2.951 -0.3804  0.0510  0.2879
20125SOL    HW164737   8.451   2.649   2.987 -1.2352  1.0211 -0.6801
20125SOL    HW264738   8.321   2.604   2.923 -1.7303 -1.7410  2.0326
20126SOL     OW64739   5.193   7.610   7.977 -0.4360  0.2285  0.0071
20126SOL    HW164740   5.212   7.642   7.890 -2.7644 -1.4335 -1.2468
20126SOL    HW264741   5.126   7.669   8.011  0.5711  0.9613  0.7759
20127SOL     OW64742   1.686   1.683   4.067  0.4142 -0.6578  0.0616
20127SOL    HW164743   1.737   1.665   4.146  1.5345  0.3846 -0.3798
20127SOL    HW264744   1.624   1.750   4.093  1.1179  0.0496 -0.0412
20128SOL     OW64745   3.701   6.575   5.765 -0.1826 -0.4520  0.1292
20128SOL    HW164746   3.615   6.606   5.739 -1.0518 -1.0381  2.0894
20128SOL    HW264747   3.684   6.516   5.839  2.1322  3.0100  3.8283
20129SOL     OW64748   6.053   4.829   8.636 -0.4815 -0.1036  0.2599
20129SOL    HW164749   6.093   4.900   8.686  0.0583 -0.2679  0.0790
20129SOL    HW264750   5.997   4.873   8.572 -0.3799  0.1497  0.3432
20130SOL     OW64751   5.765   4.634   7.264  0.5298  0.0001  0.3333
20130SOL    HW164752   5.735   4.724   7.270  0.1456 -0.1321  0.3822
20130SOL    HW264753   5.745   4.596   7.350 -0.2163 -0.4098 -0.0126
20131SOL     OW64754   6.680   4.893   2.807 -0.2717  0.4209  0.2894
20131SOL    HW164755   6.754   4.951   2.785  0.0876  0.0780  0.5948
20131SOL    HW264756   6.604   4.952   2.810  0.1962  0.9872  1.2478
20132SOL     OW64757   6.823   5.065   3.780  0.3267  0.3866 -0.3324
20132SOL    HW164758   6.881   5.120   3.727  0.5537 -0.7288 -1.2914
20132SOL    HW264759   6.736   5.077   3.741  0.4460 -0.2227 -0.8034
20133SOL     OW64760   7.466   3.268   6.833  0.2650  0.2216 -0.0075
20133SOL    HW164761   7.412   3.197   6.797 -1.3170 -0.4901  3.3038
20133SOL    HW264762   7.451   3.342   6.774 -1.8494 -0.8926 -0.9932
20134SOL     OW64763   0.411   0.420   6.768 -0.3545 -0.6215  0.3970
20134SOL    HW164764   0.417   0.511   6.740  0.0341 -0.8155 -0.1885
20134SOL    HW264765   0.397   0.371   6.686  0.4173 -1.1724  0.5863
20135SOL     OW64766   6.588  11.049   9.960  0.5715  0.5994  0.0196
20135SOL    HW164767   6.668  11.071  10.009 -0.2037  1.8822  0.7702
20135SOL    HW264768   6.537  10.996  10.022 -0.1004  1.6202  0.3497
20136SOL     OW64769   6.005   5.381   4.518 -0.2929 -0.0249 -0.2420
20136SOL    HW164770   6.044   5.424   4.442  1.1183  2.7886  1.8853
20136SOL    HW264771   5.914   5.411   4.518 -0.1069  0.5500 -0.4128
20137SOL     OW64772   5.938   6.571   2.802 -0.2951  0.0583 -0.4458
20137SOL    HW164773   5.925   6.492   2.748  1.6665 -0.7835  0.2035
20137SOL    HW264774   6.021   6.607   2.771  0.1127  0.4023  0.9752
20138SOL     OW64775   6.174   4.948   5.037  0.0016  0.3135 -0.3031
20138SOL    HW164776   6.219   4.901   5.107 -1.0225 -0.6052 -0.2331
20138SOL    HW264777   6.162   5.037   5.071  1.1557  0.4001 -0.0737
20139SOL     OW64778   0.456   1.665   5.152  0.2381 -0.1297  0.2771
20139SOL    HW164779   0.418   1.591   5.106  0.0310  0.1947 -0.0763
20139SOL    HW264780   0.521   1.701   5.092  0.4466 -0.1180  0.5080
20140SOL     OW64781   9.906  10.531   6.485  0.3683 -0.1481  0.2638
20140SOL    HW164782   9.900  10.626   6.475  1.4492  0.0552  1.2755
20140SOL    HW264783   9.937  10.500   6.400 -1.9489  0.1430 -0.7422
20141SOL     OW64784   0.972   4.741   9.988 -0.6638 -0.1477  0.1626
20141SOL    HW164785   1.041   4.695  10.036  0.3961  0.3282 -0.8496
20141SOL    HW264786   0.929   4.796  10.053  1.1482  0.9550  0.4914
20142SOL     OW64787   6.686   0.356  10.942  0.1502 -0.3027  0.2427
20142SOL    HW164788   6.598   0.360  10.980  0.6544  0.8706  1.3916
20142SOL    HW264789   6.739   0.314  11.009  0.7519  0.4020  0.2230
20143SOL     OW64790   9.509   9.479   8.719  0.1130 -0.3051  0.3643
20143SOL    HW164791   9.577   9.432   8.767 -0.7830  0.0844  2.1333
20143SOL    HW264792   9.432   9.422   8.726 -0.0165 -0.2669 -0.6962
20144SOL     OW64793   1.606   2.848   5.604 -0.6097  0.2367  0.3896
20144SOL    HW164794   1.602   2.897   5.521 -1.0343 -2.3469 -1.2086
20144SOL    HW264795   1.518   2.814   5.617 -0.9084  1.6357  2.6776
20145SOL     OW64796   3.039   1.517   3.427  0.1162 -0.3377 -0.3909
20145SOL    HW164797   2.980   1.560   3.365 -1.6454 -0.3450  1.2154
20145SOL    HW264798   3.115   1.575   3.432  0.3158 -0.3272 -2.4847
20146SOL     OW64799   4.106   2.536   5.139  0.2748 -0.3214 -0.8144
20146SOL    HW164800   4.196   2.555   5.114  0.4715 -0.4588 -0.2264
20146SOL    HW264801   4.110   2.518   5.233 -0.4540  0.2567 -0.6556
20147SOL     OW64802   6.736   3.968   8.547  0.5377 -0.2029  0.0171
20147SOL    HW164803   6.766   3.903   8.611 -0.1641 -1.4092 -0.8200
20147SOL    HW264804   6.770   3.935   8.463 -0.4088  0.1449 -0.5139
20148SOL     OW64805   3.505   2.048   9.566 -1.0318  0.2601  0.4801
20148SOL    HW164806   3.487   1.998   9.487  1.0882 -0.1263  0.1706
20148SOL    HW264807   3.475   2.137   9.545  0.0946  0.3303 -1.0721
20149SOL     OW64808   1.528   3.866   0.671 -0.3144 -0.3100  1.2000
20149SOL    HW164809   1.608   3.842   0.624  0.9260  0.9179  2.5799
20149SOL    HW264810   1.548   3.849   0.763 -1.8664 -0.5012  1.5333
20150SOL     OW64811   2.803   5.150   1.964  0.0297 -0.2840 -0.0892
20150SOL    HW164812   2.795   5.230   2.016 -0.5495 -1.8487  2.4125
20150SOL    HW264813   2.851   5.090   2.021 -0.9850 -2.2383 -1.1963
20151SOL     OW64814   0.676   3.640   4.925  0.2590 -0.2726  0.5479
20151SOL    HW164815   0.725   3.712   4.886  1.4478 -0.8691  0.8755
20151SOL    HW264816   0.659   3.667   5.015 -0.6190  0.2180  0.2404
20152SOL     OW64817   9.443   5.342   2.361 -0.2022  0.4848  0.3056
20152SOL    HW164818   9.442   5.434   2.388 -0.2584  0.2472  1.1353
20152SOL    HW264819   9.353   5.325   2.335  0.2248  1.2245 -1.8730
20153SOL     OW64820   6.864   4.321   5.860 -0.3141 -0.1743  0.0439
20153SOL    HW164821   6.845   4.380   5.933  1.9672  1.7793 -0.8052
20153SOL    HW264822   6.838   4.370   5.783 -1.5171 -1.7044 -0.5652
20154SOL     OW64823   9.741   8.867   7.147  1.3233 -0.3746 -0.3445
20154SOL    HW164824   9.784   8.862   7.232  2.1700 -0.1517 -0.7545
20154SOL    HW264825   9.798   8.819   7.088  0.7111 -0.5774 -0.7817
20155SOL     OW64826   1.678   0.536   3.448  0.1055 -0.2730  0.6791
20155SOL    HW164827   1.585   0.533   3.470 -0.1581 -0.1391 -0.3801
20155SOL    HW264828   1.695   0.629   3.430 -0.2907 -0.6600 -2.0765
20156SOL     OW64829   2.785   1.377   3.656 -0.5430  0.2812  0.0576
20156SOL    HW164830   2.806   1.296   3.610 -2.8260 -0.5790  0.3888
20156SOL    HW264831   2.850   1.382   3.726  0.8199 -0.2052 -1.1256
20157SOL     OW64832   7.642   9.073   2.904  0.0726  0.1900  0.0073
20157SOL    HW164833   7.724   9.035   2.873 -0.4218 -0.5253 -0.4744
20157SOL    HW264834   7.637   9.158   2.861  0.7464  0.4144  0.3576
20158SOL     OW64835   0.055   8.503   7.551  0.0163  0.0931 -0.1906
20158SOL    HW164836   0.095   8.502   7.637  0.8944 -0.3877 -0.5873
20158SOL    HW264837  -0.039   8.506   7.568  0.2061  1.2857  0.7610
20159SOL     OW64838   7.797   4.396   8.373  0.0499  0.2478 -0.1007
20159SOL    HW164839   7.835   4.440   8.297  0.4623 -2.9235 -1.9393
20159SOL    HW264840   7.872   4.355   8.417 -0.4439  0.2225  0.7372
20160SOL     OW64841   8.780   5.464   7.424  0.6308  0.1032 -0.3946
20160SOL    HW164842   8.826   5.392   7.381 -0.0454 -0.7370  0.2560
20160SOL    HW264843   8.694   5.466   7.381  0.9683  1.1603 -1.0700
20161SOL     OW64844   6.310   3.044   0.703  0.2041 -0.5449  0.2141
20161SOL    HW164845   6.393   3.090   0.692  0.5487 -1.1970  0.0354
20161SOL    HW264846   6.278   3.030   0.614 -0.3835  0.2021  0.2992
20162SOL     OW64847   5.730   4.173   3.343 -0.2864  0.1243  0.0411
20162SOL    HW164848   5.672   4.097   3.348  0.0733 -0.0952  3.4090
20162SOL    HW264849   5.819   4.136   3.341 -0.1239  0.4163  1.1955
20163SOL     OW64850   2.800   4.053   1.682 -0.0447  0.7167 -0.0522
20163SOL    HW164851   2.739   4.125   1.674 -0.3504  0.4067 -0.5741
20163SOL    HW264852   2.857   4.060   1.605 -0.0323  0.4434 -0.0703
20164SOL     OW64853   8.246   1.954   4.805 -0.9244 -0.0486 -0.0495
20164SOL    HW164854   8.212   2.022   4.864 -0.4655  0.0750  0.0818
20164SOL    HW264855   8.254   1.876   4.861 -0.7781 -0.0133 -0.0186
20165SOL     OW64856   8.308   3.336   4.291 -0.1086 -0.5456 -0.1662
20165SOL    HW164857   8.368   3.262   4.291 -1.2724 -1.5104 -0.2077
20165SOL    HW264858   8.221   3.298   4.278 -0.6363  0.9097 -1.1952
20166SOL     OW64859   0.465   5.124   7.304  0.4301 -0.0219 -0.2566
20166SOL    HW164860   0.435   5.183   7.373  3.3495  0.1804  0.9993
20166SOL    HW264861   0.454   5.173   7.223  0.5571  1.3058  0.5088
20167SOL     OW64862   9.355   5.971   0.424  0.6398 -0.0616 -0.8813
20167SOL    HW164863   9.324   5.889   0.462 -1.5897  0.5177 -1.3282
20167SOL    HW264864   9.325   6.038   0.485  1.1220  0.5408 -1.2951
20168SOL     OW64865   9.842   0.466   4.571  0.6699 -0.3852  0.1596
20168SOL    HW164866   9.830   0.560   4.568  2.3057 -0.0814  1.4675
20168SOL    HW264867   9.778   0.435   4.636  1.2984  0.0784  1.0167
20169SOL     OW64868  10.250   2.764   0.364 -0.1165  0.0526 -0.1049
20169SOL    HW164869  10.295   2.808   0.437  0.1944 -1.6438  0.7929
20169SOL    HW264870  10.173   2.818   0.347  1.0965  1.8375 -0.1947
20170SOL     OW64871   1.513   5.002   8.109 -0.7961 -0.0845  0.2355
20170SOL    HW164872   1.508   4.932   8.044 -2.5728  0.0327  0.2019
20170SOL    HW264873   1.476   5.078   8.066 -1.2015  0.2240  1.1045
20171SOL     OW64874   2.871  10.701  10.168  0.7719  0.1034 -0.1261
20171SOL    HW164875   2.944  10.652  10.129 -0.4520 -0.1987 -2.1726
20171SOL    HW264876   2.794  10.675  10.117 -0.7754  0.5477  1.8463
20172SOL     OW64877   5.154   9.528   3.149 -0.1572 -0.0271  0.7406
20172SOL    HW164878   5.149   9.499   3.058  1.2676  1.8994 -0.0078
20172SOL    HW264879   5.224   9.476   3.187  0.1418  0.1012  0.3621
20173SOL     OW64880   9.536   5.980   2.465  0.3323  0.6765  0.3586
20173SOL    HW164881   9.630   5.966   2.481  0.8161  0.9610 -1.8603
20173SOL    HW264882   9.534   6.054   2.404 -1.4658  1.8922  1.7990
20174SOL     OW64883   9.208  10.810  10.247 -0.1832  0.0945 -0.2282
20174SOL    HW164884   9.239  10.764  10.325 -1.9224  1.1018  1.1231
20174SOL    HW264885   9.129  10.762  10.220 -0.3876  0.5894 -0.5289
20175SOL     OW64886   7.648   7.038   9.252  0.5819 -0.0012  0.3336
20175SOL    HW164887   7.587   7.038   9.179 -0.5686 -0.1774  1.2707
20175SOL    HW264888   7.721   6.984   9.221  0.3404  0.3143 -0.8453
20176SOL     OW64889   9.070  10.784   9.237  0.6377 -0.1966  0.0559
20176SOL    HW164890   9.148  10.818   9.193  0.3865  1.2157  0.6308
20176SOL    HW264891   9.071  10.826   9.323  0.1755 -1.5330  0.7372
20177SOL     OW64892   6.445   5.411   5.969 -0.3215 -0.3972 -0.0341
20177SOL    HW164893   6.447   5.485   6.030  0.7112 -0.8368  0.4835
20177SOL    HW264894   6.372   5.431   5.910  0.2057  1.2600 -0.1847
20178SOL     OW64895   8.045   4.324  10.618 -0.8579 -0.4068 -0.5743
20178SOL    HW164896   8.071   4.387  10.551 -0.6656 -0.2307 -0.3328
20178SOL    HW264897   7.980   4.371  10.671  1.6367  0.7945  1.6435
20179SOL     OW64898   1.169   3.566   8.208 -0.6830  1.0713  0.0456
20179SOL    HW164899   1.136   3.597   8.292  2.0249 -0.9307  2.0319
20179SOL    HW264900   1.230   3.635   8.180  1.3613  0.1161  1.8167
20180SOL     OW64901   5.207   2.196  10.361  0.2639  0.1974 -0.2960
20180SOL    HW164902   5.244   2.113  10.331 -2.1647 -0.5704 -1.4384
20180SOL    HW264903   5.240   2.261  10.298  0.3274 -0.3094 -0.7939
20181SOL     OW64904   5.275   6.987   2.518 -0.1655  0.1268 -0.5622
20181SOL    HW164905   5.297   6.931   2.593 -1.1536  0.8884  0.3350
20181SOL    HW264906   5.258   7.072   2.557  0.6095  0.8854 -1.8312
20182SOL     OW64907   3.923   6.027   9.157 -0.4842 -0.5311  0.5556
20182SOL    HW164908   4.016   6.044   9.143 -0.8395  0.8466 -0.3997
20182SOL    HW264909   3.898   6.087   9.227 -1.0155  0.5202 -0.4811
20183SOL     OW64910   9.576   0.054   5.443 -0.8553 -0.3309 -0.3683
20183SOL    HW164911   9.551   0.059   5.351  0.2332 -0.8400 -0.7102
20183SOL    HW264912   9.667   0.026   5.441 -0.1919  1.5455  0.8178
20184SOL     OW64913   5.176   3.195   6.359  0.3649 -0.6945  0.0593
20184SOL    HW164914   5.169   3.290   6.344  2.7631 -0.2377  1.2396
20184SOL    HW264915   5.117   3.156   6.295 -1.1117  1.6085 -0.1060
20185SOL     OW64916  10.909   4.511   2.168  0.2974  0.0150 -0.4065
20185SOL    HW164917  10.895   4.432   2.116 -0.6321  1.1428 -1.9522
20185SOL    HW264918  10.825   4.527   2.210  0.4704  0.2340 -0.1378
20186SOL     OW64919   5.605   9.115   5.263 -0.1812  0.3230  0.0099
20186SOL    HW164920   5.571   9.114   5.173 -1.1362  1.9931  0.3038
20186SOL    HW264921   5.698   9.136   5.253  0.2914 -1.8929 -0.6812
20187SOL     OW64922   4.058   4.289   3.530 -0.3971 -0.3139 -0.0183
20187SOL    HW164923   4.072   4.199   3.556  0.9218 -0.4892 -1.2340
20187SOL    HW264924   4.010   4.283   3.447 -2.3880  0.1893  1.0112
20188SOL     OW64925   2.772   7.039   6.649  0.5932 -0.0447  0.1012
20188SOL    HW164926   2.852   7.001   6.685  0.4456 -0.1873  0.2796
20188SOL    HW264927   2.720   7.062   6.725 -0.7422 -2.5019  0.0387
20189SOL     OW64928  10.504   9.015   9.983 -0.5888  0.1437  0.0642
20189SOL    HW164929  10.517   9.088   9.923  0.4080  0.3068  0.4556
20189SOL    HW264930  10.555   8.943   9.946 -2.0134 -0.5508 -0.6185
20190SOL     OW64931   5.564   3.189   4.671 -0.2159  0.4083  0.5283
20190SOL    HW164932   5.482   3.223   4.633  0.4767  1.5356 -0.0056
20190SOL    HW264933   5.556   3.208   4.765 -0.1926  1.3623  0.3509
20191SOL     OW64934   0.425   2.144   1.811  0.5366  0.7087 -0.4142
20191SOL    HW164935   0.468   2.199   1.876  0.7389  0.4861 -0.3582
20191SOL    HW264936   0.461   2.056   1.826 -0.9177  0.2403  0.5115
20192SOL     OW64937   1.291   7.763   2.135 -0.4778 -0.4252  0.2279
20192SOL    HW164938   1.226   7.834   2.132 -0.7150 -0.6768 -0.6926
20192SOL    HW264939   1.366   7.797   2.087 -1.1925 -1.3828 -1.6343
20193SOL     OW64940   9.992   5.590   6.820 -0.9462  0.0869 -0.3548
20193SOL    HW164941  10.001   5.681   6.794 -1.5217  0.4590  0.7134
20193SOL    HW264942  10.022   5.540   6.744 -0.2133  1.1629 -0.7900
20194SOL     OW64943   4.502   2.554   2.965 -0.5251  0.3255 -0.0878
20194SOL    HW164944   4.579   2.609   2.978 -1.6446  2.0744 -0.5070
20194SOL    HW264945   4.515   2.480   3.024  1.8786  0.0881 -0.8179
20195SOL     OW64946   7.675   3.002   2.369 -0.1444  0.0080 -0.1943
20195SOL    HW164947   7.687   2.989   2.275  1.3884  2.3781 -0.4063
20195SOL    HW264948   7.764   3.019   2.402 -0.9412  1.5374  1.2809
20196SOL     OW64949   3.059   3.858   8.377  0.3109 -0.4441 -0.1016
20196SOL    HW164950   3.077   3.876   8.470 -0.3266  1.3858 -0.2969
20196SOL    HW264951   2.971   3.891   8.363  0.5975 -0.2014 -1.4879
20197SOL     OW64952   4.014   3.321   8.495 -0.5288 -0.2905  0.2075
20197SOL    HW164953   4.074   3.317   8.420 -0.1183 -1.1430  0.5654
20197SOL    HW264954   3.995   3.229   8.515 -0.3863 -0.0835  1.3418
20198SOL     OW64955   3.587   9.172   4.685  0.3952 -0.1261  0.6009
20198SOL    HW164956   3.609   9.174   4.592 -1.1356  0.0983  0.2285
20198SOL    HW264957   3.541   9.089   4.698 -0.5767  0.4344  0.8582
20199SOL     OW64958   5.522   4.308   6.074  0.1660 -0.1824  0.3536
20199SOL    HW164959   5.435   4.298   6.035  0.5523 -0.3502 -0.4848
20199SOL    HW264960   5.563   4.223   6.062  1.2493  0.5108 -1.2998
20200SOL     OW64961   7.540   4.300   4.789  0.2630 -0.8422 -0.1539
20200SOL    HW164962   7.610   4.291   4.854  0.4225 -0.2002 -0.2231
20200SOL    HW264963   7.586   4.295   4.705  0.1715 -0.8376 -0.2038
20201SOL     OW64964   7.951   5.960   4.930  0.3085 -0.3192 -0.6962
20201SOL    HW164965   7.907   5.876   4.948  0.2019 -0.0614  0.3100
20201SOL    HW264966   7.952   6.005   5.014  0.4790  0.6510 -1.2011
20202SOL     OW64967   0.413   1.041   5.898  0.2849  0.6651  0.2262
20202SOL    HW164968   0.433   1.118   5.844 -0.8912 -0.1164 -1.4031
20202SOL    HW264969   0.340   0.998   5.853  1.0515 -1.5343  0.9601
20203SOL     OW64970   5.700   5.869   3.469  0.4086  0.0299 -0.0752
20203SOL    HW164971   5.749   5.951   3.465  1.1609 -0.4647 -2.3833
20203SOL    HW264972   5.654   5.864   3.386  0.3969 -1.8870 -0.0055
20204SOL     OW64973   5.164   1.840   2.798  0.7133  0.0565 -0.2979
20204SOL    HW164974   5.082   1.796   2.774  0.4497 -0.2244  1.0027
20204SOL    HW264975   5.137   1.905   2.863  1.3354  0.9828 -0.9410
20205SOL     OW64976   0.926   6.090   0.091  0.4807  0.1550  0.1598
20205SOL    HW164977   0.914   6.017   0.030 -1.2019  0.9583 -0.5400
20205SOL    HW264978   0.964   6.050   0.169 -1.0527 -1.6092  0.0668
20206SOL     OW64979   0.772  10.372   4.857 -0.0190  0.2772 -0.5835
20206SOL    HW164980   0.820  10.289   4.855  1.0623  0.8199 -3.7501
20206SOL    HW264981   0.706  10.363   4.788 -1.2492  1.3457  0.4080
20207SOL     OW64982   1.683   9.786   4.312 -0.7509  0.2443  0.1766
20207SOL    HW164983   1.620   9.755   4.248 -0.1599 -0.2167 -0.1975
20207SOL    HW264984   1.767   9.784   4.266 -0.2319 -0.5947  1.1115
20208SOL     OW64985   7.076   4.719   0.701  0.5559 -0.5148  0.5061
20208SOL    HW164986   7.108   4.647   0.755 -2.4075 -2.5230 -0.1947
20208SOL    HW264987   7.102   4.798   0.749  1.3387 -2.0924  2.8661
20209SOL     OW64988   4.018   7.739   8.075 -0.3531 -0.5682 -0.7713
20209SOL    HW164989   3.950   7.803   8.055 -0.5220 -0.2916  0.5640
20209SOL    HW264990   4.078   7.743   8.001 -0.6545  0.7384 -0.9643
20210SOL     OW64991  10.886   6.007   4.515  0.9085 -0.2921 -0.1676
20210SOL    HW164992  10.814   6.031   4.575  1.8242  0.7806  0.5430
20210SOL    HW264993  10.871   5.914   4.497  0.0844 -0.4252  1.0141
20211SOL     OW64994   5.339  10.589  10.270  0.5763 -0.2310  0.0920
20211SOL    HW164995   5.428  10.623  10.263  0.3471  0.3013 -0.2354
20211SOL    HW264996   5.322  10.549  10.185 -0.0271  0.9528 -0.3534
20212SOL     OW64997   7.261   6.478   6.446  0.0480 -0.0671  1.1021
20212SOL    HW164998   7.237   6.397   6.401 -0.0475 -0.0867  1.1911
20212SOL    HW264999   7.181   6.508   6.487 -0.6968  1.6918 -1.4313
20213SOL     OW65000   0.509  10.295   4.161  0.2817  0.6456 -0.5096
20213SOL    HW165001   0.470  10.383   4.159 -1.1272  0.0449 -1.6912
20213SOL    HW265002   0.587  10.304   4.216  0.7223  2.8484 -1.3995
20214SOL     OW65003   2.132  10.296   4.202  0.4261 -0.1912 -0.1970
20214SOL    HW165004   2.138  10.270   4.110 -0.5557 -0.0944 -0.2893
20214SOL    HW265005   2.108  10.216   4.248 -0.4644  0.0675 -0.2052
20215SOL     OW65006   0.746  10.571  10.061 -0.0909  0.6237  0.4490
20215SOL    HW165007   0.694  10.491  10.062 -0.3737  0.7818 -0.5436
20215SOL    HW265008   0.725  10.613   9.978 -0.8661  2.3526  1.4533
20216SOL     OW65009   9.527   1.438   1.917 -0.2041 -0.1862  0.3244
20216SOL    HW165010   9.549   1.363   1.973 -0.9609 -0.6506  0.0002
20216SOL    HW265011   9.461   1.405   1.857 -1.4658  1.0761  0.9797
20217SOL     OW65012   3.837   5.234   7.491  0.0200 -0.3278  0.1728
20217SOL    HW165013   3.751   5.234   7.448  0.8137  1.3188 -1.5816
20217SOL    HW265014   3.825   5.287   7.569 -0.9768 -1.6743  0.9740
20218SOL     OW65015   3.952   6.877   1.012  0.2571 -0.2773 -0.2320
20218SOL    HW165016   3.881   6.933   0.979  1.4955  3.1858  2.3478
20218SOL    HW265017   3.978   6.917   1.095  3.3684 -3.0633  0.3831
20219SOL     OW65018   7.127   9.755   0.951  0.5510 -0.8497  0.2445
20219SOL    HW165019   7.083   9.698   1.014  1.2571 -0.8207  0.7707
20219SOL    HW265020   7.191   9.804   1.003 -1.6084  2.2193  0.3121
20220SOL     OW65021   2.071   6.428   1.558  0.5044  0.1766 -0.2037
20220SOL    HW165022   1.995   6.400   1.508 -0.4834 -0.7151  1.6937
20220SOL    HW265023   2.118   6.346   1.578  0.8373  0.4990  0.3682
20221SOL     OW65024   5.250   2.801   0.078 -0.2904 -0.1838  0.2803
20221SOL    HW165025   5.264   2.742   0.004  1.6956  1.2208 -0.5633
20221SOL    HW265026   5.207   2.747   0.144  0.4774 -2.2660 -0.8193
20222SOL     OW65027   1.877   3.899   5.980  0.5331  0.1651 -0.1254
20222SOL    HW165028   1.839   3.983   5.956 -0.4751  0.1531  1.2997
20222SOL    HW265029   1.822   3.834   5.935  0.2940  0.2240  0.0788
20223SOL     OW65030   2.611  10.104   8.360  0.4654 -0.6835 -0.0227
20223SOL    HW165031   2.534  10.144   8.320 -0.1586 -1.0328  0.7857
20223SOL    HW265032   2.576  10.052   8.432  1.2111 -2.8870 -1.1519
20224SOL     OW65033   7.575   9.627   3.872 -0.3734 -0.4201 -0.5421
20224SOL    HW165034   7.531   9.548   3.902  0.6425 -0.3736  1.1541
20224SOL    HW265035   7.600   9.608   3.782  0.8953 -2.4859  0.1981
20225SOL     OW65036   9.889  10.021   6.089 -0.1836 -0.2828 -0.4063
20225SOL    HW165037   9.907  10.114   6.076 -2.1836  0.1320 -0.5894
20225SOL    HW265038   9.879   9.986   6.001 -1.7382 -0.1163 -0.3344
20226SOL     OW65039   1.588   6.004   3.406 -0.6890  0.0769  0.1130
20226SOL    HW165040   1.538   5.936   3.450  0.4814 -0.6782  0.3098
20226SOL    HW265041   1.616   5.964   3.324  0.2965  0.1752  0.3829
20227SOL     OW65042   3.353   7.368   2.008 -0.0867 -0.1272  0.1801
20227SOL    HW165043   3.402   7.413   1.939 -0.7487  1.8064  0.8972
20227SOL    HW265044   3.418   7.352   2.077 -0.0938  0.9870  0.4697
20228SOL     OW65045   7.137   3.523   0.735  0.0783 -0.0878 -0.0842
20228SOL    HW165046   7.111   3.583   0.665 -1.2444 -1.1407 -0.5333
20228SOL    HW265047   7.163   3.443   0.690  0.3971 -0.3659  0.5765
20229SOL     OW65048   9.915   3.815   8.204  0.1249 -0.2021  0.2502
20229SOL    HW165049   9.923   3.769   8.288  0.1205 -1.4883 -0.4228
20229SOL    HW265050  10.005   3.822   8.172  0.1944  0.8637  0.6387
20230SOL     OW65051   0.369   9.749   3.115  0.1843 -1.1019  0.6747
20230SOL    HW165052   0.394   9.818   3.176 -2.2993  0.5796 -0.0509
20230SOL    HW265053   0.296   9.704   3.158 -0.5082 -0.9636 -0.3015
20231SOL     OW65054   1.738   3.553   3.421  0.3634  0.3223 -0.0496
20231SOL    HW165055   1.695   3.481   3.376  0.2103  1.3111 -1.5649
20231SOL    HW265056   1.666   3.606   3.456  0.4536  0.1896  0.3440
20232SOL     OW65057   2.497   4.495   9.425  0.2641 -0.4132  0.4936
20232SOL    HW165058   2.411   4.502   9.466 -0.1551 -1.8858 -0.0982
20232SOL    HW265059   2.496   4.560   9.355 -0.6252 -0.9026  0.0459
20233SOL     OW65060   8.262   9.128   2.995 -0.6053  0.4481 -0.7583
20233SOL    HW165061   8.346   9.142   2.951  0.3388  1.7825  1.3211
20233SOL    HW265062   8.230   9.217   3.013 -0.1985  0.0198  2.5141
20234SOL     OW65063   2.140   7.415   5.076  0.0852 -0.4602  0.7114
20234SOL    HW165064   2.100   7.386   4.995  1.3768  0.2402 -0.2212
20234SOL    HW265065   2.067   7.425   5.138 -0.9222 -0.9418 -0.3748
20235SOL     OW65066   7.329   3.093   1.169 -0.4157  0.3379 -0.2731
20235SOL    HW165067   7.419   3.115   1.192 -0.6107  1.9088 -0.9159
20235SOL    HW265068   7.316   3.004   1.204  1.1705  0.3311  0.3556
20236SOL     OW65069   4.453   3.589   8.469 -0.3415  0.1955  0.2399
20236SOL    HW165070   4.543   3.564   8.490 -0.9391 -0.9970  1.4298
20236SOL    HW265071   4.420   3.632   8.548 -2.0045 -2.7185  1.2983
20237SOL     OW65072   4.257   7.127   5.599 -0.1511 -0.0335 -0.1632
20237SOL    HW165073   4.309   7.148   5.676 -0.4251 -0.3917  0.1271
20237SOL    HW265074   4.190   7.066   5.632 -0.9018  0.6089 -0.4714
20238SOL     OW65075   8.191   0.773   2.212 -0.1509  0.6945 -0.3888
20238SOL    HW165076   8.203   0.855   2.259 -1.3264  0.9459 -0.4911
20238SOL    HW265077   8.105   0.742   2.240  0.3383 -0.5760 -0.2570
20239SOL     OW65078   9.543   2.212   8.772 -0.1314 -0.0833  0.6257
20239SOL    HW165079   9.589   2.138   8.732 -0.9471  0.7056 -1.9119
20239SOL    HW265080   9.606   2.248   8.834  0.2248 -2.9536  2.1329
20240SOL     OW65081   0.150   6.497   3.709 -0.7700  0.0578  0.8868
20240SOL    HW165082   0.061   6.506   3.675 -0.6618 -0.6764  0.3735
20240SOL    HW265083   0.201   6.465   3.634 -0.1343  0.2059  1.2517
20241SOL     OW65084   7.696   4.228   0.332 -0.1737  0.0210  0.0112
20241SOL    HW165085   7.624   4.278   0.370 -0.3664  1.2033 -1.8218
20241SOL    HW265086   7.658   4.186   0.255  0.3556 -1.8470  0.7140
20242SOL     OW65087   5.404   8.199   9.051 -0.4316 -0.0255  0.3209
20242SOL    HW165088   5.396   8.168   9.141  0.4760 -1.0082  0.0891
20242SOL    HW265089   5.337   8.152   9.003  0.3364 -0.9627  0.1427
20243SOL     OW65090   9.506   3.602   8.522  0.3533 -0.0172  0.1626
20243SOL    HW165091   9.412   3.594   8.538  0.0489  3.5362  0.9669
20243SOL    HW265092   9.540   3.639   8.604  2.2399 -0.0143 -0.5887
20244SOL     OW65093   6.656   8.534   6.888 -0.0584 -0.4169 -0.0390
20244SOL    HW165094   6.696   8.456   6.927 -1.0921 -0.2041  1.5314
20244SOL    HW265095   6.677   8.605   6.949 -3.0332 -0.3601  1.0923
20245SOL     OW65096   5.282  10.487   1.426 -0.6682 -0.2105 -0.8783
20245SOL    HW165097   5.205  10.455   1.474 -1.6654 -0.2349 -2.4218
20245SOL    HW265098   5.266  10.581   1.417  0.1662  0.0267 -0.0559
20246SOL     OW65099   7.326   9.296  10.182 -0.0659  0.1446  0.1429
20246SOL    HW165100   7.289   9.214  10.150 -1.4347  0.7300  0.1607
20246SOL    HW265101   7.335   9.284  10.276 -3.1024  1.0126  0.6327
20247SOL     OW65102   0.090   5.649   5.038 -0.5204 -0.0390  0.6843
20247SOL    HW165103   0.005   5.691   5.049 -0.0318  0.7631  1.5163
20247SOL    HW265104   0.149   5.698   5.095  0.6418 -0.2000 -0.3337
20248SOL     OW65105   3.968   8.058   8.655 -0.0441  0.2224 -0.2668
20248SOL    HW165106   4.014   8.138   8.630  0.2782  0.3677  0.7707
20248SOL    HW265107   3.887   8.060   8.603  0.0973  1.0605 -0.4714
20249SOL     OW65108  10.883   2.583   7.187  0.4071 -0.3401 -0.0398
20249SOL    HW165109  10.947   2.551   7.124 -1.9677 -1.6352 -1.9471
20249SOL    HW265110  10.844   2.660   7.146  0.1308 -0.0691  0.7114
20250SOL     OW65111   3.267   2.665   3.417  0.7011  0.0046  0.4482
20250SOL    HW165112   3.300   2.699   3.500  0.1067 -2.2008  1.6569
20250SOL    HW265113   3.331   2.600   3.390  0.5027  0.1664 -0.4513
20251SOL     OW65114   5.931   6.761  11.092  0.4662 -0.1148  0.5122
20251SOL    HW165115   5.896   6.672  11.100 -1.1103  0.5066  0.9682
20251SOL    HW265116   5.918   6.783  11.000 -0.3481  0.0893  0.6660
20252SOL     OW65117   5.763   4.476   8.810  0.4464 -0.0041 -0.0807
20252SOL    HW165118   5.733   4.567   8.810  0.7436  0.1088 -1.3875
20252SOL    HW265119   5.809   4.466   8.893  1.4879  1.4268 -0.4490
20253SOL     OW65120   8.395   7.977   7.722 -0.2939 -0.0979 -0.0260
20253SOL    HW165121   8.461   7.935   7.666 -0.6162 -1.1341  0.3580
20253SOL    HW265122   8.441   8.052   7.760 -0.1351  0.8160 -1.8566
20254SOL     OW65123  11.032   9.552   4.333 -0.0960 -0.7322  0.0042
20254SOL    HW165124  10.945   9.515   4.323  0.1292 -1.3163  0.1394
20254SOL    HW265125  11.064   9.562   4.244 -0.5684  0.1488 -0.0729
20255SOL     OW65126   5.107  10.503   7.801  0.1801  0.0786 -0.0024
20255SOL    HW165127   5.039  10.558   7.762  1.0266  0.9079 -0.3575
20255SOL    HW265128   5.140  10.554   7.875  0.8117 -0.0475 -0.1886
20256SOL     OW65129   7.187   9.926   6.928  0.5711 -0.0158 -0.1515
20256SOL    HW165130   7.114   9.928   6.990  0.7264  0.4422  0.0189
20256SOL    HW265131   7.254   9.874   6.971  0.1791 -0.8319 -0.5000
20257SOL     OW65132   2.498   1.511   2.400  0.5785 -0.1118 -0.3134
20257SOL    HW165133   2.426   1.558   2.443 -0.2271 -1.0518 -0.5830
20257SOL    HW265134   2.464   1.422   2.389  1.8075 -0.5789 -0.4260
20258SOL     OW65135   4.918   8.795   0.918  0.2079  0.1203 -0.5422
20258SOL    HW165136   4.912   8.794   0.822  0.4110  1.5236 -0.5879
20258SOL    HW265137   5.011   8.781   0.936  0.0446 -1.0140 -0.5046
20259SOL     OW65138   9.916   6.623   8.216 -0.6505  0.2184  0.2923
20259SOL    HW165139   9.918   6.573   8.134  0.1192  0.3745  0.2039
20259SOL    HW265140   9.932   6.558   8.284 -0.0585  0.2665  0.2090
20260SOL     OW65141   0.307   1.265   5.049  0.1283 -0.5421  0.2069
20260SOL    HW165142   0.273   1.328   5.113  0.4090 -0.2569  0.0773
20260SOL    HW265143   0.228   1.224   5.013 -0.0499 -0.3932  0.4226
20261SOL     OW65144   8.690   1.886   6.106 -0.0289  0.3028 -0.1216
20261SOL    HW165145   8.727   1.799   6.088 -0.6932 -0.1559  0.6676
20261SOL    HW265146   8.745   1.922   6.175 -0.4543  0.0332  0.3567
20262SOL     OW65147   5.992   1.034   6.992  0.0309  0.2053  0.3482
20262SOL    HW165148   5.947   0.950   6.983 -1.3565  1.1066 -2.5429
20262SOL    HW265149   6.084   1.014   6.977 -0.2712 -0.8297 -0.2081
20263SOL     OW65150   9.050   2.412   8.101  0.1028 -0.2041  0.9391
20263SOL    HW165151   9.004   2.375   8.025 -0.5398 -0.0803  1.2586
20263SOL    HW265152   9.032   2.351   8.172  1.3688 -0.7497  0.8268
20264SOL     OW65153   1.244   2.459   2.835 -0.2086 -0.3228  0.2421
20264SOL    HW165154   1.273   2.419   2.752  1.0125  2.0332 -0.5583
20264SOL    HW265155   1.316   2.440   2.896  0.5002  0.7811 -0.2125
20265SOL     OW65156   3.250   5.962   0.270  0.3734 -0.0204  0.3852
20265SOL    HW165157   3.172   5.961   0.215 -0.0883  1.0052  0.9903
20265SOL    HW265158   3.320   5.994   0.212  0.7670 -2.4805 -0.6253
20266SOL     OW65159   5.303   0.676   4.055 -0.0951  0.0278  0.4098
20266SOL    HW165160   5.281   0.751   4.111 -0.6031  0.3854 -0.2464
20266SOL    HW265161   5.233   0.674   3.990  1.2215  0.5110 -1.0888
20267SOL     OW65162  10.504   7.244   9.231  0.1799 -0.5164  0.7871
20267SOL    HW165163  10.581   7.205   9.272  0.3858 -1.1476 -0.1618
20267SOL    HW265164  10.486   7.188   9.156 -1.8412 -1.0066  1.5606
20268SOL     OW65165   4.520   4.064   2.860 -0.4428  0.2020 -0.3106
20268SOL    HW165166   4.425   4.052   2.867 -0.4048  0.9904  3.0396
20268SOL    HW265167   4.554   3.976   2.842 -1.6291 -0.7321  1.6641
20269SOL     OW65168   1.564   6.246   5.235 -0.2384 -0.2810  0.1385
20269SOL    HW165169   1.539   6.284   5.319 -2.0883  1.6379 -1.1869
20269SOL    HW265170   1.653   6.215   5.248 -0.1469  0.8174  2.5267
20270SOL     OW65171   4.536   3.406   2.946  0.3849  0.2939  0.0461
20270SOL    HW165172   4.560   3.491   2.909  1.3015  0.4049  0.8522
20270SOL    HW265173   4.619   3.369   2.975 -0.2398 -0.0198  1.4986
20271SOL     OW65174   7.036   9.461   7.719  0.0152 -0.3435 -0.0179
20271SOL    HW165175   7.102   9.439   7.784 -0.6326  1.6928  1.4347
20271SOL    HW265176   6.977   9.521   7.764 -1.2047  0.1505 -2.1224
20272SOL     OW65177   7.059   1.163   9.096  0.0441  0.1852 -0.1142
20272SOL    HW165178   7.136   1.122   9.058  1.4188  1.9199  0.6850
20272SOL    HW265179   7.087   1.251   9.119 -2.2090  0.9041  0.1379
20273SOL     OW65180  10.167   0.409   6.303  0.2758 -0.1226  0.0997
20273SOL    HW165181  10.126   0.422   6.217 -0.1097 -0.6564  0.1999
20273SOL    HW265182  10.162   0.495   6.344 -0.3029 -0.0597 -0.0856
20274SOL     OW65183   0.905   8.486   4.920 -0.1806 -0.3796 -0.2218
20274SOL    HW165184   0.870   8.442   4.843 -1.9756 -1.2324  1.0126
20274SOL    HW265185   0.960   8.420   4.962  0.6738  0.0368 -0.6426
20275SOL     OW65186   9.460   9.881   6.357 -0.4017 -0.3125  0.4691
20275SOL    HW165187   9.464   9.900   6.451  2.9556 -1.1451  0.5971
20275SOL    HW265188   9.541   9.835   6.337 -0.4155  0.8546 -3.1029
20276SOL     OW65189   2.460   6.775   8.647  0.2515 -0.0478 -0.4834
20276SOL    HW165190   2.413   6.858   8.635  1.6477  0.7927 -0.3667
20276SOL    HW265191   2.405   6.710   8.604 -2.0175  0.5335  1.3472
20277SOL     OW65192   8.008   6.255   3.910  0.4366 -0.5382  0.0318
20277SOL    HW165193   7.939   6.311   3.875  0.9843  0.4428  0.4697
20277SOL    HW265194   8.088   6.306   3.897  1.0630 -1.5859 -0.3182
20278SOL     OW65195   7.210   6.897   2.550  0.7435 -0.1976 -0.9072
20278SOL    HW165196   7.220   6.909   2.455 -1.2010  0.2374 -1.1187
20278SOL    HW265197   7.154   6.970   2.577  0.1939 -1.0393  0.3259
20279SOL     OW65198   9.380   3.052   3.593  0.5276  0.0980  0.6089
20279SOL    HW165199   9.348   3.106   3.666  1.5190 -1.7961  2.5627
20279SOL    HW265200   9.430   3.114   3.539  1.2197  1.2952  2.4954
20280SOL     OW65201  10.300   6.546   2.420 -0.1292  0.5119  0.6761
20280SOL    HW165202  10.235   6.476   2.426 -0.3227  0.7495  1.4864
20280SOL    HW265203  10.287   6.583   2.333  1.6552 -2.0651 -0.8140
20281SOL     OW65204   5.805   2.210   5.120 -0.0114  0.0378 -0.1301
20281SOL    HW165205   5.787   2.118   5.103  0.9424 -0.1480 -0.2227
20281SOL    HW265206   5.831   2.245   5.035  1.2668 -0.0304  0.2008
20282SOL     OW65207   2.702   2.449   5.453 -0.7865  0.3343  0.3789
20282SOL    HW165208   2.751   2.371   5.479  0.4432  1.0433  0.2820
20282SOL    HW265209   2.648   2.471   5.529 -0.9291 -0.4439  0.5046
20283SOL     OW65210   9.737   0.622   6.983  0.1923  0.3224 -0.9326
20283SOL    HW165211   9.782   0.706   6.981  0.4825  0.1623 -1.1640
20283SOL    HW265212   9.730   0.600   7.076 -2.1737  1.8195 -0.6608
20284SOL     OW65213   7.396   0.731   3.300  0.1554 -0.2590 -0.1734
20284SOL    HW165214   7.367   0.758   3.213  0.6854 -0.5429 -0.4427
20284SOL    HW265215   7.325   0.758   3.359  0.7567  1.9569 -0.3693
20285SOL     OW65216   2.028   8.440  10.032 -0.2234  0.0511  0.0904
20285SOL    HW165217   2.067   8.374   9.974 -0.4878  0.2153 -0.2823
20285SOL    HW265218   2.099   8.466  10.090  0.1964  0.2799 -0.5193
20286SOL     OW65219  10.963   2.694   0.018 -0.0842  0.6774  0.0132
20286SOL    HW165220  10.912   2.614   0.034 -4.9469  3.5320  0.8053
20286SOL    HW265221  11.014   2.706   0.098  0.8169 -1.5638 -0.1469
20287SOL     OW65222   3.354   4.956   5.561 -0.4281  0.3063  0.4374
20287SOL    HW165223   3.377   4.871   5.522  0.2408  1.3557 -1.5920
20287SOL    HW265224   3.258   4.954   5.567 -0.3679 -1.0810  1.7094
20288SOL     OW65225   3.638  10.125   5.414 -0.2324  0.0302  0.4539
20288SOL    HW165226   3.583  10.125   5.493 -0.5315 -0.6714  0.2466
20288SOL    HW265227   3.698  10.199   5.428 -1.5346  1.1269  0.4564
20289SOL     OW65228   0.161   7.740   9.532  0.1183 -0.5309 -0.1513
20289SOL    HW165229   0.203   7.825   9.516 -0.8259 -0.1531 -0.6646
20289SOL    HW265230   0.072   7.751   9.499  0.0704 -1.8084 -0.4725
20290SOL     OW65231   6.102   5.219   0.555 -0.1781 -0.2021  0.3819
20290SOL    HW165232   6.103   5.124   0.547 -0.4558 -0.2919  1.2561
20290SOL    HW265233   6.049   5.249   0.481 -0.4542 -0.7609  0.3467
20291SOL     OW65234  10.488  10.119   5.986  0.7170 -0.4257 -0.4194
20291SOL    HW165235  10.577  10.118   6.021  0.4091 -0.4290  0.3934
20291SOL    HW265236  10.433  10.102   6.062  0.0294 -0.5679 -0.9436
20292SOL     OW65237   8.840   6.854   6.687 -0.5588 -0.3186  0.2182
20292SOL    HW165238   8.891   6.934   6.703 -0.1527 -0.7913  1.3774
20292SOL    HW265239   8.866   6.826   6.599  0.9635 -0.3875  0.6699
20293SOL     OW65240   5.961   9.111   1.426  0.5323 -0.1682 -0.5082
20293SOL    HW165241   5.955   9.018   1.404  1.2451 -0.1696 -0.6913
20293SOL    HW265242   5.869   9.138   1.437  0.3630 -1.4123  1.7519
20294SOL     OW65243   1.274   0.721   4.937  0.1554 -0.2045 -0.2127
20294SOL    HW165244   1.344   0.767   4.892  0.6930  0.8945  1.6655
20294SOL    HW265245   1.197   0.777   4.926 -0.3439 -1.1428 -1.8027
20295SOL     OW65246   2.979   3.935   4.141  0.7498  0.8058  0.1972
20295SOL    HW165247   2.962   3.981   4.058  0.0090  1.2209  0.5614
20295SOL    HW265248   2.938   3.991   4.207 -0.1778 -0.3778  0.6591
20296SOL     OW65249   0.158   2.140   1.087  0.1881 -0.5295  0.1504
20296SOL    HW165250   0.192   2.158   0.999 -1.2848  2.0742  0.0193
20296SOL    HW265251   0.084   2.081   1.072 -1.7744  2.0147 -0.7560
20297SOL     OW65252   4.267  10.591   6.342 -0.1021  0.1936  0.5600
20297SOL    HW165253   4.210  10.538   6.398  0.5115  0.1786  1.1846
20297SOL    HW265254   4.352  10.546   6.345  0.0535  0.4267 -0.0527
20298SOL     OW65255   6.424  10.706   5.846  0.0780  0.5108  0.0073
20298SOL    HW165256   6.421  10.742   5.758  4.2979  2.1676  0.3060
20298SOL    HW265257   6.391  10.777   5.902  0.5921  0.7762 -0.0197
20299SOL     OW65258   6.894   4.620  10.957  0.2143  0.2304 -0.5332
20299SOL    HW165259   6.930   4.593  11.042 -1.1004 -1.8177 -0.5680
20299SOL    HW265260   6.803   4.643  10.976 -0.5749 -1.7980 -1.5979
20300SOL     OW65261  10.574   2.547   4.614 -0.0359  0.8396  0.5604
20300SOL    HW165262  10.612   2.485   4.676 -0.1694  0.3110  0.1172
20300SOL    HW265263  10.649   2.587   4.570  0.0338  0.3421  0.2171
20301SOL     OW65264   6.787   8.770   9.317  0.0220 -0.4246 -0.1717
20301SOL    HW165265   6.852   8.820   9.366  0.0295 -2.1633  1.6997
20301SOL    HW265266   6.703   8.805   9.347  0.0488  0.0204 -0.6047
20302SOL     OW65267   9.731   3.264   1.064  0.2227  0.4368  0.3837
20302SOL    HW165268   9.818   3.252   1.025  0.1275  0.8637  0.0349
20302SOL    HW265269   9.670   3.251   0.991  0.0504  1.4196  0.3472
20303SOL     OW65270   3.652  10.039  10.105 -0.4371 -0.2806 -0.5599
20303SOL    HW165271   3.629   9.956  10.064  0.0423  0.2670 -1.9966
20303SOL    HW265272   3.712  10.080  10.043 -0.1279  0.8384  0.4509
20304SOL     OW65273   5.844   3.177   2.242  0.3550 -0.6685 -0.8593
20304SOL    HW165274   5.754   3.146   2.250  0.0288  0.4757  0.2119
20304SOL    HW265275   5.849   3.212   2.153 -0.6897  0.4637 -0.5079
20305SOL     OW65276   2.379   7.858   2.393  0.3344 -0.1230 -0.0156
20305SOL    HW165277   2.405   7.949   2.374 -0.2338  0.2295  0.8591
20305SOL    HW265278   2.380   7.815   2.307 -0.7913  1.0780 -0.6677
20306SOL     OW65279   9.822   7.487  10.328  0.4585 -0.5616 -0.2734
20306SOL    HW165280   9.886   7.510  10.261  0.4453 -0.3001 -0.1995
20306SOL    HW265281   9.745   7.457  10.280  0.9019 -1.5970 -0.3519
20307SOL     OW65282   1.295   1.561   1.354 -0.3706  0.1125  0.2061
20307SOL    HW165283   1.303   1.520   1.268  0.4504  1.4575 -0.3917
20307SOL    HW265284   1.203   1.550   1.378 -1.7050  3.2113 -2.7008
20308SOL     OW65285   9.243   9.081  10.252 -0.1482  0.0182 -0.4536
20308SOL    HW165286   9.220   9.016  10.318 -1.2291  1.1222  0.3108
20308SOL    HW265287   9.338   9.085  10.253  0.0002 -2.1445 -1.1424
20309SOL     OW65288   9.155   2.578   4.030  0.1113  0.5793 -0.3571
20309SOL    HW165289   9.202   2.547   4.107 -0.4417 -0.7406 -0.5218
20309SOL    HW265290   9.082   2.628   4.065  0.7745  1.3593 -0.0710
20310SOL     OW65291   9.741   7.857   0.266  0.1257  0.0359 -0.0652
20310SOL    HW165292   9.789   7.862   0.183 -0.5805  1.4685 -0.4080
20310SOL    HW265293   9.663   7.806   0.245  0.0197  0.2724 -0.2563
20311SOL     OW65294   4.539   4.242   7.618  0.1122 -0.7445 -0.3295
20311SOL    HW165295   4.606   4.182   7.651 -0.4242 -0.1188  2.1226
20311SOL    HW265296   4.490   4.269   7.696 -1.1566  1.0631 -1.6497
20312SOL     OW65297   9.360   6.531   8.782 -0.0320  0.3108  0.0279
20312SOL    HW165298   9.320   6.618   8.780  0.7622  0.6800 -1.7983
20312SOL    HW265299   9.306   6.478   8.723  1.0484  0.3323 -1.0209
20313SOL     OW65300   1.058   0.305   3.143  0.3401 -0.3953  0.5608
20313SOL    HW165301   1.005   0.308   3.223 -0.2434  2.0847  0.1521
20313SOL    HW265302   1.146   0.329   3.171 -0.0250  1.2472  0.3984
20314SOL     OW65303  10.385   0.759   4.282 -0.5514 -0.1067 -0.3226
20314SOL    HW165304  10.352   0.773   4.193 -0.4771  1.2516 -0.1681
20314SOL    HW265305  10.404   0.847   4.314  0.0220 -0.6237  0.8179
20315SOL     OW65306  10.104  10.838   4.774  0.5085 -0.6585  0.3558
20315SOL    HW165307  10.109  10.895   4.851 -2.3702  0.5284 -0.1907
20315SOL    HW265308  10.143  10.890   4.703 -1.7860  0.6317 -0.0650
20316SOL     OW65309   1.988   2.295   2.934 -0.2424 -0.3191  0.5841
20316SOL    HW165310   1.898   2.289   2.899 -0.3628 -0.0777  0.8556
20316SOL    HW265311   2.022   2.377   2.899 -0.1921 -0.3165  0.6398
20317SOL     OW65312   3.192   2.057   8.143 -0.4854  0.1723 -0.0393
20317SOL    HW165313   3.105   2.069   8.105  0.5291 -0.2563 -2.7094
20317SOL    HW265314   3.201   1.962   8.153 -0.6778  0.2718  1.1883
20318SOL     OW65315   1.628   7.153   8.644 -0.2181  0.1430 -0.2173
20318SOL    HW165316   1.567   7.092   8.603  0.0044 -0.9187  0.9621
20318SOL    HW265317   1.662   7.105   8.720  3.5305 -0.0691 -1.8400
20319SOL     OW65318   6.015   5.143   8.350  0.3359 -0.1716 -0.6790
20319SOL    HW165319   6.070   5.164   8.425  1.4314  0.0801 -1.5291
20319SOL    HW265320   5.977   5.057   8.372 -2.5490  1.5724  1.8931
20320SOL     OW65321   4.740   1.733   6.854  0.2398 -0.4703  0.1838
20320SOL    HW165322   4.784   1.746   6.770 -1.2311 -0.7975 -0.6690
20320SOL    HW265323   4.810   1.710   6.915  1.3111 -0.3705 -0.9780
20321SOL     OW65324   1.251  10.447   2.812 -0.0201 -0.7459  1.2194
20321SOL    HW165325   1.220  10.383   2.747  1.7115 -1.2278  0.8013
20321SOL    HW265326   1.222  10.412   2.896 -2.6823  0.1084  0.7498
20322SOL     OW65327   1.094   2.066   9.550 -0.0553 -0.3653 -0.1303
20322SOL    HW165328   1.145   2.147   9.544 -0.4691 -0.0428  0.5694
20322SOL    HW265329   1.049   2.073   9.634 -1.7012 -0.3869 -0.9826
20323SOL     OW65330   9.359   1.550   9.323  0.0872 -0.6333  0.0300
20323SOL    HW165331   9.305   1.519   9.396 -0.1294 -1.6005 -0.5257
20323SOL    HW265332   9.298   1.563   9.251  0.0784  1.6713  0.3653
20324SOL     OW65333   7.336   3.812   1.249  0.1313  0.2420 -0.5124
20324SOL    HW165334   7.389   3.733   1.241 -1.2179 -0.9645  1.6469
20324SOL    HW265335   7.379   3.862   1.319 -2.0870 -1.3502  2.1936
20325SOL     OW65336  10.491   0.436  10.651 -0.0485  0.1474 -0.4519
20325SOL    HW165337  10.466   0.389  10.572  0.7665 -1.8198  0.3893
20325SOL    HW265338  10.587   0.437  10.649 -0.0252  0.4656  0.2822
20326SOL     OW65339   9.649   5.888   9.008  0.4516 -0.0844  0.2732
20326SOL    HW165340   9.737   5.893   9.046  1.4394 -2.2859 -1.5201
20326SOL    HW265341   9.660   5.923   8.919 -0.8439  0.9526  0.4991
20327SOL     OW65342   1.725   6.724   2.477 -0.1980  0.2137  0.7745
20327SOL    HW165343   1.800   6.730   2.538  0.5250  1.2792 -0.1922
20327SOL    HW265344   1.673   6.651   2.512  1.1688 -0.4181  1.6035
20328SOL     OW65345   5.675   4.923   4.364 -0.5690 -0.1174 -0.4827
20328SOL    HW165346   5.667   4.881   4.278 -0.9557  0.8264 -0.9264
20328SOL    HW265347   5.629   5.007   4.354 -0.0931  0.2744  0.4625
20329SOL     OW65348   0.841   8.145  10.016  0.5335  0.0536 -0.1273
20329SOL    HW165349   0.880   8.230  10.034 -1.9426  1.5084 -1.1665
20329SOL    HW265350   0.858   8.094  10.095  0.6457  2.0857  1.2324
20330SOL     OW65351   6.512   5.068   7.059 -0.5203 -0.3430  0.3350
20330SOL    HW165352   6.428   5.056   7.103 -0.5598  0.2419  0.4290
20330SOL    HW265353   6.490   5.112   6.976 -0.2709  0.2051  0.5534
20331SOL     OW65354   0.058   8.281   0.259  0.2739 -0.6311 -0.4650
20331SOL    HW165355   0.078   8.362   0.212  0.8183 -0.8200 -0.5639
20331SOL    HW265356   0.001   8.232   0.199 -2.6804  0.9741  0.7898
20332SOL     OW65357   5.792   0.853   0.793  0.1620  0.1482 -0.6048
20332SOL    HW165358   5.755   0.823   0.710 -0.0381 -1.2812 -0.0323
20332SOL    HW265359   5.862   0.790   0.813 -0.0913  0.1939  0.5170
20333SOL     OW65360   5.529   0.286   0.384 -0.4859 -0.0524  0.1740
20333SOL    HW165361   5.550   0.198   0.415 -0.7905 -0.5914 -1.0981
20333SOL    HW265362   5.610   0.316   0.343 -0.4682  0.1594  0.3618
20334SOL     OW65363   0.257   8.126   5.755  0.1815  0.3465  0.8138
20334SOL    HW165364   0.248   8.035   5.727  0.9577  0.6821 -0.6648
20334SOL    HW265365   0.168   8.156   5.771 -0.1031 -0.5771  1.0066
20335SOL     OW65366   4.602   4.122   2.574  0.0051 -0.2889  0.0619
20335SOL    HW165367   4.660   4.059   2.616 -0.7853 -0.6537  0.6368
20335SOL    HW265368   4.564   4.074   2.500 -0.7202 -0.5604  0.5951
20336SOL     OW65369   3.227   7.567   7.955  0.1792 -0.4488 -0.6183
20336SOL    HW165370   3.222   7.495   8.018 -0.6677  0.2211  0.1200
20336SOL    HW265371   3.276   7.636   8.000 -1.0047  0.2857 -0.4000
20337SOL     OW65372   8.938   4.515   2.506  0.8231 -0.4986  0.1479
20337SOL    HW165373   8.926   4.579   2.576  3.0691 -0.2200  0.3485
20337SOL    HW265374   8.882   4.547   2.435  0.3237  0.5282  0.9663
20338SOL     OW65375   0.034   3.098   4.035  0.2780 -0.3214  0.2920
20338SOL    HW165376   0.015   3.179   4.083  0.0672 -1.6031  2.4672
20338SOL    HW265377   0.104   3.123   3.974 -0.6778  1.7850 -0.0284
20339SOL     OW65378   5.119   1.268   2.152 -0.0914 -0.5812 -0.2464
20339SOL    HW165379   5.029   1.239   2.135 -0.2580 -0.6277  0.6488
20339SOL    HW265380   5.144   1.316   2.073 -1.8352  1.6800  0.4377
20340SOL     OW65381   2.628   3.089   9.964 -0.0118 -0.0936 -0.2466
20340SOL    HW165382   2.567   3.156   9.996  0.9038  0.5964  0.0913
20340SOL    HW265383   2.661   3.125   9.882 -0.5554 -0.7832 -0.7888
20341SOL     OW65384   2.563   1.834   5.716 -0.1040  0.2073  0.5506
20341SOL    HW165385   2.494   1.896   5.742  0.3068  0.9005  0.0058
20341SOL    HW265386   2.589   1.792   5.798  0.2762  1.4412  1.0781
20342SOL     OW65387   0.748   7.781  10.595 -0.7002  0.5327 -0.2009
20342SOL    HW165388   0.812   7.735  10.541 -0.9609  0.5086 -0.4907
20342SOL    HW265389   0.790   7.864  10.617 -1.0015  0.9993 -1.3252
20343SOL     OW65390   9.174   8.406   0.034  0.0685 -0.0079 -0.0063
20343SOL    HW165391   9.143   8.417  -0.056  0.8422  0.1269 -0.2653
20343SOL    HW265392   9.096   8.379   0.083 -0.3632 -0.0737 -0.7104
20344SOL     OW65393   1.938   8.715   0.627 -0.5341  0.0947 -0.4265
20344SOL    HW165394   1.934   8.799   0.673 -0.3135  1.7765 -3.1807
20344SOL    HW265395   1.848   8.701   0.597 -0.2298  0.3846 -1.5499
20345SOL     OW65396   5.782   8.907   9.394  0.0461  0.5238  0.7242
20345SOL    HW165397   5.757   8.827   9.441 -0.8699  0.3391 -0.0396
20345SOL    HW265398   5.851   8.879   9.334  2.1647  1.0179  2.7971
20346SOL     OW65399   1.650   9.641   4.608  0.2520  0.0782  0.1119
20346SOL    HW165400   1.718   9.628   4.541 -1.0940  1.4668 -1.6114
20346SOL    HW265401   1.671   9.577   4.676  3.1401  0.3141 -0.4513
20347SOL     OW65402   8.500   8.873   2.190 -0.1433 -0.1812  0.2083
20347SOL    HW165403   8.497   8.795   2.245 -1.5484  0.2258  0.7453
20347SOL    HW265404   8.588   8.908   2.204  0.2910 -1.3101  0.4403
20348SOL     OW65405   9.210  10.130   6.590 -0.6260  0.2355 -0.0244
20348SOL    HW165406   9.233  10.177   6.510 -0.3334 -0.2884 -0.2528
20348SOL    HW265407   9.161  10.053   6.560 -1.5148  0.6342  0.3771
20349SOL     OW65408   5.840   7.315   3.188 -0.7910  0.2859 -0.1858
20349SOL    HW165409   5.793   7.367   3.123  1.4266  1.4681 -0.9815
20349SOL    HW265410   5.827   7.363   3.270  0.2168  1.4898 -0.6865
20350SOL     OW65411  10.072  10.388   3.446 -0.1681  0.4951  0.0696
20350SOL    HW165412   9.986  10.426   3.462 -0.3524  0.3983 -0.6473
20350SOL    HW265413  10.083  10.323   3.516 -0.9948 -0.0060 -0.2412
20351SOL     OW65414   2.573   4.895   7.911 -0.3286  0.3224  0.4317
20351SOL    HW165415   2.479   4.882   7.919 -0.2589 -0.2581  0.4025
20351SOL    HW265416   2.584   4.949   7.833 -0.6839  1.1587  0.9540
20352SOL     OW65417   9.051   5.457   6.864  0.2060 -0.5662 -0.4964
20352SOL    HW165418   9.105   5.472   6.942  0.3731  0.7813 -0.8356
20352SOL    HW265419   9.113   5.438   6.795  0.4894  2.5189 -1.2489
20353SOL     OW65420   7.838   5.865   0.658 -0.1748  0.0064  0.2013
20353SOL    HW165421   7.923   5.856   0.701  1.0400  1.0287 -1.8200
20353SOL    HW265422   7.804   5.776   0.655  1.8760 -0.8229 -0.8479
20354SOL     OW65423   1.083   0.268   7.989 -0.0885  0.0673  0.3150
20354SOL    HW165424   1.073   0.185   8.036 -0.0847 -0.7396 -1.0765
20354SOL    HW265425   0.997   0.310   7.997 -0.0200  0.0593  1.2296
20355SOL     OW65426   3.741   2.239   1.963  0.1738  0.6742  0.3689
20355SOL    HW165427   3.751   2.173   1.894  0.3149  0.5178  0.5369
20355SOL    HW265428   3.798   2.208   2.033 -2.3088 -0.9020  1.8539
20356SOL     OW65429   3.991   8.330   6.807  0.6128 -0.6998 -0.4723
20356SOL    HW165430   3.959   8.278   6.733  0.3212  0.7922 -1.4489
20356SOL    HW265431   4.058   8.387   6.769 -0.0124  0.5717  0.2459
20357SOL     OW65432   1.991   7.873   1.258 -0.5657 -0.2356  0.0331
20357SOL    HW165433   2.029   7.943   1.311 -0.4953  1.3860 -2.0623
20357SOL    HW265434   2.043   7.872   1.178 -0.5533 -2.7482  0.0044
20358SOL     OW65435   1.140   7.848   6.773 -0.2061 -0.4191  0.2045
20358SOL    HW165436   1.057   7.862   6.726 -0.8345 -0.5927  1.2205
20358SOL    HW265437   1.123   7.770   6.827 -0.5329  1.4255  2.9355
20359SOL     OW65438   8.661   7.641   9.900  0.5162  0.0512 -0.2053
20359SOL    HW165439   8.683   7.621   9.991  2.6210  0.6093 -0.5469
20359SOL    HW265440   8.566   7.652   9.900  0.3848 -0.7887  1.7493
20360SOL     OW65441   4.714   6.791   6.669  0.8724  0.2783  0.1191
20360SOL    HW165442   4.790   6.732   6.666 -0.6849 -1.8952  0.8182
20360SOL    HW265443   4.682   6.793   6.578  2.2967  2.0311 -0.3912
20361SOL     OW65444  10.162   8.854   2.486  0.2771  0.0659  0.2876
20361SOL    HW165445  10.093   8.831   2.548  0.5207  0.4462  0.6994
20361SOL    HW265446  10.243   8.845   2.535  0.5508 -0.6256 -0.2672
20362SOL     OW65447  10.405   0.789   8.333 -0.2724 -0.0179  0.0237
20362SOL    HW165448  10.348   0.741   8.392  0.5500 -1.6800 -0.4768
20362SOL    HW265449  10.349   0.810   8.258 -0.9842  1.0161  0.8080
20363SOL     OW65450   2.401   5.227   9.467  0.5198  0.0631 -0.3862
20363SOL    HW165451   2.407   5.264   9.379  0.6308 -0.5229 -0.6246
20363SOL    HW265452   2.336   5.158   9.460 -0.9259  1.2736  0.4355
20364SOL     OW65453   3.546   3.487   3.702 -0.1124  0.4174 -0.1092
20364SOL    HW165454   3.500   3.541   3.637 -0.6782 -0.0852 -0.1365
20364SOL    HW265455   3.635   3.479   3.669 -0.2337  0.6741 -0.5065
20365SOL     OW65456   1.996  10.636   3.739 -0.5267  0.4727 -0.5372
20365SOL    HW165457   2.067  10.689   3.702  1.3941 -2.1248 -0.7946
20365SOL    HW265458   1.975  10.571   3.672  0.8017 -2.2950  1.5362
20366SOL     OW65459   6.286  11.042   6.863  0.1352  0.5096  0.1880
20366SOL    HW165460   6.226  10.978   6.902  1.4502 -1.2132 -0.4319
20366SOL    HW265461   6.268  11.124   6.908 -3.1888  0.3065 -0.4891
20367SOL     OW65462   9.343   9.300   9.132  0.4457 -0.4518 -0.1622
20367SOL    HW165463   9.396   9.225   9.161 -0.0854 -1.3446 -1.3848
20367SOL    HW265464   9.320   9.279   9.041  2.5129  2.4395 -1.5118
20368SOL     OW65465   7.532   4.448  10.714  0.6074  0.1973 -0.9009
20368SOL    HW165466   7.563   4.373  10.664 -1.0981 -1.1532 -0.0209
20368SOL    HW265467   7.563   4.431  10.803 -1.3584 -0.4827 -0.2955
20369SOL     OW65468   4.500   5.332   5.546 -0.3478  0.4023  0.3463
20369SOL    HW165469   4.432   5.265   5.543 -0.8310  0.9166 -0.5871
20369SOL    HW265470   4.490   5.373   5.632  1.3123 -2.0668  1.8251
20370SOL     OW65471   2.712   2.963   4.400  0.0664  0.1652 -0.2019
20370SOL    HW165472   2.798   2.952   4.360  0.5404  0.0854  0.8253
20370SOL    HW265473   2.729   3.009   4.482 -0.9949  1.1899 -0.5235
20371SOL     OW65474  10.986   7.638   5.377 -0.1605 -0.0081 -0.0334
20371SOL    HW165475  10.991   7.587   5.458 -0.6710  0.9075  0.5867
20371SOL    HW265476  10.895   7.631   5.349  0.3469 -1.7179 -1.4912
20372SOL     OW65477   9.041   1.222   2.627  0.6447  0.0570  0.1445
20372SOL    HW165478   8.954   1.181   2.624  1.1517 -1.2657  1.8384
20372SOL    HW265479   9.070   1.223   2.536 -0.5703 -0.7700 -0.2830
20373SOL     OW65480   0.263   3.817   5.286  0.6441  0.3548 -0.3702
20373SOL    HW165481   0.309   3.743   5.325  0.0838  0.3028  0.2193
20373SOL    HW265482   0.212   3.854   5.359  0.9911  1.3693 -0.6316
20374SOL     OW65483   3.777   6.521   2.740  0.4273  0.3681 -0.0004
20374SOL    HW165484   3.843   6.559   2.682 -0.2014  1.2675 -0.1591
20374SOL    HW265485   3.698   6.515   2.685  0.2837 -0.3768  0.2780
20375SOL     OW65486   9.774   5.735   4.247 -0.4222  0.3003 -0.2812
20375SOL    HW165487   9.719   5.775   4.314  0.1019  1.3793 -0.4772
20375SOL    HW265488   9.754   5.784   4.167  1.2175  1.0861 -0.2368
20376SOL     OW65489   9.571  10.572  10.436  0.7390  0.2869  0.2412
20376SOL    HW165490   9.624  10.651  10.425  2.1403 -0.4944  1.0518
20376SOL    HW265491   9.607  10.530  10.514  0.1174 -1.2203 -0.2464
20377SOL     OW65492   2.646   8.439   3.693  0.1470  0.0572 -0.1739
20377SOL    HW165493   2.614   8.378   3.627 -1.4541  0.4473  0.2002
20377SOL    HW265494   2.739   8.451   3.672  0.9528 -3.5947  0.6183
20378SOL     OW65495   7.376   8.438  10.829  0.6516  0.1405 -0.8117
20378SOL    HW165496   7.434   8.375  10.787  1.1084 -0.6469  0.9138
20378SOL    HW265497   7.416   8.455  10.914 -1.5947 -0.4247  0.4510
20379SOL     OW65498   4.258   1.066  10.557 -0.3275  0.4395 -0.0463
20379SOL    HW165499   4.256   0.977  10.593 -1.4755  0.6211  0.3681
20379SOL    HW265500   4.350   1.081  10.536 -0.0324 -0.6338  0.4216
20380SOL     OW65501   6.990   2.002   0.968 -0.1601  0.5773 -0.0425
20380SOL    HW165502   7.030   1.993   0.882 -0.8653  0.6200 -0.3811
20380SOL    HW265503   6.982   1.912   1.000 -0.4015  0.5217 -0.2576
20381SOL     OW65504   3.291   8.185   2.254  0.2011 -0.0049 -0.5307
20381SOL    HW165505   3.287   8.249   2.326  0.3795 -1.8010  1.1579
20381SOL    HW265506   3.202   8.180   2.221 -0.2795 -0.4663  0.7909
20382SOL     OW65507   1.049   7.342   2.082 -0.4343  0.3453 -0.0483
20382SOL    HW165508   1.017   7.418   2.032 -1.7905 -0.0287  0.2065
20382SOL    HW265509   1.038   7.268   2.021  2.7766  0.5591 -1.0561
20383SOL     OW65510   9.011   5.088   0.673 -0.2533  0.1945 -0.4149
20383SOL    HW165511   8.973   5.041   0.599  0.9481 -1.3832 -0.0836
20383SOL    HW265512   8.981   5.179   0.662 -0.2521 -0.0291 -2.7274
20384SOL     OW65513   3.434   7.955   3.241  0.6308  0.4186 -0.3148
20384SOL    HW165514   3.436   7.890   3.170  0.4464 -0.5958  0.5853
20384SOL    HW265515   3.373   8.022   3.211 -0.7138 -0.8233 -0.4252
20385SOL     OW65516   0.442   8.925   6.635  0.3233  0.3805 -0.1408
20385SOL    HW165517   0.437   8.916   6.730  1.4997  0.7124 -0.0368
20385SOL    HW265518   0.503   8.857   6.607 -1.2460 -0.7874 -0.8617
20386SOL     OW65519   3.789   0.351   7.628 -0.1378  0.1038  0.1298
20386SOL    HW165520   3.879   0.354   7.595 -0.1009 -2.2255 -0.1775
20386SOL    HW265521   3.783   0.267   7.673 -2.6029 -0.5359 -1.2057
20387SOL     OW65522   7.771   7.402   3.864 -0.4204  0.1897  0.4984
20387SOL    HW165523   7.754   7.347   3.941  0.1293 -0.2729  0.2887
20387SOL    HW265524   7.866   7.409   3.860 -0.4738  0.8172  0.2817
20388SOL     OW65525   8.979   9.849   9.653 -0.7138 -0.3672  0.8162
20388SOL    HW165526   9.010   9.906   9.724 -0.2623 -2.5986  2.5140
20388SOL    HW265527   8.918   9.904   9.604  2.6543  2.9195 -0.1909
20389SOL     OW65528   6.082   6.991   1.749  0.1141  0.4957  0.2456
20389SOL    HW165529   6.106   7.075   1.709  4.0876 -0.5519  0.0536
20389SOL    HW265530   6.047   6.939   1.676 -0.9955  1.4305  0.0742
20390SOL     OW65531   4.008   4.715   5.334 -0.1582  0.3527 -0.0471
20390SOL    HW165532   4.080   4.694   5.394 -0.4326  0.6211  0.3852
20390SOL    HW265533   4.051   4.737   5.251  0.3015  1.0988  0.3715
20391SOL     OW65534   0.937   0.611   9.538 -0.3032 -0.1962  0.0987
20391SOL    HW165535   1.008   0.547   9.538 -1.6194 -1.7266 -0.3946
20391SOL    HW265536   0.873   0.575   9.599 -0.4089  1.4897  1.0502
20392SOL     OW65537   2.632   6.499   5.190 -0.4979  0.4101  0.5644
20392SOL    HW165538   2.636   6.588   5.224  1.0179 -0.1440  1.9349
20392SOL    HW265539   2.693   6.449   5.244 -1.4846 -1.5283 -0.0069
20393SOL     OW65540  10.151   0.620   1.560  0.3105 -0.2002  0.3156
20393SOL    HW165541  10.233   0.644   1.602  0.5908 -1.5011  0.5543
20393SOL    HW265542  10.114   0.552   1.616 -1.4508  1.0613  0.7697
20394SOL     OW65543   5.504   1.123   8.265 -0.4539 -0.5850 -0.4248
20394SOL    HW165544   5.514   1.167   8.350  0.0868  0.5192 -1.0372
20394SOL    HW265545   5.456   1.186   8.212 -1.0107 -1.3800 -0.8647
20395SOL     OW65546   6.835   8.918   5.236 -0.7376 -0.2793  0.4366
20395SOL    HW165547   6.897   8.934   5.307  0.4393  1.7737 -0.9470
20395SOL    HW265548   6.789   8.838   5.261  0.4657 -0.2709  2.8950
20396SOL     OW65549   5.092   3.866   5.957  0.9539 -0.3114 -0.3628
20396SOL    HW165550   5.068   3.958   5.967 -0.7097 -0.9511  2.5342
20396SOL    HW265551   5.089   3.851   5.862 -0.7695  2.0960 -0.7795
20397SOL     OW65552   3.700  10.169  10.372  0.5429 -0.6414 -0.3647
20397SOL    HW165553   3.700  10.185  10.278  0.8238 -0.2393 -0.2966
20397SOL    HW265554   3.785  10.199  10.402  0.4813 -0.8314  0.0094
20398SOL     OW65555   4.286  10.176   8.450 -0.3662 -0.1527  0.3364
20398SOL    HW165556   4.191  10.169   8.460 -0.3874 -2.2366 -0.8632
20398SOL    HW265557   4.301  10.181   8.356  0.7520 -0.6878  0.4616
20399SOL     OW65558   7.384   0.638   6.278  0.5518 -0.0243 -0.2155
20399SOL    HW165559   7.400   0.732   6.280  0.1761  0.0350 -0.0325
20399SOL    HW265560   7.290   0.629   6.261  0.9016 -0.3755 -2.2215
20400SOL     OW65561   5.293   2.039   9.955 -0.5424  0.3270 -0.0709
20400SOL    HW165562   5.352   2.105   9.992 -0.5090  1.0593 -1.4053
20400SOL    HW265563   5.278   2.067   9.865  0.3692 -2.0549 -1.0513
20401SOL     OW65564   7.596   6.043   9.809  0.3253  0.4868  0.1458
20401SOL    HW165565   7.537   6.056   9.735  0.2282  0.1449  0.1575
20401SOL    HW265566   7.675   6.004   9.771 -0.1405 -0.7196  0.3430
20402SOL     OW65567   1.142   6.520   4.775 -0.0213 -0.1459  0.8848
20402SOL    HW165568   1.129   6.465   4.697 -0.2594 -1.3506  1.7462
20402SOL    HW265569   1.214   6.578   4.751  0.4546 -1.0416  0.0357
20403SOL     OW65570   3.828   6.208   4.933 -0.2360  0.6140 -0.3727
20403SOL    HW165571   3.809   6.213   4.839  1.4822  1.7834 -0.6926
20403SOL    HW265572   3.816   6.297   4.965 -0.3313  0.3226  0.4273
20404SOL     OW65573  10.086   8.650   7.597 -0.5824  0.3854 -0.1057
20404SOL    HW165574  10.169   8.683   7.563  0.9411 -0.9066  2.1715
20404SOL    HW265575  10.040   8.729   7.628  0.0130  1.0358 -0.8339
20405SOL     OW65576   3.808   9.206   6.640 -0.2778  0.0073  0.3531
20405SOL    HW165577   3.776   9.297   6.641 -1.0981 -0.2663  1.8226
20405SOL    HW265578   3.738   9.157   6.596 -0.7416 -0.2067  1.3174
20406SOL     OW65579   0.209   9.876   5.608  0.3302  0.2183 -0.0826
20406SOL    HW165580   0.114   9.875   5.594  0.0987 -0.2971  1.3001
20406SOL    HW265581   0.239   9.954   5.561 -1.0084  1.2195  0.6136
20407SOL     OW65582   0.637   3.849   8.287  0.0209 -0.5719 -0.4145
20407SOL    HW165583   0.676   3.859   8.374 -3.8651 -2.1376  1.7764
20407SOL    HW265584   0.653   3.933   8.244  3.3400 -0.2324  1.1479
20408SOL     OW65585   1.947   8.464   8.771  0.4949  0.1672  0.3988
20408SOL    HW165586   1.862   8.419   8.768  0.6416 -0.0388 -1.8958
20408SOL    HW265587   1.931   8.547   8.727  1.3297  0.4464  0.6193
20409SOL     OW65588   3.323   8.702   0.782 -0.2599  0.1581  0.1775
20409SOL    HW165589   3.264   8.768   0.745  0.4013 -0.5269 -2.2791
20409SOL    HW265590   3.409   8.723   0.745  0.5255 -0.4859  1.5392
20410SOL     OW65591   6.025   2.753   3.313 -0.7108 -0.2921 -0.3166
20410SOL    HW165592   6.045   2.742   3.406 -0.6699  0.5900 -0.2101
20410SOL    HW265593   6.079   2.828   3.286 -1.6808  0.2654 -0.7354
20411SOL     OW65594   8.380   0.732   4.340 -0.1236 -0.3592 -0.3347
20411SOL    HW165595   8.430   0.791   4.282  0.4767 -0.8278 -0.3033
20411SOL    HW265596   8.330   0.677   4.280  0.5151 -0.8592 -0.4261
20412SOL     OW65597   6.022  10.292   2.699  0.3994  0.6032  0.2796
20412SOL    HW165598   6.059  10.351   2.634  0.8567 -2.0906 -2.1033
20412SOL    HW265599   6.050  10.205   2.671 -5.1652 -1.4547 -0.0558
20413SOL     OW65600  10.098   7.269   5.217 -0.1303 -0.8169 -0.1066
20413SOL    HW165601  10.160   7.279   5.290  0.9527 -2.0022 -0.8291
20413SOL    HW265602  10.065   7.358   5.202  1.4731 -0.1162  0.2538
20414SOL     OW65603   6.825   7.870   3.982  0.3705  0.1673  0.1018
20414SOL    HW165604   6.807   7.786   4.024  3.0985  0.1232  1.3477
20414SOL    HW265605   6.786   7.861   3.894 -1.7615 -1.3144  1.0980
20415SOL     OW65606  10.085   3.429   3.115  0.9186  0.2473 -0.4095
20415SOL    HW165607  10.172   3.414   3.150  0.9874 -1.2481 -1.1593
20415SOL    HW265608  10.081   3.524   3.100  1.4666  0.7085  1.9798
20416SOL     OW65609   0.155   9.883   9.037 -0.1583  0.2039  0.0607
20416SOL    HW165610   0.181   9.862   8.947 -0.2653  1.3537 -0.2596
20416SOL    HW265611   0.065   9.915   9.029 -0.5307 -0.6765  0.7235
20417SOL     OW65612   1.787   7.329  10.733 -0.1326  0.1618  0.3828
20417SOL    HW165613   1.792   7.425  10.728 -0.8601  0.3087  2.0336
20417SOL    HW265614   1.842   7.305  10.807  1.7728 -0.9398 -1.2757
20418SOL     OW65615  10.433   3.728   3.628 -0.0663 -0.7118  0.0253
20418SOL    HW165616  10.489   3.650   3.626 -1.5490 -1.8142  0.1181
20418SOL    HW265617  10.391   3.726   3.713  2.9981  2.5856  1.8874
20419SOL     OW65618   8.985  10.374   1.510  1.1447  0.1533 -0.3212
20419SOL    HW165619   8.948  10.326   1.436  0.7804 -0.6450  0.3587
20419SOL    HW265620   9.057  10.425   1.472  0.0960  0.8401 -1.4603
20420SOL     OW65621   6.588   6.935   8.421  0.0407  0.2974  0.0001
20420SOL    HW165622   6.516   6.999   8.418 -0.9525 -0.5422  3.0324
20420SOL    HW265623   6.566   6.871   8.353  0.2742  2.2847 -2.0628
20421SOL     OW65624  10.156   3.910   4.567  0.0550  0.3817 -0.0937
20421SOL    HW165625  10.175   4.000   4.538  1.1793  0.5522  1.0715
20421SOL    HW265626  10.238   3.880   4.606  0.1795 -1.7345 -1.7925
20422SOL     OW65627   7.773   8.987  11.025 -0.3293  0.3834 -0.1051
20422SOL    HW165628   7.697   9.046  11.024  0.0399  0.8843  0.6463
20422SOL    HW265629   7.841   9.037  10.980 -0.2620  0.1739 -0.2374
20423SOL     OW65630   0.140   1.697   9.062  0.0327 -0.0803  0.7818
20423SOL    HW165631   0.067   1.724   9.118  0.3898 -2.1813  2.3933
20423SOL    HW265632   0.102   1.632   9.003 -0.0540  1.2098 -0.6695
20424SOL     OW65633   4.614   8.404   1.930 -0.1999  0.1714  0.4263
20424SOL    HW165634   4.679   8.390   1.999  1.2507 -0.8775 -1.0570
20424SOL    HW265635   4.592   8.315   1.900  0.6577  0.5987 -1.6836
20425SOL     OW65636   4.118  10.912   5.626  0.4140 -0.9685 -0.0494
20425SOL    HW165637   4.058  10.920   5.552 -0.9737  0.6762  1.1575
20425SOL    HW265638   4.203  10.897   5.587 -0.4171 -1.0339 -1.9369
20426SOL     OW65639   5.272   2.458   0.846 -0.2463 -0.2030 -0.1418
20426SOL    HW165640   5.357   2.500   0.833  0.0272 -0.5564  0.4894
20426SOL    HW265641   5.284   2.401   0.922 -0.7899 -0.9538 -0.6049
20427SOL     OW65642   4.681   5.603   6.180  0.1679  0.4241 -0.8284
20427SOL    HW165643   4.743   5.547   6.133  0.2775 -0.4983  0.3621
20427SOL    HW265644   4.731   5.682   6.200  1.2233 -0.5731  0.6961
20428SOL     OW65645   1.533   5.107   9.383  0.4675  0.0959 -0.3829
20428SOL    HW165646   1.494   5.192   9.400  3.1026  1.1497  1.0129
20428SOL    HW265647   1.591   5.122   9.308 -0.3712 -0.9755 -1.2877
20429SOL     OW65648   0.851   2.554   1.904 -0.4754 -0.5718 -0.3962
20429SOL    HW165649   0.861   2.649   1.896 -0.1466 -0.6132 -0.5084
20429SOL    HW265650   0.858   2.521   1.814  0.3697 -0.7841 -0.2642
20430SOL     OW65651   2.659   6.294   7.035  0.8746 -0.2156  0.0069
20430SOL    HW165652   2.702   6.258   7.113  0.1501 -0.0856  0.4781
20430SOL    HW265653   2.616   6.374   7.065 -0.4516 -0.8051 -0.2138
20431SOL     OW65654   3.218   3.377   6.155 -0.0005  0.0971 -0.2118
20431SOL    HW165655   3.134   3.351   6.193  0.0540 -0.2545 -0.3286
20431SOL    HW265656   3.279   3.376   6.229  0.2063 -1.0418 -0.3775
20432SOL     OW65657   1.494   0.078   6.245  0.1976 -1.1383 -0.0695
20432SOL    HW165658   1.567   0.139   6.256  0.5837 -1.5283 -0.3976
20432SOL    HW265659   1.535  -0.000   6.206 -0.5710 -0.9273 -1.3649
20433SOL     OW65660   2.026   4.602   1.179  0.4020 -0.2144 -0.0745
20433SOL    HW165661   2.099   4.575   1.235  0.2282 -1.1463 -0.2885
20433SOL    HW265662   1.948   4.579   1.228  0.1836  2.0550  0.7885
20434SOL     OW65663  10.136   2.609   7.876  0.3802 -0.5969 -0.2523
20434SOL    HW165664  10.149   2.589   7.969  1.8251  0.6064 -0.1509
20434SOL    HW265665  10.224   2.602   7.838 -0.0132  0.0194 -1.3051
20435SOL     OW65666   6.371   0.414   9.104 -0.1895 -0.0938  0.2691
20435SOL    HW165667   6.304   0.410   9.036 -1.3560  0.6253  1.3344
20435SOL    HW265668   6.332   0.467   9.174  1.6172  0.6665  0.7833
20436SOL     OW65669   6.022   6.053   7.935 -0.3550 -0.0286 -0.3199
20436SOL    HW165670   6.032   5.977   7.993 -0.1957  0.5471  0.4235
20436SOL    HW265671   5.986   6.121   7.991  0.7533  0.8513 -0.6361
20437SOL     OW65672   7.143   6.679   4.585 -0.1932 -0.0783 -0.0665
20437SOL    HW165673   7.186   6.655   4.667 -1.0201  1.5445  0.8682
20437SOL    HW265674   7.213   6.673   4.519  0.5750 -1.0014  0.7990
20438SOL     OW65675  10.372   2.326   4.593  0.0074 -0.9498  0.0386
20438SOL    HW165676  10.394   2.372   4.675 -0.3763 -1.3947  0.3943
20438SOL    HW265677  10.335   2.243   4.621 -1.7547 -0.4058 -0.5459
20439SOL     OW65678   5.701   0.414   7.500 -0.6117  0.0348 -0.1042
20439SOL    HW165679   5.697   0.359   7.422 -1.1825  1.6552 -1.2612
20439SOL    HW265680   5.789   0.399   7.536 -0.7897 -1.6975 -0.2874
20440SOL     OW65681   1.314   4.734   2.543 -1.1456 -0.5329  0.5241
20440SOL    HW165682   1.262   4.744   2.624 -0.2733 -0.5896  1.0999
20440SOL    HW265683   1.393   4.785   2.559 -0.7155 -1.0040 -0.0792
20441SOL     OW65684   0.533  10.557   7.690 -0.3507 -0.2303  0.6291
20441SOL    HW165685   0.609  10.605   7.723  0.7665 -1.5982  0.1529
20441SOL    HW265686   0.501  10.508   7.766 -0.8952  0.5108  0.8815
20442SOL     OW65687  11.012   7.824   7.390 -0.5851  0.3721 -0.1766
20442SOL    HW165688  11.033   7.745   7.340  1.5247  0.6011  0.2870
20442SOL    HW265689  10.939   7.796   7.447  0.7979 -1.6064  0.7526
20443SOL     OW65690   7.859   0.911   8.667  0.5144 -0.6854  0.0639
20443SOL    HW165691   7.769   0.907   8.698 -0.2042 -1.6802 -1.9984
20443SOL    HW265692   7.889   0.820   8.669  0.6889 -0.6767 -1.3545
20444SOL     OW65693   6.523   2.848   7.218  0.1351 -0.1068  0.2484
20444SOL    HW165694   6.591   2.909   7.187  2.2734 -1.6723  1.5716
20444SOL    HW265695   6.538   2.768   7.167  1.2089 -1.4238  2.4831
20445SOL     OW65696   9.858  10.162  10.570  0.2392 -0.8435 -0.0543
20445SOL    HW165697   9.860  10.069  10.589 -1.3963 -0.6979  1.0430
20445SOL    HW265698   9.816  10.201  10.647  0.3724  0.7250 -0.7433
20446SOL     OW65699   9.393   0.708   3.366  0.5643  0.1853 -0.0234
20446SOL    HW165700   9.434   0.637   3.414  0.5606 -0.8678 -1.5136
20446SOL    HW265701   9.339   0.665   3.300 -3.3786  1.4889  2.0584
20447SOL     OW65702   8.095   6.304   3.546 -0.4572 -0.4399  0.0273
20447SOL    HW165703   8.052   6.346   3.472  0.0482 -0.6292 -0.3794
20447SOL    HW265704   8.127   6.221   3.512  1.4304  0.2813 -0.0680
20448SOL     OW65705   4.136   0.877   5.191 -0.2918 -0.1002 -0.0321
20448SOL    HW165706   4.171   0.846   5.275 -0.6415  0.9449  0.5211
20448SOL    HW265707   4.181   0.960   5.176 -0.1507 -0.3381 -0.9443
20449SOL     OW65708   0.852   0.807   9.871 -0.0403  0.8329  0.1328
20449SOL    HW165709   0.878   0.753   9.945 -0.3295  0.0075 -0.3575
20449SOL    HW265710   0.769   0.769   9.842  0.5462  0.5309 -1.2111
20450SOL     OW65711   6.786   2.655   6.986 -0.5400 -0.1879 -0.0902
20450SOL    HW165712   6.765   2.656   7.080 -1.1612  0.0198 -0.2210
20450SOL    HW265713   6.737   2.579   6.952  0.1650 -0.6220 -0.1447
20451SOL     OW65714   6.130   2.297  10.771 -0.2596  0.5280 -0.7263
20451SOL    HW165715   6.121   2.210  10.732 -0.5302 -0.9306  2.2844
20451SOL    HW265716   6.224   2.310  10.779 -0.2227  0.1105 -0.4316
20452SOL     OW65717   2.156   8.271   4.405  0.1192 -0.5723  0.3184
20452SOL    HW165718   2.230   8.267   4.466  0.3338 -2.3249  0.0036
20452SOL    HW265719   2.095   8.333   4.445  1.1482 -0.1343  1.2678
20453SOL     OW65720  10.311   6.021   5.179  0.2153 -0.4571 -0.3533
20453SOL    HW165721  10.388   5.964   5.176  0.6870  0.2115 -1.2925
20453SOL    HW265722  10.245   5.976   5.127  0.6073 -0.1384 -1.1434
20454SOL     OW65723   1.872   6.070   1.715  0.6905 -0.6127  0.7858
20454SOL    HW165724   1.781   6.079   1.685  1.0750 -0.3410 -0.3552
20454SOL    HW265725   1.872   5.991   1.768  0.0116 -1.2886 -0.1824
20455SOL     OW65726   3.872   7.274   2.340 -0.0057  0.2000 -0.0192
20455SOL    HW165727   3.946   7.312   2.293  1.3461  0.2579  2.0026
20455SOL    HW265728   3.908   7.197   2.384 -0.3999  1.5735  3.0114
20456SOL     OW65729   7.865   7.984  10.070 -0.5913 -0.2990  0.3539
20456SOL    HW165730   7.863   8.069  10.027  0.8619  0.9118  2.4710
20456SOL    HW265731   7.958   7.965  10.082 -0.9107 -1.3145  1.4920
20457SOL     OW65732   5.501   8.419   2.933  0.2521 -0.6858  0.3429
20457SOL    HW165733   5.504   8.375   3.018  0.3358 -1.9717 -0.2951
20457SOL    HW265734   5.420   8.389   2.893 -0.7179  1.3357  0.6614
20458SOL     OW65735   1.777  10.727   7.052 -0.2816  0.0132 -0.6273
20458SOL    HW165736   1.743  10.812   7.024 -0.0798 -0.3611 -2.0431
20458SOL    HW265737   1.871  10.734   7.040 -0.2839 -0.4840 -0.9381
20459SOL     OW65738   0.410   6.409   7.063 -0.2768 -0.1648  0.6115
20459SOL    HW165739   0.328   6.455   7.046 -1.6328 -2.3110  0.8821
20459SOL    HW265740   0.418   6.408   7.158 -0.7124 -1.1502  0.6538
20460SOL     OW65741   5.313   4.022   5.594  0.1071  0.2936 -0.2743
20460SOL    HW165742   5.326   4.004   5.687  1.6173 -0.3880 -0.5950
20460SOL    HW265743   5.305   3.936   5.554 -1.7354  0.5900 -0.6645
20461SOL     OW65744   7.392   6.206   3.759 -0.3830  1.0007 -0.3538
20461SOL    HW165745   7.311   6.250   3.732 -0.6467  0.6841 -0.1013
20461SOL    HW265746   7.403   6.136   3.695 -1.4223 -0.2306  0.7378
20462SOL     OW65747   2.647   7.105   9.370  0.0057  0.6250 -0.3677
20462SOL    HW165748   2.663   7.178   9.309 -0.7857  0.3421 -0.9292
20462SOL    HW265749   2.665   7.027   9.317 -0.1730  0.3868 -0.0744
20463SOL     OW65750   6.795   6.706   9.908 -0.2531 -0.2421 -0.0461
20463SOL    HW165751   6.787   6.681  10.000  1.2767 -3.2325 -0.5880
20463SOL    HW265752   6.854   6.781   9.908  0.6239 -0.9046  1.3471
20464SOL     OW65753   2.076   6.421   4.964  0.3419  0.2525 -0.1643
20464SOL    HW165754   2.099   6.513   4.951  0.1977  0.0646 -2.1472
20464SOL    HW265755   2.022   6.399   4.888  0.6379 -1.5438  0.0917
20465SOL     OW65756   3.944   6.449   2.974 -0.3092 -0.2649  0.4860
20465SOL    HW165757   3.987   6.528   3.008  1.6307 -1.2313  0.4268
20465SOL    HW265758   3.895   6.479   2.898 -0.6931  1.1058  1.2488
20466SOL     OW65759   7.948  10.005   1.625  0.1223 -0.0080  0.3542
20466SOL    HW165760   7.946   9.948   1.549 -2.7992 -0.9943  1.0469
20466SOL    HW265761   7.901   9.956   1.693 -0.9053  2.4653  1.5392
20467SOL     OW65762   9.553   0.237   2.845 -0.0275 -0.8321 -0.8596
20467SOL    HW165763   9.573   0.262   2.935  0.7159 -1.7782 -0.7447
20467SOL    HW265764   9.604   0.297   2.792 -1.0279  0.2050 -0.6801
20468SOL     OW65765   2.216   3.087   7.254 -0.6255  0.0743  0.3967
20468SOL    HW165766   2.221   3.174   7.294 -2.0218 -0.2749  1.3593
20468SOL    HW265767   2.168   3.101   7.172  0.0812  0.3656  0.0182
20469SOL     OW65768   1.782   7.456   1.989 -0.1788  0.0513 -0.0982
20469SOL    HW165769   1.771   7.377   1.935 -1.8175  0.0290  0.2192
20469SOL    HW265770   1.710   7.512   1.963 -0.2495  0.5722  1.1765
20470SOL     OW65771   3.897   6.780   7.114  0.2230  0.4270  0.3289
20470SOL    HW165772   3.873   6.714   7.049 -0.1534  0.5009  0.3954
20470SOL    HW265773   3.934   6.729   7.186  1.1071  0.3759 -0.1420
20471SOL     OW65774   0.685   2.075   1.566 -0.4248 -0.1615 -0.1294
20471SOL    HW165775   0.591   2.059   1.570 -0.2448 -1.8040 -1.4514
20471SOL    HW265776   0.702   2.135   1.638 -2.4303 -0.0674  0.3260
20472SOL     OW65777   1.337   2.277   2.123  0.1452  0.2731 -0.3292
20472SOL    HW165778   1.290   2.263   2.041 -0.8034 -0.9670  0.3645
20472SOL    HW265779   1.349   2.188   2.158  1.7126  0.6835  0.2407
20473SOL     OW65780   7.956   0.946   3.654 -1.0049  0.0791  0.3837
20473SOL    HW165781   7.932   0.887   3.583 -1.9069  1.4679 -0.4998
20473SOL    HW265782   7.878   1.000   3.668 -1.5352 -1.3406  3.7098
20474SOL     OW65783   6.529   5.316   1.397 -0.3970 -0.4703 -0.0672
20474SOL    HW165784   6.604   5.374   1.409 -0.5442 -0.2083 -0.3901
20474SOL    HW265785   6.567   5.228   1.390 -0.0197 -0.2211 -1.3411
20475SOL     OW65786   3.216   1.926   5.744  0.0423  0.0779  0.2523
20475SOL    HW165787   3.198   1.835   5.767 -0.2426 -0.1287 -0.7385
20475SOL    HW265788   3.311   1.931   5.734  0.0158 -0.2143 -0.1323
20476SOL     OW65789   7.558   0.909   4.171  0.2430  0.5550  0.0088
20476SOL    HW165790   7.584   0.817   4.177  0.6444  0.6279 -0.5812
20476SOL    HW265791   7.471   0.907   4.131  0.1997  0.4297  0.1052
20477SOL     OW65792   8.262   4.709   9.992  0.1727 -0.8175 -0.0081
20477SOL    HW165793   8.348   4.678  10.020  0.1152  0.0828  1.2793
20477SOL    HW265794   8.229   4.640   9.934  1.1303 -1.8996  0.6815
20478SOL     OW65795   0.158   2.641   9.467  0.8619 -0.1389  0.2002
20478SOL    HW165796   0.067   2.673   9.463  0.5780 -1.0047 -0.7089
20478SOL    HW265797   0.196   2.670   9.384  0.8043 -1.4973 -0.3289
20479SOL     OW65798   6.503   7.652  10.990 -0.0720  0.4808  0.2679
20479SOL    HW165799   6.432   7.587  10.987 -0.0294  0.3392  1.6391
20479SOL    HW265800   6.458   7.736  10.998 -0.1603  0.7842 -2.3528
20480SOL     OW65801   8.903   8.864  10.929  0.1763  0.0978  0.0518
20480SOL    HW165802   8.838   8.805  10.890  0.9047 -0.6768 -0.0243
20480SOL    HW265803   8.965   8.880  10.858  0.4341  0.2897  0.3213
20481SOL     OW65804   4.167   2.041   9.206 -0.4879 -0.2471  0.2770
20481SOL    HW165805   4.109   2.073   9.275 -0.6168 -0.7633  0.4076
20481SOL    HW265806   4.247   2.094   9.215 -2.3626  3.6031 -2.5749
20482SOL     OW65807   8.527   1.109   3.178  0.1764 -0.2693 -0.5668
20482SOL    HW165808   8.575   1.149   3.106  0.9317 -1.4431 -0.7244
20482SOL    HW265809   8.571   1.140   3.257  1.7108 -1.9357 -0.7260
20483SOL     OW65810   8.486   3.317   9.019 -0.2558 -0.2694  0.0671
20483SOL    HW165811   8.454   3.229   9.002  2.2200 -1.3254  0.3149
20483SOL    HW265812   8.558   3.329   8.956 -1.2384  2.0442 -0.7210
20484SOL     OW65813   7.498   6.302   2.911  0.9555  0.5131  0.0079
20484SOL    HW165814   7.453   6.219   2.897  1.2002  0.1977  0.9888
20484SOL    HW265815   7.561   6.283   2.980  1.2203  1.4422  0.0283
20485SOL     OW65816   8.081   8.854   8.017  0.1078 -0.6848 -0.2413
20485SOL    HW165817   8.031   8.808   7.950  1.4671 -1.1467 -0.9856
20485SOL    HW265818   8.164   8.876   7.974 -0.4061  2.4256  0.0828
20486SOL     OW65819   3.861   5.791   6.122  0.1175 -0.2371  0.5996
20486SOL    HW165820   3.892   5.765   6.209 -2.1002 -0.8296  1.3051
20486SOL    HW265821   3.819   5.712   6.088 -1.3757  0.7081  0.1511
20487SOL     OW65822   0.801  10.491  11.061 -0.1544 -0.3670  0.0920
20487SOL    HW165823   0.847  10.436  10.997 -1.8060  1.0629 -2.5110
20487SOL    HW265824   0.854  10.570  11.067  0.4238 -0.8144  1.1998
20488SOL     OW65825   9.392   1.291   8.367  0.3928 -0.5987  0.2598
20488SOL    HW165826   9.299   1.312   8.363  0.4486 -0.3316  0.3482
20488SOL    HW265827   9.425   1.312   8.279  0.8168  1.4677  0.8531
20489SOL     OW65828   9.564   2.620   0.993 -0.0623 -0.0968 -0.2277
20489SOL    HW165829   9.497   2.557   1.018 -1.3892  0.4791 -2.1895
20489SOL    HW265830   9.586   2.665   1.075 -0.9605 -1.3169  0.7157
20490SOL     OW65831   0.497   0.593   5.758  0.1118 -0.7583 -0.0921
20490SOL    HW165832   0.577   0.620   5.802  0.4815 -1.4218 -0.3541
20490SOL    HW265833   0.439   0.564   5.828 -0.1487  0.3149  0.1609
20491SOL     OW65834   5.848   9.212   2.275  0.6107  0.4009 -0.8689
20491SOL    HW165835   5.773   9.153   2.262  2.2167 -1.2607 -3.4183
20491SOL    HW265836   5.861   9.214   2.370 -0.9064 -1.5366 -0.5616
20492SOL     OW65837   1.787   9.294   3.290 -0.4800 -0.5376 -0.3171
20492SOL    HW165838   1.877   9.261   3.287 -0.5324 -0.7203  0.0121
20492SOL    HW265839   1.734   9.215   3.302 -0.7060 -0.4570 -0.7600
20493SOL     OW65840   2.516  10.082  10.531  0.5291  0.1233  0.1836
20493SOL    HW165841   2.595  10.031  10.518  0.9786  0.7111  0.5284
20493SOL    HW265842   2.513  10.143  10.457 -1.0566 -1.6580 -1.3243
20494SOL     OW65843  10.404   1.011   5.759  0.2089 -0.3614  0.4672
20494SOL    HW165844  10.414   1.004   5.854  2.6390  2.2323  0.5658
20494SOL    HW265845  10.471   0.953   5.724  2.4799  1.9323  0.6134
20495SOL     OW65846   5.777   5.248   8.328  0.3746  0.4417 -0.1933
20495SOL    HW165847   5.715   5.181   8.356 -0.1477 -0.2195 -2.6310
20495SOL    HW265848   5.863   5.205   8.333  0.5046  0.8389  1.6758
20496SOL     OW65849   8.740   3.521   2.355 -0.4297 -0.4288  0.5520
20496SOL    HW165850   8.648   3.546   2.362 -0.4607 -0.2941 -0.2312
20496SOL    HW265851   8.750   3.450   2.419 -1.4013 -1.3105 -0.2176
20497SOL     OW65852   2.275   1.048   7.189 -0.3638  0.4679 -0.4757
20497SOL    HW165853   2.185   1.016   7.192  0.4024 -1.7436  1.2620
20497SOL    HW265854   2.280   1.098   7.107 -2.8643 -0.2032 -1.1181
20498SOL     OW65855  10.856   4.006   3.721  0.4222 -0.8251  0.6723
20498SOL    HW165856  10.825   4.073   3.781  0.0222 -0.7157  0.3437
20498SOL    HW265857  10.910   4.054   3.658 -0.4757 -0.6946 -0.0051
20499SOL     OW65858   8.234  10.559   8.393 -0.5347  0.5990 -0.2372
20499SOL    HW165859   8.163  10.566   8.329 -0.8427 -1.3539 -0.1543
20499SOL    HW265860   8.192  10.573   8.477 -0.6174  0.4540 -0.2551
20500SOL     OW65861   3.355   0.142   6.274  0.6791  0.3464  0.2666
20500SOL    HW165862   3.416   0.187   6.332 -0.2769 -0.8108  2.2752
20500SOL    HW265863   3.293   0.099   6.333 -1.1830  0.2274 -1.6530
20501SOL     OW65864   7.800   5.190   5.612  0.2208 -0.3541  0.5406
20501SOL    HW165865   7.877   5.134   5.624 -0.9471 -1.6869  2.2339
20501SOL    HW265866   7.740   5.165   5.682 -2.2601 -0.1465 -1.3511
20502SOL     OW65867   9.300   9.624   4.873 -0.2299 -0.1158  0.3662
20502SOL    HW165868   9.346   9.682   4.813 -0.8257 -1.2891 -1.3238
20502SOL    HW265869   9.336   9.537   4.855 -1.3984 -0.6964  0.7072
20503SOL     OW65870   5.116   9.787   7.553  0.1060  0.6003  0.0488
20503SOL    HW165871   5.081   9.856   7.497 -1.1615  0.1096  0.1926
20503SOL    HW265872   5.064   9.710   7.531  0.0864  0.2126  1.3709
20504SOL     OW65873   0.091   8.218   4.410  0.2353  0.3273 -0.0919
20504SOL    HW165874   0.005   8.201   4.373  0.1901  1.6476 -0.6447
20504SOL    HW265875   0.078   8.292   4.469  0.9468  0.3974 -0.0103
20505SOL     OW65876   7.595   6.960   5.715  0.2033 -0.0291 -0.0114
20505SOL    HW165877   7.635   6.900   5.652 -0.4225 -1.1509  0.6100
20505SOL    HW265878   7.667   6.987   5.772  0.4492 -0.3879 -0.1473
20506SOL     OW65879   6.013   6.572  10.519  0.1833  0.1894 -0.2101
20506SOL    HW165880   6.053   6.625  10.450 -0.0039 -0.6414 -0.9794
20506SOL    HW265881   5.931   6.617  10.539  1.5497  2.0925  1.6034
20507SOL     OW65882   8.622   0.722   2.054  0.5285 -0.5081 -0.6184
20507SOL    HW165883   8.592   0.746   1.966 -0.0090  1.4880  0.0511
20507SOL    HW265884   8.669   0.799   2.085 -0.9286 -0.4136  1.5449
20508SOL     OW65885   4.138   1.608   9.201 -0.4236  0.4319  0.0644
20508SOL    HW165886   4.054   1.652   9.213 -0.7333 -0.2112  0.2662
20508SOL    HW265887   4.125   1.551   9.124  0.0704  0.9116 -0.3880
20509SOL     OW65888   9.680   5.991   8.729 -1.3382  0.7514 -0.2883
20509SOL    HW165889   9.748   6.054   8.753 -1.7455  1.2581 -0.4514
20509SOL    HW265890   9.622   6.039   8.670  0.7724 -0.9892 -4.1508
20510SOL     OW65891   6.533  10.433   1.373 -0.4688 -0.7895  0.0709
20510SOL    HW165892   6.600  10.404   1.310  0.3857  2.4680 -0.6943
20510SOL    HW265893   6.581  10.446   1.455 -0.6553 -0.6312  0.1548
20511SOL     OW65894   3.900   3.605   5.756  0.2200  0.1326 -0.7141
20511SOL    HW165895   3.965   3.576   5.692  0.2848  0.0638 -0.6166
20511SOL    HW265896   3.818   3.569   5.724  0.2517  0.1001 -0.7598
20512SOL     OW65897   3.935   8.891   2.231 -0.2425 -0.7159 -0.5319
20512SOL    HW165898   4.024   8.857   2.237 -0.5556 -1.9588 -2.2162
20512SOL    HW265899   3.890   8.831   2.171 -2.0846  0.1676 -0.1184
20513SOL     OW65900   2.044   0.051   7.596  0.1365  0.3161 -0.1205
20513SOL    HW165901   1.970   0.110   7.580  0.5917  0.5167 -1.5997
20513SOL    HW265902   2.121   0.108   7.598  0.4093 -0.0482  0.0432
20514SOL     OW65903   4.479   7.764   3.588 -0.1748  0.3857 -0.6307
20514SOL    HW165904   4.438   7.826   3.528  1.0855 -1.7927 -4.0287
20514SOL    HW265905   4.427   7.684   3.579  1.7274 -0.8665 -1.0802
20515SOL     OW65906   2.415   9.853   3.306 -0.2247  0.2043  0.3573
20515SOL    HW165907   2.346   9.794   3.336  1.7502 -1.7391  1.3793
20515SOL    HW265908   2.491   9.831   3.360  2.0560  0.1970 -2.5974
20516SOL     OW65909   1.375   2.762   2.934 -0.8443  0.0087 -0.5070
20516SOL    HW165910   1.300   2.817   2.910 -1.3144 -1.4146 -2.6154
20516SOL    HW265911   1.354   2.728   3.020  0.4402  4.6660  2.0071
20517SOL     OW65912   9.560   2.177   8.195  0.3132  0.1225 -0.3480
20517SOL    HW165913   9.535   2.181   8.287 -1.1184 -1.9103 -0.5810
20517SOL    HW265914   9.508   2.245   8.153 -1.8947 -1.3315 -0.1549
20518SOL     OW65915   5.718   3.716   8.037  0.6446 -0.4111 -0.0438
20518SOL    HW165916   5.754   3.773   7.969  0.3128 -0.6403 -0.4158
20518SOL    HW265917   5.645   3.672   7.995  2.3545 -2.9639 -0.5133
20519SOL     OW65918   7.413   2.513   4.569 -0.2653  0.0274  0.4291
20519SOL    HW165919   7.381   2.423   4.556  0.6667 -0.5238  1.7545
20519SOL    HW265920   7.474   2.506   4.642  0.5072  1.6037 -0.0380
20520SOL     OW65921   0.510   6.484   0.777 -0.0699 -0.4542 -0.3114
20520SOL    HW165922   0.558   6.454   0.854  2.1184  0.2709 -1.3047
20520SOL    HW265923   0.563   6.556   0.742 -2.7584  1.5478 -0.5772
20521SOL     OW65924   5.739   5.495   4.139 -0.5379 -0.4123  0.7932
20521SOL    HW165925   5.786   5.412   4.133 -1.1598 -0.6970 -0.6223
20521SOL    HW265926   5.777   5.549   4.070 -1.2558 -0.1255  0.6098
20522SOL     OW65927   6.955   3.470   2.747 -0.0581 -0.3462 -0.2298
20522SOL    HW165928   6.914   3.413   2.811  0.4396 -2.2307 -1.5024
20522SOL    HW265929   7.042   3.433   2.733 -0.4352 -0.5260 -2.5659
20523SOL     OW65930  10.268   7.822  10.714 -0.4260  0.0957  0.4552
20523SOL    HW165931  10.278   7.745  10.658  0.4082  0.0952  0.5875
20523SOL    HW265932  10.176   7.845  10.708 -0.3704  0.0252 -0.8160
20524SOL     OW65933   5.551   7.871   1.293  0.0664 -0.2546 -0.0337
20524SOL    HW165934   5.612   7.933   1.250  0.1458  0.0081  0.4549
20524SOL    HW265935   5.479   7.926   1.324  0.2121 -0.3864  0.5406
20525SOL     OW65936   8.815   6.553   4.967 -0.7157  0.0287 -0.5655
20525SOL    HW165937   8.801   6.462   4.992  0.6998  0.6648  3.1645
20525SOL    HW265938   8.909   6.568   4.981 -0.9921  2.1658 -0.6696
20526SOL     OW65939   6.225   0.964   3.404 -0.2212  0.0237  0.5453
20526SOL    HW165940   6.239   0.970   3.310  2.0291  1.6695  0.8785
20526SOL    HW265941   6.136   0.995   3.418 -0.4198  0.1973 -0.9942
20527SOL     OW65942   1.959   0.442   5.221  0.5988 -0.1093  0.5540
20527SOL    HW165943   1.959   0.510   5.154 -0.1720 -1.1382 -0.5170
20527SOL    HW265944   2.029   0.468   5.281  0.6187  1.3780 -0.0649
20528SOL     OW65945   1.700   8.065   4.779  0.6726 -0.2866 -0.2528
20528SOL    HW165946   1.637   8.100   4.716 -0.7931  0.3919  1.4965
20528SOL    HW265947   1.770   8.030   4.726 -0.1226  0.9739 -2.2362
20529SOL     OW65948  10.639  10.402   6.617  0.3370  0.1941 -0.3631
20529SOL    HW165949  10.625  10.485   6.572 -0.1319 -0.3346 -1.2144
20529SOL    HW265950  10.555  10.383   6.660  0.6624  0.5034  0.4356
20530SOL     OW65951  10.153   1.526   2.213  0.0097 -0.0530 -0.0189
20530SOL    HW165952  10.114   1.614   2.205 -1.6621 -0.8108 -0.6639
20530SOL    HW265953  10.228   1.539   2.271 -0.8025  1.6322  0.7425
20531SOL     OW65954   3.800  10.056   2.683  0.4872  0.2404 -0.6024
20531SOL    HW165955   3.882  10.073   2.636  0.6432  2.7339  0.4163
20531SOL    HW265956   3.827  10.007   2.761  0.9811  0.8048 -0.4133
20532SOL     OW65957   5.547   3.477   3.033 -0.2604  0.2519  0.0438
20532SOL    HW165958   5.457   3.489   3.065 -0.1633 -1.1691  0.9279
20532SOL    HW265959   5.567   3.558   2.987 -1.2568  1.4428  1.6118
20533SOL     OW65960   7.517  10.228   7.259 -0.2089  0.5503  0.0651
20533SOL    HW165961   7.607  10.250   7.233  0.0462  0.4752  0.8525
20533SOL    HW265962   7.464  10.298   7.222  0.2316  0.8653  0.0168
20534SOL     OW65963   4.447   5.513   8.961 -0.3966 -0.1353 -0.1123
20534SOL    HW165964   4.488   5.528   9.046  0.2410  1.5000 -0.6693
20534SOL    HW265965   4.362   5.474   8.982 -0.9179  1.6629  1.4003
20535SOL     OW65966  10.448   0.496   9.192  0.1124 -0.3306  0.0446
20535SOL    HW165967  10.415   0.411   9.222  0.2078 -0.2617  0.3506
20535SOL    HW265968  10.470   0.482   9.100  1.3582 -1.0020  0.4284
20536SOL     OW65969   9.503  10.299   7.763  0.5209 -0.6309 -0.3947
20536SOL    HW165970   9.457  10.345   7.693  0.4593 -1.0878 -0.6554
20536SOL    HW265971   9.440  10.297   7.835  0.5569 -0.2294 -0.3468
20537SOL     OW65972   3.287  10.481   3.218  0.6547 -0.0236 -0.8550
20537SOL    HW165973   3.369  10.460   3.174 -0.1298  0.1257 -2.4263
20537SOL    HW265974   3.275  10.574   3.205 -0.1879 -0.2003 -1.3670
20538SOL     OW65975   8.108   5.261   6.130 -0.5332 -0.0972 -0.5523
20538SOL    HW165976   8.169   5.253   6.203 -0.5349  1.0315 -0.3999
20538SOL    HW265977   8.059   5.342   6.149 -1.0069 -0.1579 -1.4518
20539SOL     OW65978   6.354  10.219   0.581  0.9058  0.0929 -0.3367
20539SOL    HW165979   6.447  10.219   0.603  1.0363  0.3120 -0.8892
20539SOL    HW265980   6.348  10.165   0.502  0.0080 -3.5262  1.9448
20540SOL     OW65981   9.114   1.153   8.525  0.0534  0.0816 -0.5924
20540SOL    HW165982   9.196   1.129   8.568 -0.6051  1.2265  1.3991
20540SOL    HW265983   9.139   1.222   8.463  0.4620  1.2342  0.8154
20541SOL     OW65984   2.168  10.015   6.389  0.6479  0.4265  0.4736
20541SOL    HW165985   2.167   9.919   6.382  0.7185  0.4848 -0.5351
20541SOL    HW265986   2.094  10.043   6.335  1.9796  1.0247 -1.1283
20542SOL     OW65987   0.106   2.784   4.404 -0.2726  0.0928 -0.2228
20542SOL    HW165988   0.075   2.836   4.329 -0.0693 -0.7914 -0.9331
20542SOL    HW265989   0.050   2.811   4.477 -0.8719  0.5334 -0.8332
20543SOL     OW65990   0.085   3.009   9.210 -0.0077 -0.5883 -0.1117
20543SOL    HW165991   0.005   3.056   9.186  0.7791  1.0573  0.2861
20543SOL    HW265992   0.070   2.980   9.300  0.0813  0.3630  0.2301
20544SOL     OW65993   8.265   1.466   5.829 -0.0832 -0.4484  0.3311
20544SOL    HW165994   8.245   1.449   5.737 -1.0364  0.5229  0.3512
20544SOL    HW265995   8.285   1.560   5.833  0.2906 -0.5473  1.0626
20545SOL     OW65996   3.008   7.955   9.255  0.0677  0.2881 -0.0686
20545SOL    HW165997   2.983   7.934   9.346  1.9747  1.7623  0.8744
20545SOL    HW265998   3.069   7.886   9.231 -0.5402 -0.1777 -0.2821
20546SOL     OW65999   6.108   8.369   8.945  0.2795  0.6279  0.2085
20546SOL    HW166000   6.018   8.344   8.964  0.4880 -0.5263 -0.2535
20546SOL    HW266001   6.161   8.306   8.995  0.8212  0.4528 -0.5639
20547SOL     OW66002   8.956   5.787   8.020  0.2132  0.0918  0.1007
20547SOL    HW166003   8.888   5.782   8.087  0.2419  1.4977  0.2650
20547SOL    HW266004   9.018   5.719   8.044 -0.2277 -0.0059  1.0070
20548SOL     OW66005   8.318   9.937  10.038 -0.1233  0.2056  0.1561
20548SOL    HW166006   8.323   9.876   9.965 -0.1487 -0.5527  0.7769
20548SOL    HW266007   8.408   9.950  10.066 -0.0723  0.8268 -0.2642
20549SOL     OW66008   8.877   3.882   3.009  0.0515  0.0921 -0.2233
20549SOL    HW166009   8.816   3.918   3.073 -1.0214  1.0348 -1.7112
20549SOL    HW266010   8.946   3.841   3.062  0.0432  2.1588  1.5366
20550SOL     OW66011   7.963   4.101   5.466  0.2866  0.1142  0.0045
20550SOL    HW166012   7.881   4.142   5.440 -0.7398 -0.7020  1.7551
20550SOL    HW266013   8.003   4.163   5.527  0.4768  0.0747 -0.0801
20551SOL     OW66014   1.237   4.648   5.846  0.0321  0.1262 -0.8095
20551SOL    HW166015   1.312   4.592   5.866 -0.9293 -0.4937  1.4160
20551SOL    HW266016   1.198   4.668   5.932 -1.5398  1.5639 -1.7807
20552SOL     OW66017   4.563   5.017   6.928  0.1996 -0.1957 -0.1307
20552SOL    HW166018   4.645   5.047   6.887  0.1211 -0.4193 -0.4606
20552SOL    HW266019   4.526   4.956   6.864 -0.1302 -0.2409  0.1024
20553SOL     OW66020   7.322   4.626   0.789 -0.2785 -0.0017  0.0081
20553SOL    HW166021   7.362   4.671   0.863 -1.2557 -1.2702  1.3832
20553SOL    HW266022   7.317   4.534   0.817 -0.0454 -0.6553 -1.9323
20554SOL     OW66023   4.892   5.862   2.195 -0.0585 -0.4585 -0.6872
20554SOL    HW166024   4.971   5.897   2.237 -1.0705 -2.0674  2.9849
20554SOL    HW266025   4.907   5.767   2.193 -0.0171 -0.5100 -4.4640
20555SOL     OW66026   2.297   2.364   2.602 -0.2932 -0.1818 -0.1410
20555SOL    HW166027   2.265   2.454   2.598  1.2402  0.5179  1.7415
20555SOL    HW266028   2.268   2.331   2.687 -0.1564 -1.1886 -0.4674
20556SOL     OW66029   9.061   3.062   3.699  0.2969  0.1516  0.0893
20556SOL    HW166030   9.123   3.132   3.718 -0.4626  1.0741 -0.7038
20556SOL    HW266031   9.001   3.100   3.635 -0.3904 -1.0943 -0.0397
20557SOL     OW66032   0.605   3.796   5.880  0.3723 -0.1788  0.4011
20557SOL    HW166033   0.589   3.702   5.872 -3.4682  0.2715  0.9482
20557SOL    HW266034   0.549   3.836   5.813  1.0416  1.8000  0.9397
20558SOL     OW66035   8.630   2.213   8.753 -0.5008  0.1753  0.2105
20558SOL    HW166036   8.609   2.202   8.845 -1.2510  2.1842  0.3365
20558SOL    HW266037   8.709   2.268   8.753  1.2996 -2.2651 -0.3565
20559SOL     OW66038   6.714   1.227   3.997 -0.7324  0.7814 -0.3919
20559SOL    HW166039   6.767   1.303   4.022 -0.1581  0.6032 -1.0243
20559SOL    HW266040   6.711   1.230   3.901 -1.6275  0.6166 -0.3777
20560SOL     OW66041   0.881   8.247   9.140  0.1523 -0.1864 -0.5595
20560SOL    HW166042   0.889   8.279   9.230 -1.1000 -0.9543 -0.1473
20560SOL    HW266043   0.888   8.325   9.086  1.9529  0.1710  0.1302
20561SOL     OW66044   8.549   5.434   8.135 -0.1065 -0.1513 -0.9541
20561SOL    HW166045   8.638   5.403   8.150 -0.6787 -1.9510 -1.1089
20561SOL    HW266046   8.551   5.525   8.165  1.7495 -0.1621 -0.8836
20562SOL     OW66047  10.478   9.916   0.895 -0.5715  0.2887  0.2551
20562SOL    HW166048  10.392   9.885   0.923  0.1927 -1.0491  1.2966
20562SOL    HW266049  10.464   9.951   0.807 -2.1956  0.2381  0.4665
20563SOL     OW66050  10.040   0.207   2.253  0.0900  0.0854 -0.1257
20563SOL    HW166051  10.032   0.163   2.338 -1.5740  2.0255  0.7998
20563SOL    HW266052   9.993   0.149   2.192  1.6321 -1.5157  0.1377
20564SOL     OW66053   3.518   7.750   3.043 -0.7461 -0.1185  1.3815
20564SOL    HW166054   3.479   7.744   2.955  1.9541  0.7821  0.0161
20564SOL    HW266055   3.604   7.710   3.034  0.1846  1.3108  3.2337
20565SOL     OW66056   2.799   6.539   3.945 -0.1062 -0.1074 -0.4026
20565SOL    HW166057   2.821   6.521   3.853  1.3753  0.8546 -0.2739
20565SOL    HW266058   2.879   6.518   3.993 -0.7568 -0.2712  0.6298
20566SOL     OW66059  10.620   4.495   3.054  0.4556  0.3862  0.3541
20566SOL    HW166060  10.704   4.458   3.025 -0.6167 -1.1631 -0.9870
20566SOL    HW266061  10.644   4.574   3.102  2.6640  0.1633 -0.2503
20567SOL     OW66062   5.015   2.604   5.818 -0.0965 -0.3923  0.0481
20567SOL    HW166063   5.040   2.689   5.782  0.7494 -0.1077  1.2479
20567SOL    HW266064   4.963   2.563   5.749  0.3367  0.6752 -0.9432
20568SOL     OW66065   4.537   9.499   0.883  0.2625 -0.5882  0.0507
20568SOL    HW166066   4.584   9.438   0.940  0.4871  1.0582  1.7165
20568SOL    HW266067   4.452   9.511   0.925  1.0084  1.8666  0.9774
20569SOL     OW66068   9.722   9.258   5.304 -0.2595 -0.1546 -0.2736
20569SOL    HW166069   9.626   9.263   5.300 -0.4725 -1.5165  1.7831
20569SOL    HW266070   9.747   9.321   5.370  0.3272  0.4903 -1.0950
20570SOL     OW66071  10.056   1.341   1.907  0.5397 -0.0915  0.5283
20570SOL    HW166072  10.126   1.288   1.868  1.2754  1.4557 -0.3523
20570SOL    HW266073  10.093   1.429   1.912 -1.2422  0.7095  0.3447
20571SOL     OW66074   6.519   0.771   8.762  0.1735  0.1241  0.0171
20571SOL    HW166075   6.564   0.851   8.736  1.2364 -0.2759  0.5632
20571SOL    HW266076   6.427   0.795   8.767  0.3142  0.9580 -1.1675
20572SOL     OW66077  10.483   3.584   6.174 -0.0564 -0.0285 -0.2981
20572SOL    HW166078  10.421   3.584   6.248  0.5111  3.1350  0.3335
20572SOL    HW266079  10.456   3.510   6.120 -1.9077 -1.1119  1.9320
20573SOL     OW66080   4.996   8.016   5.126 -0.1724  0.0134 -0.3232
20573SOL    HW166081   4.919   8.072   5.126 -0.3331 -0.2060 -0.3336
20573SOL    HW266082   5.065   8.070   5.087 -0.9930 -0.6990 -2.9921
20574SOL     OW66083   5.815   9.768   1.587  0.6989  0.3197  0.4389
20574SOL    HW166084   5.812   9.689   1.640  1.5818  0.4357  0.6881
20574SOL    HW266085   5.906   9.772   1.556  0.4210  0.7297 -0.3445
20575SOL     OW66086   7.033   0.687  10.680 -0.8895 -0.2987 -0.1525
20575SOL    HW166087   6.983   0.636  10.743 -1.5382  0.0808 -0.3503
20575SOL    HW266088   6.968   0.741  10.635 -0.1775  1.1240  0.4259
20576SOL     OW66089   2.768   5.598  10.357 -0.2462 -0.2031 -0.6386
20576SOL    HW166090   2.841   5.614  10.417 -1.1480 -0.0517  0.4651
20576SOL    HW266091   2.794   5.641  10.276  0.2542  1.1676  0.2033
20577SOL     OW66092  11.117   1.028   7.843  0.3190 -0.0355 -0.0984
20577SOL    HW166093  11.078   1.073   7.918 -1.4691 -1.0376 -0.3960
20577SOL    HW266094  11.148   1.099   7.786  0.5517  0.7446  0.9769
20578SOL     OW66095   4.168   9.611   4.702 -0.0303 -0.4959 -0.3853
20578SOL    HW166096   4.098   9.559   4.742  0.2564 -0.9983 -0.5270
20578SOL    HW266097   4.196   9.560   4.626 -0.6605  0.5093 -1.3247
20579SOL     OW66098   0.222   5.149   3.015  0.8343  0.2392 -0.1360
20579SOL    HW166099   0.220   5.058   3.046  1.0302 -0.3558 -1.7639
20579SOL    HW266100   0.191   5.144   2.925 -1.1675  2.1070  0.3683
20580SOL     OW66101   1.065   6.419   9.348  0.4456 -0.2364 -0.3057
20580SOL    HW166102   1.132   6.483   9.324  0.8760 -1.0533 -1.3629
20580SOL    HW266103   1.089   6.340   9.299 -2.2450 -0.0469 -2.1315
20581SOL     OW66104   9.881   8.829   5.918  0.5435  0.0592  0.5163
20581SOL    HW166105   9.822   8.895   5.954 -0.0596 -0.4846  0.5441
20581SOL    HW266106   9.911   8.866   5.835 -1.0843 -0.3205 -0.2705
20582SOL     OW66107   2.420   8.545   0.059  0.8375  0.1276 -0.0121
20582SOL    HW166108   2.371   8.595   0.124  0.1408  0.2199 -0.5980
20582SOL    HW266109   2.353   8.500   0.007  1.2752  1.4524 -1.8084
20583SOL     OW66110  10.326   3.579   2.139  0.1655 -0.1656  0.3232
20583SOL    HW166111  10.281   3.658   2.167  0.8308  0.4304 -0.2453
20583SOL    HW266112  10.370   3.547   2.218  0.1463  0.2046  0.4836
20584SOL     OW66113  10.250   6.713   9.910  0.4570  0.4248 -0.1296
20584SOL    HW166114  10.207   6.630   9.888 -1.9013  1.9027 -1.5562
20584SOL    HW266115  10.308   6.691   9.983 -0.4931 -2.3554 -0.0820
20585SOL     OW66116   8.893   3.907  10.686  0.5351 -0.4791 -0.7170
20585SOL    HW166117   8.937   3.971  10.630 -1.3938  1.4987 -0.0941
20585SOL    HW266118   8.964   3.851  10.718  2.2530  1.0189 -1.6950
20586SOL     OW66119   6.656   1.137   6.314  0.3345  0.1612 -0.3801
20586SOL    HW166120   6.656   1.197   6.239 -2.8340  0.5565 -0.2015
20586SOL    HW266121   6.611   1.059   6.282 -1.3533  0.4553  1.0926
20587SOL     OW66122   2.428   3.183   4.514 -0.1805  0.3453  0.3667
20587SOL    HW166123   2.433   3.239   4.437  0.7984 -2.6835 -2.0062
20587SOL    HW266124   2.356   3.123   4.496  1.1861 -1.5756  0.9019
20588SOL     OW66125   0.905  10.402   2.249  0.1836 -0.3278 -0.7964
20588SOL    HW166126   0.885  10.477   2.193  0.6179 -0.3100 -0.9328
20588SOL    HW266127   0.863  10.328   2.206 -1.9590  0.1269  0.3716
20589SOL     OW66128   7.472   8.965   0.826 -0.3236 -0.5363  0.0157
20589SOL    HW166129   7.562   8.986   0.851 -0.1935  1.3544 -1.8115
20589SOL    HW266130   7.418   9.029   0.872 -0.4458  0.2141 -1.1342
20590SOL     OW66131   2.978   7.313   4.065 -0.3141 -0.8169  0.4788
20590SOL    HW166132   2.941   7.380   4.008 -0.7135  1.3416  3.0675
20590SOL    HW266133   3.072   7.318   4.051 -0.4761 -1.1773 -0.8202
20591SOL     OW66134   4.917   6.432   5.233  0.6153  0.1494  0.2172
20591SOL    HW166135   4.890   6.345   5.259 -2.4376  1.9078  3.7905
20591SOL    HW266136   4.841   6.468   5.187  1.0689  1.5869  0.5510
20592SOL     OW66137   6.426   3.559   9.405  0.3844  0.5333 -0.5153
20592SOL    HW166138   6.394   3.470   9.416  0.3807  0.6941  1.0032
20592SOL    HW266139   6.430   3.595   9.494  0.4414  2.0302 -1.0839
20593SOL     OW66140   4.152   8.282  10.343 -0.4114 -0.7963  0.0279
20593SOL    HW166141   4.143   8.269  10.437 -2.1490 -0.9969 -0.1263
20593SOL    HW266142   4.114   8.202  10.304  1.4103 -1.2918 -0.8555
20594SOL     OW66143   4.426   4.175   1.095  0.5588  0.2367  0.0199
20594SOL    HW166144   4.489   4.243   1.121  1.0365 -0.0056 -0.4831
20594SOL    HW266145   4.369   4.218   1.032  0.9115  0.1597 -0.3604
20595SOL     OW66146   9.681   8.754   4.262 -0.3666 -0.0587  0.2286
20595SOL    HW166147   9.643   8.666   4.255 -0.5461  0.1133 -1.5100
20595SOL    HW266148   9.769   8.740   4.296 -1.1103 -0.6822  2.0589
20596SOL     OW66149   3.786   4.519   7.034  0.0656  0.2197  0.3342
20596SOL    HW166150   3.845   4.557   7.099  1.1711 -0.6171 -0.1491
20596SOL    HW266151   3.748   4.595   6.990  1.9568  0.8298 -0.3680
20597SOL     OW66152   2.277   8.662   3.110  0.4453  0.0098 -1.0894
20597SOL    HW166153   2.271   8.662   3.205 -1.8371  2.3136 -1.1091
20597SOL    HW266154   2.247   8.575   3.083 -0.4488 -0.1250  0.2673
20598SOL     OW66155   7.577   5.465   5.678 -0.7620  0.2959 -0.1370
20598SOL    HW166156   7.512   5.527   5.648 -0.9261  0.2288  0.0769
20598SOL    HW266157   7.639   5.458   5.606 -1.9294 -0.9829 -1.0637
20599SOL     OW66158   1.533   0.793   2.748 -0.6349 -0.6639 -0.4297
20599SOL    HW166159   1.558   0.804   2.656 -1.7308 -0.5788 -0.7301
20599SOL    HW266160   1.540   0.699   2.763 -0.4742 -0.6819 -0.6037
20600SOL     OW66161   4.096   7.578   5.763 -0.3639 -0.1690 -0.2420
20600SOL    HW166162   4.140   7.572   5.847  0.1807 -0.0758 -0.5158
20600SOL    HW266163   4.020   7.634   5.779 -0.5735 -0.6028  0.3101
20601SOL     OW66164  10.797   6.568   0.971 -0.4705 -0.2623 -0.4005
20601SOL    HW166165  10.834   6.496   1.022  2.8204  0.6750 -1.2261
20601SOL    HW266166  10.712   6.585   1.012  0.8660 -1.1903  3.1631
20602SOL     OW66167   5.045   5.177   9.448 -0.0358  0.2831  0.0220
20602SOL    HW166168   5.136   5.149   9.452  0.2239  1.1342  0.2232
20602SOL    HW266169   4.997   5.098   9.422  0.8862  0.1020 -1.2460
20603SOL     OW66170   5.282  10.513   6.799  0.0019  0.3626 -0.1537
20603SOL    HW166171   5.264  10.441   6.739 -1.0055  0.4875 -0.0143
20603SOL    HW266172   5.196  10.548   6.821  0.2865 -0.0374  1.7932
20604SOL     OW66173   7.376  10.394   1.305 -0.4236 -0.0133  0.3471
20604SOL    HW166174   7.392  10.451   1.230 -3.0266 -0.6142 -0.7912
20604SOL    HW266175   7.351  10.453   1.375 -0.0672  0.4239  0.1097
20605SOL     OW66176   4.837   3.659  10.272  0.0527  0.8474  0.2380
20605SOL    HW166177   4.830   3.594  10.202 -1.0227 -0.7443  1.7336
20605SOL    HW266178   4.805   3.740  10.233  1.0132  0.4107 -1.5578
20606SOL     OW66179   7.925   5.251   1.787  0.1337  0.0061 -0.0112
20606SOL    HW166180   7.954   5.209   1.706  2.8519 -0.5249  1.1328
20606SOL    HW266181   7.920   5.344   1.765 -2.9951 -0.4514 -1.7506
20607SOL     OW66182   7.906   4.864   9.544 -0.1177  0.2250  0.3539
20607SOL    HW166183   7.876   4.922   9.473 -0.1031  0.2599  0.3762
20607SOL    HW266184   7.951   4.923   9.605 -1.2923  0.4084  1.0611
20608SOL     OW66185   2.905   7.964   3.304  0.7333  0.7947 -0.2627
20608SOL    HW166186   2.918   7.898   3.236  0.5648 -0.5668  0.9538
20608SOL    HW266187   2.990   8.006   3.313  0.8753  0.6822 -0.9991
20609SOL     OW66188   1.954  10.352   6.841  0.0124 -0.2469 -0.1914
20609SOL    HW166189   1.989  10.366   6.929 -0.9197 -0.0833  0.1697
20609SOL    HW266190   2.031  10.355   6.784  0.5323  0.6100  0.5117
20610SOL     OW66191   7.646  10.514   4.242 -0.3171  0.0128 -0.0637
20610SOL    HW166192   7.674  10.514   4.151  0.4634  0.0308  0.1684
20610SOL    HW266193   7.598  10.596   4.254 -0.2445  0.1034 -0.4051
20611SOL     OW66194   5.513   9.616   5.397  0.7932  0.6383  0.5317
20611SOL    HW166195   5.513   9.643   5.306 -0.9783 -1.3306 -0.1327
20611SOL    HW266196   5.422   9.625   5.425  0.9247 -0.6530  1.4771
20612SOL     OW66197  10.331   6.763   9.439 -0.4228  0.4388 -0.1111
20612SOL    HW166198  10.252   6.736   9.486  0.3611 -0.9527  0.4847
20612SOL    HW266199  10.379   6.681   9.426  1.9427  1.4584  1.4633
20613SOL     OW66200  10.406  11.010   3.521  0.4195 -0.0343  0.0543
20613SOL    HW166201  10.415  10.923   3.561  0.5210 -0.8811 -1.7046
20613SOL    HW266202  10.472  11.012   3.452  0.6823  1.6180  0.3066
20614SOL     OW66203   5.906   9.068   6.721 -0.3599 -0.0998  0.8052
20614SOL    HW166204   5.875   9.142   6.774 -0.2075  1.2687 -0.9069
20614SOL    HW266205   5.835   9.052   6.659  0.3753 -0.0932 -0.0712
20615SOL     OW66206   9.531   6.202   4.839 -0.0156 -0.6513 -0.3348
20615SOL    HW166207   9.575   6.150   4.906  0.5057 -0.7715 -0.7583
20615SOL    HW266208   9.603   6.236   4.785 -0.3991 -0.1661 -0.5476
20616SOL     OW66209   8.442   6.294   3.134 -0.3586 -0.1968 -0.0713
20616SOL    HW166210   8.511   6.329   3.077  1.0588 -1.5244  0.7466
20616SOL    HW266211   8.365   6.347   3.113  0.6471  0.7305 -1.6992
20617SOL     OW66212   5.018   9.910   1.733  0.2131  0.0221 -0.2229
20617SOL    HW166213   5.103   9.901   1.776  0.1051 -0.0584 -0.0240
20617SOL    HW266214   4.991   9.999   1.754 -0.0613 -0.1781  0.2884
20618SOL     OW66215   2.494   3.643  10.468  0.7182  0.4938  0.1837
20618SOL    HW166216   2.402   3.620  10.477  1.2080 -1.5141  0.5219
20618SOL    HW266217   2.530   3.634  10.556  1.5860 -0.5515 -0.2439
20619SOL     OW66218   3.695   0.910   1.880  0.1315 -0.1215  0.4494
20619SOL    HW166219   3.673   0.938   1.791  1.2886 -1.0726 -0.1606
20619SOL    HW266220   3.613   0.875   1.914  0.1082 -1.5562 -0.9687
20620SOL     OW66221   1.495   2.375   1.796 -0.1552 -0.3215 -0.3023
20620SOL    HW166222   1.411   2.364   1.840 -0.4088  1.0329 -0.3927
20620SOL    HW266223   1.474   2.429   1.719  0.4612 -1.7080 -1.4798
20621SOL     OW66224   1.200   4.569  10.042  0.0261  0.1030 -0.5401
20621SOL    HW166225   1.265   4.510  10.004 -0.0954 -0.1944 -0.2974
20621SOL    HW266226   1.244   4.653  10.047 -0.5139  0.6153 -2.9772
20622SOL     OW66227   3.972   5.281   9.180  0.1280  0.0800 -1.3542
20622SOL    HW166228   3.926   5.287   9.264 -0.6289  1.5433 -1.8272
20622SOL    HW266229   4.034   5.209   9.191 -0.7138 -0.4682  0.0833
20623SOL     OW66230   3.665   8.158  11.001  0.0501  0.2976  0.2615
20623SOL    HW166231   3.693   8.146  10.910 -1.5382 -1.1727 -0.0662
20623SOL    HW266232   3.718   8.232  11.032  0.4146  1.0349 -1.9344
20624SOL     OW66233   1.525   1.847   5.503 -0.4641 -0.9510 -0.0031
20624SOL    HW166234   1.610   1.802   5.497 -0.7906 -1.5977  0.1940
20624SOL    HW266235   1.465   1.781   5.536 -0.6258  0.0581  1.8208
20625SOL     OW66236   4.112   4.704   5.018 -0.0552  0.3481  0.5569
20625SOL    HW166237   4.149   4.766   4.956  2.7485 -1.4899  0.2264
20625SOL    HW266238   4.036   4.668   4.973 -0.8065  2.3004  0.1413
20626SOL     OW66239   3.276   9.082   9.751  0.0764  0.2022  0.0681
20626SOL    HW166240   3.309   9.170   9.768  1.0956 -0.5237  2.1727
20626SOL    HW266241   3.298   9.066   9.659  0.6497  1.8112 -0.1062
20627SOL     OW66242  10.097  10.177   7.778 -0.1985 -0.1166 -0.6087
20627SOL    HW166243  10.017  10.217   7.744 -1.0622  0.6401  2.0658
20627SOL    HW266244  10.066  10.104   7.831  0.6171  1.5289  2.3022
20628SOL     OW66245   4.584   1.978  10.754  0.3493 -0.0180 -0.0550
20628SOL    HW166246   4.605   2.071  10.765  0.0644  0.0644 -0.2031
20628SOL    HW266247   4.549   1.972  10.665  1.2590 -0.4323 -0.3970
20629SOL     OW66248   7.305   9.561   0.439 -0.2362  0.0846 -0.0106
20629SOL    HW166249   7.358   9.617   0.495 -1.6481  1.4753  0.0319
20629SOL    HW266250   7.233   9.531   0.495 -0.7637  0.1587 -0.6253
20630SOL     OW66251   5.940   4.950  10.747  0.2162  0.0700 -0.0802
20630SOL    HW166252   5.899   4.872  10.783  0.1072  0.3188  0.3447
20630SOL    HW266253   6.029   4.950  10.784  0.1705  0.2185  0.0322
20631SOL     OW66254   4.801   4.455   2.214 -0.5643  0.4269 -0.3020
20631SOL    HW166255   4.835   4.484   2.130 -0.0791 -1.0068 -0.6350
20631SOL    HW266256   4.874   4.468   2.275 -0.6851  0.8323 -0.2445
20632SOL     OW66257   9.391   0.914   8.954 -0.0210  0.1292 -0.0013
20632SOL    HW166258   9.363   0.951   8.871  0.7976 -1.8967 -1.2422
20632SOL    HW266259   9.315   0.923   9.012 -1.7223 -1.2260 -1.9172
20633SOL     OW66260  10.671   7.551   2.664  0.2340 -0.5764  0.0416
20633SOL    HW166261  10.651   7.462   2.693  0.7593 -0.6459  0.1952
20633SOL    HW266262  10.762   7.547   2.635  0.2774 -0.0780  0.1003
20634SOL     OW66263   7.009   8.440   5.532 -0.1772 -0.9996  0.1154
20634SOL    HW166264   6.970   8.405   5.452  0.4161 -0.3532 -0.4751
20634SOL    HW266265   6.983   8.378   5.600  0.7434 -2.5581 -0.8675
20635SOL     OW66266   0.479   9.384  10.752  0.0469 -0.1679 -0.1599
20635SOL    HW166267   0.457   9.397  10.845 -0.4577  0.2249 -0.3321
20635SOL    HW266268   0.430   9.452  10.706 -2.6063 -2.5180 -1.0962
20636SOL     OW66269   8.821   4.587   9.397 -0.1387  0.1382 -0.2735
20636SOL    HW166270   8.850   4.671   9.361 -0.4575  1.5069  2.3670
20636SOL    HW266271   8.865   4.522   9.343  0.2841  1.9760 -2.3150
20637SOL     OW66272   6.257   5.001   9.922  0.0808 -0.2359  0.3067
20637SOL    HW166273   6.188   4.975   9.983 -0.9279  1.5274 -0.0207
20637SOL    HW266274   6.301   4.919   9.900 -2.8570 -1.7208 -0.6506
20638SOL     OW66275   2.993   3.645   8.098 -0.6729 -0.6170 -0.4011
20638SOL    HW166276   3.072   3.694   8.078 -1.8083  0.9200 -1.3065
20638SOL    HW266277   3.009   3.609   8.185  0.4097  0.9449  0.0875
20639SOL     OW66278   9.607   6.963   3.521  0.4814  0.1532  0.0415
20639SOL    HW166279   9.644   7.048   3.543  1.7465 -0.5056  0.5635
20639SOL    HW266280   9.513   6.971   3.541  0.4671  1.5915 -0.4877
20640SOL     OW66281   0.928   7.183   5.978  0.8015 -0.2465 -0.3105
20640SOL    HW166282   0.951   7.102   6.023  2.3934  0.3361  0.0095
20640SOL    HW266283   0.849   7.162   5.929  0.4974 -1.6323  0.7174
20641SOL     OW66284  10.675   9.889   8.114  0.1896 -0.6076 -0.3089
20641SOL    HW166285  10.585   9.916   8.098  0.5573  0.8482 -0.0721
20641SOL    HW266286  10.728   9.959   8.076  1.2455 -1.6230 -0.7847
20642SOL     OW66287   8.530  10.759  10.673  0.1403  0.2969  0.5032
20642SOL    HW166288   8.584  10.710  10.735  0.8205  0.7763  0.3032
20642SOL    HW266289   8.542  10.714  10.590 -1.2600 -0.7224  0.8114
20643SOL     OW66290   1.432   3.045   1.126 -0.5707  0.4909  0.3378
20643SOL    HW166291   1.454   2.977   1.062 -0.3904  1.2416 -0.3977
20643SOL    HW266292   1.351   3.084   1.093 -1.3093 -0.1027  1.3556
20644SOL     OW66293   9.082   5.064   7.933  0.2287 -0.2537 -0.4606
20644SOL    HW166294   9.111   5.019   7.854 -0.2158 -0.8839 -0.2696
20644SOL    HW266295   9.138   5.029   8.003  0.8535  0.5547 -0.5478
20645SOL     OW66296  10.308  10.933   2.076  0.1940 -0.3365 -0.3560
20645SOL    HW166297  10.261  10.986   2.011  0.7049 -0.0884 -0.5351
20645SOL    HW266298  10.400  10.955   2.062  0.7076 -3.1541 -2.1522
20646SOL     OW66299   8.063   5.448   1.353  0.5064  0.2311 -0.7858
20646SOL    HW166300   7.987   5.391   1.365 -0.7301  1.7928 -0.8902
20646SOL    HW266301   8.122   5.398   1.297 -0.7294 -0.7592 -1.2441
20647SOL     OW66302   6.153   8.191  10.572 -1.0457  0.3003 -0.1898
20647SOL    HW166303   6.082   8.193  10.507 -0.8179 -0.3834 -0.4619
20647SOL    HW266304   6.119   8.138  10.643 -1.1590  0.7565  0.1019
20648SOL     OW66305   9.077   5.931   4.677  0.0847  0.1721  0.1053
20648SOL    HW166306   9.056   5.913   4.586 -0.0300 -0.7653  0.3064
20648SOL    HW266307   9.120   6.017   4.676  0.4328 -0.0094 -0.8665
20649SOL     OW66308   0.014   6.806   3.952  0.1289  0.5191  0.1762
20649SOL    HW166309   0.033   6.846   4.037 -2.0353  0.2387  0.8522
20649SOL    HW266310   0.060   6.722   3.955 -0.4708  0.2018  1.3803
20650SOL     OW66311   0.739   0.078   0.445  0.0411  0.0965  0.2053
20650SOL    HW166312   0.834   0.083   0.436  0.1439  3.0419  1.7031
20650SOL    HW266313   0.722  -0.010   0.478  1.9906 -1.1832 -1.9392
20651SOL     OW66314   8.518   8.599   7.233  0.3700  0.4099 -0.1784
20651SOL    HW166315   8.438   8.627   7.188  0.0810  1.7926  1.1163
20651SOL    HW266316   8.570   8.679   7.242  0.8666 -0.0281  1.0292
20652SOL     OW66317   4.892   7.733  10.149  0.3312 -0.2438 -0.4060
20652SOL    HW166318   4.828   7.666  10.175  0.2887  0.4947  1.5658
20652SOL    HW266319   4.877   7.805  10.209  0.5258  1.5028 -2.3271
20653SOL     OW66320   8.550   3.890   0.049  0.4846 -0.1873 -0.0876
20653SOL    HW166321   8.630   3.879  -0.003  0.8111 -1.4037  0.6190
20653SOL    HW266322   8.567   3.839   0.128 -1.3071 -1.1101 -0.2638
20654SOL     OW66323   0.715   5.976   7.148 -0.2371  0.5815 -0.8292
20654SOL    HW166324   0.797   5.948   7.188 -0.6146 -1.5679 -1.4257
20654SOL    HW266325   0.664   5.896   7.141 -1.5563  1.5106 -2.3935
20655SOL     OW66326   5.237   2.730   9.974 -0.0617  0.0191  0.3120
20655SOL    HW166327   5.315   2.680   9.950  0.1749  0.2771  0.5347
20655SOL    HW266328   5.210   2.695  10.059 -0.4441 -0.3633  0.0389
20656SOL     OW66329   3.739   1.795   0.448 -0.6385 -0.0586  0.7808
20656SOL    HW166330   3.731   1.764   0.358  0.5009  0.2143  0.5794
20656SOL    HW266331   3.668   1.858   0.458 -0.2051  0.6065 -0.2228
20657SOL     OW66332   9.706   7.868   7.003  0.0757 -0.2703  0.4063
20657SOL    HW166333   9.754   7.892   7.082  0.9761  0.6670 -0.4079
20657SOL    HW266334   9.616   7.898   7.020  0.3858  0.4277  0.8555
20658SOL     OW66335   4.744   1.906   1.513  0.3909 -0.1429 -0.2421
20658SOL    HW166336   4.708   1.970   1.574  0.2860 -3.1118  3.1572
20658SOL    HW266337   4.685   1.909   1.438 -0.5009  2.5545  0.4359
20659SOL     OW66338   1.343   8.955   2.792 -0.1549 -0.5020  0.3216
20659SOL    HW166339   1.329   9.016   2.719 -0.8913 -0.0349  0.8341
20659SOL    HW266340   1.258   8.914   2.806  0.0753 -0.8688  0.6762
20660SOL     OW66341   0.751   7.511   5.939  0.2658 -0.5705 -0.1477
20660SOL    HW166342   0.666   7.483   5.904 -0.8279  1.5490  0.5973
20660SOL    HW266343   0.815   7.480   5.876 -1.3172  0.1248 -2.2209
20661SOL     OW66344   3.676   8.497   3.722 -0.1205 -0.5139  0.1694
20661SOL    HW166345   3.593   8.454   3.699 -0.1985 -0.7071  0.7761
20661SOL    HW266346   3.669   8.585   3.685 -1.4591  0.1751  1.8981
20662SOL     OW66347   1.881   7.305   8.698  0.3860  0.5052 -0.4276
20662SOL    HW166348   1.968   7.270   8.717  0.6052  0.8545 -0.7431
20662SOL    HW266349   1.873   7.382   8.754 -0.3828 -0.4300  0.7905
20663SOL     OW66350  10.025   4.147   1.499  0.1376  0.2172  0.0871
20663SOL    HW166351  10.041   4.089   1.424 -1.9980  0.7030 -0.8178
20663SOL    HW266352  10.048   4.095   1.576 -0.3172 -1.3019 -0.7751
20664SOL     OW66353   4.241   8.348   8.115 -0.2944  0.1974  0.2523
20664SOL    HW166354   4.284   8.273   8.157  0.6497  1.2540  1.2066
20664SOL    HW266355   4.191   8.389   8.185 -0.6606  0.5878 -0.2300
20665SOL     OW66356   2.672   6.294  10.493 -0.6478 -0.1172 -0.2246
20665SOL    HW166357   2.760   6.280  10.528 -0.4000 -0.8350 -1.1080
20665SOL    HW266358   2.620   6.318  10.569  0.4107  0.7845  0.2378
20666SOL     OW66359   0.405   5.541   2.203  0.4413  0.1207  0.7829
20666SOL    HW166360   0.442   5.504   2.124  0.2661 -1.3221  1.3435
20666SOL    HW266361   0.469   5.607   2.231  0.0306  1.3570 -1.0567
20667SOL     OW66362   5.685   7.501   7.537 -0.7224 -0.3088 -0.0503
20667SOL    HW166363   5.630   7.422   7.533  1.9480 -2.2826 -0.3705
20667SOL    HW266364   5.706   7.509   7.630 -1.0452  0.0930 -0.0099
20668SOL     OW66365   5.606   7.337   4.854  0.7255  0.4173  0.0231
20668SOL    HW166366   5.596   7.413   4.912  2.8344  0.4994  0.3582
20668SOL    HW266367   5.609   7.374   4.766 -1.1039  0.4159 -0.0793
20669SOL     OW66368   3.602   2.219   7.557 -0.1730  0.2078  0.3865
20669SOL    HW166369   3.558   2.272   7.490 -1.0500 -0.9902 -0.0119
20669SOL    HW266370   3.550   2.231   7.636 -1.4356 -1.4130 -0.1493
20670SOL     OW66371   4.470   3.363   4.450 -0.1851 -0.4907  0.1888
20670SOL    HW166372   4.557   3.403   4.448 -0.0958 -0.5820  1.4302
20670SOL    HW266373   4.427   3.403   4.526 -0.7957 -1.3090  0.2850
20671SOL     OW66374   3.197   3.238   6.519  0.3136  0.4408  0.1251
20671SOL    HW166375   3.206   3.200   6.607 -0.0702 -0.5457 -0.2506
20671SOL    HW266376   3.121   3.194   6.482  1.6483 -0.6459 -1.4452
20672SOL     OW66377   6.408   3.689   8.259 -0.0725  0.2598  0.0068
20672SOL    HW166378   6.486   3.664   8.308  0.3959  0.2567 -0.7375
20672SOL    HW266379   6.336   3.644   8.305  0.2385  0.9418  1.2033
20673SOL     OW66380   2.136   9.361   1.988 -0.0225 -0.1436 -0.0398
20673SOL    HW166381   2.155   9.275   2.025  0.2611  0.0972  0.3947
20673SOL    HW266382   2.049   9.383   2.022 -0.6244 -0.7754 -1.1360
20674SOL     OW66383   8.810   6.304   4.233  0.4681 -0.1586  0.5971
20674SOL    HW166384   8.723   6.276   4.203  0.4392 -0.2983  0.8076
20674SOL    HW266385   8.807   6.399   4.229  0.5028 -0.1769  0.0498
20675SOL     OW66386   5.163   8.642   2.940 -0.0885 -0.0632 -0.5422
20675SOL    HW166387   5.140   8.643   2.847 -0.5809 -1.8391 -0.4729
20675SOL    HW266388   5.222   8.567   2.949  1.5729  1.2602  0.2577
20676SOL     OW66389   8.646   5.036   1.078  0.6499  0.9954 -0.1032
20676SOL    HW166390   8.698   4.957   1.093 -0.0703  0.5702  0.2029
20676SOL    HW266391   8.710   5.101   1.049  1.5585  0.8489  1.4668
20677SOL     OW66392   4.878   6.830   7.846  0.2194 -0.4935  0.5479
20677SOL    HW166393   4.857   6.913   7.804 -0.1055 -0.6379  0.4147
20677SOL    HW266394   4.970   6.837   7.871 -0.2901  0.6162  2.2083
20678SOL     OW66395  10.463   7.933   1.168 -0.0156 -0.0795  0.7256
20678SOL    HW166396  10.447   7.942   1.074 -0.4558 -0.4831  0.7557
20678SOL    HW266397  10.401   7.865   1.196  1.0678 -0.9732  1.0437
20679SOL     OW66398   4.298   7.585   5.307  0.6239 -0.2328 -0.5229
20679SOL    HW166399   4.226   7.612   5.365  0.0546 -0.8467 -0.9356
20679SOL    HW266400   4.320   7.497   5.336 -0.4196 -0.9927 -1.9341
20680SOL     OW66401   9.036   7.397   6.099  0.3586 -0.1265 -0.2426
20680SOL    HW166402   9.022   7.415   6.192  0.3226  0.7352 -0.4012
20680SOL    HW266403   8.982   7.321   6.081 -0.5040  0.3633  0.1989
20681SOL     OW66404   3.123   3.329   3.762  0.2607  0.1132 -0.5820
20681SOL    HW166405   3.084   3.381   3.692 -3.8686 -2.0804 -0.2362
20681SOL    HW266406   3.112   3.382   3.841 -0.9684  0.0820 -0.7087
20682SOL     OW66407   0.447   2.627   9.638 -0.3737  0.7957 -0.2938
20682SOL    HW166408   0.360   2.668   9.631 -1.5229 -1.4812 -0.2816
20682SOL    HW266409   0.452   2.598   9.729 -0.7837 -1.4597 -0.9399
20683SOL     OW66410   9.311   7.920   6.973 -0.2239 -0.1937 -0.1181
20683SOL    HW166411   9.299   7.963   7.057 -2.8325  0.6010 -0.8065
20683SOL    HW266412   9.390   7.961   6.937 -0.0389  0.6833  1.1966
20684SOL     OW66413   5.692  11.047   2.942  0.4929  0.0339 -0.0717
20684SOL    HW166414   5.627  11.067   3.009  0.5209  0.7749 -0.2622
20684SOL    HW266415   5.765  11.107   2.959 -0.6627  2.3629 -2.4818
20685SOL     OW66416   3.265  10.989   0.191  0.1929 -0.3552  0.0179
20685SOL    HW166417   3.264  11.080   0.164 -1.3984  0.2018  1.7030
20685SOL    HW266418   3.174  10.970   0.214  0.5991 -2.1859  0.2596
20686SOL     OW66419   1.141   2.203   4.276 -0.4120 -0.3213 -0.1455
20686SOL    HW166420   1.160   2.136   4.209  1.6428 -0.1334  0.1901
20686SOL    HW266421   1.095   2.272   4.228  1.8605  0.2390 -1.6332
20687SOL     OW66422   2.101   8.691   1.180 -0.0344 -0.2681  0.8949
20687SOL    HW166423   2.111   8.600   1.152 -2.0735 -0.8544  1.9333
20687SOL    HW266424   2.030   8.689   1.244  0.3201  1.9709  1.4216
20688SOL     OW66425   6.474   8.286   4.760  0.2088 -0.1646  0.4047
20688SOL    HW166426   6.487   8.373   4.797 -2.2854  0.7984 -0.7601
20688SOL    HW266427   6.537   8.231   4.806  2.9251  2.4820  0.1082
20689SOL     OW66428   6.927  10.609   9.811  0.1893  0.1926 -0.1999
20689SOL    HW166429   6.943  10.671   9.883 -0.8693  0.9005 -0.5541
20689SOL    HW266430   6.902  10.528   9.855 -2.0288  1.0546  0.2758
20690SOL     OW66431   9.777   7.178   9.630  0.4531  0.3110 -0.1995
20690SOL    HW166432   9.825   7.102   9.597  0.2488 -0.2399  0.7392
20690SOL    HW266433   9.710   7.141   9.687  1.6014  1.2510  1.8859
20691SOL     OW66434  10.354   8.953  10.523  0.1231 -0.0652 -0.5750
20691SOL    HW166435  10.343   9.015  10.595 -0.8222 -0.0313 -0.7434
20691SOL    HW266436  10.356   9.007  10.444  0.7197 -0.1414 -0.6224
20692SOL     OW66437   0.083   1.477  10.280  0.1157 -0.2468  0.5073
20692SOL    HW166438   0.124   1.499  10.197 -2.5861 -0.2729 -0.9634
20692SOL    HW266439   0.101   1.384  10.291 -0.1821 -0.4431 -0.5124
20693SOL     OW66440   6.812   9.608   2.716  0.2315 -0.3582  0.0402
20693SOL    HW166441   6.876   9.549   2.677 -1.3308 -2.3078  0.2753
20693SOL    HW266442   6.850   9.695   2.707  1.0892 -0.9826 -3.4715
20694SOL     OW66443   8.882   3.174   0.735 -0.1597 -0.0305  0.1398
20694SOL    HW166444   8.884   3.211   0.647  0.1118 -1.2819 -0.4090
20694SOL    HW266445   8.861   3.081   0.722  0.0566 -0.2809  1.3833
20695SOL     OW66446   0.010   9.802   4.657  0.0410 -0.2527  0.4406
20695SOL    HW166447  -0.018   9.892   4.673 -0.0567 -0.4332  1.3564
20695SOL    HW266448   0.079   9.810   4.592 -1.9112  0.2323 -1.7050
20696SOL     OW66449   1.591   1.952   3.911  0.0739  0.3453 -0.6161
20696SOL    HW166450   1.535   1.917   3.980 -0.5488  0.9342 -0.8137
20696SOL    HW266451   1.545   1.929   3.830  0.3606  0.4155 -0.7969
20697SOL     OW66452   2.570   1.751   6.688  0.0328 -0.4015  0.1290
20697SOL    HW166453   2.616   1.714   6.763 -1.3874 -1.0117  0.7347
20697SOL    HW266454   2.591   1.844   6.690 -0.8993 -0.1820  2.0027
20698SOL     OW66455   7.868   6.609   1.375 -0.0338 -0.1841  0.4559
20698SOL    HW166456   7.828   6.632   1.291  2.2815 -1.9066 -1.2396
20698SOL    HW266457   7.796   6.616   1.439 -1.7675  1.6130 -1.5295
20699SOL     OW66458   3.456   8.736  10.819  0.7409 -0.2413  0.7412
20699SOL    HW166459   3.472   8.825  10.850 -2.4310  0.4456  0.7557
20699SOL    HW266460   3.427   8.748  10.728 -4.3767 -0.4820  1.9923
20700SOL     OW66461   0.391   2.047   4.776  0.0714 -0.0456  0.3868
20700SOL    HW166462   0.342   1.969   4.750  0.3497 -0.2464  0.4493
20700SOL    HW266463   0.413   2.031   4.868 -1.6500  1.0414  1.0447
20701SOL     OW66464   3.850   6.328   9.931 -0.1159  0.0457 -0.4067
20701SOL    HW166465   3.874   6.420   9.917  2.4881 -0.4833  0.2276
20701SOL    HW266466   3.837   6.322  10.026 -1.4774 -0.0327 -0.5702
20702SOL     OW66467   3.091   1.508   8.372  0.1766  0.4712  0.0175
20702SOL    HW166468   3.160   1.565   8.337 -0.0611  0.5498 -0.3355
20702SOL    HW266469   3.035   1.567   8.423  0.9625  0.2190  1.2147
20703SOL     OW66470   2.990   6.307   7.373 -0.0708 -0.8751 -0.3121
20703SOL    HW166471   2.946   6.388   7.351  0.1474 -0.6960 -0.1065
20703SOL    HW266472   3.053   6.294   7.303  0.6721 -0.2697  0.2203
20704SOL     OW66473   9.576   6.640   4.027  0.2310  0.7288 -0.9175
20704SOL    HW166474   9.586   6.734   4.012  0.4647  0.6719 -1.1064
20704SOL    HW266475   9.532   6.635   4.112 -0.1616  1.0171 -1.0992
20705SOL     OW66476   6.816  10.613  10.769  0.1837  0.2574  0.0926
20705SOL    HW166477   6.768  10.533  10.748  1.1575 -0.3717  0.2015
20705SOL    HW266478   6.824  10.613  10.864  0.1476  0.5093  0.0981
20706SOL     OW66479   2.772   8.902   5.860 -0.2713  0.2967 -0.1825
20706SOL    HW166480   2.770   8.993   5.833 -1.1985  0.6987  1.1111
20706SOL    HW266481   2.776   8.852   5.778  2.4249  1.4787 -0.8774
20707SOL     OW66482   9.503   6.235   8.609 -0.0825  0.2660  0.1428
20707SOL    HW166483   9.523   6.313   8.556  0.8270  0.1526  0.3011
20707SOL    HW266484   9.409   6.224   8.600 -0.2658  1.5257  0.3001
20708SOL     OW66485   4.609   2.125   8.814  0.2566 -0.7497 -0.1174
20708SOL    HW166486   4.600   2.215   8.845 -0.8127 -0.9203  0.0908
20708SOL    HW266487   4.623   2.073   8.893 -0.7674 -0.9664 -0.0663
20709SOL     OW66488   8.720   9.194   6.838 -0.2119  0.2150  0.1037
20709SOL    HW166489   8.774   9.161   6.910 -0.9572  0.4942  0.8086
20709SOL    HW266490   8.747   9.285   6.828 -0.0959  0.1715  0.0180
20710SOL     OW66491   1.393   9.834   9.130  0.5291  0.3610  0.1629
20710SOL    HW166492   1.372   9.904   9.192  0.5129 -1.1489  1.9459
20710SOL    HW266493   1.310   9.815   9.086  0.6820  1.8936 -0.8356
20711SOL     OW66494   9.826   1.416   1.128  0.2916  0.1751  0.5399
20711SOL    HW166495   9.741   1.439   1.089  0.8266  2.1722  0.4110
20711SOL    HW266496   9.818   1.324   1.151 -1.9888  0.3450  0.6946
20712SOL     OW66497   5.103   2.629   9.302 -0.3661  0.1283 -0.5603
20712SOL    HW166498   5.123   2.683   9.379  0.6210 -1.0651  0.0629
20712SOL    HW266499   5.185   2.625   9.254 -0.5250 -0.5225 -0.7843
20713SOL     OW66500   0.730   0.607  10.079  0.2233 -0.4580 -0.3085
20713SOL    HW166501   0.792   0.535  10.086  0.8667  0.2381  2.0028
20713SOL    HW266502   0.739   0.655  10.162 -2.7739  0.1723 -0.2306
20714SOL     OW66503   5.940   4.143  10.852  0.2179 -0.2159  0.1994
20714SOL    HW166504   6.019   4.126  10.801  1.3869 -0.5397  2.0231
20714SOL    HW266505   5.884   4.193  10.793  1.6581 -0.2191 -1.2462
20715SOL     OW66506   8.028   0.070   2.168  0.1207 -0.0366  0.1891
20715SOL    HW166507   8.014   0.057   2.074  0.7743  1.3411 -0.1207
20715SOL    HW266508   8.027   0.165   2.179  1.6997 -0.1253  1.3086
20716SOL     OW66509   5.516   0.068   1.338  0.3914 -0.0019  0.1085
20716SOL    HW166510   5.425   0.071   1.368 -0.0178  0.1815 -1.1079
20716SOL    HW266511   5.511   0.035   1.248  1.6059 -0.7613  0.2964
20717SOL     OW66512  11.095   4.968   7.568 -0.2082 -0.2568  0.0520
20717SOL    HW166513  11.139   4.979   7.652  0.6601  0.1182 -0.4421
20717SOL    HW266514  11.048   5.051   7.555  0.1538 -0.0795 -0.1203
20718SOL     OW66515   1.175   1.074  10.168  0.0935 -0.1818  0.2854
20718SOL    HW166516   1.240   1.080  10.237 -0.9365  1.7041  1.1692
20718SOL    HW266517   1.220   1.102  10.089  0.4901  0.7225  0.8146
20719SOL     OW66518   1.812   2.663   4.419  0.3321 -0.2666  0.3465
20719SOL    HW166519   1.740   2.615   4.459  0.1315  1.2908  1.9902
20719SOL    HW266520   1.783   2.755   4.420  2.3254  0.4212  1.1252
20720SOL     OW66521   0.295   8.001   0.021 -0.4038  0.8231  0.2185
20720SOL    HW166522   0.365   7.936   0.015 -0.3292  0.8030  1.1598
20720SOL    HW266523   0.331   8.071   0.076 -0.7134  1.3595 -0.2528
20721SOL     OW66524   8.466   0.422   7.379  0.0951 -0.2330  0.2408
20721SOL    HW166525   8.495   0.335   7.407  1.2738 -0.0908 -0.4603
20721SOL    HW266526   8.386   0.438   7.428 -0.8992 -2.2859 -0.5981
20722SOL     OW66527  10.531   1.069   2.244 -0.1800  0.1379 -0.0487
20722SOL    HW166528  10.621   1.102   2.244  0.3809 -1.2523 -1.0796
20722SOL    HW266529  10.488   1.118   2.174  0.2095 -0.2226 -0.5482
20723SOL     OW66530   8.348   2.385   9.993  0.4261 -0.3171  0.3905
20723SOL    HW166531   8.396   2.302   9.987 -1.1366 -1.4388  2.0281
20723SOL    HW266532   8.306   2.394   9.908  0.2660 -1.4849  0.3205
20724SOL     OW66533   3.787  10.195   9.875 -0.3314 -0.0496  0.4593
20724SOL    HW166534   3.866  10.248   9.865 -0.6957  0.4861  0.3237
20724SOL    HW266535   3.800  10.120   9.818  0.8952 -0.9710  1.8847
20725SOL     OW66536   9.172   0.907   7.436  0.1951 -0.0387 -0.0903
20725SOL    HW166537   9.189   0.929   7.345  0.6986  1.0549  0.2566
20725SOL    HW266538   9.093   0.957   7.459  0.3465  0.0653  0.2126
20726SOL     OW66539   8.537   3.968   4.778 -0.2714  0.0640  0.5236
20726SOL    HW166540   8.493   3.897   4.823  0.6657  1.3309  3.6756
20726SOL    HW266541   8.513   3.956   4.686 -0.1773 -4.2273  0.8574
20727SOL     OW66542   2.110  10.149   7.655 -0.3097 -0.5299 -0.2441
20727SOL    HW166543   2.102  10.144   7.560  1.2604 -0.3335 -0.4186
20727SOL    HW266544   2.154  10.068   7.679 -1.5181 -0.9945  0.4331
20728SOL     OW66545   3.777   6.226   8.733  0.0213 -0.7711 -0.5048
20728SOL    HW166546   3.756   6.257   8.645  2.6357 -0.9086 -1.2487
20728SOL    HW266547   3.758   6.132   8.731 -0.5103 -0.6622 -0.7087
20729SOL     OW66548   8.274   6.237  10.875 -0.4852 -0.3616  0.4089
20729SOL    HW166549   8.233   6.315  10.911 -2.2995 -0.9289 -0.3213
20729SOL    HW266550   8.230   6.164  10.920 -1.2301 -1.0147 -1.3037
20730SOL     OW66551   4.088   5.009   5.805  0.1337  0.1937  0.0611
20730SOL    HW166552   4.139   4.956   5.866 -3.2756 -1.8514  1.4213
20730SOL    HW266553   4.066   5.088   5.854  0.1076  0.0543  0.2737
20731SOL     OW66554   9.798   9.752   9.390 -0.2266 -0.1441  0.3368
20731SOL    HW166555   9.725   9.705   9.430 -0.7997 -0.4296 -0.9955
20731SOL    HW266556   9.870   9.689   9.391 -0.3265 -0.2563  0.6206
20732SOL     OW66557   6.922   1.547   4.396  0.4149  0.0999  0.2080
20732SOL    HW166558   6.937   1.485   4.468 -0.4570 -1.5169 -0.9512
20732SOL    HW266559   6.922   1.632   4.439  0.9026 -0.7293  1.9865
20733SOL     OW66560   1.642   1.933   3.126  0.4217  0.0769 -0.2407
20733SOL    HW166561   1.666   1.843   3.101 -2.4875 -0.4000 -1.7955
20733SOL    HW266562   1.677   1.944   3.214  2.1594 -2.0138 -0.5756
20734SOL     OW66563   1.149   8.890   8.463 -0.2085 -0.1443 -0.2207
20734SOL    HW166564   1.144   8.808   8.414  0.7327  0.3696 -1.2013
20734SOL    HW266565   1.095   8.874   8.541 -0.1575 -1.6358 -0.4617
20735SOL     OW66566   6.702   8.698   5.643  0.2976  0.8168  0.6584
20735SOL    HW166567   6.715   8.679   5.551 -1.6126  1.2919  0.2387
20735SOL    HW266568   6.686   8.613   5.684 -1.0370  0.7792  0.1141
20736SOL     OW66569   7.534   2.390   3.933  0.1551  1.2116  0.1833
20736SOL    HW166570   7.627   2.371   3.941 -0.1743 -1.3080 -1.1100
20736SOL    HW266571   7.507   2.415   4.021  1.5316 -0.5919  1.1764
20737SOL     OW66572   2.238   1.355   7.588 -0.3926  0.3736  0.7589
20737SOL    HW166573   2.164   1.377   7.531 -0.1821  0.3842  0.4861
20737SOL    HW266574   2.277   1.440   7.610  0.5455  0.2860 -0.4624
20738SOL     OW66575   4.888   7.836   2.495  0.2870 -0.4931  0.1649
20738SOL    HW166576   4.970   7.854   2.448  0.9728  1.3497  1.9588
20738SOL    HW266577   4.891   7.741   2.511  1.0408 -0.8157 -1.5781
20739SOL     OW66578  10.731   1.379   3.839 -0.2367 -0.0751  0.1163
20739SOL    HW166579  10.780   1.439   3.783  0.6529 -0.6675  0.2417
20739SOL    HW266580  10.776   1.382   3.923  0.1293 -1.2821 -0.0164
20740SOL     OW66581   6.210   4.016   5.806  0.0447  1.0864  0.6575
20740SOL    HW166582   6.247   4.080   5.867  0.1207  1.7443 -0.0602
20740SOL    HW266583   6.190   3.940   5.861  0.8509  1.3584  1.3643
20741SOL     OW66584   0.853   4.789   3.929  0.1659  0.2474  0.0150
20741SOL    HW166585   0.808   4.734   3.865 -0.2157 -0.4800  0.8776
20741SOL    HW266586   0.882   4.727   3.997  0.8516  0.9518  0.3798
20742SOL     OW66587  11.032   2.769   9.435  0.5159 -0.1411  0.4309
20742SOL    HW166588  11.015   2.768   9.341  0.8588 -0.1684  0.3682
20742SOL    HW266589  10.945   2.768   9.475  0.3676 -1.5823  0.1269
20743SOL     OW66590   1.677   3.402  10.743 -0.0525 -0.1369  0.1006
20743SOL    HW166591   1.663   3.374  10.833 -0.2310  0.3920  0.2374
20743SOL    HW266592   1.591   3.395  10.702  0.1584 -1.0096 -0.2094
20744SOL     OW66593   2.911   9.118   0.439  0.3695  0.6576 -0.3144
20744SOL    HW166594   2.911   9.188   0.504 -0.2667 -1.0337  1.6140
20744SOL    HW266595   2.839   9.139   0.380 -0.3185  1.2123  0.7024
20745SOL     OW66596   9.303   3.125   1.512  0.3140  0.3396 -0.4784
20745SOL    HW166597   9.238   3.162   1.572 -0.7056  0.3858 -1.5812
20745SOL    HW266598   9.257   3.054   1.467  1.3224 -0.2499 -0.6034
20746SOL     OW66599   2.702   6.155   1.930 -0.4384 -0.0095  0.1696
20746SOL    HW166600   2.648   6.209   1.986  1.7795  0.9827  1.5073
20746SOL    HW266601   2.731   6.214   1.860  0.2692 -0.0472  0.4231
20747SOL     OW66602  11.032   8.983   7.616 -0.2713 -0.1488 -0.2144
20747SOL    HW166603  11.089   9.030   7.554 -1.5568  1.8731  0.0103
20747SOL    HW266604  11.058   9.015   7.702  0.1866 -1.4487  0.1470
20748SOL     OW66605   4.899   4.104  10.540 -0.5279 -0.8844 -0.1053
20748SOL    HW166606   4.910   4.019  10.583  2.1415 -0.6314 -0.1284
20748SOL    HW266607   4.982   4.148  10.552 -1.7420  1.6509 -0.3788
20749SOL     OW66608   6.140   0.619  10.354 -0.4089 -0.1860 -0.4637
20749SOL    HW166609   6.195   0.577  10.419  0.1691  1.0213 -0.1434
20749SOL    HW266610   6.053   0.582  10.368 -0.3027  0.0802  1.0128
20750SOL     OW66611   7.261  10.032   4.113  0.3586  0.1999 -0.4601
20750SOL    HW166612   7.357  10.031   4.123  0.2244 -3.2918  2.8704
20750SOL    HW266613   7.242   9.957   4.056 -0.4128  0.2201 -0.2343
20751SOL     OW66614   9.972   6.775   4.266  0.5748  0.8424  0.1368
20751SOL    HW166615  10.005   6.864   4.280  0.7213  0.7189  0.6021
20751SOL    HW266616  10.010   6.724   4.338 -0.7734  0.7217  0.7947
20752SOL     OW66617  10.247   9.737  10.275 -0.3125 -0.5303 -0.1514
20752SOL    HW166618  10.301   9.777  10.207 -0.1896 -0.9073 -0.2759
20752SOL    HW266619  10.309   9.715  10.345 -0.0940 -2.1420 -0.8278
20753SOL     OW66620   3.633   3.067   9.736 -0.0185 -0.1655  0.5949
20753SOL    HW166621   3.539   3.066   9.751 -0.5399  0.8484 -1.9769
20753SOL    HW266622   3.653   2.982   9.697 -0.5258  0.7276 -1.7644
20754SOL     OW66623   8.011   8.786   0.593 -0.6178 -0.1108  0.4678
20754SOL    HW166624   7.958   8.717   0.633 -0.4548 -0.3053  0.3490
20754SOL    HW266625   8.086   8.796   0.651  0.3452 -1.3709 -0.4940
20755SOL     OW66626   9.535   7.966   2.366  0.5870  0.0100  0.2210
20755SOL    HW166627   9.507   7.879   2.394  1.1345 -0.0148  0.7104
20755SOL    HW266628   9.596   7.950   2.294  0.8337 -0.0219  0.4358
20756SOL     OW66629   7.241   3.110   3.714 -0.0619  0.6595  0.8651
20756SOL    HW166630   7.173   3.046   3.735  0.1888  0.4975  1.2085
20756SOL    HW266631   7.299   3.109   3.791  0.9005  0.0419  0.1556
20757SOL     OW66632   6.880   7.315   5.671  0.6249  0.4499 -0.3320
20757SOL    HW166633   6.861   7.287   5.761 -1.5526 -0.1166 -0.9199
20757SOL    HW266634   6.850   7.405   5.667  0.3348  0.3421 -0.6045
20758SOL     OW66635  10.151   2.351   7.130  0.0505 -0.4726 -0.1157
20758SOL    HW166636  10.162   2.260   7.155 -2.0811 -0.6374  0.4560
20758SOL    HW266637  10.117   2.348   7.041 -0.4637 -0.2842  0.0659
20759SOL     OW66638   5.667  10.028   8.561 -0.1224  0.1536 -0.1431
20759SOL    HW166639   5.680  10.070   8.476  0.6986  0.0275 -0.0849
20759SOL    HW266640   5.572  10.017   8.568 -0.3287  1.5957 -0.3453
20760SOL     OW66641   5.534   8.146   2.296 -0.2515 -0.0196 -0.4683
20760SOL    HW166642   5.571   8.107   2.375  1.3354 -0.7297 -1.4979
20760SOL    HW266643   5.489   8.074   2.252  0.0984  0.0175 -0.8975
20761SOL     OW66644   4.781   2.954   6.784 -0.3618  0.5075  0.4865
20761SOL    HW166645   4.849   2.973   6.848 -0.6593  0.3527  0.8526
20761SOL    HW266646   4.740   2.873   6.815 -1.3966  1.1416  0.8586
20762SOL     OW66647   4.398   2.972   6.494  0.4427 -0.6176  0.0454
20762SOL    HW166648   4.413   2.936   6.406  1.0067  3.5309 -1.8051
20762SOL    HW266649   4.480   2.957   6.540  1.8311  0.9361 -1.7482
20763SOL     OW66650   1.985  10.903  10.995 -0.3244  0.3423  0.4053
20763SOL    HW166651   1.959  10.970  11.057 -1.7499  0.6648 -0.4969
20763SOL    HW266652   1.956  10.821  11.035  0.2849  0.3600  0.9154
20764SOL     OW66653   3.649   7.930   3.929  0.3521  0.1366  0.1757
20764SOL    HW166654   3.706   7.854   3.939  3.6553  2.3717 -0.1356
20764SOL    HW266655   3.675   7.970   3.847 -0.1658  2.4275  1.0428
20765SOL     OW66656   2.484   5.697   5.882  0.5544  0.3195  0.0953
20765SOL    HW166657   2.412   5.750   5.846  1.1891 -0.3081 -2.2497
20765SOL    HW266658   2.441   5.617   5.912  0.3621 -0.8698 -2.9913
20766SOL     OW66659   9.001   8.215   7.181 -0.1480 -0.0578  0.5855
20766SOL    HW166660   9.051   8.150   7.231  1.0245  0.2739 -0.1232
20766SOL    HW266661   8.910   8.198   7.205  0.3171 -0.3638  2.2826
20767SOL     OW66662   0.972   0.890   8.286 -0.0281  0.5609  0.4876
20767SOL    HW166663   0.943   0.822   8.347  0.2444  0.5563  0.6110
20767SOL    HW266664   1.038   0.847   8.232 -0.1695  0.6043  0.2776
20768SOL     OW66665   4.097   1.361   4.166 -0.2351 -0.3135 -0.0219
20768SOL    HW166666   4.030   1.292   4.168  0.1436 -0.7459 -1.2191
20768SOL    HW266667   4.104   1.385   4.074  1.6422 -0.6608 -0.0126
20769SOL     OW66668   5.033   9.425  10.665 -0.0891  0.7605 -0.0543
20769SOL    HW166669   4.978   9.498  10.638 -0.2022  0.0102 -2.0567
20769SOL    HW266670   4.976   9.370  10.719 -0.4205  1.4329  0.2873
20770SOL     OW66671   8.497   4.023   5.838  0.1044 -0.5981  0.4194
20770SOL    HW166672   8.420   3.988   5.882  0.2053 -0.2277  0.9070
20770SOL    HW266673   8.566   3.960   5.855  0.2710 -0.2078  1.2395
20771SOL     OW66674   1.162   9.511   5.109  0.6138 -0.5491  0.6408
20771SOL    HW166675   1.109   9.466   5.044 -1.2899  0.5157  1.3741
20771SOL    HW266676   1.159   9.455   5.187  0.3537 -0.3882  0.7498
20772SOL     OW66677   9.016  10.665   2.645 -0.6892 -0.0965 -0.6392
20772SOL    HW166678   9.012  10.728   2.716 -1.9251 -0.9552  0.0951
20772SOL    HW266679   9.110  10.651   2.630 -0.4178  0.4899  0.4557
20773SOL     OW66680   8.587   2.498  10.147  0.8990 -0.3011 -0.0258
20773SOL    HW166681   8.662   2.445  10.118  0.1195 -0.5486 -1.6793
20773SOL    HW266682   8.512   2.459  10.104 -0.4635 -0.9385  2.7007
20774SOL     OW66683   5.030   3.927   4.491  0.1171  0.3326 -0.0450
20774SOL    HW166684   5.025   4.003   4.433 -0.2705  0.9493  0.7793
20774SOL    HW266685   5.124   3.914   4.506  0.1642  1.0886  0.3686
20775SOL     OW66686   3.456   0.238  11.066  0.0474  0.2576  0.1726
20775SOL    HW166687   3.531   0.184  11.094 -0.3471 -0.8032 -0.7169
20775SOL    HW266688   3.491   0.327  11.062  0.7623  0.0704  1.5542
20776SOL     OW66689   7.436   9.771   0.543  0.1600  0.3085 -0.1772
20776SOL    HW166690   7.353   9.791   0.587 -0.2685 -0.4925 -0.6049
20776SOL    HW266691   7.449   9.843   0.482 -0.1684  0.4983 -0.0267
20777SOL     OW66692   9.781   0.003   7.517 -0.0183 -0.9498 -0.6095
20777SOL    HW166693   9.705   0.018   7.461  0.4839 -0.0930 -1.0813
20777SOL    HW266694   9.832  -0.064   7.472  1.1749  0.8101 -2.0457
20778SOL     OW66695   7.067   7.306   9.996 -0.6032 -0.4222 -0.0130
20778SOL    HW166696   6.993   7.365  10.010 -0.0787  0.1896  0.2121
20778SOL    HW266697   7.144   7.361  10.008 -0.0493 -0.2808 -3.1491
20779SOL     OW66698   3.605   0.220   4.560  0.0457 -0.1653 -0.1086
20779SOL    HW166699   3.575   0.130   4.546  0.1041 -0.4309  1.2929
20779SOL    HW266700   3.701   0.215   4.554  0.0545 -0.2251  0.0642
20780SOL     OW66701   6.593  10.394   4.689 -0.1400  0.4109  0.1998
20780SOL    HW166702   6.622  10.447   4.615  0.7000  0.6660  0.6958
20780SOL    HW266703   6.564  10.312   4.650  1.1304  0.1995 -0.3499
20781SOL     OW66704   6.681   0.774   8.119  0.7141  0.3966 -0.5570
20781SOL    HW166705   6.771   0.752   8.145  0.4710  0.9126  0.7617
20781SOL    HW266706   6.671   0.733   8.033  1.5472 -1.3829  0.1391
20782SOL     OW66707   8.342   6.109   8.247 -0.4107  0.2218  0.3312
20782SOL    HW166708   8.349   6.161   8.327 -0.7895  0.5702  0.1418
20782SOL    HW266709   8.425   6.062   8.241 -0.6823 -0.4202  1.3522
20783SOL     OW66710   0.944   5.885   7.295  0.2701 -0.2815 -0.6686
20783SOL    HW166711   1.015   5.941   7.328 -0.9186  0.2945  1.0374
20783SOL    HW266712   0.970   5.796   7.321  0.1621 -0.0225  0.3557
20784SOL     OW66713   1.463  10.768   8.408  0.5081 -0.2134  0.0424
20784SOL    HW166714   1.491  10.701   8.469  2.5358  0.8247  0.3584
20784SOL    HW266715   1.524  10.760   8.334 -1.0915 -0.6206 -1.2786
20785SOL     OW66716   2.049   7.496   3.257  0.4113 -0.5159  0.4281
20785SOL    HW166717   1.973   7.454   3.216 -0.6552  0.0475  1.7473
20785SOL    HW266718   2.063   7.446   3.337  2.7699 -1.9137 -0.7576
20786SOL     OW66719   7.961   9.065   9.708 -0.7296 -0.3312 -0.0895
20786SOL    HW166720   7.982   9.158   9.693 -1.1639  0.0843  1.7136
20786SOL    HW266721   8.047   9.021   9.706 -0.2960  0.4229  1.0048
20787SOL     OW66722   7.784   9.303   0.779 -0.2834 -0.8124 -0.4937
20787SOL    HW166723   7.764   9.278   0.869  0.5837 -0.6930 -0.2632
20787SOL    HW266724   7.699   9.300   0.734 -0.9671  0.4825  0.6368
20788SOL     OW66725   2.368   0.488   8.181  0.1846 -0.3064  0.4120
20788SOL    HW166726   2.304   0.551   8.147 -0.8453 -1.9432 -0.7770
20788SOL    HW266727   2.318   0.431   8.239  1.0080 -0.3535  1.0933
20789SOL     OW66728   7.156  10.113   9.484  0.4344 -0.3180  0.2196
20789SOL    HW166729   7.076  10.097   9.433  1.0876 -1.1513 -0.5714
20789SOL    HW266730   7.134  10.189   9.539 -1.1254 -0.9457  0.5203
20790SOL     OW66731   2.173   2.345   7.184 -0.8970 -0.0008 -0.0257
20790SOL    HW166732   2.153   2.251   7.178  2.5189 -0.8035 -1.1426
20790SOL    HW266733   2.182   2.372   7.093  1.2015  0.5891  0.3145
20791SOL     OW66734  10.140   4.574   2.943 -0.2743  0.5459 -0.4285
20791SOL    HW166735  10.229   4.539   2.946 -0.3648  0.3911  0.4841
20791SOL    HW266736  10.150   4.661   2.903  0.1706  0.2135 -1.0713
20792SOL     OW66737   3.046   7.707   2.718 -0.4723  0.1285 -0.2014
20792SOL    HW166738   3.017   7.624   2.757 -0.3022 -0.7803 -1.9026
20792SOL    HW266739   3.005   7.707   2.631 -0.8847  2.0930 -0.0394
20793SOL     OW66740   5.873   9.686   5.461  0.3533 -0.1627 -0.0285
20793SOL    HW166741   5.796   9.741   5.476  0.4783  0.0227 -0.0648
20793SOL    HW266742   5.944   9.748   5.444  0.4572 -0.3400 -0.2453
20794SOL     OW66743  10.902   2.019   2.523 -0.8207 -0.2212  0.0208
20794SOL    HW166744  10.924   1.969   2.602 -0.7311  0.1341  0.2248
20794SOL    HW266745  10.933   1.965   2.451 -1.0045 -0.5988  0.2268
20795SOL     OW66746   4.040   5.401   1.882  0.1840 -0.2528  0.4037
20795SOL    HW166747   4.072   5.324   1.836 -0.0038 -0.0918 -0.0011
20795SOL    HW266748   3.948   5.381   1.902  0.3875 -0.5120  1.1262
20796SOL     OW66749   3.909  11.110   4.505 -0.4650 -0.0209  0.1979
20796SOL    HW166750   3.961  11.031   4.487  0.5751  0.5893  0.4308
20796SOL    HW266751   3.958  11.181   4.462 -4.2433 -0.0683 -5.1882
20797SOL     OW66752   8.138   2.954   4.484  0.9194  0.3646  0.4306
20797SOL    HW166753   8.185   2.903   4.418  0.8669  0.0582  0.6261
20797SOL    HW266754   8.045   2.939   4.464  0.8695  2.1329 -0.8575
20798SOL     OW66755   6.577   9.663  10.322 -0.3084 -0.1859  0.1059
20798SOL    HW166756   6.492   9.652  10.364  0.3824  1.7274  2.2149
20798SOL    HW266757   6.635   9.603  10.369  0.1799  0.9713  1.0254
20799SOL     OW66758   5.940   3.393   4.418 -0.0159 -0.5256  0.1053
20799SOL    HW166759   5.944   3.299   4.435 -0.2185 -0.3452  1.2358
20799SOL    HW266760   5.846   3.413   4.421 -0.2083 -0.6755 -2.5538
20800SOL     OW66761   7.086   2.670   5.251 -0.1441 -0.1223  0.0061
20800SOL    HW166762   7.073   2.723   5.329 -0.0683  0.2156 -0.2120
20800SOL    HW266763   7.168   2.702   5.213  0.6707 -1.3429  0.6463
20801SOL     OW66764   3.565   4.650   2.413  0.1146  0.1204  0.0927
20801SOL    HW166765   3.626   4.715   2.378 -0.0105  2.0691  3.1357
20801SOL    HW266766   3.479   4.679   2.383  0.0850  1.3290  1.2475
20802SOL     OW66767   1.860   4.722   3.016 -0.0700  0.6589 -0.3417
20802SOL    HW166768   1.891   4.666   3.086 -1.5300  1.5430  1.0909
20802SOL    HW266769   1.768   4.697   3.003 -0.1813  1.3685 -1.0515
20803SOL     OW66770   2.350  10.781   2.026  0.1337 -0.1642 -0.5840
20803SOL    HW166771   2.316  10.691   2.034  0.2974 -0.2191 -0.4968
20803SOL    HW266772   2.337  10.819   2.112  0.4594 -0.2452 -0.4975
20804SOL     OW66773   2.973   0.186   8.505 -0.5258  0.4686 -0.0187
20804SOL    HW166774   3.042   0.120   8.497 -1.1506 -0.5398  2.1637
20804SOL    HW266775   2.894   0.143   8.474 -0.9075  0.1737  1.2829
20805SOL     OW66776   4.007   7.380   9.948 -0.0844 -0.7212 -0.1753
20805SOL    HW166777   4.056   7.346   9.873 -1.1830  0.4211 -1.4568
20805SOL    HW266778   3.944   7.441   9.910 -0.4240  0.1790  1.7269
20806SOL     OW66779   4.230   9.614   3.221  0.1395 -0.1697  0.1505
20806SOL    HW166780   4.157   9.665   3.187  0.6744  1.5101  1.3872
20806SOL    HW266781   4.189   9.547   3.276 -0.4977 -0.0844 -0.2086
20807SOL     OW66782  10.621   9.124   1.212 -0.0195 -0.3388 -0.6378
20807SOL    HW166783  10.664   9.084   1.288 -0.2166 -1.5368 -1.1452
20807SOL    HW266784  10.653   9.214   1.212  0.4877 -0.5005  0.4903
20808SOL     OW66785   4.940   9.228   7.093  0.0023 -0.0887 -0.1124
20808SOL    HW166786   4.910   9.206   7.005  0.9905  0.0053 -0.4884
20808SOL    HW266787   4.924   9.149   7.144 -0.1886 -0.2921 -0.4810
20809SOL     OW66788   0.139   0.402   4.949  0.3166  0.0332 -0.2133
20809SOL    HW166789   0.173   0.362   4.868 -1.7592 -0.6260 -0.8510
20809SOL    HW266790   0.181   0.488   4.953  1.0493 -0.2206 -1.5956
20810SOL     OW66791   6.006  10.509   6.132  0.5117 -0.1305  0.6269
20810SOL    HW166792   5.922  10.554   6.145  0.8805  0.7239  0.0431
20810SOL    HW266793   6.006  10.483   6.040  0.4832 -0.9885  0.8525
20811SOL     OW66794   9.270   6.945  11.015 -0.0971  0.2261 -0.0900
20811SOL    HW166795   9.328   6.908  11.082 -0.3728 -0.2046 -0.0878
20811SOL    HW266796   9.194   6.976  11.065 -0.9872 -1.4364 -0.3360
20812SOL     OW66797   5.306   9.929   0.314 -0.0800  0.6290 -0.0133
20812SOL    HW166798   5.272   9.898   0.231 -0.1357  1.1330 -0.1816
20812SOL    HW266799   5.234   9.980   0.352 -0.1775  0.1206  0.5004
20813SOL     OW66800   1.540   5.850   9.398 -0.0836 -0.2607 -0.1075
20813SOL    HW166801   1.556   5.842   9.493 -1.4174 -0.2638  0.1311
20813SOL    HW266802   1.574   5.768   9.362  3.4696  1.0241 -0.1204
20814SOL     OW66803   8.251   3.377   1.102  0.2825 -0.0708  0.0193
20814SOL    HW166804   8.172   3.326   1.119 -0.7367  1.5794  0.4441
20814SOL    HW266805   8.316   3.341   1.164  0.1898 -2.0251 -0.9367
20815SOL     OW66806  10.566   9.822   8.500 -0.3337  0.0239  0.5381
20815SOL    HW166807  10.487   9.803   8.450 -0.9183 -1.3243  1.8841
20815SOL    HW266808  10.637   9.785   8.448 -0.6959  0.3531 -0.2006
20816SOL     OW66809   4.351   1.831   4.744  0.1696 -0.0901  0.1453
20816SOL    HW166810   4.320   1.921   4.748  3.0508  0.9738  2.2269
20816SOL    HW266811   4.273   1.778   4.763 -1.1204  2.1158  1.5092
20817SOL     OW66812   0.832   1.356   3.126 -0.5260  0.2563  0.8796
20817SOL    HW166813   0.914   1.384   3.167 -0.6471 -0.1057  1.3722
20817SOL    HW266814   0.779   1.436   3.123 -0.5701  0.2570  1.5619
20818SOL     OW66815   3.621   3.340   9.829 -0.2284 -0.3258 -0.3719
20818SOL    HW166816   3.591   3.251   9.810 -1.4195 -0.1743  0.6301
20818SOL    HW266817   3.637   3.379   9.743  1.2054 -1.7712 -0.8097
20819SOL     OW66818  10.659   8.858   9.840  0.1629 -0.1135 -0.0732
20819SOL    HW166819  10.749   8.847   9.869  0.9902  2.1932 -1.4786
20819SOL    HW266820  10.663   8.852   9.744 -1.0445  0.6727 -0.1984
20820SOL     OW66821   6.667   2.837   4.731  0.3301  0.6672 -0.1732
20820SOL    HW166822   6.628   2.896   4.667  0.7992  0.3513 -0.7601
20820SOL    HW266823   6.602   2.831   4.801 -0.0311  1.3063 -0.4459
20821SOL     OW66824  10.999   4.581   0.170  0.0509 -0.0603 -0.6178
20821SOL    HW166825  11.051   4.570   0.091  0.6335 -1.3522 -0.0846
20821SOL    HW266826  10.929   4.641   0.145 -0.2269 -1.0522 -2.3272
20822SOL     OW66827   1.012   8.232   9.532 -0.1885  0.3461  0.2343
20822SOL    HW166828   1.106   8.223   9.513 -0.6972 -1.6665 -1.8656
20822SOL    HW266829   1.006   8.230   9.627  1.9127  0.7702  0.4283
20823SOL     OW66830   5.533  10.021   2.712 -0.4900  0.0513 -0.1409
20823SOL    HW166831   5.504   9.930   2.723 -2.3376  0.7648  1.2988
20823SOL    HW266832   5.505  10.044   2.624  0.4248 -0.8886 -0.7088
20824SOL     OW66833   3.184  10.625   1.634  0.0799 -0.4915  0.5463
20824SOL    HW166834   3.108  10.588   1.590  0.7846 -1.0021 -0.2631
20824SOL    HW266835   3.220  10.553   1.685 -0.2540 -0.1174  1.3280
20825SOL     OW66836  10.186   5.733   1.839 -0.2711 -0.1632  0.1138
20825SOL    HW166837  10.105   5.705   1.796 -0.1797  0.4733 -0.4885
20825SOL    HW266838  10.232   5.785   1.773 -0.8179  2.1186  1.4332
20826SOL     OW66839   9.883   1.982   9.214 -0.3269  0.0901 -0.0604
20826SOL    HW166840   9.798   1.960   9.176  0.2456 -0.4868 -1.0274
20826SOL    HW266841   9.862   2.019   9.300 -1.5481 -0.0787 -0.2759
20827SOL     OW66842   2.666   3.669   9.620 -0.1401 -0.1812 -0.5072
20827SOL    HW166843   2.583   3.621   9.614 -0.2931 -0.4142  2.2197
20827SOL    HW266844   2.730   3.603   9.645  0.1053  0.5855  1.0081
20828SOL     OW66845   3.743   8.198   2.382  0.4276  0.7315  0.8845
20828SOL    HW166846   3.758   8.117   2.431 -0.2392  1.2138  1.9492
20828SOL    HW266847   3.677   8.174   2.317  1.3772  0.0581  0.1529
20829SOL     OW66848   6.460   7.907   4.293  0.0130 -0.2988  0.0944
20829SOL    HW166849   6.550   7.941   4.297  0.1137 -0.6630  1.4022
20829SOL    HW266850   6.450   7.878   4.203  1.0566  0.1751 -0.1943
20830SOL     OW66851   9.059   6.316   7.836  0.5133  0.4072 -0.4112
20830SOL    HW166852   9.086   6.284   7.922  0.4539  0.2218 -0.4604
20830SOL    HW266853   9.103   6.257   7.774  1.6485  1.3688 -0.5486
20831SOL     OW66854   2.190   7.909   7.066 -0.5578  0.5588 -0.7745
20831SOL    HW166855   2.175   7.969   7.140  1.4266 -2.2277  2.1491
20831SOL    HW266856   2.111   7.855   7.064 -0.4847  0.4403 -0.4905
20832SOL     OW66857   3.217   8.209  10.770  0.5937 -0.1449 -0.1634
20832SOL    HW166858   3.303   8.215  10.813  1.2689  2.4457 -1.6478
20832SOL    HW266859   3.158   8.255  10.829  0.1837 -1.7968  0.7845
20833SOL     OW66860   0.748   6.187   8.492 -0.3735  0.0243  0.0312
20833SOL    HW166861   0.780   6.172   8.581 -0.8874 -0.2468  0.1782
20833SOL    HW266862   0.817   6.237   8.449  0.1647 -0.4043  0.3866
20834SOL     OW66863   9.346   7.819   8.935 -0.3794  0.0755 -0.2114
20834SOL    HW166864   9.296   7.882   8.883  0.9945  2.7660  1.5272
20834SOL    HW266865   9.433   7.819   8.894 -0.5895 -1.4134 -0.7086
20835SOL     OW66866  10.439   3.022   8.744 -0.4300 -0.1145 -0.1205
20835SOL    HW166867  10.446   2.985   8.832  2.6796  0.5473  0.0304
20835SOL    HW266868  10.413   3.113   8.758 -0.0276 -0.0336  0.1165
20836SOL     OW66869  10.588   0.891   1.213  0.5847 -0.1272 -0.2853
20836SOL    HW166870  10.520   0.904   1.146  0.4640  2.6833  0.2757
20836SOL    HW266871  10.670   0.889   1.164  0.5816  2.8178 -0.5818
20837SOL     OW66872   7.486   7.100   7.973 -0.2143  0.0382 -0.2153
20837SOL    HW166873   7.527   7.136   7.894 -1.6476  1.9080 -0.1646
20837SOL    HW266874   7.542   7.130   8.044  0.2913 -0.4490 -0.4014
20838SOL     OW66875   4.971   3.658   9.329  0.0076  0.0069  0.1594
20838SOL    HW166876   5.035   3.608   9.380  3.3176  2.0029 -1.6891
20838SOL    HW266877   4.948   3.732   9.385 -1.5942 -1.2385  1.2278
20839SOL     OW66878  11.004   8.912   1.489  0.2757 -0.1322  0.3785
20839SOL    HW166879  10.990   8.862   1.569  0.9171  0.4374  0.8526
20839SOL    HW266880  11.044   8.994   1.518  0.8029 -0.0469 -0.5521
20840SOL     OW66881   4.444   2.186   7.501 -0.1438 -0.9193 -0.2765
20840SOL    HW166882   4.358   2.184   7.542  0.2814  0.3138  0.7361
20840SOL    HW266883   4.465   2.094   7.484 -0.4159 -1.5002  2.1589
20841SOL     OW66884   0.094  10.763   8.056  0.9097 -0.0070 -0.0408
20841SOL    HW166885   0.183  10.795   8.043  0.9832 -0.1858  0.0156
20841SOL    HW266886   0.098  10.671   8.030  1.1228 -0.4590  1.4596
20842SOL     OW66887   5.868  11.011   7.385  0.0213 -0.0223  0.2795
20842SOL    HW166888   5.796  11.018   7.323 -1.5652 -1.5233  1.8044
20842SOL    HW266889   5.907  10.925   7.368  0.7507  0.3187  0.1846
20843SOL     OW66890   1.129   0.605   8.611  0.3112 -0.3954  0.3816
20843SOL    HW166891   1.128   0.590   8.517  0.0745 -0.8602  0.4556
20843SOL    HW266892   1.111   0.698   8.621 -1.2016 -0.6239  0.0223
20844SOL     OW66893   9.040   0.809   8.651  0.0101  0.5042  0.8193
20844SOL    HW166894   9.011   0.900   8.645  0.1086  0.4746 -0.6689
20844SOL    HW266895   8.968   0.759   8.613 -0.3021 -0.1220  2.1722
20845SOL     OW66896  10.845   5.557   9.819 -0.2377 -0.1573  0.0195
20845SOL    HW166897  10.828   5.615   9.745 -1.2065  0.2464  0.5357
20845SOL    HW266898  10.921   5.505   9.792  1.7805  2.4661  0.1608
20846SOL     OW66899   5.886   5.309   3.575  0.2924  0.4237  1.0270
20846SOL    HW166900   5.972   5.346   3.597  0.2142  0.8012  0.7173
20846SOL    HW266901   5.880   5.319   3.480 -0.3727  1.0228  1.1233
20847SOL     OW66902   4.552   3.203   7.491 -0.3628  0.0248 -0.3252
20847SOL    HW166903   4.507   3.186   7.574  0.4121 -2.1954 -0.2934
20847SOL    HW266904   4.626   3.258   7.514  0.7578 -1.8386  0.8006
20848SOL     OW66905   9.577   0.774   4.473  0.5154  0.2775  0.1085
20848SOL    HW166906   9.661   0.794   4.514  0.9579 -0.6280 -0.3208
20848SOL    HW266907   9.600   0.735   4.389 -0.3447  0.2538 -0.1242
20849SOL     OW66908   6.402   4.353  11.043  0.1814 -0.2972 -0.4735
20849SOL    HW166909   6.410   4.390  11.131 -1.9416 -2.0005  0.5349
20849SOL    HW266910   6.334   4.406  11.001  1.3475  0.6546 -1.2220
20850SOL     OW66911   3.819   8.777   0.297  0.3065  0.3914  0.3806
20850SOL    HW166912   3.873   8.716   0.248 -1.3893 -1.2798  0.4779
20850SOL    HW266913   3.760   8.814   0.232 -0.8513 -0.5901  0.8389
20851SOL     OW66914   2.818   7.510   6.068  0.0404 -0.1336 -0.2182
20851SOL    HW166915   2.802   7.482   6.158  0.5589  1.8534  0.5456
20851SOL    HW266916   2.746   7.569   6.048  0.7694  0.6841 -0.5149
20852SOL     OW66917   3.516   0.302   6.740 -0.8030  0.0227  0.4148
20852SOL    HW166918   3.577   0.375   6.743 -1.1122  0.2969  0.1197
20852SOL    HW266919   3.477   0.307   6.652 -0.3447 -0.8888  0.1490
20853SOL     OW66920   5.245  10.929   2.189  0.0618 -0.1098 -0.3070
20853SOL    HW166921   5.280  10.990   2.254  0.0967  0.1994 -0.6151
20853SOL    HW266922   5.168  10.891   2.231 -0.3470  0.6378 -0.3640
20854SOL     OW66923   9.846   8.381   0.924  0.3864 -0.4514  0.3146
20854SOL    HW166924   9.798   8.405   1.003  2.2038 -0.4559  1.4956
20854SOL    HW266925   9.842   8.458   0.868 -0.6598 -0.3391  0.5373
20855SOL     OW66926   7.315   7.821   6.891  0.1398 -0.0851  0.0127
20855SOL    HW166927   7.318   7.778   6.806 -0.9094 -1.8612  0.8100
20855SOL    HW266928   7.267   7.903   6.875 -1.8731 -1.3400 -0.7744
20856SOL     OW66929   5.247   2.236   7.197  0.4968 -0.7893  0.0316
20856SOL    HW166930   5.209   2.157   7.158  2.4157 -1.2089 -1.0881
20856SOL    HW266931   5.312   2.266   7.134  0.9152  0.8174  1.1554
20857SOL     OW66932   2.338   5.505   0.097 -0.4360  0.1608  0.0464
20857SOL    HW166933   2.349   5.493   0.192  2.3071 -0.6960 -0.3003
20857SOL    HW266934   2.370   5.424   0.059  0.4316  1.2675 -1.6980
20858SOL     OW66935   6.002  10.398   3.525 -0.5000  0.7844  0.2607
20858SOL    HW166936   6.087  10.382   3.484  0.0976  0.0111  1.7506
20858SOL    HW266937   5.944  10.332   3.486 -0.3424  1.0972 -0.5112
20859SOL     OW66938   4.433   1.874   5.490 -0.0024  0.5566 -0.4366
20859SOL    HW166939   4.524   1.845   5.500 -0.0199 -0.2595 -2.3410
20859SOL    HW266940   4.394   1.811   5.429 -2.8254 -1.0979  2.7497
20860SOL     OW66941   9.718   9.650   7.548  0.8247 -0.2661  0.4860
20860SOL    HW166942   9.705   9.713   7.620  0.4613 -1.6536  1.6689
20860SOL    HW266943   9.630   9.631   7.517  0.9200 -0.4077  0.3020
20861SOL     OW66944  10.719   3.623   8.471 -0.1539 -0.4806  0.1151
20861SOL    HW166945  10.650   3.643   8.407  1.3071  1.2397 -1.0431
20861SOL    HW266946  10.765   3.547   8.434  0.1463 -0.0244 -0.4771
20862SOL     OW66947   9.595   6.553   2.520 -0.0159  0.2672 -0.1092
20862SOL    HW166948   9.531   6.531   2.453  2.1128  1.2297 -2.6252
20862SOL    HW266949   9.645   6.472   2.533 -1.6926 -0.5312  1.9718
20863SOL     OW66950   2.754   6.387   2.920 -0.9307  0.0304  0.4717
20863SOL    HW166951   2.750   6.436   3.002 -1.2731 -2.8764  2.3203
20863SOL    HW266952   2.666   6.351   2.909 -0.0438 -2.3924  0.7374
20864SOL     OW66953  10.046   9.244   4.215  0.3731 -0.1780  0.3401
20864SOL    HW166954  10.002   9.160   4.202 -0.0296 -0.0730  0.9670
20864SOL    HW266955  10.064   9.275   4.126 -2.3897  0.5675 -0.0720
20865SOL     OW66956   8.937  10.899   0.898  0.1270 -0.2348  0.0840
20865SOL    HW166957   8.845  10.919   0.912 -0.5032 -1.6153 -1.6808
20865SOL    HW266958   8.978  10.985   0.886 -1.3775  0.3394 -1.3928
20866SOL     OW66959   3.523   7.728   8.964 -0.1752 -0.4159 -0.0043
20866SOL    HW166960   3.445   7.781   8.947 -0.6706 -1.0614  0.2182
20866SOL    HW266961   3.582   7.748   8.891 -0.7754 -0.3505 -0.4772
20867SOL     OW66962   1.940   8.842   9.143 -0.1976 -0.3253  0.1495
20867SOL    HW166963   1.981   8.769   9.190  0.2062 -1.1996 -1.4920
20867SOL    HW266964   1.965   8.829   9.052 -0.1772  1.8489 -0.2047
20868SOL     OW66965   0.372   9.333   3.214  0.3022 -0.6345  0.0748
20868SOL    HW166966   0.425   9.380   3.278 -1.2977  0.7030  0.5016
20868SOL    HW266967   0.326   9.402   3.165 -0.8919 -1.6974 -0.3676
20869SOL     OW66968   5.296   9.213   6.068  0.2779 -0.4000  0.2017
20869SOL    HW166969   5.242   9.288   6.042  0.0819  0.1292  1.9955
20869SOL    HW266970   5.258   9.139   6.020 -0.4717  0.3888 -0.4598
20870SOL     OW66971   9.604   7.851   8.823 -0.4007  0.0466  0.5684
20870SOL    HW166972   9.673   7.790   8.849  1.3134  1.5029 -0.3111
20870SOL    HW266973   9.622   7.870   8.731 -1.1613  1.5074  0.6923
20871SOL     OW66974   4.401   6.843   7.783 -0.0049 -1.2153 -0.0688
20871SOL    HW166975   4.398   6.874   7.873  0.5273 -1.3907  0.0149
20871SOL    HW266976   4.310   6.844   7.753 -0.2126 -1.4193  0.5556
20872SOL     OW66977   2.263  10.677  10.774  0.0457 -0.1392  0.6611
20872SOL    HW166978   2.255  10.583  10.756  0.6131 -0.1328  0.3572
20872SOL    HW266979   2.328  10.682  10.844  1.8619  0.1508 -0.9496
20873SOL     OW66980   5.768   3.440   9.066  0.4420  0.6023 -0.4450
20873SOL    HW166981   5.712   3.363   9.053 -0.4537  1.1361  0.1374
20873SOL    HW266982   5.707   3.511   9.084  1.3470  0.8343  2.1897
20874SOL     OW66983   3.402   7.807  10.076  0.2354  0.0467 -0.2499
20874SOL    HW166984   3.498   7.810  10.082  0.4622 -1.5565 -2.1946
20874SOL    HW266985   3.375   7.899  10.081  1.9865  0.6636 -1.2062
20875SOL     OW66986   8.170   4.626   9.577 -0.4289  0.1673 -0.0536
20875SOL    HW166987   8.075   4.621   9.577 -0.4170 -0.5474 -1.3706
20875SOL    HW266988   8.189   4.720   9.581 -1.1616  0.2980  0.7070
20876SOL     OW66989   5.400   3.185   3.224 -0.3914  0.0539 -0.7787
20876SOL    HW166990   5.478   3.213   3.271 -0.6505  2.5336 -1.6954
20876SOL    HW266991   5.432   3.158   3.138 -0.5157  1.0937 -1.1630
20877SOL     OW66992   0.949   1.379  10.229 -0.3322 -0.1489  0.2221
20877SOL    HW166993   0.997   1.461  10.214 -1.0377  0.0149 -1.2716
20877SOL    HW266994   0.990   1.317  10.169 -1.9664  0.0101 -1.1233
20878SOL     OW66995   7.046   2.267   8.012  0.2704 -0.7338  0.1475
20878SOL    HW166996   7.090   2.352   8.021  1.5179 -1.4492  1.1612
20878SOL    HW266997   7.109   2.204   8.046 -1.2294 -1.9002  0.8789
20879SOL     OW66998   2.991   0.163   3.881  0.0076  0.3334 -0.2271
20879SOL    HW166999   3.055   0.200   3.943  1.4900  0.4568 -1.7626
20879SOL    HW267000   3.006   0.069   3.886  0.0580  0.3363 -0.3351
20880SOL     OW67001   1.565   6.484   2.422  0.0745 -0.3611  0.5149
20880SOL    HW167002   1.511   6.555   2.388  0.5065  0.2493  1.0922
20880SOL    HW267003   1.635   6.474   2.357  0.2592  0.0347  0.6510
20881SOL     OW67004   2.142   6.594   1.354  0.1984  0.2774  0.3756
20881SOL    HW167005   2.111   6.673   1.398  1.3984 -0.0537  1.8855
20881SOL    HW267006   2.122   6.522   1.414  0.1097 -0.4496 -0.4909
20882SOL     OW67007   8.500  10.753   5.160  0.5735  0.1195  0.0700
20882SOL    HW167008   8.592  10.746   5.134  0.4960  0.1469 -0.2209
20882SOL    HW267009   8.451  10.749   5.077  0.2180 -1.5674  0.3177
20883SOL     OW67010   9.336   9.140   6.702  0.2139 -0.3639  0.1729
20883SOL    HW167011   9.361   9.221   6.747 -0.0469  0.0285 -0.3858
20883SOL    HW267012   9.407   9.124   6.640 -0.2340 -0.0091 -0.4337
20884SOL     OW67013   7.579   8.816   8.584  0.0257  0.0447  0.0531
20884SOL    HW167014   7.634   8.879   8.537 -0.8866  0.0177 -1.1294
20884SOL    HW267015   7.574   8.850   8.673 -0.0010  1.3704 -0.4231
20885SOL     OW67016   2.776   6.625  10.051 -0.1681 -0.2945 -0.1838
20885SOL    HW167017   2.747   6.630   9.960 -0.1522  0.9142 -0.1396
20885SOL    HW267018   2.860   6.580  10.048  0.8402  1.5597 -1.0298
20886SOL     OW67019   3.791   2.853   5.168 -0.3415 -0.4434 -0.4321
20886SOL    HW167020   3.777   2.852   5.263  1.5355 -0.5986 -0.1159
20886SOL    HW267021   3.809   2.762   5.146 -0.8111 -0.4133 -0.9617
20887SOL     OW67022   7.514   6.199   7.495 -0.0739 -0.2078 -0.0819
20887SOL    HW167023   7.506   6.191   7.590 -0.5865  0.0122 -0.1021
20887SOL    HW267024   7.551   6.287   7.481 -1.2589  0.3041 -0.1270
20888SOL     OW67025   8.271   9.677   1.547 -0.1220 -0.1492  0.2792
20888SOL    HW167026   8.351   9.696   1.596 -0.9512 -0.4700  1.8345
20888SOL    HW267027   8.278   9.730   1.468  2.7640 -2.0261 -0.8645
20889SOL     OW67028   3.447   8.805   8.886  0.2040 -0.3008 -0.7253
20889SOL    HW167029   3.430   8.733   8.946 -1.0847 -0.6807 -1.5179
20889SOL    HW267030   3.482   8.875   8.942  1.6950 -1.5782  0.0187
20890SOL     OW67031   1.442   5.471   7.219 -0.1968 -0.0893 -0.2365
20890SOL    HW167032   1.493   5.416   7.159 -1.0707 -0.8536 -0.3044
20890SOL    HW267033   1.373   5.413   7.251  0.6027  0.0898  2.0276
20891SOL     OW67034   4.835   0.385   4.439 -0.5251 -0.4727  0.0469
20891SOL    HW167035   4.902   0.318   4.429 -1.4832 -1.4105 -0.3163
20891SOL    HW267036   4.883   0.468   4.440  0.4941 -0.9792 -2.0529
20892SOL     OW67037   8.394   4.396   7.663  0.0120 -0.5245 -0.3221
20892SOL    HW167038   8.484   4.428   7.658 -1.0674  3.2056  1.1658
20892SOL    HW267039   8.371   4.401   7.755 -1.9445 -0.7608 -0.7397
20893SOL     OW67040   0.900   0.713   1.888  0.2568 -0.8824 -0.2140
20893SOL    HW167041   0.939   0.735   1.803 -0.9190 -1.4573 -0.9282
20893SOL    HW267042   0.939   0.628   1.911  1.8079  0.0199  0.6375
20894SOL     OW67043   0.558  10.154   6.719  0.5906  0.5355  0.2639
20894SOL    HW167044   0.571  10.219   6.650  0.4449 -0.8893 -1.1846
20894SOL    HW267045   0.549  10.205   6.799 -1.3435  2.4172 -1.0304
20895SOL     OW67046   0.223   0.445   5.298  0.0285 -0.6974  0.1593
20895SOL    HW167047   0.184   0.509   5.358 -0.0816 -1.1576  0.5784
20895SOL    HW267048   0.264   0.499   5.230  0.8250 -0.1323  1.0480
20896SOL     OW67049   5.004   7.053   2.682 -0.3483  0.3768  0.5479
20896SOL    HW167050   5.010   7.139   2.723  1.6472  0.8267 -0.5552
20896SOL    HW267051   4.932   7.061   2.619 -0.8389  0.9164  1.1737
20897SOL     OW67052   2.113   8.196   9.184  0.1004 -0.0537 -0.6787
20897SOL    HW167053   2.124   8.256   9.110  1.1127 -0.3597 -0.7895
20897SOL    HW267054   2.198   8.153   9.193 -0.8512 -2.1969 -1.2217
20898SOL     OW67055   4.907   0.477   6.380  0.3227 -0.1801  0.0867
20898SOL    HW167056   4.865   0.455   6.297  0.7587 -2.4542  0.4004
20898SOL    HW267057   4.844   0.449   6.447  0.0237  1.5221  0.5771
20899SOL     OW67058   9.931  10.871   9.479 -0.2316 -0.2442 -0.2319
20899SOL    HW167059  10.000  10.874   9.413 -0.9377  1.3925 -0.9609
20899SOL    HW267060   9.860  10.924   9.442 -2.0863 -2.2240  0.2759
20900SOL     OW67061   5.104   6.116   9.442  0.0199 -0.1788  0.4487
20900SOL    HW167062   5.129   6.025   9.428  2.1006  0.3446  0.3544
20900SOL    HW267063   5.109   6.128   9.537 -0.5665 -0.2243  0.4911
20901SOL     OW67064   1.192   7.757   0.582 -0.3154  0.5131 -0.0989
20901SOL    HW167065   1.127   7.815   0.542  0.3458  1.4075  0.0781
20901SOL    HW267066   1.263   7.816   0.609  1.2542 -0.5747 -1.6103
20902SOL     OW67067   7.223   3.426   3.713 -0.4031 -0.0266  0.0379
20902SOL    HW167068   7.219   3.330   3.708 -0.1920 -0.0591  0.4443
20902SOL    HW267069   7.132   3.454   3.706 -0.2629 -0.0656 -3.4263
20903SOL     OW67070   9.994   6.884   7.041 -0.3744  0.0058  0.2768
20903SOL    HW167071   9.999   6.858   6.949  1.2368 -1.1326  0.6599
20903SOL    HW267072   9.900   6.893   7.057 -0.7397 -0.7123 -1.2249
20904SOL     OW67073   0.936   9.256  10.022  0.0306  0.3694  0.1001
20904SOL    HW167074   0.967   9.344  10.004 -2.7187  1.8492  1.8611
20904SOL    HW267075   0.939   9.248  10.117 -1.2657 -0.7871  0.0806
20905SOL     OW67076   3.438   2.747   4.222  0.0215  0.4850  0.5681
20905SOL    HW167077   3.417   2.654   4.236 -0.3732  0.2967 -1.0827
20905SOL    HW267078   3.404   2.791   4.300  1.3885 -0.8944  2.0068
20906SOL     OW67079   2.941   2.618   4.619 -0.0028  0.2580 -0.1018
20906SOL    HW167080   2.984   2.686   4.568 -1.7159  0.6513 -1.1255
20906SOL    HW267081   2.886   2.666   4.681  0.0754 -0.2049  0.3293
20907SOL     OW67082   2.911   5.036   0.941  0.3864 -0.0534 -0.8459
20907SOL    HW167083   2.995   5.035   0.988 -0.0360 -0.1409 -0.0884
20907SOL    HW267084   2.908   4.952   0.895  0.8174  0.0468 -1.0640
20908SOL     OW67085  10.737   2.498  10.020 -0.0916 -0.1958 -0.1896
20908SOL    HW167086  10.721   2.592  10.029  1.2553  0.1824 -1.3763
20908SOL    HW267087  10.658   2.457  10.055 -1.3887  1.4203 -1.0765
20909SOL     OW67088   7.701   6.803   1.129 -0.4285 -0.0654  0.1759
20909SOL    HW167089   7.655   6.730   1.171 -2.8870  0.9520 -0.5498
20909SOL    HW267090   7.751   6.762   1.059 -0.8856 -1.1843  0.4665
20910SOL     OW67091  10.815   7.295   1.672 -0.3989 -0.0564 -0.8584
20910SOL    HW167092  10.894   7.349   1.674 -1.0602  0.9337 -0.3991
20910SOL    HW267093  10.753   7.342   1.728 -1.5794 -0.3735 -1.8543
20911SOL     OW67094   4.188   9.232  11.021 -0.0696 -0.0521  1.0745
20911SOL    HW167095   4.202   9.142  10.990  2.1832  0.1796  1.2474
20911SOL    HW267096   4.166   9.222  11.114 -0.6160 -0.4492  0.9069
20912SOL     OW67097   8.254   2.789   7.365  0.2682  0.4855  0.2235
20912SOL    HW167098   8.201   2.762   7.290 -0.0929  1.4654  0.1066
20912SOL    HW267099   8.195   2.782   7.440  0.1368  1.0332  0.1759
20913SOL     OW67100  10.310   7.007  10.536  0.3686  0.0972  0.5118
20913SOL    HW167101  10.307   7.100  10.558  0.1085  0.0989  0.4767
20913SOL    HW267102  10.276   7.003  10.446 -0.9812 -0.1880  1.0137
20914SOL     OW67103   4.208   1.921   6.459  0.2106  0.3574  0.0733
20914SOL    HW167104   4.295   1.880   6.467  0.0384  0.3304  2.7786
20914SOL    HW267105   4.227   2.009   6.427  1.0241 -0.3137 -1.3710
20915SOL     OW67106   2.448   9.425   0.348  0.5832  0.3581 -0.0458
20915SOL    HW167107   2.372   9.459   0.301  1.1441 -0.0813 -1.3008
20915SOL    HW267108   2.523   9.472   0.313  1.1243 -0.6437 -0.2906
20916SOL     OW67109   0.575   9.441   8.457 -0.3648  0.4189  0.2502
20916SOL    HW167110   0.658   9.403   8.486 -0.1091 -0.1113 -1.0698
20916SOL    HW267111   0.598   9.488   8.376 -0.9210  2.3399  1.1505
20917SOL     OW67112   7.230   6.417   1.746  0.5345  0.3471  0.0905
20917SOL    HW167113   7.273   6.423   1.661 -0.7551 -2.5173 -0.8884
20917SOL    HW267114   7.136   6.416   1.725  0.0511  1.9957  1.8025
20918SOL     OW67115   0.622   1.763   4.954  0.1073  0.2395 -0.0880
20918SOL    HW167116   0.688   1.812   4.905  1.8309 -0.0618  1.7644
20918SOL    HW267117   0.608   1.683   4.904  2.2871 -0.3583  0.1801
20919SOL     OW67118   8.840   7.796   2.463  0.4533  0.5860 -0.4189
20919SOL    HW167119   8.875   7.709   2.446 -1.4791 -0.5314  0.9585
20919SOL    HW267120   8.792   7.819   2.384  0.9598  0.4171 -0.7817
20920SOL     OW67121   6.290   3.306   9.363  0.5144  0.0336  0.2456
20920SOL    HW167122   6.252   3.308   9.275 -0.5455 -0.8771  0.6527
20920SOL    HW267123   6.214   3.309   9.422  1.1183 -0.7621  1.0981
20921SOL     OW67124   9.657   6.391  10.457 -0.0525 -0.4429 -0.1419
20921SOL    HW167125   9.574   6.383  10.504 -0.7224  1.0151 -1.0344
20921SOL    HW267126   9.659   6.314  10.399 -0.5630 -0.7164  0.1896
20922SOL     OW67127  10.010   2.468   2.192  0.1430 -0.3986  0.3112
20922SOL    HW167128  10.018   2.374   2.175  0.4565 -0.4678  0.8122
20922SOL    HW267129  10.082   2.487   2.252  0.6447  0.3523 -0.5287
20923SOL     OW67130   2.570   5.423   1.546 -0.2845  0.0033 -0.8647
20923SOL    HW167131   2.589   5.485   1.617 -0.7488 -1.6318  0.7438
20923SOL    HW267132   2.476   5.434   1.530 -0.4625 -0.5919 -0.2577
20924SOL     OW67133   3.839   8.605   9.117 -0.6753 -0.2308  0.4987
20924SOL    HW167134   3.812   8.525   9.072  0.2424 -0.0138 -0.4913
20924SOL    HW267135   3.928   8.587   9.147  0.1545  0.9203 -1.1144
20925SOL     OW67136   9.411   8.464   0.169 -0.3744 -0.1067 -0.2003
20925SOL    HW167137   9.353   8.430   0.100  0.2697 -1.2595 -0.2006
20925SOL    HW267138   9.359   8.530   0.214 -0.9345  0.4083 -1.5626
20926SOL     OW67139  10.917   1.519   1.951 -0.1193  0.2371  0.0432
20926SOL    HW167140  11.004   1.536   1.988 -2.0152  1.9585  4.3557
20926SOL    HW267141  10.902   1.592   1.891  1.4559 -0.2658 -1.0292
20927SOL     OW67142  10.042   7.989   3.186 -0.2752  0.3321  0.3006
20927SOL    HW167143  10.079   7.901   3.176 -1.4673 -0.2293  0.7236
20927SOL    HW267144   9.996   7.986   3.270 -1.3550  0.9875 -0.2506
20928SOL     OW67145   7.258   4.395   3.647 -0.1647 -0.1118 -0.9129
20928SOL    HW167146   7.221   4.429   3.565 -0.4312  1.9547  0.0130
20928SOL    HW267147   7.271   4.301   3.630  0.4029  0.3542 -3.5407
20929SOL     OW67148   8.964   3.845   8.408  0.1851 -0.7135 -0.1345
20929SOL    HW167149   8.940   3.808   8.323  0.9844 -1.8799  0.1141
20929SOL    HW267150   8.903   3.917   8.421 -1.8728 -2.2982 -0.3994
20930SOL     OW67151   0.798   0.871   9.563  0.7562 -0.5806 -0.1586
20930SOL    HW167152   0.759   0.958   9.559  1.4460 -0.0918  2.0845
20930SOL    HW267153   0.727   0.814   9.591  0.9564 -0.1678  1.2836
20931SOL     OW67154   0.147   0.520   1.322  0.1667  0.2851 -0.4880
20931SOL    HW167155   0.066   0.470   1.317 -0.0590  0.6442 -0.4944
20931SOL    HW267156   0.216   0.454   1.329 -0.1794 -0.0147  0.2865
20932SOL     OW67157   6.473   2.599   2.873 -0.3981  0.4585  0.0673
20932SOL    HW167158   6.437   2.511   2.886  0.2543 -0.0891 -1.6579
20932SOL    HW267159   6.396   2.656   2.874 -1.3234 -0.5963 -2.6421
20933SOL     OW67160   9.410   4.889   4.341 -0.2094 -0.5194  0.6673
20933SOL    HW167161   9.385   4.981   4.342  0.5038 -0.2596 -1.5298
20933SOL    HW267162   9.469   4.880   4.416  0.6116  1.0762  0.2520
20934SOL     OW67163   0.444   9.291   4.042  0.4153 -0.0843 -0.0217
20934SOL    HW167164   0.491   9.208   4.057  1.5501  0.3591 -0.9410
20934SOL    HW267165   0.502   9.358   4.079  0.4807  0.4708 -1.0950
20935SOL     OW67166   8.967   0.426   0.398  0.5359  0.3441 -0.4173
20935SOL    HW167167   8.945   0.337   0.426 -1.4038  1.1481  0.9168
20935SOL    HW267168   9.032   0.455   0.462  0.7662  0.0713 -0.5250
20936SOL     OW67169   7.648   1.492   4.864  0.5598 -0.0002 -0.1012
20936SOL    HW167170   7.594   1.435   4.810  0.4449 -1.2442  1.2786
20936SOL    HW267171   7.703   1.539   4.801 -0.9479  0.0869 -1.4179
20937SOL     OW67172   5.102   1.859   4.617 -0.6925  0.2708 -0.0599
20937SOL    HW167173   5.106   1.912   4.697 -1.3700 -0.0154  0.1747
20937SOL    HW267174   5.122   1.921   4.547  2.2465  0.0376  0.4696
20938SOL     OW67175   1.171   7.309   7.253 -0.1925 -0.5334  0.2930
20938SOL    HW167176   1.084   7.297   7.214  0.2157 -2.6650 -0.0847
20938SOL    HW267177   1.215   7.372   7.195 -1.2955  0.1814  0.2033
20939SOL     OW67178   8.484   1.935   0.467 -0.0186  0.0590  0.0660
20939SOL    HW167179   8.515   1.961   0.553 -0.2728 -1.2614  0.5812
20939SOL    HW267180   8.523   1.998   0.407  0.7116  0.5908  1.0759
20940SOL     OW67181   7.462   1.712   7.610 -0.7588  0.0020 -0.4174
20940SOL    HW167182   7.369   1.696   7.594 -0.4649 -0.5127 -1.6374
20940SOL    HW267183   7.502   1.716   7.523  0.1948  1.2843  0.0452
20941SOL     OW67184   4.105   2.150  10.864 -0.2394  0.6182 -0.0286
20941SOL    HW167185   4.066   2.164  10.778  0.2664 -3.0130 -1.0170
20941SOL    HW267186   4.174   2.084  10.849 -0.2579 -0.2998  3.1456
20942SOL     OW67187   4.225   9.751   9.093  0.1270  0.6302 -0.5728
20942SOL    HW167188   4.169   9.763   9.170  0.8491  1.2462 -0.1365
20942SOL    HW267189   4.305   9.711   9.128 -0.9498 -2.7227 -1.5114
20943SOL     OW67190   8.055   1.732  10.424  0.5988  0.1732  0.1355
20943SOL    HW167191   8.054   1.680  10.343  0.7607  1.3844 -0.6697
20943SOL    HW267192   7.975   1.784  10.420  0.2625 -0.2586  1.1009
20944SOL     OW67193  10.957   3.176   5.660  0.2135  0.1489 -0.1315
20944SOL    HW167194  10.880   3.152   5.609  0.3494  0.0611 -0.2994
20944SOL    HW267195  10.923   3.222   5.736 -0.1073 -1.3172  0.6461
20945SOL     OW67196   2.357   8.442   3.934 -0.2636  0.4604  0.3948
20945SOL    HW167197   2.398   8.526   3.915  0.9667 -0.1223  0.3847
20945SOL    HW267198   2.352   8.440   4.030 -2.1475  1.3722  0.3706
20946SOL     OW67199   6.310   5.554   0.597 -0.0517  0.1252  0.4500
20946SOL    HW167200   6.395   5.592   0.617 -0.8711  1.3112  1.8247
20946SOL    HW267201   6.328   5.489   0.528  1.8044  0.9656  0.1010
20947SOL     OW67202   6.931   2.104   5.453 -0.3131 -0.0021 -0.2171
20947SOL    HW167203   6.847   2.067   5.482 -1.4497  2.3806 -0.1917
20947SOL    HW267204   6.927   2.102   5.358 -0.8980  1.0010 -0.2376
20948SOL     OW67205   0.409   9.858   2.850  0.1766  0.5975 -0.1966
20948SOL    HW167206   0.407   9.818   2.937  1.9319  0.2817 -0.2616
20948SOL    HW267207   0.480   9.922   2.855  1.4519 -0.5857 -1.8330
20949SOL     OW67208   1.257   5.249   0.449 -0.1770  0.1807  0.5909
20949SOL    HW167209   1.238   5.174   0.505  1.9017  0.6467  2.0193
20949SOL    HW267210   1.329   5.220   0.394 -0.3454  0.6667  0.0977
20950SOL     OW67211   6.992   2.974   1.656 -0.2740 -0.3851  0.2201
20950SOL    HW167212   6.919   2.917   1.633 -0.2223 -0.3514 -0.0320
20950SOL    HW267213   7.070   2.924   1.630 -0.2633  0.4346 -1.5059
20951SOL     OW67214   1.356   0.175   1.786  0.2768  0.2268  0.0657
20951SOL    HW167215   1.331   0.188   1.877  0.5436  0.2919  0.1296
20951SOL    HW267216   1.318   0.090   1.762  0.2964  0.1612  0.2686
20952SOL     OW67217   0.088   5.506   5.753  0.3613  0.0675 -0.3306
20952SOL    HW167218   0.074   5.455   5.673  1.0256 -0.2835 -0.2330
20952SOL    HW267219   0.087   5.597   5.723 -0.7259  0.0052 -0.5195
20953SOL     OW67220   5.532   4.312   4.347  0.1256  0.4605  0.5766
20953SOL    HW167221   5.554   4.361   4.426 -1.6315  0.2240  1.2564
20953SOL    HW267222   5.504   4.226   4.378  0.9488 -0.1897 -0.4357
20954SOL     OW67223   1.541   9.842   6.692 -0.1873  0.4284 -0.0967
20954SOL    HW167224   1.501   9.788   6.760 -0.2909  1.0976  0.3892
20954SOL    HW267225   1.477   9.843   6.621 -0.4093  0.3312  0.1010
20955SOL     OW67226   3.736   4.819   6.877  0.3513  0.4049 -0.0431
20955SOL    HW167227   3.777   4.895   6.919 -0.2037  1.1989 -0.9124
20955SOL    HW267228   3.735   4.841   6.784  1.5047 -1.3007 -0.5041
20956SOL     OW67229   5.741   8.088   1.915  0.0884 -0.5460  0.0708
20956SOL    HW167230   5.788   8.127   1.841  0.2519  0.0347  0.4716
20956SOL    HW267231   5.810   8.068   1.978 -0.0947 -0.6399  0.2408
20957SOL     OW67232   2.482   3.360   5.660  0.6622  0.0509 -0.1361
20957SOL    HW167233   2.562   3.379   5.611  0.0070 -0.8155 -1.6318
20957SOL    HW267234   2.454   3.444   5.695  1.7891  0.4990 -0.2783
20958SOL     OW67235   0.991   3.863  10.299 -0.4489  0.2770  0.1629
20958SOL    HW167236   1.085   3.878  10.315 -0.1062 -0.5984 -0.8910
20958SOL    HW267237   0.950   3.948  10.313  0.7812  1.1577 -1.2637
20959SOL     OW67238   7.276   5.905   9.929 -0.0455  0.1777  0.7603
20959SOL    HW167239   7.364   5.942   9.939 -0.7015  1.7899  0.8820
20959SOL    HW267240   7.261   5.855  10.009  1.4746 -1.7659 -0.0914
20960SOL     OW67241   8.372   4.524   5.597 -0.3630 -0.1162  0.2981
20960SOL    HW167242   8.453   4.475   5.606 -1.0743 -1.3759  0.0374
20960SOL    HW267243   8.346   4.512   5.505 -1.4263 -0.6884  0.6587
20961SOL     OW67244   1.825   4.636   1.661  0.0328  0.3608 -0.1663
20961SOL    HW167245   1.817   4.673   1.749 -1.0728 -1.6387  0.6311
20961SOL    HW267246   1.875   4.556   1.674  1.2754  0.8475 -1.6483
20962SOL     OW67247   2.059  11.000   5.122  0.1469  0.4579  0.2064
20962SOL    HW167248   2.005  10.921   5.116  0.9798 -0.0243 -1.5472
20962SOL    HW267249   2.130  10.985   5.060  0.8085  2.2245  0.4955
20963SOL     OW67250   0.863   3.159   6.733  0.0306 -0.7174  0.1538
20963SOL    HW167251   0.887   3.091   6.796 -0.2385 -0.4166  0.5912
20963SOL    HW267252   0.945   3.179   6.687  0.0862 -1.4013 -0.0470
20964SOL     OW67253  10.963   7.962   8.365  0.0523  0.2629 -0.2985
20964SOL    HW167254  11.053   7.992   8.353 -0.1976  1.9337  1.5238
20964SOL    HW267255  10.944   7.912   8.286  2.1943  0.8100 -1.2394
20965SOL     OW67256   5.944   9.930   3.464 -0.3645  0.2723 -0.0604
20965SOL    HW167257   5.921  10.021   3.441  1.8938  0.9886  0.3128
20965SOL    HW267258   5.972   9.891   3.381 -1.1455 -0.0481 -0.1834
20966SOL     OW67259   8.249   4.641   0.690  0.3151 -0.5764  0.4161
20966SOL    HW167260   8.188   4.649   0.763 -0.0725 -0.5611  0.0962
20966SOL    HW267261   8.198   4.598   0.621  0.3892  0.2511 -0.1723
20967SOL     OW67262   3.379   5.499   0.286 -0.2054 -0.3088 -0.1901
20967SOL    HW167263   3.332   5.507   0.204 -0.5332  0.1017  0.0388
20967SOL    HW267264   3.449   5.436   0.267  0.4780  0.7084 -1.1240
20968SOL     OW67265   2.936   2.532   4.291  0.3824  0.3895 -0.2049
20968SOL    HW167266   2.950   2.469   4.362 -2.1289  0.8955  0.8152
20968SOL    HW267267   2.844   2.521   4.267  0.3572  2.4454 -1.2052
20969SOL     OW67268   5.252   8.261   9.960 -0.0415  0.4518 -0.5082
20969SOL    HW167269   5.333   8.282   9.914 -0.2392  1.4114 -0.4470
20969SOL    HW267270   5.189   8.242   9.890 -0.4618  2.3388 -0.7163
20970SOL     OW67271   6.175   4.183   0.558  0.0786 -0.0144 -0.0993
20970SOL    HW167272   6.206   4.269   0.589 -0.3457 -0.2060  0.9073
20970SOL    HW267273   6.254   4.129   0.556  0.3706  0.4209 -0.8500
20971SOL     OW67274   4.259   7.452   1.692  0.0066 -0.5595 -0.0125
20971SOL    HW167275   4.261   7.523   1.756  1.2198 -1.3177  0.8294
20971SOL    HW267276   4.326   7.476   1.628 -0.8022 -0.0929 -0.7043
20972SOL     OW67277   1.148   3.951  10.553 -0.5051  0.0388 -0.4724
20972SOL    HW167278   1.176   4.038  10.580  1.3045 -0.9861  1.2992
20972SOL    HW267279   1.216   3.922  10.492 -0.9735 -0.2203 -0.8772
20973SOL     OW67280  10.274  11.099   5.146  0.2543  0.0005  0.0619
20973SOL    HW167281  10.339  11.169   5.134  0.1924  0.3641  1.6969
20973SOL    HW267282  10.189  11.143   5.139  0.1802 -0.2648 -0.8418
20974SOL     OW67283   8.838   5.329   1.381  0.1238 -0.0258  0.0430
20974SOL    HW167284   8.856   5.238   1.358 -0.6067 -0.1428 -0.1084
20974SOL    HW267285   8.754   5.325   1.428  0.0721  0.5706  0.0055
20975SOL     OW67286   4.384   6.301   5.845 -0.3695  1.1286 -0.3771
20975SOL    HW167287   4.302   6.286   5.891  0.3396  0.9048  0.8653
20975SOL    HW267288   4.358   6.326   5.757 -1.7600  0.8372 -0.0722
20976SOL     OW67289   2.515  10.853   1.835  0.2205  0.0557 -0.2148
20976SOL    HW167290   2.604  10.818   1.847  1.1214  1.4373 -2.2936
20976SOL    HW267291   2.464  10.814   1.907  1.3427 -4.5494 -1.5514
20977SOL     OW67292   8.402   7.486   6.147  0.3212 -0.0248 -0.6234
20977SOL    HW167293   8.413   7.523   6.059 -1.2520 -0.6602 -1.1328
20977SOL    HW267294   8.382   7.394   6.131  0.1622 -0.1759  0.4152
20978SOL     OW67295   3.231   8.675   7.316 -0.1602 -0.3066 -0.0423
20978SOL    HW167296   3.176   8.725   7.256  1.2887 -2.0034 -2.9728
20978SOL    HW267297   3.207   8.584   7.301  2.2384 -0.9759 -0.2106
20979SOL     OW67298   8.628   6.404   8.042  0.2198 -0.3759  0.1004
20979SOL    HW167299   8.658   6.314   8.053 -1.5592 -0.8686  1.3980
20979SOL    HW267300   8.532   6.399   8.048  0.0799  1.6150  0.4038
20980SOL     OW67301   8.435   8.044   1.616  0.7227 -0.5929  0.3326
20980SOL    HW167302   8.501   7.979   1.641 -0.3150 -2.0072 -0.4581
20980SOL    HW267303   8.357   7.993   1.597 -0.8761  1.0936  1.9593
20981SOL     OW67304   5.125   0.370   2.702 -0.0060  0.6662  0.2896
20981SOL    HW167305   5.178   0.341   2.776 -0.8260  0.6680  0.8891
20981SOL    HW267306   5.036   0.379   2.738 -0.7694 -0.9246 -1.0502
20982SOL     OW67307  10.626   3.556   3.633  0.2031  0.0631  0.0604
20982SOL    HW167308  10.713   3.593   3.620  0.4710 -0.4122  0.4687
20982SOL    HW267309  10.637   3.493   3.704 -0.0945 -1.2333 -0.9996
20983SOL     OW67310   9.715   2.035   8.630  0.2697 -0.4696 -0.3796
20983SOL    HW167311   9.802   1.995   8.638 -0.3458 -1.5386  1.2742
20983SOL    HW267312   9.672   1.985   8.561  1.0821  0.3571 -1.5335
20984SOL     OW67313   5.228   7.443   6.215 -0.3648  0.4260 -0.1368
20984SOL    HW167314   5.134   7.440   6.230 -0.3438 -1.7976 -0.0958
20984SOL    HW267315   5.262   7.502   6.282 -1.6880  1.1602 -0.0827
20985SOL     OW67316   7.989   9.532   6.869  0.3489  0.8268 -0.0899
20985SOL    HW167317   8.071   9.494   6.838 -0.0621  0.5337 -0.8369
20985SOL    HW267318   7.925   9.461   6.861 -0.0006  1.0865  0.3807
20986SOL     OW67319   3.487   4.049   8.162  0.4907 -0.6406  0.5012
20986SOL    HW167320   3.498   3.980   8.228 -1.0001 -1.7000 -0.2840
20986SOL    HW267321   3.403   4.090   8.185  0.5561 -0.2102 -0.0186
20987SOL     OW67322   0.592   0.681   6.717 -0.3956 -0.1274  0.1866
20987SOL    HW167323   0.671   0.735   6.716  0.1899 -0.8562  2.0456
20987SOL    HW267324   0.520   0.743   6.731  0.2391  0.2701  2.0400
20988SOL     OW67325  10.679   6.803   5.284 -0.3414 -0.0757  0.1618
20988SOL    HW167326  10.636   6.729   5.326 -0.6173  0.0143  0.0424
20988SOL    HW267327  10.646   6.880   5.331 -1.9881  0.1762 -1.2852
20989SOL     OW67328   2.529   9.602   0.713  0.0445 -0.0413  0.0717
20989SOL    HW167329   2.493   9.513   0.716  1.1503 -0.4747  1.8565
20989SOL    HW267330   2.618   9.591   0.679  1.4653 -0.1862  3.4531
20990SOL     OW67331   4.607   9.024   2.862  0.6740 -0.6151 -0.1856
20990SOL    HW167332   4.540   9.089   2.843  2.7506  1.5285 -0.6614
20990SOL    HW267333   4.566   8.965   2.925 -1.1693  1.4474  0.6825
20991SOL     OW67334   4.975  10.837   0.698 -0.2221  0.4236 -0.0291
20991SOL    HW167335   4.985  10.841   0.793  0.2319 -0.9744  0.0114
20991SOL    HW267336   4.884  10.811   0.684  0.2075 -1.3227  0.1270
20992SOL     OW67337   4.750   9.445   3.770  0.3020 -0.2596  0.0444
20992SOL    HW167338   4.734   9.508   3.840 -0.0418 -2.2986  1.9138
20992SOL    HW267339   4.666   9.403   3.755  0.7087 -0.8994 -0.5198
20993SOL     OW67340   7.546   3.036   2.876 -0.3452  0.0708  0.2618
20993SOL    HW167341   7.602   3.101   2.833 -0.6305  0.4033  0.3843
20993SOL    HW267342   7.586   2.952   2.854 -1.8167  0.0065 -2.7332
20994SOL     OW67343   3.397   8.889   0.438 -0.2850  0.3864 -0.3640
20994SOL    HW167344   3.476   8.943   0.445  0.3266 -0.7003  1.7148
20994SOL    HW267345   3.393   8.866   0.345  1.4287  1.0519 -0.6534
20995SOL     OW67346   0.201   0.281   3.525  0.7949  0.1476  0.8065
20995SOL    HW167347   0.161   0.366   3.545  0.5676  0.4845 -0.9685
20995SOL    HW267348   0.277   0.301   3.471  0.8288 -0.7609  0.4945
20996SOL     OW67349   8.547   4.810   8.514 -0.1228 -0.1571  0.2307
20996SOL    HW167350   8.462   4.848   8.536  0.0629  0.1293  0.4584
20996SOL    HW267351   8.559   4.739   8.577  0.9354  1.3972  1.8744
20997SOL     OW67352   3.990   7.142   0.785 -0.2749 -0.2564 -0.0892
20997SOL    HW167353   4.050   7.181   0.849 -1.1818  1.5761 -0.2785
20997SOL    HW267354   3.910   7.125   0.835 -0.2132 -1.0014 -0.2346
20998SOL     OW67355   6.671   0.779   7.479  0.0770  0.2743 -0.8791
20998SOL    HW167356   6.706   0.690   7.467 -0.4423 -0.1028  0.2873
20998SOL    HW267357   6.632   0.801   7.394 -0.6459 -1.0027 -0.8961
20999SOL     OW67358   8.596   2.128   9.025 -0.0403  0.3240 -0.6815
20999SOL    HW167359   8.515   2.178   9.025  0.2389  0.7876 -0.9144
20999SOL    HW267360   8.568   2.037   9.017 -0.5342  0.4901 -0.9041
21000SOL     OW67361   2.085   0.566   7.698 -0.3343 -0.2955 -0.5121
21000SOL    HW167362   2.175   0.536   7.711  0.0893  0.0601 -2.3405
21000SOL    HW267363   2.079   0.584   7.604 -1.9163  0.9884 -0.2105
21001SOL     OW67364   9.538   6.772   8.184  0.1545 -0.3179 -0.3215
21001SOL    HW167365   9.522   6.865   8.167  0.9458 -0.2077 -0.4984
21001SOL    HW267366   9.631   6.767   8.206 -0.5898 -0.4983  3.5860
21002SOL     OW67367   3.057   9.871   0.947  0.7098  0.5339  0.3246
21002SOL    HW167368   3.060   9.966   0.942  0.2484  0.5955  1.0110
21002SOL    HW267369   3.081   9.851   1.038  0.3986  0.0232  0.2995
21003SOL     OW67370   6.219  10.772   8.467 -0.8087 -0.5585 -0.5342
21003SOL    HW167371   6.265  10.702   8.422  1.4078  0.5266 -0.0655
21003SOL    HW267372   6.267  10.784   8.549 -2.4181  0.1057  0.3648
21004SOL     OW67373   6.194   1.142   8.798  0.1625 -0.1036 -0.0032
21004SOL    HW167374   6.178   1.114   8.708 -2.1202 -0.9597  0.5946
21004SOL    HW267375   6.130   1.212   8.813  0.2901 -0.1958  1.0432
21005SOL     OW67376   6.565   9.892   4.960 -0.7620 -0.4902  0.1291
21005SOL    HW167377   6.580   9.831   4.888  0.5690  0.8229 -0.7843
21005SOL    HW267378   6.473   9.917   4.952 -0.2214  1.0329 -2.3533
21006SOL     OW67379   1.194  10.590   3.169  0.1531  0.2638  0.1851
21006SOL    HW167380   1.186  10.651   3.095 -0.0347 -1.6388 -1.4525
21006SOL    HW267381   1.160  10.507   3.135  0.7159 -0.8607  2.2115
21007SOL     OW67382   6.900   1.101   0.155  0.3538  0.6821  0.8993
21007SOL    HW167383   6.936   1.112   0.243 -0.1576  0.0566  1.2006
21007SOL    HW267384   6.882   1.007   0.149  0.0040  0.7848  0.2778
21008SOL     OW67385   5.913   0.807   8.085 -0.6240 -0.3002  0.2850
21008SOL    HW167386   5.998   0.801   8.040  0.4783 -2.2271  2.3847
21008SOL    HW267387   5.877   0.719   8.079 -1.9470  0.2055  0.4731
21009SOL     OW67388   6.454   4.740   7.955 -0.1303  0.1597  0.2895
21009SOL    HW167389   6.451   4.834   7.937 -1.8723  0.2496  0.8598
21009SOL    HW267390   6.365   4.718   7.982 -0.1318 -1.9276 -1.1728
21010SOL     OW67391   9.194   3.710   0.883 -0.1442 -0.0054 -0.5715
21010SOL    HW167392   9.161   3.776   0.945 -1.0321 -2.0652  1.2784
21010SOL    HW267393   9.115   3.673   0.844  0.1379 -1.7367  0.3874
21011SOL     OW67394   6.044   3.633  10.206 -0.1835  0.2824 -0.6863
21011SOL    HW167395   6.124   3.595  10.242  0.8912  0.1627 -3.0251
21011SOL    HW267396   5.978   3.565  10.217  0.9721 -1.1207 -2.0271
21012SOL     OW67397   0.338   4.927   4.715 -0.4705  0.1261  0.6461
21012SOL    HW167398   0.383   4.883   4.786  2.6735  1.9826 -0.0205
21012SOL    HW267399   0.267   4.976   4.758  0.2769 -0.1463  2.2539
21013SOL     OW67400   1.769   8.646   4.505 -0.5035 -0.6786  0.0327
21013SOL    HW167401   1.711   8.702   4.453 -0.3032  0.3189  0.8484
21013SOL    HW267402   1.761   8.560   4.465  2.0781  0.5683 -3.7945
21014SOL     OW67403   6.548   2.053   1.719  0.4621 -0.0501 -0.2798
21014SOL    HW167404   6.571   2.128   1.664 -0.0497  0.2219 -0.1334
21014SOL    HW267405   6.453   2.058   1.727  0.2773 -1.4751 -1.3342
21015SOL     OW67406  10.002   6.558   7.092  0.1768  0.5684 -0.3187
21015SOL    HW167407  10.014   6.478   7.040 -0.7293 -0.5469  1.1029
21015SOL    HW267408  10.040   6.536   7.177 -1.1765  1.2075  0.4725
21016SOL     OW67409   5.017   5.012  10.054  0.7331  0.0998 -0.3866
21016SOL    HW167410   5.022   5.056  10.139  0.6135  0.6162 -0.6436
21016SOL    HW267411   5.035   4.920  10.073 -2.1219 -0.3337  0.6149
21017SOL     OW67412  10.560   8.031  10.540 -0.0420  0.1182 -0.0052
21017SOL    HW167413  10.501   8.105  10.554  0.3154  0.5682 -0.7746
21017SOL    HW267414  10.606   8.021  10.624 -0.1197  0.7568  0.1218
21018SOL     OW67415   4.966  10.377   6.430 -0.1277 -0.4481 -0.2512
21018SOL    HW167416   4.932  10.443   6.369  0.4495  0.0704 -0.0112
21018SOL    HW267417   4.900  10.374   6.500  0.5621  0.9849  0.5145
21019SOL     OW67418   9.695   4.821   6.879  0.0991  0.8292 -0.3680
21019SOL    HW167419   9.666   4.739   6.920  2.2003  1.0529  1.8000
21019SOL    HW267420   9.755   4.793   6.809  1.8759  0.4247  1.2302
21020SOL     OW67421   1.605   6.178   8.151  0.6301  0.5113  0.0168
21020SOL    HW167422   1.542   6.249   8.164  1.0728  0.8796  0.1687
21020SOL    HW267423   1.690   6.223   8.140  0.9902 -0.0182  0.6179
21021SOL     OW67424   5.774   7.645   9.597  0.1194  0.1440 -0.2519
21021SOL    HW167425   5.829   7.573   9.566 -0.1303  0.2643 -1.0012
21021SOL    HW267426   5.691   7.603   9.621 -0.2329  0.2482 -1.2504
21022SOL     OW67427   7.810   0.562   4.735  0.7825 -0.3675  0.2570
21022SOL    HW167428   7.761   0.521   4.807 -2.2955  1.4219 -0.6348
21022SOL    HW267429   7.842   0.644   4.772 -1.1134  0.7288 -0.3822
21023SOL     OW67430   4.719   2.901   5.015 -0.5873  0.4290  0.4504
21023SOL    HW167431   4.718   2.811   5.049 -1.4571  0.0528 -0.5289
21023SOL    HW267432   4.633   2.936   5.038 -0.2934  0.9772  0.7240
21024SOL     OW67433   6.262   5.891   0.737  1.0674  0.2784  0.5703
21024SOL    HW167434   6.219   5.963   0.784  1.1391 -0.0484  1.1535
21024SOL    HW267435   6.241   5.813   0.789 -0.4966 -0.4232 -0.9924
21025SOL     OW67436  10.620   7.059   8.236 -0.2223 -0.3394 -0.2093
21025SOL    HW167437  10.664   7.095   8.158 -1.2597  0.3576 -0.4994
21025SOL    HW267438  10.577   6.979   8.204  2.0815 -1.9068  0.4349
21026SOL     OW67439   6.170   6.274   8.216  0.1692  0.5823  0.1183
21026SOL    HW167440   6.153   6.186   8.249  2.7529  0.3781  1.1405
21026SOL    HW267441   6.167   6.331   8.293  0.4287  1.0778 -0.2257
21027SOL     OW67442  10.450  11.025   4.815  0.1692  0.0635 -0.3632
21027SOL    HW167443  10.436  10.988   4.902  1.3358  2.7199  1.0719
21027SOL    HW267444  10.513  10.966   4.774 -1.1935 -1.8058  0.1306
21028SOL     OW67445   0.948   0.491   5.945 -0.3492  0.2589  0.2123
21028SOL    HW167446   1.026   0.505   5.998 -1.4739  0.4948  1.8960
21028SOL    HW267447   0.979   0.447   5.867  1.4796  0.5095  0.7578
21029SOL     OW67448   3.499   6.108   5.256  0.8562 -0.6457 -1.1873
21029SOL    HW167449   3.556   6.161   5.312  0.0132 -1.7219  0.8183
21029SOL    HW267450   3.467   6.169   5.190  1.7791  0.7517 -0.4042
21030SOL     OW67451  10.652   0.443   6.287 -0.0361 -0.2767 -0.2817
21030SOL    HW167452  10.734   0.457   6.239 -0.0025 -0.9506 -0.4217
21030SOL    HW267453  10.621   0.532   6.306 -0.0296  0.0175 -1.5112
21031SOL     OW67454   8.951   5.172   4.069 -0.5327  0.3177 -0.5500
21031SOL    HW167455   8.895   5.120   4.127 -0.1989  0.7335  0.1652
21031SOL    HW267456   8.897   5.246   4.043 -0.7190  0.0729 -0.8558
21032SOL     OW67457   5.709   7.212   8.647 -0.5402  0.2835 -0.4359
21032SOL    HW167458   5.793   7.235   8.607 -0.0093  1.2323  1.1422
21032SOL    HW267459   5.650   7.282   8.620 -0.7242 -0.1268 -1.1418
21033SOL     OW67460   5.745   8.571   6.388  0.3088 -0.2271  0.1769
21033SOL    HW167461   5.829   8.533   6.362  0.7436 -0.2631  1.5442
21033SOL    HW267462   5.761   8.607   6.476 -1.3882 -1.1882  0.9287
21034SOL     OW67463   7.782   3.163   0.889 -0.0410  0.4975 -0.0048
21034SOL    HW167464   7.771   3.244   0.839  0.1606  0.0457 -0.7908
21034SOL    HW267465   7.723   3.100   0.846 -0.6338  0.3778  0.9535
21035SOL     OW67466   0.473   5.984   0.983 -0.0563  0.0585 -0.2287
21035SOL    HW167467   0.443   5.924   1.051  1.2088 -2.0520 -1.4195
21035SOL    HW267468   0.417   5.964   0.908 -2.0319  2.9691  0.3064
21036SOL     OW67469   4.351  10.864   5.202  0.3837 -0.2694 -0.2403
21036SOL    HW167470   4.364  10.894   5.292 -1.5372 -1.7842  0.6375
21036SOL    HW267471   4.269  10.906   5.175  0.7306 -0.1562 -1.1492
21037SOL     OW67472   5.680   9.829   5.773  0.4704 -0.2589  0.7429
21037SOL    HW167473   5.682   9.734   5.765  0.3856 -0.2532  0.6459
21037SOL    HW267474   5.769   9.856   5.750 -0.0044 -0.1741 -1.2603
21038SOL     OW67475  11.016   1.718   2.359  0.0274  0.3719  0.4120
21038SOL    HW167476  11.038   1.793   2.304  0.7343  0.6412  1.0618
21038SOL    HW267477  11.088   1.711   2.421 -0.8481  0.1715  1.4249
21039SOL     OW67478   6.326   9.743   3.890  0.2079  0.0182  0.0818
21039SOL    HW167479   6.265   9.777   3.956  1.0841 -0.3052  1.0835
21039SOL    HW267480   6.412   9.752   3.930  0.8157  0.3524 -1.2723
21040SOL     OW67481   2.010   8.508   6.440 -0.4497  0.4931  0.1593
21040SOL    HW167482   1.972   8.570   6.378 -0.8865 -2.0573 -2.3647
21040SOL    HW267483   1.935   8.465   6.481 -0.3267 -1.3046 -1.3693
21041SOL     OW67484   8.638   7.183   3.965  0.0391 -0.4098 -0.0195
21041SOL    HW167485   8.550   7.173   3.930 -0.2278 -4.1240  1.2705
21041SOL    HW267486   8.693   7.131   3.907  0.7156 -1.1773  1.2650
21042SOL     OW67487   8.060   2.466   5.290  0.0220  0.5321  0.2599
21042SOL    HW167488   8.147   2.428   5.305 -0.7521 -0.9276  1.2737
21042SOL    HW267489   8.059   2.546   5.343  0.0302 -0.5642  1.9952
21043SOL     OW67490   7.606   4.185  10.638 -0.0880  0.2622  0.3335
21043SOL    HW167491   7.525   4.134  10.638 -0.9985  1.6609 -0.0506
21043SOL    HW267492   7.619   4.209  10.546  0.1559  0.9765  0.5519
21044SOL     OW67493   9.291   1.907   0.641 -0.1384  0.2278  0.3143
21044SOL    HW167494   9.293   1.812   0.646  1.5314  0.2680  1.3828
21044SOL    HW267495   9.381   1.931   0.617 -1.0010  1.4774 -1.9117
21045SOL     OW67496   9.150   5.044   0.021  0.2256 -0.3569  0.0009
21045SOL    HW167497   9.110   5.123   0.058  1.5213 -0.2633  1.3338
21045SOL    HW267498   9.089   5.015  -0.046 -1.6411  0.2502  1.3359
21046SOL     OW67499   4.568   6.751   6.088  0.1913 -0.9145 -0.2385
21046SOL    HW167500   4.524   6.666   6.096 -0.2737 -0.5669  1.2450
21046SOL    HW267501   4.597   6.771   6.177 -0.6680  0.9648 -0.3471
21047SOL     OW67502   5.698   8.692   5.875  0.3636  0.8225 -0.1512
21047SOL    HW167503   5.706   8.715   5.968  1.3883  0.7379 -0.2025
21047SOL    HW267504   5.788   8.689   5.844  0.0541  0.2829 -1.0188
21048SOL     OW67505  10.942   5.495   6.243  0.2873  0.0729 -0.5306
21048SOL    HW167506  11.015   5.530   6.295 -0.6666 -1.6036  2.1446
21048SOL    HW267507  10.934   5.404   6.271 -2.4374  0.0281 -1.1316
21049SOL     OW67508   2.389   1.563   0.303  0.1300  0.0239  0.0229
21049SOL    HW167509   2.318   1.626   0.308 -0.1247 -0.3000  0.6336
21049SOL    HW267510   2.363   1.492   0.362  2.0254  0.9852  2.2063
21050SOL     OW67511  10.385   3.524   8.031 -0.3137 -0.2110 -0.1716
21050SOL    HW167512  10.455   3.544   7.968 -1.3460 -0.2250 -1.3626
21050SOL    HW267513  10.395   3.430   8.047 -0.7109 -0.4353 -1.1757
21051SOL     OW67514   8.294   9.148   0.249 -0.1905  0.1180  0.3972
21051SOL    HW167515   8.212   9.184   0.216  0.0819  2.0233  1.6286
21051SOL    HW267516   8.275   9.126   0.340  0.5471  0.1935  0.5742
21052SOL     OW67517   8.075   7.215  10.712 -0.0078  0.6129  0.0999
21052SOL    HW167518   8.033   7.218  10.626  1.3748  1.1588 -0.5943
21052SOL    HW267519   8.009   7.247  10.772 -1.8318 -1.9321 -0.3632
21053SOL     OW67520   5.396   6.448   3.018 -0.1615 -0.1438  0.3111
21053SOL    HW167521   5.412   6.491   3.102  0.4491  1.7318 -0.7155
21053SOL    HW267522   5.450   6.496   2.955 -1.0675 -1.0985 -1.2750
21054SOL     OW67523   8.637   2.755   6.862  0.9240 -0.3777  0.2765
21054SOL    HW167524   8.543   2.762   6.880  0.5085 -0.4087 -1.7268
21054SOL    HW267525   8.660   2.666   6.890  0.1812 -0.6660 -0.0156
21055SOL     OW67526   6.496  10.400   0.082 -0.1326  0.0335 -0.5891
21055SOL    HW167527   6.427  10.408   0.147  0.8916 -1.4723  0.7864
21055SOL    HW267528   6.552  10.476   0.097 -0.4291  0.2101 -0.3696
21056SOL     OW67529   4.481   4.285   5.369  0.5426  0.5207 -0.1990
21056SOL    HW167530   4.516   4.374   5.379 -0.1235  1.0279 -2.0439
21056SOL    HW267531   4.514   4.255   5.284 -1.2726 -0.0014 -0.7699
21057SOL     OW67532   7.674   4.683   2.904 -0.4979  0.7551  0.2646
21057SOL    HW167533   7.630   4.748   2.959  0.5412  2.0847 -0.4181
21057SOL    HW267534   7.763   4.679   2.938  0.0922  1.4119 -1.1175
21058SOL     OW67535   0.887   5.055   7.027 -0.2294  0.5455  0.0337
21058SOL    HW167536   0.913   4.963   7.019  0.5849  0.8188 -0.6557
21058SOL    HW267537   0.849   5.062   7.114  0.7441 -0.2007  0.5441
21059SOL     OW67538   5.265   6.199   3.083 -0.2499  0.5451  0.8873
21059SOL    HW167539   5.195   6.178   3.021  0.4363 -0.7626  0.5210
21059SOL    HW267540   5.307   6.276   3.046 -0.1622  0.0740 -0.0405
21060SOL     OW67541   9.646   5.834   8.062  0.0997 -0.1857 -0.8638
21060SOL    HW167542   9.616   5.920   8.032  1.7131  0.4278 -0.8188
21060SOL    HW267543   9.677   5.849   8.151 -2.5036 -1.5214  0.3711
21061SOL     OW67544   3.003   6.414   9.159  0.1350 -0.0638 -0.6371
21061SOL    HW167545   3.014   6.509   9.156  0.9894 -0.1176  0.3250
21061SOL    HW267546   2.940   6.395   9.089 -1.7906  1.4477  0.5607
21062SOL     OW67547   9.031   2.332  10.163  0.6804 -0.1873  0.1013
21062SOL    HW167548   8.945   2.295  10.185  0.9754 -0.8421  0.1684
21062SOL    HW267549   9.088   2.256  10.151  1.6162  0.2561  1.5247
21063SOL     OW67550   0.624   3.647   4.088 -0.1670  0.1288  0.3342
21063SOL    HW167551   0.589   3.645   3.999 -0.2097  1.1935  0.3099
21063SOL    HW267552   0.603   3.562   4.124  1.6535 -1.1299 -1.3449
21064SOL     OW67553   3.542   6.550   7.583 -0.0221 -0.0804 -0.1198
21064SOL    HW167554   3.473   6.483   7.573 -0.4945  0.4940 -0.8088
21064SOL    HW267555   3.604   6.531   7.513  0.0789 -0.0623 -0.0360
21065SOL     OW67556   8.457   1.508   4.380 -0.1719 -0.6033 -0.1482
21065SOL    HW167557   8.505   1.570   4.325  0.4528 -0.4874  0.5164
21065SOL    HW267558   8.474   1.536   4.469 -1.3372 -0.6866  0.1067
21066SOL     OW67559   9.843   7.743   8.357 -0.2602  0.3878  0.2086
21066SOL    HW167560   9.793   7.750   8.439  0.4689  1.6195  0.5723
21066SOL    HW267561   9.884   7.656   8.362 -0.2254  0.4486  1.1526
21067SOL     OW67562   0.986   2.914   3.955 -0.4299 -0.1126  0.1458
21067SOL    HW167563   1.062   2.971   3.946  0.4392 -0.5921  3.1845
21067SOL    HW267564   1.021   2.825   3.952 -1.4094 -0.4768 -1.9363
21068SOL     OW67565   1.295   2.504   8.972  0.0925 -0.2537 -0.0216
21068SOL    HW167566   1.329   2.590   8.948 -1.4576  0.6632  0.9171
21068SOL    HW267567   1.292   2.456   8.890  0.5759  0.7413 -0.6390
21069SOL     OW67568   2.376   9.686   6.794 -0.1038 -0.3215  0.1561
21069SOL    HW167569   2.302   9.738   6.763 -0.5104 -1.8376 -1.6176
21069SOL    HW267570   2.345   9.595   6.790  0.9409 -0.8310  2.0889
21070SOL     OW67571   6.584   6.306   9.487  0.4557  0.4446  0.3856
21070SOL    HW167572   6.633   6.258   9.420 -0.9220 -1.3510  0.5765
21070SOL    HW267573   6.583   6.247   9.562 -1.5552  0.5923  0.5338
21071SOL     OW67574  10.778   8.233   5.042 -0.0597  0.1314 -0.2967
21071SOL    HW167575  10.728   8.153   5.054  0.8951 -0.4285  0.0166
21071SOL    HW267576  10.772   8.251   4.948 -0.7463  0.0114 -0.2791
21072SOL     OW67577  10.109   5.074   4.227  0.6375  0.1705 -0.1298
21072SOL    HW167578  10.081   5.143   4.288  1.2549  0.3891 -0.0855
21072SOL    HW267579  10.068   4.994   4.261  0.0350  0.4860 -0.0948
21073SOL     OW67580   7.039   4.017   5.579 -0.1451 -0.2756  0.6353
21073SOL    HW167581   7.087   4.004   5.498 -2.6846  0.5077 -1.1210
21073SOL    HW267582   7.008   4.107   5.574 -2.1901 -0.8837  1.3805
21074SOL     OW67583   0.045   2.791   0.489  0.1142  0.0252  0.3125
21074SOL    HW167584   0.019   2.875   0.526  1.6763  0.3443  0.7629
21074SOL    HW267585   0.066   2.737   0.565  1.0394 -0.1059 -0.0284
21075SOL     OW67586   0.667   9.925   3.107  0.1932 -0.1203 -0.7867
21075SOL    HW167587   0.760   9.904   3.113  0.5046  1.4122  0.3436
21075SOL    HW267588   0.664  10.004   3.052 -0.5211 -0.6091 -1.4607
21076SOL     OW67589   7.790   1.387   8.727 -0.1771  0.1208 -0.2514
21076SOL    HW167590   7.844   1.365   8.651 -1.1197  2.1656 -1.5912
21076SOL    HW267591   7.700   1.375   8.697 -0.5983  2.1579  0.0929
21077SOL     OW67592   3.627   5.807   5.553 -0.1723 -0.2987  0.2222
21077SOL    HW167593   3.667   5.884   5.513 -0.4743  0.0102  0.5039
21077SOL    HW267594   3.673   5.733   5.514  1.2145  0.0486  1.1225
21078SOL     OW67595   6.290   0.389   2.705 -0.1431  0.1483  0.1685
21078SOL    HW167596   6.372   0.367   2.661 -0.4396 -0.9760  0.1564
21078SOL    HW267597   6.250   0.305   2.726 -2.4145  0.6089 -1.8947
21079SOL     OW67598   8.446   0.063   0.513 -0.0791 -0.2972  0.3526
21079SOL    HW167599   8.538   0.036   0.510  0.1504  0.5410 -1.1249
21079SOL    HW267600   8.447   0.148   0.556 -0.0691 -0.0092 -0.2027
21080SOL     OW67601   5.828   7.997   8.184 -0.9790  0.3509  0.2925
21080SOL    HW167602   5.800   7.918   8.138 -2.3667  0.9951 -0.0180
21080SOL    HW267603   5.747   8.037   8.216 -0.1151  0.1354  3.0339
21081SOL     OW67604   0.847   8.711   6.946  0.0534  0.1458  0.1693
21081SOL    HW167605   0.814   8.774   6.881  0.3503 -0.4754 -0.6050
21081SOL    HW267606   0.800   8.732   7.026 -1.6813 -0.2052 -0.6995
21082SOL     OW67607   6.482  11.004   8.544 -0.0385  0.0640  0.0088
21082SOL    HW167608   6.435  10.927   8.578  1.0084 -0.8645 -0.5887
21082SOL    HW267609   6.478  11.068   8.615 -0.6286 -0.6683  0.6519
21083SOL     OW67610   9.985  10.156   1.860 -0.5152  0.2557  0.5154
21083SOL    HW167611  10.066  10.145   1.811 -1.2277  1.1265 -0.9208
21083SOL    HW267612   9.995  10.098   1.936  1.2783  0.0687  0.1868
21084SOL     OW67613   1.861   9.055   2.320 -0.1442 -0.1585 -0.1279
21084SOL    HW167614   1.849   8.999   2.243  1.1435 -2.1659  1.0250
21084SOL    HW267615   1.777   9.054   2.364 -0.6804  0.3964 -1.1150
21085SOL     OW67616   9.622   0.782   5.681  0.4214 -0.5052 -0.5379
21085SOL    HW167617   9.641   0.786   5.588  0.6686  0.7523 -0.4543
21085SOL    HW267618   9.661   0.700   5.711  3.3716  0.6850 -0.8871
21086SOL     OW67619   1.794   5.499   4.207 -0.5766  0.3524  0.1710
21086SOL    HW167620   1.805   5.408   4.179 -1.9909  0.3613 -0.5197
21086SOL    HW267621   1.828   5.501   4.296  0.5761 -0.5615 -0.2210
21087SOL     OW67622   9.094   7.905   7.347 -0.1191 -0.0594  0.2089
21087SOL    HW167623   9.101   7.928   7.440  1.7632 -2.3397  0.7571
21087SOL    HW267624   9.168   7.949   7.306  0.4858 -0.9438  0.3064
21088SOL     OW67625   2.205   5.649   7.964 -0.1266 -0.4441  0.3314
21088SOL    HW167626   2.218   5.744   7.959  1.6274 -0.6878 -0.2061
21088SOL    HW267627   2.186   5.623   7.874 -0.0873 -0.6733  0.3898
21089SOL     OW67628   0.428   7.675   8.592 -0.6135 -0.4966 -0.2860
21089SOL    HW167629   0.453   7.651   8.681  0.7999 -1.3618 -0.8759
21089SOL    HW267630   0.477   7.756   8.575  0.7486 -1.4249 -0.9497
21090SOL     OW67631   2.540   5.910   2.388 -0.5034  0.1175  0.2704
21090SOL    HW167632   2.573   5.978   2.330 -1.9183 -0.2105 -0.9783
21090SOL    HW267633   2.477   5.955   2.445  1.5518  0.6325  2.2826
21091SOL     OW67634  10.058   0.811   2.617 -0.1739 -0.1442 -0.4911
21091SOL    HW167635  10.075   0.893   2.570  1.0087 -0.2815 -0.3402
21091SOL    HW267636   9.990   0.833   2.681  2.9108  1.8938  2.4494
21092SOL     OW67637   9.028   7.931   9.865 -0.0121 -0.1519  0.2922
21092SOL    HW167638   9.022   7.842   9.898 -1.3797 -0.4799 -0.7564
21092SOL    HW267639   8.947   7.945   9.817  0.5546  1.3585 -0.3053
21093SOL     OW67640   7.694   1.850   8.970  0.4892 -0.0072 -0.3473
21093SOL    HW167641   7.732   1.804   8.896 -0.2224  1.5618 -1.7716
21093SOL    HW267642   7.755   1.921   8.988  0.4171 -0.0951  0.2427
21094SOL     OW67643   5.961   8.102   6.177  0.7674  0.0803 -0.3280
21094SOL    HW167644   5.915   8.183   6.153  0.7473  0.0013 -0.5590
21094SOL    HW267645   5.900   8.033   6.153  1.6204 -0.1049 -2.1153
21095SOL     OW67646   3.327  10.710   2.317  0.3064  0.0637  0.0484
21095SOL    HW167647   3.375  10.792   2.304 -0.4711  0.2479 -1.9535
21095SOL    HW267648   3.241  10.725   2.277  0.4123 -1.9407 -1.0792
21096SOL     OW67649   4.049   1.819   8.700 -0.2529 -0.2058 -0.1167
21096SOL    HW167650   4.111   1.891   8.711  0.4700 -0.9282  0.7750
21096SOL    HW267651   4.051   1.799   8.607 -1.1034  1.4594 -0.5226
21097SOL     OW67652   3.836   7.753   9.462 -0.0426 -0.4692 -0.1268
21097SOL    HW167653   3.898   7.813   9.502 -0.7799 -0.4463  1.0500
21097SOL    HW267654   3.838   7.774   9.369  0.8770  0.2803  0.0496
21098SOL     OW67655   2.155   9.901   7.453  0.1489 -0.5545 -0.2217
21098SOL    HW167656   2.221   9.939   7.395 -0.4822 -0.3800 -0.8493
21098SOL    HW267657   2.199   9.828   7.496  0.3772 -1.2832 -1.6245
21099SOL     OW67658   6.582   2.484   7.551  0.1043 -0.5180 -0.1460
21099SOL    HW167659   6.547   2.569   7.523  2.1395  0.1693 -0.8378
21099SOL    HW267660   6.544   2.469   7.637  0.4169  1.5806  0.4038
21100SOL     OW67661   9.540   6.757   4.942  0.0722 -0.4173 -0.1038
21100SOL    HW167662   9.603   6.816   4.901 -0.7096 -1.0696 -2.3630
21100SOL    HW267663   9.579   6.670   4.934 -0.6568 -0.7075 -0.6295
21101SOL     OW67664   6.456   9.532   3.480  0.2753  0.2060  0.1148
21101SOL    HW167665   6.417   9.520   3.567 -1.0429 -1.1771 -0.6146
21101SOL    HW267666   6.548   9.509   3.492  0.0461 -0.2624  1.0920
21102SOL     OW67667   3.645   6.123   7.441  0.0757 -0.1164 -0.0706
21102SOL    HW167668   3.688   6.038   7.452  0.1331  0.1909  2.8668
21102SOL    HW267669   3.561   6.102   7.400  0.5047 -1.4451 -0.3375
21103SOL     OW67670   9.776   7.550   7.139  0.4912  0.0305 -0.2144
21103SOL    HW167671   9.705   7.608   7.110 -0.2490 -0.3762  0.7454
21103SOL    HW267672   9.773   7.477   7.077 -0.6494 -0.5123  0.4572
21104SOL     OW67673   1.497   2.265   7.642 -0.2845 -0.4287 -0.0389
21104SOL    HW167674   1.548   2.342   7.616 -0.9968  0.4818  1.1302
21104SOL    HW267675   1.562   2.197   7.656  0.6334  0.6251  1.1322
21105SOL     OW67676   2.493   7.017  10.227  0.3343 -0.2065  0.2782
21105SOL    HW167677   2.491   6.979  10.139  1.3148 -0.0453  0.1695
21105SOL    HW267678   2.410   6.991  10.266  0.2133 -0.9367 -0.4266
21106SOL     OW67679   8.450   4.523   3.512 -0.5216 -0.5957 -0.1399
21106SOL    HW167680   8.532   4.479   3.534 -0.6062 -0.8505 -0.3315
21106SOL    HW267681   8.430   4.493   3.423  0.0730  0.7852 -0.7743
21107SOL     OW67682  11.057   2.534   5.415  0.6315  0.5214  0.3553
21107SOL    HW167683  11.022   2.450   5.384  1.8551  0.6645 -1.6050
21107SOL    HW267684  10.980   2.583   5.444 -0.1853 -0.9943  0.8364
21108SOL     OW67685   1.721   8.940   0.389  0.1214 -0.4241 -0.2147
21108SOL    HW167686   1.676   9.024   0.400  1.5278  0.3545 -0.1592
21108SOL    HW267687   1.667   8.878   0.438 -0.2217  0.7040  0.9123
21109SOL     OW67688   1.568   5.702   2.683  0.0897 -0.0865 -0.0611
21109SOL    HW167689   1.647   5.664   2.721  0.1956 -0.6116 -0.7726
21109SOL    HW267690   1.594   5.725   2.593  0.4053  2.8585  0.6718
21110SOL     OW67691   7.434   2.973   4.552  0.0269  0.3349  0.3532
21110SOL    HW167692   7.508   2.913   4.541  0.0082  0.2335  0.7806
21110SOL    HW267693   7.473   3.054   4.584 -0.2372 -0.3259  2.5104
21111SOL     OW67694   6.854   5.625   3.711  0.1004 -0.0389 -0.0523
21111SOL    HW167695   6.904   5.543   3.704  1.0901  0.6121 -0.9365
21111SOL    HW267696   6.804   5.629   3.630 -1.1485 -0.4893  0.6566
21112SOL     OW67697   1.635   0.117   5.493  0.1104 -0.0391 -0.4947
21112SOL    HW167698   1.723   0.099   5.462  0.1139  0.3075 -0.6875
21112SOL    HW267699   1.639   0.206   5.527 -0.0098 -0.2456  0.0714
21113SOL     OW67700  10.845   2.318   5.071  0.1353 -0.2198  0.5378
21113SOL    HW167701  10.796   2.377   5.128  1.0961  0.5670  0.5755
21113SOL    HW267702  10.931   2.310   5.112  0.1666 -1.3301  0.3084
21114SOL     OW67703   1.227   0.696   0.622 -0.5386 -0.0072  0.2007
21114SOL    HW167704   1.268   0.612   0.604 -0.1972 -0.1545  1.5389
21114SOL    HW267705   1.289   0.761   0.590 -0.2592 -0.2516  0.2462
21115SOL     OW67706   2.223  10.100   8.940  0.1679  0.2157  0.1023
21115SOL    HW167707   2.305  10.126   8.899  1.0945 -1.6346  0.6546
21115SOL    HW267708   2.202  10.015   8.901 -0.7213 -0.0012  1.0041
21116SOL     OW67709   1.852   5.240   7.254  0.5280  0.2156  0.1306
21116SOL    HW167710   1.879   5.152   7.282  0.8641 -0.2811 -1.6115
21116SOL    HW267711   1.880   5.245   7.162 -3.7543  0.2567 -1.4084
21117SOL     OW67712   0.768   1.526   8.721  0.8753  0.2092  1.3254
21117SOL    HW167713   0.787   1.619   8.713  1.8682  0.0113  1.1751
21117SOL    HW267714   0.854   1.486   8.735  0.8917 -0.9878 -1.4577
21118SOL     OW67715   4.587   3.414   3.824 -0.2267 -0.6826 -0.0703
21118SOL    HW167716   4.626   3.470   3.890 -1.2519 -0.2713  0.1914
21118SOL    HW267717   4.657   3.403   3.758  1.2539 -2.1247  1.6301
21119SOL     OW67718   4.756   2.545   2.233 -0.5896 -0.1128 -0.1863
21119SOL    HW167719   4.710   2.547   2.148  1.3323  0.6726 -1.2734
21119SOL    HW267720   4.692   2.581   2.295 -1.9230 -0.3660 -1.3581
21120SOL     OW67721   7.133   7.705   8.594  0.3066 -0.0154 -0.0684
21120SOL    HW167722   7.169   7.692   8.506  3.1681 -1.0137  1.1364
21120SOL    HW267723   7.134   7.799   8.607  0.2038  0.1174 -0.9630
21121SOL     OW67724   1.519   4.360   3.361  0.1847 -0.0289 -0.2636
21121SOL    HW167725   1.527   4.268   3.386  1.3944  0.0617 -0.2752
21121SOL    HW267726   1.598   4.378   3.310 -0.3852  0.8292 -0.8722
21122SOL     OW67727   4.674   5.513   0.668 -0.0260  0.0304 -0.3784
21122SOL    HW167728   4.582   5.485   0.668  0.1714 -0.9510  2.3840
21122SOL    HW267729   4.723   5.431   0.662  0.5887  0.2295  1.2538
21123SOL     OW67730   5.861   1.361   6.360  0.3962 -0.3539  0.3929
21123SOL    HW167731   5.885   1.279   6.402  0.8672 -0.1479  0.5324
21123SOL    HW267732   5.924   1.425   6.394  2.1260 -0.5710 -2.1063
21124SOL     OW67733   4.789   0.263   7.308  0.0384  0.0732  0.1901
21124SOL    HW167734   4.729   0.266   7.382 -0.0752 -0.0461  0.1044
21124SOL    HW267735   4.777   0.347   7.263 -0.0512  0.0571  0.1841
21125SOL     OW67736   6.461   9.752   8.911  0.1158  0.7266  0.1204
21125SOL    HW167737   6.509   9.824   8.953 -0.2295  0.8329  0.3339
21125SOL    HW267738   6.466   9.680   8.973  1.0076  0.3510 -0.3653
21126SOL     OW67739   7.190   4.532  10.106 -0.3642  0.4670 -0.3689
21126SOL    HW167740   7.229   4.466  10.049  0.1481  0.9835 -0.6223
21126SOL    HW267741   7.173   4.607  10.049  0.0273  0.9392  0.1153
21127SOL     OW67742  11.070  11.054   8.228 -0.5510 -0.2365 -0.2455
21127SOL    HW167743  11.079  10.961   8.245 -0.0362 -0.1475 -0.0028
21127SOL    HW267744  10.975  11.069   8.224 -0.6290 -0.9328 -1.2236
21128SOL     OW67745   4.773   7.726   8.982 -0.1144 -0.1294  0.1134
21128SOL    HW167746   4.716   7.765   9.049 -1.5512  0.3877 -1.3528
21128SOL    HW267747   4.713   7.686   8.920  1.1772 -0.4120 -0.9931
21129SOL     OW67748   2.790  10.394   2.955  0.1514 -1.2182 -0.3195
21129SOL    HW167749   2.745  10.469   2.917 -0.6991 -1.9090 -0.7016
21129SOL    HW267750   2.740  10.318   2.927  1.0494 -1.9520 -0.0175
21130SOL     OW67751   0.813   1.360   4.483 -0.4028  0.9627 -0.8312
21130SOL    HW167752   0.867   1.417   4.539  1.6131 -1.8228  0.2963
21130SOL    HW267753   0.862   1.355   4.401 -1.1061  1.6077 -1.3014
21131SOL     OW67754   7.166   4.776   8.551 -0.2899 -0.5556 -0.0264
21131SOL    HW167755   7.254   4.810   8.535 -1.3647  2.8220  0.3853
21131SOL    HW267756   7.134   4.751   8.465  1.0519 -1.8572 -0.1717
21132SOL     OW67757   3.781  10.518   3.647 -0.3492 -0.1022 -0.1171
21132SOL    HW167758   3.686  10.525   3.639 -0.2338 -0.3934 -2.3988
21132SOL    HW267759   3.795  10.443   3.706 -1.4958  0.4230  0.8560
21133SOL     OW67760   5.974   1.113   6.441 -0.1452 -0.0154  0.3203
21133SOL    HW167761   6.030   1.073   6.375 -0.4150 -0.7966  0.5530
21133SOL    HW267762   6.008   1.080   6.525 -1.2676 -0.9508  0.4373
21134SOL     OW67763   1.428   9.788   1.115  0.4822  0.4760  0.0630
21134SOL    HW167764   1.493   9.725   1.146 -0.2989  0.2115  1.2127
21134SOL    HW267765   1.446   9.797   1.021  2.8275  1.1868  0.5223
21135SOL     OW67766   2.144   1.776   4.728  0.2906 -0.7166  0.5711
21135SOL    HW167767   2.165   1.709   4.663 -0.0558  0.5931 -0.9488
21135SOL    HW267768   2.228   1.798   4.768  0.2558 -2.8640  1.9599
21136SOL     OW67769   2.933   1.866   3.386  0.3449 -0.0900 -0.0279
21136SOL    HW167770   3.014   1.915   3.375 -0.3003  0.6686 -1.6782
21136SOL    HW267771   2.875   1.925   3.435  0.1580  0.1379 -0.5128
21137SOL     OW67772   5.969   4.351   0.385  0.3912 -0.5112  0.5076
21137SOL    HW167773   5.983   4.290   0.457 -0.7694 -0.6649  0.6176
21137SOL    HW267774   5.879   4.335   0.357 -0.0047  1.2353  0.6371
21138SOL     OW67775   9.664   0.811   5.395 -0.5620  0.2666 -0.2517
21138SOL    HW167776   9.622   0.897   5.398  0.6435  0.9358 -1.8026
21138SOL    HW267777   9.595   0.752   5.364 -0.8357  1.0588 -1.2049
21139SOL     OW67778   4.078   8.226   2.476  0.2248 -0.5451  0.0856
21139SOL    HW167779   4.023   8.227   2.554 -0.6833 -1.2264 -0.5336
21139SOL    HW267780   4.131   8.306   2.483  0.5986 -0.9157  1.6955
21140SOL     OW67781   4.737   4.744   7.869  0.6209 -0.1278  0.4690
21140SOL    HW167782   4.812   4.755   7.928 -0.2638 -0.4889  1.6932
21140SOL    HW267783   4.769   4.685   7.801  1.1041 -1.2743  1.6341
21141SOL     OW67784   6.792   4.183   8.822 -0.4782  0.1013  0.7418
21141SOL    HW167785   6.795   4.102   8.873  0.6605 -0.7121 -0.5215
21141SOL    HW267786   6.852   4.166   8.749  1.6790  2.9490  1.6829
21142SOL     OW67787   9.250   3.986   1.419  0.4746  0.1454 -0.1831
21142SOL    HW167788   9.265   3.892   1.433 -1.0652 -0.2759 -1.1388
21142SOL    HW267789   9.332   4.018   1.382 -0.0626 -1.5838 -3.1670
21143SOL     OW67790  10.919   3.584   0.298  0.3214 -0.4012 -0.0755
21143SOL    HW167791  10.927   3.512   0.360  1.3495 -0.9481 -0.7943
21143SOL    HW267792  11.008   3.619   0.291 -0.0750  0.6208 -0.1079
21144SOL     OW67793   1.926   1.556   7.141 -0.3458 -0.5559 -0.6556
21144SOL    HW167794   1.961   1.570   7.053  0.2548  2.2093 -0.0416
21144SOL    HW267795   1.996   1.510   7.188  0.3479  0.1957 -0.9331
21145SOL     OW67796   9.287   8.586   1.326 -0.2555  0.8925  0.1847
21145SOL    HW167797   9.355   8.633   1.375 -1.1194 -1.2468  3.7974
21145SOL    HW267798   9.206   8.604   1.373 -1.2993 -0.7397 -0.8723
21146SOL     OW67799   9.519   7.964   1.920 -0.0845  0.3023 -0.2377
21146SOL    HW167800   9.480   7.887   1.879  1.3189  0.3068 -1.6805
21146SOL    HW267801   9.509   8.034   1.855 -2.0953  1.6210  1.3783
21147SOL     OW67802   7.813   8.999   8.114 -0.6743  0.3967  0.1423
21147SOL    HW167803   7.892   8.957   8.149 -0.4904 -0.2198 -0.9635
21147SOL    HW267804   7.843   9.043   8.035 -1.5688 -0.4959 -0.7154
21148SOL     OW67805   2.660   6.217   2.625 -0.3003 -0.4687  0.3974
21148SOL    HW167806   2.680   6.310   2.615 -0.2916 -0.3567  1.3369
21148SOL    HW267807   2.737   6.172   2.591  0.7789 -0.0738  2.1880
21149SOL     OW67808   8.872   1.910   3.157  0.2974 -0.4378  0.0986
21149SOL    HW167809   8.858   2.002   3.135  0.9211  0.2617  2.3687
21149SOL    HW267810   8.940   1.881   3.096  2.5619  1.6141  1.4786
21150SOL     OW67811  10.195   8.981   0.157 -0.3335  0.2939  0.4196
21150SOL    HW167812  10.160   8.989   0.068  0.6840 -0.1975 -0.0409
21150SOL    HW267813  10.130   8.928   0.204 -0.4041 -0.2898 -0.3154
21151SOL     OW67814   4.566   3.270   4.945  0.0012  0.5504  0.3342
21151SOL    HW167815   4.543   3.244   4.856 -0.0266 -0.9117  0.7412
21151SOL    HW267816   4.533   3.199   5.000 -0.3478  1.6152  1.5610
21152SOL     OW67817   5.578   7.187   8.341  0.0405  0.1080 -0.3195
21152SOL    HW167818   5.606   7.249   8.274  0.1653  2.2325  1.6072
21152SOL    HW267819   5.658   7.137   8.362  0.1949  0.0090 -1.1046
21153SOL     OW67820   1.755  10.050   8.504 -0.2182 -0.0588 -0.2750
21153SOL    HW167821   1.753   9.994   8.427 -0.8082 -0.4521  0.0218
21153SOL    HW267822   1.800   9.998   8.570 -0.4268 -0.0329 -0.1128
21154SOL     OW67823   9.922   5.082   9.728 -0.3225 -0.4149 -0.1318
21154SOL    HW167824   9.995   5.139   9.751 -0.6293 -0.6612  1.5976
21154SOL    HW267825   9.875   5.129   9.660  1.0013  0.0981 -0.7246
21155SOL     OW67826   9.930   1.873   0.273  0.0791 -0.4281  0.3621
21155SOL    HW167827  10.018   1.843   0.297 -0.0101 -0.6290  0.4473
21155SOL    HW267828   9.943   1.928   0.196  0.3025 -0.2824  0.5042
21156SOL     OW67829   3.450   3.284   9.574  0.1165  0.1757  0.4698
21156SOL    HW167830   3.541   3.312   9.566  0.5350 -0.4473  2.4296
21156SOL    HW267831   3.403   3.363   9.600 -0.2581  0.8810 -2.0745
21157SOL     OW67832   0.037  10.475   1.316  0.1196 -0.4283 -0.3388
21157SOL    HW167833  -0.022  10.504   1.386 -1.2370 -1.0266 -1.1885
21157SOL    HW267834  -0.010  10.403   1.274  1.3597 -0.7541 -1.2243
21158SOL     OW67835   1.904   3.276   3.964  0.2965 -0.1595  0.2313
21158SOL    HW167836   1.811   3.299   3.962  0.3701  0.1288 -0.2446
21158SOL    HW267837   1.939   3.320   4.041 -0.3593 -1.9124  1.5910
21159SOL     OW67838   0.563   8.757   3.988 -0.0530  0.2473  0.1759
21159SOL    HW167839   0.603   8.677   3.954 -0.0161  1.0799 -1.8791
21159SOL    HW267840   0.538   8.735   4.077  0.7246 -1.7798 -0.0507
21160SOL     OW67841   7.318   6.457   9.625 -0.2091  0.4869 -0.2099
21160SOL    HW167842   7.398   6.438   9.577 -0.9395 -0.7483 -0.9610
21160SOL    HW267843   7.319   6.552   9.635  0.3802  0.6828 -1.8996
21161SOL     OW67844   2.678   6.101   1.209  0.5782  0.0556 -0.3691
21161SOL    HW167845   2.631   6.156   1.272 -1.3745 -0.9298 -0.8841
21161SOL    HW267846   2.624   6.022   1.202  1.9061 -0.7728 -1.6465
21162SOL     OW67847   0.590   5.221  10.056 -0.2232 -0.1402 -0.2347
21162SOL    HW167848   0.620   5.131  10.069 -0.1671  0.1713  2.4949
21162SOL    HW267849   0.671   5.272  10.056 -0.3644  0.0919  0.4599
21163SOL     OW67850   9.775   4.856   2.229 -0.0807  0.0602  0.1490
21163SOL    HW167851   9.825   4.883   2.306  1.7070 -3.2248  0.2979
21163SOL    HW267852   9.794   4.924   2.164  2.0618  0.5605  1.2122
21164SOL     OW67853   2.526   4.588   6.408  0.3045  0.0907 -0.1967
21164SOL    HW167854   2.510   4.674   6.369 -0.0451 -0.4509 -1.2973
21164SOL    HW267855   2.573   4.540   6.340  0.6354 -0.5459  0.4678
21165SOL     OW67856   4.711   9.462   2.254  0.3571  0.2200 -0.4863
21165SOL    HW167857   4.742   9.466   2.344  1.0176 -0.1108 -0.6890
21165SOL    HW267858   4.648   9.533   2.246  0.5598  0.4709  0.1336
21166SOL     OW67859   4.245   6.909   9.507 -0.1735 -0.6527  0.0146
21166SOL    HW167860   4.291   6.927   9.589 -1.0141 -3.0974  1.1439
21166SOL    HW267861   4.164   6.959   9.514  0.5468  0.5764 -0.1848
21167SOL     OW67862   6.906   7.646   6.591  0.0526 -0.3666  0.1959
21167SOL    HW167863   6.921   7.721   6.533 -1.7231  0.3997  0.6410
21167SOL    HW267864   6.983   7.643   6.647  0.4442  0.7719 -0.2463
21168SOL     OW67865   1.191   0.902   4.488 -0.0813 -0.0919 -0.1911
21168SOL    HW167866   1.179   0.978   4.545  1.6032 -1.0597  1.5845
21168SOL    HW267867   1.141   0.922   4.409 -0.1686  2.5618  0.4679
21169SOL     OW67868  11.029   4.712   2.055 -0.4844  0.0280 -0.1737
21169SOL    HW167869  11.051   4.666   1.974 -1.9875  0.6065 -0.9451
21169SOL    HW267870  11.003   4.643   2.116 -1.0050 -0.2849 -0.7467
21170SOL     OW67871   4.977   0.883   6.149  0.2729 -0.2861 -0.5323
21170SOL    HW167872   5.057   0.847   6.187 -0.3669  1.3723  2.7466
21170SOL    HW267873   4.922   0.806   6.132  0.9809 -1.2405  1.2034
21171SOL     OW67874   7.120   1.310   5.086  0.0975  0.1972  0.3590
21171SOL    HW167875   7.031   1.283   5.109  0.0865  0.3437  0.4899
21171SOL    HW267876   7.173   1.288   5.163  0.3659 -0.8295 -0.1025
21172SOL     OW67877   5.902   3.121  10.951 -0.0384  0.5973  0.6038
21172SOL    HW167878   5.992   3.091  10.937 -0.1775 -0.9420  2.4910
21172SOL    HW267879   5.908   3.176  11.029 -0.4483  2.2420 -0.4848
21173SOL     OW67880   0.458  11.082   9.707 -1.2456 -0.2898  0.8083
21173SOL    HW167881   0.499  11.152   9.656 -1.2954 -0.3779  0.6499
21173SOL    HW267882   0.527  11.053   9.767 -0.7374 -1.1607 -0.1672
21174SOL     OW67883   3.755   4.967  10.612 -0.2456 -0.1589 -0.3020
21174SOL    HW167884   3.796   4.977  10.526  0.0698 -0.0141 -0.1346
21174SOL    HW267885   3.754   5.055  10.649  0.7320 -0.4174  0.3479
21175SOL     OW67886   9.489   7.600   3.128 -0.1660 -0.0146 -0.2034
21175SOL    HW167887   9.517   7.512   3.151  1.2763 -0.5282 -3.3889
21175SOL    HW267888   9.395   7.602   3.148  0.2403 -1.3180  2.2978
21176SOL     OW67889   8.950   0.729   9.728  1.5719  0.0933  0.0335
21176SOL    HW167890   8.941   0.663   9.797  0.8843 -2.1374 -2.0838
21176SOL    HW267891   8.861   0.763   9.716  0.9129 -2.1401 -2.1161
21177SOL     OW67892   3.227   8.973   4.377 -0.2598  0.1024 -0.7391
21177SOL    HW167893   3.157   8.908   4.384 -1.4989  1.4253 -0.3274
21177SOL    HW267894   3.300   8.926   4.337 -0.7449 -1.8051  0.4932
21178SOL     OW67895  10.184   3.144   9.336 -0.3773  0.1101 -0.0074
21178SOL    HW167896  10.221   3.056   9.329  0.3182  0.3791  0.1717
21178SOL    HW267897  10.217   3.189   9.258  1.0996  0.8550  0.9980
21179SOL     OW67898  10.803   1.119   1.134 -0.1732 -0.5934  0.1035
21179SOL    HW167899  10.865   1.102   1.064  0.5834  0.3407  0.5167
21179SOL    HW267900  10.721   1.140   1.090  0.1281 -0.6406 -0.4829
21180SOL     OW67901   9.549   9.450   3.294  0.4151 -0.1141 -0.0889
21180SOL    HW167902   9.575   9.379   3.352 -1.1278 -0.9611 -0.3703
21180SOL    HW267903   9.612   9.446   3.222  0.9666 -0.5308  0.4054
21181SOL     OW67904   8.746   7.440   2.893  0.1744  0.0553 -0.3349
21181SOL    HW167905   8.703   7.525   2.907 -0.3789 -0.4368  1.2184
21181SOL    HW267906   8.795   7.425   2.974 -0.5760 -1.5588 -0.1521
21182SOL     OW67907   7.287   9.220   3.094 -0.7020 -0.2801  0.2335
21182SOL    HW167908   7.239   9.157   3.147  0.3459 -1.2524  0.0567
21182SOL    HW267909   7.348   9.261   3.155 -0.2428 -0.6207  0.0026
21183SOL     OW67910   9.377   4.050   3.461 -0.1973 -0.1002  0.4030
21183SOL    HW167911   9.282   4.059   3.468 -0.3121 -1.3883  0.9382
21183SOL    HW267912   9.396   3.970   3.511  1.2496  0.5225  0.8796
21184SOL     OW67913   6.159   2.134   6.962 -0.0167 -0.3366 -0.1915
21184SOL    HW167914   6.116   2.117   7.045 -0.5994  0.1655 -0.3770
21184SOL    HW267915   6.119   2.071   6.901  0.3976 -0.6931 -0.1005
21185SOL     OW67916   6.495  10.557   1.788  0.2015 -0.2246  0.5075
21185SOL    HW167917   6.405  10.526   1.795 -0.3887  1.1160 -0.7625
21185SOL    HW267918   6.544  10.481   1.755 -0.4071 -0.9900  1.2952
21186SOL     OW67919   6.654   9.340   7.050  0.2708  0.0402  0.0752
21186SOL    HW167920   6.595   9.356   6.976  0.9776 -2.5043 -1.1391
21186SOL    HW267921   6.694   9.255   7.031  2.5930  0.5983  2.0056
21187SOL     OW67922   5.244   4.503   8.445  0.1903  0.1626 -0.3460
21187SOL    HW167923   5.224   4.536   8.533 -0.0225  0.7251 -0.5993
21187SOL    HW267924   5.301   4.570   8.407  4.1275 -2.1390  0.9627
21188SOL     OW67925   6.356   8.656   6.272  0.5752 -0.0300  0.3424
21188SOL    HW167926   6.312   8.741   6.266  1.1162  0.1443 -2.2891
21188SOL    HW267927   6.442   8.676   6.310  0.8996  0.7240 -0.7437
21189SOL     OW67928   9.054   4.959   6.748 -0.1869  0.0632 -0.2578
21189SOL    HW167929   9.098   4.886   6.793  0.1168  0.5636  0.2595
21189SOL    HW267930   8.964   4.927   6.735 -0.6110  0.3058  1.6922
21190SOL     OW67931   0.926   1.339   4.260  0.0831 -0.0504  0.1986
21190SOL    HW167932   1.019   1.318   4.265  0.4865  1.8349  2.2232
21190SOL    HW267933   0.895   1.294   4.181  2.9733  0.2559 -1.2302
21191SOL     OW67934   1.361   9.828   6.506 -0.1060  0.2029  0.4798
21191SOL    HW167935   1.347   9.826   6.411 -1.6313 -0.3844  0.6876
21191SOL    HW267936   1.339   9.918   6.531 -0.8409  0.0521  0.4106
21192SOL     OW67937   6.427   6.684   4.310  0.0129  0.1280  0.4569
21192SOL    HW167938   6.385   6.720   4.232  0.3984  0.7785  0.5411
21192SOL    HW267939   6.521   6.684   4.288  0.2190  1.2148  1.2598
21193SOL     OW67940   4.683   1.928   1.915 -0.4542 -0.1428 -0.2724
21193SOL    HW167941   4.702   1.969   2.000 -0.3878 -0.3765 -0.1735
21193SOL    HW267942   4.765   1.932   1.867  0.9462 -4.1524  1.3820
21194SOL     OW67943   0.802   4.470   2.075 -0.1714  0.4789  0.5077
21194SOL    HW167944   0.708   4.455   2.071 -0.2542  1.0988 -0.0841
21194SOL    HW267945   0.829   4.478   1.984  0.1759  1.9028  0.7135
21195SOL     OW67946   1.538   5.708  10.575  0.1031  0.9363 -0.5007
21195SOL    HW167947   1.532   5.802  10.592 -1.2199  0.9566 -0.9609
21195SOL    HW267948   1.573   5.701  10.486  0.7790  0.9636 -0.2453
21196SOL     OW67949  11.029   4.878   4.893  0.1677  0.6220  0.1718
21196SOL    HW167950  10.941   4.916   4.891 -0.4767 -0.6371  2.0490
21196SOL    HW267951  11.081   4.937   4.838 -1.5923  2.0196 -0.1141
21197SOL     OW67952   8.941   1.461   9.063  0.4685 -0.1201 -0.4358
21197SOL    HW167953   9.018   1.518   9.060  0.7770 -0.5508 -0.7607
21197SOL    HW267954   8.938   1.420   8.977  0.1459 -0.4571 -0.2650
21198SOL     OW67955   2.102   6.167   9.037 -0.1925 -0.3033  0.0297
21198SOL    HW167956   2.085   6.100   8.971  0.7267 -2.3283  1.7461
21198SOL    HW267957   2.091   6.122   9.121 -0.8660  2.0523  1.3012
21199SOL     OW67958   0.943   5.021  11.053  0.5409  0.2309  0.0084
21199SOL    HW167959   1.001   5.026  10.978 -0.7960 -1.9903 -1.2519
21199SOL    HW267960   0.857   5.049  11.020  0.4437  1.8467  1.4303
21200SOL     OW67961  10.364  10.607   8.938  0.5949 -0.1947  0.2379
21200SOL    HW167962  10.429  10.575   8.875  0.0860  0.6491 -0.7410
21200SOL    HW267963  10.298  10.538   8.940  0.7843 -0.3840  0.1138
21201SOL     OW67964   3.251   7.728   8.822  0.0341  0.5428 -0.0566
21201SOL    HW167965   3.204   7.668   8.765  0.0971  0.7979 -0.3756
21201SOL    HW267966   3.246   7.812   8.778 -1.7999  1.2363  1.3573
21202SOL     OW67967   3.523   8.624   5.034 -0.5066  0.3929  0.9136
21202SOL    HW167968   3.543   8.581   5.117  0.0589 -1.6461 -0.2272
21202SOL    HW267969   3.522   8.717   5.055  1.3436  0.0334  2.8617
21203SOL     OW67970   8.593   8.970   6.361 -0.4700  0.0998  0.1049
21203SOL    HW167971   8.586   8.954   6.455  0.3374  0.6995  0.2726
21203SOL    HW267972   8.549   9.054   6.347 -1.3940 -0.4127 -0.2086
21204SOL     OW67973   7.793   3.504   0.448 -0.2747 -0.0638  0.2994
21204SOL    HW167974   7.724   3.499   0.382 -0.2565 -0.9183  0.3337
21204SOL    HW267975   7.759   3.455   0.522  0.0736  0.1424  0.5979
21205SOL     OW67976   0.091  10.288   5.319 -0.4637 -0.1824 -0.0910
21205SOL    HW167977   0.183  10.313   5.316 -0.3397 -0.4852  0.9203
21205SOL    HW267978   0.043  10.371   5.322 -0.3235  0.0275 -1.9695
21206SOL     OW67979   8.581   4.060   5.026  0.3963 -0.1494  0.5014
21206SOL    HW167980   8.492   4.096   5.024  0.3600 -0.1995  1.1271
21206SOL    HW267981   8.607   4.055   4.934 -0.4455 -0.6223  0.2840
21207SOL     OW67982   8.347   7.462   3.682 -0.2011  0.1023 -0.1751
21207SOL    HW167983   8.295   7.444   3.604 -1.0179  1.2212  0.0822
21207SOL    HW267984   8.361   7.557   3.680  1.3435 -0.0929  0.0767
21208SOL     OW67985   0.518   3.201   7.921 -0.5745  0.4409  0.1724
21208SOL    HW167986   0.466   3.252   7.983 -1.4200  0.8907 -0.8776
21208SOL    HW267987   0.584   3.263   7.888 -0.6423  0.4311  0.0187
21209SOL     OW67988   4.446   5.542   4.528  0.0477  0.0906 -0.6494
21209SOL    HW167989   4.416   5.455   4.499  1.1898  0.0035 -1.6261
21209SOL    HW267990   4.479   5.583   4.448  3.2552 -0.1297  0.4343
21210SOL     OW67991   5.491   6.142  10.523  0.4050 -0.2985  0.0268
21210SOL    HW167992   5.494   6.178  10.611  2.9779 -0.0972 -0.0632
21210SOL    HW267993   5.433   6.200  10.474 -0.6247 -0.1069  1.4212
21211SOL     OW67994   5.633   2.917   4.303 -0.4066  0.4279  0.5511
21211SOL    HW167995   5.559   2.892   4.247  0.8873  1.2660 -1.6469
21211SOL    HW267996   5.608   3.003   4.337 -1.1173  0.0069  1.1160
21212SOL     OW67997  10.197   7.852   2.340  0.0519  0.5297 -0.2016
21212SOL    HW167998  10.127   7.894   2.390 -0.5610  2.4123 -2.4932
21212SOL    HW267999  10.177   7.758   2.346 -1.1096  0.8306  1.3829
21213SOL     OW68000   7.106   0.238   5.922  0.1622 -0.2274  0.9327
21213SOL    HW168001   7.079   0.177   5.854 -1.7761 -1.0913  2.3531
21213SOL    HW268002   7.096   0.188   6.004 -2.7166  2.2064  2.2978
21214SOL     OW68003   1.577   0.333   6.889  0.3650 -0.5160  0.0835
21214SOL    HW168004   1.654   0.276   6.896  1.6342  0.9485 -1.2774
21214SOL    HW268005   1.584   0.371   6.801 -1.8842 -0.2589 -0.0376
21215SOL     OW68006  10.287  10.892  10.833  0.2404 -0.0867 -0.7827
21215SOL    HW168007  10.254  10.971  10.790 -3.5036 -0.1460  1.5108
21215SOL    HW268008  10.353  10.924  10.894  0.6754  0.8892 -1.7450
21216SOL     OW68009   6.382   7.128   1.620 -0.1029  0.0979 -0.0259
21216SOL    HW168010   6.473   7.157   1.621 -0.1984  0.4196 -0.5325
21216SOL    HW268011   6.377   7.063   1.691  0.5479 -0.0185 -0.0785
21217SOL     OW68012   3.521   7.234   5.409  0.3175 -0.2362 -0.1272
21217SOL    HW168013   3.547   7.142   5.410  0.3592 -0.2233 -0.0406
21217SOL    HW268014   3.604   7.282   5.417  0.1636 -0.1991  1.6099
21218SOL     OW68015   4.372   6.444   4.915 -0.0319  0.1993 -0.1294
21218SOL    HW168016   4.388   6.539   4.912 -0.2375  0.2089 -1.5117
21218SOL    HW268017   4.284   6.433   4.879  0.6618 -0.6441 -1.6693
21219SOL     OW68018   8.219   8.467   3.655 -0.1290  0.1571 -0.2785
21219SOL    HW168019   8.311   8.443   3.641  0.3037  1.5313  0.0601
21219SOL    HW268020   8.219   8.515   3.737 -1.1420  0.3111 -0.3545
21220SOL     OW68021   5.635   3.458   1.501  0.0807 -0.1633 -0.0728
21220SOL    HW168022   5.614   3.428   1.589 -0.7291 -1.1144 -0.5641
21220SOL    HW268023   5.578   3.406   1.444  1.1387 -0.1164 -1.2149
21221SOL     OW68024   4.360   8.696   2.409  0.4855  0.1123  0.5280
21221SOL    HW168025   4.424   8.687   2.339  1.2176 -0.1267  1.2190
21221SOL    HW268026   4.299   8.763   2.378  0.1721 -0.7442 -0.8015
21222SOL     OW68027   0.590   2.592   3.896  0.6744  0.3638  0.3609
21222SOL    HW168028   0.635   2.677   3.896  0.4665  0.4768  0.0104
21222SOL    HW268029   0.520   2.602   3.831 -0.2918  0.4276  1.3726
21223SOL     OW68030  10.233   2.466   4.990  0.0846 -0.2737  0.0633
21223SOL    HW168031  10.171   2.415   5.043  0.1134  0.8126  1.1779
21223SOL    HW268032  10.177   2.520   4.935 -0.0003  0.7988  1.1580
21224SOL     OW68033   5.892   0.074   8.385  0.4126 -0.6718  0.2290
21224SOL    HW168034   5.918   0.155   8.428 -0.1910  0.0156 -0.6558
21224SOL    HW268035   5.864   0.017   8.456  0.6162 -0.0215  0.8479
21225SOL     OW68036  10.645   4.129   8.352 -0.4195  0.4771 -0.1775
21225SOL    HW168037  10.601   4.074   8.287  0.2808  0.3430 -0.5491
21225SOL    HW268038  10.692   4.067   8.408  0.9231  0.7105 -1.0046
21226SOL     OW68039   9.390  10.397   0.865 -0.5848  0.1101 -0.1934
21226SOL    HW168040   9.300  10.427   0.856 -0.7264 -0.6277 -1.4789
21226SOL    HW268041   9.430  10.417   0.780  0.5147  0.5481  0.4015
21227SOL     OW68042   3.268   8.937   0.668 -0.1429  0.4805  0.3403
21227SOL    HW168043   3.349   8.971   0.706 -0.2534 -1.1359  2.1654
21227SOL    HW268044   3.293   8.905   0.581  1.2048 -0.1500  0.9445
21228SOL     OW68045   3.626   4.450   0.771  0.7938 -0.2765  0.0252
21228SOL    HW168046   3.694   4.382   0.773  0.4092 -0.6501  0.5509
21228SOL    HW268047   3.667   4.525   0.814  0.8928 -0.4924  0.3165
21229SOL     OW68048   8.452   6.581   6.185  0.0792 -0.6765 -0.3399
21229SOL    HW168049   8.422   6.494   6.159  0.0047 -0.8190  0.2108
21229SOL    HW268050   8.406   6.641   6.125 -0.6599 -0.9457 -0.0561
21230SOL     OW68051   3.584   0.479  11.046  0.2992 -0.6245 -0.1753
21230SOL    HW168052   3.561   0.553  11.102 -0.7901 -1.3308  0.3375
21230SOL    HW268053   3.679   0.471  11.056  0.4695  0.8592 -0.4501
21231SOL     OW68054   6.199   9.177   8.472  0.1370  0.1525  0.5854
21231SOL    HW168055   6.175   9.086   8.491 -1.8307  0.6859  0.7886
21231SOL    HW268056   6.186   9.223   8.555 -0.7414  0.9786  0.0010
21232SOL     OW68057   6.055   6.085   7.448  0.1305 -0.0871  0.2433
21232SOL    HW168058   6.074   5.996   7.479 -2.4310 -0.7065  0.2553
21232SOL    HW268059   6.078   6.141   7.521  0.9850 -0.8062  0.5535
21233SOL     OW68060   6.595   6.184  10.095 -0.1193  0.2492 -0.3669
21233SOL    HW168061   6.603   6.263  10.041  2.8883 -1.0047 -2.0599
21233SOL    HW268062   6.578   6.114  10.032  1.1278 -0.9480  0.5644
21234SOL     OW68063  10.755   4.464   6.682 -0.4649  0.1412  0.0932
21234SOL    HW168064  10.719   4.381   6.712  1.0329 -0.4795  0.2821
21234SOL    HW268065  10.849   4.458   6.703 -0.4484  2.1835  0.8048
21235SOL     OW68066   0.255   9.769  10.422 -0.0369  0.0847  0.4131
21235SOL    HW168067   0.192   9.700  10.398  0.9687 -0.5108 -0.6233
21235SOL    HW268068   0.208   9.851  10.405 -0.6885 -0.3469  0.0677
21236SOL     OW68069   2.018  11.092   9.020  0.2736  0.3445 -0.1821
21236SOL    HW168070   1.929  11.060   9.008  0.5835 -0.2755 -0.9025
21236SOL    HW268071   2.050  11.109   8.931  1.1934 -0.3666 -0.0064
21237SOL     OW68072   2.570   7.068   0.823  0.2997 -0.2075  0.1809
21237SOL    HW168073   2.662   7.093   0.838  0.0640  1.0423 -0.3169
21237SOL    HW268074   2.565   6.977   0.853  2.1839 -0.9786 -1.5750
21238SOL     OW68075  10.490   1.192   1.295  0.0470  0.0373 -0.1833
21238SOL    HW168076  10.519   1.265   1.240  1.1837  0.4414  0.9052
21238SOL    HW268077  10.477   1.120   1.234 -3.0797  1.6011 -1.6080
21239SOL     OW68078   9.060   1.639  10.363  0.1617  0.1826  0.1824
21239SOL    HW168079   8.988   1.591  10.405  0.2077 -0.3638 -0.3469
21239SOL    HW268080   9.132   1.635  10.426 -0.3990  1.1101  0.9008
21240SOL     OW68081   7.980   6.200   5.495 -0.6808 -0.6166  0.5678
21240SOL    HW168082   8.000   6.122   5.548 -1.1572 -1.9598 -1.1390
21240SOL    HW268083   7.887   6.216   5.509 -0.4639  0.0209  1.3579
21241SOL     OW68084   9.401   1.283   3.185  0.4885 -0.5317  0.3740
21241SOL    HW168085   9.399   1.342   3.261 -1.1058 -1.0670  0.7780
21241SOL    HW268086   9.440   1.203   3.219  0.5527 -0.4908  0.3996
21242SOL     OW68087   6.265   7.350   5.813 -0.2795  0.0403  0.8875
21242SOL    HW168088   6.302   7.325   5.898  0.9957 -3.0710 -0.4505
21242SOL    HW268089   6.255   7.268   5.766 -1.0476  1.6437 -1.9720
21243SOL     OW68090  10.656   5.419   5.634 -0.0154  0.0223  0.2428
21243SOL    HW168091  10.731   5.387   5.683 -1.8215 -1.1285  2.4646
21243SOL    HW268092  10.692   5.487   5.576  2.7950 -1.0266  0.6080
21244SOL     OW68093   7.674   9.950   7.184  0.1205 -0.6412 -0.4912
21244SOL    HW168094   7.729   9.887   7.138  1.5933  0.3769 -0.2056
21244SOL    HW268095   7.657  10.019   7.119 -3.9208 -2.5215 -1.7909
21245SOL     OW68096   5.824   6.305   5.357  0.3087 -0.6638  0.0421
21245SOL    HW168097   5.913   6.290   5.325  1.6360  0.8798  2.6298
21245SOL    HW268098   5.796   6.386   5.314  1.1141  0.0856  0.8736
21246SOL     OW68099   6.200   2.206   4.551  0.3223 -0.1889  0.4808
21246SOL    HW168100   6.209   2.206   4.456  1.6970 -0.2565  0.5911
21246SOL    HW268101   6.106   2.209   4.566  0.0265 -1.3611 -0.8870
21247SOL     OW68102   9.353   2.415   8.311 -0.2571  0.6239  0.1967
21247SOL    HW168103   9.287   2.428   8.379 -0.4424 -0.1562  0.1773
21247SOL    HW268104   9.384   2.325   8.325 -0.1010  0.5534 -0.5755
21248SOL     OW68105   8.881   2.773   3.947  0.0967  0.0600 -0.2558
21248SOL    HW168106   8.963   2.819   3.934  0.3202 -0.2796 -0.0699
21248SOL    HW268107   8.815   2.827   3.902  0.3447  0.5640 -0.0165
21249SOL     OW68108   7.807   2.658   7.461  0.2010 -0.7400 -0.3634
21249SOL    HW168109   7.738   2.706   7.415  0.7784 -0.3364 -0.8380
21249SOL    HW268110   7.797   2.567   7.432 -1.6905 -1.1890  1.5105
21250SOL     OW68111  10.141   1.523   5.370  0.4801 -0.3315  0.1897
21250SOL    HW168112  10.046   1.520   5.354  0.5332  0.1201 -0.2180
21250SOL    HW268113  10.159   1.444   5.421 -0.0460 -0.6574 -0.1218
21251SOL     OW68114   2.486   3.963   4.974  0.0438  0.2789 -0.1587
21251SOL    HW168115   2.522   4.051   4.966  1.1894 -0.2702 -1.4575
21251SOL    HW268116   2.464   3.954   5.067 -0.0113  1.8883  0.0004
21252SOL     OW68117   4.910   7.978   1.257  0.2324  0.1237  0.1934
21252SOL    HW168118   4.847   8.039   1.218  0.3986  0.3380  0.2539
21252SOL    HW268119   4.960   8.032   1.318  0.4220 -0.0627  0.2036
21253SOL     OW68120   8.717  10.817   2.387  0.1907 -0.2708  0.6702
21253SOL    HW168121   8.663  10.896   2.375  0.6141 -0.1306 -0.4325
21253SOL    HW268122   8.807  10.847   2.374  0.3139 -1.0343 -0.3310
21254SOL     OW68123   2.766   5.252   9.029  0.1587  0.5479 -0.1646
21254SOL    HW168124   2.683   5.214   9.000  0.1524  0.8144 -0.5065
21254SOL    HW268125   2.747   5.345   9.040 -0.0921  0.3138  1.6440
21255SOL     OW68126   7.300   8.474   1.107 -0.0310 -0.0168 -0.2932
21255SOL    HW168127   7.351   8.553   1.088  0.1486  0.3746  1.6516
21255SOL    HW268128   7.210   8.497   1.082  0.2038  0.4139 -0.7596
21256SOL     OW68129   1.043   7.568  10.752 -0.2693  0.3541  0.3185
21256SOL    HW168130   1.035   7.474  10.735 -0.5003  0.6380 -1.2720
21256SOL    HW268131   1.099   7.574  10.829 -1.4645 -1.1217  1.3551
21257SOL     OW68132   1.376  10.248  10.253  0.0885 -0.5737 -0.1142
21257SOL    HW168133   1.370  10.157  10.221 -0.0166  0.6038 -3.9688
21257SOL    HW268134   1.310  10.295  10.203 -0.3429  1.6002  2.3090
21258SOL     OW68135   8.813   1.575  10.470  0.4179 -0.7880 -0.1241
21258SOL    HW168136   8.797   1.599  10.561 -0.5283 -2.6520  0.2464
21258SOL    HW268137   8.750   1.626  10.420  3.1142  2.8698 -0.2210
21259SOL     OW68138   6.137   3.530   4.273  0.5181 -0.1584  0.1944
21259SOL    HW168139   6.048   3.503   4.295  0.7374 -1.6717 -0.6343
21259SOL    HW268140   6.136   3.625   4.282 -1.6592  0.0522 -1.3508
21260SOL     OW68141   5.246   7.757   8.895 -0.1180 -0.3229 -0.1751
21260SOL    HW168142   5.169   7.811   8.912 -0.3433 -0.5669 -0.4082
21260SOL    HW268143   5.317   7.820   8.881  0.2639 -0.0965  2.3473
21261SOL     OW68144   8.028  10.768   6.833 -0.3179  0.5744  0.1933
21261SOL    HW168145   7.945  10.793   6.794 -0.4534  0.8067  0.6298
21261SOL    HW268146   8.093  10.788   6.765 -0.5359  1.0847  0.1289
21262SOL     OW68147   2.734   5.602   0.186  0.0503  0.2967  0.4824
21262SOL    HW168148   2.771   5.515   0.173  1.1342  0.7153  0.6387
21262SOL    HW268149   2.759   5.626   0.275  0.2077  0.9668  0.2635
21263SOL     OW68150   7.332  11.043   5.989  0.0387 -0.0767  0.7223
21263SOL    HW168151   7.275  10.976   5.952  0.0735 -0.1477  0.7975
21263SOL    HW268152   7.291  11.068   6.072 -0.9554  1.2845 -0.1314
21264SOL     OW68153   2.206   1.319   5.653  0.4418 -0.8042 -0.0469
21264SOL    HW168154   2.174   1.313   5.563  0.6979  1.5164 -0.3625
21264SOL    HW268155   2.157   1.392   5.690 -0.4498 -2.3978  2.0948
21265SOL     OW68156  10.023   5.524   9.313  0.4138 -0.4171 -0.5346
21265SOL    HW168157  10.055   5.434   9.323  1.8304  0.1303  0.2328
21265SOL    HW268158  10.101   5.574   9.289  0.0096  0.8804  0.7222
21266SOL     OW68159   9.536   1.880   8.107 -0.5625  0.1082  0.0776
21266SOL    HW168160   9.569   1.968   8.089 -2.3342  0.4344 -2.1575
21266SOL    HW268161   9.521   1.842   8.020 -2.8987 -1.1434  0.9347
21267SOL     OW68162   6.436   6.461   0.372  0.1607  0.0254  0.1986
21267SOL    HW168163   6.507   6.500   0.321 -0.5725 -1.4412 -2.1593
21267SOL    HW268164   6.358   6.472   0.317 -0.5843 -2.1273  0.7077
21268SOL     OW68165   2.016  10.972   2.252 -0.2480 -0.2985 -0.2184
21268SOL    HW168166   2.021  10.895   2.309  2.4779 -1.9168 -2.3751
21268SOL    HW268167   2.021  10.936   2.163  1.7248  2.3523 -1.3062
21269SOL     OW68168  10.894   7.648   5.878  0.1513 -0.3763 -0.5192
21269SOL    HW168169  10.924   7.733   5.845  2.1396 -0.6839  0.2859
21269SOL    HW268170  10.799   7.654   5.878  0.2269  1.8460 -0.5285
21270SOL     OW68171   3.203   6.628   9.665 -0.3678  0.6842  0.1652
21270SOL    HW168172   3.158   6.646   9.582 -2.0731  0.1050  0.9300
21270SOL    HW268173   3.137   6.643   9.732  0.1932 -1.4186  1.2595
21271SOL     OW68174   1.577   0.967   8.297  0.5738  0.4221  0.1004
21271SOL    HW168175   1.518   1.037   8.268 -0.2380  0.5789  2.0206
21271SOL    HW268176   1.652   0.974   8.238 -0.2425  1.7876 -0.8479
21272SOL     OW68177   9.888   6.948   9.549 -0.4852  0.0945  0.3563
21272SOL    HW168178   9.891   6.868   9.602 -0.2743 -1.4798 -1.9081
21272SOL    HW268179   9.879   6.918   9.459 -0.6163  2.6549 -0.5907
21273SOL     OW68180   5.957   9.332   4.037  0.5129  0.4981 -0.2546
21273SOL    HW168181   5.942   9.329   3.943  1.9507 -1.1095 -0.4970
21273SOL    HW268182   5.926   9.247   4.069  0.5296  0.8112  0.6442
21274SOL     OW68183   1.540   0.704   9.827  0.8612 -0.1500 -0.1672
21274SOL    HW168184   1.493   0.639   9.879  0.9347 -1.5028 -1.7108
21274SOL    HW268185   1.627   0.668   9.815  0.6076 -0.3006 -1.8766
21275SOL     OW68186   8.043   0.421   3.075  0.0232 -0.5276 -0.0317
21275SOL    HW168187   8.020   0.445   2.985 -0.2258  0.6621  0.3358
21275SOL    HW268188   8.022   0.328   3.081 -0.9679 -0.3806 -0.8901
21276SOL     OW68189   8.875   0.091   0.891 -0.6358 -0.2186 -0.0424
21276SOL    HW168190   8.916   0.134   0.966  0.7160 -1.7899  0.1946
21276SOL    HW268191   8.791   0.135   0.881 -0.1426  1.1528  1.3351
21277SOL     OW68192   9.163   4.290   1.872 -0.4831 -0.0518 -0.6803
21277SOL    HW168193   9.123   4.296   1.785 -2.3958  1.5026  0.2223
21277SOL    HW268194   9.255   4.309   1.857 -0.3805 -1.6833 -2.5942
21278SOL     OW68195   3.427   0.324   2.871  0.5382 -0.6403 -0.5309
21278SOL    HW168196   3.418   0.279   2.955  2.5149 -0.5784 -0.2453
21278SOL    HW268197   3.421   0.417   2.893  1.9560 -0.5845 -0.2882
21279SOL     OW68198   5.612   4.008   4.456  0.1029 -0.2957 -0.4881
21279SOL    HW168199   5.633   3.944   4.388  2.5588  1.0945 -1.1562
21279SOL    HW268200   5.697   4.038   4.488 -0.9667 -0.0962  2.4804
21280SOL     OW68201  10.425   5.186   3.668  0.0116 -0.4638 -0.0895
21280SOL    HW168202  10.408   5.124   3.597  0.2742 -1.9077  1.0630
21280SOL    HW268203  10.495   5.146   3.719  0.2275  0.8225  0.6795
21281SOL     OW68204   9.006   9.104   2.276 -0.2568 -0.4962  0.3839
21281SOL    HW168205   8.960   9.160   2.212 -0.4696  0.5095  1.3836
21281SOL    HW268206   9.072   9.058   2.224 -1.1631 -0.5687 -0.7604
21282SOL     OW68207   0.417   0.092   6.005 -0.0618 -0.1772 -0.1907
21282SOL    HW168208   0.388   0.175   6.043 -0.3011  0.5783 -1.9481
21282SOL    HW268209   0.494   0.068   6.057  1.5403  2.4481 -1.1723
21283SOL     OW68210   9.040  10.946   9.500 -0.6620  0.3391  0.7116
21283SOL    HW168211   8.955  10.902   9.501 -0.0181 -0.9283  0.6967
21283SOL    HW268212   9.034  11.009   9.572 -0.8985 -1.1682  2.0644
21284SOL     OW68213   4.645   9.741  10.344  0.3042 -0.0302 -0.1493
21284SOL    HW168214   4.576   9.708  10.287  1.3172 -3.2723  0.3036
21284SOL    HW268215   4.613   9.725  10.433  0.9281  0.0323  0.0929
21285SOL     OW68216   5.973   3.180   6.889 -0.4026  0.3121 -0.3693
21285SOL    HW168217   6.025   3.177   6.970 -1.3836 -2.0658  0.2533
21285SOL    HW268218   5.906   3.246   6.906 -0.5198 -0.0678  0.7296
21286SOL     OW68219   5.288  11.012   0.833  0.0435 -0.3305  0.3866
21286SOL    HW168220   5.344  10.936   0.851  0.3067 -0.3913 -0.6499
21286SOL    HW268221   5.264  11.003   0.741  0.5332  1.1591  0.0906
21287SOL     OW68222   6.393   1.482   8.142 -0.8139  0.2992 -0.3287
21287SOL    HW168223   6.445   1.411   8.104 -1.4291 -1.0693  1.2471
21287SOL    HW268224   6.456   1.534   8.193 -0.6035  0.0156 -0.2970
21288SOL     OW68225   6.624   1.618   7.543 -0.1554 -0.5000 -0.2787
21288SOL    HW168226   6.534   1.587   7.543 -0.0720 -1.0277  2.8847
21288SOL    HW268227   6.617   1.713   7.535 -1.0643 -0.4691  0.6865
21289SOL     OW68228   9.167   7.015  10.328  0.3772 -0.4153 -0.5247
21289SOL    HW168229   9.116   7.078  10.380 -0.6726 -1.0458 -0.7681
21289SOL    HW268230   9.256   7.021  10.364  0.3227  1.2548 -0.6035
21290SOL     OW68231   7.572  10.731   7.237  0.2461  0.2020 -0.1590
21290SOL    HW168232   7.657  10.694   7.261 -0.0727  0.3054  1.2229
21290SOL    HW268233   7.576  10.739   7.142  1.5096 -0.4543 -0.1918
21291SOL     OW68234   2.017   7.670   5.454  0.4232  0.8380  0.1578
21291SOL    HW168235   1.937   7.618   5.470  1.2803 -0.5498  0.1253
21291SOL    HW268236   2.050   7.636   5.371  1.8341  0.3265  0.8895
21292SOL     OW68237   0.147   8.578   1.427  0.0810  0.6889  0.2302
21292SOL    HW168238   0.156   8.664   1.468 -1.4927  1.1736 -0.3682
21292SOL    HW268239   0.083   8.591   1.357  0.1521 -0.8725 -0.1667
21293SOL     OW68240   7.927   4.777   5.803 -0.1390  0.4245  0.2811
21293SOL    HW168241   7.891   4.741   5.884  0.4984  0.2309  0.4865
21293SOL    HW268242   7.993   4.713   5.775  2.5082  2.2750  1.7443
21294SOL     OW68243   6.852   4.094   7.610 -0.3542  0.0638 -0.3142
21294SOL    HW168244   6.916   4.135   7.551 -0.6518  0.4016 -0.4062
21294SOL    HW268245   6.894   4.013   7.639  0.0763  0.2388 -0.4478
21295SOL     OW68246   8.116   2.153   6.925 -0.0219  0.2827 -0.0032
21295SOL    HW168247   8.118   2.090   6.997  0.3735 -0.4501 -0.6319
21295SOL    HW268248   8.023   2.172   6.911 -0.0542  1.5115  1.5886
21296SOL     OW68249   3.208   7.608   5.322  0.2942 -0.2908 -0.5755
21296SOL    HW168250   3.170   7.656   5.397 -0.1898 -0.2946 -0.8119
21296SOL    HW268251   3.193   7.666   5.247 -0.9583 -1.0999 -0.9936
21297SOL     OW68252   1.759   2.818   2.229 -0.5446  0.1862  0.5286
21297SOL    HW168253   1.681   2.806   2.283 -1.4406 -0.5271 -0.8529
21297SOL    HW268254   1.724   2.834   2.141  0.8624 -0.4390 -0.1697
21298SOL     OW68255   1.958   5.733   7.107  0.0107  0.7281 -0.1815
21298SOL    HW168256   1.911   5.673   7.049  1.3993 -0.7327  0.1369
21298SOL    HW268257   1.906   5.814   7.105 -1.0704  0.0472 -1.8491
21299SOL     OW68258   0.415   4.070   4.982  0.4331 -0.3700 -0.5517
21299SOL    HW168259   0.397   4.022   4.902  0.1073  0.9553 -1.3065
21299SOL    HW268260   0.493   4.122   4.963 -0.4784  1.0597 -0.5414
21300SOL     OW68261   4.270   1.048   8.359 -0.0493 -0.2900 -0.3451
21300SOL    HW168262   4.228   1.061   8.444  2.4449  0.3827  0.8938
21300SOL    HW268263   4.213   1.093   8.297 -2.0576 -0.9869  0.9025
21301SOL     OW68264   8.281   3.016   1.880  0.0612 -0.0083  0.3681
21301SOL    HW168265   8.187   3.017   1.859  0.5803  1.8104 -2.5881
21301SOL    HW268266   8.316   3.092   1.833  2.8497  0.1262  2.4315
21302SOL     OW68267   8.736   0.662  10.769  0.1880  0.6185 -0.4405
21302SOL    HW168268   8.755   0.682  10.677 -2.2829  2.2105 -0.6964
21302SOL    HW268269   8.667   0.597  10.765  0.3045  0.4476  0.3131
21303SOL     OW68270   7.977   1.530   5.247 -0.1194  0.7039 -0.2021
21303SOL    HW168271   7.951   1.617   5.278  0.7850  1.0970 -0.4995
21303SOL    HW268272   7.939   1.524   5.159 -1.9891 -0.0813  0.6125
21304SOL     OW68273   0.948  10.644   2.104 -0.1973 -0.4524 -0.2501
21304SOL    HW168274   1.030  10.664   2.060 -0.1780 -0.9849 -0.4596
21304SOL    HW268275   0.921  10.727   2.143  0.7226 -0.3955  0.3009
21305SOL     OW68276   4.253   5.098   3.850 -0.2348  0.0486 -0.2177
21305SOL    HW168277   4.240   5.192   3.842 -1.0518  0.0935  1.2566
21305SOL    HW268278   4.344   5.084   3.825 -0.3483  1.0925 -1.3080
21306SOL     OW68279  10.774   5.004   4.922 -0.3820 -0.0526 -0.3975
21306SOL    HW168280  10.744   4.946   4.852 -1.0565 -0.4487  0.2034
21306SOL    HW268281  10.706   5.071   4.927  0.2052  0.5858 -0.8320
21307SOL     OW68282   9.005   3.386   4.696  0.1447  0.0071  0.0008
21307SOL    HW168283   9.099   3.375   4.678  0.3445 -1.4408  1.6821
21307SOL    HW268284   8.989   3.335   4.775 -1.8894  1.0307  0.3267
21308SOL     OW68285   1.843   1.969   6.497 -0.2880 -0.7936  0.5181
21308SOL    HW168286   1.829   1.995   6.406  0.8263  1.5132  0.9204
21308SOL    HW268287   1.862   1.876   6.493  0.0372 -0.6821 -1.6560
21309SOL     OW68288   6.001   5.390   5.157 -0.0524 -0.3103  0.1660
21309SOL    HW168289   6.089   5.428   5.167 -0.3413  0.1736  0.9342
21309SOL    HW268290   6.002   5.351   5.070  0.6855  0.3270 -0.1206
21310SOL     OW68291   2.084   8.862   5.241  0.1350  0.2721  0.9025
21310SOL    HW168292   2.087   8.810   5.321  0.0325  0.3031  0.9263
21310SOL    HW268293   2.153   8.928   5.253  3.1976 -2.3001 -0.8302
21311SOL     OW68294   0.554   9.273   7.660  0.7568  0.4972  0.3220
21311SOL    HW168295   0.622   9.305   7.719  1.5827  1.6497 -1.2045
21311SOL    HW268296   0.472   9.308   7.697  1.3905  2.3259  0.0895
21312SOL     OW68297   0.194   7.742   4.987 -0.4038  0.1903  0.0306
21312SOL    HW168298   0.124   7.747   5.052  0.0817  2.0469  0.4791
21312SOL    HW268299   0.247   7.667   5.014 -0.3207  0.8120  1.6916
21313SOL     OW68300   7.078   0.923   2.058  0.2442 -0.4012 -0.0914
21313SOL    HW168301   7.131   0.848   2.084 -0.7695 -0.3301  2.4372
21313SOL    HW268302   7.141   0.993   2.043  1.0350 -1.0960 -0.1257
21314SOL     OW68303  10.004   9.027  10.270  0.3210 -0.1833 -0.3247
21314SOL    HW168304  10.079   9.079  10.299  0.2230  0.5428 -1.3197
21314SOL    HW268305  10.039   8.939  10.255  0.6586 -0.2168  0.5992
21315SOL     OW68306   6.186   5.772  10.593 -0.0575 -0.1798 -0.6143
21315SOL    HW168307   6.159   5.736  10.677  2.1677 -0.4964  0.0272
21315SOL    HW268308   6.237   5.849  10.615  0.5763 -0.2684 -1.6781
21316SOL     OW68309   0.200   2.462   7.703 -0.2455 -0.2231 -0.4138
21316SOL    HW168310   0.185   2.462   7.608 -0.6278  0.6294 -0.3659
21316SOL    HW268311   0.264   2.393   7.717 -2.0105 -2.0786 -0.9902
21317SOL     OW68312   8.719   4.425  10.238  0.1266  0.3547  0.3825
21317SOL    HW168313   8.723   4.338  10.276 -2.5569  0.4034  0.9922
21317SOL    HW268314   8.804   4.464  10.256  0.7944 -1.5583  1.5344
21318SOL     OW68315  10.588   7.565   0.566  0.0421 -0.5069 -0.9118
21318SOL    HW168316  10.539   7.606   0.494 -1.2988 -1.0973 -0.3674
21318SOL    HW268317  10.616   7.639   0.620  0.7828 -0.0788 -1.8534
21319SOL     OW68318   4.673   3.376   6.403  0.0320 -0.2717 -0.4722
21319SOL    HW168319   4.659   3.339   6.490 -2.6578 -0.1124 -0.7424
21319SOL    HW268320   4.714   3.305   6.353 -1.2378 -1.4784  0.1300
21320SOL     OW68321   7.826   6.836   3.235 -0.1598 -0.0447  0.0041
21320SOL    HW168322   7.860   6.908   3.287  3.4860 -1.4801 -0.0683
21320SOL    HW268323   7.816   6.873   3.147 -1.6728  1.1590  0.6438
21321SOL     OW68324   2.720   7.396   6.803  0.5270  0.2734  0.1999
21321SOL    HW168325   2.748   7.347   6.880  0.8633 -0.3898 -0.3350
21321SOL    HW268326   2.648   7.345   6.766  1.1556 -0.0627 -0.6017
21322SOL     OW68327   9.787  10.749   7.599  0.5060 -0.5617  0.3866
21322SOL    HW168328   9.837  10.670   7.621  0.3783 -0.5731  0.6330
21322SOL    HW268329   9.854  10.811   7.567  0.4101 -1.3669 -1.5444
21323SOL     OW68330   7.557   9.911   8.236  0.3719 -0.8140 -0.2383
21323SOL    HW168331   7.472   9.908   8.193 -0.6208 -2.4943  1.6391
21323SOL    HW268332   7.618   9.872   8.173 -0.1863  0.4259 -1.6083
21324SOL     OW68333   6.958   4.184  10.429 -0.4771  0.0065  0.8322
21324SOL    HW168334   6.971   4.236  10.350 -3.8263  1.3363  0.9685
21324SOL    HW268335   6.981   4.243  10.501  1.8358 -0.9539  0.9782
21325SOL     OW68336   2.042   7.278   3.442 -0.0672  0.3059  0.1155
21325SOL    HW168337   2.094   7.205   3.410 -1.6000 -0.5185 -0.6069
21325SOL    HW268338   1.990   7.241   3.513 -1.4441  0.4694 -0.7824
21326SOL     OW68339  10.005   2.365   7.828 -0.2783  0.1888  0.1910
21326SOL    HW168340  10.000   2.341   7.920  0.6550  0.4464  0.3198
21326SOL    HW268341  10.031   2.457   7.828 -0.1720  0.1633 -0.3239
21327SOL     OW68342   8.845   8.888   5.928 -0.4851 -0.5826  0.2833
21327SOL    HW168343   8.879   8.974   5.950  1.7018 -1.2128 -0.3583
21327SOL    HW268344   8.774   8.873   5.990  0.3808  0.8599  1.6828
21328SOL     OW68345   2.227   3.440   1.849 -0.4026 -0.5234 -0.0090
21328SOL    HW168346   2.164   3.382   1.892 -0.7202  0.6454  1.1828
21328SOL    HW268347   2.215   3.524   1.894  0.9811  0.1020 -0.7789
21329SOL     OW68348   7.438   1.248   4.489  0.2887  0.0656 -0.3841
21329SOL    HW168349   7.527   1.215   4.474 -0.0880 -0.0596 -2.7577
21329SOL    HW268350   7.396   1.242   4.404 -1.1745  2.6916  0.0507
21330SOL     OW68351  10.379   3.695   1.666 -0.2219  0.3612  0.2770
21330SOL    HW168352  10.367   3.601   1.655 -2.6997  0.5822  0.5753
21330SOL    HW268353  10.444   3.703   1.736  0.5166 -1.0868 -0.1956
21331SOL     OW68354   2.587   2.581   3.131 -0.5904  0.6928 -0.0483
21331SOL    HW168355   2.526   2.534   3.073  0.6961 -1.8331  0.5141
21331SOL    HW268356   2.535   2.599   3.210 -1.1714  0.3949 -0.3522
21332SOL     OW68357   2.922   1.851   0.674 -0.1071 -0.0691 -0.3469
21332SOL    HW168358   2.963   1.781   0.725  0.5660 -1.0170 -2.1106
21332SOL    HW268359   2.960   1.843   0.587 -3.1422 -0.2334 -1.7979
21333SOL     OW68360   8.372   5.409   8.531 -0.1495 -0.1636  0.2878
21333SOL    HW168361   8.310   5.339   8.550  0.3829 -1.4382 -2.2131
21333SOL    HW268362   8.348   5.480   8.591 -2.7331 -1.3091  0.7346
21334SOL     OW68363  10.740   7.737   0.851 -0.1518 -0.5136  0.2200
21334SOL    HW168364  10.823   7.784   0.854  0.4187 -1.3624 -1.1526
21334SOL    HW268365  10.763   7.647   0.876 -1.1880 -0.1792  2.6151
21335SOL     OW68366   8.102   5.863   4.138 -0.4190 -0.5097  0.5514
21335SOL    HW168367   8.070   5.896   4.221 -0.6084  1.1323 -0.1295
21335SOL    HW268368   8.168   5.798   4.162 -1.1181 -0.7345  1.9626
21336SOL     OW68369   2.108   8.815   7.629 -0.1637  0.1164  0.4144
21336SOL    HW168370   2.020   8.819   7.668 -0.5920  1.4903 -0.6125
21336SOL    HW268371   2.093   8.778   7.542  0.1988  0.7087  0.0917
21337SOL     OW68372  10.161   5.666   4.055 -0.3084 -0.7607 -0.1369
21337SOL    HW168373  10.101   5.671   4.129 -0.1279 -1.0755  0.0295
21337SOL    HW268374  10.105   5.680   3.978 -0.0148  3.5777  0.1776
21338SOL     OW68375   8.338   9.429   4.687 -0.3664 -0.4517  0.1223
21338SOL    HW168376   8.302   9.340   4.691 -1.0880 -0.1377  0.8888
21338SOL    HW268377   8.263   9.486   4.705  0.2938  0.2720  0.6468
21339SOL     OW68378   0.639   5.970   3.258 -0.1920 -0.2901 -0.0557
21339SOL    HW168379   0.697   6.047   3.255  0.0915 -0.5194 -1.0065
21339SOL    HW268380   0.642   5.935   3.169 -0.1470 -1.5358  0.4164
21340SOL     OW68381  11.063   9.730   9.414  0.4407  0.2922  0.1322
21340SOL    HW168382  11.071   9.756   9.505 -1.7459  1.1336  0.1339
21340SOL    HW268383  11.149   9.746   9.376  1.2656  0.2856  1.9370
21341SOL     OW68384   7.261   9.392   7.552 -0.4135  0.1451 -0.0482
21341SOL    HW168385   7.257   9.303   7.587 -0.1294  0.6439  1.3024
21341SOL    HW268386   7.353   9.417   7.558 -0.6241  0.8462  0.4179
21342SOL     OW68387   8.781   1.838   9.699 -0.5626 -0.5046 -0.3304
21342SOL    HW168388   8.818   1.755   9.731  3.0803  1.1346  0.2772
21342SOL    HW268389   8.728   1.813   9.624  0.0308 -3.4258  0.0815
21343SOL     OW68390   1.330  10.342   7.036 -0.0723  0.0305 -0.2502
21343SOL    HW168391   1.328  10.247   7.047  1.4366  0.1185  1.0614
21343SOL    HW268392   1.325  10.355   6.941 -0.7914 -1.3260 -0.4208
21344SOL     OW68393   9.724   2.598   1.735 -0.2991 -0.5377  0.0092
21344SOL    HW168394   9.798   2.539   1.752 -0.7840 -1.2764 -0.3545
21344SOL    HW268395   9.686   2.615   1.821  0.6566  0.3428  0.2662
21345SOL     OW68396   0.009   6.701   5.019 -0.0587  0.5936 -0.2568
21345SOL    HW168397  -0.063   6.746   4.975 -0.5666 -1.2960 -1.4843
21345SOL    HW268398  -0.019   6.692   5.110  0.2383  3.0141  0.1403
21346SOL     OW68399   6.836   4.137   6.440 -0.5975 -0.3717  0.0315
21346SOL    HW168400   6.803   4.061   6.488 -1.9990  0.1118 -0.1010
21346SOL    HW268401   6.909   4.169   6.493  1.2200 -2.8299 -0.8484
21347SOL     OW68402   7.327   6.883   9.892  0.1362 -0.7110 -0.9121
21347SOL    HW168403   7.257   6.818   9.891 -0.0204 -0.5438 -0.8926
21347SOL    HW268404   7.294   6.955   9.839  0.4564 -0.7993 -1.2327
21348SOL     OW68405   4.557   2.849   2.837 -0.3225 -0.1897 -0.1704
21348SOL    HW168406   4.502   2.888   2.905  0.3305  1.4178 -0.5189
21348SOL    HW268407   4.495   2.803   2.780 -1.2007  0.6929  0.0330
21349SOL     OW68408   6.178   6.112  10.996  0.6485  0.0815 -0.3105
21349SOL    HW168409   6.121   6.048  10.953  1.5043 -1.6973  1.1023
21349SOL    HW268410   6.129   6.138  11.075 -0.1903  2.0967 -1.4109
21350SOL     OW68411   1.842   8.282   7.427 -0.1055  0.1387  0.5483
21350SOL    HW168412   1.894   8.332   7.490 -0.7617  1.0615  0.3877
21350SOL    HW268413   1.837   8.340   7.350 -0.8912 -0.1733  0.3570
21351SOL     OW68414   3.619   1.641   3.232  0.2153  0.3911 -0.4277
21351SOL    HW168415   3.552   1.686   3.180 -0.6223  0.5124  0.7101
21351SOL    HW268416   3.617   1.551   3.201 -0.4835  0.3937 -0.4184
21352SOL     OW68417   9.746   0.490  10.839 -0.6990  0.2215 -0.1309
21352SOL    HW168418   9.723   0.467  10.929 -0.3586  1.1432  0.2023
21352SOL    HW268419   9.806   0.420  10.811 -0.8001 -0.0645  0.3549
21353SOL     OW68420   8.813   4.063   7.637  0.0445 -0.0260 -0.0491
21353SOL    HW168421   8.723   4.073   7.607  0.3371  2.3104 -0.3755
21353SOL    HW268422   8.866   4.088   7.561  0.9692 -1.2508  0.1759
21354SOL     OW68423   8.372   9.224   9.766  0.6891  0.7169  0.0285
21354SOL    HW168424   8.464   9.198   9.770  0.7351  1.0317  1.8652
21354SOL    HW268425   8.339   9.208   9.855 -1.0004  0.7386 -0.5578
21355SOL     OW68426   5.578   8.328   4.137  0.0061 -0.1618 -0.5262
21355SOL    HW168427   5.497   8.280   4.156 -0.1643 -0.2894 -1.4954
21355SOL    HW268428   5.572   8.407   4.190  0.7202 -1.5988  1.8362
21356SOL     OW68429   8.161   0.953   9.242  0.5444  0.1730 -0.8076
21356SOL    HW168430   8.092   1.018   9.258 -0.4484 -1.1431  0.5795
21356SOL    HW268431   8.197   0.934   9.329  0.7730 -1.1493 -1.1677
21357SOL     OW68432   4.566   0.737   8.002 -0.1098  0.1122 -0.5104
21357SOL    HW168433   4.653   0.772   8.022  0.7235 -1.4464 -1.1670
21357SOL    HW268434   4.520   0.738   8.086  0.6798  0.6270 -0.0704
21358SOL     OW68435   6.557  10.878   0.531 -0.2973 -0.1353 -0.4975
21358SOL    HW168436   6.614  10.939   0.578  0.3829 -0.6602 -0.6243
21358SOL    HW268437   6.617  10.820   0.485 -0.8892  1.0349 -2.9363
21359SOL     OW68438   8.585   5.473   2.276  0.6851  0.1003 -0.0415
21359SOL    HW168439   8.505   5.454   2.228  0.9672  0.7145 -0.7664
21359SOL    HW268440   8.560   5.544   2.336  0.3484 -0.6304  0.7178
21360SOL     OW68441   6.770   0.918   7.708 -0.1544  0.6288 -0.2891
21360SOL    HW168442   6.741   1.008   7.693  0.3525  0.8738  0.1717
21360SOL    HW268443   6.729   0.868   7.637  1.3482  1.5728 -1.9196
21361SOL     OW68444  10.046   4.178   2.798  0.0786  0.0359  0.3519
21361SOL    HW168445  10.079   4.088   2.796 -0.0246 -0.0292 -2.3439
21361SOL    HW268446  10.058   4.206   2.888 -0.8949 -3.0238  1.5519
21362SOL     OW68447   4.730   3.454   6.826  0.1167 -0.2312 -0.7424
21362SOL    HW168448   4.685   3.407   6.896  1.8276 -0.7714  0.0400
21362SOL    HW268449   4.704   3.409   6.745 -1.2481 -0.0887 -0.4141
21363SOL     OW68450   8.534   6.829   1.529  0.1543  0.1188 -0.3327
21363SOL    HW168451   8.554   6.736   1.526  2.4515  0.4998  0.8626
21363SOL    HW268452   8.590   6.868   1.462 -1.6579  0.5798 -1.6703
21364SOL     OW68453   3.350   7.474   6.421  0.3430 -0.1102 -0.6208
21364SOL    HW168454   3.311   7.503   6.503  1.5757  2.0498 -0.7234
21364SOL    HW268455   3.436   7.517   6.419  0.9416 -1.2922 -2.3635
21365SOL     OW68456   2.423   3.288  10.631 -0.0214 -0.1556 -0.0448
21365SOL    HW168457   2.424   3.347  10.706  0.7501 -0.6413  0.3297
21365SOL    HW268458   2.500   3.234  10.641  0.7302  0.5045 -1.7818
21366SOL     OW68459   4.787   3.961   7.486 -0.2431 -0.3445  0.0927
21366SOL    HW168460   4.706   3.978   7.439 -0.4708 -0.4894  0.4274
21366SOL    HW268461   4.764   3.974   7.578  0.7466  2.3036  0.0629
21367SOL     OW68462   9.162   0.009   6.983  0.7963  0.5702 -0.2068
21367SOL    HW168463   9.235   0.055   6.943  1.1890  0.1343 -0.0007
21367SOL    HW268464   9.191  -0.009   7.073  0.5135  0.2367 -0.1793
21368SOL     OW68465  10.148   1.071   8.416 -0.3094  0.1112 -0.4894
21368SOL    HW168466  10.115   1.055   8.328 -2.2459  0.6770  0.0753
21368SOL    HW268467  10.074   1.049   8.473 -0.1732  2.6259  0.7871
21369SOL     OW68468   6.163   9.364   8.730 -0.1486 -0.3288  0.1362
21369SOL    HW168469   6.077   9.405   8.722 -0.4671 -1.0563 -0.2433
21369SOL    HW268470   6.217   9.410   8.666 -0.5052 -0.4833 -0.2845
21370SOL     OW68471   3.483   6.817   8.587  0.3641  0.2849  0.2311
21370SOL    HW168472   3.489   6.846   8.678 -0.8654  1.6579 -0.0798
21370SOL    HW268473   3.556   6.862   8.544  0.7114 -0.0566  0.4570
21371SOL     OW68474   3.124   8.871   1.360 -0.7190  0.1466 -0.8497
21371SOL    HW168475   3.190   8.802   1.370 -0.3547  0.7789  1.9013
21371SOL    HW268476   3.040   8.826   1.370 -0.4581  0.1595  2.4784
21372SOL     OW68477   0.336   8.706  10.718 -0.2776 -0.2733  0.2793
21372SOL    HW168478   0.413   8.746  10.677  1.9568 -1.0070  3.3887
21372SOL    HW268479   0.280   8.780  10.742  0.0498  0.3723 -0.8947
21373SOL     OW68480   2.315   8.724   9.409  0.3062  0.1904  0.2540
21373SOL    HW168481   2.259   8.648   9.392  0.2826  0.1742  0.4048
21373SOL    HW268482   2.403   8.693   9.388  0.3645 -0.0439  0.8213
21374SOL     OW68483   7.685   5.052   1.438  0.2125  0.0426 -0.1222
21374SOL    HW168484   7.767   5.098   1.458  1.2985 -1.5880 -0.7184
21374SOL    HW268485   7.680   5.052   1.343 -1.2612  1.3962 -0.0853
21375SOL     OW68486   2.325  10.503   1.726  0.3010 -1.0036 -0.2703
21375SOL    HW168487   2.409  10.541   1.700  0.1158 -0.5430 -0.1933
21375SOL    HW268488   2.345  10.452   1.804  0.2739  0.1686  0.5191
21376SOL     OW68489   2.759   0.757   3.521 -0.9341  0.4315 -0.0627
21376SOL    HW168490   2.811   0.816   3.575  1.6114  0.2950 -2.1816
21376SOL    HW268491   2.759   0.797   3.434 -3.2402 -0.3305 -0.4991
21377SOL     OW68492   9.432   3.796   2.224  0.7912  0.2532  0.3954
21377SOL    HW168493   9.452   3.747   2.144  1.4541  0.8080  0.2200
21377SOL    HW268494   9.446   3.888   2.201  0.4056  0.4652  0.9780
21378SOL     OW68495   6.502   5.844   2.345 -0.5160  0.7314  0.6991
21378SOL    HW168496   6.567   5.779   2.371 -3.1732 -1.5084  2.2357
21378SOL    HW268497   6.507   5.845   2.249  1.4193  0.3172  0.7554
21379SOL     OW68498   4.725   8.371   6.510 -0.5706 -0.2065 -0.4817
21379SOL    HW168499   4.815   8.342   6.492 -0.6258 -1.0694  0.5199
21379SOL    HW268500   4.675   8.343   6.433 -0.2219 -0.9502 -0.4547
21380SOL     OW68501   9.407   8.488  10.321 -0.3187  0.4206 -0.2713
21380SOL    HW168502   9.447   8.413  10.364 -0.8173 -0.2839 -1.0248
21380SOL    HW268503   9.442   8.488  10.233 -1.7481 -0.0584 -0.8725
21381SOL     OW68504   2.157   1.632   8.116 -0.2341  0.1033 -0.5983
21381SOL    HW168505   2.087   1.578   8.151  0.6840 -0.4012  0.5308
21381SOL    HW268506   2.131   1.650   8.025 -1.8733  0.0663 -0.1613
21382SOL     OW68507   8.261   6.164   4.363 -0.0700 -0.0273 -0.1787
21382SOL    HW168508   8.177   6.130   4.394 -0.4339  0.6253 -0.4235
21382SOL    HW268509   8.237   6.236   4.304  0.6696  0.8179  0.5299
21383SOL     OW68510   6.522   5.821   6.020 -0.9112 -0.1414  0.1512
21383SOL    HW168511   6.540   5.892   6.081  2.8262  0.4091 -1.2822
21383SOL    HW268512   6.540   5.859   5.934 -1.9316 -2.0086 -0.9527
21384SOL     OW68513   4.703   5.054   8.417  0.1732 -0.3246 -0.1472
21384SOL    HW168514   4.668   5.103   8.342  0.2668 -1.1177 -0.7184
21384SOL    HW268515   4.709   4.964   8.386  2.5861 -0.2732 -0.0300
21385SOL     OW68516   7.119   8.079   4.800  0.0279  0.6067 -0.5724
21385SOL    HW168517   7.171   8.018   4.748  0.2653  0.6603 -0.3980
21385SOL    HW268518   7.111   8.157   4.745 -0.4856  0.3273 -0.8959
21386SOL     OW68519  10.953   9.627   4.043 -0.1414 -0.0904  0.4407
21386SOL    HW168520  10.884   9.581   4.092  0.6677 -0.0381  1.6771
21386SOL    HW268521  10.970   9.571   3.967 -1.2636 -0.3032  0.3297
21387SOL     OW68522   6.381   7.145   8.044  0.4884 -0.1547 -0.2524
21387SOL    HW168523   6.315   7.170   7.980 -0.3655 -1.0836  0.2502
21387SOL    HW268524   6.457   7.119   7.991  0.7926  1.7155 -0.8108
21388SOL     OW68525   0.200   7.453   2.989 -0.1419 -0.0700 -0.4723
21388SOL    HW168526   0.129   7.490   3.041  0.6893 -1.0503  1.4865
21388SOL    HW268527   0.255   7.408   3.053  1.6343 -0.3035 -2.0747
21389SOL     OW68528   6.192   8.678  10.073  0.1072  0.3093 -0.0118
21389SOL    HW168529   6.143   8.723  10.003 -1.0655  1.1266  1.2750
21389SOL    HW268530   6.275   8.725  10.078  1.0611 -0.9592 -2.0870
21390SOL     OW68531   0.100   8.532   7.813  0.6847 -0.0575  0.0380
21390SOL    HW168532   0.129   8.610   7.860 -0.4272  0.0515  0.5717
21390SOL    HW268533   0.126   8.459   7.869  0.9680 -0.0323 -0.0571
21391SOL     OW68534   3.131   2.744   4.474 -0.2620 -0.5411  0.0351
21391SOL    HW168535   3.167   2.656   4.466 -0.3426 -0.4822 -1.1305
21391SOL    HW268536   3.208   2.801   4.483 -0.1983 -0.6967  0.4923
21392SOL     OW68537  10.686   9.302  10.022  0.0970  0.2807 -0.1500
21392SOL    HW168538  10.611   9.311   9.963 -1.2214  0.2142  1.4355
21392SOL    HW268539  10.646   9.287  10.108  1.9542 -0.0023  0.6936
21393SOL     OW68540   4.800   1.637   1.161  0.0533  0.3254  0.0759
21393SOL    HW168541   4.886   1.666   1.192 -1.1285  4.6201  0.0858
21393SOL    HW268542   4.795   1.668   1.071 -1.5636  0.4653  0.1813
21394SOL     OW68543   7.095   5.651   0.144  0.3451  0.0080 -0.1074
21394SOL    HW168544   7.047   5.618   0.068  0.1120  1.2188 -0.5183
21394SOL    HW268545   7.026   5.685   0.202  0.6460  1.2600 -0.4533
21395SOL     OW68546   5.603  10.824   5.371  0.5110  0.7769  0.5916
21395SOL    HW168547   5.523  10.778   5.394 -0.1432  0.8300 -1.3573
21395SOL    HW268548   5.661  10.756   5.337 -0.3944  1.2185 -2.1272
21396SOL     OW68549  10.891   6.093   2.059 -0.5009  0.2730  0.2155
21396SOL    HW168550  10.921   6.003   2.048 -1.8917 -0.2194  0.2375
21396SOL    HW268551  10.796   6.086   2.069 -0.7317  1.8139 -0.5570
21397SOL     OW68552   5.555   5.373   4.401  0.4099  0.0289  0.3851
21397SOL    HW168553   5.478   5.409   4.358  0.1265 -0.1007  0.7760
21397SOL    HW268554   5.542   5.393   4.494  1.4281  1.0886  0.3326
21398SOL     OW68555   1.634   5.758  10.332 -0.1095 -0.1139 -0.3477
21398SOL    HW168556   1.556   5.789  10.286  1.0425  0.5683 -1.9824
21398SOL    HW268557   1.681   5.705  10.267 -0.0451 -1.9863  1.1505
21399SOL     OW68558   0.030  10.034   4.899 -0.1414  0.4640 -0.1532
21399SOL    HW168559   0.081   9.954   4.885  1.0448  1.0296  0.7860
21399SOL    HW268560   0.004  10.030   4.991 -0.2635  1.0616 -0.1571
21400SOL     OW68561   4.860   5.982  10.780  0.5620  0.0674  0.2970
21400SOL    HW168562   4.807   5.931  10.719  1.0790 -1.5093  1.1031
21400SOL    HW268563   4.924   6.026  10.725  0.2505 -0.3530 -0.4149
21401SOL     OW68564   7.820   4.304   1.853 -0.0470  0.1592 -0.2229
21401SOL    HW168565   7.845   4.212   1.863 -0.4263  0.0090 -0.6304
21401SOL    HW268566   7.821   4.340   1.942 -2.7771 -0.9770  0.3526
21402SOL     OW68567   0.188   3.059   5.381 -1.0178  0.1405  0.4178
21402SOL    HW168568   0.157   3.063   5.290 -0.1262 -2.5616 -0.0783
21402SOL    HW268569   0.135   2.990   5.421 -0.0714 -0.0301  1.3985
21403SOL     OW68570  10.860   8.926   9.002 -0.2898  0.3076 -0.1325
21403SOL    HW168571  10.825   9.003   9.048  2.4437  1.7190 -0.2450
21403SOL    HW268572  10.912   8.881   9.068  0.1825 -0.0473 -0.7415
21404SOL     OW68573   1.310   3.639   6.215 -0.3520 -0.6707 -0.6851
21404SOL    HW168574   1.337   3.726   6.185 -1.6470 -0.2587 -0.7036
21404SOL    HW268575   1.311   3.585   6.135  0.4368 -0.6830 -0.6755
21405SOL     OW68576   4.933   3.392  10.471  0.3100  0.3832  0.3276
21405SOL    HW168577   4.951   3.329  10.541  2.7163 -0.5211 -0.9949
21405SOL    HW268578   4.996   3.370  10.402 -1.0361  2.1155 -1.5792
21406SOL     OW68579   5.842   8.244  10.181  0.4828  0.3756 -0.0028
21406SOL    HW168580   5.910   8.195  10.135 -1.0214  0.4030 -2.4450
21406SOL    HW268581   5.855   8.335  10.154 -0.7624  0.3148 -0.8972
21407SOL     OW68582   5.834   7.986   5.688  0.2712 -0.4263 -0.3733
21407SOL    HW168583   5.807   8.076   5.671  1.3654 -0.2545 -1.3593
21407SOL    HW268584   5.779   7.933   5.630  1.6314 -0.1211 -2.0066
21408SOL     OW68585   7.609   1.972   2.417  0.5806  0.4430 -0.1351
21408SOL    HW168586   7.701   1.994   2.431  0.7196  2.0137 -2.8784
21408SOL    HW268587   7.591   2.000   2.328 -2.8803  1.2798  0.6803
21409SOL     OW68588   5.494  11.073   3.762  0.0920 -0.3955  0.6105
21409SOL    HW168589   5.412  11.090   3.716  1.0326 -1.8952 -1.7904
21409SOL    HW268590   5.522  11.159   3.793 -2.4571  0.1197  1.7730
21410SOL     OW68591   7.911   4.018   7.106 -0.2233  0.0261 -0.0002
21410SOL    HW168592   7.974   3.990   7.174 -0.7012  1.4091  1.0534
21410SOL    HW268593   7.929   3.960   7.032  1.6352 -0.2664  0.6201
21411SOL     OW68594   8.646   4.893   0.638  0.2806 -0.7671 -0.3121
21411SOL    HW168595   8.613   4.863   0.553  0.0750 -1.7454  0.0973
21411SOL    HW268596   8.586   4.854   0.702  0.5541 -0.2054  0.2941
21412SOL     OW68597   3.041   0.125   3.029 -0.0862  0.2087 -0.1693
21412SOL    HW168598   3.109   0.064   3.058  1.0618  1.6601  0.3022
21412SOL    HW268599   2.959   0.076   3.040  0.5362 -0.3738  2.7175
21413SOL     OW68600   1.500   5.045   3.351 -0.1138  0.3513 -0.8319
21413SOL    HW168601   1.524   5.003   3.268 -0.3813 -3.1504  0.6975
21413SOL    HW268602   1.407   5.027   3.361  0.6228 -2.9008  1.9210
21414SOL     OW68603   6.860  10.068   6.785 -0.6651 -0.9064 -0.4472
21414SOL    HW168604   6.877   9.982   6.747 -3.6207 -1.5576 -0.5218
21414SOL    HW268605   6.826  10.120   6.712 -0.4832 -0.2016 -0.0373
21415SOL     OW68606  10.484   6.064   0.733  0.0535 -0.3773  0.0480
21415SOL    HW168607  10.395   6.099   0.741 -0.3896 -1.6532  1.1608
21415SOL    HW268608  10.526   6.121   0.669 -1.7823 -0.1816 -1.0756
21416SOL     OW68609  10.716   8.713  10.113 -0.0689 -0.0010  0.0424
21416SOL    HW168610  10.788   8.776  10.120  0.9291 -1.2777  2.9393
21416SOL    HW268611  10.705   8.679  10.202 -1.1980 -3.2038 -1.1622
21417SOL     OW68612  10.037   6.847   6.768  0.1007  0.4511 -0.3585
21417SOL    HW168613   9.968   6.811   6.712 -0.5447 -1.4060  1.4932
21417SOL    HW268614  10.118   6.806   6.736 -0.1042  0.2720 -0.6519
21418SOL     OW68615   6.167   6.735   3.758  0.9128 -0.8236 -0.5185
21418SOL    HW168616   6.179   6.683   3.837  0.1597  0.5069  0.4995
21418SOL    HW268617   6.106   6.683   3.705  1.8488 -1.9820 -0.5154
21419SOL     OW68618   9.107   6.991   3.748 -0.0354 -1.2820  0.2417
21419SOL    HW168619   9.092   6.921   3.811 -0.8823  0.0007  1.5369
21419SOL    HW268620   9.043   6.975   3.679 -0.3341 -1.6818  0.6048
21420SOL     OW68621   4.582   0.264   1.769 -0.4962  0.0513 -0.0110
21420SOL    HW168622   4.582   0.279   1.674  0.1130 -1.3161 -0.2502
21420SOL    HW268623   4.489   0.257   1.791 -0.6715  1.0031 -0.3824
21421SOL     OW68624   1.301   9.786   3.442 -0.4484  0.4348 -0.5862
21421SOL    HW168625   1.303   9.862   3.500  0.2367 -0.1281  0.1434
21421SOL    HW268626   1.267   9.715   3.496 -1.5174  0.2977 -1.3895
21422SOL     OW68627   1.196   5.273  10.796 -0.0151  0.0455 -0.6847
21422SOL    HW168628   1.243   5.270  10.713  2.6128 -0.2236  0.7210
21422SOL    HW268629   1.153   5.359  10.796  0.8753  0.5160 -1.8294
21423SOL     OW68630   0.443   2.497   4.105  0.2251 -0.0731  0.0575
21423SOL    HW168631   0.487   2.551   4.039  0.0220 -0.6000 -0.5179
21423SOL    HW268632   0.502   2.499   4.181  0.4512  0.5556 -0.1264
21424SOL     OW68633  10.936   1.062   4.981  0.1329 -0.0364 -0.1834
21424SOL    HW168634  10.993   1.031   4.911  1.0756  1.4532 -0.1352
21424SOL    HW268635  10.983   1.038   5.062  0.0938  0.0955 -0.1205
21425SOL     OW68636   4.860  10.402   9.117 -0.3281  0.0880 -0.2509
21425SOL    HW168637   4.805  10.442   9.050 -0.4979  0.3741  0.0540
21425SOL    HW268638   4.910  10.335   9.071 -0.5457  0.1875 -0.6337
21426SOL     OW68639   2.843   6.106   6.112  0.3570 -0.0668  0.0855
21426SOL    HW168640   2.755   6.141   6.130  0.6394  0.6935  0.0466
21426SOL    HW268641   2.829   6.040   6.045 -0.2363 -0.2287  0.3595
21427SOL     OW68642   7.651   2.789   3.437  0.2720 -0.0013 -0.0579
21427SOL    HW168643   7.689   2.708   3.469 -2.0750 -1.1276  0.0515
21427SOL    HW268644   7.584   2.812   3.501 -1.5614  0.0286 -1.8806
21428SOL     OW68645   8.017   2.821   2.897  0.1604  0.4290 -0.0328
21428SOL    HW168646   8.028   2.893   2.960 -1.0121  0.1299  0.5461
21428SOL    HW268647   8.096   2.767   2.908  0.9921  1.5408 -0.3882
21429SOL     OW68648   3.398   3.241   3.778 -0.3636 -0.3192 -0.0035
21429SOL    HW168649   3.434   3.325   3.750 -1.5837  0.0163 -0.6121
21429SOL    HW268650   3.303   3.252   3.772 -0.5729 -1.3569  1.0540
21430SOL     OW68651   0.580   2.347   8.836  0.7226  0.0761 -0.1484
21430SOL    HW168652   0.498   2.317   8.875  0.8889  0.8083  0.8156
21430SOL    HW268653   0.636   2.269   8.834 -0.1258 -0.5165 -1.1907
21431SOL     OW68654   0.100   4.439   0.694 -0.1161  0.2025  0.4132
21431SOL    HW168655   0.008   4.422   0.675 -0.3326  2.2962 -0.6762
21431SOL    HW268656   0.111   4.412   0.786 -2.2204  1.3270  1.0559
21432SOL     OW68657   2.714   5.173   8.642 -0.0309 -0.4751  0.0511
21432SOL    HW168658   2.667   5.158   8.725 -0.2513  1.1685  0.2594
21432SOL    HW268659   2.736   5.266   8.644 -0.2838 -0.3467 -1.8826
21433SOL     OW68660   5.412   0.109  10.546 -0.2830  0.4612 -0.3586
21433SOL    HW168661   5.444   0.032  10.500 -0.2448  0.3700 -0.1809
21433SOL    HW268662   5.349   0.149  10.486 -1.2609 -0.4066  0.0489
21434SOL     OW68663   2.083   4.634   5.425 -0.4063 -0.3597 -0.1388
21434SOL    HW168664   2.173   4.622   5.398 -0.6042 -1.1692 -0.4555
21434SOL    HW268665   2.074   4.729   5.436  0.7742 -0.3539  0.9625
21435SOL     OW68666   9.764   6.532   0.661 -0.1501 -0.0000 -0.0577
21435SOL    HW168667   9.767   6.558   0.569 -1.0022  2.0528  0.4278
21435SOL    HW268668   9.734   6.441   0.660 -0.5485  0.1173 -1.7838
21436SOL     OW68669   3.683   0.898   2.252 -0.2044  0.2571 -0.2129
21436SOL    HW168670   3.754   0.834   2.249 -0.6474 -0.2245 -2.5216
21436SOL    HW268671   3.709   0.960   2.320  1.2502 -1.2112  0.6321
21437SOL     OW68672   9.616   0.085   4.156  0.3171 -0.1771  0.2864
21437SOL    HW168673   9.710   0.095   4.148  0.3384  0.6497  1.2963
21437SOL    HW268674   9.590   0.036   4.078  1.6969 -1.2430  0.4609
21438SOL     OW68675   1.522   6.609   3.878  0.0402  0.7430 -0.6265
21438SOL    HW168676   1.471   6.671   3.929  0.7585  0.4992  0.4090
21438SOL    HW268677   1.517   6.527   3.927  1.0181  0.5936 -0.7556
21439SOL     OW68678   3.715   5.166   4.047  0.3656 -0.2342  0.2277
21439SOL    HW168679   3.757   5.104   4.106 -1.0159 -0.9500  0.4988
21439SOL    HW268680   3.624   5.137   4.043  0.2614  0.2382 -1.6741
21440SOL     OW68681   0.624   0.300   0.175  0.4083 -0.3652 -0.3055
21440SOL    HW168682   0.555   0.364   0.156  0.4924 -0.3727 -0.6502
21440SOL    HW268683   0.605   0.269   0.263 -0.2100 -0.5899 -0.5120
21441SOL     OW68684  10.871   4.007   6.293  0.4932 -0.2006  0.4542
21441SOL    HW168685  10.938   4.058   6.339  3.1467 -2.0508 -1.0897
21441SOL    HW268686  10.916   3.970   6.217 -3.0612  0.8173 -2.4602
21442SOL     OW68687   3.386   7.493   3.391 -0.0640 -0.4902 -0.1783
21442SOL    HW168688   3.386   7.486   3.487 -0.7597 -0.8941 -0.2034
21442SOL    HW268689   3.423   7.410   3.361  0.8551 -0.0690 -0.2539
21443SOL     OW68690   7.002   0.869   2.409  0.3636  0.0096 -0.6365
21443SOL    HW168691   7.060   0.906   2.476  0.7848  1.8001 -1.9200
21443SOL    HW268692   7.031   0.778   2.399  0.3570 -0.2824  1.4915
21444SOL     OW68693   2.196   6.332   5.747  0.1979 -0.1134 -0.5386
21444SOL    HW168694   2.277   6.308   5.793  0.9066 -0.1550 -1.7416
21444SOL    HW268695   2.220   6.327   5.654 -1.2324 -0.2271 -0.9158
21445SOL     OW68696   8.074   1.506   2.306  0.5287 -0.3216  0.3608
21445SOL    HW168697   7.989   1.486   2.266  1.0775 -1.7329 -0.1485
21445SOL    HW268698   8.057   1.502   2.400 -0.1478  0.2360  0.2738
21446SOL     OW68699   6.256  10.500   0.668  0.2099 -0.0229  0.1534
21446SOL    HW168700   6.304  10.531   0.591  3.0697 -0.8577  1.4861
21446SOL    HW268701   6.266  10.405   0.666  0.4482 -0.0481  1.6273
21447SOL     OW68702   5.244   2.676   1.242 -0.1293 -0.6395 -0.2327
21447SOL    HW168703   5.162   2.631   1.220  0.9089 -2.0118 -1.4882
21447SOL    HW268704   5.237   2.761   1.199  0.2857 -1.8718 -2.9827
21448SOL     OW68705   1.442   5.724   8.268 -0.1043  0.1277  0.5138
21448SOL    HW168706   1.399   5.667   8.205  0.2472  0.8932 -0.4383
21448SOL    HW268707   1.391   5.713   8.349 -2.5361  1.4861 -0.7241
21449SOL     OW68708   1.255   9.238   9.357  0.4392 -0.4162 -0.2066
21449SOL    HW168709   1.230   9.310   9.299 -0.5202  0.9800  1.7902
21449SOL    HW268710   1.222   9.159   9.314 -0.2222  0.5546 -1.5520
21450SOL     OW68711   9.415   7.155   0.331  0.0022 -0.3257 -0.4616
21450SOL    HW168712   9.376   7.068   0.318 -0.1496 -0.0113 -2.4423
21450SOL    HW268713   9.502   7.136   0.366  0.9967 -1.5287 -3.2207
21451SOL     OW68714  11.081   1.341  10.515 -0.4125 -0.1659 -0.2243
21451SOL    HW168715  11.142   1.414  10.501  2.1181 -1.5620  2.5423
21451SOL    HW268716  11.061   1.310  10.426  1.9762  1.1345 -1.3319
21452SOL     OW68717   6.609   9.066   8.880  0.7935 -0.4090  0.5448
21452SOL    HW168718   6.565   8.988   8.845  0.4905 -0.1369  0.3119
21452SOL    HW268719   6.570   9.139   8.831  0.4850 -0.0395  1.3276
21453SOL     OW68720   4.233  11.079   7.158 -0.5147  0.3723 -0.2224
21453SOL    HW168721   4.246  11.052   7.249  1.2411 -2.6276 -1.2296
21453SOL    HW268722   4.145  11.116   7.156 -0.9185 -0.2319  2.5275
21454SOL     OW68723   1.578   6.968   6.825  0.1939 -0.3052 -0.0757
21454SOL    HW168724   1.542   6.966   6.914  1.9943  1.8214  0.8088
21454SOL    HW268725   1.505   6.942   6.769 -1.7357  0.6652  1.8358
21455SOL     OW68726   2.949   1.329   2.498  0.0361  0.2541  0.1675
21455SOL    HW168727   2.947   1.425   2.494 -0.1308  0.2763  0.6424
21455SOL    HW268728   2.955   1.301   2.407 -1.7110  0.6897 -0.1365
21456SOL     OW68729   5.775   9.424   2.076 -0.4059  0.3453  0.0872
21456SOL    HW168730   5.734   9.498   2.120  1.5345  0.8922  1.0624
21456SOL    HW268731   5.800   9.364   2.146 -0.4189 -0.4605 -0.5685
21457SOL     OW68732   9.065   3.230   6.322  0.5337 -0.4802 -0.3851
21457SOL    HW168733   9.115   3.243   6.402  0.3014 -0.5129 -0.2337
21457SOL    HW268734   9.130   3.203   6.257  1.0526  1.4974 -0.7366
21458SOL     OW68735   9.753   0.968   0.176  0.0849 -0.3301  0.5192
21458SOL    HW168736   9.845   0.945   0.186 -0.4910 -2.5379  1.3264
21458SOL    HW268737   9.751   1.023   0.098  1.6783 -3.2594 -1.8062
21459SOL     OW68738   7.556   1.307   2.466  0.0556  0.3468 -0.0083
21459SOL    HW168739   7.611   1.261   2.404 -0.0065 -0.7655  0.7303
21459SOL    HW268740   7.557   1.398   2.437  1.2377  0.1160 -0.7478
21460SOL     OW68741  10.922   2.835   9.793  0.7567 -0.1342 -0.0555
21460SOL    HW168742  10.882   2.920   9.776  0.9632 -0.3809 -2.0852
21460SOL    HW268743  10.855   2.772   9.769  0.6655 -0.5648  1.2836
21461SOL     OW68744   8.833   3.344  10.731 -0.0877  0.2985  0.5937
21461SOL    HW168745   8.872   3.432  10.732 -1.7494  1.1145 -0.9643
21461SOL    HW268746   8.887   3.295  10.669  1.2897 -0.0547  2.0079
21462SOL     OW68747  11.053  10.662   7.379  0.1401 -0.4285 -0.1413
21462SOL    HW168748  10.969  10.621   7.402 -0.1593  1.2696  2.1817
21462SOL    HW268749  11.056  10.741   7.432  3.4710 -0.6897  0.2572
21463SOL     OW68750   9.456   6.834   0.063  0.2725  0.0602 -0.2691
21463SOL    HW168751   9.509   6.824   0.143 -1.0561 -0.2421  0.6027
21463SOL    HW268752   9.449   6.745   0.029 -1.8110 -0.3582  1.0724
21464SOL     OW68753   8.291   9.086   1.329  0.0545 -0.0685 -0.3224
21464SOL    HW168754   8.210   9.126   1.362  1.1085  1.1441  0.9355
21464SOL    HW268755   8.270   9.059   1.239 -1.4206  1.1860 -0.3903
21465SOL     OW68756   5.100   9.727   6.209  0.2726  0.1362 -0.2770
21465SOL    HW168757   5.073   9.819   6.211 -1.9142 -0.3752 -1.6757
21465SOL    HW268758   5.176   9.726   6.151  0.7821  1.1229  0.3330
21466SOL     OW68759   2.878   0.269   5.711  0.6032 -0.0551  0.0965
21466SOL    HW168760   2.807   0.292   5.651  0.0177  0.6154  1.0297
21466SOL    HW268761   2.859   0.179   5.736  0.2971 -0.0040  0.0522
21467SOL     OW68762   2.913   0.521   9.381  0.4513 -0.0106 -0.0941
21467SOL    HW168763   2.858   0.523   9.302  0.8474  0.7093 -0.3597
21467SOL    HW268764   2.856   0.486   9.449 -0.7024  1.6797 -0.1145
21468SOL     OW68765   0.519   7.646  10.464  0.0181 -0.1626 -0.1840
21468SOL    HW168766   0.470   7.600  10.532 -1.1593  0.9851 -0.2200
21468SOL    HW268767   0.606   7.607  10.467  0.1280  0.1174  2.2597
21469SOL     OW68768   7.425   7.612   3.648  0.0352  0.2160  0.1966
21469SOL    HW168769   7.338   7.633   3.615  0.0657  0.7568  0.4510
21469SOL    HW268770   7.484   7.641   3.578  0.0005 -0.5510 -0.1695
21470SOL     OW68771   8.880   3.204   7.596 -0.6117 -0.5703  0.4996
21470SOL    HW168772   8.796   3.158   7.588 -1.3368  0.8356 -0.4547
21470SOL    HW268773   8.904   3.225   7.505  1.3679 -1.9379  0.6559
21471SOL     OW68774   4.888  10.759   3.745 -0.9557  0.2299 -0.0338
21471SOL    HW168775   4.848  10.811   3.676 -1.7069  0.5032  0.5889
21471SOL    HW268776   4.829  10.771   3.820 -0.5714 -0.6753  0.4185
21472SOL     OW68777   7.266   3.057   0.877  0.3484  0.0371  0.9871
21472SOL    HW168778   7.215   2.975   0.880  0.6601 -0.1968  0.2302
21472SOL    HW268779   7.293   3.072   0.967 -1.0247  0.1478  1.4129
21473SOL     OW68780   6.485   3.802   3.683 -0.1692  0.4722 -0.3025
21473SOL    HW168781   6.471   3.753   3.764  0.7351 -0.9318 -0.9557
21473SOL    HW268782   6.397   3.813   3.646 -0.3633 -1.1889 -0.4118
21474SOL     OW68783   6.142   5.520   9.164 -0.2880  0.4254  0.6476
21474SOL    HW168784   6.129   5.600   9.216  0.9253 -0.2857  2.1397
21474SOL    HW268785   6.059   5.473   9.171 -0.9368  1.4184 -0.0552
21475SOL     OW68786  10.302   7.708   7.116  0.0998 -0.1831 -0.8103
21475SOL    HW168787  10.364   7.738   7.050 -0.1237  0.4176 -0.7467
21475SOL    HW268788  10.216   7.727   7.079 -0.0230  1.3429  0.1805
21476SOL     OW68789   4.549   8.339   0.152 -0.3153 -0.0039  0.3237
21476SOL    HW168790   4.608   8.410   0.128  0.3580 -0.7923 -0.3985
21476SOL    HW268791   4.526   8.357   0.244  0.8382  0.4673  0.5392
21477SOL     OW68792   6.673  10.956   2.865  0.1803  0.2354  0.2951
21477SOL    HW168793   6.590  11.000   2.843 -0.1397  0.5420  2.0038
21477SOL    HW268794   6.648  10.865   2.879  0.3579  0.0760 -0.3672
21478SOL     OW68795   2.013   5.996   3.681  0.3397 -0.0620  0.5246
21478SOL    HW168796   1.928   5.984   3.723  1.0642 -0.3269  1.9791
21478SOL    HW268797   2.058   6.061   3.735  2.0528 -1.8582  1.3696
21479SOL     OW68798   6.220   6.580   9.496  0.4689 -0.1185 -0.1863
21479SOL    HW168799   6.213   6.673   9.516 -1.1610 -0.4606  1.0307
21479SOL    HW268800   6.139   6.559   9.449 -0.8391 -1.5424  2.4523
21480SOL     OW68801   4.579   4.147   0.802  0.2608 -0.4429  0.3885
21480SOL    HW168802   4.635   4.182   0.733 -0.9349 -0.6068 -0.6892
21480SOL    HW268803   4.589   4.209   0.874 -1.7444  2.1835 -1.4166
21481SOL     OW68804   4.722   2.295   5.885  0.6640 -0.0150  0.3362
21481SOL    HW168805   4.649   2.322   5.940  0.2226 -0.8504  0.1663
21481SOL    HW268806   4.685   2.232   5.823  1.3859  0.0512 -0.1870
21482SOL     OW68807   9.233   2.623   8.069  0.1264  0.1706  0.2795
21482SOL    HW168808   9.220   2.718   8.067 -1.6562 -0.0371 -1.4423
21482SOL    HW268809   9.160   2.590   8.122  0.3724 -0.2816  0.3401
21483SOL     OW68810   8.295   3.078   6.066 -0.0325 -0.5990  0.3513
21483SOL    HW168811   8.204   3.059   6.046 -0.0736 -2.6292  2.1306
21483SOL    HW268812   8.344   3.042   5.992 -0.5616 -1.5080  0.4290
21484SOL     OW68813   5.176   8.703  10.405  0.2056 -0.1323 -0.2844
21484SOL    HW168814   5.184   8.760  10.481 -2.0232 -1.0759  0.7509
21484SOL    HW268815   5.180   8.763  10.330 -1.2409  1.3303  0.7310
21485SOL     OW68816   2.994   8.000   9.875  0.5393  0.3938  0.7231
21485SOL    HW168817   2.978   7.965   9.963  1.1356  1.6955  1.3664
21485SOL    HW268818   3.089   8.011   9.870  0.4295  1.1905  0.2626
21486SOL     OW68819  10.869   3.258   4.858  0.1462 -0.0931 -0.0206
21486SOL    HW168820  10.900   3.322   4.794 -1.2405 -2.2289 -3.0335
21486SOL    HW268821  10.775   3.277   4.867  0.2268 -0.1279  1.0764
21487SOL     OW68822   4.206  10.466   3.370 -0.2784  0.2786  0.5622
21487SOL    HW168823   4.272  10.512   3.318 -0.2703  0.6459  0.8959
21487SOL    HW268824   4.255  10.399   3.418 -0.2831 -0.0514  0.1123
21488SOL     OW68825   5.415   9.111   9.878 -0.0633  0.0241 -0.5473
21488SOL    HW168826   5.501   9.098   9.918 -0.5428 -0.1499  0.4715
21488SOL    HW268827   5.374   9.024   9.879 -0.3897  0.1730 -0.6972
21489SOL     OW68828   2.764   2.970   3.234 -0.4381  0.2029 -0.1961
21489SOL    HW168829   2.817   3.009   3.303 -0.6764  2.4303 -1.1961
21489SOL    HW268830   2.800   3.005   3.153  0.3241 -2.9171 -1.3655
21490SOL     OW68831   3.951   9.938   5.136  1.0335 -0.1009  0.4611
21490SOL    HW168832   4.026   9.888   5.104  0.5286  0.0739 -1.0710
21490SOL    HW268833   3.984   9.984   5.213  2.3810 -0.3324  0.0515
21491SOL     OW68834   0.687   2.467   8.074 -0.0356  0.9863 -0.2413
21491SOL    HW168835   0.740   2.522   8.016  1.0799  1.7278  1.3948
21491SOL    HW268836   0.744   2.449   8.149 -0.4757 -2.1262 -0.4940
21492SOL     OW68837   2.811   7.866   9.724  0.0824  0.7331  0.0110
21492SOL    HW168838   2.835   7.774   9.729 -1.3824  0.3615  0.4345
21492SOL    HW268839   2.879   7.911   9.775 -0.7081 -0.4289  2.2230
21493SOL     OW68840   8.867   1.011   3.903 -0.3613 -0.0504 -0.2200
21493SOL    HW168841   8.774   0.988   3.901 -0.5272  0.4939  0.7584
21493SOL    HW268842   8.897   0.983   3.989  0.3409 -0.0371 -0.4485
21494SOL     OW68843   1.440   3.221   5.630 -0.8208  0.3546 -0.6772
21494SOL    HW168844   1.527   3.189   5.656 -0.7222 -1.4649 -2.9429
21494SOL    HW268845   1.455   3.265   5.547 -2.0853 -0.1686 -1.2092
21495SOL     OW68846   0.846  10.622   2.908 -0.1081  0.0519  0.8323
21495SOL    HW168847   0.778  10.608   2.975  1.3795 -0.1130  2.3804
21495SOL    HW268848   0.850  10.540   2.860 -0.1554 -0.3713  1.5409
21496SOL     OW68849   3.174   8.880   8.367 -0.1744 -0.0871  0.9446
21496SOL    HW168850   3.215   8.833   8.439 -0.6830 -0.1244  1.2130
21496SOL    HW268851   3.182   8.972   8.390 -0.8127 -0.1173  1.3182
21497SOL     OW68852  10.840   0.935   7.842  0.0133 -0.3349  0.0438
21497SOL    HW168853  10.927   0.930   7.804  0.0132  0.2431 -0.0346
21497SOL    HW268854  10.800   1.013   7.803 -0.0604  0.1615  1.0714
21498SOL     OW68855   5.423   8.323   4.932  0.1003 -0.0113  0.1655
21498SOL    HW168856   5.479   8.306   4.857  1.7427 -0.7399  1.4930
21498SOL    HW268857   5.472   8.386   4.985 -1.8915  2.0495 -0.2406
21499SOL     OW68858   5.108   6.996   9.381  0.1073  0.1211  0.0423
21499SOL    HW168859   5.117   7.069   9.443  1.2140  0.3880 -0.3959
21499SOL    HW268860   5.187   6.944   9.394  0.8291  0.6945 -1.7674
21500SOL     OW68861  10.860   1.719   0.709  0.2527 -0.0397 -0.3003
21500SOL    HW168862  10.833   1.810   0.696  1.4579  0.2553 -0.9130
21500SOL    HW268863  10.831   1.674   0.630  0.7063  0.0763 -0.5361
21501SOL     OW68864   9.875   5.758   0.375  0.2173 -0.6344  0.0799
21501SOL    HW168865   9.964   5.774   0.406 -0.4307 -0.0200  1.7879
21501SOL    HW268866   9.858   5.828   0.313  0.5593 -0.0821  0.5968
21502SOL     OW68867   7.946  10.018   9.072 -0.0716  0.1291 -0.1825
21502SOL    HW168868   7.878   9.953   9.088  0.6078 -0.5861 -0.1546
21502SOL    HW268869   7.936  10.082   9.143 -1.5181  0.7264 -0.8873
21503SOL     OW68870   7.900   6.891   9.218  0.3456 -0.0134 -0.9949
21503SOL    HW168871   7.966   6.913   9.283 -0.2303 -0.1226 -0.3713
21503SOL    HW268872   7.912   6.798   9.201 -0.4504 -0.3202  0.0446
21504SOL     OW68873   0.680   8.079   6.032  0.7245  0.1916  0.1254
21504SOL    HW168874   0.722   8.030   5.961  1.4106  0.6864  0.1843
21504SOL    HW268875   0.605   8.121   5.990 -0.0918 -1.1756  0.1484
21505SOL     OW68876  10.751  10.691   6.257 -0.3586 -0.0781 -0.0281
21505SOL    HW168877  10.817  10.755   6.230 -0.6068  0.5455  0.7588
21505SOL    HW268878  10.712  10.661   6.176  0.8945 -0.4744 -0.5135
21506SOL     OW68879  11.032   8.996   2.219 -0.4488 -0.8362 -0.2718
21506SOL    HW168880  10.951   8.951   2.242 -1.9458  1.3758 -0.8062
21506SOL    HW268881  11.063   9.035   2.301 -1.1993  0.1361 -0.4208
21507SOL     OW68882   2.630   7.053   5.524 -0.2960 -0.1279 -0.6596
21507SOL    HW168883   2.623   6.989   5.595 -0.1703  0.5521 -0.0239
21507SOL    HW268884   2.626   7.138   5.567 -1.3031  0.3192 -1.5674
21508SOL     OW68885   7.913   8.962   6.091  0.0817  0.1128 -0.0473
21508SOL    HW168886   7.899   9.019   6.166  2.0624  0.9269 -0.2459
21508SOL    HW268887   7.876   8.877   6.117  0.6748  0.4010  1.8128
21509SOL     OW68888  10.120   8.689   4.906  0.2370  0.5031 -0.4034
21509SOL    HW168889  10.191   8.625   4.913 -0.5860 -0.4221 -0.3283
21509SOL    HW268890  10.092   8.684   4.815  0.8050  1.4615 -0.6372
21510SOL     OW68891   5.774   0.132   7.859 -0.4033 -0.4305 -0.4674
21510SOL    HW168892   5.680   0.113   7.860 -0.7068  0.9833  0.3042
21510SOL    HW268893   5.793   0.152   7.767 -0.7973 -0.9648 -0.6702
21511SOL     OW68894   7.485  10.453   3.079 -0.1927  0.5376  0.0611
21511SOL    HW168895   7.497  10.452   3.173  1.7537  1.5362 -0.1409
21511SOL    HW268896   7.403  10.502   3.066 -0.6316  0.1462  1.2104
21512SOL     OW68897   7.936   5.710   9.942 -0.2967 -0.0268 -0.2025
21512SOL    HW168898   7.852   5.755   9.946 -1.0305 -1.4160  1.8112
21512SOL    HW268899   7.958   5.708   9.848 -0.7389  3.3730 -0.5147
21513SOL     OW68900   2.421   8.333   9.326  1.0670  0.1847 -0.3954
21513SOL    HW168901   2.474   8.405   9.359  1.0866 -0.6274  1.4545
21513SOL    HW268902   2.475   8.255   9.337  1.1141 -0.1543 -2.5255
21514SOL     OW68903   3.032   0.696   7.629  0.2049  0.4022  0.1010
21514SOL    HW168904   3.018   0.785   7.598 -0.6565  0.6603  1.1384
21514SOL    HW268905   3.126   0.689   7.644  0.1810  1.4497  0.8596
21515SOL     OW68906   9.657   7.480   7.458  0.0408 -0.1695 -0.4042
21515SOL    HW168907   9.680   7.402   7.508 -0.6285 -1.1799 -1.6071
21515SOL    HW268908   9.737   7.532   7.456  0.0323  0.0241  1.8505
21516SOL     OW68909   9.561   3.220   5.580  0.1645 -0.2496 -0.2159
21516SOL    HW168910   9.568   3.189   5.490  0.6182 -1.2015  0.1366
21516SOL    HW268911   9.485   3.278   5.580 -0.8520 -1.5467 -0.8430
21517SOL     OW68912  10.477   6.552   1.758 -0.0667 -0.5860  0.0515
21517SOL    HW168913  10.438   6.634   1.727  0.9589 -0.7874 -1.9972
21517SOL    HW268914  10.404   6.503   1.796 -0.4183  1.8840  2.8960
21518SOL     OW68915   2.209  10.417   5.385  0.2082  0.2212  0.0369
21518SOL    HW168916   2.289  10.385   5.342  0.5143  1.2995 -0.2262
21518SOL    HW268917   2.235  10.500   5.424 -1.2664  1.6114 -1.7757
21519SOL     OW68918   8.773   7.179   1.743  0.3256 -0.4906  0.1221
21519SOL    HW168919   8.790   7.124   1.667  3.4342 -0.2547  0.5413
21519SOL    HW268920   8.858   7.214   1.768 -0.7554  0.4361  2.9769
21520SOL     OW68921   8.189   0.491   1.489  0.1646  0.7793 -0.0932
21520SOL    HW168922   8.116   0.550   1.505  0.3933  0.8048  0.9544
21520SOL    HW268923   8.251   0.511   1.559  0.5795 -0.1609 -0.1815
21521SOL     OW68924   7.386   1.578   0.061  0.2762  0.1222  0.2755
21521SOL    HW168925   7.355   1.637   0.130  0.8658  0.2655  0.4301
21521SOL    HW268926   7.388   1.492   0.102 -0.5158  0.0075  0.0721
21522SOL     OW68927   8.773   6.360   0.901 -0.2661  0.4643 -0.1725
21522SOL    HW168928   8.844   6.387   0.843 -0.2133  0.4730 -0.1030
21522SOL    HW268929   8.729   6.289   0.853  0.2575 -0.0649  0.1257
21523SOL     OW68930   2.116   6.552   6.420 -0.9082 -0.2191 -0.3362
21523SOL    HW168931   2.051   6.482   6.428 -0.6650 -0.3378  0.6828
21523SOL    HW268932   2.068   6.633   6.436 -1.1911 -0.1251 -1.5222
21524SOL     OW68933   7.826   6.752   9.551 -0.1863 -0.5874 -0.0409
21524SOL    HW168934   7.752   6.806   9.580  0.6472 -0.9592  3.2732
21524SOL    HW268935   7.896   6.816   9.534  0.1543 -0.3894  1.7972
21525SOL     OW68936   3.843  10.723   9.640 -0.0130  0.4573  0.6330
21525SOL    HW168937   3.905  10.755   9.574 -2.2904  1.6547 -1.0662
21525SOL    HW268938   3.797  10.802   9.669 -0.3364 -0.3101  2.3562
21526SOL     OW68939   3.622  10.112   1.940  0.1305 -0.4499 -0.2880
21526SOL    HW168940   3.596  10.023   1.919  0.8254 -0.9191  0.7654
21526SOL    HW268941   3.583  10.129   2.026  1.0661 -0.2128  0.1021
21527SOL     OW68942   1.327   6.737   2.880  0.0316 -0.4642 -0.5092
21527SOL    HW168943   1.386   6.662   2.875 -0.5683 -0.9153 -0.9139
21527SOL    HW268944   1.256   6.708   2.938  0.5610  0.3223  0.5601
21528SOL     OW68945  10.369   6.702   5.657 -0.5678  0.0760  0.4388
21528SOL    HW168946  10.463   6.707   5.639 -0.9233  1.3409 -1.2995
21528SOL    HW268947  10.347   6.788   5.694 -1.4580  0.8302 -1.6513
21529SOL     OW68948   4.078   9.592   1.607  0.5184  0.0354  0.1130
21529SOL    HW168949   3.990   9.626   1.618 -0.2592 -1.2206 -1.6430
21529SOL    HW268950   4.128   9.629   1.679 -1.3608  1.0387  0.9615
21530SOL     OW68951   9.111   0.560   8.321 -0.1343  0.4776 -0.6469
21530SOL    HW168952   9.089   0.558   8.227 -2.2925  2.5368 -0.2849
21530SOL    HW268953   9.036   0.517   8.363  0.4297  0.3099  0.2026
21531SOL     OW68954  10.806   0.175   6.929 -0.5147  0.0716 -0.5676
21531SOL    HW168955  10.889   0.159   6.883 -0.0332 -0.4211  0.4347
21531SOL    HW268956  10.739   0.144   6.868 -0.1066  1.8676 -2.0468
21532SOL     OW68957   9.018   3.724  10.137  0.3463 -0.1513 -0.5362
21532SOL    HW168958   9.019   3.644  10.188  1.7895 -0.6559 -1.2940
21532SOL    HW268959   8.955   3.781  10.182  0.8064 -0.9477  1.1858
21533SOL     OW68960   9.476   7.749   6.701  0.7339  0.6717 -0.2721
21533SOL    HW168961   9.436   7.783   6.621 -0.4435 -1.7815 -0.8167
21533SOL    HW268962   9.515   7.825   6.743  0.0248  2.2862 -2.3941
21534SOL     OW68963   0.319   2.071   6.039 -0.0087 -0.0875  0.7490
21534SOL    HW168964   0.385   2.003   6.053 -0.8436 -0.8354  1.1631
21534SOL    HW268965   0.237   2.032   6.070 -0.2909  1.5708  2.2431
21535SOL     OW68966   1.537   7.066   3.478  0.2764 -0.2549  0.4383
21535SOL    HW168967   1.496   7.013   3.547 -0.6143  0.0347  0.1483
21535SOL    HW268968   1.551   7.005   3.406 -0.9207 -0.0824  0.0347
21536SOL     OW68969   3.137   2.532   2.381  0.7841 -0.2418 -0.3454
21536SOL    HW168970   3.112   2.461   2.441  0.6335  0.3764  0.3473
21536SOL    HW268971   3.094   2.610   2.418  2.1613  0.4867 -0.2274
21537SOL     OW68972   6.923   1.691  10.007  0.0712 -0.4364  0.0455
21537SOL    HW168973   6.834   1.706  10.039 -1.0204  0.9160 -3.1645
21537SOL    HW268974   6.913   1.687   9.912  3.4430 -0.4743 -0.4115
21538SOL     OW68975   1.775   0.499   2.281  0.7189 -0.3547 -0.7096
21538SOL    HW168976   1.719   0.513   2.204  1.2565  3.4755 -0.6088
21538SOL    HW268977   1.725   0.534   2.354  2.1626  0.7096 -0.1854
21539SOL     OW68978   1.219   2.145   8.989  0.4835 -0.3889 -0.0411
21539SOL    HW168979   1.145   2.185   8.945 -0.1387 -0.9637  0.4593
21539SOL    HW268980   1.181   2.101   9.065  1.3046 -0.9019  0.0864
21540SOL     OW68981   1.150  10.761   7.293  0.2114  0.4078 -0.2737
21540SOL    HW168982   1.228  10.717   7.327 -0.5046 -0.4482  0.2991
21540SOL    HW268983   1.077  10.708   7.324 -0.5292 -0.2703 -2.8831
21541SOL     OW68984   5.714   2.532  10.609 -0.3170  0.5843 -0.1680
21541SOL    HW168985   5.751   2.450  10.642 -1.5259 -0.6468 -1.6970
21541SOL    HW268986   5.620   2.515  10.602 -0.5318  1.9485 -1.0063
21542SOL     OW68987   1.335   6.081   1.174 -0.5734 -0.0474  0.2035
21542SOL    HW168988   1.319   6.156   1.118  0.3868 -0.6775 -0.9397
21542SOL    HW268989   1.332   6.005   1.116 -1.5299 -0.9250  1.3260
21543SOL     OW68990   5.895   6.168   9.640 -0.4787  0.4950 -0.0445
21543SOL    HW168991   5.904   6.113   9.718 -0.5269 -0.6628 -0.8292
21543SOL    HW268992   5.911   6.257   9.671 -2.1773  0.2800  1.6251
21544SOL     OW68993   7.158   5.268  10.166 -0.2471  0.2846 -0.1500
21544SOL    HW168994   7.202   5.353  10.161  1.2656 -0.4426  0.0477
21544SOL    HW268995   7.097   5.268  10.093 -2.1919  2.5373  1.3279
21545SOL     OW68996   4.902   7.918   1.631  0.1698 -0.4742 -0.0765
21545SOL    HW168997   4.819   7.925   1.584  0.4948  1.2102 -0.4802
21545SOL    HW268998   4.879   7.926   1.723 -0.0515  1.0593 -0.2375
21546SOL     OW68999   3.755   4.305   5.032  0.4159 -0.4697 -0.7713
21546SOL    HW169000   3.847   4.285   5.046 -0.0618 -1.3653  1.4715
21546SOL    HW269001   3.748   4.399   5.048  0.6467 -0.7370  1.0691
21547SOL     OW69002  10.630   8.802   4.274 -0.3022 -0.1290  0.4640
21547SOL    HW169003  10.645   8.854   4.195  0.0543 -1.1522 -0.1695
21547SOL    HW269004  10.540   8.770   4.265 -0.4319  0.1586  0.7221
21548SOL     OW69005  10.067   3.692   3.240 -0.0137 -0.1712 -0.4569
21548SOL    HW169006  10.137   3.738   3.285 -0.7845  2.4917 -1.7749
21548SOL    HW269007  10.006   3.761   3.213 -3.1896 -2.3097  0.5923
21549SOL     OW69008  10.206   9.109  10.803  0.4444  0.0910  0.0423
21549SOL    HW169009  10.256   9.185  10.832  0.9752 -0.3593  0.3309
21549SOL    HW269010  10.120   9.144  10.781  1.6710  1.4100 -3.2766
21550SOL     OW69011   0.112   9.909  10.865 -0.8471  0.0437  0.6599
21550SOL    HW169012   0.024   9.909  10.903 -0.6251 -0.8831  1.1939
21550SOL    HW269013   0.116   9.830  10.812 -0.1650 -0.1898  1.0476
21551SOL     OW69014   9.439   9.737   7.776  0.3620  0.1862 -0.0810
21551SOL    HW169015   9.365   9.692   7.735  0.1018  0.2981  0.2543
21551SOL    HW269016   9.495   9.668   7.810 -0.7902  0.0712  1.7856
21552SOL     OW69017   3.366   0.227   7.294  0.2948 -0.2291  0.2262
21552SOL    HW169018   3.283   0.227   7.342  0.4902  0.1147  0.5695
21552SOL    HW269019   3.391   0.319   7.289  0.3491 -0.2735 -0.4151
21553SOL     OW69020   2.896   3.668   4.128  0.2290 -1.0568  0.4556
21553SOL    HW169021   2.896   3.653   4.223 -0.1337  0.7347  0.7719
21553SOL    HW269022   2.947   3.748   4.117 -2.6139  0.7649 -0.4686
21554SOL     OW69023   6.214  10.632   0.946 -0.1906 -0.9617 -0.3950
21554SOL    HW169024   6.265  10.584   1.011 -0.7250 -2.0628 -0.7680
21554SOL    HW269025   6.240  10.594   0.862  1.1643  1.0379 -0.9662
21555SOL     OW69026   2.185   9.497   5.195 -0.2477  0.0407  0.2278
21555SOL    HW169027   2.155   9.495   5.285  0.6541 -3.9553  0.6037
21555SOL    HW269028   2.257   9.561   5.195  0.6168 -0.8062  2.7043
21556SOL     OW69029   8.982   2.178   7.568  0.3094  0.3173 -0.1634
21556SOL    HW169030   8.920   2.247   7.545 -0.5881 -0.3598  0.1518
21556SOL    HW269031   8.950   2.101   7.521 -0.3253 -0.5581  1.5873
21557SOL     OW69032   5.954   6.967   5.151  0.2121  0.2873 -0.3123
21557SOL    HW169033   5.961   7.033   5.082 -3.1325 -0.6148 -1.7342
21557SOL    HW269034   5.869   6.927   5.137  1.0434 -2.6807  2.0026
21558SOL     OW69035   1.726  10.390   0.782  0.7082  0.2376 -0.6010
21558SOL    HW169036   1.646  10.403   0.732 -0.0013 -1.4006  0.0429
21558SOL    HW269037   1.796  10.396   0.717  0.1196  2.1179 -1.0973
21559SOL     OW69038  10.493  10.958   2.997  0.2124 -0.3987  0.3095
21559SOL    HW169039  10.473  10.939   2.905 -0.3886 -0.5690  0.4632
21559SOL    HW269040  10.449  11.041   3.015  0.9953  0.0374  0.2341
21560SOL     OW69041   2.216   2.995   7.807  0.4658 -0.9374  0.5420
21560SOL    HW169042   2.181   3.084   7.812  0.0941 -1.0073 -0.4961
21560SOL    HW269043   2.156   2.943   7.861 -0.3954 -0.8519 -0.2903
21561SOL     OW69044   9.064   5.954  10.368  0.3288 -0.3547  0.9798
21561SOL    HW169045   9.045   5.892  10.298 -1.2242  0.5407  0.5623
21561SOL    HW269046   9.009   5.925  10.441  1.4098 -0.8680  1.6103
21562SOL     OW69047   4.559   1.235   5.060 -0.3862 -0.0043  0.2346
21562SOL    HW169048   4.559   1.251   4.965 -0.1710  0.7383  0.3576
21562SOL    HW269049   4.499   1.300   5.095 -1.1078 -0.8140  0.5317
21563SOL     OW69050   8.683   6.813   1.153 -0.1962 -0.0564  0.5432
21563SOL    HW169051   8.736   6.775   1.083  0.2659  0.9013  0.3532
21563SOL    HW269052   8.594   6.815   1.118  0.3202  2.1022 -0.7703
21564SOL     OW69053   9.262   8.900  10.445 -0.3985 -0.5000  0.0480
21564SOL    HW169054   9.345   8.885  10.492  1.2165 -0.8482 -2.6947
21564SOL    HW269055   9.232   8.813  10.420  0.0057 -0.2298 -1.4686
21565SOL     OW69056   2.804   3.622   2.352 -0.0819  0.2983  0.1941
21565SOL    HW169057   2.898   3.604   2.346 -0.0166  0.8373 -0.5463
21565SOL    HW269058   2.793   3.665   2.437  0.0546 -1.4003  1.1116
21566SOL     OW69059   2.711   2.227  11.000  0.1280 -0.1079 -0.3801
21566SOL    HW169060   2.737   2.295  10.938 -0.2688  1.0433  0.6921
21566SOL    HW269061   2.757   2.148  10.969  1.8164  0.9683 -0.7707
21567SOL     OW69062  10.247   1.460   2.953 -0.4903 -0.1692  0.0881
21567SOL    HW169063  10.228   1.383   2.899 -2.0624  0.4964 -0.3527
21567SOL    HW269064  10.339   1.479   2.935 -0.0087 -2.0433  0.3549
21568SOL     OW69065   1.578   9.798   8.908 -0.0908  0.6737  0.5432
21568SOL    HW169066   1.600   9.706   8.925 -1.7230  0.4041  1.4460
21568SOL    HW269067   1.488   9.807   8.940 -0.2319  2.4062 -0.2336
21569SOL     OW69068   3.674   7.662   4.353 -0.1159  0.3826  0.5021
21569SOL    HW169069   3.673   7.589   4.415  0.3826  1.2114  1.5082
21569SOL    HW269070   3.582   7.677   4.333 -0.2276 -0.5339  0.2447
21570SOL     OW69071   4.518   1.777   4.546 -0.0638 -0.6312 -0.2799
21570SOL    HW169072   4.532   1.868   4.521  0.8891 -0.4127  0.9409
21570SOL    HW269073   4.468   1.782   4.628 -1.9707 -1.2892 -1.3308
21571SOL     OW69074   4.088   7.781  10.151  0.4428  0.0185 -0.1548
21571SOL    HW169075   4.091   7.710  10.215  0.5652 -0.3548 -0.5739
21571SOL    HW269076   4.178   7.788  10.118  0.3771  0.1992 -0.3006
21572SOL     OW69077   7.387   9.820   7.125 -0.0320 -0.0496  0.5695
21572SOL    HW169078   7.464   9.765   7.116 -0.7125 -1.3662  2.2159
21572SOL    HW269079   7.412   9.886   7.190 -0.3947 -0.7537  1.4504
21573SOL     OW69080   0.986   6.463   6.615  0.2967  0.1112 -0.0775
21573SOL    HW169081   1.009   6.379   6.577 -1.7218 -0.2492 -0.5912
21573SOL    HW269082   1.028   6.528   6.558  0.7372 -0.5127 -0.4683
21574SOL     OW69083   9.526   7.905   4.040 -0.4975 -0.4044 -0.1002
21574SOL    HW169084   9.478   7.856   4.106 -0.0376 -2.3140 -1.1142
21574SOL    HW269085   9.502   7.864   3.957  0.1678  0.8957 -0.9792
21575SOL     OW69086  10.041   2.722   8.634 -0.0345  0.0421  0.8152
21575SOL    HW169087  10.091   2.644   8.608  0.3567  0.8528 -1.0796
21575SOL    HW269088  10.089   2.795   8.595 -2.6087  0.8584 -1.1186
21576SOL     OW69089   9.190   1.440   9.983 -0.6990  0.3201 -0.3594
21576SOL    HW169090   9.187   1.509   9.918 -0.2145  1.9526  1.2686
21576SOL    HW269091   9.277   1.447  10.022 -0.2889 -1.8138 -0.7343
21577SOL     OW69092   1.223   8.215  10.621  0.1190  0.0279  0.5314
21577SOL    HW169093   1.214   8.193  10.714 -1.8803  0.7084  0.5490
21577SOL    HW269094   1.301   8.270  10.618 -0.1520  0.5611  1.9585
21578SOL     OW69095   1.841   2.720   6.838 -0.7239 -0.3734  0.2470
21578SOL    HW169096   1.833   2.684   6.750 -0.8291  0.9669 -0.3273
21578SOL    HW269097   1.891   2.655   6.887  0.6445 -0.4838 -1.2198
21579SOL     OW69098   8.331   5.080   2.761 -0.1513 -0.0468 -0.0438
21579SOL    HW169099   8.306   5.040   2.844 -0.0655  0.2416  0.1219
21579SOL    HW269100   8.351   5.171   2.783 -1.2715  0.3542 -0.5669
21580SOL     OW69101   9.053   1.643   1.904 -0.4469 -0.0578 -0.4417
21580SOL    HW169102   8.983   1.614   1.963 -0.7317  2.3660  0.5298
21580SOL    HW269103   9.020   1.621   1.817 -1.8383 -0.2119  0.0849
21581SOL     OW69104   0.388   3.414   8.020 -0.1832  0.1883  0.6129
21581SOL    HW169105   0.333   3.458   7.955  1.3064 -2.1022 -2.4444
21581SOL    HW269106   0.477   3.444   8.001  0.3400 -0.8876  1.2428
21582SOL     OW69107   2.264   4.340  10.673  0.1241 -0.2918  0.4176
21582SOL    HW169108   2.245   4.248  10.694 -0.2706 -0.1296  0.7972
21582SOL    HW269109   2.177   4.380  10.666  0.2437  0.8921  3.9601
21583SOL     OW69110   1.781  11.059   9.398  0.2252 -0.1868  0.5283
21583SOL    HW169111   1.741  11.104   9.324 -0.1017  0.2120  0.9436
21583SOL    HW269112   1.861  11.108   9.416  0.9713 -1.0452 -0.3654
21584SOL     OW69113   0.343   4.074   2.725  0.9962  0.1561  0.2962
21584SOL    HW169114   0.424   4.126   2.723  0.2773  1.3056 -1.6018
21584SOL    HW269115   0.279   4.130   2.766  0.3639  0.5924 -1.2206
21585SOL     OW69116   0.930   3.721   4.038  0.0152  0.4000 -0.0374
21585SOL    HW169117   0.930   3.806   3.993 -1.3066 -0.1714 -1.1938
21585SOL    HW269118   0.840   3.689   4.030  0.5584 -1.2652  0.0787
21586SOL     OW69119   2.998   5.609   5.293  0.2804  0.6583  0.1617
21586SOL    HW169120   3.014   5.612   5.387 -0.1557  1.7340  0.2185
21586SOL    HW269121   3.048   5.683   5.258  3.5981 -1.8614 -0.9918
21587SOL     OW69122   1.301   9.022   3.070 -0.3794  0.5712 -0.3410
21587SOL    HW169123   1.361   9.017   2.996 -1.4778  1.5061 -1.3195
21587SOL    HW269124   1.340   8.963   3.135  0.9590  0.2421 -1.3813
21588SOL     OW69125   9.618   7.918   2.761 -0.2716  0.5249 -0.3989
21588SOL    HW169126   9.582   7.930   2.849 -0.3691  2.3652 -0.6577
21588SOL    HW269127   9.712   7.929   2.772 -0.2275  0.1811 -0.4342
21589SOL     OW69128   6.863   6.510  10.304 -0.1090 -0.3700 -0.3804
21589SOL    HW169129   6.918   6.559  10.243 -0.2455  0.3529  0.0621
21589SOL    HW269130   6.894   6.535  10.390  0.8427 -2.2546 -0.1167
21590SOL     OW69131   6.545   6.088   2.446 -0.3858 -0.1418 -0.0716
21590SOL    HW169132   6.593   6.092   2.528  0.4892 -0.0125 -0.5836
21590SOL    HW269133   6.555   5.998   2.416  2.6897  0.6952 -1.9976
21591SOL     OW69134   3.005   5.371   8.224 -0.3950  0.0514 -0.1560
21591SOL    HW169135   3.069   5.365   8.152 -0.8677  1.1090 -0.6918
21591SOL    HW269136   2.920   5.362   8.181 -0.7055  1.2292  0.1850
21592SOL     OW69137   4.068   5.151   5.323  0.2550  0.2482  0.1044
21592SOL    HW169138   4.056   5.245   5.332 -3.3372  0.1161 -1.6041
21592SOL    HW269139   3.990   5.113   5.364  1.3679 -1.9846  0.3052
21593SOL     OW69140   4.866  10.061   0.659  0.2108  0.0872 -0.3438
21593SOL    HW169141   4.862  10.157   0.649  0.6718  0.0761 -0.6299
21593SOL    HW269142   4.913  10.048   0.741 -0.0430  0.1047 -0.1924
21594SOL     OW69143   3.902   6.636   7.805 -0.0528 -0.2279  0.3470
21594SOL    HW169144   3.951   6.674   7.732 -3.1531  0.7183 -1.4167
21594SOL    HW269145   3.889   6.545   7.781 -0.7368 -0.0125 -0.1263
21595SOL     OW69146   3.346   0.461   8.148 -0.1216 -0.1344  0.0874
21595SOL    HW169147   3.329   0.452   8.055  2.3287 -1.0602 -0.3485
21595SOL    HW269148   3.426   0.411   8.163  0.7424  1.6969  2.2738
21596SOL     OW69149   1.331   6.336   9.096  0.4194  0.0955  0.2422
21596SOL    HW169150   1.357   6.400   9.030  0.1303  0.1198  0.1506
21596SOL    HW269151   1.366   6.370   9.178 -2.1919  1.9475  0.7340
21597SOL     OW69152   8.144  10.682   2.981 -0.5845  0.7984  0.4058
21597SOL    HW169153   8.067  10.728   3.012 -0.8411  1.8088 -1.5556
21597SOL    HW269154   8.129  10.670   2.887 -0.7163 -3.6892  0.7684
21598SOL     OW69155   5.225   7.973   6.646  0.0147  0.3537  0.0561
21598SOL    HW169156   5.161   7.935   6.585  0.5933  0.5753 -0.6928
21598SOL    HW269157   5.176   7.983   6.728 -0.9589  0.6688 -0.5506
21599SOL     OW69158   4.376   9.040   7.890  0.2746 -0.1420 -0.5756
21599SOL    HW169159   4.292   9.086   7.886  0.6454  0.6061 -0.0771
21599SOL    HW269160   4.414   9.066   7.974  0.7471 -0.9347 -0.5337
21600SOL     OW69161   3.579   1.517   2.637  0.7108 -0.4553  0.0913
21600SOL    HW169162   3.629   1.441   2.667  0.9609  0.0272  0.9389
21600SOL    HW269163   3.584   1.579   2.710 -0.2178  0.0324 -0.2454
21601SOL     OW69164   8.685   5.217   2.377  0.4304 -0.3427 -0.4830
21601SOL    HW169165   8.673   5.310   2.357 -0.3321 -0.4509 -0.5595
21601SOL    HW269166   8.610   5.195   2.433 -0.0260 -1.1821 -1.4062
21602SOL     OW69167   5.416  11.093   9.795  0.2084 -0.8454  0.1007
21602SOL    HW169168   5.495  11.145   9.784 -0.5649  0.4788  0.5567
21602SOL    HW269169   5.353  11.130   9.732 -0.4552 -1.0104  0.6481
21603SOL     OW69170  10.841   5.222   7.692  0.3680  0.1951 -0.0936
21603SOL    HW169171  10.922   5.270   7.677 -0.1541  0.9398 -0.5836
21603SOL    HW269172  10.788   5.239   7.614 -1.1738  1.6175  1.1895
21604SOL     OW69173   7.709   3.739   6.825 -0.0795 -0.4101 -0.0010
21604SOL    HW169174   7.775   3.726   6.893 -0.2205 -0.1397  0.1911
21604SOL    HW269175   7.748   3.702   6.746 -0.5837 -2.2619  0.5678
21605SOL     OW69176   0.537   6.867   2.952  0.7836 -0.0112  0.2368
21605SOL    HW169177   0.459   6.919   2.972  1.5288  1.1911  0.0758
21605SOL    HW269178   0.586   6.921   2.889  1.4565 -1.0174 -0.1215
21606SOL     OW69179   2.112  10.264   3.925 -0.0961  0.0056 -0.2427
21606SOL    HW169180   2.155  10.342   3.891  0.3125 -0.4983 -0.9116
21606SOL    HW269181   2.033  10.254   3.872  0.2133 -0.4223 -0.6317
21607SOL     OW69182   6.341   4.989   7.887  0.5186  0.6345 -0.6346
21607SOL    HW169183   6.408   5.056   7.871 -0.5993  1.6475 -1.2026
21607SOL    HW269184   6.321   4.953   7.801 -1.6540  2.3358 -0.9240
21608SOL     OW69185   0.776  10.835  10.154 -0.1674  0.0525  0.0471
21608SOL    HW169186   0.697  10.866  10.112 -1.3919 -1.1673  1.3259
21608SOL    HW269187   0.780  10.741  10.133  1.0489  0.1325 -0.1618
21609SOL     OW69188  10.517   2.251   9.968 -0.2411 -0.9540 -0.0592
21609SOL    HW169189  10.448   2.189   9.945 -0.5961 -0.5334 -0.1253
21609SOL    HW269190  10.540   2.229  10.058 -2.4406  0.7293  0.9751
21610SOL     OW69191   7.058   6.892   9.739 -0.0473 -0.1912 -0.8974
21610SOL    HW169192   7.027   6.980   9.760 -0.9428 -0.3242 -1.5948
21610SOL    HW269193   7.048   6.843   9.821  0.6748  0.4029 -0.4436
21611SOL     OW69194   0.571   2.583   1.685  0.1917  0.2143  0.3115
21611SOL    HW169195   0.533   2.664   1.717 -0.7050 -0.6616  1.5900
21611SOL    HW269196   0.515   2.514   1.721  0.6934 -0.9688 -1.0445
21612SOL     OW69197   7.366   5.954   3.622 -0.2141  0.0434  0.2575
21612SOL    HW169198   7.391   5.895   3.693 -1.1341 -0.1573  0.4268
21612SOL    HW269199   7.301   5.904   3.572  1.4448 -0.3929 -1.5789
21613SOL     OW69200   3.108  10.167   5.616  0.2762  0.4471 -0.2304
21613SOL    HW169201   3.053  10.113   5.560  1.0179 -0.5312 -0.0445
21613SOL    HW269202   3.085  10.141   5.705  2.1073 -1.1279 -0.1600
21614SOL     OW69203  11.012   1.019   7.189  0.0384 -0.2568 -0.0840
21614SOL    HW169204  11.023   1.067   7.107 -0.7443 -0.2989 -0.2216
21614SOL    HW269205  10.919   1.029   7.211  0.2673 -0.1318  0.8693
21615SOL     OW69206   1.157   3.056   6.306  0.2160  0.1244  0.1757
21615SOL    HW169207   1.229   3.115   6.284 -1.4768  2.4113  0.4583
21615SOL    HW269208   1.145   3.067   6.401  0.7055 -1.7335  0.4951
21616SOL     OW69209   4.478   2.137  10.268 -0.5018 -0.0512  0.2674
21616SOL    HW169210   4.472   2.110  10.360 -1.6686  0.5235  0.3711
21616SOL    HW269211   4.494   2.231  10.271 -2.1720  0.2759 -0.0968
21617SOL     OW69212   1.368   1.333   5.966  0.0178 -0.0245  0.4136
21617SOL    HW169213   1.429   1.263   5.944 -0.5476  0.1951 -2.1906
21617SOL    HW269214   1.301   1.291   6.020 -1.2854 -2.0707 -2.5297
21618SOL     OW69215   5.491   1.834   9.903 -0.4707  0.9537  0.1375
21618SOL    HW169216   5.412   1.885   9.921 -1.8711 -0.4847 -1.6463
21618SOL    HW269217   5.475   1.749   9.943  0.9772  1.1555  1.2741
21619SOL     OW69218   7.597   9.462   8.525 -0.5251 -0.1560  0.4046
21619SOL    HW169219   7.662   9.532   8.517  0.3878 -0.9603  0.5116
21619SOL    HW269220   7.566   9.468   8.615 -0.2223 -0.0704  0.5049
21620SOL     OW69221   4.216  10.496   0.023  0.3226  0.3431 -0.1356
21620SOL    HW169222   4.289  10.481  -0.037  1.2750 -0.4121  1.1621
21620SOL    HW269223   4.257  10.529   0.103 -0.9866  2.0178 -0.0961
21621SOL     OW69224   8.680   3.209   0.278 -0.7046 -0.4994  0.1121
21621SOL    HW169225   8.736   3.138   0.247 -0.5236  0.2171 -1.2872
21621SOL    HW269226   8.600   3.165   0.308  0.1319 -1.4325  1.0628
21622SOL     OW69227   7.480   1.780   2.600 -0.4240 -0.3243  0.6069
21622SOL    HW169228   7.558   1.727   2.587 -0.7692 -0.6770 -0.0716
21622SOL    HW269229   7.500   1.864   2.559 -0.5797 -0.5844 -0.0130
21623SOL     OW69230   3.353   2.466   4.209  0.7164 -0.0660  0.5321
21623SOL    HW169231   3.316   2.413   4.279 -0.0724 -0.3469 -0.0752
21623SOL    HW269232   3.437   2.426   4.190  0.6902 -0.3245  0.9385
21624SOL     OW69233   9.569   1.046  10.629  0.1843  0.0996 -0.2079
21624SOL    HW169234   9.554   1.135  10.598 -1.1270  0.0717  0.2543
21624SOL    HW269235   9.483   1.004  10.621  0.8975 -1.2643 -0.8658
21625SOL     OW69236   2.033   4.818   1.050 -0.0170 -0.1406  0.2895
21625SOL    HW169237   2.023   4.735   1.096  0.1517  0.1393  0.8363
21625SOL    HW269238   1.983   4.807   0.969 -1.0048 -0.3531  0.9084
21626SOL     OW69239   3.529   5.562  10.082  0.0377  1.3478  0.2453
21626SOL    HW169240   3.554   5.470  10.074  0.9094  1.6146 -0.1810
21626SOL    HW269241   3.580   5.607  10.015 -2.2025  1.8136 -1.2894
21627SOL     OW69242   5.766  10.955   3.963  0.3395  0.1964  0.0911
21627SOL    HW169243   5.693  10.892   3.959  0.2960  0.1915  0.7488
21627SOL    HW269244   5.741  11.015   4.033  1.0251  0.1242  0.4026
21628SOL     OW69245   4.188   5.943   4.988 -0.3379  0.1347  0.3027
21628SOL    HW169246   4.274   5.970   5.019  0.3045 -1.0818 -0.3384
21628SOL    HW269247   4.194   5.946   4.893 -1.1151  0.3563  0.2567
21629SOL     OW69248   1.053   9.401   1.227  0.3929  0.2278  0.6042
21629SOL    HW169249   1.111   9.325   1.225  0.6532  0.4192  0.8288
21629SOL    HW269250   1.093   9.461   1.290  0.2291  0.5848  0.3757
21630SOL     OW69251   3.241  10.042   3.611 -0.4245 -0.2145 -0.6034
21630SOL    HW169252   3.180  10.116   3.608 -1.5151 -1.1094 -1.3099
21630SOL    HW269253   3.278  10.045   3.700 -1.1356  0.6332 -0.3211
21631SOL     OW69254  10.758   9.459   0.464  0.1406  0.1849  0.1026
21631SOL    HW169255  10.731   9.510   0.540 -0.7399  2.1420 -1.4348
21631SOL    HW269256  10.772   9.524   0.395  2.2829 -1.3923 -1.0516
21632SOL     OW69257   3.606   6.233   9.522  0.2979 -0.5025 -0.7380
21632SOL    HW169258   3.518   6.198   9.509 -0.2012  1.0555 -1.7966
21632SOL    HW269259   3.636   6.192   9.603 -1.5713 -0.7233 -0.1137
21633SOL     OW69260   7.074   2.785   5.662  0.4079  0.3525  0.4510
21633SOL    HW169261   7.091   2.842   5.587 -1.4206 -0.4543 -0.6251
21633SOL    HW269262   7.091   2.697   5.630 -2.0132 -0.1644  0.3991
21634SOL     OW69263   3.756   7.407  10.858 -0.6890 -0.1751  0.1125
21634SOL    HW169264   3.848   7.422  10.881 -0.5746 -0.3317 -0.2231
21634SOL    HW269265   3.724   7.344  10.923 -0.7488  0.3790  0.6289
21635SOL     OW69266   7.750   8.203   3.358  0.1299  0.1220 -0.0728
21635SOL    HW169267   7.801   8.143   3.303  1.2249  1.3012 -0.4157
21635SOL    HW269268   7.668   8.216   3.310 -0.3978 -1.5453  0.3125
21636SOL     OW69269   5.965   5.127   5.769 -0.3248  0.5051  0.3252
21636SOL    HW169270   5.951   5.056   5.706  4.2799 -0.1381 -0.3176
21636SOL    HW269271   5.963   5.207   5.716  1.9119  0.0952 -0.4961
21637SOL     OW69272   4.795   4.347   5.781 -0.8304 -0.5862  0.5589
21637SOL    HW169273   4.830   4.307   5.861  1.7710  0.1751 -0.0970
21637SOL    HW269274   4.719   4.294   5.759  0.7393 -3.3651  1.3223
21638SOL     OW69275   6.926  10.231   1.844 -0.3568  0.0167  0.0764
21638SOL    HW169276   6.954  10.321   1.827  2.4018 -0.6867  0.3013
21638SOL    HW269277   6.953  10.215   1.935  0.4073 -1.4235 -0.3783
21639SOL     OW69278   2.951   8.145   8.181  0.3468  0.6331  0.0387
21639SOL    HW169279   3.027   8.146   8.123 -0.3928 -0.9365 -1.0389
21639SOL    HW269280   2.916   8.234   8.177  1.2917  0.9910 -0.5775
21640SOL     OW69281   7.097   6.457   0.725 -0.3093  0.2127 -0.5937
21640SOL    HW169282   7.098   6.509   0.645 -0.4207  0.4817 -0.4193
21640SOL    HW269283   7.040   6.383   0.704 -1.5635  1.0645 -0.2771
21641SOL     OW69284   3.563   6.351   4.741 -0.2306  0.0841  0.0854
21641SOL    HW169285   3.515   6.339   4.822 -1.8162 -0.3886 -0.8747
21641SOL    HW269286   3.519   6.425   4.698  0.1059 -0.1493 -0.6763
21642SOL     OW69287   3.018   0.864   5.591 -0.2879 -0.1951 -0.3436
21642SOL    HW169288   2.960   0.938   5.572 -1.9494 -1.7866 -1.8619
21642SOL    HW269289   3.090   0.874   5.530  0.3434  0.9939  0.5471
21643SOL     OW69290  10.270   5.510   5.484 -0.1036 -0.0792  0.1054
21643SOL    HW169291  10.314   5.587   5.447 -0.3945  0.0952  0.1219
21643SOL    HW269292  10.194   5.545   5.531  0.6399 -0.2293  1.4735
21644SOL     OW69293   8.097   8.164   1.046 -0.4121  0.3442  0.1246
21644SOL    HW169294   8.039   8.240   1.052  0.3086  0.7998  1.7709
21644SOL    HW269295   8.039   8.089   1.060 -0.7847  0.7314  0.7156
21645SOL     OW69296   6.805   4.582   5.959  0.7670  0.1580 -0.3233
21645SOL    HW169297   6.782   4.663   6.003  0.0418 -0.7448  1.0152
21645SOL    HW269298   6.740   4.574   5.888  1.0266  0.8739 -0.6511
21646SOL     OW69299   7.037   1.203  10.820  0.3638 -0.0476 -0.0586
21646SOL    HW169300   7.036   1.265  10.893 -1.0451 -1.0553  0.8252
21646SOL    HW269301   7.036   1.117  10.861  0.7836 -0.6539 -1.2742
21647SOL     OW69302   3.806  10.769   8.412  0.1985  0.8166 -0.0225
21647SOL    HW169303   3.737  10.761   8.478  0.8386 -0.1031  0.5727
21647SOL    HW269304   3.767  10.734   8.332 -0.0161  0.2464  0.3254
21648SOL     OW69305   9.445  10.142   8.994  0.3246  0.0830 -0.4716
21648SOL    HW169306   9.451  10.047   8.984  0.5528  0.2217 -1.7546
21648SOL    HW269307   9.468  10.158   9.086  0.1133 -1.1106 -0.1997
21649SOL     OW69308   9.112   1.339   8.328  0.1017 -0.5169 -0.1132
21649SOL    HW169309   9.020   1.340   8.355  0.4347  0.4531  1.1263
21649SOL    HW269310   9.111   1.357   8.234 -0.9304  0.8854  0.1384
21650SOL     OW69311   9.659   4.228  11.010 -0.0720 -0.0610 -0.4961
21650SOL    HW169312   9.708   4.154  11.046  1.2876  0.7371 -0.6299
21650SOL    HW269313   9.707   4.306  11.040  0.3807  0.6778 -2.9316
21651SOL     OW69314   5.782   8.582   2.139 -0.4960 -0.0951 -0.1802
21651SOL    HW169315   5.854   8.638   2.166 -1.3190  0.5230  0.7969
21651SOL    HW269316   5.819   8.493   2.139  0.1464  0.1663  0.7205
21652SOL     OW69317   4.844   5.743   3.838 -0.5378  0.2610  0.0238
21652SOL    HW169318   4.898   5.699   3.772  0.0823 -0.0554  0.7320
21652SOL    HW269319   4.796   5.810   3.789 -0.0693  0.0452 -0.7446
21653SOL     OW69320   7.984   4.277  10.999 -0.3434  0.2364 -0.3508
21653SOL    HW169321   8.022   4.203  10.952  0.2254  0.0708  0.3640
21653SOL    HW269322   8.057   4.317  11.045 -1.2818 -1.3103  2.7259
21654SOL     OW69323   2.443   6.971   2.871 -0.3032 -0.4188  0.6198
21654SOL    HW169324   2.496   7.051   2.873  0.1375 -0.6600 -0.4349
21654SOL    HW269325   2.370   6.989   2.930 -0.9191  1.2678 -0.5777
21655SOL     OW69326   9.496   5.585  11.031  0.5204 -0.1795 -0.0710
21655SOL    HW169327   9.466   5.664  11.075 -0.7531 -0.0534 -1.1019
21655SOL    HW269328   9.505   5.610  10.939 -1.0070 -1.4781 -0.6267
21656SOL     OW69329   9.935   6.700   3.310 -0.0901  0.5679  0.3154
21656SOL    HW169330   9.984   6.632   3.265 -0.0749  0.4147  0.5620
21656SOL    HW269331   9.846   6.665   3.316 -0.5016  1.2869 -1.0804
21657SOL     OW69332   7.831   3.496   7.592 -0.2535 -0.2199  0.0044
21657SOL    HW169333   7.806   3.433   7.525  1.1570 -0.2135 -0.5460
21657SOL    HW269334   7.915   3.465   7.626  0.1707  1.0228  0.1552
21658SOL     OW69335   4.676   9.574   4.301  0.1640 -0.0146  0.6012
21658SOL    HW169336   4.679   9.596   4.394 -0.8810 -0.2821  0.7156
21658SOL    HW269337   4.761   9.535   4.282  0.9332  1.3410  1.1015
21659SOL     OW69338   9.418   8.704  11.009 -0.4649  0.0436 -1.0575
21659SOL    HW169339   9.477   8.717  11.083 -0.9154  0.4973 -0.7680
21659SOL    HW269340   9.382   8.791  10.991  1.0578  0.3231 -3.0442
21660SOL     OW69341   8.918   6.183   4.454 -0.3488 -0.6914 -0.4413
21660SOL    HW169342   8.853   6.120   4.486 -2.8551  1.9433  0.0247
21660SOL    HW269343   8.879   6.219   4.375  1.4184 -0.2846 -1.1699
21661SOL     OW69344   8.055   5.734   0.785  0.3805 -0.8633  0.0406
21661SOL    HW169345   8.060   5.768   0.874  0.5552 -0.6935 -0.0320
21661SOL    HW269346   8.113   5.791   0.735 -0.3058 -0.4706 -0.3280
21662SOL     OW69347  11.054   9.685  10.087  0.0905  0.3829 -0.7136
21662SOL    HW169348  10.985   9.635  10.044  1.8345 -2.2038 -0.7740
21662SOL    HW269349  11.083   9.628  10.158  1.4385  1.8545 -0.0350
21663SOL     OW69350   5.328   1.241   1.499 -0.1318  0.1144  0.1925
21663SOL    HW169351   5.300   1.235   1.590 -1.6357 -1.2931 -0.3229
21663SOL    HW269352   5.335   1.335   1.482  0.7241  0.3930  1.8922
21664SOL     OW69353   0.773   5.280   6.659 -0.2549  0.2459  0.2992
21664SOL    HW169354   0.738   5.236   6.737 -0.1127 -0.6721 -0.1430
21664SOL    HW269355   0.802   5.209   6.602  1.3154  0.9456  0.1726
21665SOL     OW69356   5.704   5.222   2.187 -0.6403  0.4014  0.0683
21665SOL    HW169357   5.796   5.235   2.166 -0.4886  2.7121  1.7012
21665SOL    HW269358   5.658   5.284   2.130 -0.9457  0.7968  0.7255
21666SOL     OW69359   9.451  10.078  10.300  0.0407 -0.2518 -0.2190
21666SOL    HW169360   9.539  10.116  10.309 -0.2395  0.3308  0.1002
21666SOL    HW269361   9.467   9.990  10.266  0.6886  0.2728 -1.3523
21667SOL     OW69362   6.835   9.152   3.179 -0.3605  0.0005 -1.0422
21667SOL    HW169363   6.745   9.186   3.185 -0.4359 -0.3592  0.3274
21667SOL    HW269364   6.824   9.057   3.172 -0.1064  0.0715 -2.6034
21668SOL     OW69365   1.270   1.863   6.580  0.1026  0.4078 -0.3433
21668SOL    HW169366   1.249   1.867   6.487  0.7522 -0.2684 -0.5236
21668SOL    HW269367   1.234   1.945   6.616 -2.6657 -0.5824 -0.6509
21669SOL     OW69368   5.554   5.111   8.151  0.4961  0.2814  0.4784
21669SOL    HW169369   5.551   5.199   8.114 -0.5150 -0.2049 -0.6503
21669SOL    HW269370   5.606   5.061   8.088  1.1340  0.0658  1.1567
21670SOL     OW69371   9.702   1.763   6.986  0.3739 -0.4890 -0.3102
21670SOL    HW169372   9.713   1.824   7.059  1.6163 -0.2398 -0.6786
21670SOL    HW269373   9.786   1.766   6.940 -0.6910  0.0945 -2.3085
21671SOL     OW69374   9.035   7.316   1.766 -0.1906  0.2639  0.5037
21671SOL    HW169375   9.087   7.360   1.699 -1.1949  0.0386 -0.4516
21671SOL    HW269376   9.093   7.310   1.842  1.1341  0.0963 -0.5014
21672SOL     OW69377   5.144   6.562   5.146 -0.1308 -0.5918  0.2674
21672SOL    HW169378   5.229   6.518   5.137  0.2244  0.0396  0.4963
21672SOL    HW269379   5.083   6.491   5.168  0.6344 -0.8294  1.7166
21673SOL     OW69380   6.245   6.819   0.886  0.0837  0.3745 -0.6185
21673SOL    HW169381   6.327   6.865   0.870  0.4895 -0.5065 -1.1432
21673SOL    HW269382   6.270   6.727   0.889 -0.8947  0.0933 -0.8746
21674SOL     OW69383   2.630   3.747   4.969 -0.3783  0.9278  0.1567
21674SOL    HW169384   2.571   3.823   4.964 -1.2147  0.4982  2.2157
21674SOL    HW269385   2.571   3.673   4.986  0.5982  0.1445  0.1824
21675SOL     OW69386   3.773   7.730   5.001 -0.3144 -0.6181 -0.2908
21675SOL    HW169387   3.782   7.649   4.951 -0.0060 -0.1276 -1.0407
21675SOL    HW269388   3.692   7.719   5.050 -0.9023 -0.9069 -1.2969
21676SOL     OW69389   8.322  10.206   3.180 -0.2280 -0.3080  0.2426
21676SOL    HW169390   8.401  10.244   3.217  0.9592  1.0610 -3.2488
21676SOL    HW269391   8.251  10.263   3.209  0.5156  0.2573  0.9752
21677SOL     OW69392   3.928   5.009   7.074  0.5253 -0.0889  0.8544
21677SOL    HW169393   3.969   5.088   7.041  0.6475 -1.3568 -2.3616
21677SOL    HW269394   3.848   5.040   7.118  0.0666  1.8017 -1.1426
21678SOL     OW69395   5.311   0.522   5.632 -0.0648  0.0574 -0.2551
21678SOL    HW169396   5.405   0.519   5.615 -0.0260 -0.8459  0.0675
21678SOL    HW269397   5.271   0.503   5.548  0.0050  1.8113 -0.7070
21679SOL     OW69398  10.589   8.414   1.000 -0.5986  0.7156 -0.3534
21679SOL    HW169399  10.663   8.398   0.940  0.2885 -0.9313  1.0708
21679SOL    HW269400  10.542   8.488   0.962  1.1637  1.1048 -1.8999
21680SOL     OW69401   1.424   6.757  10.905  0.1906 -0.3197 -0.2984
21680SOL    HW169402   1.427   6.678  10.852 -2.0862 -0.8684  0.3033
21680SOL    HW269403   1.334   6.789  10.896  1.0730  2.3709 -0.7155
21681SOL     OW69404   4.707   8.679   3.446 -0.1557 -0.3560 -0.5719
21681SOL    HW169405   4.640   8.642   3.503  1.7334 -0.8440  1.4587
21681SOL    HW269406   4.730   8.608   3.385 -0.0445 -0.8772  0.0728
21682SOL     OW69407   5.174   7.471   3.362 -0.0624  0.0686  0.3771
21682SOL    HW169408   5.178   7.479   3.457 -1.4593  1.0605  0.3844
21682SOL    HW269409   5.127   7.549   3.334 -0.7509 -0.8209 -1.0246
21683SOL     OW69410   8.671   0.537   2.960 -0.0179 -0.0109 -0.0456
21683SOL    HW169411   8.686   0.629   2.939  1.5809 -0.1419  0.3947
21683SOL    HW269412   8.638   0.499   2.879  0.5347  0.6967 -0.6197
21684SOL     OW69413   2.027   8.497   3.601  0.2938 -0.2764  0.4872
21684SOL    HW169414   2.031   8.589   3.573  1.9419 -0.0266  1.4098
21684SOL    HW269415   1.955   8.460   3.550 -0.3639  1.5028  0.0258
21685SOL     OW69416   2.089   5.399   5.043 -0.1354 -0.2785  0.4725
21685SOL    HW169417   2.017   5.390   4.980 -0.5047 -2.2997  1.1103
21685SOL    HW269418   2.152   5.455   4.999 -1.3286  0.1128 -0.8227
21686SOL     OW69419  10.325   4.722  10.313 -0.1124 -0.6134  0.0539
21686SOL    HW169420  10.341   4.659  10.383  2.7940 -2.0823 -1.7549
21686SOL    HW269421  10.352   4.806  10.350  0.8769 -1.2737  0.8783
21687SOL     OW69422   6.237   4.515   0.101 -0.0564  0.3422  0.5625
21687SOL    HW169423   6.170   4.449   0.118  0.0304 -0.0555 -0.5389
21687SOL    HW269424   6.290   4.516   0.180 -1.4692  0.8103  1.5403
21688SOL     OW69425   8.775   3.325   1.395  0.0490 -0.3515  0.3481
21688SOL    HW169426   8.805   3.288   1.478  2.0091  0.7869  0.2237
21688SOL    HW269427   8.744   3.413   1.417  1.3718  0.2864 -0.1684
21689SOL     OW69428   5.954   8.405   7.904 -0.2536 -0.9686 -0.3149
21689SOL    HW169429   5.956   8.420   7.998 -2.0640 -1.7640 -0.1009
21689SOL    HW269430   5.864   8.377   7.886 -0.3553  0.5376 -2.5129
21690SOL     OW69431   2.385   3.426   9.756 -0.8441  0.1813  0.3636
21690SOL    HW169432   2.369   3.346   9.707  0.3159 -0.6107  1.2330
21690SOL    HW269433   2.479   3.424   9.776 -0.4423  2.4875 -0.8706
21691SOL     OW69434   4.849   1.214   1.862  0.0006 -0.0105 -0.4868
21691SOL    HW169435   4.828   1.293   1.913  0.1347 -0.1235 -0.2586
21691SOL    HW269436   4.877   1.150   1.927  1.2194  0.1882 -0.7906
21692SOL     OW69437   9.097   0.127   9.926 -0.0043 -0.2051  0.2779
21692SOL    HW169438   9.011   0.150   9.962 -0.4452  1.7547 -1.8151
21692SOL    HW269439   9.160   0.169   9.985 -0.4205 -1.5563  1.7593
21693SOL     OW69440   5.680   3.399   3.784  0.0229 -0.2462  0.5544
21693SOL    HW169441   5.687   3.366   3.873 -1.5846 -1.2421  0.3420
21693SOL    HW269442   5.629   3.480   3.792  1.1638  0.4857  0.6855
21694SOL     OW69443  10.879   2.417   9.807  0.0480  0.4126  0.0222
21694SOL    HW169444  10.885   2.322   9.802 -0.2098  0.3379  0.8910
21694SOL    HW269445  10.818   2.433   9.879  0.4971  1.2421  0.2282
21695SOL     OW69446   5.732   4.812   9.227 -0.5357 -0.7837 -0.0606
21695SOL    HW169447   5.667   4.743   9.237 -1.4151 -0.1090 -0.9656
21695SOL    HW269448   5.724   4.840   9.136 -0.8914  1.1716  0.5224
21696SOL     OW69449   6.034   6.178   1.916 -0.3044  0.1185 -0.2619
21696SOL    HW169450   6.071   6.218   1.837  0.1160  0.8542  0.2962
21696SOL    HW269451   6.109   6.137   1.959 -0.1363  1.4974  0.8037
21697SOL     OW69452   5.342   8.634   0.528 -0.2524 -0.0758 -0.3229
21697SOL    HW169453   5.324   8.670   0.615  0.6431 -1.6357  0.5626
21697SOL    HW269454   5.333   8.708   0.468 -0.3146  1.1644  1.1753
21698SOL     OW69455   5.866   8.018   3.772 -0.4552  0.2650  0.2911
21698SOL    HW169456   5.849   8.098   3.822 -1.3769 -0.7164  1.6040
21698SOL    HW269457   5.949   8.035   3.727 -1.1098  2.3247 -0.2581
21699SOL     OW69458   6.600   3.615   4.622 -0.0877 -0.2406  0.1733
21699SOL    HW169459   6.550   3.647   4.548 -1.0088 -0.0568  0.8576
21699SOL    HW269460   6.662   3.552   4.584 -0.6368 -0.2507 -0.7251
21700SOL     OW69461   0.282   4.232   6.001  0.5279 -0.4705  1.1219
21700SOL    HW169462   0.370   4.263   5.979 -0.1101 -0.2464 -1.4320
21700SOL    HW269463   0.257   4.178   5.926 -2.6678  1.9426  0.2388
21701SOL     OW69464  11.107   4.736   9.719 -0.7620 -0.1813 -0.0785
21701SOL    HW169465  11.180   4.674   9.723 -0.5015  0.0222 -1.2941
21701SOL    HW269466  11.135   4.810   9.774 -0.1139 -0.1797 -0.4001
21702SOL     OW69467   5.874   8.808   0.538  0.3800 -0.0330  0.1162
21702SOL    HW169468   5.925   8.749   0.594  1.3305  1.0602  0.4436
21702SOL    HW269469   5.834   8.750   0.473  0.3476 -1.1705  1.1047
21703SOL     OW69470   4.813   5.490   8.648 -0.2144 -0.3206  0.8187
21703SOL    HW169471   4.848   5.559   8.704 -1.1310  0.3549  0.5782
21703SOL    HW269472   4.817   5.526   8.560 -0.4054 -0.6895  0.6578
21704SOL     OW69473   4.226   6.167   6.783 -0.8783  0.1995  0.6459
21704SOL    HW169474   4.204   6.231   6.715  0.0923 -0.9898 -0.8671
21704SOL    HW269475   4.320   6.179   6.798 -0.5041 -1.3379 -0.2417
21705SOL     OW69476  10.462   2.597   8.218  0.5847 -0.5521  0.4770
21705SOL    HW169477  10.519   2.600   8.141  1.9117  2.5059  1.4076
21705SOL    HW269478  10.495   2.524   8.270  2.8832  0.3075  0.3518
21706SOL     OW69479   1.069   3.229   3.018 -0.5874  0.1015  0.2508
21706SOL    HW169480   1.065   3.192   3.106 -1.1229  0.2765  0.3023
21706SOL    HW269481   1.031   3.316   3.026  0.2029  0.4865  0.0269
21707SOL     OW69482   8.478   1.625   6.836  0.3096  0.1552  0.7313
21707SOL    HW169483   8.486   1.533   6.862  2.8401 -0.3262 -1.3177
21707SOL    HW269484   8.387   1.634   6.806  0.0314 -1.6836  0.9130
21708SOL     OW69485   1.110   6.327  10.605 -0.3916 -0.1720 -0.1887
21708SOL    HW169486   1.060   6.280  10.671 -0.0383 -0.4176 -0.0930
21708SOL    HW269487   1.064   6.411  10.595 -0.4468 -0.1322  0.3674
21709SOL     OW69488   4.857   8.594   8.566  0.2572 -0.4646 -0.0322
21709SOL    HW169489   4.952   8.595   8.558  0.1735  0.7808 -1.2270
21709SOL    HW269490   4.825   8.579   8.477 -0.6785 -0.9086  0.3603
21710SOL     OW69491   8.999   7.569   9.608 -0.1781  0.4121 -0.2105
21710SOL    HW169492   8.934   7.537   9.545  0.9017 -0.7271 -0.7913
21710SOL    HW269493   9.071   7.601   9.553  0.2708  0.5067  0.4268
21711SOL     OW69494   8.317   4.686   2.719  1.4362  0.4073  0.4523
21711SOL    HW169495   8.305   4.629   2.794 -0.4479  1.4622  1.0204
21711SOL    HW269496   8.307   4.629   2.643 -1.4249  0.0532  0.9864
21712SOL     OW69497   7.121   2.730   6.688  0.7734 -0.2488 -0.3342
21712SOL    HW169498   7.189   2.666   6.667  0.0944 -0.6954 -1.2479
21712SOL    HW269499   7.162   2.789   6.752  1.8163 -0.8490 -0.4290
21713SOL     OW69500  10.822   9.566   8.533  0.2848 -0.1955  0.5657
21713SOL    HW169501  10.801   9.602   8.447 -1.9018 -2.8882 -0.1924
21713SOL    HW269502  10.914   9.542   8.528  0.5168  0.8422 -0.5483
21714SOL     OW69503   1.632   8.082   1.170 -0.1320  0.0569  0.8287
21714SOL    HW169504   1.667   8.165   1.201  0.6232 -0.2109  0.7327
21714SOL    HW269505   1.540   8.100   1.149  0.4829  1.3578 -1.0207
21715SOL     OW69506   7.099  11.033   9.307 -0.4216 -0.2860  0.1037
21715SOL    HW169507   7.063  10.994   9.387  0.6895 -1.1914  0.1870
21715SOL    HW269508   7.110  11.126   9.329 -0.5129 -0.4465  0.8755
21716SOL     OW69509   3.393   6.762   3.341  0.0117  0.6051 -0.1072
21716SOL    HW169510   3.313   6.728   3.300 -0.4873  0.9457  0.5639
21716SOL    HW269511   3.389   6.857   3.326 -0.5502  0.8377  1.3131
21717SOL     OW69512   0.819   7.490  10.024  0.2310 -0.6321 -0.9466
21717SOL    HW169513   0.822   7.582  10.047 -0.8382 -0.7648 -0.2271
21717SOL    HW269514   0.792   7.489   9.932 -1.2270 -0.2532 -0.5402
21718SOL     OW69515   6.959   5.497   4.419 -0.0750 -0.6734 -0.4621
21718SOL    HW169516   6.948   5.534   4.332 -0.8982 -1.0841 -0.5467
21718SOL    HW269517   7.042   5.450   4.415  0.4640  0.2791 -0.6621
21719SOL     OW69518   0.270   1.262   0.412 -0.1225 -0.3605 -0.3454
21719SOL    HW169519   0.214   1.259   0.335 -2.3946  0.9294  1.1180
21719SOL    HW269520   0.280   1.355   0.431  0.1770 -0.6425  1.0245
21720SOL     OW69521   0.380   6.281   1.269 -0.1295  0.4257 -0.3923
21720SOL    HW169522   0.285   6.290   1.278 -0.2279  0.8238 -1.5653
21720SOL    HW269523   0.410   6.246   1.353 -1.3703 -0.1699 -0.1859
21721SOL     OW69524   3.977   2.031   7.036  0.0278 -0.0368 -0.4495
21721SOL    HW169525   3.964   1.980   6.956 -0.3380 -0.6955  0.0281
21721SOL    HW269526   3.967   2.122   7.008  3.0219 -0.0064 -1.8147
21722SOL     OW69527   6.672   9.174   8.192 -0.1974  0.2577  0.6895
21722SOL    HW169528   6.593   9.122   8.176 -1.2537  1.9685  0.1692
21722SOL    HW269529   6.703   9.143   8.278 -0.6757 -1.3276  0.3358
21723SOL     OW69530   3.955   3.274   3.044  0.2318 -0.1772 -0.2015
21723SOL    HW169531   4.023   3.259   3.109 -0.5742 -2.0449  0.3067
21723SOL    HW269532   3.916   3.187   3.030 -1.6351  0.7105 -0.9067
21724SOL     OW69533   1.304   5.340   4.547 -0.1596 -0.0603 -0.3470
21724SOL    HW169534   1.325   5.433   4.555  1.7583 -0.5040  0.3627
21724SOL    HW269535   1.349   5.311   4.468  0.7590 -0.7362  0.3985
21725SOL     OW69536   9.849   0.858   9.038 -0.0021  0.2529 -0.7238
21725SOL    HW169537   9.808   0.773   9.023  1.6750 -0.9015  0.7787
21725SOL    HW269538   9.782   0.908   9.085 -0.6424 -0.6134 -0.6861
21726SOL     OW69539   4.992   8.910   3.215  0.3777  0.1050 -0.3606
21726SOL    HW169540   4.965   8.999   3.235  0.8284 -0.3699  2.8438
21726SOL    HW269541   4.983   8.862   3.297 -2.2369 -3.5321 -2.4755
21727SOL     OW69542   7.096   3.212   0.713 -0.0638 -0.1606 -0.0086
21727SOL    HW169543   7.009   3.197   0.750  1.1325 -0.0302  3.2212
21727SOL    HW269544   7.156   3.165   0.772  2.2466  1.8165 -0.6009
21728SOL     OW69545   8.378  10.716   0.518 -0.1915  0.5153 -0.2681
21728SOL    HW169546   8.289  10.725   0.551 -0.2116 -1.4228  0.3518
21728SOL    HW269547   8.430  10.776   0.571 -0.4618 -1.4566  2.4650
21729SOL     OW69548   1.939  10.169   2.484 -0.3806 -0.4760  0.0574
21729SOL    HW169549   2.031  10.191   2.473 -0.0390 -1.4377  0.8402
21729SOL    HW269550   1.903  10.240   2.537  0.2391 -0.7562  0.8778
21730SOL     OW69551   8.377   0.374   9.792 -0.5697  0.2698 -0.7540
21730SOL    HW169552   8.371   0.454   9.738  1.1374  1.0589  0.1504
21730SOL    HW269553   8.400   0.406   9.879  0.5523 -1.2427 -0.4610
21731SOL     OW69554   7.123   0.543   1.893 -0.4258  0.2386  0.0601
21731SOL    HW169555   7.139   0.619   1.837  1.2096 -0.6950 -0.8166
21731SOL    HW269556   7.119   0.578   1.982 -1.9385  1.6025 -0.4967
21732SOL     OW69557   7.158   7.153   2.394 -0.1668 -0.4974  0.2767
21732SOL    HW169558   7.203   7.129   2.313 -0.5620  1.0619 -0.4535
21732SOL    HW269559   7.120   7.239   2.375 -2.2937 -1.1497  1.3143
21733SOL     OW69560   0.462   0.786   2.652  0.2376 -0.8169  0.2567
21733SOL    HW169561   0.533   0.728   2.623 -0.2419 -1.1370 -0.3210
21733SOL    HW269562   0.501   0.843   2.718  0.8743 -1.4012  0.3890
21734SOL     OW69563   9.639   1.747   5.977 -1.2359  0.4808  0.0308
21734SOL    HW169564   9.584   1.814   6.018  0.8539  0.5175  3.1002
21734SOL    HW269565   9.720   1.793   5.956 -0.1621 -0.8131  1.2229
21735SOL     OW69566   9.114   5.769  10.181  0.0483 -0.2464 -0.0911
21735SOL    HW169567   9.105   5.805  10.093 -0.3138 -0.7070 -0.2468
21735SOL    HW269568   9.208   5.769  10.198  0.1517 -0.5673 -0.6555
21736SOL     OW69569   7.703   7.963   2.569  0.1129 -0.5878  0.2735
21736SOL    HW169570   7.682   8.056   2.580 -0.7033 -0.5737 -1.0905
21736SOL    HW269571   7.796   7.962   2.548 -0.1437  0.0619 -0.9817
21737SOL     OW69572   3.861   6.341  11.070  0.0523 -0.4913 -0.0791
21737SOL    HW169573   3.882   6.409  11.006 -2.5983 -0.2060 -0.7688
21737SOL    HW269574   3.849   6.389  11.152 -2.6572  0.1078 -0.7390
21738SOL     OW69575   1.800   9.408   8.971  0.3777 -0.4166  0.0467
21738SOL    HW169576   1.779   9.332   8.917 -1.2665  0.2526 -0.3368
21738SOL    HW269577   1.717   9.455   8.979  0.6423 -0.2506  2.8511
21739SOL     OW69578   8.747   7.967   9.405  1.1832  0.2425  0.2539
21739SOL    HW169579   8.660   7.984   9.442  1.7184  0.9793  1.2030
21739SOL    HW269580   8.808   7.990   9.475  2.1049 -1.9266  0.2353
21740SOL     OW69581  11.067   1.847   4.629  0.4731  0.0918  0.9587
21740SOL    HW169582  11.047   1.780   4.694 -1.9823  1.3515  1.6052
21740SOL    HW269583  10.990   1.849   4.573  0.5760  2.2324  0.8385
21741SOL     OW69584   1.143   3.571   2.288 -0.1818 -0.0175  0.2455
21741SOL    HW169585   1.159   3.656   2.329  0.0680 -0.1099  0.3430
21741SOL    HW269586   1.188   3.508   2.345  0.4952 -0.1086 -0.3752
21742SOL     OW69587   3.599   7.639  11.006 -0.8753 -0.0023  0.1894
21742SOL    HW169588   3.640   7.615  11.089  0.9505 -1.1659 -0.9685
21742SOL    HW269589   3.510   7.604  11.011  0.4044 -3.6448  0.1830
21743SOL     OW69590   8.547   7.112   6.508  0.0940  0.0095 -0.4092
21743SOL    HW169591   8.613   7.128   6.440 -0.7173 -1.4688 -1.6206
21743SOL    HW269592   8.488   7.187   6.503  0.3314  0.1626 -0.9848
21744SOL     OW69593   6.414   3.368   7.550  0.0786  0.2431  0.4948
21744SOL    HW169594   6.394   3.444   7.496 -0.5007  0.5887  1.1719
21744SOL    HW269595   6.410   3.401   7.640  1.3695 -0.2389  0.7510
21745SOL     OW69596   6.104   1.379   8.987  0.3285 -0.0536 -0.1742
21745SOL    HW169597   6.082   1.381   8.894 -0.4543  1.1327  0.0220
21745SOL    HW269598   6.030   1.336   9.028  0.6503 -0.5277 -0.0733
21746SOL     OW69599   5.475   8.671   1.832  0.4469  0.4398 -0.0056
21746SOL    HW169600   5.526   8.592   1.843 -1.4670 -0.8409  0.2180
21746SOL    HW269601   5.487   8.720   1.914  0.9729 -0.0272  0.1944
21747SOL     OW69602  10.404   6.333   6.896 -0.1923  0.2415 -0.4841
21747SOL    HW169603  10.427   6.248   6.934 -0.2565 -0.4642 -1.9840
21747SOL    HW269604  10.309   6.334   6.895 -0.2059 -0.3709 -1.9301
21748SOL     OW69605   3.093   8.502   2.157 -0.1250  0.5248  0.5031
21748SOL    HW169606   3.073   8.429   2.099  1.5777 -1.0376  1.7857
21748SOL    HW269607   3.168   8.546   2.116  0.5922 -0.1255  1.0797
21749SOL     OW69608   1.844  10.552   9.939 -0.7962  0.5677 -0.6258
21749SOL    HW169609   1.808  10.464   9.946 -0.6967  0.4547 -1.3840
21749SOL    HW269610   1.789  10.606   9.995 -0.6123 -0.0495  0.1605
21750SOL     OW69611   7.713   0.936   2.698  0.8223 -0.1886 -0.7857
21750SOL    HW169612   7.681   0.868   2.757  2.1091 -0.2422 -0.1079
21750SOL    HW269613   7.635   0.967   2.652 -0.9754  2.0627  3.1801
21751SOL     OW69614   9.838   4.695   3.653 -0.2644 -0.0028  0.3172
21751SOL    HW169615   9.847   4.651   3.568 -0.6869 -1.0927  0.8057
21751SOL    HW269616   9.922   4.738   3.667 -0.3431  0.5787 -0.8547
21752SOL     OW69617   6.130   0.754   4.623 -0.3181 -0.0609  0.1640
21752SOL    HW169618   6.051   0.728   4.575 -0.6211 -1.5392  1.4023
21752SOL    HW269619   6.190   0.782   4.554 -1.5006 -0.0284 -0.9049
21753SOL     OW69620   3.188   6.086  10.087  0.4176 -0.1353 -0.0300
21753SOL    HW169621   3.106   6.123  10.054  0.9022  1.5173  0.5202
21753SOL    HW269622   3.181   6.094  10.183  1.4549  0.6031  0.0008
21754SOL     OW69623  10.017   5.015   6.547  0.2422  0.0287  0.0285
21754SOL    HW169624  10.071   5.014   6.626 -0.1347 -0.2503  0.2866
21754SOL    HW269625   9.988   5.106   6.539  0.8272  0.2024 -0.1692
21755SOL     OW69626   9.035   6.781   8.700  0.6425  0.1643  0.2368
21755SOL    HW169627   9.077   6.867   8.704  0.6836  0.1461  0.1990
21755SOL    HW269628   9.017   6.759   8.791 -1.0455  1.0398  0.1454
21756SOL     OW69629   1.978   4.057   8.692  0.4930  0.1810 -0.2553
21756SOL    HW169630   1.974   4.047   8.788 -3.1298  2.3779  0.0128
21756SOL    HW269631   2.005   4.148   8.680 -0.8966  0.4813 -1.2269
21757SOL     OW69632   9.191   3.205   5.109 -0.6710  0.6023  0.3085
21757SOL    HW169633   9.237   3.121   5.097 -3.4715 -0.8710 -1.2577
21757SOL    HW269634   9.259   3.271   5.094  0.9382 -1.3937 -2.2299
21758SOL     OW69635   2.490   9.874   3.742 -0.0757  0.0533  0.3654
21758SOL    HW169636   2.475   9.961   3.705  1.6124  1.4560  2.7075
21758SOL    HW269637   2.408   9.854   3.788 -0.8808 -0.1502 -1.0973
21759SOL     OW69638   2.828   7.622   3.550 -0.2486 -0.2953  0.5823
21759SOL    HW169639   2.752   7.656   3.502  1.6130 -0.0446 -2.4566
21759SOL    HW269640   2.830   7.529   3.528  0.2259 -0.3427  0.8264
21760SOL     OW69641   1.669   0.087   9.179 -0.4937 -0.4632  0.2803
21760SOL    HW169642   1.723   0.140   9.120  0.4882 -1.2219  0.4698
21760SOL    HW269643   1.631   0.020   9.123 -0.0063 -0.8481  0.4028
21761SOL     OW69644   7.473   8.793   5.595  0.0194  0.0849 -0.0365
21761SOL    HW169645   7.530   8.716   5.589 -1.9808 -1.8117  2.6890
21761SOL    HW269646   7.416   8.786   5.519 -1.1065 -2.1254  0.9064
21762SOL     OW69647   4.873   5.472   8.146  0.8651 -0.0080 -0.7873
21762SOL    HW169648   4.949   5.528   8.167  0.9634  0.3917 -2.0829
21762SOL    HW269649   4.812   5.532   8.103 -0.5450 -0.1604  0.9230
21763SOL     OW69650  10.363   5.181   4.258  0.7492 -0.5386  0.5643
21763SOL    HW169651  10.423   5.113   4.226  0.3611 -0.9416  0.6858
21763SOL    HW269652  10.276   5.143   4.248  0.4729  0.2219 -0.0596
21764SOL     OW69653   9.418   9.722   5.158 -0.4175 -0.0202 -0.3267
21764SOL    HW169654   9.431   9.682   5.072 -0.3289  2.0828 -1.3456
21764SOL    HW269655   9.327   9.702   5.181 -0.1763 -1.3736 -0.4310
21765SOL     OW69656   3.866   8.534   6.257 -0.2627 -0.1304  0.2064
21765SOL    HW169657   3.904   8.576   6.334  1.8132 -0.9738 -0.2921
21765SOL    HW269658   3.879   8.441   6.271 -0.8431 -0.3605 -0.6781
21766SOL     OW69659   8.436   1.330   0.935  0.0121 -0.3345 -0.4400
21766SOL    HW169660   8.368   1.266   0.956  0.5295 -0.4841  0.8458
21766SOL    HW269661   8.507   1.279   0.897  0.3579 -0.5226  0.4334
21767SOL     OW69662   8.564   2.532   9.724  0.1147 -0.0532 -0.2489
21767SOL    HW169663   8.632   2.496   9.780 -0.7339  0.3893  1.1194
21767SOL    HW269664   8.611   2.568   9.648  1.2666 -0.8732  0.0611
21768SOL     OW69665   2.305   9.939   7.781 -0.6116 -0.1923 -0.2678
21768SOL    HW169666   2.367  10.012   7.770  1.0174 -1.1405  1.9448
21768SOL    HW269667   2.244   9.970   7.847 -0.9229 -0.2434 -0.5300
21769SOL     OW69668   2.859   2.154   6.301  0.1106 -0.0870  0.4188
21769SOL    HW169669   2.809   2.110   6.232  1.0054  0.1648 -0.4090
21769SOL    HW269670   2.803   2.227   6.328  0.4791  0.8939 -1.3086
21770SOL     OW69671   7.187   0.540  10.473  0.0090 -0.2731  0.5211
21770SOL    HW169672   7.113   0.582  10.519 -0.0661  1.2436 -0.8787
21770SOL    HW269673   7.150   0.515  10.389  1.2592  1.3144 -0.5549
21771SOL     OW69674  10.481  10.538   8.474  0.2138 -0.2024 -0.4164
21771SOL    HW169675  10.395  10.531   8.434  0.6342  0.0690 -1.3852
21771SOL    HW269676  10.540  10.491   8.415  0.6029 -1.1627  0.6956
21772SOL     OW69677  10.348  10.908   3.890 -0.6334 -1.2302  0.0577
21772SOL    HW169678  10.291  10.841   3.852 -2.7543  0.4343  0.1227
21772SOL    HW269679  10.326  10.907   3.983 -0.9341 -0.2498  0.0074
21773SOL     OW69680   2.050   8.211   8.831  0.0599 -0.0450  0.1754
21773SOL    HW169681   2.121   8.196   8.768 -0.1728 -1.4844  0.2119
21773SOL    HW269682   2.008   8.291   8.802  0.1565 -0.5055 -1.3229
21774SOL     OW69683   9.491   7.825   3.566 -0.4326  0.2794  0.1839
21774SOL    HW169684   9.421   7.810   3.503  0.1127  0.4164 -0.4712
21774SOL    HW269685   9.565   7.775   3.531 -0.1574  0.2572  0.7851
21775SOL     OW69686   9.087   7.075  10.672  0.7253 -0.2123 -0.0367
21775SOL    HW169687   9.120   7.160  10.644  1.3861  0.0359  1.3903
21775SOL    HW269688   9.165   7.021  10.683  0.3840 -0.7106 -0.0396
21776SOL     OW69689   6.685  10.744   3.099  0.2984 -0.0166 -0.2540
21776SOL    HW169690   6.680  10.713   3.009 -0.7205 -0.3457 -0.0971
21776SOL    HW269691   6.678  10.665   3.152 -0.3080  0.2816  0.1253
21777SOL     OW69692   7.034   0.468   9.074 -0.3321  0.1274  0.4526
21777SOL    HW169693   7.018   0.502   8.986  0.5148  0.0496  0.2656
21777SOL    HW269694   7.095   0.396   9.062 -0.7407 -0.3217  1.0382
21778SOL     OW69695   8.663   0.852   1.797 -0.0775  0.0796  0.4551
21778SOL    HW169696   8.673   0.764   1.760  0.4429  0.5639 -0.6036
21778SOL    HW269697   8.742   0.865   1.848  0.0288  0.0821  0.2901
21779SOL     OW69698   3.871   5.839  10.505  0.0528 -0.0930 -0.1537
21779SOL    HW169699   3.783   5.863  10.534  0.4436  1.5632 -0.1995
21779SOL    HW269700   3.902   5.916  10.456  2.4669  0.4983  2.0337
21780SOL     OW69701   7.385   8.379   8.976  0.1768  0.0376  0.0937
21780SOL    HW169702   7.295   8.411   8.983 -0.3585 -1.4841  0.5212
21780SOL    HW269703   7.378   8.300   8.923  1.5187  0.8072 -1.2988
21781SOL     OW69704   3.729   0.801   6.606  0.3839  0.3081 -0.5933
21781SOL    HW169705   3.766   0.880   6.565  0.2183  0.7885  0.1632
21781SOL    HW269706   3.661   0.834   6.664  1.9727 -0.1504  1.6479
21782SOL     OW69707   5.668   6.191   0.310 -0.2746 -0.2879  0.1838
21782SOL    HW169708   5.712   6.106   0.314  0.0325 -0.1075  0.7546
21782SOL    HW269709   5.609   6.191   0.385  0.1114  0.2082  0.4974
21783SOL     OW69710   7.091   5.687   5.481  0.1227 -0.8771  0.6691
21783SOL    HW169711   7.145   5.747   5.429 -0.4528  0.5208  1.6176
21783SOL    HW269712   7.011   5.677   5.429  0.1393 -0.6728  0.6044
21784SOL     OW69713   1.711   4.333   4.130 -0.1411 -0.0479  0.3160
21784SOL    HW169714   1.648   4.339   4.201  0.7071  0.0662  1.0723
21784SOL    HW269715   1.796   4.351   4.171  0.2668  0.9351 -0.8884
21785SOL     OW69716  10.284   1.350   9.249 -0.4629 -0.0681  0.2642
21785SOL    HW169717  10.262   1.258   9.235 -1.1450 -0.0207  0.9650
21785SOL    HW269718  10.246   1.395   9.174  0.6803 -0.4478 -0.5788
21786SOL     OW69719   7.716   8.439   4.189 -0.2208 -0.2693 -0.1208
21786SOL    HW169720   7.664   8.365   4.218 -2.1227  0.8664 -0.4106
21786SOL    HW269721   7.806   8.420   4.217 -1.1191 -1.4363  2.1282
21787SOL     OW69722   5.243   9.522   0.935 -0.6235 -0.4774  0.2048
21787SOL    HW169723   5.327   9.553   0.900 -0.4399  1.4485  2.1101
21787SOL    HW269724   5.259   9.430   0.957  2.0116  0.4663  3.0259
21788SOL     OW69725   8.001  10.589   3.694  0.0561 -0.4788 -0.1489
21788SOL    HW169726   7.957  10.601   3.778  1.1332  0.1621  0.3448
21788SOL    HW269727   7.930  10.583   3.630 -0.8512 -2.4391  0.9494
21789SOL     OW69728   0.078   0.095   0.903  0.7078 -0.1969  0.0392
21789SOL    HW169729   0.077   0.128   0.813  0.5438  2.4647  0.9302
21789SOL    HW269730   0.119   0.008   0.897 -2.0586 -1.5098 -2.9733
21790SOL     OW69731   0.378   7.262   3.770  0.3200 -0.2398 -0.2689
21790SOL    HW169732   0.431   7.331   3.731 -2.7661  1.0101 -2.7070
21790SOL    HW269733   0.300   7.308   3.801  0.1125 -2.0916  2.2563
21791SOL     OW69734   3.315   8.008   5.805  0.0503 -0.0085  0.3926
21791SOL    HW169735   3.282   8.004   5.894 -0.2947  1.6456  0.3793
21791SOL    HW269736   3.247   7.968   5.752  0.5026 -1.5029  0.9088
21792SOL     OW69737   1.471   0.333  10.938  0.0388 -0.5701  0.4217
21792SOL    HW169738   1.549   0.278  10.943  0.8413  0.5419  0.4903
21792SOL    HW269739   1.399   0.276  10.966  0.6775 -1.8770 -0.5043
21793SOL     OW69740   4.304   7.537   0.381  0.4625  0.6751 -0.3047
21793SOL    HW169741   4.252   7.612   0.350  0.6541  1.5445  1.3747
21793SOL    HW269742   4.267   7.516   0.466  0.6179 -0.9855 -0.6143
21794SOL     OW69743   1.656   1.695   5.797  0.4435  0.3045  0.6456
21794SOL    HW169744   1.683   1.608   5.767 -0.5666 -0.3613  1.5908
21794SOL    HW269745   1.617   1.680   5.884 -1.8105  1.3528 -0.1082
21795SOL     OW69746   0.922   2.606   0.332 -0.1246 -0.0180  0.0071
21795SOL    HW169747   0.987   2.555   0.380 -1.5322  0.7184  2.9145
21795SOL    HW269748   0.842   2.597   0.383 -1.1784  2.6747 -0.9942
21796SOL     OW69749   7.420   4.847   8.521 -0.8225 -0.1659  0.4556
21796SOL    HW169750   7.405   4.937   8.494 -1.9012 -0.5938 -0.4796
21796SOL    HW269751   7.439   4.800   8.439  0.8106 -0.6112  1.0433
21797SOL     OW69752   3.407   3.911   4.265  0.0406  0.7615  0.4793
21797SOL    HW169753   3.398   4.003   4.241 -1.6909  0.9648  1.6986
21797SOL    HW269754   3.413   3.913   4.361 -1.5188 -0.4476  0.6345
21798SOL     OW69755   0.572   7.150   6.466 -0.0077 -0.0075 -0.3238
21798SOL    HW169756   0.599   7.126   6.378  0.8076 -1.2183  0.2232
21798SOL    HW269757   0.627   7.097   6.523 -0.6261  0.6367  0.9188
21799SOL     OW69758   6.822   5.539   0.624 -0.2598  0.1458 -0.0599
21799SOL    HW169759   6.837   5.451   0.588 -1.3130 -0.5113  1.0385
21799SOL    HW269760   6.842   5.531   0.717  0.3460  1.2765 -0.0702
21800SOL     OW69761   1.226   1.205  10.710 -0.0753  0.2512 -0.0277
21800SOL    HW169762   1.197   1.289  10.675 -1.3642 -0.2386 -0.1811
21800SOL    HW269763   1.218   1.144  10.637 -0.4601 -0.2751  0.4450
21801SOL     OW69764   8.196   0.524   2.623  0.8061 -0.2256 -0.2452
21801SOL    HW169765   8.254   0.576   2.679  1.0777 -0.4321 -0.3357
21801SOL    HW269766   8.158   0.459   2.682  1.1224 -0.4682 -0.3078
21802SOL     OW69767   4.988   9.741   3.238 -0.0072  0.1401  0.6951
21802SOL    HW169768   5.052   9.681   3.200 -0.1532 -0.1323  0.8720
21802SOL    HW269769   5.038   9.819   3.261  0.0101  0.4770 -0.4422
21803SOL     OW69770   1.337   1.463   6.281  0.1995  0.4734 -0.2359
21803SOL    HW169771   1.365   1.389   6.228 -1.7638 -0.8227  0.4173
21803SOL    HW269772   1.246   1.477   6.257  0.2883  2.1430  0.2851
21804SOL     OW69773   4.251   1.729   3.840  0.0094 -0.0185  0.2926
21804SOL    HW169774   4.301   1.702   3.763  0.4522  1.2819  0.0983
21804SOL    HW269775   4.165   1.754   3.805 -0.3963 -1.0890  0.4713
21805SOL     OW69776   0.109   1.497   9.788  0.3361  0.2214  0.4625
21805SOL    HW169777   0.074   1.578   9.750  1.2307  0.5719  0.3546
21805SOL    HW269778   0.048   1.429   9.760 -0.5423  0.8875  0.7309
21806SOL     OW69779   1.032   9.631   4.120  0.0758 -0.0683 -0.1393
21806SOL    HW169780   0.961   9.690   4.093  1.1922  1.8436  0.8524
21806SOL    HW269781   1.096   9.689   4.161  2.9100 -1.4612 -2.2663
21807SOL     OW69782   5.240  10.198   6.261  0.2029 -0.5275  0.4291
21807SOL    HW169783   5.204  10.287   6.254  0.2340 -0.4855  0.7914
21807SOL    HW269784   5.332  10.208   6.240  0.3594 -0.3520  1.1712
21808SOL     OW69785   2.397   3.208   4.913  0.4741 -0.0604 -0.2484
21808SOL    HW169786   2.428   3.272   4.849 -0.1167 -0.4178 -0.9037
21808SOL    HW269787   2.475   3.184   4.963  0.5382  1.9269  0.7139
21809SOL     OW69788   7.519   3.115   6.083 -0.5774 -0.3375  0.4064
21809SOL    HW169789   7.479   3.171   6.016  1.8748  1.3697  0.2360
21809SOL    HW269790   7.608   3.100   6.052 -0.5403 -2.7246  1.4788
21810SOL     OW69791   5.805   8.774   8.834 -0.2360  0.3908 -0.1217
21810SOL    HW169792   5.750   8.702   8.804 -0.1509 -0.6937  2.1369
21810SOL    HW269793   5.893   8.752   8.805 -0.4189  0.2838 -0.5972
21811SOL     OW69794  10.754  11.067   0.473  0.0064 -0.2826  0.0513
21811SOL    HW169795  10.686  11.065   0.540 -0.1286  0.5353 -0.0583
21811SOL    HW269796  10.812  10.994   0.496 -1.4721 -1.7092 -0.4709
21812SOL     OW69797   4.803   3.796   7.063  0.5037 -0.0751  0.8005
21812SOL    HW169798   4.823   3.705   7.085  0.3803 -0.0443  1.0482
21812SOL    HW269799   4.854   3.814   6.984  2.1143  0.2357  1.8616
21813SOL     OW69800   7.397   2.932   2.412 -0.2033 -0.1265 -0.0882
21813SOL    HW169801   7.483   2.968   2.435 -0.3299  0.9425 -1.1787
21813SOL    HW269802   7.417   2.855   2.359  0.0784  0.0563 -0.2487
21814SOL     OW69803   1.740   3.507   9.935 -0.1454  0.1658 -0.2076
21814SOL    HW169804   1.799   3.572   9.897  1.0906 -0.6381  0.2432
21814SOL    HW269805   1.655   3.526   9.896  0.5328  0.9824 -1.3792
21815SOL     OW69806   1.696   4.717  10.440 -0.1043 -0.4757  0.0318
21815SOL    HW169807   1.617   4.714  10.386  0.1142 -0.6324 -0.2876
21815SOL    HW269808   1.753   4.780  10.395 -0.4347  0.3998  0.8096
21816SOL     OW69809   1.437   8.929  10.135  0.0127 -0.4901 -0.5513
21816SOL    HW169810   1.401   8.840  10.135  0.1506 -0.5524 -1.6794
21816SOL    HW269811   1.532   8.917  10.130  0.3774 -0.3392  2.9645
21817SOL     OW69812   0.107   8.096   8.609 -0.1860 -0.2116 -0.3428
21817SOL    HW169813   0.141   8.108   8.521  2.2195  1.7020  0.7300
21817SOL    HW269814   0.144   8.012   8.638  1.6183  0.6115 -0.1292
21818SOL     OW69815   7.015   0.634   4.326  0.3989 -0.2648  0.3332
21818SOL    HW169816   7.079   0.674   4.384  0.9492 -2.1590  1.1070
21818SOL    HW269817   6.935   0.684   4.341  1.4957  1.7212 -0.1663
21819SOL     OW69818   8.293   7.123   3.176 -0.4210 -0.4366  0.2537
21819SOL    HW169819   8.275   7.056   3.110 -2.1363 -1.1250  1.3402
21819SOL    HW269820   8.309   7.073   3.256 -1.4264  0.4232  1.0139
21820SOL     OW69821   5.875   8.812   4.218 -0.5568 -0.1353  0.2260
21820SOL    HW169822   5.963   8.778   4.235 -0.4659 -0.0284 -0.0370
21820SOL    HW269823   5.864   8.806   4.123 -0.2666  1.2392  0.0836
21821SOL     OW69824   1.391   5.340   9.478  0.4750  0.7384  0.2287
21821SOL    HW169825   1.401   5.424   9.434  1.6593  0.4429 -0.1096
21821SOL    HW269826   1.301   5.313   9.459  0.2297  1.6945 -0.0442
21822SOL     OW69827   7.784  10.162   4.035  0.2433  0.5388 -0.0387
21822SOL    HW169828   7.808  10.118   4.117  1.5872  0.4780 -0.4410
21822SOL    HW269829   7.812  10.253   4.048 -0.0659  0.6570 -0.2052
21823SOL     OW69830   9.752   7.427   9.532  0.0177  0.0055 -0.0830
21823SOL    HW169831   9.665   7.448   9.565  0.2224  0.3870  0.2274
21823SOL    HW269832   9.779   7.351   9.584  0.4355  0.7525  0.8093
21824SOL     OW69833   5.422   9.939   7.614 -0.6910 -0.3117  0.1705
21824SOL    HW169834   5.478   9.994   7.670 -0.1903 -0.1412 -0.4881
21824SOL    HW269835   5.412   9.857   7.663 -1.1554  0.2335  1.0033
21825SOL     OW69836   9.400   7.106   6.667 -0.0180  0.8439 -0.2223
21825SOL    HW169837   9.425   7.107   6.575  1.5272  0.3566  0.1675
21825SOL    HW269838   9.435   7.024   6.701 -0.2984  1.1575  0.8770
21826SOL     OW69839   9.903   5.803   5.333  0.4686 -0.0405 -0.1578
21826SOL    HW169840   9.958   5.731   5.365 -0.4029 -1.4293 -1.6274
21826SOL    HW269841   9.844   5.822   5.407  1.0742 -0.4625  0.4458
21827SOL     OW69842   4.765   7.532   5.256  0.3272  0.2215  0.2793
21827SOL    HW169843   4.857   7.519   5.231 -0.4468 -2.3022 -1.7930
21827SOL    HW269844   4.742   7.618   5.220  1.2087 -0.3019 -1.7078
21828SOL     OW69845   9.985   5.495   7.843 -0.0796 -0.1431 -0.3403
21828SOL    HW169846   9.922   5.565   7.828  0.3011 -0.1214 -2.0673
21828SOL    HW269847   9.932   5.415   7.847 -0.2484 -0.1360 -1.8676
21829SOL     OW69848   7.837   5.609   0.098  0.2914  0.0272  0.0883
21829SOL    HW169849   7.899   5.557   0.048  1.2433  0.7381  0.4840
21829SOL    HW269850   7.752   5.590   0.059  0.7637 -0.9268 -0.5078
21830SOL     OW69851   9.470   4.763   7.596 -0.1931  0.4601  1.0965
21830SOL    HW169852   9.444   4.703   7.666 -2.0700  0.2312  0.2809
21830SOL    HW269853   9.557   4.734   7.570 -0.4184 -0.9109  1.7829
21831SOL     OW69854   1.362   1.372   2.179 -0.0929 -0.2202  0.4384
21831SOL    HW169855   1.450   1.409   2.174  0.4023 -1.4450 -0.3764
21831SOL    HW269856   1.323   1.390   2.094 -0.4385 -0.1454  0.6105
21832SOL     OW69857   9.374   3.668  10.072  0.4584 -0.6090 -0.4673
21832SOL    HW169858   9.302   3.725  10.043 -1.0792 -2.7867 -1.2056
21832SOL    HW269859   9.351   3.644  10.162  0.7260 -0.6114 -0.4006
21833SOL     OW69860   0.759   7.604   4.780  0.2713  0.3861  0.1016
21833SOL    HW169861   0.843   7.582   4.740  1.3301  1.6116  1.5486
21833SOL    HW269862   0.777   7.608   4.874 -1.2606  1.2630  0.3944
21834SOL     OW69863   0.090   8.528   0.136  0.6166  0.4356 -0.0072
21834SOL    HW169864   0.139   8.473   0.075 -0.8169  0.2997 -1.0908
21834SOL    HW269865   0.130   8.615   0.127  1.8239 -0.0505  0.4995
21835SOL     OW69866   5.696   2.227   2.981 -0.5417  0.3274 -0.1316
21835SOL    HW169867   5.702   2.179   3.063 -0.9846 -1.7673 -1.2508
21835SOL    HW269868   5.602   2.229   2.961 -0.2582 -2.2255 -2.1936
21836SOL     OW69869   2.066   9.726   1.700  0.3759  0.5590 -0.2039
21836SOL    HW169870   2.026   9.639   1.690  1.1396  0.3011 -1.2073
21836SOL    HW269871   2.016   9.782   1.641  2.7529 -0.2338 -3.2175
21837SOL     OW69872   5.442   9.873   9.197  0.2205  0.0926  0.6305
21837SOL    HW169873   5.367   9.850   9.251 -0.1847 -0.6854 -0.2185
21837SOL    HW269874   5.518   9.847   9.248 -0.1869 -1.6166  0.4244
21838SOL     OW69875   6.807   2.497   8.985 -0.3485  0.2343  0.1171
21838SOL    HW169876   6.815   2.581   9.029  0.8792  0.3530 -0.2867
21838SOL    HW269877   6.714   2.487   8.967 -0.5853  1.1916  0.7630
21839SOL     OW69878   5.881   6.030   5.811  0.1584  0.0042 -0.0313
21839SOL    HW169879   5.834   5.963   5.762 -0.4620 -0.8969  1.7515
21839SOL    HW269880   5.969   5.994   5.824  0.1014 -0.0664  0.1525
21840SOL     OW69881  10.005   8.573   7.898 -0.3489 -0.7524  0.4566
21840SOL    HW169882  10.010   8.669   7.901  0.2108 -0.7826  0.4623
21840SOL    HW269883  10.047   8.549   7.816  1.4164 -1.1163  1.4232
21841SOL     OW69884   1.273   2.268   5.387  0.0161 -0.1271  0.4351
21841SOL    HW169885   1.360   2.297   5.360  0.3980 -1.3726  0.2744
21841SOL    HW269886   1.287   2.226   5.472 -0.2424 -1.1912 -0.0295
21842SOL     OW69887   0.829   2.684   5.458  0.3439 -0.2779  0.4556
21842SOL    HW169888   0.898   2.625   5.430  1.1365  1.0789 -0.5521
21842SOL    HW269889   0.808   2.656   5.548  0.8332 -1.9129  0.0813
21843SOL     OW69890   7.860   2.817   1.537  0.1987  0.1993  0.2333
21843SOL    HW169891   7.813   2.733   1.537 -0.4048  0.5283  0.9722
21843SOL    HW269892   7.814   2.870   1.602  0.8463  0.9566  0.0821
21844SOL     OW69893   0.713   2.944   2.153 -0.6017 -0.2386 -0.3223
21844SOL    HW169894   0.743   2.955   2.243  2.0734 -2.2497 -0.8541
21844SOL    HW269895   0.704   3.034   2.120 -0.7855  0.5158  1.6537
21845SOL     OW69896   2.987   1.651   6.675  0.5173  0.4879  0.3723
21845SOL    HW169897   2.918   1.588   6.655  0.1970  0.7668  0.5782
21845SOL    HW269898   3.034   1.614   6.749  0.6602  0.2422  0.1583
21846SOL     OW69899   4.227   6.924   5.314 -0.0580  0.3420 -0.4390
21846SOL    HW169900   4.203   6.984   5.243  0.8412  0.9546 -0.2336
21846SOL    HW269901   4.303   6.878   5.281  0.7456  1.0704  0.3558
21847SOL     OW69902   8.356   6.929   6.470 -0.2148 -0.4492 -0.0696
21847SOL    HW169903   8.429   6.987   6.491  0.0225 -0.5080 -0.7192
21847SOL    HW269904   8.289   6.951   6.535 -0.0382  0.3850 -0.1566
21848SOL     OW69905   5.517   5.758   2.546  0.3936  0.6418  0.2172
21848SOL    HW169906   5.492   5.827   2.608  0.8644 -0.0589  1.2054
21848SOL    HW269907   5.572   5.803   2.481 -0.0969  1.3827  0.3069
21849SOL     OW69908   9.406   2.724   9.734  0.5009  0.2178 -0.1868
21849SOL    HW169909   9.387   2.765   9.650 -0.5766 -0.1969 -0.1594
21849SOL    HW269910   9.323   2.727   9.781  0.8258 -0.5205  0.4479
21850SOL     OW69911   9.957   9.158   7.109  0.2626 -0.4594 -0.4444
21850SOL    HW169912   9.956   9.110   7.026  0.3716 -1.5341  0.1654
21850SOL    HW269913   9.864   9.173   7.128  0.0856 -2.4614  0.4910
21851SOL     OW69914   4.006   7.059   1.197  0.3670 -0.0525 -0.3217
21851SOL    HW169915   3.924   7.102   1.221  0.1466 -1.0477  0.8380
21851SOL    HW269916   4.065   7.131   1.174 -0.7279  0.6988 -0.8908
21852SOL     OW69917   1.820   2.925   4.329 -0.4634 -0.6403 -0.0108
21852SOL    HW169918   1.879   2.994   4.299  0.2045 -1.4434 -0.5830
21852SOL    HW269919   1.736   2.947   4.289 -0.2522 -0.1807 -0.2120
21853SOL     OW69920   9.792   1.166   1.205 -0.2817 -0.7499  0.1495
21853SOL    HW169921   9.878   1.127   1.223 -0.5281 -1.6969 -0.6275
21853SOL    HW269922   9.734   1.125   1.269 -0.1370  0.0060  0.7763
21854SOL     OW69923   9.151   8.983   9.189  0.0385 -0.0108  0.3568
21854SOL    HW169924   9.229   8.969   9.244 -0.8106  0.8850  1.8517
21854SOL    HW269925   9.085   8.924   9.226 -0.9946  1.6538  1.3200
21855SOL     OW69926   6.766   7.838   2.400  0.5400 -0.5853 -0.5962
21855SOL    HW169927   6.712   7.850   2.478  1.0656 -0.2292 -0.2874
21855SOL    HW269928   6.851   7.875   2.423  0.0156  1.8466 -2.1677
21856SOL     OW69929  10.157   4.740   5.251  0.6883  0.3424 -0.3711
21856SOL    HW169930  10.155   4.682   5.327 -0.0508 -0.3631 -0.9101
21856SOL    HW269931  10.229   4.801   5.269  1.4396 -0.6958  0.2387
21857SOL     OW69932   8.175   9.893   4.012  0.0349 -0.3965 -0.5827
21857SOL    HW169933   8.213   9.885   4.100 -0.4647  1.6257 -0.1284
21857SOL    HW269934   8.096   9.839   4.016 -0.4333  0.3389  0.5001
21858SOL     OW69935   5.309   9.932   5.209 -0.2821 -0.1750  0.0798
21858SOL    HW169936   5.371   9.889   5.149  2.1334  3.5430 -0.4217
21858SOL    HW269937   5.223   9.902   5.179  1.0308 -4.3063 -0.2749
21859SOL     OW69938   2.512   6.356   7.536  0.1574  0.1087 -0.4292
21859SOL    HW169939   2.515   6.322   7.625 -1.2555 -1.4641 -0.9140
21859SOL    HW269940   2.545   6.284   7.482 -0.6563  0.3553 -1.2953
21860SOL     OW69941   9.322   1.867   5.909  0.3931 -0.2468 -0.0276
21860SOL    HW169942   9.403   1.911   5.934  0.7867 -0.0431 -1.5977
21860SOL    HW269943   9.253   1.929   5.930  0.8713  0.7509 -1.3362
21861SOL     OW69944   5.618   1.958   3.377 -0.4050 -0.1596 -0.0164
21861SOL    HW169945   5.544   1.937   3.434 -0.5910  0.0494 -0.1773
21861SOL    HW269946   5.675   1.881   3.381 -0.1858  0.0387  0.8227
21862SOL     OW69947  10.190   1.872   5.107  0.0922  0.4677  0.3874
21862SOL    HW169948  10.113   1.816   5.121  0.0316  0.8092  1.4672
21862SOL    HW269949  10.264   1.818   5.134  0.0051  0.9981  1.7742
21863SOL     OW69950   7.812   1.964   9.682  0.1595 -0.0774  0.1602
21863SOL    HW169951   7.841   2.030   9.620  2.3929  1.3904  2.5501
21863SOL    HW269952   7.716   1.970   9.681  0.2247  1.4045 -1.4883
21864SOL     OW69953   6.173   9.240   5.311  0.0717 -0.4805  0.5181
21864SOL    HW169954   6.187   9.266   5.402 -0.2443 -1.4849  0.8601
21864SOL    HW269955   6.235   9.169   5.297  1.6727  1.0691 -0.7283
21865SOL     OW69956   1.976   3.704   2.917 -0.3720  0.0090 -0.5058
21865SOL    HW169957   1.994   3.621   2.873  0.8133  0.4023 -0.8064
21865SOL    HW269958   1.908   3.684   2.980 -1.1790 -0.8628 -1.6165
21866SOL     OW69959   7.524   5.260   3.660  0.1234  0.4416  0.9844
21866SOL    HW169960   7.598   5.201   3.675  1.4955  1.2314 -1.9057
21866SOL    HW269961   7.562   5.335   3.614 -2.4498  0.8576 -0.6492
21867SOL     OW69962   1.313  10.758   5.757 -0.1336  0.1252  0.3849
21867SOL    HW169963   1.263  10.702   5.817  1.3594 -2.2346 -0.4150
21867SOL    HW269964   1.335  10.835   5.808 -2.5231  0.1627  1.4819
21868SOL     OW69965   1.342   4.531   8.602  0.1259 -0.3085 -0.1109
21868SOL    HW169966   1.358   4.507   8.511 -2.8927  2.8739 -1.6663
21868SOL    HW269967   1.263   4.482   8.626  0.9497 -1.1956  0.9257
21869SOL     OW69968   9.076   1.694   3.607 -0.2094 -0.0686 -0.8021
21869SOL    HW169969   9.161   1.651   3.620 -0.8770 -1.1911  0.0219
21869SOL    HW269970   9.074   1.715   3.514  1.7360  1.6752 -0.5042
21870SOL     OW69971   8.490   2.989   5.815 -0.1003 -0.2324 -0.0228
21870SOL    HW169972   8.451   2.910   5.852 -0.5627 -0.3888 -0.8083
21870SOL    HW269973   8.476   2.980   5.721 -2.3558  1.8936 -0.0022
21871SOL     OW69974   8.184   5.878   9.279  0.1644  0.2028  0.0450
21871SOL    HW169975   8.189   5.794   9.325 -0.0316  0.7199  1.0268
21871SOL    HW269976   8.220   5.859   9.192 -1.2791 -1.2604 -0.2820
21872SOL     OW69977   1.065  10.597  10.757 -0.7517  0.6037 -0.0358
21872SOL    HW169978   1.122  10.525  10.783 -0.2636  0.8246 -0.4690
21872SOL    HW269979   0.989  10.591  10.815 -1.6122 -1.3765 -1.2745
21873SOL     OW69980  10.954   3.014   6.637 -0.0351  0.6646 -0.0467
21873SOL    HW169981  10.969   3.057   6.721 -0.0564  0.3742  0.1092
21873SOL    HW269982  10.861   2.991   6.638  0.3331 -0.9600  0.6414
21874SOL     OW69983   3.005   1.077   9.709 -0.1962  0.4958 -0.0441
21874SOL    HW169984   2.997   1.145   9.643  0.5489  0.9930  0.3616
21874SOL    HW269985   2.947   1.007   9.679 -0.9592  1.2982 -0.4706
21875SOL     OW69986   6.412   2.664   3.168 -0.1504  0.6128 -0.0524
21875SOL    HW169987   6.350   2.592   3.167 -0.0114  0.4985 -0.4477
21875SOL    HW269988   6.479   2.639   3.104 -0.7104  1.6335 -1.0747
21876SOL     OW69989  10.990   9.749   0.553  0.4438 -0.1864  0.0420
21876SOL    HW169990  11.012   9.661   0.583 -0.0858  0.0794  1.2567
21876SOL    HW269991  10.922   9.780   0.614 -1.9549 -0.2465 -2.3939
21877SOL     OW69992   9.096  11.087   4.201  0.2641 -0.1395 -0.3934
21877SOL    HW169993   9.010  11.089   4.160  0.8708 -1.4109 -1.8356
21877SOL    HW269994   9.103  11.000   4.238  0.6120  0.2548  0.5054
21878SOL     OW69995   9.557  10.570   2.847  0.3300 -0.6035  0.1449
21878SOL    HW169996   9.466  10.572   2.875  0.1664 -0.1790 -0.4085
21878SOL    HW269997   9.555  10.546   2.755  0.8129 -1.1070  0.2587
21879SOL     OW69998   3.915   8.307   7.298 -0.5629 -0.4665  0.9168
21879SOL    HW169999   3.931   8.235   7.237  1.4902  0.2757  0.4707
21879SOL    HW270000   3.918   8.267   7.385  0.5777 -0.9608  0.6738
21880SOL     OW70001   1.866   5.263   1.136  0.4526  0.2047  0.3624
21880SOL    HW170002   1.931   5.213   1.086 -0.3295 -1.3864  0.8908
21880SOL    HW270003   1.813   5.307   1.069 -0.1011 -1.2747 -0.1970
21881SOL     OW70004   6.476   2.932   6.424 -0.4939  0.7752  0.5527
21881SOL    HW170005   6.524   2.864   6.472 -0.1408 -0.1058 -0.9991
21881SOL    HW270006   6.408   2.885   6.377 -1.0869  1.6700  0.4958
21882SOL     OW70007   6.279   5.798   6.437 -0.4358 -0.1611  0.0610
21882SOL    HW170008   6.308   5.717   6.397 -0.5517  0.4644 -1.3446
21882SOL    HW270009   6.188   5.808   6.410 -0.3251  0.6020 -0.0758
21883SOL     OW70010   4.987  10.030   9.223 -0.0929 -0.7335 -0.8842
21883SOL    HW170011   4.992   9.940   9.256 -0.6766 -0.5796 -0.3531
21883SOL    HW270012   4.903  10.062   9.254  0.6525  0.4166  0.0105
21884SOL     OW70013   0.346   7.234   0.137 -0.1859 -0.1454  0.0105
21884SOL    HW170014   0.358   7.274   0.051  1.1630  0.2475  0.3523
21884SOL    HW270015   0.418   7.269   0.189  0.4254 -2.2275  0.6410
21885SOL     OW70016   0.684  11.063   8.954 -0.0968 -0.0293 -0.1210
21885SOL    HW170017   0.747  11.127   8.921 -1.1652  0.2752 -1.6877
21885SOL    HW270018   0.632  11.112   9.018  0.2292  0.1550  0.0069
21886SOL     OW70019   6.777   2.873   3.332 -0.2092  0.3091  0.3774
21886SOL    HW170020   6.795   2.950   3.386  1.2276 -0.3117  0.8301
21886SOL    HW270021   6.821   2.890   3.249 -2.2567  1.1770 -0.5909
21887SOL     OW70022   4.714   3.214   5.449 -0.0716  0.6900 -0.7284
21887SOL    HW170023   4.746   3.302   5.432  0.8827  1.1994  2.7834
21887SOL    HW270024   4.623   3.226   5.476 -0.2053  0.4761 -1.0754
21888SOL     OW70025   0.130   8.609   6.514  0.2562 -0.0877 -0.3249
21888SOL    HW170026   0.046   8.562   6.509  0.3478 -0.1936 -1.0383
21888SOL    HW270027   0.193   8.543   6.542 -0.2512  0.4780  2.3977
21889SOL     OW70028   8.118   9.776   1.121 -0.3491  0.0781 -0.0116
21889SOL    HW170029   8.179   9.704   1.104  0.5647  0.4597  1.4842
21889SOL    HW270030   8.031   9.737   1.113  0.1000 -0.7931 -0.8338
21890SOL     OW70031   4.004   4.667   9.333  0.3277  0.7487 -0.3282
21890SOL    HW170032   4.023   4.704   9.247  1.5104  0.7881 -0.0634
21890SOL    HW270033   4.089   4.638   9.366  0.0203  1.4627  1.1591
21891SOL     OW70034   6.877   1.722   8.405 -0.3531  0.2792 -0.1749
21891SOL    HW170035   6.956   1.777   8.402  0.5774 -0.8975  1.3655
21891SOL    HW270036   6.810   1.777   8.444 -0.3712  1.3555 -1.6569
21892SOL     OW70037   0.294  10.768   1.777  0.5545 -0.4268  0.5684
21892SOL    HW170038   0.366  10.718   1.738  0.3386 -0.9235  0.8043
21892SOL    HW270039   0.223  10.762   1.714  0.1579 -1.3480  1.0858
21893SOL     OW70040   7.034   2.914   6.507 -0.0328  0.2179  0.4098
21893SOL    HW170041   6.996   2.974   6.571  0.5011  1.8964 -0.7757
21893SOL    HW270042   7.084   2.851   6.559 -1.6968 -0.0326  1.7685
21894SOL     OW70043   8.081  10.614   9.184  0.1883 -0.4221 -0.2144
21894SOL    HW170044   8.012  10.655   9.236 -0.2730 -1.5627  0.0773
21894SOL    HW270045   8.048  10.527   9.163  1.9421 -1.4224  0.8614
21895SOL     OW70046   3.113   1.623   3.059  0.2841 -0.3475  0.2025
21895SOL    HW170047   3.189   1.663   3.103 -0.7736  1.1976  0.7050
21895SOL    HW270048   3.039   1.643   3.116 -0.5398 -1.6938 -0.3681
21896SOL     OW70049   8.100   5.185   6.499 -0.3872  0.1866 -0.2796
21896SOL    HW170050   8.149   5.237   6.435  1.3382  1.0821  1.6454
21896SOL    HW270051   8.114   5.231   6.582 -0.7674 -2.0803  1.1160
21897SOL     OW70052   6.164   5.506   7.197 -0.2328 -0.0391  0.2560
21897SOL    HW170053   6.223   5.430   7.200 -1.1676 -0.7766  1.0598
21897SOL    HW270054   6.153   5.531   7.289  0.5713  1.5099 -0.0382
21898SOL     OW70055   5.850   3.192   6.493  0.1610 -0.0461  0.5122
21898SOL    HW170056   5.896   3.127   6.441  0.5497  0.0126  0.7831
21898SOL    HW270057   5.904   3.204   6.571 -0.4396 -0.1672  0.9549
21899SOL     OW70058   6.577   9.226  11.095  0.2501  0.1180  0.0736
21899SOL    HW170059   6.489   9.188  11.102  0.5920 -1.0199 -1.3666
21899SOL    HW270060   6.615   9.184  11.018  1.8802  0.9733  0.3762
21900SOL     OW70061  10.973   4.894  11.004  0.5637 -0.2552 -0.2843
21900SOL    HW170062  11.006   4.901  11.094  2.3032  3.7176 -0.9900
21900SOL    HW270063  10.895   4.840  11.011  0.7697 -0.3339  3.5690
21901SOL     OW70064   8.168   7.912   1.591  0.0670  0.2917  0.1563
21901SOL    HW170065   8.140   7.900   1.682 -3.1098 -0.8144 -0.8338
21901SOL    HW270066   8.141   8.001   1.570 -0.2468  0.1546 -0.0244
21902SOL     OW70067   0.753  10.503   5.091  0.0784  0.6168 -0.0718
21902SOL    HW170068   0.772  10.460   5.008  2.4006 -1.5155  1.4064
21902SOL    HW270069   0.716  10.588   5.067 -0.2914 -0.3130 -3.2178
21903SOL     OW70070   6.362   9.067   9.442  0.1562 -0.6169 -0.1200
21903SOL    HW170071   6.402   8.991   9.400 -0.7044 -0.9865 -0.2977
21903SOL    HW270072   6.302   9.029   9.507  0.7334 -0.0656  0.7645
21904SOL     OW70073   8.263   9.177   3.801 -0.2709  0.3255  0.2114
21904SOL    HW170074   8.342   9.135   3.766 -0.9328 -1.2685  0.5076
21904SOL    HW270075   8.192   9.138   3.751 -1.1368 -1.0917  2.4039
21905SOL     OW70076   6.130   4.003   9.126  0.5247 -0.0952 -0.0253
21905SOL    HW170077   6.082   4.081   9.097 -0.8712 -1.2436 -0.9045
21905SOL    HW270078   6.165   3.965   9.046 -0.6961 -1.5852  0.1208
21906SOL     OW70079   5.746   9.647  10.958 -0.1844 -0.1943  0.0499
21906SOL    HW170080   5.679   9.705  10.994  0.3552 -0.1197  0.9550
21906SOL    HW270081   5.703   9.563  10.949 -0.6138  0.0374 -0.1023
21907SOL     OW70082   8.941   5.096   8.372  0.4644 -0.4132 -0.1742
21907SOL    HW170083   8.915   5.113   8.281  1.9185 -0.1521 -0.5651
21907SOL    HW270084   9.035   5.081   8.367  0.2982 -2.0966  1.0779
21908SOL     OW70085  10.053   8.051   0.084  0.1773 -0.3555 -0.1121
21908SOL    HW170086  10.046   8.130   0.029  0.5207 -1.4162 -1.7671
21908SOL    HW270087   9.964   8.035   0.115 -0.2951 -0.4581 -1.4655
21909SOL     OW70088   8.164  10.991   8.257  0.2050  0.1724 -0.6697
21909SOL    HW170089   8.219  10.960   8.185 -0.4484 -0.8529 -0.7479
21909SOL    HW270090   8.074  10.983   8.223 -0.2663 -2.3411  0.9644
21910SOL     OW70091   7.519   7.186   9.429  0.1490  0.1024 -0.3917
21910SOL    HW170092   7.510   7.270   9.383 -0.7410 -0.1950 -0.7802
21910SOL    HW270093   7.562   7.129   9.366 -0.0103  0.0259 -0.4300
21911SOL     OW70094   9.001   1.903  10.360 -0.4598  0.0447 -0.0385
21911SOL    HW170095   9.023   1.810  10.360 -0.0119  0.1303  1.3318
21911SOL    HW270096   9.012   1.930  10.451 -0.3942  1.4815 -0.4548
21912SOL     OW70097   4.788   7.104   5.371  0.7227 -0.1631 -0.2934
21912SOL    HW170098   4.874   7.138   5.395  0.5250  0.4867 -0.5047
21912SOL    HW270099   4.728   7.178   5.384  0.5523  0.1439 -2.5035
21913SOL     OW70100   8.221   4.540   5.380  0.0744 -0.3879 -0.1115
21913SOL    HW170101   8.163   4.546   5.456 -1.1238 -0.1816 -1.0102
21913SOL    HW270102   8.195   4.613   5.325  1.0566 -0.4293 -0.6392
21914SOL     OW70103   1.074   7.847  10.782  0.2129  0.1003 -0.4184
21914SOL    HW170104   1.166   7.845  10.806  0.0767 -1.8424  0.1460
21914SOL    HW270105   1.057   7.759  10.749 -0.9645  1.0232 -2.4682
21915SOL     OW70106   7.030   2.898   5.418  0.0659  0.3354 -0.7142
21915SOL    HW170107   7.067   2.984   5.396  0.6505  0.0916 -0.6931
21915SOL    HW270108   6.943   2.898   5.377  0.7067  0.3106 -2.0903
21916SOL     OW70109   7.356   9.161   2.113 -0.3473 -0.0993 -0.4981
21916SOL    HW170110   7.369   9.173   2.207 -0.9419  1.9447 -0.6111
21916SOL    HW270111   7.387   9.073   2.095 -2.1038 -1.3450  1.9570
21917SOL     OW70112  10.069   9.154   3.791 -0.2324  0.4567  0.3082
21917SOL    HW170113  10.015   9.232   3.780 -0.2760  0.5020  0.8456
21917SOL    HW270114  10.008   9.084   3.814 -0.3528 -0.0291 -1.3474
21918SOL     OW70115   4.696   9.929  11.046  0.3730 -0.3313  0.0471
21918SOL    HW170116   4.619   9.969  11.004 -0.3145 -0.7717  0.8480
21918SOL    HW270117   4.760  10.000  11.052 -0.4310  0.3804  0.4721
21919SOL     OW70118  10.865   8.616   3.213  0.4298  0.3502 -0.0475
21919SOL    HW170119  10.806   8.546   3.242 -0.7148  1.4140  0.2615
21919SOL    HW270120  10.948   8.596   3.257  0.1600 -0.8565 -0.0314
21920SOL     OW70121   2.314   5.913  10.523 -0.4834 -0.2611 -0.5732
21920SOL    HW170122   2.237   5.960  10.554 -0.6917 -1.4771  0.8448
21920SOL    HW270123   2.367   5.981  10.481 -1.7985  0.8043 -0.5868
21921SOL     OW70124   2.365   6.353   9.672 -0.1854 -0.2155  0.1166
21921SOL    HW170125   2.362   6.386   9.762  1.9094 -2.4661  1.1445
21921SOL    HW270126   2.418   6.416   9.624 -0.1948  0.3272  0.8106
21922SOL     OW70127  10.944  10.889   3.223  0.3928  0.1571  0.3477
21922SOL    HW170128  10.918  10.797   3.220  1.4832 -0.2915 -4.8514
21922SOL    HW270129  10.886  10.932   3.160  2.0278  2.2994  0.1997
21923SOL     OW70130   9.282   3.999   6.019 -0.4119 -0.1860 -0.4207
21923SOL    HW170131   9.227   4.028   6.091  0.8655 -0.6238  0.7644
21923SOL    HW270132   9.266   3.905   6.013  1.1670 -0.5830  0.8458
21924SOL     OW70133   1.977   5.900  10.237 -0.0998 -0.4088 -0.3708
21924SOL    HW170134   2.038   5.970  10.215  1.1864 -0.9772  1.1608
21924SOL    HW270135   1.924   5.888  10.159  0.9383  0.9441 -1.3253
21925SOL     OW70136   2.389   3.032   1.114 -0.6111  0.2207  0.3677
21925SOL    HW170137   2.313   2.998   1.068 -0.1385 -0.7119  0.2486
21925SOL    HW270138   2.396   3.123   1.086 -1.6984  0.3255  0.4132
21926SOL     OW70139   8.776   6.796   2.209  0.0119  0.0326 -0.6112
21926SOL    HW170140   8.842   6.866   2.212 -0.9515  0.9346  1.6072
21926SOL    HW270141   8.740   6.801   2.121 -0.8307  3.1788 -0.2138
21927SOL     OW70142   8.329   3.876   6.486 -0.4259 -0.2764  0.3372
21927SOL    HW170143   8.354   3.919   6.404 -2.5837  2.5094  0.9884
21927SOL    HW270144   8.277   3.801   6.459  1.0525 -0.9456 -0.8087
21928SOL     OW70145   1.602   4.538   6.387  0.3396 -0.5988 -0.1360
21928SOL    HW170146   1.576   4.578   6.470 -1.5926 -0.3353 -0.8305
21928SOL    HW270147   1.645   4.608   6.338  0.4366 -0.4428  0.1762
21929SOL     OW70148   0.941   4.617   2.272  0.6127 -0.0164 -0.3890
21929SOL    HW170149   0.893   4.554   2.219 -1.7130  1.0357  0.3284
21929SOL    HW270150   1.009   4.566   2.315  2.3495 -1.0047 -3.9183
21930SOL     OW70151   2.753   1.963   5.539  0.1713  0.0156 -0.5678
21930SOL    HW170152   2.797   1.890   5.495 -0.4761 -0.5041 -0.3632
21930SOL    HW270153   2.687   1.921   5.594  1.3445  0.5960  1.3884
21931SOL     OW70154   6.773   4.571   0.276 -0.5281  0.4075  0.3831
21931SOL    HW170155   6.793   4.662   0.293  0.8476 -0.0808  1.5063
21931SOL    HW270156   6.846   4.539   0.223  1.6659 -1.2529  4.0601
21932SOL     OW70157   3.167   4.018   6.519 -0.4140 -0.2551 -0.4055
21932SOL    HW170158   3.226   3.942   6.527 -0.1362 -0.1320 -1.1666
21932SOL    HW270159   3.115   4.016   6.599 -0.5030 -1.3315 -0.4703
21933SOL     OW70160   8.264   7.596   1.496  0.6339 -0.6898  0.1260
21933SOL    HW170161   8.358   7.582   1.508  1.0180 -1.6820 -3.0589
21933SOL    HW270162   8.234   7.519   1.448 -2.4759 -1.7574  3.3514
21934SOL     OW70163   3.496   0.027   5.863 -0.0489 -0.5644  0.4033
21934SOL    HW170164   3.586  -0.004   5.874 -0.5054 -2.8088 -1.3416
21934SOL    HW270165   3.501   0.092   5.794  0.1666 -1.3836 -0.3811
21935SOL     OW70166   4.825   5.952   6.951  0.1108  0.1855 -0.1734
21935SOL    HW170167   4.885   6.026   6.949  0.2663  0.0550 -0.3535
21935SOL    HW270168   4.857   5.896   7.022  1.0747 -0.6127 -1.2167
21936SOL     OW70169  10.927  10.051   9.179  0.3751 -0.1621  0.0436
21936SOL    HW170170  10.867   9.983   9.209 -0.4437  0.3473 -0.4024
21936SOL    HW270171  10.927  10.116   9.249 -0.8692  0.6123 -0.6379
21937SOL     OW70172   6.288   7.830   2.574 -0.8134  0.4181 -0.2409
21937SOL    HW170173   6.337   7.760   2.530 -0.0898  0.3203  0.6943
21937SOL    HW270174   6.267   7.795   2.660 -0.8205  1.1953  0.0796
21938SOL     OW70175   7.708   4.227   5.277 -0.2747  0.5097  0.5097
21938SOL    HW170176   7.625   4.190   5.306  2.0414 -2.7509  4.0097
21938SOL    HW270177   7.730   4.293   5.342  0.1165  0.9981 -0.1004
21939SOL     OW70178   4.558   8.657   7.826  0.0942 -0.2877  0.4469
21939SOL    HW170179   4.598   8.581   7.868  0.2720 -1.1795 -1.2535
21939SOL    HW270180   4.487   8.683   7.885  1.2521 -0.5587  2.0006
21940SOL     OW70181  10.015   3.175   5.730  0.1484  0.4549 -0.1747
21940SOL    HW170182   9.947   3.241   5.716 -0.6026 -0.3258 -0.3061
21940SOL    HW270183   9.970   3.104   5.776  1.2951  0.6546  1.3147
21941SOL     OW70184   9.701   5.868   7.160 -0.1724 -0.4391  0.0332
21941SOL    HW170185   9.734   5.952   7.128 -1.2105  0.0979  0.3356
21941SOL    HW270186   9.776   5.810   7.154  0.3868  0.3292 -0.8393
21942SOL     OW70187   3.107  10.746   9.511  0.2084  0.2383  0.8648
21942SOL    HW170188   3.089  10.776   9.600 -0.1959  1.3398  0.4307
21942SOL    HW270189   3.080  10.654   9.510  0.7073  0.0562  2.0123
21943SOL     OW70190   5.896   9.454   0.836  0.1848  0.3776 -0.2220
21943SOL    HW170191   5.944   9.372   0.823  0.4851  0.5632 -0.2969
21943SOL    HW270192   5.889   9.492   0.748  0.1103  0.4646 -0.1785
21944SOL     OW70193   2.451   2.443   7.791 -0.8419 -0.2524  0.4935
21944SOL    HW170194   2.419   2.444   7.881  0.5543  1.1730  1.0130
21944SOL    HW270195   2.542   2.471   7.797 -0.1578 -1.8839 -1.1848
21945SOL     OW70196   4.612   3.110   7.967 -0.3321  0.1557  0.8077
21945SOL    HW170197   4.543   3.152   8.018 -0.9127 -0.0459  0.2031
21945SOL    HW270198   4.693   3.146   8.002 -0.8073  2.7563 -0.4676
21946SOL     OW70199   4.430   6.051  10.254 -0.1220  0.3798 -0.0964
21946SOL    HW170200   4.408   5.967  10.294 -2.0609  1.7671  1.9922
21946SOL    HW270201   4.369   6.059  10.181 -2.4329  1.3723  1.7933
21947SOL     OW70202   1.755   5.540   6.679  0.1895 -0.2158 -0.1953
21947SOL    HW170203   1.663   5.515   6.691  0.1502  0.5584  1.4086
21947SOL    HW270204   1.755   5.593   6.600 -0.6404 -0.7168 -0.5517
21948SOL     OW70205  10.965   4.500   8.421 -0.2178  0.2365  0.1434
21948SOL    HW170206  10.909   4.449   8.361  1.0179 -0.4302 -0.4897
21948SOL    HW270207  10.923   4.586   8.426 -1.8586 -0.5448  0.5085
21949SOL     OW70208   6.614   9.108   3.795  0.1506  0.3510 -0.0530
21949SOL    HW170209   6.536   9.157   3.817  0.5660  0.3798  1.4336
21949SOL    HW270210   6.636   9.137   3.706 -2.1237 -0.4929 -0.9639
21950SOL     OW70211   0.873   9.273  10.926  0.1788 -0.3362  0.5625
21950SOL    HW170212   0.890   9.364  10.950 -0.9089  0.5407 -1.7086
21950SOL    HW270213   0.794   9.249  10.975  0.4115 -0.0282  1.0917
21951SOL     OW70214   3.479   7.966   0.439  0.1517  0.3161  0.1650
21951SOL    HW170215   3.517   8.036   0.386 -0.9707  1.4811  0.8280
21951SOL    HW270216   3.462   8.006   0.524  0.9702 -1.2320  1.1106
21952SOL     OW70217   2.325   7.358   6.899  0.2014 -0.3682  0.2889
21952SOL    HW170218   2.330   7.415   6.975 -0.6244  1.5634 -1.0208
21952SOL    HW270219   2.238   7.374   6.862  0.7827 -0.7833 -1.3829
21953SOL     OW70220   5.352   4.366  11.044 -0.3868  0.2157 -0.3073
21953SOL    HW170221   5.304   4.318  10.976 -0.6011 -0.0077 -0.0046
21953SOL    HW270222   5.427   4.404  10.998 -1.2657  1.2368 -0.9530
21954SOL     OW70223   3.323  10.184   4.851  0.0606  0.2958  0.2958
21954SOL    HW170224   3.248  10.141   4.893  0.3965 -0.5283  0.0807
21954SOL    HW270225   3.321  10.151   4.761  0.3522  0.7071  0.1383
21955SOL     OW70226   5.113   6.361   3.245 -0.4072 -0.0498  0.1001
21955SOL    HW170227   5.160   6.371   3.328 -0.9359 -1.6327  0.6228
21955SOL    HW270228   5.167   6.301   3.194 -0.4294  0.3841 -0.4431
21956SOL     OW70229   3.960   4.300   2.918 -0.5889 -0.0864  0.6260
21956SOL    HW170230   3.962   4.207   2.893 -1.0954 -0.4419  1.8484
21956SOL    HW270231   3.868   4.320   2.932 -0.4300  0.4458  0.9507
21957SOL     OW70232   9.636   2.844   5.221  0.4063 -0.0634  0.0393
21957SOL    HW170233   9.691   2.882   5.152  1.3679  0.4540  1.0416
21957SOL    HW270234   9.592   2.770   5.179  0.6190  0.5006 -1.2381
21958SOL     OW70235   2.217   4.364   8.275 -0.5936  0.4350  0.2189
21958SOL    HW170236   2.223   4.422   8.199  1.1068  0.1231  0.0781
21958SOL    HW270237   2.200   4.278   8.238 -1.0788  0.5035  0.2833
21959SOL     OW70238   0.746   0.729  10.306  0.3013 -0.2031  0.2650
21959SOL    HW170239   0.743   0.825  10.307 -1.7345 -0.2212  1.0459
21959SOL    HW270240   0.733   0.703  10.397 -1.2679 -1.1999 -0.1916
21960SOL     OW70241   7.362   0.009   0.583 -0.3111  0.1375 -0.0268
21960SOL    HW170242   7.415   0.084   0.609 -1.0064  1.5475 -2.3872
21960SOL    HW270243   7.302  -0.004   0.656  0.8638  0.8386  1.1109
21961SOL     OW70244   8.760   4.867   3.991 -0.1572 -0.1000  0.0991
21961SOL    HW170245   8.683   4.816   4.017  0.5783 -0.6970  1.2644
21961SOL    HW270246   8.767   4.936   4.057  0.0541  0.2173 -0.2501
21962SOL     OW70247   9.797   1.240   1.886  0.4272  0.0486  0.0924
21962SOL    HW170248   9.796   1.323   1.838  0.6304  0.4112  0.7181
21962SOL    HW270249   9.873   1.245   1.943  0.6823 -0.7410 -0.1551
21963SOL     OW70250  10.139  10.815   7.787  0.4498  0.1362 -0.2957
21963SOL    HW170251  10.092  10.898   7.792  0.9311  0.4318 -0.6213
21963SOL    HW270252  10.181  10.816   7.700  0.7856 -0.2648 -0.1415
21964SOL     OW70253   7.815  10.704   6.693  0.1363 -0.4757  0.5227
21964SOL    HW170254   7.808  10.618   6.652 -0.5531  0.2779 -0.9924
21964SOL    HW270255   7.732  10.715   6.739 -0.7733  0.2994 -1.2049
21965SOL     OW70256   4.848   3.290   9.738 -0.4039  0.0989  0.4450
21965SOL    HW170257   4.765   3.328   9.769  0.3815  1.8448  0.5340
21965SOL    HW270258   4.906   3.366   9.728  0.7336 -0.9233 -1.0248
21966SOL     OW70259   7.591   4.961   4.970  0.2020  0.2080  0.0996
21966SOL    HW170260   7.571   5.047   5.009 -0.6207 -0.1249  0.4210
21966SOL    HW270261   7.567   4.971   4.878 -0.7580  0.0422  0.3289
21967SOL     OW70262  10.050   5.171   3.979  0.2624 -0.2939  0.1807
21967SOL    HW170263  10.106   5.109   3.932 -1.3385 -1.2950 -0.4984
21967SOL    HW270264  10.068   5.154   4.071  0.7723 -0.8872 -0.0166
21968SOL     OW70265   4.950   3.666   6.081  0.3639  0.3294  0.2869
21968SOL    HW170266   5.005   3.605   6.032 -0.2615  0.0192 -0.0575
21968SOL    HW270267   4.967   3.752   6.041  1.0382  0.3371  0.5872
21969SOL     OW70268   1.064   5.052   2.962  0.1607 -0.1476  0.0570
21969SOL    HW170269   1.075   5.104   3.042  0.8743 -0.9035  0.4667
21969SOL    HW270270   1.106   5.104   2.894 -0.1242  0.3300  0.2356
21970SOL     OW70271   0.827   6.482   3.206 -0.1171 -0.5865  0.3720
21970SOL    HW170272   0.766   6.556   3.203 -0.2731 -0.7409 -1.1537
21970SOL    HW270273   0.875   6.493   3.288 -0.8517  0.6227  0.6598
21971SOL     OW70274   0.480   3.972   5.245 -0.1509  0.0944 -0.0689
21971SOL    HW170275   0.397   3.928   5.265  0.5215 -0.7672  0.8954
21971SOL    HW270276   0.457   4.034   5.175 -1.1271 -1.7682 -1.4879
21972SOL     OW70277   6.882  11.012   8.889 -0.1992 -0.3070  0.0209
21972SOL    HW170278   6.849  11.035   8.803  1.3311 -1.8923 -1.0591
21972SOL    HW270279   6.974  10.992   8.875  0.6660  1.4784  2.4396
21973SOL     OW70280   0.317   3.527   1.715 -0.4601 -0.0259 -0.1458
21973SOL    HW170281   0.232   3.495   1.686 -0.7150  0.3390  0.1869
21973SOL    HW270282   0.377   3.456   1.697 -0.5146  0.3595 -2.0094
21974SOL     OW70283   3.727   5.951   9.400  0.6194  0.8204 -0.0756
21974SOL    HW170284   3.652   5.971   9.343  0.4737  1.0884  0.2103
21974SOL    HW270285   3.772   6.035   9.411  0.2222  0.9283  0.8114
21975SOL     OW70286  10.269   2.595   7.222  0.1099 -0.4232 -0.1857
21975SOL    HW170287  10.220   2.513   7.214  0.2791 -0.5804  0.3651
21975SOL    HW270288  10.324   2.597   7.144  2.4176 -2.3885  1.2624
21976SOL     OW70289   4.174   3.642   6.790 -0.2610  0.4205 -0.1368
21976SOL    HW170290   4.201   3.719   6.741 -0.0940  0.4627  0.0234
21976SOL    HW270291   4.150   3.578   6.723 -2.6910  1.3868 -0.3119
21977SOL     OW70292   3.728   6.556   1.707 -0.3916 -0.2413 -0.2487
21977SOL    HW170293   3.772   6.471   1.716  0.9752  0.5070  0.5048
21977SOL    HW270294   3.792   6.612   1.664  0.1444  1.3444  2.3552
21978SOL     OW70295   4.205   3.576   7.639  0.1759 -0.9051  0.3094
21978SOL    HW170296   4.169   3.663   7.621  1.5181 -0.5177 -0.6125
21978SOL    HW270297   4.169   3.553   7.724 -2.6463 -0.7719 -0.7286
21979SOL     OW70298   5.270   3.729   4.609  0.0418  0.0464 -0.0720
21979SOL    HW170299   5.205   3.777   4.661 -0.4766  0.5499 -1.1595
21979SOL    HW270300   5.354   3.765   4.637 -0.3777  2.1986 -1.4290
21980SOL     OW70301   9.326  10.195   1.045  0.1722 -0.1522  0.3397
21980SOL    HW170302   9.318  10.113   0.997  1.7252 -0.5433  0.6815
21980SOL    HW270303   9.362  10.257   0.981 -1.9028  0.5768 -0.1945
21981SOL     OW70304   0.928   2.617   7.413 -0.4547 -0.5734 -0.1843
21981SOL    HW170305   0.948   2.631   7.506  1.8682  1.0411 -0.8349
21981SOL    HW270306   0.992   2.552   7.384  0.9620  1.1985 -1.2703
21982SOL     OW70307   8.736   9.222   6.288  0.1535 -0.1848  0.4801
21982SOL    HW170308   8.713   9.230   6.196 -1.5607 -0.9553  0.8153
21982SOL    HW270309   8.793   9.145   6.291  0.2761 -0.1139  0.0694
21983SOL     OW70310   3.128   0.839   0.391 -0.4354  0.2558 -0.3128
21983SOL    HW170311   3.211   0.870   0.357  1.3298 -3.3316  0.2385
21983SOL    HW270312   3.136   0.848   0.486 -0.8971  0.3620 -0.2797
21984SOL     OW70313   3.973   7.038   9.584 -0.2424 -0.1516 -0.0156
21984SOL    HW170314   3.963   7.055   9.491  0.5667 -1.2746 -0.3292
21984SOL    HW270315   3.895   7.076   9.624 -0.7605  0.0518 -1.1813
21985SOL     OW70316   2.034   4.020   4.836 -0.1815  0.2508  0.0634
21985SOL    HW170317   1.989   4.078   4.897  0.9744 -0.4250  1.6079
21985SOL    HW270318   2.123   4.055   4.830 -0.1651  0.0727 -0.9509
21986SOL     OW70319   3.442   4.491  10.383 -0.0483  0.7055 -0.3454
21986SOL    HW170320   3.379   4.536  10.327 -0.1439 -0.0110 -0.8157
21986SOL    HW270321   3.427   4.529  10.470 -1.6292  0.0535 -0.2990
21987SOL     OW70322   5.515  10.814   3.472 -0.3820  0.5164 -0.3607
21987SOL    HW170323   5.511  10.769   3.556 -1.2657  1.9361  0.3989
21987SOL    HW270324   5.604  10.848   3.466 -0.6214  1.3328  0.5256
21988SOL     OW70325   7.002  10.282  10.393 -0.4566  0.1501 -0.0446
21988SOL    HW170326   7.092  10.270  10.424  0.3494 -1.1793 -2.6001
21988SOL    HW270327   6.972  10.362  10.437  2.1293  0.8712  0.5806
21989SOL     OW70328   6.986   3.730   8.982 -0.4337  0.0713 -0.1059
21989SOL    HW170329   7.081   3.735   8.976 -0.4259  1.6660  0.6832
21989SOL    HW270330   6.968   3.644   9.020  0.5825 -0.8686 -1.6631
21990SOL     OW70331   5.693   1.876   2.176 -0.5707 -0.2262 -0.4154
21990SOL    HW170332   5.755   1.922   2.233 -0.8642 -0.4419  0.0833
21990SOL    HW270333   5.705   1.917   2.090 -1.5833  1.5581  0.2345
21991SOL     OW70334   4.193  10.575   4.011  0.0079  0.2109 -0.3817
21991SOL    HW170335   4.267  10.598   4.066  0.8891  0.4145 -1.6089
21991SOL    HW270336   4.220  10.493   3.969 -1.6857 -1.3440  1.3557
21992SOL     OW70337   0.431  11.003   3.624  0.1323 -0.4592 -0.1346
21992SOL    HW170338   0.365  11.061   3.662  1.4553  1.0613 -0.0650
21992SOL    HW270339   0.385  10.957   3.553 -1.5542 -1.0692  1.2853
21993SOL     OW70340   3.471  10.316   3.609  0.2968 -0.0891 -0.5231
21993SOL    HW170341   3.419  10.317   3.690 -1.1793 -0.9738 -1.4228
21993SOL    HW270342   3.492  10.408   3.594  0.2319  0.1335  0.6391
21994SOL     OW70343   4.287   5.154   5.542 -0.9119 -0.3412 -0.5057
21994SOL    HW170344   4.233   5.189   5.612  0.4344  0.2906  0.2573
21994SOL    HW270345   4.225   5.130   5.473 -2.1343  0.4016  0.3040
21995SOL     OW70346   0.583   4.525   6.992  0.2709 -0.3080 -0.3365
21995SOL    HW170347   0.508   4.487   6.946  0.7451  0.7246 -2.0735
21995SOL    HW270348   0.654   4.461   6.978  0.0922 -0.5916  0.0470
21996SOL     OW70349   4.774   2.735   8.718  0.5644  1.0353  0.0668
21996SOL    HW170350   4.804   2.731   8.809  0.5367 -3.4735  0.0997
21996SOL    HW270351   4.851   2.762   8.668  1.5358  0.3442  1.1469
21997SOL     OW70352   3.995   7.809   6.805  0.2607 -0.2695 -0.0171
21997SOL    HW170353   3.904   7.797   6.833 -0.2418 -0.1847 -1.4966
21997SOL    HW270354   3.999   7.769   6.718  0.4095  3.5718 -2.0091
21998SOL     OW70355   1.469   4.474   0.986 -0.2986 -0.1583  0.2827
21998SOL    HW170356   1.531   4.534   1.028 -0.4542 -0.6897  1.2943
21998SOL    HW270357   1.441   4.521   0.908  2.4762 -0.4804 -1.0401
21999SOL     OW70358   9.952   8.864   6.624 -0.3877 -0.7325 -0.6466
21999SOL    HW170359   9.916   8.784   6.584 -0.7432 -0.5091 -0.7853
21999SOL    HW270360  10.040   8.871   6.587  0.5253 -2.2584  1.0618
22000SOL     OW70361   4.542   6.818   6.392  0.6592 -0.3206 -0.1217
22000SOL    HW170362   4.469   6.761   6.416  1.8778 -2.3297 -0.9395
22000SOL    HW270363   4.513   6.906   6.416 -2.8660 -0.6979 -2.2603
22001SOL     OW70364   7.941   2.492  11.049 -0.1888 -0.4814  0.2664
22001SOL    HW170365   7.988   2.419  11.089  1.8062  0.8367  0.4939
22001SOL    HW270366   7.948   2.563  11.113 -0.4345  0.4618 -0.7209
22002SOL     OW70367   7.487  10.248   8.370  0.3961  0.5260  0.0712
22002SOL    HW170368   7.441  10.194   8.306  1.0651  1.0499 -0.8703
22002SOL    HW270369   7.431  10.325   8.381 -0.8495 -0.5334  1.8408
22003SOL     OW70370   6.282   3.332   6.717 -0.2856 -0.5097 -0.0597
22003SOL    HW170371   6.299   3.343   6.811 -0.2399 -0.2096 -0.1012
22003SOL    HW270372   6.262   3.239   6.707 -1.2723 -0.3516  0.3946
22004SOL     OW70373   6.231   7.360   9.592  0.0820 -0.5767 -0.1975
22004SOL    HW170374   6.287   7.389   9.665  0.0222  1.6779 -0.9780
22004SOL    HW270375   6.151   7.328   9.635  0.0904  0.6070  0.7483
22005SOL     OW70376   3.581   2.684   4.529 -0.1180  0.3613  0.2309
22005SOL    HW170377   3.582   2.589   4.541  0.3785  0.1614 -1.1986
22005SOL    HW270378   3.642   2.717   4.594  1.8039 -0.5736 -1.0023
22006SOL     OW70379   6.159   6.578   9.951  0.0493  0.4444  0.2677
22006SOL    HW170380   6.247   6.582   9.914 -0.0097  0.6222  0.1459
22006SOL    HW270381   6.129   6.669   9.951 -0.0423  0.4172  0.5319
22007SOL     OW70382   2.359   5.084   6.894  0.0157 -0.1353 -0.0316
22007SOL    HW170383   2.429   5.026   6.923 -0.6084 -0.4673  0.8497
22007SOL    HW270384   2.398   5.136   6.824  0.8178 -1.0620 -0.2856
22008SOL     OW70385   9.493   3.440   9.926 -0.1802  0.0006 -0.4475
22008SOL    HW170386   9.420   3.387   9.892  0.8006 -0.5882 -1.7216
22008SOL    HW270387   9.450   3.512   9.973 -1.5657 -2.8618  3.0344
22009SOL     OW70388   8.535   7.034   6.146  0.1186  0.3665 -0.0402
22009SOL    HW170389   8.481   7.110   6.169  0.8411  0.9160 -0.0987
22009SOL    HW270390   8.609   7.038   6.208  0.4060 -0.0166 -0.3513
22010SOL     OW70391   5.820   9.110   8.116  0.6341  0.2653  0.3584
22010SOL    HW170392   5.868   9.158   8.049  0.3324 -0.8114 -0.6498
22010SOL    HW270393   5.842   9.018   8.101 -0.2257 -0.0828  1.1084
22011SOL     OW70394   6.915   1.055   8.575 -0.5377 -0.4545  0.8494
22011SOL    HW170395   6.902   1.132   8.630  1.9102  0.7978 -0.1691
22011SOL    HW270396   6.911   1.088   8.486  0.3552 -1.5293  0.3909
22012SOL     OW70397   7.698   1.766   7.087 -0.5567  0.2641 -0.1149
22012SOL    HW170398   7.727   1.855   7.106 -0.5808 -0.0341  1.4909
22012SOL    HW270399   7.777   1.720   7.060 -0.2807  0.4317  0.3993
22013SOL     OW70400   7.165   3.931   6.958  0.2673  0.0572 -0.1460
22013SOL    HW170401   7.201   3.852   6.916 -1.1824 -0.0332 -1.2616
22013SOL    HW270402   7.210   4.004   6.915 -0.4472 -0.0731 -1.1342
22014SOL     OW70403   6.217   4.612   2.821 -0.0178  0.4932 -0.3003
22014SOL    HW170404   6.287   4.547   2.823 -1.7351 -1.4606  0.2143
22014SOL    HW270405   6.175   4.600   2.736 -2.7053 -1.8774  1.1981
22015SOL     OW70406   2.867   1.713   7.877  0.7809  0.6655 -0.2911
22015SOL    HW170407   2.796   1.778   7.882 -0.4393 -0.6920  0.8446
22015SOL    HW270408   2.933   1.755   7.822 -1.2885  1.6173 -2.2115
22016SOL     OW70409   5.896   7.351   0.125 -0.5308  0.6338  0.4409
22016SOL    HW170410   5.865   7.416   0.188  1.2458 -1.4106  3.6957
22016SOL    HW270411   5.822   7.292   0.113 -0.1773 -0.4443  2.8811
22017SOL     OW70412   4.808   7.408   0.236  0.0788  0.3091  0.2838
22017SOL    HW170413   4.745   7.418   0.307 -0.4762 -0.2302 -0.1169
22017SOL    HW270414   4.877   7.353   0.273  0.2084  0.7200  0.6588
22018SOL     OW70415   2.100   4.989   3.578  0.0324 -0.1402  0.6188
22018SOL    HW170416   2.067   5.016   3.664 -2.2465 -0.0086 -0.2291
22018SOL    HW270417   2.132   4.899   3.592 -0.8215 -0.3224  1.4827
22019SOL     OW70418   8.586   0.389   8.410 -0.0951 -0.3703 -0.1184
22019SOL    HW170419   8.607   0.472   8.452 -1.3770 -0.8727  1.6131
22019SOL    HW270420   8.490   0.385   8.412 -0.1197 -1.1838 -1.6252
22020SOL     OW70421   9.058   3.412  11.038  0.2455 -0.3413  0.5055
22020SOL    HW170422   9.085   3.446  11.124  0.3916 -0.9910  0.7242
22020SOL    HW270423   9.087   3.321  11.039  0.3657 -0.3134 -0.2926
22021SOL     OW70424   1.389   9.550   2.907  0.3893  0.1001 -0.0181
22021SOL    HW170425   1.355   9.619   2.964  2.4348  2.0087 -0.9529
22021SOL    HW270426   1.407   9.477   2.966  0.7695  1.3764  1.5167
22022SOL     OW70427   1.490   9.594   6.325  0.4845  0.0661  0.0798
22022SOL    HW170428   1.419   9.657   6.317 -0.2287 -0.6267  0.8118
22022SOL    HW270429   1.492   9.550   6.240  0.4029  0.4638 -0.1316
22023SOL     OW70430   0.370   6.452   4.078  0.2906  0.0501  0.2359
22023SOL    HW170431   0.438   6.445   4.146  0.1216  0.8099  0.4896
22023SOL    HW270432   0.366   6.545   4.057  0.7157 -0.2366 -1.2193
22024SOL     OW70433   3.168   1.573   0.392  0.1370  0.5019  0.7313
22024SOL    HW170434   3.098   1.628   0.357  0.5536 -0.0096 -1.0087
22024SOL    HW270435   3.158   1.489   0.348  2.1568  0.5790 -0.0154
22025SOL     OW70436   0.658   7.265   5.666  0.8013 -0.9131  0.5278
22025SOL    HW170437   0.727   7.331   5.673  0.6335 -0.5603 -0.8794
22025SOL    HW270438   0.703   7.182   5.684  1.1726 -0.5046  1.5416
22026SOL     OW70439   0.600   7.170   8.657  0.4630  0.8020 -0.2492
22026SOL    HW170440   0.540   7.117   8.604  1.2607 -0.3112 -0.0771
22026SOL    HW270441   0.560   7.171   8.744  0.2353  0.8233 -0.3521
22027SOL     OW70442   0.390   5.084   4.056 -0.1409  0.6274 -0.0085
22027SOL    HW170443   0.452   5.029   4.103 -1.1369 -0.7808 -0.2783
22027SOL    HW270444   0.381   5.163   4.110 -1.5551 -1.0871  2.4391
22028SOL     OW70445  11.074   2.770   8.293  0.5995 -0.4215  0.1542
22028SOL    HW170446  11.166   2.747   8.280  0.5877 -0.0615 -0.6187
22028SOL    HW270447  11.070   2.805   8.382  1.3632  0.2930 -0.0882
22029SOL     OW70448   6.457   9.409   3.078  0.2919 -0.0546  0.3676
22029SOL    HW170449   6.361   9.406   3.072  0.4209 -1.3502 -3.0841
22029SOL    HW270450   6.478   9.503   3.080 -1.0009  0.2546  0.1365
22030SOL     OW70451   1.311   9.512   8.783  0.1598 -0.2152  0.1682
22030SOL    HW170452   1.292   9.423   8.753  0.5961 -0.3190  0.1858
22030SOL    HW270453   1.281   9.569   8.712 -2.2148 -0.2095  1.0772
22031SOL     OW70454   3.883   8.342   0.994 -0.1253  0.6800  0.4975
22031SOL    HW170455   3.812   8.341   0.930 -2.8125 -0.4880  3.2847
22031SOL    HW270456   3.898   8.435   1.011 -1.7592  0.9540  0.6044
22032SOL     OW70457   4.890   9.892   2.286 -0.2389 -0.1097 -0.6317
22032SOL    HW170458   4.961   9.851   2.335 -0.7440  0.8552  0.9717
22032SOL    HW270459   4.846   9.820   2.243  0.4816 -0.9415 -0.0112
22033SOL     OW70460   8.024   8.873   5.833 -0.2601 -0.0275  0.1057
22033SOL    HW170461   8.011   8.900   5.924  0.9646  1.1107 -0.0245
22033SOL    HW270462   7.943   8.827   5.810 -0.4124 -0.7488  1.8967
22034SOL     OW70463  11.034   1.986   3.676 -0.4869  0.2276  0.2050
22034SOL    HW170464  11.086   2.046   3.728  1.2373 -0.2715 -0.8508
22034SOL    HW270465  11.096   1.918   3.649 -1.9471 -1.0017 -0.1894
22035SOL     OW70466   1.185   9.625   6.602 -0.4105  0.0999 -0.1764
22035SOL    HW170467   1.221   9.608   6.689 -1.2206  1.0942  0.3706
22035SOL    HW270468   1.241   9.693   6.565 -1.0183  0.8461  0.2341
22036SOL     OW70469  10.345   2.157   6.102  0.1453 -0.0316 -0.0954
22036SOL    HW170470  10.277   2.155   6.169  1.1980  1.0818  1.0631
22036SOL    HW270471  10.309   2.212   6.033 -0.0623  0.7256  0.6046
22037SOL     OW70472   5.132   5.623   8.681  0.5527  0.7910 -0.1433
22037SOL    HW170473   5.054   5.660   8.638 -0.0318 -0.3648 -0.1169
22037SOL    HW270474   5.113   5.629   8.775  0.6797  0.9035 -0.1255
22038SOL     OW70475   6.134  10.714   1.224  0.4815  0.0310  0.3001
22038SOL    HW170476   6.196  10.786   1.215  0.1826  0.4669  1.4951
22038SOL    HW270477   6.090  10.730   1.308 -0.2163 -1.0617  0.1743
22039SOL     OW70478  10.587   8.800   3.255 -0.2383  0.3711 -0.0995
22039SOL    HW170479  10.639   8.832   3.181  1.1857 -0.8716  0.3236
22039SOL    HW270480  10.518   8.866   3.266 -0.3393  0.7132 -2.3585
22040SOL     OW70481   2.641  10.450   9.389  0.1411 -0.0315  0.2359
22040SOL    HW170482   2.684  10.503   9.322 -0.5163 -0.2231 -0.3646
22040SOL    HW270483   2.698  10.454   9.465 -0.4864  2.5416  0.6426
22041SOL     OW70484   8.991   0.405   4.068 -0.2107  0.3926 -0.0323
22041SOL    HW170485   9.020   0.317   4.092 -0.8073 -0.0612 -0.9147
22041SOL    HW270486   8.895   0.401   4.074 -0.2435  0.9885 -0.0857
22042SOL     OW70487   6.148   7.257   3.322 -0.2948  0.1684 -0.1598
22042SOL    HW170488   6.142   7.173   3.368 -1.9575  0.0966 -0.4422
22042SOL    HW270489   6.150   7.234   3.229 -1.3047  0.4276 -0.2619
22043SOL     OW70490   5.496  10.661   6.847  0.0796 -0.6595  0.3293
22043SOL    HW170491   5.416  10.611   6.829 -0.0186 -0.2607 -0.3955
22043SOL    HW270492   5.565  10.611   6.804  0.3541 -1.3935  1.5673
22044SOL     OW70493   2.227   6.579  10.731  0.0300  0.0476  0.1894
22044SOL    HW170494   2.159   6.630  10.775  1.3594 -0.0269  2.4843
22044SOL    HW270495   2.203   6.488  10.746  0.4297  0.0197  0.6550
22045SOL     OW70496   3.817   0.492   6.569 -0.2710  0.0950  0.0159
22045SOL    HW170497   3.886   0.426   6.560 -1.0380 -0.8907  1.0875
22045SOL    HW270498   3.822   0.543   6.488  1.5205 -0.1236 -0.0538
22046SOL     OW70499   6.278   5.174   3.753 -0.8729  0.4061  0.4651
22046SOL    HW170500   6.248   5.251   3.705 -1.5430 -0.3598 -0.3935
22046SOL    HW270501   6.197   5.134   3.787 -0.8529 -1.3802 -1.3948
22047SOL     OW70502   2.233   6.757   8.928  0.2010 -0.1091  0.2216
22047SOL    HW170503   2.208   6.754   9.021 -1.2352 -1.4307 -0.1711
22047SOL    HW270504   2.201   6.841   8.897  0.9375  0.4736  0.9573
22048SOL     OW70505   4.560   3.621   2.710 -0.1313  0.3106  0.1187
22048SOL    HW170506   4.566   3.700   2.764  1.5745  0.3302 -0.0591
22048SOL    HW270507   4.576   3.651   2.621 -1.2913  0.0183 -0.2106
22049SOL     OW70508   1.637   4.721   4.347 -0.1847  0.2111  0.0533
22049SOL    HW170509   1.654   4.737   4.440  1.9909  0.3943 -0.3220
22049SOL    HW270510   1.543   4.703   4.343 -0.0206 -1.8945  2.5713
22050SOL     OW70511  10.155   7.829   2.988  0.0575  0.0759  0.1007
22050SOL    HW170512  10.164   7.734   2.985  1.2537  0.1478  0.7459
22050SOL    HW270513  10.177   7.858   2.899  1.0680 -0.1700  0.2550
22051SOL     OW70514   4.104   3.537   3.724 -0.1229  0.0322 -0.0628
22051SOL    HW170515   4.072   3.447   3.735  0.2043 -0.1716 -0.7298
22051SOL    HW270516   4.199   3.530   3.739  0.0503  0.0812 -1.0860
22052SOL     OW70517   7.304   3.274  10.578 -0.2917  0.2369 -0.1800
22052SOL    HW170518   7.236   3.305  10.638  0.2251 -0.7649  0.9681
22052SOL    HW270519   7.314   3.345  10.514  0.2602  2.0677  1.8328
22053SOL     OW70520   0.529   5.592  10.108 -0.2151  0.5780  0.6337
22053SOL    HW170521   0.485   5.638  10.036  0.3295 -0.1384 -0.1860
22053SOL    HW270522   0.622   5.608  10.093 -0.0133 -0.7114  0.3492
22054SOL     OW70523  10.703   2.098   5.115 -0.3199 -0.2142 -0.1544
22054SOL    HW170524  10.751   2.181   5.122  1.3903 -1.1634 -0.2129
22054SOL    HW270525  10.729   2.063   5.030 -1.1716 -0.7519 -0.2073
22055SOL     OW70526   3.611   9.356   3.296  0.0424  0.1456  0.2047
22055SOL    HW170527   3.561   9.428   3.335  0.0261  1.6174 -2.3076
22055SOL    HW270528   3.550   9.316   3.235  0.9505 -0.0917 -0.5699
22056SOL     OW70529   8.254   5.936   8.599 -0.7307  0.0293 -0.6758
22056SOL    HW170530   8.296   5.912   8.682  0.0289 -0.6968 -1.2549
22056SOL    HW270531   8.287   6.024   8.580 -0.8770  0.1846 -0.2483
22057SOL     OW70532   9.426   2.259  10.208 -0.3381  0.0132 -0.7600
22057SOL    HW170533   9.363   2.309  10.259 -0.1744 -1.1782  0.6794
22057SOL    HW270534   9.415   2.168  10.238  0.3631 -0.6042 -2.2471
22058SOL     OW70535   5.088   6.389   6.612 -0.3923  0.0573 -0.0667
22058SOL    HW170536   5.107   6.470   6.564  0.3745 -0.7201 -1.1167
22058SOL    HW270537   5.114   6.319   6.552 -2.4783 -1.0247  0.1904
22059SOL     OW70538   9.500   4.376   9.357 -0.3084 -0.6298 -0.3205
22059SOL    HW170539   9.410   4.344   9.344 -1.2773  1.8372 -0.2850
22059SOL    HW270540   9.489   4.465   9.389  2.0293  1.7983 -5.1093
22060SOL     OW70541   1.798   5.213   0.133  0.1574  0.5968  0.3854
22060SOL    HW170542   1.808   5.147   0.064 -0.7065 -0.8248  1.5728
22060SOL    HW270543   1.888   5.232   0.161  0.4596  0.5550 -0.5098
22061SOL     OW70544   3.706   1.913   9.109 -0.5086  0.4897  0.3080
22061SOL    HW170545   3.723   1.992   9.058 -0.4146 -0.4231 -1.1664
22061SOL    HW270546   3.629   1.874   9.066  0.1120 -0.7628  0.2853
22062SOL     OW70547   1.766  10.974  10.702  0.3842 -0.2298  0.5144
22062SOL    HW170548   1.816  11.051  10.731 -0.2431  0.2737  0.2900
22062SOL    HW270549   1.819  10.936  10.632  1.7529 -1.2598  2.0446
22063SOL     OW70550   9.137  10.015   3.580 -0.2648  0.0150  0.1854
22063SOL    HW170551   9.162  10.074   3.652 -1.1231  1.1769 -0.4247
22063SOL    HW270552   9.147   9.927   3.616 -1.0745  0.5705  1.8658
22064SOL     OW70553   1.087   3.113   7.354 -0.3064  0.3202  0.0570
22064SOL    HW170554   1.011   3.158   7.316  0.0536  0.0594 -0.9974
22064SOL    HW270555   1.154   3.117   7.286 -0.3662 -2.0773 -0.2193
22065SOL     OW70556   3.203   6.766   9.209 -0.1492  0.4761 -0.2976
22065SOL    HW170557   3.119   6.751   9.166  0.9162  0.9828 -2.7313
22065SOL    HW270558   3.233   6.678   9.234 -1.8046  0.3825  1.5507
22066SOL     OW70559   7.892   8.459   2.162 -0.0312 -0.6814 -0.5717
22066SOL    HW170560   7.862   8.495   2.079  0.3707 -0.1883 -0.5065
22066SOL    HW270561   7.926   8.534   2.211 -1.9386 -0.6387  0.8010
22067SOL     OW70562   3.092  10.750   2.172 -0.4360 -0.3366 -0.4195
22067SOL    HW170563   3.079  10.691   2.098  0.5702 -1.0764 -0.0254
22067SOL    HW270564   3.026  10.818   2.160 -1.4372 -1.3923 -1.0263
22068SOL     OW70565   6.912   1.952   7.751  0.2370  0.2377 -0.2298
22068SOL    HW170566   6.822   1.946   7.719  0.2977  0.6804 -0.4965
22068SOL    HW270567   6.927   2.046   7.761  0.2384  0.1053  1.0730
22069SOL     OW70568   9.867  11.100   8.320  0.2823  0.4722  0.6697
22069SOL    HW170569   9.798  11.158   8.288  0.2504  1.4568  2.4099
22069SOL    HW270570   9.831  11.012   8.307 -0.6475  0.9119  0.1600
22070SOL     OW70571   0.332   7.323   1.004 -0.2159  0.4425  0.0355
22070SOL    HW170572   0.300   7.266   0.935 -2.6148  0.6877  0.8150
22070SOL    HW270573   0.288   7.407   0.988 -1.0778  0.4241  1.9359
22071SOL     OW70574   8.701   7.400   6.418 -0.0712  0.0791 -0.6394
22071SOL    HW170575   8.746   7.318   6.439  0.6005  0.5603 -0.1249
22071SOL    HW270576   8.688   7.397   6.323 -0.4469 -0.8089 -0.5670
22072SOL     OW70577   1.296  10.132   2.029 -0.3161  0.2016 -0.3907
22072SOL    HW170578   1.378  10.148   1.982  0.2543  0.4661  0.6567
22072SOL    HW270579   1.233  10.189   1.986  0.4162  1.1510 -0.2463
22073SOL     OW70580   6.284   2.809   8.666  0.0270  0.2680 -0.3294
22073SOL    HW170581   6.372   2.842   8.686 -0.2261  1.6711 -1.3698
22073SOL    HW270582   6.228   2.887   8.668 -0.7847 -0.2319 -1.9262
22074SOL     OW70583   8.887   6.705   6.895  0.3549 -0.1121  0.0817
22074SOL    HW170584   8.853   6.747   6.816  0.3470 -0.1197  0.0811
22074SOL    HW270585   8.861   6.613   6.886  0.9585 -0.2540 -0.2429
22075SOL     OW70586   6.580   7.693  10.371 -0.1668 -0.3228 -0.4441
22075SOL    HW170587   6.492   7.663  10.395  0.5978 -2.1815  0.2238
22075SOL    HW270588   6.585   7.681  10.277 -1.1046  1.1941 -0.7140
22076SOL     OW70589   0.156   7.849   9.085 -0.1520  0.2851 -0.0528
22076SOL    HW170590   0.145   7.929   9.034 -0.8407  1.2034  1.4677
22076SOL    HW270591   0.072   7.803   9.076 -0.4094  0.6333  0.5508
22077SOL     OW70592   1.572   4.902   2.590 -0.5186  0.0975 -1.0471
22077SOL    HW170593   1.600   4.845   2.662 -0.5707 -1.1590 -1.9991
22077SOL    HW270594   1.627   4.877   2.516  0.1203  1.9589 -1.2691
22078SOL     OW70595   5.911   3.429   8.809 -0.2569 -0.6434  0.1265
22078SOL    HW170596   5.838   3.388   8.855 -0.7653  0.2403  0.1233
22078SOL    HW270597   5.911   3.520   8.840 -0.1723 -0.2101 -1.0839
22079SOL     OW70598   6.149   4.007   2.400 -0.4320  0.2586  0.0217
22079SOL    HW170599   6.183   3.955   2.472  1.1591  1.7827  0.4707
22079SOL    HW270600   6.224   4.016   2.340 -2.0958 -2.2842 -2.7364
22080SOL     OW70601   3.526   9.007   9.875  0.3058  0.2211  0.1971
22080SOL    HW170602   3.494   9.088   9.835  0.3510  0.2306  0.1791
22080SOL    HW270603   3.503   9.014   9.968  2.3607  1.3021  0.6735
22081SOL     OW70604   7.394   4.406   4.210 -0.1510  0.0975 -0.1380
22081SOL    HW170605   7.357   4.426   4.296 -0.3503  1.6302 -0.5499
22081SOL    HW270606   7.410   4.312   4.212 -1.8306 -0.2083  0.9318
22082SOL     OW70607   9.977   9.071  10.660  0.3126  0.0293 -0.1717
22082SOL    HW170608   9.963   8.986  10.702  2.0539  0.6174  1.7580
22082SOL    HW270609   9.947   9.135  10.724  0.6649  0.9293 -0.8855
22083SOL     OW70610   8.445   0.842   5.746  0.0121 -0.1545 -0.4780
22083SOL    HW170611   8.435   0.773   5.811 -0.7161  1.2860  1.0012
22083SOL    HW270612   8.537   0.866   5.751  0.1902 -0.7631 -0.7480
22084SOL     OW70613   6.823   0.092   9.054  0.5725 -0.3355 -0.4192
22084SOL    HW170614   6.783   0.153   8.993 -0.3984 -0.7434 -0.2024
22084SOL    HW270615   6.835   0.011   9.004 -0.2293 -0.6720 -0.0859
22085SOL     OW70616   1.665   7.537   3.451  0.3310  0.4250 -0.4102
22085SOL    HW170617   1.629   7.448   3.450  0.1581  0.4599  1.1000
22085SOL    HW270618   1.752   7.528   3.489  0.8450  0.7347 -1.4790
22086SOL     OW70619   9.089   2.105   7.793  0.0668 -0.1618 -0.2825
22086SOL    HW170620   9.075   2.159   7.716 -0.0699 -0.8245 -0.7327
22086SOL    HW270621   9.002   2.073   7.817 -0.0105  0.6955  0.6530
22087SOL     OW70622   7.361   3.634   2.571  0.4337  0.0823  0.1205
22087SOL    HW170623   7.347   3.583   2.491  1.1687  0.3358 -0.1841
22087SOL    HW270624   7.434   3.693   2.549  0.6914  0.1036  0.9947
22088SOL     OW70625   9.955   1.705   4.492 -0.2058  1.0794 -0.5508
22088SOL    HW170626  10.002   1.787   4.480  0.9883  0.3008 -1.3740
22088SOL    HW270627  10.008   1.656   4.555 -1.2337  1.1576  0.4125
22089SOL     OW70628   9.808   6.972   1.667  0.8114 -0.0313  0.2273
22089SOL    HW170629   9.730   7.022   1.689 -0.7879 -1.4657 -1.7882
22089SOL    HW270630   9.855   7.027   1.604  1.3133  0.7144  1.2356
22090SOL     OW70631   6.102   7.070   1.409  0.1841 -0.1023  0.0750
22090SOL    HW170632   6.118   7.080   1.316 -0.2924  0.9898  0.1026
22090SOL    HW270633   6.122   7.155   1.447  1.4981 -0.8491  1.1482
22091SOL     OW70634   6.330   8.766   6.739  0.5147  0.4253  0.3785
22091SOL    HW170635   6.256   8.818   6.771  1.2642  0.8458  1.4834
22091SOL    HW270636   6.324   8.684   6.788 -1.4101 -1.1549 -2.2591
22092SOL     OW70637   4.236   9.768   0.138  0.3567 -0.1705  0.2703
22092SOL    HW170638   4.200   9.856   0.149 -0.7961 -0.6642  0.6849
22092SOL    HW270639   4.161   9.710   0.155  0.9702 -1.2140 -0.4995
22093SOL     OW70640   4.414  10.753   9.315  0.5044 -0.0759 -0.4117
22093SOL    HW170641   4.384  10.772   9.404  0.0072  0.3086 -0.6565
22093SOL    HW270642   4.425  10.658   9.313  1.5521  0.0025  0.3727
22094SOL     OW70643   6.162   5.620   5.478  0.7077  0.4454  0.1768
22094SOL    HW170644   6.211   5.659   5.550  0.1139 -1.7510  1.8686
22094SOL    HW270645   6.218   5.549   5.446 -0.6693 -1.1809  1.2022
22095SOL     OW70646   4.643   7.208  10.741  0.0259 -0.3493 -0.1015
22095SOL    HW170647   4.644   7.187  10.834 -0.4665  0.4858  0.1126
22095SOL    HW270648   4.604   7.296  10.738 -0.7652 -0.7207 -1.1576
22096SOL     OW70649   1.120   3.122   4.961 -0.3485  0.3629  0.2087
22096SOL    HW170650   1.211   3.092   4.958 -0.4099  0.0957  0.8347
22096SOL    HW270651   1.105   3.163   4.875 -0.7386 -2.7681 -1.3354
22097SOL     OW70652   6.611   9.745   2.129  0.3381  0.4810  0.0876
22097SOL    HW170653   6.559   9.727   2.051 -0.6945 -1.7882  1.2137
22097SOL    HW270654   6.702   9.746   2.098 -0.1671  1.9938 -1.4890
22098SOL     OW70655   7.934  10.944   1.030  0.1682 -0.1867  0.0187
22098SOL    HW170656   7.883  11.023   1.010 -0.8510 -0.5228  1.1531
22098SOL    HW270657   8.024  10.968   1.011 -0.4851 -0.1039 -3.7041
22099SOL     OW70658   0.569   7.079   8.266 -0.2346  0.7701  0.2980
22099SOL    HW170659   0.534   7.075   8.177  0.8881  0.6907 -0.1630
22099SOL    HW270660   0.664   7.086   8.254 -0.0308  0.3505  1.4981
22100SOL     OW70661   7.009   3.017   3.119  0.2102  0.0575 -0.7284
22100SOL    HW170662   6.975   2.928   3.115 -0.1501  0.2302 -2.7792
22100SOL    HW270663   7.092   3.013   3.072 -0.6931  1.1297 -2.5193
22101SOL     OW70664   6.949   6.876   5.149 -0.4118 -0.1886  0.0388
22101SOL    HW170665   6.866   6.915   5.120 -0.8658 -0.0594  1.4164
22101SOL    HW270666   6.992   6.848   5.068 -2.2089 -1.1111 -0.6603
22102SOL     OW70667   0.474   7.046   1.088  0.2343  0.5037 -0.4660
22102SOL    HW170668   0.400   7.003   1.044  0.2799  0.7636 -0.8077
22102SOL    HW270669   0.475   7.009   1.176 -0.2764  0.4639 -0.4746
22103SOL     OW70670   4.186   2.713  10.975  0.3637 -0.6037 -0.9472
22103SOL    HW170671   4.223   2.799  10.951 -0.4743 -0.8224 -3.2989
22103SOL    HW270672   4.187   2.713  11.071  0.9280  1.7914 -0.8686
22104SOL     OW70673   7.008   9.172   6.198  0.6521  0.1021 -0.0048
22104SOL    HW170674   7.085   9.214   6.159 -0.2300  2.2824  0.4431
22104SOL    HW270675   6.976   9.113   6.130  2.9244 -1.1829 -0.0313
22105SOL     OW70676   1.057   7.131   9.880 -0.4536  0.2422  0.1491
22105SOL    HW170677   1.069   7.226   9.881 -0.4464  0.2577 -0.4896
22105SOL    HW270678   1.105   7.099   9.956 -1.5343  0.8613  1.1233
22106SOL     OW70679   7.884   0.180   3.086 -0.1842 -0.0908 -0.0894
22106SOL    HW170680   7.848   0.101   3.125 -2.6661  1.0093  0.0036
22106SOL    HW270681   7.904   0.156   2.996 -0.4017 -0.9474  0.0819
22107SOL     OW70682   7.109   5.968   0.161  0.3755 -0.3545  0.0082
22107SOL    HW170683   7.075   5.895   0.213 -0.7919  0.0611 -0.1346
22107SOL    HW270684   7.120   5.932   0.073 -0.8897 -0.2121 -0.2406
22108SOL     OW70685   7.436  10.473   0.188  0.3209  0.6215 -0.0598
22108SOL    HW170686   7.365  10.530   0.161 -1.4032 -1.5451 -0.4146
22108SOL    HW270687   7.417  10.451   0.279  1.3990  1.1796  0.3219
22109SOL     OW70688   3.608   5.329   7.881 -0.4071 -0.9806 -0.1740
22109SOL    HW170689   3.624   5.328   7.975 -0.1294 -3.9786 -0.1652
22109SOL    HW270690   3.694   5.337   7.841 -0.6131  1.6991 -0.2777
22110SOL     OW70691   7.148   5.788   5.048  0.0705  0.3466 -0.0037
22110SOL    HW170692   7.080   5.850   5.022 -1.5525 -2.4341 -3.1085
22110SOL    HW270693   7.212   5.790   4.977  1.4811  0.4190  1.2149
22111SOL     OW70694  10.556  10.428  11.111 -0.8122 -0.0698 -0.1562
22111SOL    HW170695  10.645  10.433  11.145 -1.3155 -0.1410  1.2314
22111SOL    HW270696  10.537  10.518  11.082 -0.8919  0.3991  1.2272
22112SOL     OW70697   2.182   6.664   2.952 -0.0819  0.5769 -0.0826
22112SOL    HW170698   2.117   6.600   2.922 -0.1760  0.5676  0.1388
22112SOL    HW270699   2.267   6.624   2.932 -0.1335  1.0812 -1.4256
22113SOL     OW70700   1.733   7.757   4.211 -0.1098 -0.6193 -0.1291
22113SOL    HW170701   1.760   7.820   4.277 -1.0249  0.2859 -0.5939
22113SOL    HW270702   1.638   7.757   4.215 -0.1817 -0.5503 -1.4355
22114SOL     OW70703   4.276  10.359   9.818  0.0700  0.0733  0.2207
22114SOL    HW170704   4.231  10.442   9.800 -0.5851 -0.7091 -2.3328
22114SOL    HW270705   4.359  10.383   9.857 -1.0527  1.7771  1.6849
22115SOL     OW70706  10.629   0.840   8.580 -0.3028  0.0850  0.2782
22115SOL    HW170707  10.620   0.810   8.490  0.0620  3.4479 -1.0268
22115SOL    HW270708  10.723   0.837   8.598 -0.2669  0.4694  0.1485
22116SOL     OW70709   8.572   1.462   2.075 -0.1587  0.3106  0.3035
22116SOL    HW170710   8.659   1.453   2.113  0.2727  0.8833 -0.5154
22116SOL    HW270711   8.516   1.487   2.148 -0.0813 -2.1024  1.2721
22117SOL     OW70712   3.387  10.758   0.078 -0.0128  0.7951 -0.5586
22117SOL    HW170713   3.443  10.742   0.154 -1.5936  0.6382  0.6434
22117SOL    HW270714   3.347  10.843   0.096 -2.4581 -0.4232  0.1993
22118SOL     OW70715   5.101   1.303   4.382 -0.2752  0.4226 -0.3761
22118SOL    HW170716   5.179   1.334   4.337  2.4524 -1.8831  2.3394
22118SOL    HW270717   5.069   1.380   4.429  1.4260  1.0571 -0.1799
22119SOL     OW70718   5.880   4.984   5.538 -0.0909 -0.5436 -0.0885
22119SOL    HW170719   5.950   5.045   5.514 -0.6404 -0.0483 -0.4551
22119SOL    HW270720   5.804   5.014   5.488 -0.1248 -2.1254 -1.0802
22120SOL     OW70721   9.677   5.213   6.767 -0.0204 -0.0768  0.0951
22120SOL    HW170722   9.772   5.227   6.769  0.1561 -1.1880  0.6048
22120SOL    HW270723   9.652   5.227   6.676  0.4969  1.0285  0.1175
22121SOL     OW70724  10.740   9.345   8.847 -0.1788 -0.0615 -0.4610
22121SOL    HW170725  10.780   9.414   8.900  1.7770 -0.2096 -1.6748
22121SOL    HW270726  10.679   9.302   8.907 -1.0228  2.3111  0.4898
22122SOL     OW70727   5.621   7.405   0.980 -0.2573 -0.3005 -0.0271
22122SOL    HW170728   5.574   7.486   0.963  0.5138  0.0614 -0.4448
22122SOL    HW270729   5.713   7.431   0.990 -0.4064 -0.6267  3.4736
22123SOL     OW70730   7.468   5.398   7.758 -0.3959  0.9506 -0.3438
22123SOL    HW170731   7.412   5.467   7.793 -0.9213  0.6651 -0.5990
22123SOL    HW270732   7.528   5.377   7.829 -0.1892  1.7092 -0.2867
22124SOL     OW70733   9.685   9.296   6.767  0.3320  0.5528 -0.0707
22124SOL    HW170734   9.721   9.379   6.799  2.6128 -0.2994 -0.2845
22124SOL    HW270735   9.625   9.267   6.836  2.3183  0.5865  1.7427
22125SOL     OW70736   6.717   2.601   4.559  0.1206 -0.4153  0.1410
22125SOL    HW170737   6.811   2.609   4.543 -0.0489 -0.1545 -0.7420
22125SOL    HW270738   6.697   2.675   4.617  0.4528 -0.4652  0.3235
22126SOL     OW70739   7.631   9.241  10.989 -0.4964  0.3306 -0.4692
22126SOL    HW170740   7.692   9.224  10.917 -0.8085  1.0744 -0.9183
22126SOL    HW270741   7.556   9.285  10.948 -0.5129  1.1114  0.3536
22127SOL     OW70742   0.858   7.581   9.305 -0.2166  0.2686  0.1067
22127SOL    HW170743   0.849   7.669   9.269  1.4035  0.3299 -0.1992
22127SOL    HW270744   0.790   7.577   9.373  0.0423  1.9693  0.5310
22128SOL     OW70745   6.521  10.296  10.930 -0.0838  0.7123  0.4218
22128SOL    HW170746   6.438  10.319  10.889  0.2153  0.7086 -0.2090
22128SOL    HW270747   6.518  10.337  11.016 -0.7272  0.7302  0.3959
22129SOL     OW70748   9.211   9.278   7.316 -0.0990  0.2041  0.9760
22129SOL    HW170749   9.130   9.260   7.363  0.0101 -0.0454  1.0739
22129SOL    HW270750   9.185   9.332   7.242 -0.8043 -2.0968 -0.5722
22130SOL     OW70751   7.088   6.095   9.928  0.0776 -0.2479  0.0717
22130SOL    HW170752   7.087   6.144   9.846 -4.1591  1.3115  0.7882
22130SOL    HW270753   7.168   6.042   9.924  1.7025  2.1097 -3.5465
22131SOL     OW70754   3.398   5.723   1.523 -0.0002 -0.4754  0.0217
22131SOL    HW170755   3.370   5.786   1.590 -1.1532  1.7145 -2.3751
22131SOL    HW270756   3.446   5.776   1.459 -0.7032 -2.1040 -1.9148
22132SOL     OW70757   9.863   1.168   8.132  0.2058  0.0623  0.4939
22132SOL    HW170758   9.920   1.092   8.145 -0.5280 -0.9653 -1.7698
22132SOL    HW270759   9.791   1.154   8.194  0.1778 -1.0129  0.2501
22133SOL     OW70760   5.507   8.223   3.431  0.1827 -0.1651 -0.3080
22133SOL    HW170761   5.602   8.232   3.437  0.0818  0.3900  0.7226
22133SOL    HW270762   5.479   8.300   3.381  0.2753 -0.3310 -0.6160
22134SOL     OW70763   4.002   6.521   9.074 -0.6568  0.4989  0.0537
22134SOL    HW170764   4.001   6.612   9.042 -1.8002  0.3520 -0.3820
22134SOL    HW270765   3.957   6.471   9.005  0.6477 -0.5346 -0.0773
22135SOL     OW70766   3.775   7.204   1.242  0.0983  0.0389  0.7824
22135SOL    HW170767   3.810   7.278   1.193  1.9189 -0.1972  1.6187
22135SOL    HW270768   3.687   7.232   1.268 -0.3001  0.7794 -1.2230
22136SOL     OW70769   9.858   9.221   9.532 -0.6802  0.1868  0.0909
22136SOL    HW170770   9.941   9.236   9.485  0.0220 -0.7681  1.0089
22136SOL    HW270771   9.802   9.294   9.504  0.1812  0.3924 -1.1792
22137SOL     OW70772   3.185  10.314   0.451  0.4359  0.1954 -0.5634
22137SOL    HW170773   3.100  10.293   0.413 -0.6436  2.2540  0.5653
22137SOL    HW270774   3.247  10.302   0.379 -0.8836 -0.6259 -1.6091
22138SOL     OW70775   3.295   8.271   1.922 -0.4302  0.3780  0.1577
22138SOL    HW170776   3.338   8.322   1.853  0.9356 -1.0877 -0.1134
22138SOL    HW270777   3.203   8.300   1.919 -0.0774  1.4524 -1.2231
22139SOL     OW70778   2.022   8.675  10.544 -0.1386 -0.3423  0.2973
22139SOL    HW170779   2.087   8.739  10.516 -2.6004  1.7727 -1.0004
22139SOL    HW270780   2.052   8.647  10.630  2.7747  0.0271 -0.5146
22140SOL     OW70781   8.499   0.287   9.027  0.0916 -0.2373 -0.0217
22140SOL    HW170782   8.539   0.321   8.948  1.9408 -1.4882  0.3167
22140SOL    HW270783   8.458   0.205   9.000  0.2607 -0.4010  0.2173
22141SOL     OW70784   1.187   8.486   6.806  0.1985  0.6583  0.1534
22141SOL    HW170785   1.226   8.570   6.827 -0.4877  0.8473  0.7247
22141SOL    HW270786   1.217   8.427   6.876 -0.3058  0.7405  0.4462
22142SOL     OW70787   9.161   4.878   6.464 -0.1646  0.0851 -0.4295
22142SOL    HW170788   9.143   4.950   6.403 -2.0191 -1.2749 -1.6011
22142SOL    HW270789   9.075   4.849   6.493  0.4161 -2.4644 -1.0122
22143SOL     OW70790   4.321   7.304   5.358 -0.1230  0.1814  0.2144
22143SOL    HW170791   4.333   7.210   5.373  1.3756  0.2759 -0.2508
22143SOL    HW270792   4.250   7.309   5.295 -1.2858 -0.5481  1.4063
22144SOL     OW70793   7.291   4.334   9.945 -0.0938 -0.3475 -0.2343
22144SOL    HW170794   7.301   4.260   9.885  0.0826  0.9571 -1.8674
22144SOL    HW270795   7.345   4.309  10.021  1.4131 -1.1398 -1.4872
22145SOL     OW70796   8.433  11.055   7.725  0.0682 -0.0995  0.0405
22145SOL    HW170797   8.370  10.990   7.755 -0.5074  0.5045  0.1649
22145SOL    HW270798   8.509  11.004   7.697 -0.1198 -0.7821  0.7402
22146SOL     OW70799   8.166   0.672   7.476  0.7536  0.1724 -0.1686
22146SOL    HW170800   8.237   0.633   7.527  0.2895  1.1861  1.3447
22146SOL    HW270801   8.208   0.737   7.421  1.3281 -1.2717 -1.4942
22147SOL     OW70802   2.952   1.162   8.104  0.3377  0.0055  0.6280
22147SOL    HW170803   2.862   1.195   8.096  1.2034  2.3299 -0.1091
22147SOL    HW270804   2.942   1.077   8.148 -2.4395 -1.1802 -1.9807
22148SOL     OW70805  10.746   2.249   8.822 -0.4921  0.3710 -0.1610
22148SOL    HW170806  10.721   2.337   8.850 -1.8161 -0.4879  1.5624
22148SOL    HW270807  10.738   2.195   8.901 -0.1878 -1.3919 -1.2683
22149SOL     OW70808   5.053   2.221   5.017  0.0951  0.0660 -0.5087
22149SOL    HW170809   4.966   2.196   5.048 -0.2696  1.1109 -0.6739
22149SOL    HW270810   5.105   2.232   5.097 -0.1843  0.3896 -0.3725
22150SOL     OW70811   7.742   3.390   5.024  0.1828 -0.1282  0.3996
22150SOL    HW170812   7.823   3.410   4.977  0.6250  1.5213  1.7695
22150SOL    HW270813   7.763   3.314   5.078  0.7749  0.1836  0.6145
22151SOL     OW70814   4.785   8.639   1.903  0.0643  0.0104 -0.5098
22151SOL    HW170815   4.754   8.549   1.895  0.8937 -0.2689 -0.7181
22151SOL    HW270816   4.881   8.632   1.899  0.2209  0.7277  1.1553
22152SOL     OW70817   5.506  10.140   0.916 -0.2250  0.1321 -0.4620
22152SOL    HW170818   5.601  10.143   0.905 -0.1522 -3.4154 -2.3757
22152SOL    HW270819   5.491  10.058   0.964 -2.3056  1.2271  0.8646
22153SOL     OW70820   0.642  10.661   2.335 -0.2405 -0.3832  0.2054
22153SOL    HW170821   0.594  10.587   2.373 -0.5035  0.4130  1.4820
22153SOL    HW270822   0.653  10.638   2.243 -1.3257 -1.4843  0.3301
22154SOL     OW70823  10.416   0.461   3.647  0.6654 -0.0519  0.0189
22154SOL    HW170824  10.367   0.482   3.727  0.7534 -0.6807  0.2425
22154SOL    HW270825  10.354   0.413   3.592  0.9467 -0.6367  0.2003
22155SOL     OW70826   4.060   8.862   7.602 -0.2129 -0.0938 -0.3993
22155SOL    HW170827   3.978   8.911   7.594 -0.7471 -0.5879  1.5695
22155SOL    HW270828   4.047   8.785   7.546 -0.0290  1.1017 -2.1674
22156SOL     OW70829   2.860   6.752   8.441 -0.2601 -0.1718  0.0133
22156SOL    HW170830   2.825   6.802   8.368 -1.3402 -2.4265 -1.0897
22156SOL    HW270831   2.933   6.703   8.403  0.7829  0.5143  1.0724
22157SOL     OW70832   9.339  10.333   9.448  0.4012 -0.5200  0.1244
22157SOL    HW170833   9.310  10.401   9.388  0.0744 -0.0323  0.8148
22157SOL    HW270834   9.258  10.289   9.475  0.6135 -1.1996 -0.3300
22158SOL     OW70835  11.068   2.351   2.301  0.1594  0.1300 -0.1933
22158SOL    HW170836  10.983   2.369   2.341 -0.0022 -0.6562 -0.1800
22158SOL    HW270837  11.119   2.307   2.369  0.4423  0.2490 -0.3261
22159SOL     OW70838   2.008   9.432   8.334 -0.5201  0.7231  0.3282
22159SOL    HW170839   2.091   9.471   8.360 -0.2325  0.7189 -0.5649
22159SOL    HW270840   1.942   9.495   8.362 -0.0806  1.7190 -0.8132
22160SOL     OW70841   2.180   9.072   8.126  0.2684 -0.6096 -0.1586
22160SOL    HW170842   2.130   9.137   8.175  0.4954 -0.8756  0.4439
22160SOL    HW270843   2.251   9.121   8.084 -0.0203 -0.3546 -0.3469
22161SOL     OW70844   1.359   9.821  11.028 -0.2431  0.3298 -0.4659
22161SOL    HW170845   1.295   9.800  10.959  0.3892  1.0515 -1.2830
22161SOL    HW270846   1.431   9.864  10.982  2.1106 -2.7668 -0.0201
22162SOL     OW70847   3.406   4.370   3.851 -0.1236 -0.0219 -0.8996
22162SOL    HW170848   3.357   4.306   3.798  1.8939 -1.0285 -1.6424
22162SOL    HW270849   3.495   4.366   3.817  0.4476  1.9781  0.2057
22163SOL     OW70850   1.054   1.650   3.013 -0.1630  0.1843 -0.0460
22163SOL    HW170851   1.118   1.585   3.042 -1.2547 -1.4892 -1.2190
22163SOL    HW270852   1.079   1.668   2.922 -1.7609 -1.0729 -0.7687
22164SOL     OW70853   4.955   5.035   3.636 -0.4854  0.0736 -0.2233
22164SOL    HW170854   4.899   4.998   3.568 -0.8481 -0.5094  0.3842
22164SOL    HW270855   4.903   5.030   3.716  0.7543 -1.3319  0.5422
22165SOL     OW70856   7.434   2.080   4.881  0.1751  0.1535 -0.0396
22165SOL    HW170857   7.493   2.035   4.820  1.3327  1.5770 -0.0139
22165SOL    HW270858   7.472   2.167   4.892 -0.7405  0.3781  1.7053
22166SOL     OW70859   4.231   2.519   5.790 -0.2161  0.2360  0.0088
22166SOL    HW170860   4.240   2.589   5.726  0.0215 -0.8225 -1.1555
22166SOL    HW270861   4.301   2.536   5.854  0.5496  0.4412 -0.8606
22167SOL     OW70862   4.785   3.605   7.329  0.3871 -0.2435  0.1691
22167SOL    HW170863   4.776   3.701   7.327 -1.2352 -0.3822 -0.2235
22167SOL    HW270864   4.730   3.574   7.257 -0.8582 -1.5954  1.6406
22168SOL     OW70865   3.391   2.264   5.669  0.0911  0.0702  0.3735
22168SOL    HW170866   3.468   2.218   5.635  0.7219  0.4965  1.1800
22168SOL    HW270867   3.357   2.312   5.594  0.2502 -0.6032 -0.1377
22169SOL     OW70868   2.826   3.435   8.034 -0.1111  0.4856 -0.4732
22169SOL    HW170869   2.876   3.515   8.016  0.9766  0.3117  1.5133
22169SOL    HW270870   2.892   3.370   8.056 -1.1039 -0.3471  0.1528
22170SOL     OW70871   2.159   0.788   8.387 -0.2671 -0.0874  0.4644
22170SOL    HW170872   2.093   0.739   8.435 -0.0681  1.0136  1.9289
22170SOL    HW270873   2.240   0.776   8.436  0.2111  0.1321 -0.2464
22171SOL     OW70874   4.468   3.734   3.850 -0.7765 -0.5439  0.5919
22171SOL    HW170875   4.431   3.793   3.785 -0.8763 -1.7488 -0.4811
22171SOL    HW270876   4.507   3.664   3.799 -1.0870 -1.6572  1.8367
22172SOL     OW70877  10.702  10.183   1.336  0.2094 -0.3736 -0.2159
22172SOL    HW170878  10.611  10.183   1.366 -0.8532 -0.3118 -3.1507
22172SOL    HW270879  10.716  10.094   1.304  1.3789 -0.5243  0.6620
22173SOL     OW70880   1.234   5.299   8.819  0.0303 -0.0198 -0.2412
22173SOL    HW170881   1.243   5.342   8.734  0.1459  0.0026 -0.2180
22173SOL    HW270882   1.291   5.222   8.813 -0.5905 -0.4690 -0.4793
22174SOL     OW70883   0.382   6.720   2.607  0.2243  0.1654  0.5298
22174SOL    HW170884   0.324   6.668   2.664  1.0024 -0.9162  0.3750
22174SOL    HW270885   0.369   6.810   2.635 -0.9203 -0.1375  1.0479
22175SOL     OW70886   9.861   6.788   5.175  1.0704  0.0670  0.5026
22175SOL    HW170887   9.810   6.826   5.246  0.2592  0.5962 -0.3335
22175SOL    HW270888   9.885   6.862   5.120 -2.3931 -0.6518 -2.3476
22176SOL     OW70889   9.421  10.535   7.070 -0.0516 -0.5902  0.3113
22176SOL    HW170890   9.447  10.494   7.153  3.1089 -1.6630 -1.0514
22176SOL    HW270891   9.434  10.628   7.085  1.2719 -0.8307  0.8307
22177SOL     OW70892   7.209   5.317   9.362  0.4671 -0.3044  0.0862
22177SOL    HW170893   7.214   5.401   9.407 -1.1043  0.3748 -0.9004
22177SOL    HW270894   7.151   5.334   9.287 -1.4319 -2.6862  0.8727
22178SOL     OW70895   7.870   9.629  10.154 -0.0317  0.1020  0.0413
22178SOL    HW170896   7.802   9.576  10.196 -1.7137  0.6567 -1.8262
22178SOL    HW270897   7.844   9.634  10.063  3.0068 -0.3104 -0.9641
22179SOL     OW70898   8.701   3.273   9.398  0.0802 -0.0368  0.5108
22179SOL    HW170899   8.715   3.198   9.340  0.3712  1.7782 -1.8860
22179SOL    HW270900   8.608   3.293   9.389  0.2411  0.5957  0.2561
22180SOL     OW70901   3.111   1.323   6.687  0.3286 -0.2413  0.0248
22180SOL    HW170902   3.091   1.232   6.705 -1.4072  0.1892  0.5030
22180SOL    HW270903   3.053   1.346   6.614  2.4851 -0.1460 -1.7431
22181SOL     OW70904   4.232   2.992   1.693  0.0822 -0.1191  0.1417
22181SOL    HW170905   4.156   3.006   1.637 -0.0839  1.4210  0.6819
22181SOL    HW270906   4.196   2.959   1.775  0.1519 -0.7824 -0.0930
22182SOL     OW70907   1.911   4.032   4.562 -0.3547  0.2121  0.1664
22182SOL    HW170908   1.975   3.971   4.526  1.5610  1.9903  0.3645
22182SOL    HW270909   1.940   4.047   4.652 -1.0545  1.0213  0.2747
22183SOL     OW70910   7.642   5.387  10.832 -0.6887 -0.4560 -0.0514
22183SOL    HW170911   7.621   5.426  10.747  0.2552 -2.8414 -1.4621
22183SOL    HW270912   7.589   5.308  10.836 -0.9568 -0.2334  1.7709
22184SOL     OW70913   3.342   8.589   9.639  0.5887  0.2179 -0.5490
22184SOL    HW170914   3.333   8.494   9.635  0.2960  0.2082  0.1160
22184SOL    HW270915   3.373   8.606   9.728  0.7242  0.7400 -0.6924
22185SOL     OW70916   4.362   1.641   8.518 -0.1049 -0.4956  0.3192
22185SOL    HW170917   4.280   1.646   8.470  1.2414  0.1426 -2.0433
22185SOL    HW270918   4.422   1.595   8.460  1.0412 -1.6749  2.3187
22186SOL     OW70919   0.025  10.692   7.124 -0.3033  0.0674  0.1747
22186SOL    HW170920   0.082  10.618   7.103 -0.0398  0.0917  0.7830
22186SOL    HW270921   0.013  10.687   7.219 -0.6228  0.5659  0.1650
22187SOL     OW70922   4.572   1.237   9.274  0.1207  0.1826  0.0436
22187SOL    HW170923   4.514   1.225   9.349 -0.5723  3.4255  0.1668
22187SOL    HW270924   4.660   1.241   9.312 -0.1872  1.4114  0.6759
22188SOL     OW70925   9.435   3.323  10.626 -0.1780 -0.1022 -0.0167
22188SOL    HW170926   9.420   3.397  10.684  0.5148 -0.0615  0.1278
22188SOL    HW270927   9.516   3.345  10.580  0.3810 -1.0220  0.4797
22189SOL     OW70928   0.342   8.372   2.241 -0.0779  0.4534  0.8635
22189SOL    HW170929   0.276   8.307   2.218  0.1347 -0.0547  1.6515
22189SOL    HW270930   0.426   8.327   2.231  0.0376  0.3104  2.2248
22190SOL     OW70931   4.667   2.035   6.645 -0.0143 -0.2739  0.8862
22190SOL    HW170932   4.608   2.010   6.715 -2.1606 -3.2756 -1.6984
22190SOL    HW270933   4.611   2.074   6.578  1.0279 -1.8905 -1.0651
22191SOL     OW70934   3.626   6.948   3.293 -0.0852  0.5206 -0.0034
22191SOL    HW170935   3.596   6.971   3.381 -1.6982  0.9089 -0.6125
22191SOL    HW270936   3.650   6.856   3.299  0.2708  0.6662  0.9467
22192SOL     OW70937   7.656   9.527  10.893 -0.2997  0.1270 -0.0338
22192SOL    HW170938   7.735   9.526  10.947  1.2499 -0.5268 -2.1707
22192SOL    HW270939   7.672   9.594  10.827 -1.2440 -0.4600 -0.8960
22193SOL     OW70940  10.433   4.061   1.676  0.7316 -0.6874 -0.0977
22193SOL    HW170941  10.518   4.020   1.692  0.9625  0.0173  0.4958
22193SOL    HW270942  10.377   4.028   1.746  1.0316  0.3197  0.6385
22194SOL     OW70943   7.335   2.466   0.348 -0.1737 -0.0603  0.2082
22194SOL    HW170944   7.325   2.560   0.332 -1.0272 -0.4707 -2.0179
22194SOL    HW270945   7.271   2.446   0.416 -2.9164  0.3358 -2.0874
22195SOL     OW70946   2.932   9.928   0.450 -0.2259 -0.2478  0.1278
22195SOL    HW170947   2.896   9.974   0.374 -0.7131  0.3299  0.7002
22195SOL    HW270948   3.025   9.952   0.450 -0.6237  1.4387  0.8884
22196SOL     OW70949  11.108   0.800   4.402  0.0995 -0.1779 -0.4426
22196SOL    HW170950  11.065   0.882   4.427 -2.4799 -1.1810 -1.2534
22196SOL    HW270951  11.152   0.770   4.482  0.1302  1.3901  0.1677
22197SOL     OW70952   6.639   3.783  10.313 -0.0481 -0.6215  0.2349
22197SOL    HW170953   6.566   3.721  10.303  0.0195 -0.3996 -2.0405
22197SOL    HW270954   6.681   3.785  10.227  1.8056  0.3276  1.1162
22198SOL     OW70955   5.284   2.421   2.295 -0.3209 -0.0368 -0.0019
22198SOL    HW170956   5.316   2.445   2.382  0.4150  0.0715 -0.3009
22198SOL    HW270957   5.189   2.431   2.302 -0.3976 -1.2742  1.1781
22199SOL     OW70958   3.683   9.971   1.491 -0.1887 -0.7423  0.4107
22199SOL    HW170959   3.667   9.934   1.405 -3.7094 -1.0173  1.0253
22199SOL    HW270960   3.608  10.028   1.507  1.9001  1.7737  2.0870
22200SOL     OW70961   3.025   8.187   2.163  0.3656  0.1661 -0.1481
22200SOL    HW170962   2.931   8.168   2.168  0.4853 -0.1822  1.3430
22200SOL    HW270963   3.039   8.216   2.073 -1.1339  0.0359 -0.4517
22201SOL     OW70964   1.976  10.766   2.424  0.3062  0.1683  0.0072
22201SOL    HW170965   1.950  10.740   2.513 -1.6003  0.6699 -0.3453
22201SOL    HW270966   2.044  10.704   2.399 -0.6829 -1.3948  1.0065
22202SOL     OW70967   7.216  10.332   5.731  0.4716  0.2008  0.3899
22202SOL    HW170968   7.293  10.354   5.679  0.0348 -0.6597 -0.6641
22202SOL    HW270969   7.182  10.416   5.760 -0.1084  0.8813 -1.9880
22203SOL     OW70970   6.212   2.001   1.712 -0.0251  0.6408  0.1296
22203SOL    HW170971   6.165   2.023   1.631 -0.8331 -0.2370  0.3490
22203SOL    HW270972   6.194   1.908   1.725  1.7064  0.3062  0.2806
22204SOL     OW70973   8.262   6.039   2.427  0.4112 -0.1148 -0.4584
22204SOL    HW170974   8.203   6.102   2.468  0.4541  1.0617 -2.1422
22204SOL    HW270975   8.264   5.966   2.489 -0.0334  1.2907  1.3098
22205SOL     OW70976   0.463   5.333   3.450 -0.2488  0.1635  0.2644
22205SOL    HW170977   0.432   5.243   3.458 -0.4117  0.2560  0.7081
22205SOL    HW270978   0.558   5.326   3.458 -0.2679  0.0396  0.3988
22206SOL     OW70979   9.408   7.773   8.263 -0.0486 -0.0136  0.2794
22206SOL    HW170980   9.493   7.731   8.276  0.4622  0.6550 -0.7460
22206SOL    HW270981   9.418   7.859   8.304 -0.1712  0.1187  0.0340
22207SOL     OW70982   7.885   2.519   0.811  0.5778 -0.0243 -0.6433
22207SOL    HW170983   7.906   2.593   0.754 -0.0612 -0.6212 -1.6721
22207SOL    HW270984   7.791   2.528   0.829  0.5078 -0.5348 -0.7246
22208SOL     OW70985   4.648   4.193  10.640 -0.4992 -0.2649 -0.0796
22208SOL    HW170986   4.740   4.167  10.640  0.0204  1.4616  0.3627
22208SOL    HW270987   4.619   4.177  10.550  1.0000  1.5955 -0.9615
22209SOL     OW70988   9.689   8.995   0.394  0.0927 -0.2529 -0.2120
22209SOL    HW170989   9.682   9.064   0.460 -0.1755 -2.2228  1.9321
22209SOL    HW270990   9.599   8.966   0.382  0.4210 -1.6103  0.4923
22210SOL     OW70991   2.326   2.461   3.045 -0.3744  0.7405  0.1881
22210SOL    HW170992   2.294   2.546   3.017 -1.4377  0.6924  1.1968
22210SOL    HW270993   2.280   2.443   3.127 -0.4594 -0.9666 -0.1822
22211SOL     OW70994   1.761   2.038   8.580 -0.5154 -0.2150 -0.0081
22211SOL    HW170995   1.768   1.969   8.514  0.3743  0.2150 -0.3835
22211SOL    HW270996   1.786   2.118   8.533  0.2332  0.0768  0.8672
22212SOL     OW70997   4.217   8.451   3.692 -0.4873 -0.1449 -0.6024
22212SOL    HW170998   4.123   8.462   3.675 -0.6196 -0.0188  0.1442
22212SOL    HW270999   4.236   8.361   3.668 -1.0902 -0.5728  0.4301
22213SOL     OW71000  10.114   9.294   1.176  0.2145  0.1397  0.7017
22213SOL    HW171001  10.079   9.378   1.204 -0.6529  0.1168 -0.2770
22213SOL    HW271002  10.206   9.313   1.154 -0.3575  1.1872 -0.9670
22214SOL     OW71003   1.000   6.849   6.490  0.4669  0.8506 -0.3025
22214SOL    HW171004   0.953   6.911   6.435  0.5983  0.1384 -1.2294
22214SOL    HW271005   0.931   6.807   6.542  0.1686  0.4689 -0.9939
22215SOL     OW71006   3.408   9.770   3.745 -0.5953  0.1449  0.2228
22215SOL    HW171007   3.485   9.729   3.785  1.1130 -0.5328 -3.3700
22215SOL    HW271008   3.391   9.847   3.799  2.9984  0.6753  0.8608
22216SOL     OW71009   6.239   0.354   3.615 -0.1990 -0.1835 -0.3439
22216SOL    HW171010   6.211   0.302   3.690  0.7764 -0.7949 -0.3938
22216SOL    HW271011   6.238   0.445   3.647 -0.2395 -0.3906  0.2567
22217SOL     OW71012   2.567   7.058   6.109 -0.1082  0.0918 -0.1948
22217SOL    HW171013   2.481   7.095   6.089 -0.4072 -0.3592  0.2325
22217SOL    HW271014   2.608   7.045   6.024 -0.3982  0.4638 -0.3930
22218SOL     OW71015   2.097   9.382   7.784  0.0132 -0.1037 -0.6816
22218SOL    HW171016   2.129   9.471   7.769 -0.8345  0.2892 -0.2497
22218SOL    HW271017   2.051   9.387   7.868 -0.5565 -0.8075 -0.9365
22219SOL     OW71018  10.755   5.235   5.296 -0.1506 -0.2171 -0.0850
22219SOL    HW171019  10.820   5.238   5.366 -0.6576  0.4749  0.3686
22219SOL    HW271020  10.806   5.215   5.217  0.4680 -0.6940  0.4194
22220SOL     OW71021   5.830   7.375   6.164  0.6009  0.2656  0.1271
22220SOL    HW171022   5.844   7.320   6.086  1.8802  0.1895  0.3870
22220SOL    HW271023   5.777   7.322   6.222 -0.9444  0.5664 -0.9373
22221SOL     OW71024  11.085   1.669  10.016  0.1557  0.0756  0.6411
22221SOL    HW171025  11.106   1.672   9.923 -1.2936  1.3260  0.3107
22221SOL    HW271026  11.009   1.610  10.022 -0.1421  0.4833  0.9413
22222SOL     OW71027   2.942   8.187   3.606  0.2705 -0.1779  0.3015
22222SOL    HW171028   2.930   8.281   3.623 -0.7932 -0.3974  0.8340
22222SOL    HW271029   3.022   8.182   3.553  0.4386  1.0120  0.4206
22223SOL     OW71030   7.864   2.170   6.885  0.5059 -0.3136 -0.4993
22223SOL    HW171031   7.843   2.085   6.924 -0.6283  0.1143 -0.1272
22223SOL    HW271032   7.789   2.225   6.907  0.9631  0.6259 -1.2279
22224SOL     OW71033   2.486   4.678   2.636  0.0929 -0.4483 -0.5341
22224SOL    HW171034   2.486   4.584   2.616 -2.6643 -0.5869 -0.1982
22224SOL    HW271035   2.428   4.687   2.711 -1.2033  1.7332 -1.7041
22225SOL     OW71036   8.269   8.745   4.627  0.5431 -0.1359  0.3625
22225SOL    HW171037   8.313   8.745   4.711 -0.9223 -0.1507  1.1723
22225SOL    HW271038   8.196   8.807   4.638 -1.4209 -2.2468  0.1268
22226SOL     OW71039   7.558   9.336  10.732  0.0646 -0.2819 -0.1177
22226SOL    HW171040   7.604   9.404  10.782 -0.9853  0.0890  0.3824
22226SOL    HW271041   7.596   9.341  10.644  2.5905 -1.5493  0.8078
22227SOL     OW71042  10.982   3.729  10.723  0.3095  0.2135  0.6794
22227SOL    HW171043  10.978   3.723  10.818 -0.6805 -0.7996  0.6017
22227SOL    HW271044  10.890   3.725  10.696  0.5513  1.0065 -0.2935
22228SOL     OW71045   0.002   2.102  10.726 -0.4255  0.6728  0.7753
22228SOL    HW171046   0.041   2.036  10.782 -1.0657 -0.7296 -0.3471
22228SOL    HW271047   0.055   2.101  10.646  0.5589  2.7256  1.3420
22229SOL     OW71048   6.384   5.567   9.409  0.8333 -0.1197  0.6009
22229SOL    HW171049   6.311   5.511   9.436  1.0572 -0.7235 -0.0016
22229SOL    HW271050   6.405   5.537   9.320  0.4793  1.4285 -0.0390
22230SOL     OW71051  10.107   1.553   0.677  0.1679  0.2400 -0.4131
22230SOL    HW171052  10.065   1.480   0.723  1.3493 -0.4614 -0.4149
22230SOL    HW271053  10.057   1.561   0.596  0.0551 -0.6043 -0.4365
22231SOL     OW71054   8.621   3.786  10.711 -0.1561 -0.1629 -0.2195
22231SOL    HW171055   8.550   3.850  10.706  0.2685  0.5292  1.7456
22231SOL    HW271056   8.698   3.833  10.680 -0.0824 -0.1010  0.0525
22232SOL     OW71057   2.018   4.842   8.523  0.0764  0.2203  0.1592
22232SOL    HW171058   1.972   4.917   8.486 -1.0977 -1.0867 -1.1506
22232SOL    HW271059   1.991   4.841   8.615 -0.0769  1.2542  0.1375
22233SOL     OW71060   6.323   7.036  10.290  0.1557  0.8073  0.6703
22233SOL    HW171061   6.238   7.038  10.246 -0.5960  0.8933  2.0804
22233SOL    HW271062   6.303   7.056  10.381  1.6485  0.4297  1.1010
22234SOL     OW71063   4.502   9.352   1.800  0.1148  0.0468  0.2071
22234SOL    HW171064   4.458   9.432   1.771  0.2485 -0.6693 -2.1317
22234SOL    HW271065   4.445   9.281   1.771 -0.5370 -0.7816  3.1526
22235SOL     OW71066   0.584   0.199   6.797  0.5216 -0.3026 -0.2711
22235SOL    HW171067   0.548   0.155   6.720  1.8148 -1.5746 -0.1804
22235SOL    HW271068   0.507   0.232   6.843 -0.4720 -2.0012 -0.6396
22236SOL     OW71069   5.013   6.133   6.909  0.1455  0.3227 -0.0962
22236SOL    HW171070   5.098   6.132   6.865  0.7175 -0.0705  0.9796
22236SOL    HW271071   5.034   6.138   7.003 -0.9331 -1.8920  0.3445
22237SOL     OW71072   1.668   3.874  10.470 -0.4158  0.0215  0.2230
22237SOL    HW171073   1.726   3.940  10.430  0.4080 -0.3444  0.7684
22237SOL    HW271074   1.658   3.807  10.403  0.0009 -0.0282  0.2069
22238SOL     OW71075   4.365   6.284   0.133 -0.3194  0.1794 -0.4005
22238SOL    HW171076   4.286   6.312   0.180 -0.9438 -1.3852 -0.4406
22238SOL    HW271077   4.374   6.347   0.062 -2.0496 -0.0813 -0.8999
22239SOL     OW71078   7.475   5.874  10.384 -0.6451 -0.1848 -0.2039
22239SOL    HW171079   7.550   5.932  10.369  0.0924 -0.6336  1.5273
22239SOL    HW271080   7.450   5.889  10.475 -3.0396  0.3404 -0.8854
22240SOL     OW71081  10.744   9.199   0.910 -0.0483  0.6423  0.3460
22240SOL    HW171082  10.657   9.197   0.870  0.3382  2.2884 -0.6698
22240SOL    HW271083  10.752   9.115   0.955 -1.8723  0.1696 -0.1516
22241SOL     OW71084   3.229   1.784   6.094 -0.2962 -0.8021 -0.5474
22241SOL    HW171085   3.317   1.757   6.120 -0.4098 -1.8308 -1.1600
22241SOL    HW271086   3.172   1.753   6.165 -0.1427  0.0953 -0.0249
22242SOL     OW71087   3.891   9.442   3.408  0.4955 -0.0836  0.6167
22242SOL    HW171088   3.928   9.398   3.484 -0.9839 -1.4731  0.5976
22242SOL    HW271089   3.796   9.437   3.421  0.0924 -1.8945 -2.0734
22243SOL     OW71090   6.629   0.951   5.359  0.2676  0.5569  0.7573
22243SOL    HW171091   6.563   0.920   5.420  0.2909 -0.6370  0.2096
22243SOL    HW271092   6.703   0.891   5.372 -0.0112 -0.2159 -0.9365
22244SOL     OW71093   9.049   3.421   2.031 -0.0954 -0.0746 -0.2178
22244SOL    HW171094   9.120   3.465   1.984 -0.0988 -0.4442 -0.5721
22244SOL    HW271095   9.083   3.408   2.120  0.8718 -1.5834 -0.7643
22245SOL     OW71096   3.435   0.408   5.912 -0.1940  0.1620 -0.2733
22245SOL    HW171097   3.428   0.493   5.954 -1.7214 -0.4846  0.8604
22245SOL    HW271098   3.382   0.349   5.965  0.7861 -1.5186 -1.0310
22246SOL     OW71099   8.264   5.277  10.977 -0.0841 -0.3920 -0.2387
22246SOL    HW171100   8.338   5.293  10.919  0.1977 -3.0107 -0.7292
22246SOL    HW271101   8.301   5.229  11.050 -0.9727  0.1474  0.5882
22247SOL     OW71102   2.490   3.105   3.880 -0.3782 -0.0308 -0.1534
22247SOL    HW171103   2.495   3.157   3.799 -1.8720  0.0752 -0.2143
22247SOL    HW271104   2.435   3.158   3.938  0.7725 -0.0656  0.9819
22248SOL     OW71105   1.958  10.885   6.169 -0.3222  0.1977 -0.1902
22248SOL    HW171106   2.039  10.895   6.220 -0.3028  1.1107 -0.3862
22248SOL    HW271107   1.936  10.974   6.142 -1.7246  0.0292  0.3530
22249SOL     OW71108   6.795   6.811   4.006 -0.0647  0.4671  0.6589
22249SOL    HW171109   6.709   6.827   3.969 -0.4297  0.6371  1.5590
22249SOL    HW271110   6.824   6.729   3.967 -1.7990 -1.0348  2.3769
22250SOL     OW71111   9.135   0.459   0.615 -0.1124 -0.5719  0.1269
22250SOL    HW171112   9.166   0.407   0.690  0.9095  0.8346  0.7312
22250SOL    HW271113   9.144   0.550   0.644 -1.2356 -0.0301 -1.1330
22251SOL     OW71114   3.136   3.699   9.686  0.0560  0.0519  0.0189
22251SOL    HW171115   3.111   3.759   9.756 -0.1107 -2.0515  1.8825
22251SOL    HW271116   3.067   3.710   9.620  0.0931  1.9207  0.2403
22252SOL     OW71117   9.945   9.389   9.041  0.0111  0.6922 -0.0395
22252SOL    HW171118   9.991   9.472   9.027  1.8284 -0.1249  0.7043
22252SOL    HW271119   9.989   9.327   8.982  1.1006 -0.5089  1.9222
22253SOL     OW71120   1.250   5.373   1.781  0.0347 -0.2859  0.2356
22253SOL    HW171121   1.176   5.335   1.734  0.0275  0.3160 -0.2553
22253SOL    HW271122   1.323   5.369   1.718 -0.0305  0.7376  0.0665
22254SOL     OW71123   6.198   7.872   6.518  0.3977  0.2198 -0.3301
22254SOL    HW171124   6.192   7.956   6.565 -1.6488  0.9253 -1.7003
22254SOL    HW271125   6.287   7.841   6.535  0.6300  1.7851  1.6765
22255SOL     OW71126   3.420   1.767   5.445 -0.0444  0.2993 -0.4150
22255SOL    HW171127   3.345   1.771   5.505  0.7413 -1.0324  0.6995
22255SOL    HW271128   3.450   1.677   5.451  1.2537  0.6506 -1.3578
22256SOL     OW71129   1.721   5.477   0.112 -0.0260  0.2063  0.2791
22256SOL    HW171130   1.727   5.382   0.114 -0.2117  0.1975  0.5365
22256SOL    HW271131   1.798   5.506   0.062 -0.6217 -0.1317 -0.8532
22257SOL     OW71132   7.959   3.351  11.066 -0.4018 -0.1328 -0.2032
22257SOL    HW171133   8.015   3.417  11.107 -0.6049 -0.4871  0.6778
22257SOL    HW271134   7.999   3.334  10.981  0.5914 -0.0814  0.2498
22258SOL     OW71135   3.005   0.182   1.207 -0.1122  0.2010 -0.0936
22258SOL    HW171136   2.942   0.202   1.277  1.2100  3.1729  0.4185
22258SOL    HW271137   2.952   0.142   1.138 -1.9697 -0.2573  1.5137
22259SOL     OW71138   2.052  10.021   6.896 -0.0172 -0.5423  0.3854
22259SOL    HW171139   1.960  10.007   6.874 -0.1063  0.2442  0.2517
22259SOL    HW271140   2.094  10.038   6.812  0.5702 -2.5374  0.2232
22260SOL     OW71141   9.386   7.257   7.957  0.5292 -0.0902 -0.1416
22260SOL    HW171142   9.357   7.255   7.866  1.4341 -2.1101 -0.4396
22260SOL    HW271143   9.319   7.208   8.005  1.9031 -2.3466 -0.3919
22261SOL     OW71144   2.963   1.084   4.857 -0.0435  0.4686 -0.0921
22261SOL    HW171145   3.031   1.021   4.835 -2.4400 -2.1016 -0.6531
22261SOL    HW271146   2.978   1.105   4.949 -0.0602 -2.1565  0.5711
22262SOL     OW71147   9.368  10.244   6.839 -0.2747  0.0951 -0.1540
22262SOL    HW171148   9.347  10.273   6.750  1.0271 -1.1710 -0.9255
22262SOL    HW271149   9.347  10.151   6.839  1.7631 -0.4043  0.1504
22263SOL     OW71150   5.163   5.050   7.474 -0.4757 -0.2162 -0.2153
22263SOL    HW171151   5.222   5.087   7.540  0.7959 -1.5047 -0.5734
22263SOL    HW271152   5.097   5.118   7.460 -0.9400  0.0329  2.5416
22264SOL     OW71153   5.680   6.479   5.555 -0.3782 -0.2453  0.4038
22264SOL    HW171154   5.704   6.408   5.613  0.4042 -0.8969 -0.6840
22264SOL    HW271155   5.720   6.557   5.594 -1.3400 -0.3388  1.6603
22265SOL     OW71156   7.049   8.276   2.223 -0.2731 -0.2020  0.1628
22265SOL    HW171157   7.118   8.318   2.171 -0.6869  0.1232 -0.1269
22265SOL    HW271158   6.971   8.330   2.208 -0.4430 -0.2174  0.9815
22266SOL     OW71159   3.868   3.468   4.715 -0.1593  0.9153 -0.1356
22266SOL    HW171160   3.943   3.504   4.668 -0.5464  0.5266 -1.0906
22266SOL    HW271161   3.832   3.403   4.655 -0.0403 -0.3930  1.1438
22267SOL     OW71162   5.149   3.700  10.786 -0.2954  0.0219 -1.2857
22267SOL    HW171163   5.156   3.607  10.808 -1.7573  0.1479 -0.1724
22267SOL    HW271164   5.239   3.733  10.796  0.0580 -1.0579 -0.7067
22268SOL     OW71165   5.316   4.157   6.906 -0.4713 -0.0893  0.4368
22268SOL    HW171166   5.339   4.240   6.947 -0.0708  0.8153 -1.5179
22268SOL    HW271167   5.386   4.097   6.932 -0.0818  0.5222  0.8325
22269SOL     OW71168   5.186   9.975   3.226  0.1410 -0.3125 -0.9937
22269SOL    HW171169   5.271   9.945   3.260 -0.0188  0.3826  0.0519
22269SOL    HW271170   5.182   9.939   3.137  0.3175 -2.6683 -0.1176
22270SOL     OW71171   0.692   7.434   0.348  0.2621 -0.2774  0.4556
22270SOL    HW171172   0.629   7.424   0.277  0.7245 -0.5840  0.0874
22270SOL    HW271173   0.741   7.513   0.326  1.7800 -1.4641 -0.6577
22271SOL     OW71174   7.187   1.941   7.208 -0.8707 -0.0837 -0.0705
22271SOL    HW171175   7.172   1.880   7.280 -0.8853  0.9852  0.8522
22271SOL    HW271176   7.131   1.908   7.137 -1.3250 -0.8016  0.6072
22272SOL     OW71177   3.640   2.361   5.137 -0.4697 -0.0785  0.3880
22272SOL    HW171178   3.705   2.302   5.175  0.2385  0.4838  0.0772
22272SOL    HW271179   3.602   2.312   5.065  0.6475  0.0980 -0.3463
22273SOL     OW71180   4.947   2.753   1.415 -0.6366  0.2828 -0.1322
22273SOL    HW171181   4.908   2.822   1.363 -1.3288  0.1427  0.1917
22273SOL    HW271182   5.015   2.715   1.359  0.0322  1.4774 -0.1601
22274SOL     OW71183   5.140   7.325  10.528  0.2630 -0.1950 -0.0956
22274SOL    HW171184   5.141   7.250  10.588 -0.0100 -1.3477 -1.4810
22274SOL    HW271185   5.222   7.318  10.480  1.2912  1.7006  1.2420
22275SOL     OW71186  10.689   4.255   1.272 -0.2938 -0.6341 -0.1298
22275SOL    HW171187  10.634   4.271   1.195  0.8738 -0.1985 -0.9158
22275SOL    HW271188  10.668   4.166   1.300 -0.9610 -0.6807 -0.7666
22276SOL     OW71189   9.462   9.405   0.541  0.4768 -0.1534  0.0115
22276SOL    HW171190   9.504   9.461   0.475 -0.0830 -0.2309 -0.4174
22276SOL    HW271191   9.422   9.335   0.490  0.3741 -0.4315  0.4743
22277SOL     OW71192   0.889   1.274   2.025 -0.3116  0.0492  0.1049
22277SOL    HW171193   0.887   1.294   1.931 -0.2589  0.5646  0.2110
22277SOL    HW271194   0.900   1.179   2.029  2.1285  0.2427 -0.4336
22278SOL     OW71195   4.908   6.461  10.896 -0.6643 -0.2301  0.3670
22278SOL    HW171196   4.915   6.506  10.980  0.7696  0.3542 -0.0349
22278SOL    HW271197   4.839   6.396  10.909 -0.7769  0.1565  1.8469
22279SOL     OW71198   7.122   6.639   1.360  0.7019  0.0417 -0.4126
22279SOL    HW171199   7.067   6.673   1.430  1.8830 -0.6589  0.9278
22279SOL    HW271200   7.121   6.706   1.292 -0.2432  0.8728  0.4032
22280SOL     OW71201   7.439   1.988   7.075  0.2774 -0.6469  0.0991
22280SOL    HW171202   7.452   1.924   7.005  0.2144  0.0110 -0.5239
22280SOL    HW271203   7.363   1.955   7.123 -0.9849 -0.0556 -1.3878
22281SOL     OW71204   1.751   5.802   4.665 -0.5085 -0.2828  0.2120
22281SOL    HW171205   1.671   5.819   4.713 -0.2250  1.2701  0.1972
22281SOL    HW271206   1.737   5.843   4.580  0.2036 -0.2081  0.1242
22282SOL     OW71207   8.122   9.138   6.573  0.3391  0.3329 -0.3452
22282SOL    HW171208   8.153   9.167   6.488  0.9243 -2.1050 -1.0611
22282SOL    HW271209   8.135   9.212   6.632  1.7546  1.4039 -1.9535
22283SOL     OW71210   8.869   1.949   3.863  0.1400  0.1684  0.1584
22283SOL    HW171211   8.937   1.956   3.931  0.4068 -0.0815 -0.0770
22283SOL    HW271212   8.795   1.997   3.898 -0.0221 -0.6624  1.0019
22284SOL     OW71213   4.925   2.097   6.919  0.2046 -0.3585  0.2122
22284SOL    HW171214   4.928   2.119   6.826  0.1126  0.1640  0.3282
22284SOL    HW271215   4.849   2.145   6.953  0.2776 -0.4918  0.5677
22285SOL     OW71216   8.665  11.026   3.236  0.3097  0.2806 -0.4424
22285SOL    HW171217   8.682  10.966   3.308  2.0682 -0.3065 -1.3032
22285SOL    HW271218   8.642  10.970   3.162 -1.7826  0.8905 -0.3173
22286SOL     OW71219  10.464   5.561  10.346  0.3541 -0.4526  0.7403
22286SOL    HW171220  10.420   5.483  10.379 -0.0148 -0.0838  1.1325
22286SOL    HW271221  10.429   5.633  10.399 -1.3640  0.3933 -1.3951
22287SOL     OW71222   3.234   7.172   9.255 -0.1445  0.2296  0.1246
22287SOL    HW171223   3.316   7.215   9.279  1.8211 -1.4567 -2.8579
22287SOL    HW271224   3.217   7.109   9.325  2.1661 -0.6448 -0.0301
22288SOL     OW71225   1.490   9.467   7.769 -0.1979  0.6315 -0.2250
22288SOL    HW171226   1.530   9.396   7.719  0.5605  0.9426 -0.0596
22288SOL    HW271227   1.535   9.546   7.740 -1.9903  1.2703 -1.4492
22289SOL     OW71228  10.232   9.631   8.604 -0.1022  0.2780 -0.0826
22289SOL    HW171229  10.187   9.698   8.655 -0.5728  0.1431 -0.3158
22289SOL    HW271230  10.276   9.679   8.534 -0.1666  0.3751 -0.0563
22290SOL     OW71231   4.793   0.317   5.113 -0.0786 -0.2210  0.0985
22290SOL    HW171232   4.827   0.392   5.064  0.4634 -0.3185  0.3116
22290SOL    HW271233   4.700   0.336   5.126 -0.4474 -0.5838 -1.6885
22291SOL     OW71234   0.949   5.854  11.099  0.0720 -0.7678  0.2818
22291SOL    HW171235   0.906   5.827  11.018  0.9131 -1.5585  0.0765
22291SOL    HW271236   0.916   5.792  11.165  0.9451 -1.4361  0.1032
22292SOL     OW71237   6.125   9.972   1.228  0.1189 -0.0621 -0.5055
22292SOL    HW171238   6.083  10.044   1.275 -1.5133 -1.2095 -0.1128
22292SOL    HW271239   6.215   9.970   1.261 -0.8881 -0.6773  2.4871
22293SOL     OW71240   6.700   8.167   0.359  0.5611  0.1965 -0.0419
22293SOL    HW171241   6.763   8.173   0.286  1.0261  1.3145  0.4174
22293SOL    HW271242   6.749   8.128   0.431  0.5042  0.3465  0.0800
22294SOL     OW71243   9.648   5.358  10.930  0.4174 -0.1503 -0.0241
22294SOL    HW171244   9.649   5.385  10.839  1.1048 -0.8428 -0.2269
22294SOL    HW271245   9.585   5.418  10.972 -1.5079 -1.1286 -1.3535
22295SOL     OW71246   4.158   6.826   6.872 -0.4101 -0.2553  0.4817
22295SOL    HW171247   4.099   6.767   6.826  0.4167 -1.4101  0.8535
22295SOL    HW271248   4.230   6.770   6.902 -0.4541  0.6113  2.3619
22296SOL     OW71249   8.698   9.408   8.699  0.0323 -0.6772 -0.3506
22296SOL    HW171250   8.773   9.393   8.641  1.2524 -1.8691  1.4320
22296SOL    HW271251   8.624   9.419   8.640  1.0490 -2.7378 -2.1452
22297SOL     OW71252   7.378   5.911   9.385 -0.1613 -0.0111  0.1076
22297SOL    HW171253   7.285   5.894   9.372 -0.0324 -1.1817  0.6212
22297SOL    HW271254   7.413   5.922   9.297 -0.5781 -0.6988 -0.1479
22298SOL     OW71255   5.326   4.939  10.402  0.5047 -0.6489  0.0898
22298SOL    HW171256   5.330   4.907  10.312 -2.6684  1.1785 -0.8332
22298SOL    HW271257   5.249   4.897  10.439 -0.9923  2.1256  0.3385
22299SOL     OW71258   6.538   3.891   1.000  0.7949  0.0068 -0.4687
22299SOL    HW171259   6.575   3.861   1.083 -1.1145  1.3878  0.9830
22299SOL    HW271260   6.470   3.827   0.980 -0.2526  0.8437  0.2706
22300SOL     OW71261  10.712   3.193  10.027  0.4741 -0.4713 -0.3793
22300SOL    HW171262  10.659   3.125  10.070 -0.5288 -0.2156 -1.1876
22300SOL    HW271263  10.772   3.222  10.096 -0.6361 -0.5466  0.6633
22301SOL     OW71264   2.867   2.754   3.342  0.3397  0.2498  0.2506
22301SOL    HW171265   2.808   2.698   3.392  0.7568 -0.8984 -0.5251
22301SOL    HW271266   2.810   2.821   3.305 -0.4091 -0.5523 -0.0794
22302SOL     OW71267   9.058  10.452   0.030 -0.0896  0.4107 -0.1324
22302SOL    HW171268   9.105  10.380   0.072 -0.5514  0.5247  0.5980
22302SOL    HW271269   9.112  10.476  -0.044 -0.5442 -1.5497 -1.1697
22303SOL     OW71270   5.990   8.737   2.197 -0.2207 -0.2209 -0.2029
22303SOL    HW171271   6.061   8.706   2.140 -0.8081  0.6769 -1.4888
22303SOL    HW271272   5.991   8.832   2.186 -0.7035 -0.0704  0.9077
22304SOL     OW71273   7.062   3.550   8.125 -0.1744  0.5193 -0.2581
22304SOL    HW171274   6.987   3.609   8.122 -0.1294  0.6819  1.1561
22304SOL    HW271275   7.036   3.481   8.186  1.1151  1.0266  0.9172
22305SOL     OW71276   9.724   1.828   4.551  0.0014  0.0790 -0.0364
22305SOL    HW171277   9.763   1.899   4.601  1.8162  0.1666 -1.4960
22305SOL    HW271278   9.797   1.773   4.524 -1.1462 -1.1947 -0.7393
22306SOL     OW71279   8.964   1.867   8.317 -0.2877  0.2865 -0.9322
22306SOL    HW171280   8.934   1.832   8.233  1.6211 -0.4681 -1.3507
22306SOL    HW271281   8.917   1.816   8.382 -1.6590  0.7575 -1.5229
22307SOL     OW71282   3.218  10.336   2.949 -0.5015  0.5744  0.8747
22307SOL    HW171283   3.266  10.343   2.867 -0.4373 -2.0402  0.6357
22307SOL    HW271284   3.286  10.325   3.016 -0.6384  0.5049  1.0030
22308SOL     OW71285  10.527   9.513  10.582  0.0082  0.1192  0.5599
22308SOL    HW171286  10.573   9.487  10.502  0.1243  2.8646 -0.3847
22308SOL    HW271287  10.514   9.431  10.630  1.6509 -1.3757 -1.3485
22309SOL     OW71288   3.455   3.256   6.763 -0.3640  0.0387 -0.2803
22309SOL    HW171289   3.521   3.282   6.827  0.2896  0.3576 -1.0679
22309SOL    HW271290   3.495   3.184   6.715 -0.2162  0.8208 -1.3615
22310SOL     OW71291   6.304   9.603   0.937  0.5628 -0.0474 -0.2436
22310SOL    HW171292   6.216   9.601   0.975 -0.0432 -0.5657 -1.6011
22310SOL    HW271293   6.363   9.609   1.012 -0.6332  0.3660  0.6874
22311SOL     OW71294   0.513   3.586  11.111  0.4535 -0.3543 -0.7715
22311SOL    HW171295   0.533   3.678  11.093 -1.0907  0.3141  0.6278
22311SOL    HW271296   0.442   3.565  11.050 -0.5079  0.0135  0.1757
22312SOL     OW71297   4.248   3.076   5.364 -0.3196 -0.1782  0.4541
22312SOL    HW171298   4.260   3.015   5.437 -1.7927 -0.3779  0.5481
22312SOL    HW271299   4.166   3.050   5.323  0.1057  0.3968 -0.8446
22313SOL     OW71300   1.674   3.077  10.691  0.1638  0.0200 -0.0418
22313SOL    HW171301   1.741   3.061  10.758 -1.6695  0.5293  2.0459
22313SOL    HW271302   1.722   3.075  10.608  2.0465 -4.2074  0.8775
22314SOL     OW71303   3.124   5.174   5.186  0.2430 -0.0200  0.3566
22314SOL    HW171304   3.127   5.201   5.277  2.2770  1.0719  0.0234
22314SOL    HW271305   3.031   5.177   5.163 -0.2506  0.1525  2.2335
22315SOL     OW71306   2.453   5.645   5.377 -0.4077  0.0216  0.3980
22315SOL    HW171307   2.545   5.641   5.350 -0.5690  0.6396 -0.2839
22315SOL    HW271308   2.414   5.566   5.342 -0.8049  1.2059 -2.0042
22316SOL     OW71309   0.997   3.345   6.548 -0.1496  0.1184 -0.2370
22316SOL    HW171310   0.931   3.411   6.527  0.9511  1.0205 -0.9596
22316SOL    HW271311   1.079   3.383   6.519  0.4080 -1.9844 -1.5987
22317SOL     OW71312   1.232   3.013   0.255 -0.3108  0.8621  0.5084
22317SOL    HW171313   1.223   2.938   0.197  0.9990  1.5969 -0.7153
22317SOL    HW271314   1.300   2.987   0.318 -1.1332  0.3801  1.2183
22318SOL     OW71315   3.141   2.908   5.515 -0.0901 -0.2595  0.2517
22318SOL    HW171316   3.113   2.818   5.533 -0.1283 -0.3348 -0.1840
22318SOL    HW271317   3.205   2.899   5.445 -1.6027  0.2253 -1.2604
22319SOL     OW71318   6.613   1.884   7.488  0.1658 -0.3252  0.5331
22319SOL    HW171319   6.694   1.933   7.473 -0.9823  1.2535 -1.0989
22319SOL    HW271320   6.569   1.886   7.403 -1.3810 -1.5343  1.2613
22320SOL     OW71321   3.347   3.248   9.296 -0.3851 -0.0831  0.2799
22320SOL    HW171322   3.378   3.160   9.275  0.6005  0.4379 -0.5417
22320SOL    HW271323   3.410   3.281   9.360 -0.6362  0.0991  0.4353
22321SOL     OW71324   3.160   4.794   1.637  0.3633  0.1979  0.0597
22321SOL    HW171325   3.193   4.832   1.719 -0.9826 -1.9136  1.6913
22321SOL    HW271326   3.155   4.868   1.577  2.6183  1.6121  1.4394
22322SOL     OW71327   5.116   2.421   8.254  0.3602  0.0695  0.2870
22322SOL    HW171328   5.124   2.512   8.285  1.5785  0.3838 -0.8608
22322SOL    HW271329   5.023   2.413   8.230  0.3116  1.1386  0.0405
22323SOL     OW71330   2.955  10.745   3.779  0.0193  0.6780  0.4881
22323SOL    HW171331   2.993  10.832   3.762 -1.2824  0.8764 -1.8894
22323SOL    HW271332   2.984  10.723   3.868  1.6280  2.8734  0.5988
22324SOL     OW71333   3.362   3.569   1.724  0.2987 -0.6020 -0.3616
22324SOL    HW171334   3.441   3.560   1.672  0.3354  0.5650 -0.5291
22324SOL    HW271335   3.361   3.661   1.752 -0.7891 -0.6888 -0.0415
22325SOL     OW71336   1.139   2.677   6.921  0.3052 -0.3157 -0.3723
22325SOL    HW171337   1.124   2.583   6.936  0.5983 -0.4882 -1.1273
22325SOL    HW271338   1.103   2.693   6.833 -0.2287  0.3956 -0.0345
22326SOL     OW71339   8.915   3.017   8.462  0.4476  0.0740  0.2079
22326SOL    HW171340   8.976   3.061   8.402  0.0734  0.3797  0.0457
22326SOL    HW271341   8.957   2.934   8.482 -0.0182 -0.6384 -1.5543
22327SOL     OW71342   5.962   3.584   9.460 -0.3172 -0.3532  0.4412
22327SOL    HW171343   5.999   3.564   9.374 -1.0794 -0.8147  0.2055
22327SOL    HW271344   5.946   3.678   9.459 -1.8748 -0.5902 -0.5828
22328SOL     OW71345   9.013   2.328   6.615 -0.3971 -0.3110 -0.4904
22328SOL    HW171346   8.930   2.332   6.569 -0.2720  0.8520 -0.6269
22328SOL    HW271347   9.078   2.310   6.546 -0.4112 -0.1997 -0.5332
22329SOL     OW71348   1.519   4.101   7.283  0.5403  0.5957 -0.0195
22329SOL    HW171349   1.570   4.157   7.342  0.8958 -0.0342  0.2831
22329SOL    HW271350   1.572   4.022   7.274  0.5826  0.7529 -1.3426
22330SOL     OW71351   3.671   0.365   2.320  0.1967  0.3037 -0.0233
22330SOL    HW171352   3.593   0.418   2.306 -0.9212 -1.4683 -0.8256
22330SOL    HW271353   3.659   0.327   2.408  1.0809  1.4461  0.6275
22331SOL     OW71354  10.270   7.229   4.103 -0.5223 -0.3756 -0.2573
22331SOL    HW171355  10.326   7.274   4.040 -0.8210 -0.4514 -0.5838
22331SOL    HW271356  10.330   7.189   4.165 -0.2161 -0.4771 -0.6159
22332SOL     OW71357   8.389   7.807   6.680 -0.3280  0.6845 -0.7166
22332SOL    HW171358   8.394   7.808   6.776  0.1843 -0.2769 -0.7192
22332SOL    HW271359   8.480   7.806   6.651 -0.4748 -0.3280 -1.1795
22333SOL     OW71360   8.543   9.054   6.660  0.0891 -0.3791  0.0837
22333SOL    HW171361   8.616   9.086   6.713 -0.8580  0.3429  0.9868
22333SOL    HW271362   8.526   9.124   6.597  0.1317 -0.5187 -0.0836
22334SOL     OW71363   8.401  10.837   6.035 -0.1613  0.4437  0.5078
22334SOL    HW171364   8.348  10.887   5.973  1.1904 -0.2502 -1.2855
22334SOL    HW271365   8.463  10.901   6.071 -0.4703  0.6985  0.5909
22335SOL     OW71366   3.092  10.586   5.755  0.2963 -0.0612  0.1065
22335SOL    HW171367   3.108  10.566   5.847  2.9507 -1.0353 -0.4833
22335SOL    HW271368   3.142  10.666   5.739 -1.9422  1.4153 -0.0533
22336SOL     OW71369   4.039   8.844   1.347 -0.1262 -0.7449  0.2316
22336SOL    HW171370   3.962   8.797   1.314  0.0072 -0.5006 -0.4451
22336SOL    HW271371   4.111   8.781   1.339 -0.2099 -0.9031  0.6729
22337SOL     OW71372   4.358   6.959   3.433  0.4525  0.0866 -0.6072
22337SOL    HW171373   4.275   7.006   3.427 -0.2748 -0.7335  1.6286
22337SOL    HW271374   4.339   6.872   3.397  0.3476 -0.0783 -0.1605
22338SOL     OW71375   1.857   3.817   2.552 -0.1062 -0.7504 -0.0871
22338SOL    HW171376   1.932   3.757   2.549  0.1037 -0.4710 -0.5767
22338SOL    HW271377   1.839   3.828   2.645 -0.8284 -2.4021 -0.0137
22339SOL     OW71378   6.967   6.215   0.692  0.4453  0.0519  0.1521
22339SOL    HW171379   6.962   6.183   0.602  0.0650 -1.2497  0.6121
22339SOL    HW271380   7.025   6.153   0.736  1.6625  1.3869  0.5308
22340SOL     OW71381   9.665   3.061  10.737 -0.6313  0.2412  0.2981
22340SOL    HW171382   9.614   3.093  10.663 -1.2923 -0.3535  0.4823
22340SOL    HW271383   9.604   3.007  10.786 -0.5014  1.4007  1.8198
22341SOL     OW71384   7.046   0.916   8.756  0.5756 -0.0964 -0.2450
22341SOL    HW171385   6.996   0.954   8.684  1.3309 -0.5623 -1.0331
22341SOL    HW271386   7.136   0.945   8.740  0.9368 -1.1031 -0.1034
22342SOL     OW71387   1.549   6.502   4.340 -0.0204  0.2184 -0.0084
22342SOL    HW171388   1.523   6.502   4.432  0.8961  1.4723  0.2675
22342SOL    HW271389   1.604   6.579   4.330  1.2646 -0.7965 -1.2289
22343SOL     OW71390   3.126   6.853  10.671 -0.1915 -0.1902  0.1376
22343SOL    HW171391   3.095   6.789  10.734  0.4223 -0.6695 -0.0411
22343SOL    HW271392   3.199   6.897  10.716  2.4137 -2.6968 -1.2986
22344SOL     OW71393  10.004   9.503   2.615  0.0434 -0.6525  0.3951
22344SOL    HW171394   9.981   9.503   2.708  0.4639  1.9870  0.5802
22344SOL    HW271395   9.933   9.553   2.573  0.1379 -1.3524 -0.6299
22345SOL     OW71396  10.413   5.954   4.509  0.6921 -0.7419  0.0666
22345SOL    HW171397  10.334   5.970   4.560 -0.5401 -1.1249 -1.6371
22345SOL    HW271398  10.485   5.976   4.568 -0.7012  1.2268  1.1254
22346SOL     OW71399   6.784   9.656   0.260 -0.2904 -0.0266 -0.1687
22346SOL    HW171400   6.732   9.686   0.334  2.0904  0.2993  1.4820
22346SOL    HW271401   6.747   9.700   0.184 -1.5837  1.1567  1.1040
22347SOL     OW71402   8.290   4.539   2.941 -0.2194  0.2240  0.3288
22347SOL    HW171403   8.293   4.538   3.036 -0.0126  1.2526  0.3398
22347SOL    HW271404   8.346   4.466   2.914 -2.9939 -2.3894  1.0013
22348SOL     OW71405   1.490   8.732   1.918  0.6196 -0.2573 -0.1169
22348SOL    HW171406   1.457   8.774   1.839  1.3894  0.3081 -0.1520
22348SOL    HW271407   1.420   8.673   1.945 -0.2548  0.6276 -0.3958
22349SOL     OW71408   6.894   0.228   3.758 -0.3131  0.2268 -0.3802
22349SOL    HW171409   6.883   0.318   3.727  0.0670  0.0106 -1.1622
22349SOL    HW271410   6.809   0.187   3.742 -0.4948  0.4520 -0.0004
22350SOL     OW71411   5.522   2.479   0.690  0.4089 -0.3118 -0.0906
22350SOL    HW171412   5.542   2.438   0.774  1.5647  0.6021  0.1081
22350SOL    HW271413   5.590   2.545   0.679 -1.8386  2.2463  0.0886
22351SOL     OW71414   6.154   1.507   8.009 -0.1741 -0.0239 -0.0901
22351SOL    HW171415   6.166   1.557   7.928 -0.2644 -1.4498 -1.0294
22351SOL    HW271416   6.242   1.481   8.035 -0.2898 -2.2712 -1.5823
22352SOL     OW71417   4.525   4.821   1.429  0.1957  0.1133  0.6927
22352SOL    HW171418   4.579   4.756   1.386  0.0659  0.1379  0.4926
22352SOL    HW271419   4.498   4.779   1.511  0.2251 -0.0320  0.6286
22353SOL     OW71420   3.609   8.567   1.882 -0.5358 -0.7194  0.1593
22353SOL    HW171421   3.611   8.494   1.820  0.7549 -0.1547 -0.4920
22353SOL    HW271422   3.614   8.525   1.968  1.3540 -1.3837 -0.2304
22354SOL     OW71423   7.703   4.863   3.863  0.0593 -0.3532 -0.6717
22354SOL    HW171424   7.747   4.849   3.947  0.6026 -0.6554 -1.0051
22354SOL    HW271425   7.709   4.779   3.818 -0.9186 -0.4162 -0.6964
22355SOL     OW71426  10.832   7.167   9.952  0.0445  0.3240  0.4648
22355SOL    HW171427  10.822   7.210   9.867  1.6054  0.0571  0.1102
22355SOL    HW271428  10.884   7.227  10.004  3.9422 -1.7211 -0.6651
22356SOL     OW71429   1.247   6.252   2.235 -0.1641 -0.0996 -0.0404
22356SOL    HW171430   1.315   6.282   2.175  1.5687 -0.5539  1.5720
22356SOL    HW271431   1.289   6.256   2.321 -2.9253  1.8381  1.3844
22357SOL     OW71432  10.528   0.894   7.749  0.1436 -0.1079 -0.0750
22357SOL    HW171433  10.585   0.873   7.675 -1.7281  1.4454 -2.0836
22357SOL    HW271434  10.486   0.811   7.771  1.1488 -0.7021 -0.3412
22358SOL     OW71435   9.215   8.085   9.994 -0.1706 -0.2175 -0.5154
22358SOL    HW171436   9.195   8.166   9.948 -0.6481 -0.4938 -0.7974
22358SOL    HW271437   9.161   8.019   9.951  0.6951 -0.8104 -0.7196
22359SOL     OW71438  10.713   9.594   8.028  0.7355  0.0980 -0.0125
22359SOL    HW171439  10.712   9.690   8.029 -0.1670  0.2237 -2.9277
22359SOL    HW271440  10.729   9.571   7.936  1.4807 -2.5732  0.7002
22360SOL     OW71441   4.246   6.414   9.136 -0.0345 -1.1802 -0.2177
22360SOL    HW171442   4.161   6.451   9.113 -0.1460 -0.5696  1.0993
22360SOL    HW271443   4.284   6.388   9.052 -1.0703 -0.5042 -0.9221
22361SOL     OW71444   3.316   4.597   4.640 -0.4377  0.7538 -0.2210
22361SOL    HW171445   3.328   4.502   4.637 -1.7761  0.5769 -0.5313
22361SOL    HW271446   3.312   4.618   4.734  2.3007  0.8777 -0.0602
22362SOL     OW71447   9.579   2.951   6.945 -0.7053 -0.2771  0.5127
22362SOL    HW171448   9.516   3.020   6.964 -1.2505 -0.1118 -1.5872
22362SOL    HW271449   9.664   2.995   6.951 -1.0856  1.4834 -3.2883
22363SOL     OW71450   3.030   2.320   2.544 -0.0138 -0.4100 -0.0479
22363SOL    HW171451   3.053   2.229   2.563 -0.5549 -0.5500 -0.0341
22363SOL    HW271452   2.935   2.319   2.537  0.0081  0.0785 -0.4592
22364SOL     OW71453   6.301   8.911  10.721 -0.1142  0.2293 -0.0157
22364SOL    HW171454   6.262   8.995  10.698 -0.3058  0.1579  0.0486
22364SOL    HW271455   6.262   8.848  10.661 -0.1620  0.1442  0.1041
22365SOL     OW71456   2.860  10.604   2.678  0.2963 -0.7056 -0.3605
22365SOL    HW171457   2.902  10.645   2.602  0.9440 -0.2594  0.2369
22365SOL    HW271458   2.766  10.613   2.660  0.4398 -1.1546 -1.3993
22366SOL     OW71459   7.318   6.675  10.420  0.3604 -0.2143 -0.3532
22366SOL    HW171460   7.293   6.584  10.403  2.9936 -0.8961 -1.0628
22366SOL    HW271461   7.392   6.691  10.361  2.7010  1.0046  2.6637
22367SOL     OW71462   7.813   0.541   8.870 -0.3967  0.3379  0.5518
22367SOL    HW171463   7.760   0.464   8.849 -0.5838  0.1805  1.5539
22367SOL    HW271464   7.846   0.571   8.786 -1.5997  0.0883 -0.0294
22368SOL     OW71465   0.948   1.786   9.727  0.4360 -0.1301 -0.0287
22368SOL    HW171466   0.855   1.797   9.707  0.2093 -1.0220  0.4730
22368SOL    HW271467   0.951   1.709   9.785  1.4108  0.3042  0.5171
22369SOL     OW71468   6.577   0.191   4.044  0.3399  0.3725  0.2264
22369SOL    HW171469   6.545   0.138   3.971 -1.3894 -0.7569  1.7043
22369SOL    HW271470   6.498   0.228   4.082  1.0157 -0.2681  2.3889
22370SOL     OW71471   0.819   8.986  10.527  0.1602 -0.0172  0.2689
22370SOL    HW171472   0.780   9.033  10.601 -0.5252  0.6369 -0.4857
22370SOL    HW271473   0.860   9.055  10.475  0.5008 -0.4572 -0.0531
22371SOL     OW71474   6.119   5.810   5.125 -0.6196  0.1858 -0.4519
22371SOL    HW171475   6.193   5.774   5.076 -0.5439 -1.9856  1.1585
22371SOL    HW271476   6.154   5.826   5.213 -1.3283  2.0015 -0.4452
22372SOL     OW71477   6.472   0.776   8.348  0.1746 -0.3955 -0.9417
22372SOL    HW171478   6.524   0.778   8.428  0.5472  0.0033 -1.1900
22372SOL    HW271479   6.536   0.760   8.278 -0.3648 -2.8777 -0.9814
22373SOL     OW71480   4.025   7.123   7.293 -0.2059  0.1120  0.2311
22373SOL    HW171481   4.035   7.138   7.387  0.8122  0.4824  0.0704
22373SOL    HW271482   3.948   7.067   7.286 -0.7643  0.7216  1.2325
22374SOL     OW71483   8.272   3.921   5.971  0.0157  0.7859  0.2845
22374SOL    HW171484   8.194   3.929   5.917  0.5929  1.1709 -0.5128
22374SOL    HW271485   8.281   3.828   5.987 -0.3805  0.7049  0.0435
22375SOL     OW71486   8.329  10.794   5.368 -0.4608 -0.2094  0.2737
22375SOL    HW171487   8.392  10.790   5.296 -0.0831 -0.0679  0.5871
22375SOL    HW271488   8.341  10.710   5.414  0.2178  0.2172  0.9124
22376SOL     OW71489   0.488   3.396   1.061 -0.4598  0.6141  0.2604
22376SOL    HW171490   0.462   3.430   1.147  0.9514 -0.6968  1.2589
22376SOL    HW271491   0.447   3.309   1.056  1.4044 -0.3346  0.7000
22377SOL     OW71492   2.335   2.686   8.923  0.0913  0.4200  0.0712
22377SOL    HW171493   2.304   2.733   9.000 -0.9760 -0.9272  0.5009
22377SOL    HW271494   2.273   2.709   8.854 -0.0134  0.2185  0.0963
22378SOL     OW71495   7.030   1.075   6.433 -0.7314 -0.2539  0.8751
22378SOL    HW171496   7.029   1.124   6.516  0.5489  0.1820  0.6516
22378SOL    HW271497   7.113   1.028   6.434  0.3736  1.4610 -1.1064
22379SOL     OW71498  10.056   5.230   0.775  0.1508 -0.7329  0.3868
22379SOL    HW171499  10.122   5.174   0.735 -0.2723 -1.5440  0.8031
22379SOL    HW271500  10.023   5.179   0.849  0.0968  0.2620  1.0720
22380SOL     OW71501   3.262   4.940   5.197 -0.0501  0.3587  0.1241
22380SOL    HW171502   3.224   5.025   5.173 -1.5643 -0.0121  1.0663
22380SOL    HW271503   3.207   4.876   5.153 -0.3924 -0.1851  1.2933
22381SOL     OW71504   7.116   8.406   6.881  0.3484 -0.4225  0.2788
22381SOL    HW171505   7.197   8.402   6.932  0.0146  0.8103  0.9456
22381SOL    HW271506   7.114   8.495   6.846 -0.4123 -0.6385 -0.2579
22382SOL     OW71507   2.842   8.231   9.738  0.1717  0.0896  0.0964
22382SOL    HW171508   2.886   8.164   9.790 -0.4624 -0.3838  0.0205
22382SOL    HW271509   2.795   8.284   9.802  1.2271  0.9140  0.2383
22383SOL     OW71510   5.332   2.751   1.855 -0.0089 -0.5218  0.3829
22383SOL    HW171511   5.237   2.740   1.852 -0.1983  0.8920  0.1747
22383SOL    HW271512   5.366   2.690   1.790 -0.6924 -1.6884  1.0929
22384SOL     OW71513   3.213  10.205   7.244 -0.2640  0.6145 -0.1154
22384SOL    HW171514   3.204  10.149   7.167 -0.8657 -0.5258  0.7401
22384SOL    HW271515   3.301  10.187   7.277 -0.1369  0.8390 -0.3255
22385SOL     OW71516   9.704   6.299   6.902  0.1503  0.9503  0.5723
22385SOL    HW171517   9.699   6.317   6.995  0.0380 -0.1310  0.7956
22385SOL    HW271518   9.613   6.289   6.874  0.1448  1.9993  0.1823
22386SOL     OW71519   0.652   3.599   7.098  0.1592  0.3701  0.3749
22386SOL    HW171520   0.697   3.553   7.169 -0.0292 -0.9127 -0.2921
22386SOL    HW271521   0.714   3.596   7.024 -0.6805 -0.7883 -0.3329
22387SOL     OW71522   2.811   6.082   5.552 -0.0962 -0.3266 -0.5271
22387SOL    HW171523   2.850   6.168   5.572  1.8446 -1.5466  1.4827
22387SOL    HW271524   2.803   6.040   5.637 -3.2677 -1.3084 -1.2059
22388SOL     OW71525   1.542   9.691   3.697  0.0036 -1.2649 -0.2599
22388SOL    HW171526   1.591   9.736   3.766 -1.7633  0.3876 -0.0122
22388SOL    HW271527   1.557   9.744   3.619 -2.9851  0.5574  0.2732
22389SOL     OW71528   5.494   0.262   7.838 -0.1125  0.1412 -0.3050
22389SOL    HW171529   5.525   0.348   7.865 -0.5423 -0.0664  0.9591
22389SOL    HW271530   5.405   0.277   7.805  1.1368  0.7215 -3.8375
22390SOL     OW71531   8.234   5.594   6.659  0.1301 -0.4370 -0.4565
22390SOL    HW171532   8.155   5.604   6.713  0.4885 -1.2914  0.2605
22390SOL    HW271533   8.259   5.683   6.637 -1.3434 -0.1736 -1.1596
22391SOL     OW71534   3.617   7.471   8.826  0.0391 -0.0646  0.0794
22391SOL    HW171535   3.534   7.428   8.846  0.4053 -0.2223  1.3482
22391SOL    HW271536   3.592   7.562   8.805 -0.7954 -0.9094 -3.2142
22392SOL     OW71537   0.618  10.101   1.543 -0.1201 -0.2547 -0.3976
22392SOL    HW171538   0.538  10.109   1.594 -1.7320  0.7867 -2.8701
22392SOL    HW271539   0.613  10.014   1.504 -0.0550 -0.1997 -0.5322
22393SOL     OW71540   2.813   0.298  10.730 -0.1517  0.4274  0.3421
22393SOL    HW171541   2.857   0.365  10.781 -0.7292 -1.0785  3.0103
22393SOL    HW271542   2.858   0.216  10.753 -1.0461 -0.4437 -0.8626
22394SOL     OW71543   1.026   0.113   7.207 -0.4921 -0.2089  0.6659
22394SOL    HW171544   1.067   0.040   7.161 -0.5102  0.0773  0.1981
22394SOL    HW271545   0.950   0.074   7.250 -1.2105 -0.2369 -0.5830
22395SOL     OW71546   8.562   2.063   1.132  0.0049  0.4140  0.0505
22395SOL    HW171547   8.650   2.041   1.162 -0.1238  1.8486  1.6129
22395SOL    HW271548   8.557   2.158   1.141 -1.2722  0.5061 -1.2669
22396SOL     OW71549   9.098   6.158   7.384  0.0533 -0.8346  0.0635
22396SOL    HW171550   9.089   6.251   7.365 -2.1408 -1.0811 -0.3589
22396SOL    HW271551   9.169   6.153   7.448  1.3444  0.9335 -1.1265
22397SOL     OW71552   3.507   8.564   0.182  0.0211 -0.2262  0.2900
22397SOL    HW171553   3.587   8.556   0.131 -0.3778 -1.7509 -0.1222
22397SOL    HW271554   3.459   8.636   0.141  0.0777 -0.8955 -0.9624
22398SOL     OW71555   1.647  10.666   0.258  0.1053  0.7906  0.3456
22398SOL    HW171556   1.586  10.612   0.207 -0.5175  0.0522  1.8078
22398SOL    HW271557   1.713  10.694   0.195 -0.3307 -0.5428 -0.7495
22399SOL     OW71558   1.132   2.956   6.667 -0.3963  0.1206  0.3135
22399SOL    HW171559   1.172   3.042   6.671 -1.2896  0.5409  0.4921
22399SOL    HW271560   1.206   2.895   6.671  0.2670  0.8694 -0.1043
22400SOL     OW71561  10.712  10.195   6.400  0.2632 -0.3245  0.4932
22400SOL    HW171562  10.662  10.214   6.479 -2.4689 -0.9406 -0.9853
22400SOL    HW271563  10.737  10.281   6.366  2.2098 -0.0584  2.3502
22401SOL     OW71564   0.109   3.956   1.361 -0.5644  0.0180  0.8540
22401SOL    HW171565   0.131   4.049   1.361 -3.5579  0.8408  1.2705
22401SOL    HW271566   0.108   3.932   1.454 -0.6809 -0.1878  0.8003
22402SOL     OW71567  10.012   4.222   0.695  0.3781 -0.7160  0.3571
22402SOL    HW171568   9.916   4.224   0.699  0.3581 -0.3034 -0.2480
22402SOL    HW271569  10.037   4.156   0.761 -0.0449  2.4397  4.0181
22403SOL     OW71570  10.380   8.925   3.348  0.4875  0.5240  0.0362
22403SOL    HW171571  10.308   8.862   3.361  0.6216  0.3394 -0.1188
22403SOL    HW271572  10.340   9.010   3.365  0.2572  0.4134  0.0591
22404SOL     OW71573   0.162   6.192   0.904  0.5622  0.6742 -0.0553
22404SOL    HW171574   0.130   6.102   0.894  0.1829  0.7047  0.8140
22404SOL    HW271575   0.225   6.203   0.833 -2.0464  0.9411 -2.5411
22405SOL     OW71576   2.233   8.834   4.684 -0.3189 -0.0229  0.6341
22405SOL    HW171577   2.142   8.803   4.675 -0.1180 -0.7460  1.0484
22405SOL    HW271578   2.237   8.872   4.772 -0.2941  0.2840  0.5023
22406SOL     OW71579   0.082   3.268   3.575 -0.0317  0.4371  0.1610
22406SOL    HW171580  -0.009   3.244   3.556  0.6834 -1.4707 -1.1480
22406SOL    HW271581   0.110   3.206   3.642  0.5585  0.4197 -0.0928
22407SOL     OW71582   7.127   7.934   0.050  0.3746  0.2294  0.3174
22407SOL    HW171583   7.059   7.915   0.116 -1.7989 -0.0224 -1.8399
22407SOL    HW271584   7.190   7.863   0.061  0.1015  0.2009  2.1080
22408SOL     OW71585   4.942   0.595   7.980 -0.4434  0.1568  0.0301
22408SOL    HW171586   4.970   0.678   7.941  0.1577 -0.3893 -0.7203
22408SOL    HW271587   5.016   0.568   8.034 -0.4671 -0.0979 -0.0634
22409SOL     OW71588   3.337   9.305  10.117 -0.7205 -0.4335  0.1848
22409SOL    HW171589   3.352   9.332  10.027 -0.4669  0.4093  0.4704
22409SOL    HW271590   3.243   9.320  10.131 -0.3979  1.3656  0.6605
22410SOL     OW71591   3.209   4.499   2.435 -0.2436  0.1044  0.1981
22410SOL    HW171592   3.182   4.551   2.511  0.7651  1.1659 -0.1551
22410SOL    HW271593   3.193   4.555   2.360  0.4879 -0.2484 -0.2295
22411SOL     OW71594   7.257   4.218   0.955  0.2080  0.1150 -0.1801
22411SOL    HW171595   7.274   4.127   0.929  0.0140  0.2173 -0.6729
22411SOL    HW271596   7.342   4.260   0.953  0.5203 -0.3843  1.3828
22412SOL     OW71597   7.693   3.096   3.349  0.2533  0.1629  0.4747
22412SOL    HW171598   7.601   3.107   3.373  0.4127  1.1542  0.6513
22412SOL    HW271599   7.705   3.001   3.346 -0.1816 -0.0424  2.8658
22413SOL     OW71600  10.350   0.466   7.217  0.1749  0.3738  0.6472
22413SOL    HW171601  10.358   0.509   7.302 -0.2625  0.2408  0.7630
22413SOL    HW271602  10.262   0.488   7.187  0.0748 -0.1374  0.5460
22414SOL     OW71603   1.475  10.552   1.415 -0.4837  0.1688  0.3561
22414SOL    HW171604   1.453  10.631   1.464  0.0117  0.0345  0.8015
22414SOL    HW271605   1.526  10.584   1.340  2.1139  0.0920  1.9648
22415SOL     OW71606   0.267   9.604   5.685  0.5138 -0.5065  0.5656
22415SOL    HW171607   0.296   9.548   5.612  0.9128 -0.1483  0.4459
22415SOL    HW271608   0.254   9.690   5.645  1.3727 -0.1423  1.0343
22416SOL     OW71609  10.528   9.512   6.916 -0.0979 -0.1733 -0.2416
22416SOL    HW171610  10.474   9.569   6.862 -0.1865 -0.3230 -0.3111
22416SOL    HW271611  10.468   9.475   6.980  0.3107  1.3422  1.0820
22417SOL     OW71612   5.042   3.281   7.722 -0.9366  0.1546 -0.4528
22417SOL    HW171613   5.118   3.222   7.720  0.2377  1.2714  3.0549
22417SOL    HW271614   5.072   3.360   7.676 -1.1502 -0.5540 -1.8393
22418SOL     OW71615   2.522   3.951   7.602 -0.5376 -0.0750 -0.2286
22418SOL    HW171616   2.554   4.011   7.534  0.8402 -0.4570  0.0378
22418SOL    HW271617   2.520   4.004   7.682  1.4906 -0.5126  0.1876
22419SOL     OW71618   7.006   6.041   7.210  0.5839  0.5208 -0.0055
22419SOL    HW171619   7.085   6.079   7.249 -0.2964  1.8765  0.5338
22419SOL    HW271620   7.021   6.049   7.115  1.0224  0.9273  0.0906
22420SOL     OW71621   5.610   2.606   7.581  0.3592 -0.1584 -0.2535
22420SOL    HW171622   5.701   2.622   7.557  0.3225 -0.6203 -0.7163
22420SOL    HW271623   5.612   2.529   7.637  0.2471 -0.2186 -0.3305
22421SOL     OW71624   6.015   5.754   8.019  0.0696  0.3613  0.4060
22421SOL    HW171625   6.088   5.698   7.990 -0.7783 -0.0885 -0.9515
22421SOL    HW271626   6.023   5.755   8.114 -0.4900 -3.0334  0.6332
22422SOL     OW71627   0.665   2.012   7.973 -0.4764 -0.2206 -0.5147
22422SOL    HW171628   0.735   1.947   7.983 -1.5836 -1.7387 -2.0239
22422SOL    HW271629   0.628   2.022   8.060  0.5021 -0.6952 -0.0268
22423SOL     OW71630   2.957   5.623   2.432 -0.1012 -0.7589  0.0879
22423SOL    HW171631   2.901   5.677   2.487 -1.3324 -1.5492 -0.3575
22423SOL    HW271632   3.019   5.685   2.392 -2.3360  0.5987 -1.4973
22424SOL     OW71633   8.527   7.545   1.262 -0.3223 -0.3389 -0.1004
22424SOL    HW171634   8.604   7.519   1.211  0.3952 -0.6376  1.0866
22424SOL    HW271635   8.453   7.523   1.206  0.4599  0.3130 -1.4345
22425SOL     OW71636   8.026   6.123   8.825 -0.2125  0.0063  0.5636
22425SOL    HW171637   8.036   6.138   8.919  0.7505  1.3629  0.2912
22425SOL    HW271638   7.985   6.037   8.817 -1.3111  0.3350  2.2409
22426SOL     OW71639   5.727   3.754   2.551 -0.3177 -0.1104  0.1188
22426SOL    HW171640   5.802   3.813   2.554 -0.8794  0.6756 -0.6323
22426SOL    HW271641   5.749   3.683   2.611  0.7603  0.4114  0.3592
22427SOL     OW71642   6.487   4.140  10.275 -0.2107  0.2681  0.1267
22427SOL    HW171643   6.578   4.135  10.247  0.1639 -2.9627  1.4737
22427SOL    HW271644   6.465   4.233  10.267  2.7982  0.9990 -1.3248
22428SOL     OW71645   5.659   6.329   7.899  0.4260 -0.1287 -0.2112
22428SOL    HW171646   5.578   6.356   7.943  1.7553  1.5810  1.3206
22428SOL    HW271647   5.650   6.234   7.887 -2.8360  0.2765 -2.3473
22429SOL     OW71648   1.328   5.369   6.918 -0.0622  0.5773 -0.6099
22429SOL    HW171649   1.243   5.370   6.962 -0.3719  1.0125 -1.1982
22429SOL    HW271650   1.331   5.452   6.870  0.4857  0.3467 -0.9800
22430SOL     OW71651   1.776   7.764   8.615  0.2056  0.1852 -0.1361
22430SOL    HW171652   1.707   7.815   8.656  1.8727  2.5974 -0.1139
22430SOL    HW271653   1.851   7.774   8.674  1.1235 -0.7953 -1.0878
22431SOL     OW71654   3.877   2.888   2.085  0.5089  0.4275 -0.2323
22431SOL    HW171655   3.910   2.802   2.113 -1.2863 -0.7378 -1.4496
22431SOL    HW271656   3.847   2.929   2.166  0.8664 -0.3384  0.3024
22432SOL     OW71657   9.275  11.038   8.910 -0.0832 -0.0720  0.2455
22432SOL    HW171658   9.197  11.042   8.854 -1.7245  0.5582  2.4240
22432SOL    HW271659   9.321  11.120   8.894  0.6517 -0.7980 -1.6639
22433SOL     OW71660   6.649   2.397   1.826  0.0385 -0.5783  0.6414
22433SOL    HW171661   6.626   2.345   1.903 -1.1706 -1.0668 -0.0305
22433SOL    HW271662   6.564   2.422   1.788  0.6163 -0.0396 -0.3286
22434SOL     OW71663   2.147   3.384   4.597  0.8641 -0.1419 -0.3025
22434SOL    HW171664   2.093   3.307   4.614 -1.4821  1.3975 -0.2904
22434SOL    HW271665   2.216   3.380   4.663 -0.2315 -1.3222  0.8231
22435SOL     OW71666   9.126   2.963   7.934  0.4589 -0.0048  0.2539
22435SOL    HW171667   9.153   3.051   7.905  1.5132 -0.5808 -0.5855
22435SOL    HW271668   9.172   2.949   8.016  1.6767 -0.4414 -0.4860
22436SOL     OW71669   6.250   6.724   7.913  0.1812 -0.1929  0.4723
22436SOL    HW171670   6.298   6.672   7.977 -0.5104  1.3159  2.3371
22436SOL    HW271671   6.210   6.794   7.965  0.5556  1.8340 -1.7792
22437SOL     OW71672   2.911   6.190  10.636 -0.0691  0.1041  0.5367
22437SOL    HW171673   3.005   6.201  10.627  0.0340 -1.2757 -0.4023
22437SOL    HW271674   2.901   6.107  10.684 -0.8048  0.4509  1.0024
22438SOL     OW71675   5.709   3.665   2.272 -0.4766  0.0249 -0.4534
22438SOL    HW171676   5.733   3.703   2.357 -0.5064 -1.0401  0.0535
22438SOL    HW271677   5.615   3.652   2.277 -0.7622  1.5928 -1.3535
22439SOL     OW71678   6.064  10.269   8.089 -0.4340  0.1150  0.6488
22439SOL    HW171679   6.008  10.218   8.030 -0.6729  0.7083  0.3492
22439SOL    HW271680   6.040  10.240   8.177 -2.1870  1.3147  0.6022
22440SOL     OW71681   9.199   2.016   0.145  0.0738 -0.3791 -0.5267
22440SOL    HW171682   9.193   1.989   0.054  0.2801 -2.5755  0.0556
22440SOL    HW271683   9.290   2.043   0.156  0.0302 -0.0433 -0.9827
22441SOL     OW71684   7.281   2.981   3.974  0.6359 -0.0185 -0.0980
22441SOL    HW171685   7.217   2.932   3.922 -1.0082 -0.7087  2.4041
22441SOL    HW271686   7.306   2.921   4.044  0.5342  1.8015  1.5850
22442SOL     OW71687  10.635   1.243  10.890  0.1191 -0.0346  0.1358
22442SOL    HW171688  10.635   1.325  10.840 -0.3163  0.3316  0.7251
22442SOL    HW271689  10.542   1.222  10.901  0.0954  1.1863  2.8788
22443SOL     OW71690   0.779   9.158   4.928 -0.3984 -0.2536 -0.1052
22443SOL    HW171691   0.739   9.218   4.991 -1.8702 -0.0856 -1.1603
22443SOL    HW271692   0.805   9.082   4.981 -2.0441 -0.3356  0.6435
22444SOL     OW71693   1.701   9.176   7.153 -0.2518 -0.1578 -0.2018
22444SOL    HW171694   1.653   9.254   7.127 -1.6541 -0.8590  0.2058
22444SOL    HW271695   1.640   9.103   7.140  1.0420 -1.2188 -0.6553
22445SOL     OW71696   6.682  10.314   2.188 -0.0406 -0.0719 -0.3822
22445SOL    HW171697   6.642  10.326   2.274 -0.6810  1.7572 -0.9005
22445SOL    HW271698   6.645  10.231   2.157 -1.2631  0.1697  0.3387
22446SOL     OW71699  10.870   0.613   4.684  0.8076 -0.1158  0.1218
22446SOL    HW171700  10.896   0.524   4.707 -0.2980 -0.1145  1.4808
22446SOL    HW271701  10.839   0.651   4.766 -1.9706  0.3800 -1.0645
22447SOL     OW71702   1.039   6.356   8.514 -0.7875 -0.6919  0.4434
22447SOL    HW171703   1.004   6.357   8.425  0.7682  1.6109 -0.2561
22447SOL    HW271704   0.965   6.333   8.569 -2.1836 -0.6490 -1.3239
22448SOL     OW71705   6.819   7.457   1.894  0.5595 -0.5580 -0.5872
22448SOL    HW171706   6.835   7.367   1.921 -0.6551 -0.7232 -0.3611
22448SOL    HW271707   6.834   7.509   1.973  0.0070 -0.7072 -0.3816
22449SOL     OW71708   6.352   0.025   7.652 -0.7366 -0.2602 -0.0443
22449SOL    HW171709   6.258   0.025   7.630 -0.0818  0.1756 -3.4665
22449SOL    HW271710   6.371  -0.065   7.675 -1.5472 -0.9937 -1.9948
22450SOL     OW71711   7.215   5.274   3.636 -0.1338 -0.0538  0.4423
22450SOL    HW171712   7.243   5.196   3.684  0.7017  1.4903  2.6337
22450SOL    HW271713   7.292   5.301   3.587 -0.1008 -0.0479  0.4968
22451SOL     OW71714   5.673   7.080   2.658  0.0580  0.2823  0.0331
22451SOL    HW171715   5.644   7.008   2.714 -0.2286 -0.3052 -0.8523
22451SOL    HW271716   5.594   7.134   2.646  0.1765  0.5372  0.3696
22452SOL     OW71717  10.331   6.417   1.095  0.0036  0.1529 -0.0206
22452SOL    HW171718  10.350   6.334   1.052 -0.2531  0.3225 -0.4764
22452SOL    HW271719  10.300   6.474   1.024 -0.3278  0.4711  0.3747
22453SOL     OW71720   3.644   6.216   5.506 -0.2594 -0.1320 -0.3328
22453SOL    HW171721   3.645   6.305   5.472  0.5014 -0.3474 -0.9084
22453SOL    HW271722   3.708   6.217   5.578  1.6331 -0.7703 -1.9093
22454SOL     OW71723   7.005   9.771   9.358 -0.1123  0.4007 -0.2768
22454SOL    HW171724   6.992   9.723   9.276  0.6818  1.6661 -1.1894
22454SOL    HW271725   7.070   9.838   9.336 -1.5517  2.2272  0.8072
22455SOL     OW71726   7.986   3.903   3.416 -0.7578 -0.0683  0.3523
22455SOL    HW171727   7.959   3.881   3.505 -1.0849  0.7684  0.4705
22455SOL    HW271728   7.981   3.820   3.368 -2.3710 -0.1852  0.6753
22456SOL     OW71729   6.224   8.519   3.389 -0.1187  0.0572  0.3054
22456SOL    HW171730   6.254   8.551   3.473 -0.7853 -0.2683  0.6748
22456SOL    HW271731   6.282   8.560   3.325  0.8839 -0.3060  0.9674
22457SOL     OW71732   5.818   5.584   1.723  0.1366 -0.4233  0.1855
22457SOL    HW171733   5.903   5.542   1.738 -1.0171 -1.9991  2.9748
22457SOL    HW271734   5.758   5.511   1.706 -1.0201  0.4994  0.2098
22458SOL     OW71735   2.917   5.850  10.333  0.3144  0.3610  0.4312
22458SOL    HW171736   2.921   5.945  10.336  0.0761  0.4043 -0.4241
22458SOL    HW271737   2.830   5.831  10.297 -0.9500 -0.2462  3.4368
22459SOL     OW71738  10.513   0.477   4.121  0.1896 -0.2278 -0.0845
22459SOL    HW171739  10.475   0.477   4.209 -3.6433 -1.0749 -1.5519
22459SOL    HW271740  10.485   0.560   4.083  0.5629 -0.4995 -0.9706
22460SOL     OW71741   0.512   4.539   9.449  0.0137  0.0581 -0.0847
22460SOL    HW171742   0.498   4.567   9.540 -2.5056 -0.4024 -0.2556
22460SOL    HW271743   0.483   4.614   9.396 -0.7432 -0.5046 -0.4892
22461SOL     OW71744  10.470  10.644   5.271  0.2366 -0.7301  0.1720
22461SOL    HW171745  10.481  10.738   5.289  0.0270 -0.6929  0.0947
22461SOL    HW271746  10.376  10.631   5.266  0.1242 -1.3820  2.6312
22462SOL     OW71747   2.497   4.438   7.616  0.1187  0.7868  0.1857
22462SOL    HW171748   2.558   4.389   7.563 -1.0370 -0.5636  0.0418
22462SOL    HW271749   2.414   4.432   7.569 -1.3706 -1.8865  2.7967
22463SOL     OW71750   6.221  10.107  10.843 -0.2167 -0.5095  0.4050
22463SOL    HW171751   6.128  10.091  10.826 -0.1904  1.7701 -2.8902
22463SOL    HW271752   6.222  10.181  10.904 -0.6095 -0.5131  0.4171
22464SOL     OW71753   4.711   9.816  10.020  0.1228  0.7108  0.1131
22464SOL    HW171754   4.682   9.879  10.087  1.3695  1.9776 -0.4831
22464SOL    HW271755   4.633   9.800   9.967 -0.5978  0.5651  1.1805
22465SOL     OW71756   7.856   8.794   3.139 -0.1832 -0.1052  0.0367
22465SOL    HW171757   7.796   8.762   3.070  1.8644 -1.4175 -1.2416
22465SOL    HW271758   7.899   8.870   3.099 -0.6027  0.5188  0.7556
22466SOL     OW71759   8.522   2.265   5.496  0.0553 -0.2220  0.1453
22466SOL    HW171760   8.606   2.255   5.451  0.0812  1.4894 -0.2485
22466SOL    HW271761   8.545   2.263   5.589 -0.1123 -4.8378  0.3226
22467SOL     OW71762  10.937   7.393   0.488  0.1690 -0.2276  0.3554
22467SOL    HW171763  10.988   7.421   0.564  1.0728 -1.5935  0.2764
22467SOL    HW271764  10.973   7.443   0.415 -0.9349  1.3543  0.8372
22468SOL     OW71765   2.970  10.801  10.568  0.0500 -0.5521 -0.2721
22468SOL    HW171766   2.987  10.735  10.502  1.0888 -0.9302  0.3468
22468SOL    HW271767   3.048  10.801  10.623 -0.1007  0.8921 -0.0018
22469SOL     OW71768   8.823   7.470   0.061  0.1553 -0.1647 -0.1264
22469SOL    HW171769   8.911   7.489   0.092 -0.7222 -0.0041  2.5424
22469SOL    HW271770   8.822   7.502  -0.030  2.5422  0.6320  0.0501
22470SOL     OW71771   2.779   4.666  10.390 -0.0676  0.3467  0.0533
22470SOL    HW171772   2.835   4.635  10.319  0.4404 -0.4273  0.7676
22470SOL    HW271773   2.794   4.603  10.461  0.4075  1.8012  1.2956
22471SOL     OW71774   3.074   9.006   0.842 -0.0762 -0.6172 -0.7244
22471SOL    HW171775   3.142   8.980   0.780  0.5288 -3.4723  0.9240
22471SOL    HW271776   3.010   8.935   0.840 -1.5458  0.6150 -0.1431
22472SOL     OW71777   9.281   8.851   7.213  0.2502 -0.1478  0.1730
22472SOL    HW171778   9.242   8.847   7.126  0.8152 -0.4448 -0.0661
22472SOL    HW271779   9.357   8.908   7.204 -0.8083  1.4825  0.9187
22473SOL     OW71780   1.090   3.429   5.685  0.5119  0.8261 -0.1679
22473SOL    HW171781   1.146   3.467   5.619  0.9534 -1.1472 -1.0030
22473SOL    HW271782   1.069   3.501   5.745  0.7627  2.4591 -1.9837
22474SOL     OW71783   4.315   7.882   8.083  0.0688 -0.4839 -0.3481
22474SOL    HW171784   4.352   7.853   7.999  0.8118  1.2700 -0.6775
22474SOL    HW271785   4.224   7.852   8.081  0.1297 -0.6488 -1.6993
22475SOL     OW71786   0.580   1.627   8.176  0.0360  0.0556 -0.2088
22475SOL    HW171787   0.618   1.548   8.215  1.6200  0.8724 -0.0114
22475SOL    HW271788   0.486   1.613   8.181  0.1900 -0.5919  2.4792
22476SOL     OW71789   1.772   3.444   4.293  0.0415 -0.4344  0.1866
22476SOL    HW171790   1.813   3.367   4.332  0.9938 -0.1527 -0.2401
22476SOL    HW271791   1.837   3.513   4.301 -0.2317 -0.0542 -0.7869
22477SOL     OW71792   8.161   3.078  10.960 -0.0686  0.2346  0.2812
22477SOL    HW171793   8.193   3.006  10.907  0.9712 -0.3377  1.6254
22477SOL    HW271794   8.227   3.147  10.949 -1.6382  1.5115 -1.9333
22478SOL     OW71795   0.636   4.605   0.881  0.9125 -0.1578  0.4948
22478SOL    HW171796   0.686   4.524   0.865 -0.1950 -0.7520 -0.1097
22478SOL    HW271797   0.702   4.669   0.905  2.2598 -0.3921 -2.1444
22479SOL     OW71798   2.767   7.231   3.725 -0.1649  0.4264 -0.5315
22479SOL    HW171799   2.824   7.288   3.777 -0.5898  0.1044  0.2996
22479SOL    HW271800   2.683   7.234   3.770 -0.4185 -0.2060 -0.9565
22480SOL     OW71801   8.019   5.808   5.393 -0.3146 -0.4402  0.3362
22480SOL    HW171802   8.007   5.864   5.316 -0.4990  0.8003  1.2312
22480SOL    HW271803   8.105   5.768   5.380 -1.0123 -1.5090 -1.2748
22481SOL     OW71804   7.258   2.880   7.937 -0.3909 -0.2419 -0.0077
22481SOL    HW171805   7.344   2.923   7.937  0.5545 -2.0151  1.0488
22481SOL    HW271806   7.197   2.950   7.960  1.1930  0.4106  2.7631
22482SOL     OW71807   0.291   0.691   0.933  0.2416  0.4610 -0.4126
22482SOL    HW171808   0.206   0.729   0.954  0.5759  0.2174  1.5146
22482SOL    HW271809   0.271   0.599   0.914 -0.1087  0.7685 -1.6826
22483SOL     OW71810  10.971   7.710   1.471  0.9607  0.5693 -0.2275
22483SOL    HW171811  10.927   7.794   1.467 -0.1016 -0.0294 -2.0326
22483SOL    HW271812  10.956   7.670   1.386  0.9326 -1.7022  0.7573
22484SOL     OW71813   9.981   8.684   0.634 -0.0250 -0.0826 -0.2431
22484SOL    HW171814  10.031   8.637   0.701  0.6491  2.5510  1.2109
22484SOL    HW271815   9.905   8.719   0.680 -1.5265 -1.1803 -1.7156
22485SOL     OW71816  10.783  11.088   9.093  0.0111  0.2364  0.0513
22485SOL    HW171817  10.742  11.027   9.031 -1.8992 -0.7482  2.1469
22485SOL    HW271818  10.812  11.032   9.166  0.7670  1.5341  0.7800
22486SOL     OW71819   3.298   7.676   1.624  0.0211 -0.2507  0.1516
22486SOL    HW171820   3.317   7.638   1.538 -1.1374 -0.6666  0.0666
22486SOL    HW271821   3.342   7.618   1.686 -0.3876 -0.8023 -0.0714
22487SOL     OW71822   7.027   6.719   2.289 -0.2946 -0.4657 -0.4944
22487SOL    HW171823   6.985   6.695   2.372 -0.5869 -2.6661 -1.2409
22487SOL    HW271824   6.965   6.780   2.248 -0.8418 -0.5285  0.2153
22488SOL     OW71825   9.425   9.564   1.649 -0.4305 -1.0179 -1.0296
22488SOL    HW171826   9.409   9.658   1.654 -1.5521 -1.0923 -2.4039
22488SOL    HW271827   9.519   9.555   1.663 -0.2759  0.3247 -1.0562
22489SOL     OW71828   2.486   1.609   5.001  0.4658  0.2129 -0.2263
22489SOL    HW171829   2.464   1.635   5.091 -0.3658 -0.2788 -0.2764
22489SOL    HW271830   2.442   1.525   4.990 -1.7202  1.4746 -1.9636
22490SOL     OW71831   0.909   7.659   7.822  0.6948 -0.4191  0.1415
22490SOL    HW171832   0.870   7.745   7.806 -1.1792 -1.3886 -0.8232
22490SOL    HW271833   0.993   7.661   7.776  0.2636  0.5811 -0.6310
22491SOL     OW71834   1.061   1.647  10.218 -0.1195 -0.3052 -0.8476
22491SOL    HW171835   1.152   1.618  10.222 -0.3176 -0.9701 -1.0786
22491SOL    HW271836   1.059   1.709  10.144  0.1480 -0.2687 -0.8244
22492SOL     OW71837  10.760   9.347   4.360  0.4739 -0.3596 -0.0204
22492SOL    HW171838  10.693   9.292   4.320  0.5709  1.1888 -2.4769
22492SOL    HW271839  10.835   9.342   4.301  1.7287 -0.2684  1.5028
22493SOL     OW71840   2.210   5.317   2.351  0.2257 -0.4942  0.0000
22493SOL    HW171841   2.259   5.292   2.273  0.0090 -0.6661 -0.0796
22493SOL    HW271842   2.210   5.413   2.348  0.5030 -0.4920 -0.0313
22494SOL     OW71843   1.271   1.528   3.104 -0.1735 -0.3542 -0.6847
22494SOL    HW171844   1.314   1.495   3.025 -0.4193 -0.9467 -0.5730
22494SOL    HW271845   1.342   1.545   3.165 -0.1477 -2.7996  0.0724
22495SOL     OW71846   1.748   4.267   2.282 -0.1818 -0.5680 -0.2010
22495SOL    HW171847   1.655   4.285   2.295 -0.4235 -0.8464 -1.4041
22495SOL    HW271848   1.773   4.211   2.355 -0.5130  0.9389  1.1258
22496SOL     OW71849   2.343   9.283   8.920 -0.2943  0.3688 -0.7976
22496SOL    HW171850   2.331   9.222   8.993 -0.2212  1.3350  0.0350
22496SOL    HW271851   2.397   9.235   8.857  3.9213  1.0977  1.8685
22497SOL     OW71852   4.365   5.861   0.562  0.0584 -0.2457 -0.5391
22497SOL    HW171853   4.377   5.778   0.517  0.3351 -0.0719 -0.7906
22497SOL    HW271854   4.275   5.858   0.595  0.4157 -1.0966  0.4042
22498SOL     OW71855   8.281   9.770   1.907  0.2744  0.1256  0.1638
22498SOL    HW171856   8.314   9.827   1.837 -0.0313 -0.4212 -0.4435
22498SOL    HW271857   8.264   9.829   1.980 -0.3296  0.8747 -0.5509
22499SOL     OW71858   9.017   3.860   6.365 -0.0900 -0.0049  0.1116
22499SOL    HW171859   8.963   3.788   6.334  1.4989 -0.8159 -0.8958
22499SOL    HW271860   9.016   3.923   6.293  0.4728 -0.1362 -0.0186
22500SOL     OW71861   7.172   4.663   9.087  0.1069 -0.3786 -0.5060
22500SOL    HW171862   7.124   4.585   9.059 -1.6491  0.6936 -0.5748
22500SOL    HW271863   7.213   4.696   9.007  0.9669 -1.2605 -0.4566
22501SOL     OW71864  10.642   3.333   6.189  0.3093 -0.4810 -0.0717
22501SOL    HW171865  10.735   3.356   6.190  0.9363 -2.7529 -0.4100
22501SOL    HW271866  10.604   3.387   6.120  1.1836  1.0891  0.6427
22502SOL     OW71867   0.510   6.665   9.148 -0.1799  0.1528  0.0854
22502SOL    HW171868   0.537   6.580   9.181  1.0001  1.0764  1.6588
22502SOL    HW271869   0.576   6.688   9.082  0.2436  0.3925  0.5872
22503SOL     OW71870   4.773  10.582   0.510 -0.1846 -0.0719 -0.4575
22503SOL    HW171871   4.866  10.605   0.506 -0.4335  1.0877  0.1164
22503SOL    HW271872   4.755  10.574   0.604 -0.6173 -0.4933 -0.5762
22504SOL     OW71873   3.049   3.737   7.790  0.0018 -0.2610 -0.5111
22504SOL    HW171874   3.099   3.668   7.745  0.1298 -1.2838  1.1334
22504SOL    HW271875   3.115   3.800   7.817  0.2046 -0.7354  0.1240
22505SOL     OW71876   7.333   5.669  10.871 -0.5359  0.3144 -0.0998
22505SOL    HW171877   7.324   5.668  10.776 -2.1317  1.4128  0.0058
22505SOL    HW271878   7.420   5.706  10.886 -0.1574 -0.1228 -1.1205
22506SOL     OW71879   5.578   2.222   0.808  0.1742 -0.3987  0.4224
22506SOL    HW171880   5.558   2.184   0.723 -0.0419  0.9461 -0.1564
22506SOL    HW271881   5.667   2.257   0.799  0.3011 -0.5880  0.8838
22507SOL     OW71882   2.602   2.032   4.433 -0.2429  0.2906 -0.3426
22507SOL    HW171883   2.695   2.024   4.410 -0.8220 -0.2629 -2.7814
22507SOL    HW271884   2.589   1.967   4.502  1.0317 -0.0955 -0.4297
22508SOL     OW71885  11.040   6.701   1.340 -0.5479  0.6964  0.2448
22508SOL    HW171886  11.051   6.625   1.283  0.0794 -0.1456  1.4392
22508SOL    HW271887  10.974   6.673   1.404 -0.1689  1.0794  0.8137
22509SOL     OW71888   6.545   6.851   9.883  0.3728 -0.3389  0.0993
22509SOL    HW171889   6.550   6.922   9.946 -0.3038 -1.4318  1.4149
22509SOL    HW271890   6.633   6.849   9.843  0.8937  0.1843  1.1905
22510SOL     OW71891   1.556  10.449   1.776 -0.8040 -1.2550 -0.6846
22510SOL    HW171892   1.553  10.523   1.714 -2.0499 -1.7988 -1.3120
22510SOL    HW271893   1.636  10.464   1.826 -0.6969  0.1891 -1.2125
22511SOL     OW71894   5.870   8.830   8.123  0.3782  0.1090 -0.8718
22511SOL    HW171895   5.809   8.843   8.196  1.0615  0.0959 -0.2919
22511SOL    HW271896   5.923   8.755   8.149  1.5096  0.9203 -0.7717
22512SOL     OW71897   7.818  10.774   2.307 -0.1909 -0.1957 -0.5930
22512SOL    HW171898   7.906  10.754   2.276 -0.0837 -1.0441  0.1848
22512SOL    HW271899   7.830  10.847   2.368 -0.0554 -0.1484 -0.6758
22513SOL     OW71900   6.476   4.964   0.681 -0.7006 -0.3468 -0.0208
22513SOL    HW171901   6.443   5.054   0.676 -1.9799 -0.7859  0.2348
22513SOL    HW271902   6.571   4.974   0.690 -0.8151  0.9723 -0.0768
22514SOL     OW71903   8.819   8.016  10.249  0.0986 -0.3672 -0.2276
22514SOL    HW171904   8.754   8.016  10.179 -0.4589 -0.7969  0.2835
22514SOL    HW271905   8.828   8.108  10.273  0.5733 -0.1718 -1.1109
22515SOL     OW71906   7.118   5.824   7.614  0.3380  0.1744 -0.1797
22515SOL    HW171907   7.064   5.860   7.685 -1.2370 -2.3897  0.0521
22515SOL    HW271908   7.208   5.847   7.637 -0.2187  0.2272  2.1549
22516SOL     OW71909   2.062  10.224   7.403  0.3732 -0.5782 -0.9287
22516SOL    HW171910   2.068  10.214   7.308 -1.1586  1.2745 -1.2682
22516SOL    HW271911   1.993  10.289   7.417 -0.8360 -2.2141  1.5292
22517SOL     OW71912   7.620   1.126   9.070 -0.3559 -0.0692 -0.4437
22517SOL    HW171913   7.608   1.035   9.044 -2.9087  0.3853 -1.1739
22517SOL    HW271914   7.570   1.176   9.005 -1.1331  1.6399  1.3635
22518SOL     OW71915   9.476  10.914   8.721  0.7537 -0.0313 -0.1177
22518SOL    HW171916   9.438  10.961   8.647 -0.8810 -1.0111  0.0658
22518SOL    HW271917   9.481  10.978   8.791 -1.7444 -0.1278  0.2315
22519SOL     OW71918   2.931   7.851   6.070  0.1098  0.5027  0.6092
22519SOL    HW171919   2.921   7.945   6.083 -0.7578  0.1906  2.6428
22519SOL    HW271920   2.889   7.812   6.147  2.4167 -1.4872  0.9872
22520SOL     OW71921   9.091   6.466   7.121  0.1073  0.0486  0.1797
22520SOL    HW171922   9.079   6.421   7.038  1.1053 -1.2683  0.7257
22520SOL    HW271923   9.004   6.464   7.162 -0.6383  1.5769 -1.2066
22521SOL     OW71924   0.190   6.021   8.760  0.2624  0.4331  0.1279
22521SOL    HW171925   0.281   6.021   8.791  0.6310  1.0983 -0.8998
22521SOL    HW271926   0.191   5.963   8.684 -0.4815 -0.6381  0.9075
22522SOL     OW71927   3.460   2.597   1.580  0.2965  0.1076  0.4642
22522SOL    HW171928   3.457   2.682   1.536  0.6905 -0.2084 -0.1891
22522SOL    HW271929   3.511   2.612   1.659  1.5144  0.1962 -0.3156
22523SOL     OW71930   8.491   3.206   3.817 -0.3487 -0.5879  0.1758
22523SOL    HW171931   8.400   3.210   3.847 -0.0533 -2.8312  1.6268
22523SOL    HW271932   8.542   3.200   3.898  1.0150 -0.5476 -0.6618
22524SOL     OW71933   5.217   1.590   5.643  0.2087 -0.0989  0.1947
22524SOL    HW171934   5.150   1.653   5.618  1.6108  0.8282 -1.4063
22524SOL    HW271935   5.212   1.587   5.739 -0.6965  1.5479  0.2308
22525SOL     OW71936   4.736   2.901   3.116 -0.1692  0.2670  0.3105
22525SOL    HW171937   4.762   2.972   3.175 -1.1918  1.1983 -0.3261
22525SOL    HW271938   4.724   2.944   3.031  1.8325 -1.1318 -0.7573
22526SOL     OW71939   3.693   5.979   0.259 -0.2265 -0.9799 -0.0301
22526SOL    HW171940   3.775   6.008   0.301 -0.6538  0.1688  0.0610
22526SOL    HW271941   3.721   5.947   0.174  0.3668 -0.9521  0.1440
22527SOL     OW71942   1.092   4.536   2.623  0.2166 -0.3864  0.2262
22527SOL    HW171943   1.055   4.616   2.586 -0.4698 -0.1213  1.4367
22527SOL    HW271944   1.121   4.561   2.711 -0.6517 -1.6138  0.8976
22528SOL     OW71945   2.894   8.790   0.827  0.0390 -0.0867 -0.3388
22528SOL    HW171946   2.933   8.814   0.743  0.0504  0.2943 -0.2292
22528SOL    HW271947   2.830   8.722   0.805  0.9388 -0.9095 -0.4847
22529SOL     OW71948   8.839   6.873   7.410 -0.3833 -0.6918 -0.0431
22529SOL    HW171949   8.907   6.875   7.478 -0.8319 -0.6622  0.4043
22529SOL    HW271950   8.885   6.842   7.332  0.7392  1.6958 -0.4201
22530SOL     OW71951  10.928   1.256   5.987 -0.1872  0.1892 -0.4303
22530SOL    HW171952  11.013   1.218   6.008 -0.2077 -1.2429 -2.5278
22530SOL    HW271953  10.899   1.297   6.068  2.2148  0.1963  0.5173
22531SOL     OW71954   1.162   7.594  10.981 -0.4778  0.2644  0.1930
22531SOL    HW171955   1.220   7.664  10.952  0.3203 -0.2753  0.4598
22531SOL    HW271956   1.151   7.610  11.075 -0.3166  0.0590  0.2491
22532SOL     OW71957   6.099   1.004   6.666 -0.2735 -0.2440  0.6234
22532SOL    HW171958   6.115   0.921   6.711  2.3058 -0.1033  0.1060
22532SOL    HW271959   6.174   1.059   6.689  0.6672  0.2010 -2.9132
22533SOL     OW71960   4.394   7.784   4.204  0.5604 -0.0634  0.0204
22533SOL    HW171961   4.485   7.813   4.205  0.2392  1.1221 -1.6187
22533SOL    HW271962   4.343   7.864   4.192 -0.6513 -0.7989  0.0654
22534SOL     OW71963  11.087   0.646   9.340  0.0035 -0.0195  0.3587
22534SOL    HW171964  11.100   0.592   9.262  0.4452 -0.5431  0.7905
22534SOL    HW271965  11.100   0.587   9.413 -0.6577  0.4173  0.8385
22535SOL     OW71966   6.287   1.205   3.607 -0.0766  0.0920 -0.2828
22535SOL    HW171967   6.246   1.207   3.521  0.3697 -0.4457 -0.5113
22535SOL    HW271968   6.344   1.128   3.605 -0.1607 -0.0041  0.5374
22536SOL     OW71969   1.496  10.437   0.932  0.5490  0.1334 -0.1067
22536SOL    HW171970   1.580  10.392   0.932  1.8525  2.0648  4.3457
22536SOL    HW271971   1.515  10.523   0.895  0.3849  0.3905  0.4089
22537SOL     OW71972   1.918   5.036   3.801 -0.0446  0.7599  0.0726
22537SOL    HW171973   1.889   5.110   3.749 -0.6048 -0.7944 -1.9835
22537SOL    HW271974   1.849   4.970   3.791  2.7440 -2.0772 -2.7983
22538SOL     OW71975   1.230   5.021   3.414  0.3184  0.1291  0.1012
22538SOL    HW171976   1.215   5.027   3.508  0.6074  3.5114  0.0680
22538SOL    HW271977   1.149   5.052   3.375  0.4025 -0.7046 -0.7667
22539SOL     OW71978   3.727   8.683  10.374  0.1584 -0.4265  0.0222
22539SOL    HW171979   3.755   8.594  10.396 -0.2087 -0.4044  0.5937
22539SOL    HW271980   3.676   8.673  10.294  0.5870 -0.6546 -0.2266
22540SOL     OW71981   2.738   5.525   2.717  0.4059  0.1316 -0.3527
22540SOL    HW171982   2.708   5.573   2.795 -2.0785 -0.3273 -0.9259
22540SOL    HW271983   2.694   5.568   2.644  1.5497 -0.3465 -1.3525
22541SOL     OW71984   1.233  10.632   1.741 -0.8772  0.4692 -0.2484
22541SOL    HW171985   1.314  10.675   1.713 -2.2080  1.7332 -2.4628
22541SOL    HW271986   1.189  10.608   1.660 -2.5726 -0.5426  0.8955
22542SOL     OW71987   2.357   3.147   9.304 -0.4420  0.5174 -0.1223
22542SOL    HW171988   2.325   3.153   9.394 -0.0153  1.6691 -0.0278
22542SOL    HW271989   2.450   3.126   9.312 -0.9690 -2.3168 -0.3876
22543SOL     OW71990   3.313   3.754   6.767  0.0411  0.2805  0.0825
22543SOL    HW171991   3.358   3.673   6.794  0.3660  0.5802  0.4628
22543SOL    HW271992   3.308   3.748   6.672  1.2402  0.4173 -0.0016
22544SOL     OW71993   7.313   7.640   7.537  0.4000  0.3130  0.3384
22544SOL    HW171994   7.386   7.578   7.535  0.4635  0.4133 -1.2776
22544SOL    HW271995   7.239   7.592   7.500 -0.0512  0.6121  0.8316
22545SOL     OW71996   0.078   1.430  11.107  0.2812 -0.1407 -0.1439
22545SOL    HW171997   0.160   1.468  11.074 -0.5809  0.0358 -2.2447
22545SOL    HW271998   0.052   1.368  11.039 -1.7073  0.3340  0.1312
22546SOL     OW71999   1.157  10.062   3.359  0.2002 -0.4247  0.6380
22546SOL    HW172000   1.240  10.032   3.323 -1.4978 -1.7934 -2.5708
22546SOL    HW272001   1.168  10.156   3.370  1.7755 -0.3707 -0.9590
22547SOL     OW72002   7.364   5.042   4.324  0.3144 -0.0218 -0.1523
22547SOL    HW172003   7.398   5.121   4.364  1.1732  0.7625 -2.2923
22547SOL    HW272004   7.318   5.072   4.245  0.2620 -1.5873 -0.7662
22548SOL     OW72005   4.339   8.954   7.346  0.7473 -0.0122  0.5643
22548SOL    HW172006   4.255   8.932   7.306  1.1008  1.3058 -1.0157
22548SOL    HW272007   4.326   8.939   7.439 -0.9231 -0.7621  0.2512
22549SOL     OW72008  10.395   4.332   1.754  0.2989 -0.1337 -0.1935
22549SOL    HW172009  10.325   4.390   1.723 -0.3739 -0.9833 -0.2841
22549SOL    HW272010  10.363   4.244   1.736 -0.1212 -0.7033  2.8755
22550SOL     OW72011   7.521   7.951   7.750 -0.3567 -0.7220  0.1643
22550SOL    HW172012   7.434   7.936   7.713 -0.6359 -0.3999  0.6860
22550SOL    HW272013   7.558   8.021   7.696 -1.1742  0.4925  1.1181
22551SOL     OW72014   3.579   5.855   6.780 -0.5567 -0.6772 -0.5993
22551SOL    HW172015   3.582   5.941   6.823 -0.4707 -0.6295 -0.6989
22551SOL    HW272016   3.541   5.797   6.845 -2.4189 -0.1786 -1.1662
22552SOL     OW72017   3.381  10.928   5.460 -0.2957  0.0009  0.1577
22552SOL    HW172018   3.354  10.984   5.388 -0.0654 -2.1467 -1.7233
22552SOL    HW272019   3.467  10.960   5.486  0.8215 -0.7297 -2.3685
22553SOL     OW72020   0.655   1.313   6.882 -0.2252 -0.1959 -0.3236
22553SOL    HW172021   0.659   1.219   6.864  2.3411 -0.3454  0.6555
22553SOL    HW272022   0.602   1.320   6.962 -0.4271 -0.8043 -0.3998
22554SOL     OW72023   1.122   7.450   3.445 -0.2895 -0.4170  0.1169
22554SOL    HW172024   1.092   7.527   3.396  0.1883 -0.0619  0.3796
22554SOL    HW272025   1.082   7.376   3.399 -1.2885  0.0183  0.2445
22555SOL     OW72026  10.859   4.980  10.529 -0.2288 -0.3775  0.2497
22555SOL    HW172027  10.870   5.073  10.549  2.0351 -0.6921  0.8067
22555SOL    HW272028  10.800   4.947  10.597  0.2816  0.3433  1.0669
22556SOL     OW72029   3.589   9.263   7.777 -0.3401  0.1348  0.0371
22556SOL    HW172030   3.507   9.306   7.799  0.2200  0.5395  1.4147
22556SOL    HW272031   3.613   9.214   7.855  0.1037 -1.0054 -0.7827
22557SOL     OW72032   9.531   9.020   0.702  0.5715 -0.0533  0.0003
22557SOL    HW172033   9.590   9.087   0.667 -0.4657  2.1839  2.2556
22557SOL    HW272034   9.443   9.056   0.689 -0.1968 -2.0238 -0.7004
22558SOL     OW72035  10.344  11.047   6.186 -0.0598  0.0630 -0.3582
22558SOL    HW172036  10.264  11.080   6.228  0.1966 -0.6379  0.7413
22558SOL    HW272037  10.414  11.104   6.218  0.1359 -0.4705  0.2019
22559SOL     OW72038   6.112   1.473   3.270 -0.1415  0.2171  0.3652
22559SOL    HW172039   6.127   1.525   3.192 -1.3889 -0.8158 -0.6033
22559SOL    HW272040   6.190   1.417   3.277  0.3951  0.9535  0.4142
22560SOL     OW72041  10.646   2.070   1.490 -0.0532 -0.4065 -0.0795
22560SOL    HW172042  10.626   2.047   1.581  0.9201 -1.8535 -0.1941
22560SOL    HW272043  10.649   1.985   1.445  0.7205  0.1998 -1.1935
22561SOL     OW72044   8.165   4.928   5.524 -0.0344 -0.1500 -0.0539
22561SOL    HW172045   8.097   4.897   5.465 -0.2352 -0.1469  0.1761
22561SOL    HW272046   8.246   4.918   5.475  0.0204 -1.8866  0.3376
22562SOL     OW72047   5.582   0.035   6.401  0.1465  0.4129  0.4640
22562SOL    HW172048   5.599  -0.039   6.344 -0.5105  0.7223 -0.1395
22562SOL    HW272049   5.655   0.095   6.385 -0.4518  0.8603 -0.6656
22563SOL     OW72050   4.061   7.587   6.587 -0.0355 -0.0856  0.2945
22563SOL    HW172051   4.028   7.588   6.497  1.2816  1.0749 -0.2159
22563SOL    HW272052   4.087   7.496   6.602 -1.5081 -0.5735  0.0036
22564SOL     OW72053   3.223   6.399   3.298  0.2170 -0.0747  0.4228
22564SOL    HW172054   3.281   6.322   3.296  1.7077  0.9416  1.7375
22564SOL    HW272055   3.138   6.364   3.324  0.9684 -1.2414  1.4462
22565SOL     OW72056   1.742   5.295   9.478 -0.5854  0.6468  0.0490
22565SOL    HW172057   1.823   5.244   9.480 -0.1884  1.2980  0.8876
22565SOL    HW272058   1.672   5.229   9.476 -0.0703  0.0764  0.6082
22566SOL     OW72059   7.994   9.008   3.016  0.0006  0.5396 -0.6282
22566SOL    HW172060   8.049   9.053   2.951 -0.3344  0.4807 -0.9551
22566SOL    HW272061   8.000   9.062   3.094  0.3645  0.6409 -0.7231
22567SOL     OW72062   3.217   8.641   6.704  0.4804  0.4131 -0.2402
22567SOL    HW172063   3.262   8.652   6.620 -0.4247  0.5374 -0.7321
22567SOL    HW272064   3.224   8.727   6.746 -0.2012  0.7606 -0.7972
22568SOL     OW72065   2.974   9.540  11.103  0.1819 -0.2588 -0.4630
22568SOL    HW172066   3.016   9.605  11.160  0.2157 -0.5406 -0.1666
22568SOL    HW272067   3.033   9.465  11.104 -1.1712 -1.3883  1.4168
22569SOL     OW72068   5.296   1.207   9.524 -0.0006 -0.0417  0.2211
22569SOL    HW172069   5.234   1.279   9.535  0.7469  0.3116  2.5828
22569SOL    HW272070   5.249   1.130   9.557  0.0444 -0.1869 -0.0537
22570SOL     OW72071   0.704   6.188  10.251  0.1619  0.4703  0.1968
22570SOL    HW172072   0.693   6.258  10.187 -0.0839  1.3259  1.1322
22570SOL    HW272073   0.726   6.234  10.333  2.2481 -0.6797  0.3549
22571SOL     OW72074   5.651   6.334   0.061 -0.1984  0.1556 -0.3944
22571SOL    HW172075   5.669   6.310   0.152  1.5245  0.9878 -0.4712
22571SOL    HW272076   5.641   6.251   0.015 -0.3575 -0.2864  0.4206
22572SOL     OW72077   0.050   2.550   3.142 -0.6315 -0.4995  0.1672
22572SOL    HW172078   0.105   2.475   3.162  0.5654  0.4459  0.5643
22572SOL    HW272079   0.019   2.534   3.053 -0.1263 -1.3103  0.1270
22573SOL     OW72080   1.788   4.853   8.703 -0.0568  0.4763 -0.2887
22573SOL    HW172081   1.743   4.769   8.696  3.3076 -1.4733 -0.6936
22573SOL    HW272082   1.755   4.904   8.629 -0.1114 -1.5909 -1.7669
22574SOL     OW72083   2.222   1.595   2.847  0.1210  0.6863  0.4031
22574SOL    HW172084   2.130   1.581   2.822  0.1471  1.3738 -0.1304
22574SOL    HW272085   2.221   1.598   2.942 -0.5321  1.4144  0.3838
22575SOL     OW72086   1.067   7.263   3.255 -0.0696  0.3540  0.1000
22575SOL    HW172087   1.005   7.274   3.182  0.7011  1.3012 -0.4457
22575SOL    HW272088   1.137   7.209   3.219 -0.6159 -0.8202  0.7537
22576SOL     OW72089   8.843   0.395  10.905 -0.1694 -0.6074 -0.5179
22576SOL    HW172090   8.904   0.401  10.832  0.0731  0.7239 -0.2269
22576SOL    HW272091   8.767   0.447  10.877  1.4588  3.2690  1.6093
22577SOL     OW72092   8.961   8.801   8.977 -0.0513 -0.1197  0.2814
22577SOL    HW172093   9.057   8.803   8.967 -0.1872 -1.9817 -2.2058
22577SOL    HW272094   8.947   8.764   9.064  1.4300  1.5207  1.3000
22578SOL     OW72095   4.222  10.859   8.767  0.1351  0.1705 -0.3191
22578SOL    HW172096   4.287  10.850   8.697  1.8454 -0.2993  1.2426
22578SOL    HW272097   4.239  10.785   8.825 -0.3839  1.2106  1.2270
22579SOL     OW72098   4.969   2.997  10.309 -0.3848  0.5752 -0.2508
22579SOL    HW172099   4.877   2.993  10.283 -0.1940 -3.3027 -0.9821
22579SOL    HW272100   5.017   3.013  10.228 -0.3451  1.6347 -0.0274
22580SOL     OW72101   8.222   2.284   2.910 -0.2332 -0.0320  0.2427
22580SOL    HW172102   8.271   2.268   2.990 -0.2385  0.2736  0.3061
22580SOL    HW272103   8.251   2.370   2.880 -2.4719  1.2673  1.5675
22581SOL     OW72104   7.393  10.504   2.107  0.4067  0.1059  0.5741
22581SOL    HW172105   7.464  10.553   2.067 -0.1251  1.9614  1.7799
22581SOL    HW272106   7.318  10.564   2.105 -0.8631 -1.4093  0.2830
22582SOL     OW72107   9.779   8.627   0.841 -0.2414  0.4943 -0.2300
22582SOL    HW172108   9.725   8.682   0.784 -1.1792  0.8238  0.9181
22582SOL    HW272109   9.801   8.685   0.915  2.6146  0.6980 -1.1394
22583SOL     OW72110   6.018   5.547   9.992  0.2736  0.1100 -0.0613
22583SOL    HW172111   6.068   5.521   9.914 -0.2819  1.2635 -0.8371
22583SOL    HW272112   6.072   5.519  10.066  1.2472 -0.2055 -0.8675
22584SOL     OW72113   7.213  10.458   4.157 -0.1004 -0.1066 -0.0104
22584SOL    HW172114   7.234  10.500   4.240  1.4889 -0.2112 -0.3235
22584SOL    HW272115   7.188  10.531   4.100 -0.0195  0.1115  0.2311
22585SOL     OW72116   4.827   8.806   4.953  0.0914 -0.0333  0.5789
22585SOL    HW172117   4.741   8.771   4.977 -0.2349 -0.3719 -0.9278
22585SOL    HW272118   4.879   8.799   5.032 -0.3451 -2.7676  0.7164
22586SOL     OW72119   1.044   3.801   5.354 -0.0449  0.0411 -0.2259
22586SOL    HW172120   1.063   3.736   5.421 -0.4609  1.6354  1.5232
22586SOL    HW272121   1.130   3.839   5.332  0.1148 -0.6163 -0.7760
22587SOL     OW72122  10.719  10.805   8.404  0.0911 -0.3277  0.6055
22587SOL    HW172123  10.635  10.828   8.444  0.3927 -1.0862  1.7208
22587SOL    HW272124  10.746  10.726   8.450  1.5747  0.0891  0.4956
22588SOL     OW72125   8.847  11.038  10.720 -0.1615  0.2289 -0.6645
22588SOL    HW172126   8.912  11.094  10.764 -1.5548  0.9831  0.5288
22588SOL    HW272127   8.894  10.958  10.700  1.6361  1.4094 -1.4915
22589SOL     OW72128   0.968   8.629  10.014  0.0662  0.4981  0.1035
22589SOL    HW172129   0.909   8.704  10.017  0.3610  0.8175 -1.2196
22589SOL    HW272130   0.919   8.560   9.969 -0.3151 -0.2395  1.5837
22590SOL     OW72131   4.964   4.378   8.465  0.1868 -0.4214 -0.6045
22590SOL    HW172132   5.035   4.430   8.430  0.7785 -1.0075 -0.3011
22590SOL    HW272133   4.994   4.350   8.552 -1.0843  0.6764  0.2476
22591SOL     OW72134   3.993   7.710   7.239  0.3177 -0.3054  0.5015
22591SOL    HW172135   3.963   7.705   7.329  0.8511  1.7749  0.8605
22591SOL    HW272136   3.916   7.736   7.189  0.5487  1.0458  0.7958
22592SOL     OW72137   5.962  10.666   2.672 -0.2944  0.4014 -0.3127
22592SOL    HW172138   5.974  10.619   2.755  1.3411  0.3637 -0.5254
22592SOL    HW272139   6.032  10.631   2.616 -0.5823  1.3481 -1.2737
22593SOL     OW72140   5.262   3.089   7.017 -0.4221  0.3063 -0.3342
22593SOL    HW172141   5.206   3.035   7.072 -0.8484  0.5631 -0.5121
22593SOL    HW272142   5.284   3.033   6.942 -0.5515  0.2527 -0.3318
22594SOL     OW72143   5.238   3.438   0.707  0.4631  0.2785  0.5032
22594SOL    HW172144   5.197   3.473   0.628  0.1205 -1.6584 -0.2417
22594SOL    HW272145   5.227   3.507   0.773 -2.4940  0.5558 -0.1220
22595SOL     OW72146   6.155   4.421   9.206  0.3952  0.0983  0.3243
22595SOL    HW172147   6.221   4.353   9.225  0.1827  0.0410  0.8882
22595SOL    HW272148   6.204   4.490   9.161  0.5056 -0.6617 -0.7492
22596SOL     OW72149   1.196   7.622   6.570 -0.1862 -0.0232  0.5164
22596SOL    HW172150   1.224   7.546   6.621  1.8766 -1.5001 -2.5158
22596SOL    HW272151   1.269   7.683   6.576  0.0479 -0.1836 -0.5542
22597SOL     OW72152   5.155   3.377  10.726  0.1832  0.0445  0.2683
22597SOL    HW172153   5.085   3.320  10.694  0.7859 -0.1430 -0.7652
22597SOL    HW272154   5.133   3.394  10.818 -0.6763 -0.8246  0.2302
22598SOL     OW72155   3.932   7.167   9.070  0.2384 -0.0131  0.0559
22598SOL    HW172156   3.861   7.104   9.059  2.0010 -1.8335 -2.0687
22598SOL    HW272157   3.924   7.226   8.994  0.6706  0.1013  0.0953
22599SOL     OW72158   0.763   3.793   3.387  0.1528  0.6017  0.1275
22599SOL    HW172159   0.679   3.832   3.365 -0.9667 -1.3486  0.7458
22599SOL    HW272160   0.788   3.744   3.309  0.1330  0.2503  0.3367
22600SOL     OW72161   9.230   1.335   4.701  0.1089  0.8202  0.3479
22600SOL    HW172162   9.179   1.263   4.738 -0.0738 -0.4120 -2.0939
22600SOL    HW272163   9.166   1.406   4.689 -1.4244 -0.8915 -3.2055
22601SOL     OW72164   8.374   6.601   9.278 -0.4031  0.0299  0.1578
22601SOL    HW172165   8.412   6.628   9.361 -0.1807  1.4557 -0.3761
22601SOL    HW272166   8.386   6.506   9.275  3.6800  0.4025 -0.2401
22602SOL     OW72167   5.618   2.607   6.862 -0.0583 -0.3313 -1.3171
22602SOL    HW172168   5.703   2.640   6.889 -0.3114 -0.4955 -0.3021
22602SOL    HW272169   5.597   2.659   6.784  0.8702 -0.1492 -1.4611
22603SOL     OW72170   1.980   4.329   4.243 -0.2618  0.2999 -0.0543
22603SOL    HW172171   2.004   4.239   4.224  0.4160  0.8245 -1.9111
22603SOL    HW272172   2.057   4.367   4.284 -0.3848  0.1690  0.3031
22604SOL     OW72173   4.264   2.549   2.781  0.1301  0.1045 -0.1458
22604SOL    HW172174   4.275   2.612   2.710  0.4088  0.1788 -0.0389
22604SOL    HW272175   4.346   2.554   2.830  0.6107 -1.1233 -0.7754
22605SOL     OW72176  10.033   6.870   9.822 -0.4068  0.1040 -0.4782
22605SOL    HW172177  10.123   6.840   9.821 -0.3825  0.0377 -2.9338
22605SOL    HW272178  10.037   6.957   9.861  0.5228 -0.3673  0.5171
22606SOL     OW72179   2.712   1.572   6.988  0.2877  0.6813  0.1042
22606SOL    HW172180   2.709   1.526   6.904 -0.8823  2.2622 -0.7793
22606SOL    HW272181   2.628   1.551   7.030  0.1886  1.1782  0.1605
22607SOL     OW72182   9.173   4.849   3.709 -0.0216 -0.1754 -0.5690
22607SOL    HW172183   9.142   4.776   3.656  1.8933 -1.1293 -0.4873
22607SOL    HW272184   9.215   4.908   3.646 -2.6275  1.5512 -0.8098
22608SOL     OW72185   6.100   2.458  10.063 -0.9983  0.3669 -0.1713
22608SOL    HW172186   6.017   2.462  10.110 -0.3305 -3.6490  1.8443
22608SOL    HW272187   6.089   2.387   9.999  0.7785 -0.1582  0.0252
22609SOL     OW72188   4.983   6.954   6.842  0.3298 -0.2962 -0.4941
22609SOL    HW172189   4.956   6.874   6.796  1.9304 -1.0011 -0.2878
22609SOL    HW272190   4.919   7.020   6.815 -0.5859 -1.4566 -1.2699
22610SOL     OW72191   1.963   0.301   6.366  1.0672  0.2805 -0.0249
22610SOL    HW172192   2.024   0.229   6.385  0.0883 -0.5405  0.0903
22610SOL    HW272193   2.010   0.356   6.303  2.2311  0.0928  0.6427
22611SOL     OW72194  10.979   0.545   8.918  0.3428  0.3791 -0.4640
22611SOL    HW172195  10.939   0.484   8.980  1.2517  1.2020  1.0003
22611SOL    HW272196  11.023   0.488   8.854  0.3484 -0.5104  0.2987
22612SOL     OW72197   7.035   5.541   5.004 -0.1996 -0.0590 -0.1789
22612SOL    HW172198   7.052   5.629   5.037  0.2439  0.2279 -1.1361
22612SOL    HW272199   7.118   5.494   5.018 -0.1000 -0.0167 -0.6172
22613SOL     OW72200   9.555   7.301  10.600  0.4638  0.0869  0.2051
22613SOL    HW172201   9.500   7.315  10.523  0.3420  0.5848  0.3765
22613SOL    HW272202   9.592   7.387  10.619  0.7712 -0.1044  0.4937
22614SOL     OW72203   8.719   9.195   9.203 -0.4116 -0.3900 -0.1767
22614SOL    HW172204   8.672   9.194   9.287 -2.2599  2.4377 -0.9968
22614SOL    HW272205   8.657   9.158   9.140 -1.7991  3.2282 -1.2483
22615SOL     OW72206   0.514   4.416   4.981  0.2819 -0.2710 -0.1053
22615SOL    HW172207   0.598   4.433   5.024  0.7942 -0.4001 -1.0449
22615SOL    HW272208   0.455   4.393   5.054  1.0284 -0.0971  0.5720
22616SOL     OW72209   4.957   8.712   2.616 -0.0392  0.0477  0.2702
22616SOL    HW172210   4.863   8.707   2.598 -0.0179 -2.0455  0.5406
22616SOL    HW272211   4.966   8.788   2.674 -1.4451  0.7346 -0.3757
22617SOL     OW72212   6.228   3.578   8.448 -0.1523 -0.4084  0.0390
22617SOL    HW172213   6.284   3.595   8.523  0.4646  0.1453 -0.5381
22617SOL    HW272214   6.162   3.648   8.450  1.8622  1.7059 -1.8277
22618SOL     OW72215   3.378   0.995   7.092 -0.1797  0.2132 -0.3714
22618SOL    HW172216   3.341   1.032   7.172 -5.3492  0.5941 -2.5384
22618SOL    HW272217   3.385   0.902   7.109 -2.1544  0.1471  0.3553
22619SOL     OW72218   8.409   2.228   3.108  0.1101  0.4067  0.3650
22619SOL    HW172219   8.422   2.144   3.151  1.5869  1.1224  1.3743
22619SOL    HW272220   8.460   2.222   3.027 -1.7249 -0.5049 -0.7935
22620SOL     OW72221   8.859   3.929   0.786 -1.0816 -0.4423 -0.2377
22620SOL    HW172222   8.881   3.844   0.746 -0.4976 -0.6656  0.5452
22620SOL    HW272223   8.818   3.906   0.870 -0.0499  0.0560  0.4191
22621SOL     OW72224   8.024   4.607   9.133 -0.0253 -0.4799 -0.2068
22621SOL    HW172225   7.992   4.559   9.209 -0.1500  1.9397  1.3830
22621SOL    HW272226   7.965   4.682   9.125  0.4460 -0.2771 -2.2445
22622SOL     OW72227   1.043   7.903   9.530 -0.5505  0.7164 -0.0455
22622SOL    HW172228   0.985   7.973   9.561 -2.1129 -1.1166  1.4333
22622SOL    HW272229   1.033   7.904   9.435 -2.1628  1.1783  0.0992
22623SOL     OW72230   8.951   8.661   3.625 -0.6764 -0.0348  0.4482
22623SOL    HW172231   9.022   8.722   3.646 -0.5508 -0.2171  0.5689
22623SOL    HW272232   8.895   8.662   3.703  0.6937 -1.9840  1.5755
22624SOL     OW72233   1.963   6.747  10.532 -0.0759  0.5073 -0.1388
22624SOL    HW172234   2.038   6.710  10.484  1.0703  1.4076  0.8807
22624SOL    HW272235   1.972   6.842  10.520 -1.4672  0.6032 -0.5612
22625SOL     OW72236  10.464   8.952   0.056 -0.1770  0.5882 -0.2755
22625SOL    HW172237  10.476   8.880  -0.007  0.3462  0.0827  0.3784
22625SOL    HW272238  10.388   8.926   0.108  0.5275  0.0589  0.5267
22626SOL     OW72239   5.281   9.771   8.121 -0.0540 -0.4767  0.1559
22626SOL    HW172240   5.320   9.801   8.203  1.6243 -2.5086  0.1941
22626SOL    HW272241   5.275   9.849   8.067  2.7326  0.2453  0.7317
22627SOL     OW72242   7.859   2.096   8.019  0.2418 -0.1730 -0.2492
22627SOL    HW172243   7.773   2.138   8.012  0.5407  0.2743 -1.7383
22627SOL    HW272244   7.847   2.010   7.979  0.1691 -0.6606  0.7936
22628SOL     OW72245   0.444   8.671   0.186  0.5157 -0.3551  0.4075
22628SOL    HW172246   0.411   8.637   0.103  1.7882 -0.4152 -0.0963
22628SOL    HW272247   0.368   8.710   0.228 -0.4084 -1.4319 -0.2188
22629SOL     OW72248   0.167   1.938   2.288 -0.3145 -0.1033  0.0246
22629SOL    HW172249   0.115   1.925   2.209  0.3280  2.5286 -0.8961
22629SOL    HW272250   0.255   1.907   2.265  0.1807  1.7594 -0.7780
22630SOL     OW72251   7.789   8.610   7.303 -0.0991  0.5117  0.0516
22630SOL    HW172252   7.699   8.580   7.310 -0.6574  0.8038 -3.5877
22630SOL    HW272253   7.787   8.701   7.333 -0.3339 -0.2638  2.5755
22631SOL     OW72254   6.224   4.583   8.035  0.0149 -0.2315 -0.8013
22631SOL    HW172255   6.214   4.508   8.094 -1.1368 -0.3462 -1.1287
22631SOL    HW272256   6.207   4.547   7.948  1.0575  0.0761 -1.1470
22632SOL     OW72257   3.531   8.837   6.555  0.1749  0.3085  0.5812
22632SOL    HW172258   3.609   8.784   6.569  0.8948  1.0753 -0.3711
22632SOL    HW272259   3.465   8.775   6.522  1.0908  0.0278 -0.8227
22633SOL     OW72260   6.105   8.602   4.184 -0.3612  0.3238  0.1901
22633SOL    HW172261   6.120   8.543   4.110 -1.0894 -0.2453  0.4860
22633SOL    HW272262   6.186   8.653   4.191  0.5500 -1.0997  0.3439
22634SOL     OW72263   9.558   4.059   5.210 -0.1024 -0.1393  0.3401
22634SOL    HW172264   9.615   4.053   5.286 -0.8352 -0.0277  0.9082
22634SOL    HW272265   9.472   4.035   5.242 -0.0252 -2.4933 -0.9585
22635SOL     OW72266   7.046   1.706   6.585 -0.0466 -0.1929  0.2404
22635SOL    HW172267   7.121   1.651   6.604  0.6897  0.4094 -0.8184
22635SOL    HW272268   7.010   1.671   6.504  1.1514  1.5358 -1.1285
22636SOL     OW72269   4.621   8.088  10.464 -0.0848 -0.1185 -0.2193
22636SOL    HW172270   4.645   8.166  10.414  3.7984 -0.8106  0.2704
22636SOL    HW272271   4.624   8.117  10.556  0.1928 -0.5624 -0.0879
22637SOL     OW72272   2.940   0.389   1.516 -0.4403  0.6517 -0.0712
22637SOL    HW172273   2.864   0.440   1.486 -0.2561  1.2494  0.4371
22637SOL    HW272274   3.008   0.455   1.529  0.0926  0.1474 -0.2864
22638SOL     OW72275   2.099   3.640   1.011 -0.1739  0.9389  0.3796
22638SOL    HW172276   2.100   3.546   1.032  1.0640  1.2448  1.9210
22638SOL    HW272277   2.052   3.680   1.084 -0.3887  1.5544 -0.0936
22639SOL     OW72278   0.165   8.046   8.260  0.2691  0.3957 -0.2205
22639SOL    HW172279   0.258   8.053   8.237  1.0127 -0.8077  2.0260
22639SOL    HW272280   0.152   7.953   8.277 -1.1966  0.6401  0.1100
22640SOL     OW72281   8.298   1.191   1.716  0.4293  0.7637 -0.3738
22640SOL    HW172282   8.354   1.115   1.697  1.5810  1.3841  0.3872
22640SOL    HW272283   8.276   1.226   1.630  0.7697  0.1947 -0.7045
22641SOL     OW72284   7.833   0.120   9.456 -0.0259 -0.0694 -0.5199
22641SOL    HW172285   7.832   0.073   9.372  2.2003  0.4750 -0.9220
22641SOL    HW272286   7.915   0.093   9.497 -1.8875 -1.7849  2.4233
22642SOL     OW72287   4.686   7.339   6.618  0.0174 -0.8010  0.3253
22642SOL    HW172288   4.650   7.389   6.691  0.0605 -1.4947  0.8358
22642SOL    HW272289   4.705   7.404   6.551 -0.1438 -0.1682  0.8831
22643SOL     OW72290   4.483   5.233  11.029  0.2014 -0.2609 -0.7801
22643SOL    HW172291   4.438   5.153  11.000  0.3526 -0.6853  0.1125
22643SOL    HW272292   4.532   5.262  10.952 -1.1462 -0.1018 -1.6021
22644SOL     OW72293   7.964   5.075   0.018 -0.1389 -0.4322  0.4591
22644SOL    HW172294   7.884   5.075  -0.034  0.0928  0.1389  0.1052
22644SOL    HW272295   7.947   5.138   0.088 -0.1308 -0.5781  0.5934
22645SOL     OW72296   5.739  10.526   6.786  0.4231 -0.0362  0.4342
22645SOL    HW172297   5.809  10.588   6.808  0.7781  0.7116 -2.4033
22645SOL    HW272298   5.771  10.441   6.817  1.5835  0.6456  1.1752
22646SOL     OW72299   2.624   1.442   4.776 -0.2736  0.1365  0.5033
22646SOL    HW172300   2.674   1.361   4.786 -0.8712 -0.2197  0.6810
22646SOL    HW272301   2.672   1.507   4.828  2.1853  0.8448 -2.3530
22647SOL     OW72302  10.443   2.880   8.074  0.0005 -0.0037 -0.0496
22647SOL    HW172303  10.457   2.793   8.038 -1.1207 -0.8025  1.3728
22647SOL    HW272304  10.485   2.939   8.011  0.5217 -1.5322 -1.1786
22648SOL     OW72305  10.128   5.827   7.628 -0.0318  0.4436  0.0861
22648SOL    HW172306  10.165   5.744   7.658  0.1992  0.9980  1.3974
22648SOL    HW272307  10.039   5.805   7.601 -0.1305 -0.1497  0.8631
22649SOL     OW72308   3.424   5.322   6.199 -0.2560  0.3520 -0.3062
22649SOL    HW172309   3.354   5.378   6.164  0.1386  1.1938  0.2266
22649SOL    HW272310   3.424   5.340   6.293  1.2994  1.1069 -0.4264
22650SOL     OW72311  10.724   4.952  10.798  0.2739 -0.0020  0.2950
22650SOL    HW172312  10.770   4.879  10.839  2.0934  0.2150 -1.2559
22650SOL    HW272313  10.757   5.030  10.843  0.3296  0.0511  0.1634
22651SOL     OW72314  10.307   9.743   3.120 -0.0995 -0.0193  0.9915
22651SOL    HW172315  10.229   9.761   3.173 -1.5690  0.9625 -1.3831
22651SOL    HW272316  10.346   9.829   3.107 -0.1185 -0.1640 -0.0448
22652SOL     OW72317   7.389   1.465   9.051 -0.3715  0.1337  0.0893
22652SOL    HW172318   7.460   1.449   9.114 -0.1473  3.5396  0.8927
22652SOL    HW272319   7.309   1.448   9.101 -0.1736 -0.1318  0.3241
22653SOL     OW72320   8.346   2.584   8.071  0.3243  0.3289  0.2355
22653SOL    HW172321   8.442   2.584   8.082  0.3375  1.1608  0.2211
22653SOL    HW272322   8.333   2.577   7.977  0.3554 -0.2980  0.2736
22654SOL     OW72323   1.088   1.848   2.367 -0.1185  0.4372 -0.5680
22654SOL    HW172324   1.153   1.878   2.430 -0.7524 -0.7569  0.6829
22654SOL    HW272325   1.103   1.754   2.358 -2.9173 -0.3146  1.3538
22655SOL     OW72326   6.437   1.941   5.299 -0.0553  0.0934 -0.3257
22655SOL    HW172327   6.404   1.893   5.375 -1.6273 -0.5490 -1.3665
22655SOL    HW272328   6.446   1.875   5.231  1.5251  0.6289 -0.6629
22656SOL     OW72329   8.841   5.764   3.983 -0.3619 -0.0794  0.3065
22656SOL    HW172330   8.778   5.834   3.969  0.2976  0.5299  0.3687
22656SOL    HW272331   8.876   5.746   3.896 -0.5132 -0.3204  0.2942
22657SOL     OW72332   7.106   2.483   8.997  0.3698  0.3015  0.1632
22657SOL    HW172333   7.101   2.470   9.091  0.3034 -2.1127 -0.1104
22657SOL    HW272334   7.191   2.526   8.983  0.3656  0.7127  1.2927
22658SOL     OW72335   8.173   4.614   4.716  1.0027 -0.0101 -0.2589
22658SOL    HW172336   8.203   4.693   4.761 -1.6526  0.0637  1.6371
22658SOL    HW272337   8.111   4.645   4.650  0.4150 -0.4618  0.0695
22659SOL     OW72338   4.864   0.796   4.600  0.2947 -0.6614  0.4542
22659SOL    HW172339   4.793   0.776   4.661  0.7149  0.0972  1.2187
22659SOL    HW272340   4.856   0.890   4.584 -0.6909 -1.0792 -1.8298
22660SOL     OW72341   4.753   8.409   0.835  0.2590 -0.1002 -0.1640
22660SOL    HW172342   4.674   8.370   0.800  1.6462 -0.9879 -2.5626
22660SOL    HW272343   4.747   8.502   0.810  0.6389 -0.4744 -1.7666
22661SOL     OW72344   0.603  10.092   8.301  0.3008  0.4988  0.3261
22661SOL    HW172345   0.653  10.127   8.374  0.0422  1.0200  0.2563
22661SOL    HW272346   0.521  10.141   8.302 -0.9528 -1.4917  1.4748
22662SOL     OW72347   8.079   4.537   5.665 -0.3407  0.5996 -0.0245
22662SOL    HW172348   8.011   4.528   5.598  0.8122  0.8218 -1.2588
22662SOL    HW272349   8.089   4.449   5.701 -1.2681  0.5626  0.1878
22663SOL     OW72350   8.994   6.868   4.945  0.8325  0.5212  0.0285
22663SOL    HW172351   8.996   6.956   4.906  1.7803  0.6667  0.3808
22663SOL    HW272352   9.074   6.863   4.997  0.4967 -0.3451  0.4847
22664SOL     OW72353   7.904   2.568   1.298  0.5368  0.2753  0.7306
22664SOL    HW172354   7.959   2.644   1.280  0.4808  0.1841  0.1419
22664SOL    HW272355   7.955   2.494   1.265  0.0434  0.1961  0.1101
22665SOL     OW72356   7.377   2.385   5.178  0.3348  0.4861  0.2282
22665SOL    HW172357   7.293   2.342   5.160  0.3064  0.7760 -0.3570
22665SOL    HW272358   7.391   2.372   5.272  1.0290 -2.1213 -0.1336
22666SOL     OW72359   3.847   3.928   8.260 -0.8292 -0.4082  0.7114
22666SOL    HW172360   3.936   3.962   8.268 -0.0421 -2.0221 -0.6454
22666SOL    HW272361   3.830   3.886   8.344  0.7118 -2.2844  0.1592
22667SOL     OW72362   6.175   3.317   0.351 -0.7945 -0.0332  0.4220
22667SOL    HW172363   6.107   3.317   0.418  0.2875 -0.3800  1.5485
22667SOL    HW272364   6.158   3.396   0.300 -1.6163  0.2605  1.1236
22668SOL     OW72365   8.853   9.046   8.662 -0.1689  0.1030  0.4032
22668SOL    HW172366   8.843   9.133   8.623 -0.2069 -0.0706  0.0265
22668SOL    HW272367   8.942   9.019   8.639  0.4940  0.7928  2.0407
22669SOL     OW72368   5.799  10.904   4.625  0.1754 -0.5247 -0.1532
22669SOL    HW172369   5.846  10.889   4.707 -0.2382 -0.7632  0.0417
22669SOL    HW272370   5.716  10.942   4.652 -0.1133 -0.9495 -0.4361
22670SOL     OW72371   3.467   3.652   4.878 -0.1195 -0.5038  0.3631
22670SOL    HW172372   3.560   3.636   4.860 -0.3731 -2.3588  0.4587
22670SOL    HW272373   3.434   3.568   4.911 -1.7693  0.2041  0.6461
22671SOL     OW72374   4.226   6.105   5.354 -0.1990  0.0960  0.1669
22671SOL    HW172375   4.256   6.079   5.267  0.9242 -0.7218  0.7668
22671SOL    HW272376   4.143   6.058   5.365 -0.8726  1.0099 -0.8390
22672SOL     OW72377   8.490   9.409   5.365 -0.0091 -0.3885  0.4426
22672SOL    HW172378   8.430   9.341   5.395 -0.5590 -1.1173 -2.0128
22672SOL    HW272379   8.436   9.488   5.359 -0.9729 -1.1183 -2.0983
22673SOL     OW72380   2.509   0.368   9.044 -0.6491 -0.4601 -0.5603
22673SOL    HW172381   2.524   0.430   8.972  0.8353  1.2137  1.0993
22673SOL    HW272382   2.419   0.338   9.031 -1.4032  1.9746 -1.5170
22674SOL     OW72383   0.211   6.034   9.498 -0.0063 -0.2561 -0.4436
22674SOL    HW172384   0.133   6.042   9.553 -1.2532  2.1901 -2.3769
22674SOL    HW272385   0.180   5.989   9.419  0.6676  0.2134 -0.9845
22675SOL     OW72386   5.432   4.147   4.573 -0.6696  0.3830  0.1670
22675SOL    HW172387   5.345   4.131   4.535 -0.0961 -0.3873 -0.8586
22675SOL    HW272388   5.488   4.080   4.534  0.0187 -0.3095  2.2144
22676SOL     OW72389   3.572   8.405   2.969  0.2550  0.5726 -0.1052
22676SOL    HW172390   3.643   8.453   2.928  1.1168 -0.5452  0.0475
22676SOL    HW272391   3.590   8.313   2.950 -1.0521  0.2503  0.0874
22677SOL     OW72392   8.072  10.450   0.651 -0.3692  0.9641  0.3286
22677SOL    HW172393   8.066  10.518   0.584 -2.5571  1.3171  0.7989
22677SOL    HW272394   8.038  10.492   0.730  0.3373 -0.0294  1.1801
22678SOL     OW72395   7.338   0.460   9.989  0.3788 -0.6654 -0.0114
22678SOL    HW172396   7.379   0.459  10.075 -0.3575  0.8568  0.4049
22678SOL    HW272397   7.245   0.446  10.006 -0.0895  1.6460 -0.2756
22679SOL     OW72398   5.595   4.224  10.613 -0.1944  0.3361 -0.1688
22679SOL    HW172399   5.663   4.286  10.642 -0.3211 -0.1872  1.3440
22679SOL    HW272400   5.514   4.276  10.614  0.1021  0.8663 -1.6325
22680SOL     OW72401   9.081   1.561   6.008 -0.3652 -0.9493 -0.0473
22680SOL    HW172402   9.080   1.478   5.960  0.3480 -0.8300 -0.2818
22680SOL    HW272403   9.173   1.585   6.012 -0.5544 -0.2402  0.1506
22681SOL     OW72404   3.335   3.552   4.002 -0.0515 -0.3740 -0.0683
22681SOL    HW172405   3.380   3.620   4.053  0.3844 -1.1172  0.5602
22681SOL    HW272406   3.355   3.573   3.911 -0.8242  0.9705  0.0325
22682SOL     OW72407   0.937   7.498   7.456 -0.0291  0.4191  0.3754
22682SOL    HW172408   1.024   7.496   7.497  0.2513 -1.3808 -0.1909
22682SOL    HW272409   0.940   7.427   7.392 -2.6936 -1.3314  2.0090
22683SOL     OW72410   3.900   9.492   8.225  0.4387 -0.3748  0.1728
22683SOL    HW172411   3.880   9.492   8.131 -1.6749  0.3846  0.5598
22683SOL    HW272412   3.856   9.570   8.258  1.6389 -0.3238  1.7252
22684SOL     OW72413   5.412   2.633   5.345  0.4708 -0.1882  0.7210
22684SOL    HW172414   5.433   2.541   5.356  0.0962 -0.4977 -0.8042
22684SOL    HW272415   5.326   2.633   5.302  0.9782  0.8139 -0.3677
22685SOL     OW72416   8.874   3.232  10.428  0.0030  0.1336 -0.1203
22685SOL    HW172417   8.954   3.187  10.456  1.0348  1.1325 -1.3753
22685SOL    HW272418   8.873   3.223  10.333 -0.8286  1.0675 -0.2153
22686SOL     OW72419   7.983   0.364   9.611  0.3850  0.3615  0.5795
22686SOL    HW172420   7.908   0.412   9.646  1.1400  1.5857  0.5812
22686SOL    HW272421   8.038   0.431   9.570  1.3022 -0.5519  0.2524
22687SOL     OW72422   4.933   0.251   3.220 -0.6371  0.1906 -0.0316
22687SOL    HW172423   4.877   0.252   3.298  1.0992 -0.1353  1.2869
22687SOL    HW272424   4.879   0.289   3.151 -1.8757  1.5162  1.5792
22688SOL     OW72425   9.016  10.144   8.608 -0.5925 -0.0408 -1.0283
22688SOL    HW172426   8.969  10.080   8.555 -1.1709 -0.1652 -0.3825
22688SOL    HW272427   8.979  10.134   8.696  1.9376 -1.5244 -0.0023
22689SOL     OW72428  10.153   7.680   9.849 -0.6517  0.3943  0.6321
22689SOL    HW172429  10.168   7.772   9.868  0.7231  0.4051 -0.3963
22689SOL    HW272430  10.119   7.679   9.760  2.2899 -0.2472 -0.5684
22690SOL     OW72431   3.212   6.350   1.835  0.1612  0.6429  0.1945
22690SOL    HW172432   3.164   6.266   1.840 -1.2743  1.4093 -0.0561
22690SOL    HW272433   3.198   6.390   1.921 -1.9311  2.0262 -0.7129
22691SOL     OW72434   9.969   1.303  10.252  0.3350  0.0993  0.5398
22691SOL    HW172435   9.951   1.368  10.184  0.5079 -2.8377 -2.6167
22691SOL    HW272436  10.063   1.313  10.271  1.0946 -0.9831 -2.1427
22692SOL     OW72437   5.795   5.384   6.910 -0.2303 -0.3899 -0.0548
22692SOL    HW172438   5.764   5.421   6.828 -0.6140 -0.3902  0.0869
22692SOL    HW272439   5.869   5.440   6.936 -1.3204  0.7981  0.5773
22693SOL     OW72440   0.912  10.113   2.692  0.2533  0.2723  0.3545
22693SOL    HW172441   0.950  10.044   2.637 -1.3799 -0.3881 -0.0066
22693SOL    HW272442   0.879  10.178   2.629  0.5668  0.7194  0.6478
22694SOL     OW72443   6.333   8.836   9.685  0.5016  0.1990  0.0489
22694SOL    HW172444   6.366   8.788   9.609  0.8106 -2.6970  1.8674
22694SOL    HW272445   6.240   8.851   9.665  0.5332 -0.6820 -0.8501
22695SOL     OW72446   4.165   1.245   8.132 -0.1216 -0.2949  0.0590
22695SOL    HW172447   4.160   1.275   8.041 -2.5213  0.6287  0.4238
22695SOL    HW272448   4.242   1.289   8.167 -0.7988  1.6783 -0.7741
22696SOL     OW72449   5.259   5.926   9.200 -0.1350  0.1355  0.0188
22696SOL    HW172450   5.257   5.970   9.285 -0.3693  1.8973 -0.8571
22696SOL    HW272451   5.344   5.883   9.197  0.0186  0.3511  0.9856
22697SOL     OW72452   9.432   6.072   9.129 -0.5779  0.6475  0.6799
22697SOL    HW172453   9.441   5.978   9.141 -0.0422  0.7264  0.9153
22697SOL    HW272454   9.521   6.105   9.123 -0.7338  1.2368  1.3803
22698SOL     OW72455   2.937   8.172   2.889  0.3630  0.2629  0.1937
22698SOL    HW172456   2.887   8.252   2.870  1.1122  1.0388  1.3815
22698SOL    HW272457   3.022   8.204   2.919  0.1578 -0.9206  2.1975
22699SOL     OW72458  10.625   9.635   8.781 -0.5605  0.0465  0.2321
22699SOL    HW172459  10.677   9.593   8.712 -0.5962 -0.0496  0.2649
22699SOL    HW272460  10.673   9.716   8.801  0.0208 -0.4439  0.8499
22700SOL     OW72461   5.027   1.818   0.771 -0.1029  0.0030  0.6807
22700SOL    HW172462   4.966   1.771   0.827 -2.6964 -0.0607 -1.9267
22700SOL    HW272463   4.996   1.909   0.773  1.5660  0.5956  1.5188
22701SOL     OW72464   7.114   3.839   9.303  0.2771  0.3608 -0.2317
22701SOL    HW172465   7.152   3.751   9.297  0.8087  0.5144  0.7398
22701SOL    HW272466   7.019   3.823   9.298  0.4001 -0.1076 -1.6346
22702SOL     OW72467   4.740   4.774   3.249 -0.1571 -0.3996 -0.0794
22702SOL    HW172468   4.726   4.863   3.281  0.0913 -0.7009  0.9076
22702SOL    HW272469   4.824   4.778   3.202 -0.3229 -0.0412 -0.3466
22703SOL     OW72470   8.808   9.074   8.192  0.1382 -1.3403  0.0277
22703SOL    HW172471   8.870   9.004   8.214  0.1954 -0.8640  1.4955
22703SOL    HW272472   8.756   9.086   8.272 -0.5163 -0.3576 -0.5251
22704SOL     OW72473   5.006  10.408   3.407  0.6363 -0.2630 -0.1474
22704SOL    HW172474   4.984  10.439   3.495 -1.2810  0.0968 -0.7070
22704SOL    HW272475   5.050  10.325   3.421  0.7734  0.0066  1.1658
22705SOL     OW72476   0.518   3.332   9.383 -0.1312  0.0280 -0.0999
22705SOL    HW172477   0.506   3.237   9.382 -2.2949  0.1910  1.7563
22705SOL    HW272478   0.443   3.366   9.334 -0.4366  0.8226  0.8962
22706SOL     OW72479  10.777   8.892   9.564  0.4418  0.3918 -0.5624
22706SOL    HW172480  10.852   8.920   9.617  0.5241  1.0132 -1.0015
22706SOL    HW272481  10.799   8.803   9.536 -0.0493 -0.3561  1.2845
22707SOL     OW72482   9.434   4.833   2.204 -0.2505  0.0771 -0.0052
22707SOL    HW172483   9.430   4.926   2.179 -0.3577  0.0526 -0.0787
22707SOL    HW272484   9.527   4.816   2.218 -0.1483  0.0026 -0.7222
22708SOL     OW72485   6.807   4.694   2.940  0.0834 -0.2133  0.2108
22708SOL    HW172486   6.831   4.644   2.863 -0.7699 -0.5591  0.1545
22708SOL    HW272487   6.776   4.778   2.906  1.5861  0.4022  0.3098
22709SOL     OW72488   1.192  10.439  10.176 -0.2383  0.2267  0.6474
22709SOL    HW172489   1.104  10.415  10.203 -0.6355 -0.4245 -1.0804
22709SOL    HW272490   1.182  10.473  10.087  1.1257  1.1222  0.7958
22710SOL     OW72491   7.334   3.393   2.431 -0.3695 -0.0147  0.2089
22710SOL    HW172492   7.389   3.314   2.432 -2.1145 -1.3012  0.0565
22710SOL    HW272493   7.284   3.389   2.512 -1.3272  0.2842 -0.3415
22711SOL     OW72494   1.426   0.573   0.381  0.5802  0.4981 -0.2005
22711SOL    HW172495   1.372   0.610   0.311 -0.8655 -1.0130  0.0667
22711SOL    HW272496   1.511   0.559   0.341 -0.0226  0.3237 -1.4667
22712SOL     OW72497  10.120   8.427   3.097 -0.3550  0.1159  0.4389
22712SOL    HW172498  10.137   8.366   3.026 -0.9782  0.8749 -0.3851
22712SOL    HW272499  10.059   8.382   3.155 -0.1987 -0.3266  0.2622
22713SOL     OW72500   0.836   6.880   3.835 -0.2746 -0.6212 -0.3477
22713SOL    HW172501   0.796   6.852   3.917  2.5757 -0.0387  1.4101
22713SOL    HW272502   0.786   6.957   3.809 -1.4290 -0.9795  0.6998
22714SOL     OW72503  10.483   6.123   5.921 -0.1969 -0.5764 -0.4518
22714SOL    HW172504  10.548   6.078   5.976  2.0937  0.7565 -1.9160
22714SOL    HW272505  10.527   6.135   5.837 -2.1528  0.9703 -1.3233
22715SOL     OW72506   6.202   8.424   9.910 -0.2450 -0.4781 -0.1872
22715SOL    HW172507   6.230   8.478   9.835  0.5960 -0.7204 -0.0640
22715SOL    HW272508   6.187   8.488   9.980 -2.1974 -0.1358 -0.8708
22716SOL     OW72509   0.409   4.483   2.506 -0.7314 -0.2567 -0.1530
22716SOL    HW172510   0.455   4.406   2.538 -2.5674 -1.8704 -1.2032
22716SOL    HW272511   0.453   4.505   2.424 -1.2596 -1.2492 -0.7110
22717SOL     OW72512   9.499   1.259   7.679  0.0864 -0.5512 -0.0867
22717SOL    HW172513   9.541   1.345   7.669 -0.2972 -0.2322  0.9099
22717SOL    HW272514   9.561   1.198   7.640 -0.3884  0.3364 -2.3511
22718SOL     OW72515   9.265   1.046   4.600 -0.0532 -0.4722  0.2720
22718SOL    HW172516   9.247   1.040   4.693  1.0123 -1.2419  0.4480
22718SOL    HW272517   9.243   1.137   4.577 -0.1868 -0.2386  1.2952
22719SOL     OW72518   0.728   8.922   6.769 -0.3513 -0.6112 -0.9509
22719SOL    HW172519   0.695   8.855   6.709  0.4043  0.1110 -2.2208
22719SOL    HW272520   0.727   9.003   6.718 -1.9941  0.5680  0.7844
22720SOL     OW72521   2.945   3.693   8.640 -0.1431 -0.3490 -0.5524
22720SOL    HW172522   2.978   3.773   8.680 -1.4781 -0.5160  0.9684
22720SOL    HW272523   2.879   3.724   8.577  0.9708 -0.1697 -1.6849
22721SOL     OW72524   0.413   2.642   0.842  0.4803  0.2387 -0.0337
22721SOL    HW172525   0.416   2.738   0.836 -1.7406  0.2224 -3.1655
22721SOL    HW272526   0.349   2.625   0.911  0.5157  0.9631  0.1961
22722SOL     OW72527   5.572   9.921   7.341  0.2741 -0.0626 -0.7252
22722SOL    HW172528   5.520   9.948   7.417 -0.0748 -0.5405 -0.7923
22722SOL    HW272529   5.576   9.999   7.286 -0.5902 -0.0930 -0.8408
22723SOL     OW72530   0.842   8.039   6.275  0.1859 -0.3061 -0.0077
22723SOL    HW172531   0.772   8.021   6.212 -2.2907  1.2859  2.0603
22723SOL    HW272532   0.912   8.077   6.223 -0.9183 -0.9377 -2.0518
22724SOL     OW72533   7.751   3.953   8.518  0.8169 -0.2346 -0.0249
22724SOL    HW172534   7.702   3.871   8.516  0.4202  0.0037  0.0173
22724SOL    HW272535   7.687   4.020   8.540  1.4903 -0.1523  1.7911
22725SOL     OW72536   9.602   0.780   2.457 -0.6461 -0.2078 -0.0138
22725SOL    HW172537   9.507   0.789   2.465 -0.8006  4.5825 -3.2971
22725SOL    HW272538   9.613   0.705   2.398 -2.4470 -0.4575 -0.0979
22726SOL     OW72539   3.882   4.925   4.800 -0.2553 -0.4476 -0.4916
22726SOL    HW172540   3.954   4.943   4.861 -2.7732 -1.9905  3.2733
22726SOL    HW272541   3.822   4.999   4.811 -0.8682 -0.8807 -0.8637
22727SOL     OW72542   0.417   2.258   4.449  0.4125 -0.0798  0.1406
22727SOL    HW172543   0.356   2.248   4.522  0.6400  1.3043  0.5587
22727SOL    HW272544   0.379   2.327   4.395 -0.5868 -2.1692 -1.9857
22728SOL     OW72545   9.240   8.612   0.987 -0.0921  0.5438  0.3361
22728SOL    HW172546   9.218   8.580   0.899  0.7524  1.9886 -0.4426
22728SOL    HW272547   9.160   8.653   1.018 -0.2215  0.5751 -0.0265
22729SOL     OW72548   5.937  10.998  10.463  0.1422  0.1196 -0.3611
22729SOL    HW172549   5.940  11.042  10.378 -0.8438  2.3111  0.6737
22729SOL    HW272550   5.997  11.047  10.518 -1.2475  0.4225  0.9377
22730SOL     OW72551   7.126   4.769   6.064  0.0370  0.3312  0.1330
22730SOL    HW172552   7.107   4.806   5.978  0.7056 -0.6054 -0.4410
22730SOL    HW272553   7.052   4.795   6.118  0.2116  2.0036 -0.3836
22731SOL     OW72554   7.922   1.303   4.737 -0.5203  0.0988 -0.0798
22731SOL    HW172555   7.913   1.295   4.832  1.5760  0.7073  0.2206
22731SOL    HW272556   7.871   1.382   4.715 -1.7810 -0.5611  0.3690
22732SOL     OW72557   4.213   1.964   7.192  0.3776  0.1636  0.2212
22732SOL    HW172558   4.124   1.976   7.162  0.5447 -1.2135 -0.9062
22732SOL    HW272559   4.205   1.913   7.273  0.1418  0.2820  0.2723
22733SOL     OW72560   3.908   7.286   7.031 -0.0792 -1.1778 -0.4249
22733SOL    HW172561   3.956   7.327   7.103 -1.2408 -4.6396  2.6391
22733SOL    HW272562   3.962   7.211   7.006  0.4653  0.1188 -3.6092
22734SOL     OW72563   0.812   6.862   6.264 -0.0766  0.2004  0.3360
22734SOL    HW172564   0.757   6.792   6.300  1.0707 -1.2566 -0.6566
22734SOL    HW272565   0.830   6.835   6.175  1.4320  1.1670  0.3178
22735SOL     OW72566   3.761   8.585   1.073  0.8020 -0.1380 -0.3201
22735SOL    HW172567   3.689   8.639   1.040  0.9700  0.1108 -0.2814
22735SOL    HW272568   3.779   8.619   1.161 -0.6667 -1.7878  0.6798
22736SOL     OW72569   4.093   2.880   3.872 -0.0920  0.0562 -0.2110
22736SOL    HW172570   4.091   2.785   3.862 -1.0119  0.0422  0.0119
22736SOL    HW272571   4.053   2.896   3.957  1.0124  0.5903  0.2215
22737SOL     OW72572   6.982   9.036   0.228 -0.1093 -0.1821  0.1403
22737SOL    HW172573   7.054   9.087   0.191  0.6493  0.5900  2.5111
22737SOL    HW272574   6.985   8.952   0.180  1.2586  0.4577 -0.9706
22738SOL     OW72575   5.991   7.234   2.143  0.1540  0.0195  0.7274
22738SOL    HW172576   5.996   7.285   2.063 -0.0395 -1.1985 -0.0932
22738SOL    HW272577   5.961   7.296   2.210  0.0521  0.9841 -0.1944
22739SOL     OW72578   7.476   8.732   3.948  0.2774 -0.3450 -0.2548
22739SOL    HW172579   7.433   8.813   3.977  0.4541 -0.2580 -0.2305
22739SOL    HW272580   7.511   8.693   4.028  0.1790 -0.4549 -0.2645
22740SOL     OW72581   7.610   7.395   6.293 -0.6193  0.1133 -0.1423
22740SOL    HW172582   7.669   7.446   6.237  1.1298 -1.5902  0.0176
22740SOL    HW272583   7.608   7.309   6.252 -0.5132 -0.7381  1.5595
22741SOL     OW72584   5.388   7.595   8.277 -0.1660 -0.0490 -0.0448
22741SOL    HW172585   5.300   7.601   8.240 -0.0506 -1.0013 -0.5085
22741SOL    HW272586   5.407   7.683   8.309 -0.7963  0.4738 -1.0628
22742SOL     OW72587   8.618   9.165  10.709 -0.2248 -0.0137  0.2447
22742SOL    HW172588   8.533   9.150  10.668 -0.4740  0.5642  0.5500
22742SOL    HW272589   8.681   9.126  10.648 -0.7271 -0.7232  0.1754
22743SOL     OW72590   6.342   9.843   7.397 -0.1630 -0.4742  0.5664
22743SOL    HW172591   6.364   9.929   7.361 -0.4759 -0.2902  0.8157
22743SOL    HW272592   6.283   9.804   7.333 -0.2946 -0.3644  0.6212
22744SOL     OW72593   2.663   6.700   7.712  0.5180 -0.2549 -0.3056
22744SOL    HW172594   2.677   6.757   7.636 -0.1161 -0.9900 -1.0020
22744SOL    HW272595   2.723   6.627   7.698  0.5254 -0.3054 -0.0035
22745SOL     OW72596   1.488   7.820   8.722  0.4050  0.1567 -0.1872
22745SOL    HW172597   1.483   7.865   8.806 -0.9485 -0.3375  0.0242
22745SOL    HW272598   1.465   7.886   8.657 -1.5875 -0.1804  0.1213
22746SOL     OW72599   9.219   4.011   8.680 -0.1801  0.5728  0.0095
22746SOL    HW172600   9.297   4.064   8.698  0.1092  0.3774 -0.6390
22746SOL    HW272601   9.158   4.072   8.638 -0.1552  0.5852 -0.0086
22747SOL     OW72602   4.620   9.320   6.952  0.0038 -0.3249  0.4473
22747SOL    HW172603   4.689   9.262   6.918 -0.4142 -0.4550 -0.1841
22747SOL    HW272604   4.658   9.408   6.946 -0.0404 -0.3481 -0.3227
22748SOL     OW72605   8.020   6.593   1.916 -0.3067  0.4709  0.3688
22748SOL    HW172606   7.969   6.515   1.892  0.4788 -0.2297  0.9305
22748SOL    HW272607   8.099   6.588   1.862 -1.0729  1.8756 -0.9413
22749SOL     OW72608   4.344   6.472   8.228  0.2000  0.1995  0.4426
22749SOL    HW172609   4.270   6.466   8.167  1.4138  0.3649 -1.1102
22749SOL    HW272610   4.408   6.526   8.182  2.0173 -1.3924  0.9799
22750SOL     OW72611   4.482   4.102   4.589  0.0508  0.4389 -0.1053
22750SOL    HW172612   4.401   4.134   4.629 -1.0461 -2.4267  0.1681
22750SOL    HW272613   4.477   4.130   4.498 -1.5621 -0.1849 -0.2372
22751SOL     OW72614   2.889   3.089   3.700  0.3305 -0.0114 -0.9542
22751SOL    HW172615   2.961   3.068   3.760 -0.2934  0.1484 -0.1337
22751SOL    HW272616   2.842   3.161   3.743  0.1559  0.4335 -1.8702
22752SOL     OW72617   3.405  10.131   6.080  0.1227 -0.1763  0.7294
22752SOL    HW172618   3.430  10.212   6.036  0.4297  0.8583  2.6916
22752SOL    HW272619   3.480  10.073   6.067 -0.1210 -0.2071 -0.7416
22753SOL     OW72620   6.208   4.259   6.373 -0.5526 -0.5171  0.4177
22753SOL    HW172621   6.204   4.216   6.459 -0.9925  0.2175  0.7745
22753SOL    HW272622   6.268   4.205   6.322 -1.4697 -1.8454  0.6830
22754SOL     OW72623   8.882   9.900   2.687  0.2216 -0.8430 -0.1621
22754SOL    HW172624   8.963   9.951   2.692  0.2195 -0.7323 -1.1624
22754SOL    HW272625   8.874   9.859   2.774  0.6321  0.2242  0.3952
22755SOL     OW72626   8.587   3.550   7.176 -0.1147  0.1423 -0.0325
22755SOL    HW172627   8.591   3.629   7.121 -0.9689 -0.1976 -0.6222
22755SOL    HW272628   8.564   3.480   7.115  0.7893 -0.6049  0.4576
22756SOL     OW72629   8.168   5.694   7.924 -0.3665  0.2705 -0.2133
22756SOL    HW172630   8.113   5.672   7.999  0.4362 -0.3478  0.2188
22756SOL    HW272631   8.198   5.609   7.891  0.7528  0.5975 -0.0953
22757SOL     OW72632   1.230   0.969  10.562 -0.4059  0.5321 -0.0748
22757SOL    HW172633   1.148   0.922  10.579 -0.3129 -0.3589 -1.8361
22757SOL    HW272634   1.278   0.913  10.501  2.0398  0.4995  1.7039
22758SOL     OW72635   3.701   6.439   7.391 -0.1705  0.1857 -0.1400
22758SOL    HW172636   3.687   6.348   7.418 -2.1776  0.2836 -0.6707
22758SOL    HW272637   3.705   6.435   7.296 -0.4325  0.6707 -0.1703
22759SOL     OW72638   9.926   5.305   1.405  0.7367  0.4328  0.1888
22759SOL    HW172639   9.830   5.304   1.400  0.7279  0.8403  0.2355
22759SOL    HW272640   9.946   5.252   1.482  0.4512  2.0820  1.4510
22760SOL     OW72641   2.850   0.994   6.950 -0.0389  0.4346 -0.8422
22760SOL    HW172642   2.775   1.002   6.891  0.0428 -1.0102 -1.1773
22760SOL    HW272643   2.812   0.987   7.037 -0.1834  1.9796 -0.7554
22761SOL     OW72644   4.129   8.120   0.709 -0.1278  0.0212 -0.1537
22761SOL    HW172645   4.189   8.085   0.643 -0.0445  0.9268 -0.5631
22761SOL    HW272646   4.055   8.154   0.659  0.1358  1.1091  0.1655
22762SOL     OW72647   8.332   0.119   8.144 -0.0908  0.3642  0.2267
22762SOL    HW172648   8.394   0.188   8.123 -0.4699  0.5460 -0.3187
22762SOL    HW272649   8.367   0.041   8.101  0.7459  0.0219  1.4753
22763SOL     OW72650   8.495   4.690  10.233 -0.3829  0.3385 -0.4599
22763SOL    HW172651   8.459   4.776  10.256  0.8254  0.4893  1.0387
22763SOL    HW272652   8.588   4.697  10.254 -0.6683 -2.1096  2.1168
22764SOL     OW72653   4.541   1.948   5.902  0.4548 -0.1534 -0.2751
22764SOL    HW172654   4.611   1.905   5.952  0.4244  2.2389  2.0111
22764SOL    HW272655   4.587   1.997   5.835  0.8139 -0.2038 -0.0697
22765SOL     OW72656   9.809   1.888   1.670  0.5939 -0.3202  0.7949
22765SOL    HW172657   9.772   1.846   1.592 -0.4674  0.5769  0.7900
22765SOL    HW272658   9.733   1.922   1.718  1.3295  0.4779  1.4408
22766SOL     OW72659   0.779   3.779   4.494 -0.9044  0.3492 -0.2887
22766SOL    HW172660   0.850   3.722   4.465  0.2531  1.8404 -0.5111
22766SOL    HW272661   0.754   3.828   4.415 -1.6124  0.4398 -0.0196
22767SOL     OW72662   8.202   1.126   0.265  0.3016 -0.4113 -0.2197
22767SOL    HW172663   8.161   1.211   0.283  1.8701  0.2967  0.1925
22767SOL    HW272664   8.287   1.148   0.227  0.7472 -1.8059 -0.0848
22768SOL     OW72665   1.997   4.834   9.826 -0.4238 -0.0019 -0.3290
22768SOL    HW172666   1.915   4.871   9.792  0.4099  0.1367 -2.3231
22768SOL    HW272667   2.040   4.798   9.749  2.0304  1.1017  0.4486
22769SOL     OW72668  10.500   4.376   9.534  0.5653  0.0074 -0.4414
22769SOL    HW172669  10.503   4.313   9.461 -1.3430 -0.5773 -0.0674
22769SOL    HW272670  10.556   4.448   9.506  1.2398 -0.9852 -1.7353
22770SOL     OW72671   0.403   3.930   0.803  0.0683 -0.4493 -0.5570
22770SOL    HW172672   0.498   3.925   0.788  0.0316  0.2272 -1.0837
22770SOL    HW272673   0.381   3.846   0.841  1.0736 -0.1900  0.6728
22771SOL     OW72674   1.531   0.139   8.857  0.3175  0.1288 -0.0267
22771SOL    HW172675   1.609   0.175   8.899 -0.6286  1.6609  0.4965
22771SOL    HW272676   1.565   0.085   8.786  1.8585  1.3606 -0.2830
22772SOL     OW72677   5.093   5.800   5.788  0.3254 -0.5538 -0.2307
22772SOL    HW172678   5.064   5.882   5.746  0.9196 -1.2771 -2.1702
22772SOL    HW272679   5.017   5.771   5.839  0.1234  1.2183  0.5633
22773SOL     OW72680   7.481   2.308   7.407  0.8030  0.7485 -0.4442
22773SOL    HW172681   7.476   2.215   7.430  1.5998  0.4320 -1.5044
22773SOL    HW272682   7.435   2.315   7.323 -0.2051  1.5216  0.1366
22774SOL     OW72683   8.173   7.486   3.444 -0.1672 -0.5324  0.1795
22774SOL    HW172684   8.182   7.581   3.452  0.1786 -0.6741  1.9509
22774SOL    HW272685   8.186   7.468   3.351  1.7513  0.9604  0.1005
22775SOL     OW72686   4.433   0.328   8.477 -0.2161  0.3163  0.0983
22775SOL    HW172687   4.384   0.321   8.395 -0.8879  1.0482  0.4184
22775SOL    HW272688   4.467   0.417   8.476 -1.6767  0.9320  1.3804
22776SOL     OW72689  10.073   6.390   3.726  0.1071 -0.1872  0.1722
22776SOL    HW172690  10.097   6.438   3.806  1.7021  1.3807 -1.1479
22776SOL    HW272691  10.000   6.439   3.689  0.2227 -0.1234  0.0236
22777SOL     OW72692   9.503   9.685   4.070 -0.1730 -0.1229  0.2410
22777SOL    HW172693   9.468   9.630   4.140 -1.0156  2.6297  2.1280
22777SOL    HW272694   9.433   9.748   4.051  1.1293  1.0290 -1.0281
22778SOL     OW72695   0.532   8.815   5.543  0.2659 -0.3105  0.0695
22778SOL    HW172696   0.523   8.739   5.600  1.6052 -0.2686  0.3826
22778SOL    HW272697   0.505   8.889   5.598  0.4801 -0.3916  0.2864
22779SOL     OW72698  11.053   0.418   9.953  0.0755 -0.4199  0.3080
22779SOL    HW172699  11.008   0.404  10.036  0.9529 -4.1609  0.3194
22779SOL    HW272700  11.120   0.484   9.973  1.6942 -2.7001  3.2792
22780SOL     OW72701   8.780  10.107   1.467  0.1278 -0.0653 -0.0045
22780SOL    HW172702   8.847  10.154   1.417  1.3945 -0.2041  1.4781
22780SOL    HW272703   8.817  10.020   1.480  0.2511  0.2372  1.9053
22781SOL     OW72704   6.690   5.210   5.645 -0.3709 -0.3074 -0.4526
22781SOL    HW172705   6.673   5.245   5.558 -1.9232 -1.1561 -0.5358
22781SOL    HW272706   6.692   5.287   5.702 -1.3647  0.1140 -0.9644
22782SOL     OW72707   5.719   2.401   7.745 -0.0300 -0.1221 -0.0691
22782SOL    HW172708   5.804   2.364   7.720 -0.3699 -0.4848 -0.7080
22782SOL    HW272709   5.717   2.393   7.841  0.4138 -0.6346 -0.0976
22783SOL     OW72710  10.993   7.851   0.762 -0.2728 -0.5539 -0.2997
22783SOL    HW172711  10.999   7.939   0.725 -0.1099 -0.3562  0.1899
22783SOL    HW272712  11.079   7.813   0.747 -0.1483 -0.4093  0.0192
22784SOL     OW72713   9.365   1.520   6.044  0.1001  0.5876  0.2445
22784SOL    HW172714   9.385   1.517   6.137  2.0960 -0.7253 -0.1621
22784SOL    HW272715   9.353   1.429   6.019  1.5124  0.7384 -1.1233
22785SOL     OW72716   1.920   7.117   0.588  0.3148 -0.4189 -0.2788
22785SOL    HW172717   1.890   7.208   0.585 -0.7677 -0.6890  1.2181
22785SOL    HW272718   1.840   7.066   0.578  1.1520 -1.3198 -3.7340
22786SOL     OW72719   3.449   3.030  10.194  0.1581 -0.2675  0.1227
22786SOL    HW172720   3.493   3.026  10.279  0.1339 -0.3398  0.1317
22786SOL    HW272721   3.498   3.097  10.145  0.3086 -0.3832  0.1154
22787SOL     OW72722   4.982   1.332   3.880  0.4837 -0.8690 -0.5828
22787SOL    HW172723   4.970   1.244   3.916  0.0830 -1.0923 -1.2496
22787SOL    HW272724   5.076   1.339   3.864  0.8102 -0.4458  1.2940
22788SOL     OW72725   1.103   7.664  10.047  0.2420  0.2563  0.0841
22788SOL    HW172726   1.154   7.677  10.126 -0.3161  0.3288  0.4386
22788SOL    HW272727   1.028   7.724  10.056 -2.1827 -2.7413  1.5572
22789SOL     OW72728   2.862   6.248   2.183  0.3166  0.1250 -0.2295
22789SOL    HW172729   2.773   6.284   2.178  0.3198  0.8102  2.6845
22789SOL    HW272730   2.851   6.161   2.223  0.9907  0.7208  1.3377
22790SOL     OW72731   3.504   4.786   2.713 -0.4397 -0.1983 -0.2923
22790SOL    HW172732   3.537   4.700   2.687  0.7800  0.6741 -1.7673
22790SOL    HW272733   3.528   4.845   2.641 -0.8023  1.4908  0.8894
22791SOL     OW72734   5.670   7.635   1.291  0.6774 -0.1790 -0.1192
22791SOL    HW172735   5.644   7.592   1.373 -1.3754 -1.0429 -1.1529
22791SOL    HW272736   5.618   7.716   1.289  0.1124 -0.5475 -0.9090
22792SOL     OW72737   5.471   8.941  11.089 -0.3059  0.1390 -0.1532
22792SOL    HW172738   5.407   8.874  11.064 -0.2605 -1.0566  2.5464
22792SOL    HW272739   5.553   8.912  11.049 -0.6619 -0.4369 -0.4835
22793SOL     OW72740   5.396   7.255  10.387 -0.1060  0.5473 -0.3809
22793SOL    HW172741   5.473   7.279  10.438 -0.7191 -1.3512  1.6023
22793SOL    HW272742   5.373   7.334  10.339  1.3583  2.0154  1.2035
22794SOL     OW72743   2.762   7.988   3.530  0.1287  0.3563  0.4784
22794SOL    HW172744   2.827   8.052   3.561  1.0615  0.0026 -0.6841
22794SOL    HW272745   2.804   7.946   3.455 -1.0887 -0.5475  0.2831
22795SOL     OW72746   3.703   2.587   9.533 -0.2642  0.2705  0.5119
22795SOL    HW172747   3.726   2.541   9.452  0.8828 -1.4967  1.7445
22795SOL    HW272748   3.738   2.531   9.602  0.3943  2.6005  2.1887
22796SOL     OW72749   2.651   7.469   5.157 -0.3473 -0.1929 -0.3608
22796SOL    HW172750   2.691   7.391   5.121  2.0732  0.5791  0.4544
22796SOL    HW272751   2.650   7.454   5.252 -1.5853  0.0196 -0.3280
22797SOL     OW72752   4.856  10.260   9.576  0.2011 -0.5240  0.1396
22797SOL    HW172753   4.776  10.238   9.623  0.0367  1.3315  0.8004
22797SOL    HW272754   4.831  10.330   9.516  0.8116 -1.6211 -1.4483
22798SOL     OW72755   3.196   9.938   7.567  0.1788  0.1981 -0.1978
22798SOL    HW172756   3.136   9.995   7.518  0.1110 -0.5136 -0.9613
22798SOL    HW272757   3.164   9.942   7.657  0.2346  1.4354 -0.2216
22799SOL     OW72758   8.492   7.680   6.937 -0.1304 -0.4880 -0.2684
22799SOL    HW172759   8.587   7.674   6.925 -0.0457  0.2102  0.0249
22799SOL    HW272760   8.480   7.747   7.004 -0.8867  0.1980 -1.0681
22800SOL     OW72761   5.176   5.284   0.789 -0.1352 -0.1421  0.1639
22800SOL    HW172762   5.111   5.294   0.858 -0.3518  0.9605 -0.1784
22800SOL    HW272763   5.203   5.373   0.768  1.0135 -0.5506 -0.1535
22801SOL     OW72764   9.269   0.541   5.179  0.2060 -0.2666 -0.4700
22801SOL    HW172765   9.310   0.466   5.222  0.9307 -0.3919 -1.3437
22801SOL    HW272766   9.343   0.596   5.151 -0.3132  1.3439  1.0968
22802SOL     OW72767   2.899  10.202  10.020 -0.3635 -0.0317 -0.2004
22802SOL    HW172768   2.849  10.147  10.080 -1.3000  0.2387 -0.7118
22802SOL    HW272769   2.988  10.168  10.025 -0.0900  0.7941  2.3551
22803SOL     OW72770   9.803   7.248   3.394 -0.2629  0.4014 -0.2158
22803SOL    HW172771   9.897   7.232   3.385 -0.5017 -0.4740 -1.2637
22803SOL    HW272772   9.776   7.191   3.466 -0.2650 -0.4686 -0.9068
22804SOL     OW72773   5.287   7.176   6.204  0.3222 -0.1565  0.3344
22804SOL    HW172774   5.288   7.269   6.225  0.4217  0.0312 -0.4701
22804SOL    HW272775   5.378   7.149   6.210  0.1994 -0.3867  1.3219
22805SOL     OW72776   2.495   4.506   0.126  0.0694  0.3546  0.0884
22805SOL    HW172777   2.522   4.561   0.200  0.5065  1.1481 -0.6354
22805SOL    HW272778   2.464   4.569   0.060  2.6223 -0.0545 -1.6210
22806SOL     OW72779   4.707   5.523   2.311  0.8820 -0.3139 -0.4212
22806SOL    HW172780   4.735   5.468   2.238  0.7233 -1.1013  0.1003
22806SOL    HW272781   4.620   5.555   2.284  0.7153 -0.8023 -0.4687
22807SOL     OW72782   7.512   6.235  10.005 -0.4674  0.0164  0.5821
22807SOL    HW172783   7.566   6.189   9.940 -0.4537 -0.7328  1.1072
22807SOL    HW272784   7.504   6.324   9.971  0.1721 -0.1620 -0.0649
22808SOL     OW72785   2.563   6.249   7.788 -0.0510  0.2261 -0.1514
22808SOL    HW172786   2.494   6.276   7.848  1.5567 -0.1974  2.0156
22808SOL    HW272787   2.636   6.309   7.807  0.5020  0.0905 -1.7225
22809SOL     OW72788   1.685   7.074  11.069 -0.1390  0.0571 -0.2567
22809SOL    HW172789   1.604   7.124  11.069  0.2565  0.7601 -2.1070
22809SOL    HW272790   1.680   7.020  10.990  0.0216 -1.9250  1.0138
22810SOL     OW72791   9.646   5.821   1.104  0.5079  0.0961  0.1876
22810SOL    HW172792   9.705   5.862   1.041 -0.2421  1.3333  0.2749
22810SOL    HW272793   9.614   5.893   1.158 -1.2827 -0.4964 -0.0182
22811SOL     OW72794   8.860   9.758   5.199 -0.0962  0.1509 -0.2288
22811SOL    HW172795   8.796   9.715   5.142 -0.7532  0.8183 -0.0032
22811SOL    HW272796   8.817   9.838   5.228  0.7245  0.4556  0.1844
22812SOL     OW72797   7.418   6.051   4.399  0.4129  0.3992 -0.4303
22812SOL    HW172798   7.421   5.990   4.325 -2.3602 -1.0725  0.5523
22812SOL    HW272799   7.330   6.088   4.396  0.7053  1.3256  1.3379
22813SOL     OW72800   7.350   4.676   2.673  0.7793 -0.5278 -0.2807
22813SOL    HW172801   7.278   4.726   2.712  0.6736 -1.2918  0.5337
22813SOL    HW272802   7.313   4.639   2.593  0.4594 -0.3865 -0.1999
22814SOL     OW72803   4.012   8.453   1.695  0.6352  0.0871 -0.2896
22814SOL    HW172804   3.959   8.453   1.615  0.3849  0.5943 -0.1296
22814SOL    HW272805   4.072   8.527   1.683  1.4728 -0.6277 -0.5716
22815SOL     OW72806   5.510   2.145   3.596 -0.0103  0.0537 -0.0091
22815SOL    HW172807   5.605   2.137   3.609 -0.0879  0.8146  1.0878
22815SOL    HW272808   5.472   2.112   3.676 -0.7635 -1.8588 -1.0976
22816SOL     OW72809  10.579   8.837   3.840 -0.1826 -0.5531  0.6866
22816SOL    HW172810  10.640   8.771   3.873 -1.0098 -0.8976  1.5765
22816SOL    HW272811  10.509   8.787   3.799  1.3511 -0.1521 -2.8196
22817SOL     OW72812   6.748   0.869   9.169 -0.1092 -1.0647 -0.0548
22817SOL    HW172813   6.810   0.848   9.098  0.4469 -2.5258  0.8174
22817SOL    HW272814   6.674   0.910   9.124  1.1230 -0.0309 -1.2257
22818SOL     OW72815   0.241  10.890   2.884 -0.0286  0.2015 -0.0402
22818SOL    HW172816   0.177  10.844   2.830 -1.2183  0.7176  0.8874
22818SOL    HW272817   0.194  10.965   2.919  1.1376  0.6892  0.5417
22819SOL     OW72818   5.117   6.197   4.227  0.2933 -0.2849  0.0802
22819SOL    HW172819   5.173   6.182   4.304 -1.6896  3.0096  2.4704
22819SOL    HW272820   5.065   6.117   4.219  0.6374 -0.7860  2.1527
22820SOL     OW72821   4.901   7.067   6.518 -0.1155 -0.0655  0.4960
22820SOL    HW172822   4.848   7.067   6.597 -2.2464 -0.4743 -0.8493
22820SOL    HW272823   4.921   7.159   6.503 -1.5238  0.2519  0.3963
22821SOL     OW72824   6.442   7.242   7.073 -0.5950 -0.1268 -0.0807
22821SOL    HW172825   6.482   7.325   7.048 -0.4265 -0.3710 -0.6488
22821SOL    HW272826   6.376   7.265   7.139  1.4176  0.1337  1.9686
22822SOL     OW72827   5.877   0.239   3.770  0.1263 -0.0796  0.3237
22822SOL    HW172828   5.920   0.274   3.848 -0.3091  0.6280  0.2533
22822SOL    HW272829   5.905   0.297   3.699  0.7076 -0.8549 -0.0956
22823SOL     OW72830   9.861   4.560   5.680 -0.1486  0.4666  0.1602
22823SOL    HW172831   9.800   4.559   5.606 -1.0506  3.1213  0.7562
22823SOL    HW272832   9.807   4.542   5.756  0.7254 -1.9409  0.2959
22824SOL     OW72833   3.784   6.733   8.687  0.4924  0.5554  0.0170
22824SOL    HW172834   3.813   6.668   8.623 -0.2168 -0.3208  0.5498
22824SOL    HW272835   3.713   6.689   8.735 -0.4865  1.9742 -0.0750
22825SOL     OW72836   6.586   1.092   2.203  0.1117 -0.0157  0.1252
22825SOL    HW172837   6.634   1.113   2.123  0.4466 -1.9276 -0.2197
22825SOL    HW272838   6.629   1.013   2.237 -0.1134  0.6660  2.1215
22826SOL     OW72839   6.371   6.011   8.205  0.2008 -0.3542  0.1963
22826SOL    HW172840   6.382   5.965   8.122 -2.1306  0.1988 -0.4703
22826SOL    HW272841   6.411   6.097   8.190 -2.1475  0.5877 -1.2081
22827SOL     OW72842  11.063   0.237   3.339 -0.3571 -0.5287  0.2020
22827SOL    HW172843  10.982   0.186   3.345 -0.8022  0.0387 -0.6439
22827SOL    HW272844  11.079   0.268   3.428 -1.7482  0.3368  0.1843
22828SOL     OW72845   1.916   8.727   8.759 -0.0329 -0.0612  0.0386
22828SOL    HW172846   1.959   8.790   8.817 -1.2192 -0.6968  1.6773
22828SOL    HW272847   1.890   8.778   8.683  1.3690  0.8427  0.1239
22829SOL     OW72848   7.815   0.028   9.205  0.2343 -0.3335 -0.2540
22829SOL    HW172849   7.725   0.042   9.174  0.3012  1.4678  0.2503
22829SOL    HW272850   7.862  -0.006   9.129 -0.5561  0.0651 -0.9297
22830SOL     OW72851  10.354   0.583   4.720 -0.6844  0.1698 -0.4983
22830SOL    HW172852  10.410   0.652   4.687 -0.7980  1.2399  1.4110
22830SOL    HW272853  10.293   0.564   4.649  2.2991 -1.3873 -2.8476
22831SOL     OW72854   9.109   9.000   1.757 -0.3655 -0.2425 -0.1205
22831SOL    HW172855   9.202   9.012   1.738 -0.8564  0.3763 -2.3940
22831SOL    HW272856   9.075   9.089   1.766 -0.5223 -0.4793  2.1505
22832SOL     OW72857   0.692   3.411   2.852 -0.2426 -0.2576  0.1048
22832SOL    HW172858   0.719   3.356   2.778  0.4749  0.0439  0.1365
22832SOL    HW272859   0.648   3.485   2.812 -1.0313 -0.7491  0.0507
22833SOL     OW72860   9.012   7.060  10.968 -0.3051  0.1295  0.3353
22833SOL    HW172861   9.048   6.999  10.904 -4.5421 -1.8157 -0.5225
22833SOL    HW272862   9.041   7.146  10.937  1.8481 -1.0554 -1.2460
22834SOL     OW72863   1.121   8.045   6.488  0.3893 -0.6399  0.1414
22834SOL    HW172864   1.033   8.045   6.451  0.5327  1.1890 -0.2853
22834SOL    HW272865   1.119   8.113   6.556  1.5008 -0.4681  0.0211
22835SOL     OW72866  10.146   4.514   9.322  0.2097  0.3585  0.8614
22835SOL    HW172867  10.229   4.475   9.350  1.6640  2.9243  0.4390
22835SOL    HW272868  10.148   4.510   9.227 -0.2806  0.2260  0.8532
22836SOL     OW72869  10.676  10.232   4.095 -0.1613  0.1567  0.3450
22836SOL    HW172870  10.687  10.137   4.108 -0.7687 -0.0195 -0.3612
22836SOL    HW272871  10.699  10.247   4.004  1.8515  1.0232  0.9396
22837SOL     OW72872   6.520   2.781   5.943 -0.0810 -0.0437  0.4027
22837SOL    HW172873   6.446   2.757   6.000  0.4339 -1.0818  0.6780
22837SOL    HW272874   6.573   2.839   5.997 -0.5061  0.4234  0.3297
22838SOL     OW72875   1.641  10.556  10.858 -0.1534 -0.2699  0.0094
22838SOL    HW172876   1.714  10.494  10.853  0.1551  0.1311 -0.7043
22838SOL    HW272877   1.563  10.503  10.847 -0.0687 -0.8666  1.8674
22839SOL     OW72878   7.439   2.817   8.201 -0.5062  0.2064  0.0623
22839SOL    HW172879   7.370   2.752   8.190 -2.5287  2.2362  0.0899
22839SOL    HW272880   7.394   2.895   8.234  1.3454  2.4101 -2.2113
22840SOL     OW72881   2.317   0.396   7.117  0.0841 -0.3736 -0.4518
22840SOL    HW172882   2.267   0.348   7.050 -0.9090  0.5722 -0.4247
22840SOL    HW272883   2.364   0.463   7.068 -0.8760  0.5122 -0.2071
22841SOL     OW72884   1.613   3.585   7.492 -0.7396 -0.3033 -0.1582
22841SOL    HW172885   1.708   3.576   7.489 -0.8142 -2.8564  1.5849
22841SOL    HW272886   1.588   3.550   7.578 -3.1468  1.8344  0.1347
22842SOL     OW72887   5.124   4.941   3.246  0.4668 -0.0853  0.7543
22842SOL    HW172888   5.167   4.894   3.318  0.2343 -0.3477  0.7222
22842SOL    HW272889   5.165   4.906   3.167  0.5817  0.0615  0.7471
22843SOL     OW72890   8.280   6.213  10.304 -0.0957 -0.2291  0.5962
22843SOL    HW172891   8.299   6.140  10.362  3.5870  1.2252  1.5098
22843SOL    HW272892   8.284   6.290  10.360 -2.8088  0.8696 -0.5229
22844SOL     OW72893   6.116   7.373   6.949  0.1412  0.2321 -0.0270
22844SOL    HW172894   6.081   7.325   7.024  1.7601  0.2766  0.7942
22844SOL    HW272895   6.091   7.321   6.873 -2.3627  0.6587  0.4024
22845SOL     OW72896   6.821   5.415  10.389  0.1252  0.3159  0.0930
22845SOL    HW172897   6.892   5.402  10.453  0.4176  0.2197 -0.2470
22845SOL    HW272898   6.839   5.502  10.352  0.7481 -0.1979 -0.8373
22846SOL     OW72899   5.943   3.937   5.705 -0.0005 -0.9461 -0.7438
22846SOL    HW172900   5.871   3.986   5.746  0.7648  0.5553 -1.1137
22846SOL    HW272901   6.022   3.975   5.744  0.6251 -2.3385 -0.6003
22847SOL     OW72902   7.653   4.483   3.391  0.2615  0.2152 -0.2017
22847SOL    HW172903   7.654   4.453   3.301  0.3897  0.9055 -0.4381
22847SOL    HW272904   7.691   4.571   3.388 -0.0839  0.4002  0.4639
22848SOL     OW72905   0.022   3.935   3.109  0.4487 -0.3682 -0.1720
22848SOL    HW172906   0.054   3.921   3.020 -1.9690 -0.6425 -1.0762
22848SOL    HW272907  -0.057   3.881   3.115 -0.1457  0.6146  1.7128
22849SOL     OW72908   1.651   0.966   4.665  0.1065 -0.5362 -0.6713
22849SOL    HW172909   1.612   1.010   4.589 -0.6248  0.2387  0.1266
22849SOL    HW272910   1.681   0.882   4.631  0.3255  0.0359 -1.9424
22850SOL     OW72911   9.758   6.227   9.108 -0.1871 -0.6393 -0.5335
22850SOL    HW172912   9.840   6.263   9.142 -0.0536 -0.0073 -1.4879
22850SOL    HW272913   9.771   6.132   9.110  1.4451 -0.5215 -2.6821
22851SOL     OW72914   1.283   2.620   1.415 -0.1660  0.1846 -0.0151
22851SOL    HW172915   1.357   2.629   1.355  0.4966 -0.8598  0.6129
22851SOL    HW272916   1.270   2.707   1.452  0.8825  0.3273  0.0215
22852SOL     OW72917   9.759   7.375   6.918 -0.2947  0.0391  0.7530
22852SOL    HW172918   9.826   7.321   6.876  0.1132 -1.2861  2.9050
22852SOL    HW272919   9.713   7.417   6.846  1.9248 -0.1079 -0.8768
22853SOL     OW72920   0.654   5.335   8.234 -0.0486  0.5198 -0.1373
22853SOL    HW172921   0.686   5.271   8.298 -0.9188 -0.0368 -0.2441
22853SOL    HW272922   0.614   5.283   8.165 -1.7611  1.1657  0.3003
22854SOL     OW72923   5.359   3.527   8.866 -0.0468 -0.7851 -0.0936
22854SOL    HW172924   5.405   3.499   8.946  0.8960 -2.4489 -1.1540
22854SOL    HW272925   5.308   3.603   8.893 -0.1854 -1.6162  2.2220
22855SOL     OW72926   7.951   7.329   0.917  0.4344 -0.3504  0.5403
22855SOL    HW172927   7.927   7.422   0.917  1.2491 -0.1036  2.0536
22855SOL    HW272928   7.923   7.297   0.831 -1.9293  0.7271  0.8321
22856SOL     OW72929   4.481   5.918   6.416 -0.2367  0.8036 -0.2978
22856SOL    HW172930   4.482   5.855   6.344  1.2631  0.2726  0.1435
22856SOL    HW272931   4.456   6.000   6.375  2.3807  0.9377 -1.8549
22857SOL     OW72932   5.204   7.026   6.001  0.0848  0.4149 -0.2865
22857SOL    HW172933   5.116   6.994   6.021  0.2399  0.4290  0.4496
22857SOL    HW272934   5.227   7.082   6.075  1.2953 -0.7815  0.3039
22858SOL     OW72935   4.903   1.577   5.150 -0.3089 -0.3757 -0.0016
22858SOL    HW172936   4.937   1.493   5.118 -0.4750 -0.7008  0.6549
22858SOL    HW272937   4.924   1.577   5.243 -1.5393 -0.3105  0.2992
22859SOL     OW72938  10.111   1.441   9.054  0.4222 -0.4435 -0.0299
22859SOL    HW172939  10.077   1.362   9.096  1.0763 -0.7619 -0.0963
22859SOL    HW272940  10.064   1.445   8.970 -1.4122  0.5739  0.9648
22860SOL     OW72941   4.541   9.855   4.992 -0.4136 -0.1590  0.1540
22860SOL    HW172942   4.542   9.896   4.905  1.4574  1.4062  0.8433
22860SOL    HW272943   4.535   9.927   5.053  0.0654 -1.1048  1.3648
22861SOL     OW72944   6.387   9.323   7.813 -0.2299  0.3240 -0.0261
22861SOL    HW172945   6.432   9.392   7.863 -0.5599 -0.7675  1.8904
22861SOL    HW272946   6.294   9.341   7.827 -0.3280 -1.0987  1.4445
22862SOL     OW72947   8.780   4.789  10.309 -0.0824  0.3819  0.9235
22862SOL    HW172948   8.864   4.745  10.294 -0.3407 -0.5007  2.0021
22862SOL    HW272949   8.781   4.861  10.246  0.8881 -0.4194 -0.0473
22863SOL     OW72950   7.579  10.054   3.766  0.8370 -0.3858  0.2671
22863SOL    HW172951   7.604  10.044   3.674  2.8641 -2.4374  0.9623
22863SOL    HW272952   7.497  10.006   3.773  1.0072 -0.7763 -0.3352
22864SOL     OW72953  10.508   0.871   3.695  0.1179  0.6322 -0.7621
22864SOL    HW172954  10.580   0.910   3.646 -0.2604  1.9154 -0.3358
22864SOL    HW272955  10.436   0.864   3.632  0.8234 -1.4474 -1.4235
22865SOL     OW72956   6.706   6.331   8.381  0.4637  0.7372 -0.4528
22865SOL    HW172957   6.664   6.399   8.434  0.3903  1.6489 -1.6216
22865SOL    HW272958   6.799   6.352   8.385  0.6334 -0.1188  0.5429
22866SOL     OW72959   9.848   2.822  10.474 -0.2549  0.1241  0.9530
22866SOL    HW172960   9.896   2.835  10.556  0.2995 -0.5615  0.7448
22866SOL    HW272961   9.793   2.745  10.491 -1.0794  0.7237  1.0897
22867SOL     OW72962   8.036   4.034   2.352 -0.5700  0.1946 -0.3180
22867SOL    HW172963   8.120   3.991   2.368 -0.5119  0.9622  1.8343
22867SOL    HW272964   7.971   3.964   2.361 -0.4917  0.3751  3.2618
22868SOL     OW72965   0.956   7.310   4.821  0.2925 -0.0058 -0.4527
22868SOL    HW172966   0.928   7.253   4.893 -0.0531  1.6381  0.7640
22868SOL    HW272967   0.893   7.291   4.751 -0.6189 -0.2054  0.3814
22869SOL     OW72968  11.117   2.397   3.971  0.4369  0.4696  0.0861
22869SOL    HW172969  11.159   2.429   4.051  0.4557  0.7149 -0.0213
22869SOL    HW272970  11.089   2.476   3.925 -1.0558  0.2961  0.6327
22870SOL     OW72971   6.462   0.001   8.172 -0.2568  0.3444  0.5981
22870SOL    HW172972   6.404  -0.020   8.246 -0.0794  0.9440  0.9156
22870SOL    HW272973   6.535   0.049   8.212  0.2620 -0.0599  0.1468
22871SOL     OW72974   5.846   5.848   5.171  0.3281 -0.1319  0.4487
22871SOL    HW172975   5.784   5.787   5.211  0.4322 -0.4282  0.1565
22871SOL    HW272976   5.932   5.808   5.183  0.1558 -1.6798 -2.5886
22872SOL     OW72977   4.777  10.036   4.803 -0.0151 -0.2901  0.1538
22872SOL    HW172978   4.733  10.046   4.888 -0.0998  2.4961 -0.1190
22872SOL    HW272979   4.869  10.057   4.822  0.5412 -2.3082 -0.0149
22873SOL     OW72980  10.327   2.934   6.706  0.1992 -0.0106 -0.2170
22873SOL    HW172981  10.400   2.943   6.645 -0.1821 -0.1299 -0.6969
22873SOL    HW272982  10.362   2.962   6.791  1.7586 -3.1033  0.2706
22874SOL     OW72983   7.236   7.637   3.437 -0.2573  0.5896 -0.4209
22874SOL    HW172984   7.192   7.712   3.396 -0.4722 -0.3424 -1.9937
22874SOL    HW272985   7.165   7.582   3.469 -0.2587 -0.3614 -1.9455
22875SOL     OW72986   6.610   7.039  10.360  0.0836 -0.0905  0.0260
22875SOL    HW172987   6.679   6.980  10.330 -1.8507 -2.0811 -0.8137
22875SOL    HW272988   6.594   7.013  10.451  1.4889  1.5003  0.7813
22876SOL     OW72989   0.228   5.338   5.941 -0.3709  0.1413 -0.0456
22876SOL    HW172990   0.165   5.383   5.885 -0.0240  0.4587 -0.1872
22876SOL    HW272991   0.237   5.396   6.017  1.2810  1.1609 -0.9409
22877SOL     OW72992   1.587   6.853   4.650 -0.0606 -0.3204  0.5700
22877SOL    HW172993   1.552   6.791   4.715  1.5723 -2.4588 -0.4719
22877SOL    HW272994   1.641   6.912   4.701 -1.0142 -0.2043  1.4946
22878SOL     OW72995   5.519   6.766   4.992 -0.0959 -0.0703  0.0952
22878SOL    HW172996   5.455   6.697   4.974 -0.3984  0.4115 -0.7602
22878SOL    HW272997   5.467   6.840   5.021 -0.2279  1.0584 -2.6925
22879SOL     OW72998   1.283  10.729   2.250 -0.1153  0.0438  0.1930
22879SOL    HW172999   1.321  10.644   2.227 -0.9893 -0.6572  1.2646
22879SOL    HW273000   1.334  10.759   2.325 -0.6778 -0.1840  0.6718
22880SOL     OW73001   3.352   7.478   3.666 -0.4168  0.3362 -0.0680
22880SOL    HW173002   3.349   7.435   3.751 -0.3718 -1.2122 -0.8242
22880SOL    HW273003   3.263   7.513   3.654 -0.6236 -0.0534  0.3095
22881SOL     OW73004   8.762   6.761  10.687  0.0159 -0.5554 -0.0245
22881SOL    HW173005   8.806   6.740  10.605 -1.1996 -2.8053 -0.1775
22881SOL    HW273006   8.677   6.718  10.681  0.2082 -1.5011  2.7194
22882SOL     OW73007   9.361   1.850   2.258 -0.1878 -0.2783 -0.0095
22882SOL    HW173008   9.342   1.803   2.177  1.9653 -0.3486 -0.5321
22882SOL    HW273009   9.348   1.785   2.327  0.2857 -0.9284 -0.5179
22883SOL     OW73010   2.968   2.243   5.800 -0.5122 -0.0938  0.2651
22883SOL    HW173011   2.903   2.178   5.828 -0.9450  0.3934  0.4056
22883SOL    HW273012   2.947   2.321   5.851  0.4474 -0.0556  0.6207
22884SOL     OW73013  10.506   7.790   7.573  0.3805  0.6475 -0.4289
22884SOL    HW173014  10.581   7.818   7.626  0.7774  0.1978 -0.7388
22884SOL    HW273015  10.464   7.871   7.545  0.2326  0.8934  0.4761
22885SOL     OW73016   0.862   9.374   6.351 -0.0989  0.3522 -0.0050
22885SOL    HW173017   0.934   9.318   6.380 -0.6199 -0.5651 -0.4627
22885SOL    HW273018   0.839   9.342   6.264 -1.3625  0.3383  0.3076
22886SOL     OW73019   9.452   4.030   4.467  0.3997 -0.3363  0.2164
22886SOL    HW173020   9.504   4.101   4.505  0.4351 -1.7325  3.0143
22886SOL    HW273021   9.366   4.038   4.508 -0.1513 -0.8740 -0.7856
22887SOL     OW73022   5.842   1.226   5.583 -0.2265  0.4144  0.6091
22887SOL    HW173023   5.749   1.245   5.573  0.0542  0.9544 -1.4577
22887SOL    HW273024   5.878   1.236   5.495  1.5333 -1.2642  1.0663
22888SOL     OW73025   3.368   5.542   4.157  0.3558 -0.2401 -0.6469
22888SOL    HW173026   3.383   5.611   4.222  0.4539 -2.3202  1.6629
22888SOL    HW273027   3.400   5.462   4.199 -1.0988 -1.9597 -2.6284
22889SOL     OW73028   6.719   4.823   3.602  0.2539  0.2531 -0.1381
22889SOL    HW173029   6.646   4.882   3.622  0.4636  0.9845 -1.3977
22889SOL    HW273030   6.776   4.828   3.678 -1.0800 -0.4662  0.9430
22890SOL     OW73031   3.573  10.682   8.018 -0.1838  0.2737  0.2243
22890SOL    HW173032   3.561  10.667   8.111  0.8182 -1.3827  0.1116
22890SOL    HW273033   3.646  10.626   7.993 -0.2940  0.8392 -1.5222
22891SOL     OW73034   8.880   1.363   1.954 -0.5281  0.5278 -0.4634
22891SOL    HW173035   8.903   1.302   2.025 -0.8736 -0.1371 -0.9091
22891SOL    HW273036   8.855   1.444   1.998 -0.5205  0.1909  0.1667
22892SOL     OW73037   9.731   0.501   8.254  0.0297  0.4806 -0.2264
22892SOL    HW173038   9.700   0.559   8.323  0.3984  0.6203 -0.1747
22892SOL    HW273039   9.824   0.490   8.272  0.3146  1.2186 -1.2014
22893SOL     OW73040   7.393   2.858   8.600  1.0831  0.2369  0.1170
22893SOL    HW173041   7.400   2.951   8.622 -0.4981  0.6915 -1.0934
22893SOL    HW273042   7.476   2.838   8.555  0.4869  1.7572 -1.8125
22894SOL     OW73043   0.236   2.856   6.440 -0.1790 -0.0564  0.1574
22894SOL    HW173044   0.314   2.895   6.479 -0.4142  1.6893 -0.9870
22894SOL    HW273045   0.269   2.807   6.364 -0.0828 -0.3073  0.3615
22895SOL     OW73046   6.586   2.860   2.678 -0.1693 -0.2139 -0.3174
22895SOL    HW173047   6.620   2.908   2.753  0.8302  0.8850 -1.4287
22895SOL    HW273048   6.494   2.889   2.671  0.0357  0.4996 -0.1526
22896SOL     OW73049   0.351   7.455   3.267 -0.2859  0.7108 -0.0503
22896SOL    HW173050   0.426   7.420   3.314  0.1748 -0.2638 -1.4505
22896SOL    HW273051   0.279   7.450   3.330  0.4257 -0.0036  0.7285
22897SOL     OW73052   6.199   0.672   0.675 -0.0913  0.0630 -0.5243
22897SOL    HW173053   6.162   0.585   0.693  2.0939 -1.1757 -1.5907
22897SOL    HW273054   6.291   0.663   0.698  0.2395  2.0345 -0.9478
22898SOL     OW73055  10.190   8.071   4.721 -0.3553 -0.0540  0.1955
22898SOL    HW173056  10.152   8.071   4.634 -1.4128  2.1402  0.5870
22898SOL    HW273057  10.130   8.018   4.774  0.8650 -2.3183 -0.5513
22899SOL     OW73058   3.619   7.675   1.788 -0.7834  0.1162 -0.1034
22899SOL    HW173059   3.649   7.629   1.866 -1.7010 -0.2236  0.0665
22899SOL    HW273060   3.684   7.743   1.774 -0.7913  0.4317  1.1943
22900SOL     OW73061   8.674   1.064   5.474  0.2842  0.3834  0.0536
22900SOL    HW173062   8.618   1.070   5.397 -0.7209  0.6715  0.7860
22900SOL    HW273063   8.763   1.076   5.441  0.0711 -1.3650 -1.3197
22901SOL     OW73064   3.906   9.341   7.723  0.2414 -0.0814  0.1975
22901SOL    HW173065   3.839   9.281   7.755 -1.0466  0.2125 -1.8155
22901SOL    HW273066   3.989   9.296   7.740 -0.0965  0.5516  4.9975
22902SOL     OW73067   6.136   2.984   0.482 -0.1088  0.6881 -0.1940
22902SOL    HW173068   6.185   2.950   0.407  1.5198  1.8755  0.2507
22902SOL    HW273069   6.059   3.026   0.444 -1.7888 -2.6547 -0.8030
22903SOL     OW73070   9.066   2.536   1.559 -0.1667  0.1975  0.2828
22903SOL    HW173071   9.065   2.622   1.517  1.4154 -0.3291 -0.9425
22903SOL    HW273072   9.070   2.474   1.486 -0.0849 -0.8698  1.1709
22904SOL     OW73073   5.061   7.089   1.691 -0.0503  0.2224 -0.2266
22904SOL    HW173074   5.088   7.177   1.667 -0.1623  0.2466 -0.2657
22904SOL    HW273075   4.977   7.101   1.735 -0.1272  0.1250 -0.3443
22905SOL     OW73076   6.549   7.190   3.739 -0.4140  0.2378 -0.5118
22905SOL    HW173077   6.493   7.117   3.713  0.1516  0.1947 -1.6834
22905SOL    HW273078   6.627   7.148   3.775 -0.0795  0.2480 -1.2056
22906SOL     OW73079   3.541   4.087   7.259 -0.3311  0.7666 -0.0352
22906SOL    HW173080   3.447   4.070   7.268 -0.2926 -1.2387 -2.5101
22906SOL    HW273081   3.581   4.040   7.333 -1.1925  0.8501  0.4960
22907SOL     OW73082  10.143   9.840   8.755  0.2012  0.6550 -0.3396
22907SOL    HW173083  10.091   9.908   8.798  1.0809  1.2669 -0.2277
22907SOL    HW273084  10.231   9.851   8.791  0.3190 -0.6532 -0.1900
22908SOL     OW73085   6.625   1.451   3.061 -0.5650  0.3428 -0.6714
22908SOL    HW173086   6.550   1.506   3.039  0.4197  2.0876  0.1486
22908SOL    HW273087   6.692   1.512   3.092  0.2567 -1.3859  1.2211
22909SOL     OW73088   8.058   6.442   9.849 -0.3829 -0.1562  0.1206
22909SOL    HW173089   8.028   6.435   9.940  0.1273 -0.4454  0.2712
22909SOL    HW273090   7.990   6.399   9.798 -0.8850  0.3906  0.3217
22910SOL     OW73091   8.591   8.495   9.864  0.9266  0.6053  0.6307
22910SOL    HW173092   8.636   8.479   9.781  0.9927  0.6200  0.6642
22910SOL    HW273093   8.535   8.570   9.847 -1.7551 -1.4681 -0.4730
22911SOL     OW73094   7.620   9.706   4.926 -0.0359  0.0757 -0.0109
22911SOL    HW173095   7.647   9.789   4.963  0.2588 -0.6176  1.4063
22911SOL    HW273096   7.619   9.720   4.831 -1.2774  2.0480  0.2493
22912SOL     OW73097   3.338   1.217   4.849 -0.1723 -0.1719  0.1431
22912SOL    HW173098   3.301   1.218   4.937 -1.6798 -1.7745 -0.4259
22912SOL    HW273099   3.267   1.249   4.793  0.1141 -1.0072 -0.7112
22913SOL     OW73100   3.753   6.256   2.851 -0.7852  0.0511 -0.0224
22913SOL    HW173101   3.757   6.346   2.819  0.0522  0.0359  0.0135
22913SOL    HW273102   3.810   6.255   2.927  0.5941 -0.8915 -1.0112
22914SOL     OW73103  10.783   6.334   3.688  0.3260  0.7689  0.5863
22914SOL    HW173104  10.724   6.322   3.763  0.1807  0.4130  0.4151
22914SOL    HW273105  10.867   6.357   3.728  0.4589 -0.2144  0.9011
22915SOL     OW73106   3.025   7.727   2.206  0.0881  0.0448  0.1405
22915SOL    HW173107   3.008   7.771   2.289  2.2003 -0.8618  1.1244
22915SOL    HW273108   2.943   7.681   2.187 -0.8321  1.2172  1.0844
22916SOL     OW73109   9.153   6.263   2.150 -0.6802 -0.0170  0.1261
22916SOL    HW173110   9.210   6.198   2.109 -0.6792  0.1333 -0.1143
22916SOL    HW273111   9.137   6.229   2.238  0.6510  0.4642  0.5777
22917SOL     OW73112   3.777   1.257   8.445  0.5763 -0.3201  0.0551
22917SOL    HW173113   3.782   1.341   8.399 -1.9146 -0.5926 -0.8576
22917SOL    HW273114   3.819   1.195   8.385 -0.2611 -0.2167 -0.6577
22918SOL     OW73115   2.006   9.867  10.951  0.2845  0.5989 -0.2576
22918SOL    HW173116   2.056   9.790  10.977  0.0773  0.7971  0.7877
22918SOL    HW273117   2.050   9.939  10.997 -0.8033  0.8094  0.4748
22919SOL     OW73118   8.307   6.042   0.898 -0.2195  0.5030 -0.4299
22919SOL    HW173119   8.217   6.076   0.901  0.5296  2.5418  0.5825
22919SOL    HW273120   8.317   5.994   0.980 -0.6143 -0.4262 -0.9109
22920SOL     OW73121   5.304   8.613   7.811  0.2658  0.6228  0.3346
22920SOL    HW173122   5.326   8.664   7.889  0.2274  1.5707 -0.2632
22920SOL    HW273123   5.209   8.621   7.804  0.2134  0.1237  0.4708
22921SOL     OW73124   9.915   9.991   3.562 -0.4025  0.4713  0.1003
22921SOL    HW173125   9.865  10.030   3.491 -2.8284  0.0308  1.4489
22921SOL    HW273126   9.855   9.928   3.602  2.0164 -1.8420  0.4423
22922SOL     OW73127   1.083   7.357   6.156 -0.2055 -0.0839 -0.0702
22922SOL    HW173128   1.040   7.296   6.096  2.3342 -2.0378 -0.0694
22922SOL    HW273129   1.144   7.406   6.100  2.3276 -2.0546  0.7759
22923SOL     OW73130   2.133  10.606   0.695 -0.0383 -0.3527 -0.2177
22923SOL    HW173131   2.203  10.648   0.745 -1.1889 -0.9422  2.0084
22923SOL    HW273132   2.080  10.679   0.662  0.0320  0.0363  0.5075
22924SOL     OW73133   7.953   2.481   5.641 -0.6703 -0.0589 -0.0714
22924SOL    HW173134   8.047   2.485   5.658  0.0659 -0.5686 -3.3131
22924SOL    HW273135   7.914   2.466   5.727  2.2843 -1.1012  1.2451
22925SOL     OW73136   3.195   8.286   2.922  0.3425  0.2623  0.2695
22925SOL    HW173137   3.207   8.317   2.832  0.2150 -0.0366  0.1495
22925SOL    HW273138   3.213   8.363   2.976 -1.3301  0.9425 -0.0754
22926SOL     OW73139   7.339   2.021   7.775  0.2818  0.0499 -0.2801
22926SOL    HW173140   7.377   1.978   7.699  0.1645 -0.3021 -0.1439
22926SOL    HW273141   7.261   2.065   7.742  0.4055  0.1653 -0.4214
22927SOL     OW73142   5.774   8.614  11.040  0.4157 -0.2027  0.6747
22927SOL    HW173143   5.686   8.579  11.028  0.5254 -0.1817 -0.2585
22927SOL    HW273144   5.766   8.706  11.016  1.0907 -0.6295 -1.3848
22928SOL     OW73145   2.959   5.906   3.735 -0.5874  0.1504 -0.1207
22928SOL    HW173146   2.968   5.931   3.826 -1.0887  1.0946 -0.3165
22928SOL    HW273147   2.989   5.982   3.685  0.1962 -0.5488 -0.7524
22929SOL     OW73148   7.326   8.062  10.934  0.0093 -0.2789 -0.2963
22929SOL    HW173149   7.270   7.997  10.892  0.6756  0.1485 -1.8938
22929SOL    HW273150   7.393   8.011  10.979 -0.3700 -0.7325 -0.2378
22930SOL     OW73151   8.192   7.027  10.353  0.3456  0.1422 -0.1445
22930SOL    HW173152   8.239   7.024  10.437 -0.8746  1.4264  0.6402
22930SOL    HW273153   8.163   6.938  10.339  1.2672 -0.2609  0.3787
22931SOL     OW73154   8.410   6.221   8.489 -0.5917  0.3855  0.1927
22931SOL    HW173155   8.465   6.298   8.506 -0.3334  0.3577 -0.5054
22931SOL    HW273156   8.353   6.215   8.566  0.6107  0.2050  1.0927
22932SOL     OW73157   0.869   8.209   6.800 -0.0077 -0.1401  0.0941
22932SOL    HW173158   0.777   8.183   6.803  0.6885 -2.8329  1.8755
22932SOL    HW273159   0.872   8.293   6.845 -1.3821 -1.0262  1.9930
22933SOL     OW73160  10.233   0.704   0.321  0.0017  0.8956  0.1705
22933SOL    HW173161  10.326   0.691   0.301  0.2227 -0.3794  1.8209
22933SOL    HW273162  10.229   0.714   0.416 -1.5695  0.5778  0.1722
22934SOL     OW73163   1.580   1.688   6.894 -0.1426 -0.0318 -0.4155
22934SOL    HW173164   1.516   1.626   6.859 -0.5841 -0.9341  1.8781
22934SOL    HW273165   1.540   1.722   6.974  0.6027  2.3674 -0.9733
22935SOL     OW73166   0.174   3.329   8.158  0.4512  0.3833 -0.0091
22935SOL    HW173167   0.246   3.375   8.115 -0.1822  2.1646  0.7127
22935SOL    HW273168   0.141   3.392   8.222 -0.7152 -0.9866  0.7950
22936SOL     OW73169  11.069   7.750   2.393 -0.1397  0.2784 -0.1231
22936SOL    HW173170  10.986   7.733   2.437 -0.8010 -0.1690 -1.5124
22936SOL    HW273171  11.045   7.773   2.303  1.2405 -0.0190 -0.5898
22937SOL     OW73172  11.068   1.192   8.637  0.4635 -0.3624  0.0671
22937SOL    HW173173  11.000   1.216   8.574  0.4701 -1.4149 -0.3508
22937SOL    HW273174  11.019   1.171   8.717  0.2786 -1.2104 -0.2619
22938SOL     OW73175   6.380   6.442   6.525  0.3026  0.5268  0.0287
22938SOL    HW173176   6.294   6.403   6.542 -0.1687  0.7908 -1.6227
22938SOL    HW273177   6.405   6.479   6.609 -2.1422  2.2660  0.1107
22939SOL     OW73178   8.701   9.660   7.864  0.1329  0.3215 -0.2128
22939SOL    HW173179   8.787   9.701   7.861 -0.4485  1.5794 -0.5620
22939SOL    HW273180   8.719   9.567   7.880  1.5299  0.5912 -0.0713
22940SOL     OW73181   9.880   0.206  10.586  0.3200  0.3450 -0.6866
22940SOL    HW173182   9.800   0.257  10.599  0.9224  1.2804 -0.6004
22940SOL    HW273183   9.927   0.252  10.517  0.8994 -0.0587 -0.5669
22941SOL     OW73184   9.791   9.889   2.051  0.4910  0.6771  0.1270
22941SOL    HW173185   9.795   9.856   1.962 -0.6383 -0.5689  0.4858
22941SOL    HW273186   9.871   9.939   2.063  1.3734 -0.3799 -1.1021
22942SOL     OW73187   7.307   8.998   7.526 -0.4110 -0.7534  0.2056
22942SOL    HW173188   7.298   9.010   7.620  0.4661  0.0544  0.1987
22942SOL    HW273189   7.376   9.059   7.500 -1.3956 -0.1535 -1.1389
22943SOL     OW73190   9.483   4.316   6.362  0.1599 -0.0669  0.5184
22943SOL    HW173191   9.515   4.278   6.280  0.6072 -0.1260  0.7152
22943SOL    HW273192   9.407   4.368   6.336  0.6388  0.3846 -0.0268
22944SOL     OW73193   0.768   1.303   0.943 -0.1754 -0.3475  0.4872
22944SOL    HW173194   0.738   1.216   0.917  1.7887 -0.9039 -0.0937
22944SOL    HW273195   0.733   1.316   1.031 -0.5542 -1.6984  0.5527
22945SOL     OW73196   6.724   7.530   8.266  0.3207  0.5931  0.6976
22945SOL    HW173197   6.692   7.620   8.272  0.7104  0.8605 -0.8427
22945SOL    HW273198   6.791   7.533   8.197 -0.8441 -1.1974 -0.5924
22946SOL     OW73199   1.809   6.741   2.027 -0.0751 -0.2488 -0.7234
22946SOL    HW173200   1.897   6.760   1.993 -0.0517  0.7434 -0.1405
22946SOL    HW273201   1.750   6.769   1.957  0.0400 -0.1700 -0.7890
22947SOL     OW73202   7.542   8.784   9.183 -0.1836  0.5861  0.4258
22947SOL    HW173203   7.560   8.714   9.120 -0.4940  0.2845  0.6722
22947SOL    HW273204   7.626   8.800   9.226 -0.2159  0.0297  0.7052
22948SOL     OW73205   1.624   7.406   8.997  0.2462 -0.1350 -1.3466
22948SOL    HW173206   1.707   7.451   9.014 -0.2129  1.5467 -3.1190
22948SOL    HW273207   1.561   7.450   9.053 -0.0958  1.1346 -2.6712
22949SOL     OW73208   2.697  10.434   1.909 -0.7572  0.5060  0.6523
22949SOL    HW173209   2.671  10.523   1.931  1.9799  0.8877  2.8827
22949SOL    HW273210   2.734  10.441   1.821 -1.5457  1.3100  0.3723
22950SOL     OW73211  10.617   7.654   8.886 -0.2072 -0.4128  0.3501
22950SOL    HW173212  10.553   7.585   8.905 -1.5557  0.8182  0.3891
22950SOL    HW273213  10.581   7.733   8.926  1.0136  0.4656 -0.2150
22951SOL     OW73214   5.113   2.716   2.190  0.1925  0.7115 -0.0329
22951SOL    HW173215   5.078   2.732   2.102  1.3451  0.6025 -0.5313
22951SOL    HW273216   5.199   2.759   2.189  2.2642 -3.0339 -0.5163
22952SOL     OW73217   7.270   1.140   8.558  0.3718 -0.0201 -0.1993
22952SOL    HW173218   7.182   1.149   8.596  0.2350  2.5756 -0.9445
22952SOL    HW273219   7.292   1.228   8.528  3.2530 -0.6190 -0.0660
22953SOL     OW73220   1.924   5.665   0.244  0.0128  0.3797  0.3153
22953SOL    HW173221   1.987   5.631   0.181  1.3458  0.1822  1.6798
22953SOL    HW273222   1.844   5.615   0.228 -0.2569  1.4900 -2.2824
22954SOL     OW73223   9.867   4.468   7.937  0.4641 -0.0755 -0.0678
22954SOL    HW173224   9.938   4.420   7.977  0.2189 -0.5433 -0.1883
22954SOL    HW273225   9.799   4.403   7.921  0.6954  0.0071 -1.5778
22955SOL     OW73226   7.031   0.395   7.018  0.4299 -0.1686  0.2576
22955SOL    HW173227   6.969   0.444   7.072  0.0749  0.8280 -0.9983
22955SOL    HW273228   6.979   0.328   6.976 -0.1380  1.4289 -1.7552
22956SOL     OW73229   3.938   4.100   7.544 -0.3864  0.9084 -0.4116
22956SOL    HW173230   4.028   4.093   7.510  0.0840  0.3356  0.9036
22956SOL    HW273231   3.937   4.182   7.593 -0.5300  0.8291 -0.2809
22957SOL     OW73232   9.743   1.846   9.638 -0.3806  0.1381  0.0612
22957SOL    HW173233   9.707   1.882   9.719 -0.7082  0.5362 -0.2557
22957SOL    HW273234   9.804   1.912   9.607  3.9550 -2.1840  2.7330
22958SOL     OW73235   8.985  10.667   7.227  0.4435  0.2806 -0.6383
22958SOL    HW173236   8.966  10.760   7.241  0.9892  0.3818 -0.5367
22958SOL    HW273237   8.978  10.655   7.133  3.2373  1.1112 -1.0590
22959SOL     OW73238   2.090   9.985   4.695 -0.0821  0.4841  0.3228
22959SOL    HW173239   1.999  10.016   4.697 -0.0867  0.5334 -0.3515
22959SOL    HW273240   2.090   9.906   4.748  0.1895  2.2881  3.2382
22960SOL     OW73241   2.114   6.247   1.815 -0.4158  0.4619 -0.1995
22960SOL    HW173242   2.053   6.301   1.864 -1.9862 -0.9824 -0.4369
22960SOL    HW273243   2.059   6.198   1.754  0.9155 -1.2321 -0.1407
22961SOL     OW73244  10.035   2.359   5.121  0.7374  0.4138 -0.1856
22961SOL    HW173245  10.041   2.278   5.172 -0.1570  1.8926  2.4231
22961SOL    HW273246   9.957   2.346   5.066  2.3609 -1.6583 -2.2062
22962SOL     OW73247   7.189   6.865   1.191  0.3709 -0.4140  0.4260
22962SOL    HW173248   7.146   6.917   1.259  0.9294  2.9035 -1.5565
22962SOL    HW273249   7.281   6.866   1.215  0.4347 -0.1417  0.1691
22963SOL     OW73250   3.031   3.084  10.982  0.5164  0.1874 -0.1748
22963SOL    HW173251   2.997   3.073  10.893  2.3554 -0.5694 -0.8425
22963SOL    HW273252   2.989   3.014  11.032 -1.8802  1.6982  0.0209
22964SOL     OW73253   8.694   6.534  11.040  0.2876  0.0754 -0.7480
22964SOL    HW173254   8.612   6.547  11.087  0.1099 -1.8975 -0.4364
22964SOL    HW273255   8.762   6.544  11.107  0.1920 -0.0443 -0.6317
22965SOL     OW73256   0.782   7.700   4.417  0.2657 -0.2009  0.0312
22965SOL    HW173257   0.812   7.694   4.507 -0.1512  0.1771  0.2007
22965SOL    HW273258   0.740   7.786   4.411 -0.8666 -0.7453 -0.1542
22966SOL     OW73259   4.280   9.406   7.703  0.5162 -0.1280  0.1146
22966SOL    HW173260   4.235   9.389   7.620 -1.7381 -0.1590  1.2467
22966SOL    HW273261   4.306   9.497   7.698  2.9294 -0.8234 -1.6774
22967SOL     OW73262   8.938   0.105   6.381 -0.7403  0.4300  0.6477
22967SOL    HW173263   8.868   0.157   6.420 -0.5560  1.3298 -0.1706
22967SOL    HW273264   8.928   0.119   6.286 -1.1249 -1.6031  0.3403
22968SOL     OW73265   5.439   1.473   2.666  0.3759  0.7936 -0.7094
22968SOL    HW173266   5.345   1.490   2.674 -0.0979 -1.1043 -1.5836
22968SOL    HW273267   5.461   1.502   2.577  0.5345  0.9941 -0.6014
22969SOL     OW73268   6.647   1.168   4.703 -0.0707 -0.1482  0.6147
22969SOL    HW173269   6.738   1.199   4.714 -0.2717  0.5625  0.3541
22969SOL    HW273270   6.651   1.107   4.630 -0.0199  0.9103 -0.2842
22970SOL     OW73271   0.936   5.036   3.367  0.2273 -0.1856  0.0464
22970SOL    HW173272   0.947   4.963   3.306 -0.9412 -0.2389 -0.1253
22970SOL    HW273273   0.941   4.996   3.454  1.7205 -0.1348  0.0225
22971SOL     OW73274   4.917   8.056   7.199 -0.7696  0.2086  0.2006
22971SOL    HW173275   4.877   7.996   7.136 -1.2611 -0.2457  0.9402
22971SOL    HW273276   4.976   8.001   7.250 -0.1885  0.6237 -0.0009
22972SOL     OW73277   6.867   0.652   0.355 -0.4375  0.0830  0.0476
22972SOL    HW173278   6.900   0.704   0.428  1.0958  1.0756 -1.2777
22972SOL    HW273279   6.910   0.567   0.366  1.3347  0.8303 -0.7028
22973SOL     OW73280   7.126   4.812   7.078  0.5047  0.4567  0.0264
22973SOL    HW173281   7.218   4.793   7.094  0.2764  1.2452  2.9695
22973SOL    HW273282   7.123   4.906   7.063  0.1208  0.6203  1.0195
22974SOL     OW73283   3.795   4.212  10.399 -0.1278 -0.5156  0.3900
22974SOL    HW173284   3.852   4.173  10.465  0.1255 -0.8049 -0.0007
22974SOL    HW273285   3.809   4.306  10.408  0.0738 -0.5649  0.5969
22975SOL     OW73286  10.731   7.577   9.857  0.7824  0.9309 -0.3150
22975SOL    HW173287  10.781   7.557   9.778  0.1241  0.8912 -0.7292
22975SOL    HW273288  10.689   7.661   9.838  0.8829  1.0787  0.1201
22976SOL     OW73289   3.617   2.075   8.712  0.1774  0.3312 -0.4653
22976SOL    HW173290   3.648   1.987   8.692  1.3503  0.6567 -0.1236
22976SOL    HW273291   3.559   2.064   8.788 -0.4915 -0.2638 -1.0446
22977SOL     OW73292  10.463   6.975   8.463  0.1144 -0.0688  0.4625
22977SOL    HW173293  10.494   7.059   8.431  0.9181 -0.6335 -0.3011
22977SOL    HW273294  10.438   6.927   8.384  0.4258 -0.8335  0.8180
22978SOL     OW73295   7.593   1.476   6.301 -0.1339  0.7066 -0.1026
22978SOL    HW173296   7.639   1.394   6.315 -3.3478 -1.7747 -2.5345
22978SOL    HW273297   7.571   1.507   6.388  0.7787 -1.2691  0.8878
22979SOL     OW73298   6.492   8.632   3.813  0.3603 -0.5882  0.2785
22979SOL    HW173299   6.428   8.619   3.744  1.5068 -5.1415 -0.2566
22979SOL    HW273300   6.570   8.665   3.768 -0.1504  0.4900  0.1599
22980SOL     OW73301   7.423   7.035   8.257 -0.4680 -0.4078  0.8059
22980SOL    HW173302   7.415   6.941   8.239  2.9685 -0.4151 -1.5721
22980SOL    HW273303   7.517   7.053   8.251 -0.6594  2.7609  3.9467
22981SOL     OW73304  10.623   5.015   7.793 -0.1344  0.1897 -0.1904
22981SOL    HW173305  10.703   5.063   7.815  0.6243 -0.8980 -0.5198
22981SOL    HW273306  10.569   5.079   7.745  1.2865  0.4562 -1.5143
22982SOL     OW73307   4.547  10.256   2.573  0.1259  0.8951  0.4420
22982SOL    HW173308   4.637  10.273   2.544  0.6273  0.2778  1.5985
22982SOL    HW273309   4.555  10.189   2.640 -1.1916  0.9616  0.6944
22983SOL     OW73310   7.911   7.052   9.727 -0.0349  0.0307 -0.1848
22983SOL    HW173311   7.816   7.055   9.735 -0.0420  2.4341 -0.3008
22983SOL    HW273312   7.927   7.022   9.638 -0.8189  1.9714 -1.0493
22984SOL     OW73313   6.223   3.118   0.045 -0.2491 -0.4800 -0.3281
22984SOL    HW173314   6.271   3.120   0.128  0.2588 -2.0750 -0.5474
22984SOL    HW273315   6.143   3.070   0.065 -1.1058  0.8894 -0.3205
22985SOL     OW73316   0.429   5.693  10.336  0.3688  0.4587  0.2365
22985SOL    HW173317   0.376   5.613  10.345 -0.6473  1.1143  0.2863
22985SOL    HW273318   0.483   5.678  10.259 -0.4712  0.0785 -0.2930
22986SOL     OW73319   1.518  10.433   5.889 -0.3635 -0.2062  0.0440
22986SOL    HW173320   1.606  10.397   5.899 -0.4123 -0.8040 -1.4708
22986SOL    HW273321   1.503  10.433   5.794 -2.1527 -0.4873  0.3083
22987SOL     OW73322   8.702   4.021   5.622  0.2189 -0.0179 -0.4585
22987SOL    HW173323   8.672   3.947   5.674  2.1606  0.3756  1.3700
22987SOL    HW273324   8.650   4.018   5.542 -0.3508 -2.8175 -0.0611
22988SOL     OW73325   2.997   0.059   6.487 -0.3646  0.3008  0.1728
22988SOL    HW173326   3.024   0.141   6.445  1.5181 -0.0924  0.5343
22988SOL    HW273327   2.937   0.019   6.423  0.7512  0.7222 -1.1873
22989SOL     OW73328   1.854   9.729   5.206 -0.5298  0.2344 -0.1551
22989SOL    HW173329   1.828   9.757   5.293  2.7665 -1.8548  1.7348
22989SOL    HW273330   1.778   9.745   5.151 -2.7781  1.6091  3.0932
22990SOL     OW73331   5.366   5.484   6.287 -0.6859 -0.3519 -0.4426
22990SOL    HW173332   5.278   5.493   6.251 -0.6422 -0.6729 -0.6310
22990SOL    HW273333   5.376   5.391   6.303 -0.9214 -0.1522  0.9789
22991SOL     OW73334   6.379   4.519   1.810  0.2543 -0.1859 -0.2821
22991SOL    HW173335   6.354   4.530   1.719  1.1715 -0.1420 -0.5330
22991SOL    HW273336   6.302   4.548   1.860 -0.5829 -1.0332 -1.0343
22992SOL     OW73337   2.691   4.986   6.478 -0.0408  0.3491  0.3419
22992SOL    HW173338   2.763   5.030   6.523  1.1630 -0.3913 -0.7843
22992SOL    HW273339   2.618   4.991   6.539  0.9734  1.0767  1.5517
22993SOL     OW73340   0.387   8.950  10.066 -0.3830  0.4308 -0.4114
22993SOL    HW173341   0.462   8.987  10.020 -0.1246  1.3312  0.6658
22993SOL    HW273342   0.406   8.856  10.073 -1.1277 -0.0246 -3.3487
22994SOL     OW73343   7.627   9.625   1.762  0.0301 -0.3576  0.6870
22994SOL    HW173344   7.625   9.606   1.856 -1.6881  2.0689  1.2382
22994SOL    HW273345   7.541   9.597   1.731  0.3397 -0.5132 -0.0471
22995SOL     OW73346   5.139   6.177  10.400 -0.0457 -0.5711  0.1662
22995SOL    HW173347   5.200   6.242  10.437 -0.2238 -1.3884  2.0390
22995SOL    HW273348   5.195   6.115  10.353  0.2222  0.3796 -0.8061
22996SOL     OW73349   6.629   1.740   6.370 -0.7218 -0.0540  0.4513
22996SOL    HW173350   6.636   1.835   6.357  0.3103 -0.3393 -1.4209
22996SOL    HW273351   6.557   1.730   6.433 -0.1840  1.9977  1.4823
22997SOL     OW73352   8.040   7.631   7.377  0.1060  0.0410 -1.1283
22997SOL    HW173353   8.113   7.587   7.420 -0.7054 -0.8769 -0.6436
22997SOL    HW273354   8.057   7.725   7.390  1.2917 -0.1465 -1.2138
22998SOL     OW73355   7.406   9.815   4.549  0.1401  0.2295 -0.7257
22998SOL    HW173356   7.429   9.904   4.524 -0.2956  0.3959 -0.5311
22998SOL    HW273357   7.337   9.789   4.489 -1.1238  0.7392  0.4542
22999SOL     OW73358   6.558   9.730   2.422 -0.1430 -0.3944  0.0720
22999SOL    HW173359   6.492   9.665   2.443 -0.2046 -0.5983 -0.7496
22999SOL    HW273360   6.606   9.693   2.348 -0.7485  0.8765 -0.9950
23000SOL     OW73361   0.644   0.590   6.961  0.3731 -0.3004  0.7169
23000SOL    HW173362   0.607   0.614   6.876  1.7938 -1.1081 -0.1702
23000SOL    HW273363   0.665   0.673   7.003 -0.3464  0.1042  0.2840
23001SOL     OW73364   2.095   8.229   9.608 -0.0574 -0.4508  0.1526
23001SOL    HW173365   2.011   8.188   9.627 -1.0299  1.7044  0.8481
23001SOL    HW273366   2.082   8.271   9.523  0.8023 -1.2814 -0.3982
23002SOL     OW73367   1.062   5.389   7.243  0.6058 -0.2707  0.5285
23002SOL    HW173368   1.027   5.467   7.201 -0.2225 -0.5220  0.7444
23002SOL    HW273369   1.087   5.418   7.331  1.8310  0.1239  0.0761
23003SOL     OW73370   1.605   7.886   5.741  0.4883  0.2820  0.2024
23003SOL    HW173371   1.670   7.957   5.739 -0.3551  1.0622 -0.2284
23003SOL    HW273372   1.599   7.861   5.833  0.3035  1.2462  0.4656
23004SOL     OW73373   2.185   8.347   5.339  0.3554  0.0398  0.0437
23004SOL    HW173374   2.149   8.363   5.427  0.2530  0.7881 -0.1278
23004SOL    HW273375   2.132   8.402   5.281  0.7936 -0.0134 -0.4141
23005SOL     OW73376   9.312   1.777   1.247 -0.4835 -0.1527 -0.1466
23005SOL    HW173377   9.374   1.707   1.269  0.2097  0.2941 -0.6543
23005SOL    HW273378   9.366   1.855   1.236 -1.2916  0.5534  0.7657
23006SOL     OW73379   9.904   8.177   0.561 -0.2720 -0.1860 -0.1937
23006SOL    HW173380   9.930   8.121   0.488 -2.1957 -1.4512  0.0041
23006SOL    HW273381   9.887   8.262   0.521  2.2460  0.1905 -0.5788
23007SOL     OW73382   6.752   6.242   5.212 -0.3462 -0.3718  0.3808
23007SOL    HW173383   6.773   6.205   5.298  2.3877  0.1126 -0.0183
23007SOL    HW273384   6.746   6.166   5.155  1.4878 -0.5142  0.3182
23008SOL     OW73385   3.000   4.227   0.702 -0.2565 -0.0711 -0.1856
23008SOL    HW173386   3.089   4.212   0.733  0.0066  0.3047 -0.7629
23008SOL    HW273387   2.971   4.142   0.669  0.3789  0.1211 -1.2557
23009SOL     OW73388   1.164   0.632   1.114  0.2532 -0.7999  0.1814
23009SOL    HW173389   1.194   0.541   1.113 -0.1948 -0.9592 -1.1142
23009SOL    HW273390   1.119   0.641   1.198  0.1499 -1.8333  0.2523
23010SOL     OW73391  10.352   0.543   9.730 -0.4200 -0.3834 -0.1398
23010SOL    HW173392  10.300   0.526   9.808 -0.4854 -1.6862 -0.4289
23010SOL    HW273393  10.339   0.465   9.676 -0.9472  0.7824 -1.7764
23011SOL     OW73394   1.729   0.343   5.602  0.1155  0.0632  0.0418
23011SOL    HW173395   1.797   0.402   5.632 -0.3976  0.7228 -0.0734
23011SOL    HW273396   1.694   0.304   5.683  1.1916 -0.9468  0.0575
23012SOL     OW73397  10.340   1.400  10.423  0.0500  0.1667  0.7863
23012SOL    HW173398  10.316   1.375  10.512 -0.3795 -0.1618  0.5834
23012SOL    HW273399  10.312   1.491  10.415  1.0994  0.5476  1.3449
23013SOL     OW73400  10.500   9.023   0.884 -0.3421 -0.0841 -0.3904
23013SOL    HW173401  10.551   8.954   0.926  0.0754  0.6475  0.3146
23013SOL    HW273402  10.412   9.013   0.920 -0.2357 -0.1173 -0.1438
23014SOL     OW73403   9.247   7.276   5.940  0.1650 -0.3309 -0.0413
23014SOL    HW173404   9.318   7.339   5.928  1.1331 -0.9860  1.7270
23014SOL    HW273405   9.185   7.321   5.998  0.4163 -0.6550  0.4902
23015SOL     OW73406   9.662  10.131   3.075 -0.0660  0.9349 -0.2619
23015SOL    HW173407   9.604  10.206   3.077 -1.2665  0.1663 -2.5561
23015SOL    HW273408   9.633  10.076   3.147 -0.7960  1.5433 -0.0790
23016SOL     OW73409   2.458   3.971   1.658  0.4207 -0.0239  0.4657
23016SOL    HW173410   2.549   4.000   1.652 -0.3674  2.7682  0.6522
23016SOL    HW273411   2.412   4.043   1.701 -1.8581 -1.4359  0.5768
23017SOL     OW73412   8.015   7.467   5.785 -0.5087  0.6479 -0.3127
23017SOL    HW173413   8.093   7.505   5.825 -0.8522  0.9737  0.0485
23017SOL    HW273414   7.958   7.541   5.767 -1.1948  0.3140  0.4172
23018SOL     OW73415   7.442  10.708   1.242 -0.0048  0.5494 -0.4594
23018SOL    HW173416   7.484  10.710   1.328 -1.5256  2.1414  0.3043
23018SOL    HW273417   7.490  10.771   1.190  1.4745 -1.0349 -1.1249
23019SOL     OW73418   4.357  10.265   7.020 -0.7310  0.3725 -0.2675
23019SOL    HW173419   4.420  10.318   6.971  0.2844 -0.0130  0.5672
23019SOL    HW273420   4.386  10.175   7.007 -1.8325  0.0837 -0.8339
23020SOL     OW73421   8.118   5.609   9.190 -0.2834  0.3207 -0.0579
23020SOL    HW173422   8.191   5.563   9.150 -1.5027 -0.1326 -1.8697
23020SOL    HW273423   8.108   5.567   9.276  0.6968 -0.5258 -0.3397
23021SOL     OW73424   3.765  10.661   2.763 -0.1267 -0.7015  0.2616
23021SOL    HW173425   3.735  10.575   2.736  1.0573 -0.8763 -0.5687
23021SOL    HW273426   3.860  10.658   2.751 -0.2823  1.5511 -2.2538
23022SOL     OW73427   3.587   1.490   0.375 -0.1678 -0.0055  0.2007
23022SOL    HW173428   3.569   1.485   0.281 -1.9553 -0.7083  0.5315
23022SOL    HW273429   3.517   1.438   0.415  0.2871  0.6632  1.9445
23023SOL     OW73430  10.851   3.407   4.287 -0.0719 -0.1016 -0.0393
23023SOL    HW173431  10.875   3.352   4.213  0.8931 -0.3975  0.4788
23023SOL    HW273432  10.923   3.469   4.296 -1.5052  1.8420 -1.1353
23024SOL     OW73433   8.959   5.190   2.662 -0.1730  0.0551  0.2172
23024SOL    HW173434   9.024   5.221   2.598 -1.1603 -0.7545 -1.2281
23024SOL    HW273435   9.011   5.151   2.732  0.9156 -0.5691 -0.9004
23025SOL     OW73436   4.902   9.826   0.413 -0.3969  0.4895  0.3068
23025SOL    HW173437   4.953   9.864   0.484 -0.1612 -0.9440  0.9438
23025SOL    HW273438   4.855   9.753   0.454 -1.4611  0.5882 -0.6873
23026SOL     OW73439   0.985   9.095   4.668  0.6735  1.1518 -0.6765
23026SOL    HW173440   0.970   9.173   4.615 -1.4290  1.3348  0.1233
23026SOL    HW273441   0.904   9.083   4.717  1.7981 -0.2096  0.9526
23027SOL     OW73442   6.052   9.234   9.773  0.2161  0.2884 -0.2876
23027SOL    HW173443   6.013   9.314   9.807 -1.0187  0.1374 -1.2596
23027SOL    HW273444   6.007   9.219   9.689  0.3595 -1.4456 -0.0997
23028SOL     OW73445   1.233  10.365   5.647  0.2604  0.2128 -0.1133
23028SOL    HW173446   1.310  10.422   5.651  0.3380  0.0603  0.6942
23028SOL    HW273447   1.176  10.398   5.716 -0.8295  0.9233 -1.3072
23029SOL     OW73448   8.683   2.388   4.704  0.5539 -0.3588 -0.4438
23029SOL    HW173449   8.720   2.393   4.792  0.7711  0.7398 -0.5841
23029SOL    HW273450   8.727   2.313   4.663  0.0074 -1.2592  0.5703
23030SOL     OW73451   3.822   2.485   2.575  0.7866  0.1665 -0.2799
23030SOL    HW173452   3.889   2.483   2.644  0.8155 -0.2548 -0.3198
23030SOL    HW273453   3.748   2.530   2.615  0.8962  0.1503 -0.0563
23031SOL     OW73454   8.513   6.986   0.447  0.5755 -0.4162  0.1066
23031SOL    HW173455   8.476   7.008   0.532 -0.9330 -1.2461 -0.2897
23031SOL    HW273456   8.532   6.892   0.452 -0.1594 -0.6267 -0.6596
23032SOL     OW73457   0.289   8.465   1.937  0.1379  0.1434  0.5287
23032SOL    HW173458   0.264   8.540   1.884  1.8645 -0.1086 -0.7383
23032SOL    HW273459   0.282   8.390   1.878  1.4945 -0.2245  0.7896
23033SOL     OW73460   7.573   7.297   1.699 -0.7377  0.2658 -0.0347
23033SOL    HW173461   7.530   7.270   1.780  0.5745 -3.2992 -0.3389
23033SOL    HW273462   7.563   7.222   1.640 -0.1515  2.0546 -2.5997
23034SOL     OW73463   4.806   1.113   6.788  0.1108 -0.5773  0.1587
23034SOL    HW173464   4.894   1.082   6.809 -0.3278 -0.4314  2.5513
23034SOL    HW273465   4.762   1.036   6.752  1.6626 -0.1830 -2.9041
23035SOL     OW73466   8.469   7.789   0.262  0.0320  0.6343  0.1814
23035SOL    HW173467   8.454   7.789   0.356  1.7035  0.8321  0.4724
23035SOL    HW273468   8.559   7.758   0.252 -0.2337  0.3012 -1.3703
23036SOL     OW73469   8.528   2.082   7.374  0.3867  0.5520 -0.5632
23036SOL    HW173470   8.558   2.032   7.299 -1.5115 -1.3594 -0.1454
23036SOL    HW273471   8.468   2.147   7.338 -0.5299 -0.3674 -0.7385
23037SOL     OW73472   1.177   5.024   6.518 -0.1342 -0.1547  0.2138
23037SOL    HW173473   1.096   5.014   6.468 -1.1085 -1.8331  1.9848
23037SOL    HW273474   1.245   5.038   6.452 -1.9572  2.4374 -1.2883
23038SOL     OW73475   7.562   7.834   4.238 -0.5046 -0.3367 -0.0608
23038SOL    HW173476   7.589   7.758   4.187 -1.6946 -0.3073 -0.7931
23038SOL    HW273477   7.626   7.902   4.217  0.4216 -1.0479  0.4052
23039SOL     OW73478   5.867   1.588   0.582  0.3552 -0.3023 -0.6048
23039SOL    HW173479   5.928   1.661   0.573 -0.2408  0.3461  0.4943
23039SOL    HW273480   5.878   1.558   0.672 -0.9602 -0.1329 -0.3638
23040SOL     OW73481   0.710   1.645   1.166 -0.2379  0.4957  0.6181
23040SOL    HW173482   0.735   1.722   1.217 -1.8288  1.2478  0.3314
23040SOL    HW273483   0.619   1.629   1.191  0.0793 -1.3673  0.7241
23041SOL     OW73484   1.408   0.578   8.370 -0.4153 -0.5194 -0.4276
23041SOL    HW173485   1.413   0.639   8.297 -2.3765 -0.6426 -0.7075
23041SOL    HW273486   1.419   0.492   8.330  0.4556 -0.4827 -0.2890
23042SOL     OW73487   2.883   7.788   9.008 -0.1883 -0.0129  0.0313
23042SOL    HW173488   2.797   7.825   9.025  0.6562  2.4280 -0.5834
23042SOL    HW273489   2.917   7.764   9.094 -0.7392  0.7832  0.4705
23043SOL     OW73490  10.162   7.062   1.489  0.1648 -0.6569  0.2658
23043SOL    HW173491  10.214   6.991   1.529 -0.7624 -1.3261  0.3010
23043SOL    HW273492  10.223   7.105   1.429  1.3439 -0.1735  1.7472
23044SOL     OW73493   6.150   9.166   7.562  0.2247 -0.0325  0.4019
23044SOL    HW173494   6.197   9.236   7.607 -2.7071  3.0731 -0.9926
23044SOL    HW273495   6.139   9.197   7.472 -1.1885 -2.2918 -0.3056
23045SOL     OW73496   1.502   8.312   9.999  0.0121  0.2443  0.1375
23045SOL    HW173497   1.514   8.281  10.089 -0.4830  2.4289  1.0213
23045SOL    HW273498   1.531   8.403  10.001  4.3247 -0.7316 -2.9809
23046SOL     OW73499   8.503   0.625   8.887  0.2418 -0.9443  0.1190
23046SOL    HW173500   8.584   0.673   8.902 -0.6147  0.3717  0.7143
23046SOL    HW273501   8.531   0.538   8.858  1.9004 -1.3921  2.7987
23047SOL     OW73502   3.822   9.648   0.769  0.1744  0.6955 -0.1108
23047SOL    HW173503   3.859   9.664   0.856  1.0701 -1.1491 -0.1103
23047SOL    HW273504   3.729   9.637   0.784  0.6140 -2.4859  1.1540
23048SOL     OW73505   6.468   0.949  10.257  0.2917 -0.0487 -0.4523
23048SOL    HW173506   6.379   0.982  10.245  0.5433  0.5536 -0.7251
23048SOL    HW273507   6.522   1.028  10.260  0.5228 -0.1856  2.7094
23049SOL     OW73508   0.641   0.768   4.972 -0.2207 -0.0664 -0.0250
23049SOL    HW173509   0.608   0.680   4.957 -0.5862 -0.0627  0.7040
23049SOL    HW273510   0.651   0.805   4.885  1.1760 -1.2574 -0.3973
23050SOL     OW73511   7.422   9.944   9.116  0.3541  0.1601  0.2207
23050SOL    HW173512   7.335   9.954   9.077  0.5273 -1.6800 -0.7476
23050SOL    HW273513   7.480   9.992   9.056  0.0603  1.2390  0.7718
23051SOL     OW73514   7.810   7.979   5.600 -0.3607 -0.3758 -0.2614
23051SOL    HW173515   7.772   7.898   5.567  1.2192 -1.5328  0.6087
23051SOL    HW273516   7.737   8.025   5.640 -1.0563 -2.0484  0.5039
23052SOL     OW73517   9.835   5.413   0.301  0.0550  0.6617 -0.4362
23052SOL    HW173518   9.849   5.323   0.272  1.3053  0.2403  1.3353
23052SOL    HW273519   9.790   5.455   0.227  0.3851 -1.1196 -1.7186
23053SOL     OW73520  10.100   1.274   2.336  0.1186 -0.2108 -0.4777
23053SOL    HW173521  10.185   1.276   2.379  0.4267  0.0442 -1.0884
23053SOL    HW273522  10.097   1.355   2.284 -1.1932  0.6550  0.8622
23054SOL     OW73523  10.289   5.463   6.217 -0.7689 -0.5539  0.2644
23054SOL    HW173524  10.293   5.536   6.156  2.5023  0.7686  1.8392
23054SOL    HW273525  10.342   5.394   6.175 -0.7771 -0.6618  0.4314
23055SOL     OW73526   1.276   1.575   4.517 -0.1292  0.1681  0.1116
23055SOL    HW173527   1.290   1.487   4.552 -4.9109 -1.1515 -0.5010
23055SOL    HW273528   1.263   1.630   4.594  0.3145 -0.2635  0.4985
23056SOL     OW73529   8.043   9.272   4.771  0.2765  0.8723  0.2720
23056SOL    HW173530   7.953   9.291   4.745 -0.7500 -2.9916  0.4745
23056SOL    HW273531   8.043   9.284   4.866 -0.2669  0.0724  0.3772
23057SOL     OW73532   3.910   9.480   1.827  0.0190 -0.3851 -0.5306
23057SOL    HW173533   3.941   9.442   1.745  0.1340  0.7623 -1.0318
23057SOL    HW273534   3.848   9.416   1.861  0.2492 -1.0433 -1.3173
23058SOL     OW73535   7.604   2.711   4.893 -0.4314  0.5235  0.3022
23058SOL    HW173536   7.635   2.794   4.931  0.3055 -0.6095  2.3338
23058SOL    HW273537   7.509   2.715   4.903 -0.6692  2.1450 -1.9360
23059SOL     OW73538   0.813   3.310   2.615  0.0171 -0.0232  0.0831
23059SOL    HW173539   0.815   3.341   2.525  0.1340  1.1047  0.4669
23059SOL    HW273540   0.876   3.238   2.617  1.3396  1.0928 -0.3301
23060SOL     OW73541   2.394   9.841   2.263  0.1557 -0.0867  0.0183
23060SOL    HW173542   2.396   9.860   2.170 -0.5225  1.3148  0.2499
23060SOL    HW273543   2.472   9.788   2.279 -1.1062 -2.6283 -1.7569
23061SOL     OW73544   3.218   5.919   9.242  0.1386  0.2334  0.3752
23061SOL    HW173545   3.158   5.868   9.297  0.3551 -1.3179 -0.7520
23061SOL    HW273546   3.306   5.893   9.272  0.2498  0.2168  0.0408
23062SOL     OW73547   5.408   0.921   1.021  0.4349 -0.0289 -0.0514
23062SOL    HW173548   5.382   0.829   1.026 -1.7952  0.5956  1.4758
23062SOL    HW273549   5.378   0.950   0.935  0.0552 -0.4628 -0.0721
23063SOL     OW73550   7.537  10.561   6.207 -0.3721 -0.6775 -0.0554
23063SOL    HW173551   7.487  10.500   6.152 -5.7873  1.6465  1.5905
23063SOL    HW273552   7.543  10.641   6.154  1.7069 -0.8184 -0.1237
23064SOL     OW73553   1.015   9.877   2.967  0.4576 -0.6447  0.3336
23064SOL    HW173554   0.983   9.796   2.928 -0.2225 -0.6319  0.8448
23064SOL    HW273555   1.030   9.935   2.892 -0.7780 -0.6392  0.0659
23065SOL     OW73556   4.771   7.091   4.192 -0.5364  0.1483  0.0977
23065SOL    HW173557   4.795   7.182   4.207  0.4141 -0.2037  0.7894
23065SOL    HW273558   4.803   7.045   4.270 -0.0788 -0.9375 -0.7191
23066SOL     OW73559   5.301   5.309   8.375 -0.1792 -0.0809 -0.0255
23066SOL    HW173560   5.311   5.371   8.447  0.4629  1.7041 -1.5592
23066SOL    HW273561   5.379   5.254   8.380  0.3567  0.6652  0.0953
23067SOL     OW73562   3.428   3.431   2.411  0.0454  0.0999 -0.0598
23067SOL    HW173563   3.408   3.509   2.358 -0.3024  0.3231  0.3946
23067SOL    HW273564   3.347   3.413   2.458  0.8070  0.8120  1.5758
23068SOL     OW73565   8.552   2.832   9.738  0.4748 -0.2698  0.5943
23068SOL    HW173566   8.475   2.871   9.779  1.7743  1.2652  1.6995
23068SOL    HW273567   8.535   2.738   9.738 -2.1115  0.1085 -0.7606
23069SOL     OW73568   8.959   4.209   7.446 -0.4422 -0.1568 -0.1101
23069SOL    HW173569   8.994   4.296   7.426  2.9027 -1.1033  1.0692
23069SOL    HW273570   8.971   4.159   7.366 -0.2142 -0.1741 -0.0635
23070SOL     OW73571   4.798   4.512   8.903 -0.5951 -0.4879 -0.1245
23070SOL    HW173572   4.726   4.483   8.959 -0.0535  0.5219  1.1575
23070SOL    HW273573   4.757   4.569   8.838 -0.9812  0.0074  0.5362
23071SOL     OW73574   2.157   6.088  10.161 -0.0198  0.2212  0.7260
23071SOL    HW173575   2.207   6.158  10.204 -0.3828  1.0492 -0.1597
23071SOL    HW273576   2.223   6.032  10.120  0.2087  1.1721 -0.2346
23072SOL     OW73577   3.305   9.710  10.734  0.5249 -0.5958 -0.1864
23072SOL    HW173578   3.281   9.705  10.642  1.3767 -0.3824 -0.4341
23072SOL    HW273579   3.319   9.619  10.760  2.5089 -0.5453 -0.9104
23073SOL     OW73580   6.743   1.694   0.890 -0.1901 -0.2674  0.4309
23073SOL    HW173581   6.748   1.744   0.808 -1.1279 -0.7430  0.0625
23073SOL    HW273582   6.733   1.603   0.861 -0.3775 -0.4566  1.0815
23074SOL     OW73583   3.960   4.292   7.750 -0.3847 -0.1541 -0.0077
23074SOL    HW173584   4.013   4.371   7.743  0.3489 -0.7739 -3.5901
23074SOL    HW273585   3.870   4.324   7.759  0.1270  0.9936  1.3402
23075SOL     OW73586   6.761   8.121   9.817 -0.6881  0.3436  0.1804
23075SOL    HW173587   6.816   8.118   9.896 -3.2967  1.1837  2.2044
23075SOL    HW273588   6.732   8.212   9.812 -2.4502 -0.2064 -0.3264
23076SOL     OW73589   0.676   8.115   2.592 -0.5554 -0.3086 -0.1559
23076SOL    HW173590   0.746   8.179   2.577 -1.0038  0.4863  0.9912
23076SOL    HW273591   0.702   8.068   2.671 -0.5353 -1.1322 -0.6436
23077SOL     OW73592   5.575   1.034   2.697 -0.1295 -0.1618 -0.4326
23077SOL    HW173593   5.491   1.021   2.741 -0.2576  0.1156 -0.5904
23077SOL    HW273594   5.616   1.106   2.745  0.5942 -1.1404  0.4677
23078SOL     OW73595   1.995  10.878   1.670  0.1293 -0.2219  0.3534
23078SOL    HW173596   2.084  10.867   1.706 -0.0358  0.7550  1.0891
23078SOL    HW273597   1.962  10.957   1.712 -0.7913 -0.1172 -0.5471
23079SOL     OW73598   3.897   2.159   2.188 -0.5880 -0.0720  0.3742
23079SOL    HW173599   3.874   2.242   2.230 -2.0263  0.9381 -2.1597
23079SOL    HW273600   3.993   2.156   2.189 -0.4777  2.0953 -0.2650
23080SOL     OW73601   4.421   2.358   7.298  0.7201 -0.1398 -0.1459
23080SOL    HW173602   4.392   2.294   7.232 -0.1863  0.1171 -0.0191
23080SOL    HW273603   4.416   2.311   7.381  2.1277 -0.5481 -0.2713
23081SOL     OW73604   8.887   1.808   0.132  0.1172 -0.8003 -0.5660
23081SOL    HW173605   8.982   1.800   0.123 -0.0634 -2.0445 -1.7099
23081SOL    HW273606   8.874   1.892   0.176  1.7551 -0.8043 -0.0170
23082SOL     OW73607   4.597   3.598   7.119  0.0189 -0.7524 -0.0744
23082SOL    HW173608   4.559   3.664   7.062  0.7107  0.6401  1.0141
23082SOL    HW273609   4.552   3.517   7.096 -2.3059  0.4634 -0.0711
23083SOL     OW73610   8.210   0.665  10.186  0.1797 -0.2564 -0.4936
23083SOL    HW173611   8.136   0.687  10.129  1.7915  1.3081 -2.0722
23083SOL    HW273612   8.202   0.570  10.199 -2.4936 -0.0353  0.0257
23084SOL     OW73613   5.899   5.102   4.395 -0.4339  0.1241 -0.0207
23084SOL    HW173614   5.940   5.098   4.308  0.0909 -1.1134  0.2572
23084SOL    HW273615   5.805   5.101   4.378 -0.3422  0.3570 -0.5780
23085SOL     OW73616  10.428   2.055   2.081  0.2999  0.4621  0.0967
23085SOL    HW173617  10.419   2.136   2.031 -1.7845  0.8120  0.9203
23085SOL    HW273618  10.344   2.010   2.069  1.6818 -2.0040 -0.9741
23086SOL     OW73619   9.372   8.608   4.307 -0.3270  0.1650  0.2631
23086SOL    HW173620   9.385   8.588   4.400  1.4231 -0.2104 -0.0249
23086SOL    HW273621   9.353   8.523   4.267  1.3411 -0.0824 -0.0677
23087SOL     OW73622   9.622   9.624   6.763  0.3930  0.1775 -0.0185
23087SOL    HW173623   9.570   9.603   6.841  0.9677  2.7884  1.2053
23087SOL    HW273624   9.712   9.634   6.797  0.5767  1.7819 -0.8926
23088SOL     OW73625   5.085   9.100   8.516 -0.0421 -0.1942 -0.0449
23088SOL    HW173626   5.087   9.195   8.506  0.1735 -0.2933 -1.0080
23088SOL    HW273627   4.993   9.080   8.531 -0.3575  0.0109 -1.5795
23089SOL     OW73628   0.528   4.640   5.727 -0.1827 -0.6397  0.7276
23089SOL    HW173629   0.485   4.646   5.641 -0.2610 -3.0100  0.5320
23089SOL    HW273630   0.621   4.650   5.708  0.0755 -3.6700 -0.1051
23090SOL     OW73631   4.165   4.508   9.059  0.5212  0.3406 -0.3485
23090SOL    HW173632   4.160   4.502   8.963 -0.5397 -0.2359 -0.2682
23090SOL    HW273633   4.255   4.482   9.080  0.8232  0.6745 -1.2032
23091SOL     OW73634   7.681   2.820  10.449 -0.3427 -0.6158  0.5761
23091SOL    HW173635   7.774   2.824  10.427 -0.6817 -2.7274 -1.5340
23091SOL    HW273636   7.679   2.836  10.544  2.0590  0.1917  0.5638
23092SOL     OW73637   4.052  10.049  10.236  0.5932 -0.1528  0.3174
23092SOL    HW173638   4.038   9.979  10.172 -0.3339  0.7501 -0.4995
23092SOL    HW273639   4.024  10.011  10.320  1.0081 -1.0678  0.0515
23093SOL     OW73640   7.106  10.391   7.124  0.1471 -0.5443 -0.9220
23093SOL    HW173641   7.139  10.328   7.060 -1.8250 -2.0600 -0.5574
23093SOL    HW273642   7.079  10.338   7.199  1.0364  1.0535  0.6102
23094SOL     OW73643   8.345   6.344   2.196  0.1709  0.2135  0.0838
23094SOL    HW173644   8.402   6.421   2.190  0.8507 -0.1553  1.4721
23094SOL    HW273645   8.390   6.286   2.257 -1.4240 -0.3462  0.7638
23095SOL     OW73646   4.315  10.063  10.122  0.2444 -0.0551 -0.1345
23095SOL    HW173647   4.273  10.005  10.186 -3.0544  1.4699 -0.6941
23095SOL    HW273648   4.298  10.020  10.038 -1.4866  1.2091 -0.4788
23096SOL     OW73649   0.516   8.684   9.570 -0.5548  0.1344 -0.5971
23096SOL    HW173650   0.449   8.711   9.633 -1.5480 -0.4331 -1.3842
23096SOL    HW273651   0.570   8.762   9.558 -1.0722  0.6097  0.0465
23097SOL     OW73652   9.575   0.676  10.743 -0.1475  0.0257 -0.3160
23097SOL    HW173653   9.522   0.609  10.700 -0.2065  0.9601 -1.8055
23097SOL    HW273654   9.646   0.627  10.785 -1.4696 -1.1342  0.6397
23098SOL     OW73655   7.876   2.162   3.142 -0.8087 -0.1982  0.1052
23098SOL    HW173656   7.853   2.114   3.062  0.2446 -1.2915  0.4311
23098SOL    HW273657   7.805   2.143   3.203 -1.0355 -0.2890 -0.1808
23099SOL     OW73658   1.187   8.906   4.700 -0.1162  0.4036  0.5893
23099SOL    HW173659   1.123   8.848   4.659  0.1466  0.1768  0.4961
23099SOL    HW273660   1.140   8.989   4.712 -0.0331  0.6647 -0.7026
23100SOL     OW73661   7.398   7.863   7.995 -0.0931  0.0942  0.1154
23100SOL    HW173662   7.371   7.783   7.951 -0.2012  1.2124 -1.9960
23100SOL    HW273663   7.451   7.909   7.930 -1.4942  2.5378  0.5783
23101SOL     OW73664   2.702   7.437  10.730  0.2440  0.0977 -0.5303
23101SOL    HW173665   2.757   7.362  10.706  0.0845  0.5339 -2.4263
23101SOL    HW273666   2.750   7.513  10.697 -0.7068  0.6148 -0.7663
23102SOL     OW73667   5.282   8.000   5.986  0.1888 -0.3756  0.1518
23102SOL    HW173668   5.290   8.034   6.075 -1.3550  0.8344 -0.1304
23102SOL    HW273669   5.370   8.004   5.950  0.9498 -1.4165  1.7867
23103SOL     OW73670   9.729   8.883   2.752 -0.0773  0.1067  0.3126
23103SOL    HW173671   9.681   8.965   2.737  0.1943  0.6056  1.9053
23103SOL    HW273672   9.670   8.832   2.808  0.2026 -0.3535  0.1894
23104SOL     OW73673   0.316   1.318   3.090 -0.3000  0.1866 -0.1805
23104SOL    HW173674   0.327   1.267   3.010 -0.4654 -1.2096  0.6621
23104SOL    HW273675   0.289   1.255   3.156  0.2258  1.2312  1.0899
23105SOL     OW73676   8.420   4.617   6.182 -0.4272  0.6492 -0.3014
23105SOL    HW173677   8.389   4.670   6.255 -0.6995  0.4842 -0.2926
23105SOL    HW273678   8.342   4.570   6.152 -0.1526  0.1149 -0.1913
23106SOL     OW73679   9.491   6.719  10.657 -0.3687 -0.0896  0.0698
23106SOL    HW173680   9.480   6.667  10.578 -0.0555 -0.5092  0.2913
23106SOL    HW273681   9.540   6.796  10.630 -2.1012  0.8441 -0.5488
23107SOL     OW73682   2.883   1.110   1.084  0.0634 -0.2384 -0.3711
23107SOL    HW173683   2.905   1.097   1.176 -1.0007 -0.5481 -0.1507
23107SOL    HW273684   2.959   1.155   1.047 -0.3549  1.8914  1.1582
23108SOL     OW73685   6.171   7.710   0.019 -0.4280 -0.2493  0.1356
23108SOL    HW173686   6.233   7.750   0.081 -0.6674  0.7011 -0.2331
23108SOL    HW273687   6.087   7.711   0.065 -0.6482  0.6443 -0.2727
23109SOL     OW73688   6.158   3.142   7.060 -0.6980 -0.4359  0.4219
23109SOL    HW173689   6.236   3.102   7.021 -0.8999 -0.0588 -0.3969
23109SOL    HW273690   6.192   3.204   7.125 -0.3300 -0.5970  0.3823
23110SOL     OW73691   6.340   9.008   5.647 -0.0128 -0.1126  0.4282
23110SOL    HW173692   6.351   9.001   5.742  0.6446 -1.1101  0.2923
23110SOL    HW273693   6.336   9.102   5.630  0.8018  0.1019  1.3425
23111SOL     OW73694   1.156   6.571   5.804  0.3025  0.8229  0.0937
23111SOL    HW173695   1.061   6.572   5.816  0.3611  0.5752  0.6274
23111SOL    HW273696   1.182   6.481   5.824  0.7384  1.0763  0.7236
23112SOL     OW73697   5.427   7.435   6.792  0.5109 -0.0627 -0.6586
23112SOL    HW173698   5.390   7.363   6.842  0.1940  1.5047  1.5366
23112SOL    HW273699   5.499   7.468   6.846 -0.5741  2.4208 -0.5431
23113SOL     OW73700  10.068   4.620   8.551 -0.2100 -0.1594 -0.3893
23113SOL    HW173701  10.035   4.649   8.466  0.3541  0.4337 -0.4149
23113SOL    HW273702  10.066   4.699   8.605 -0.9821 -0.6257  0.2944
23114SOL     OW73703   9.455   1.948   9.025 -0.4037  0.1859 -0.1096
23114SOL    HW173704   9.551   1.941   9.021 -0.4523 -0.2765 -0.6752
23114SOL    HW273705   9.431   1.900   9.105 -0.1140  0.9667  0.4608
23115SOL     OW73706   3.743   4.749   0.303  0.0165  0.4103 -0.0073
23115SOL    HW173707   3.749   4.821   0.366 -0.1207  0.6238 -0.2394
23115SOL    HW273708   3.653   4.752   0.272 -0.2381 -0.3839  0.6020
23116SOL     OW73709   1.385   3.865   4.880  0.4652 -0.6186 -0.0021
23116SOL    HW173710   1.415   3.815   4.956  0.8527  0.0671  0.3014
23116SOL    HW273711   1.295   3.888   4.900  0.4484 -0.7572  0.0834
23117SOL     OW73712   1.568   7.529   6.100 -0.7370  0.5400 -0.4971
23117SOL    HW173713   1.626   7.565   6.168 -0.7128  1.8598 -1.1710
23117SOL    HW273714   1.533   7.449   6.138 -2.0730  2.0831  1.8319
23118SOL     OW73715   8.225   4.463   9.852  0.6087 -0.6514 -0.0150
23118SOL    HW173716   8.230   4.506   9.766  1.0028  1.9799  1.2398
23118SOL    HW273717   8.307   4.414   9.859  1.5767  0.8623 -0.2912
23119SOL     OW73718   0.937   0.784   0.041  0.1704 -0.0623  0.0110
23119SOL    HW173719   1.008   0.763  -0.018 -1.1924  0.0454 -1.7520
23119SOL    HW273720   0.869   0.720   0.021 -0.2499 -0.1858  1.6598
23120SOL     OW73721   2.885   4.500  10.185  0.3873 -0.2616  0.3319
23120SOL    HW173722   2.912   4.499  10.093 -0.6108  0.3139  0.0210
23120SOL    HW273723   2.960   4.465  10.232  1.3577  0.4980 -0.5908
23121SOL     OW73724   6.531   3.541   8.050 -0.4133 -0.1818 -0.5736
23121SOL    HW173725   6.497   3.575   8.133 -0.7177  0.8698 -1.1107
23121SOL    HW273726   6.457   3.547   7.990  0.3522  1.0199 -1.4523
23122SOL     OW73727   0.663   0.981   8.651  0.0740 -0.1733 -0.1497
23122SOL    HW173728   0.646   0.905   8.595 -1.2528 -0.7362  0.9541
23122SOL    HW273729   0.606   0.968   8.727  0.6427  1.3771  0.5865
23123SOL     OW73730   5.940   0.067   8.934 -0.9126 -0.0470  0.2868
23123SOL    HW173731   5.944  -0.001   9.001 -0.9351  0.3381  0.6799
23123SOL    HW273732   6.012   0.046   8.875 -1.5222 -0.9943 -0.1606
23124SOL     OW73733   9.423   5.074  10.572 -0.1469 -0.4130 -0.4461
23124SOL    HW173734   9.339   5.063  10.528 -0.2263 -0.0280 -0.3986
23124SOL    HW273735   9.411   5.031  10.657  0.1896 -1.6441 -0.9957
23125SOL     OW73736   8.511   5.080   3.943 -0.1588  0.0606 -0.1706
23125SOL    HW173737   8.575   5.022   3.901  0.9341  0.0265  1.4746
23125SOL    HW273738   8.432   5.069   3.890 -0.1770 -3.3042  0.2890
23126SOL     OW73739   5.356   6.792   5.971  0.5357 -0.2368 -0.2374
23126SOL    HW173740   5.433   6.820   6.020  0.8961 -0.3572 -0.7240
23126SOL    HW273741   5.315   6.874   5.943 -0.4420 -0.1352  1.4156
23127SOL     OW73742   7.423   3.574   8.839 -0.0309  0.4448  0.5149
23127SOL    HW173743   7.392   3.600   8.752 -0.5035  0.0196  0.5532
23127SOL    HW273744   7.514   3.604   8.841 -0.1591  0.8942  0.0590
23128SOL     OW73745   1.982   8.889   7.290  0.2110  0.1288  0.1708
23128SOL    HW173746   1.940   8.970   7.318 -0.4471  0.0204 -0.4765
23128SOL    HW273747   2.070   8.915   7.265 -0.7463  1.1436 -2.4624
23129SOL     OW73748   8.958   3.903   1.921 -0.1309  0.0383 -0.0387
23129SOL    HW173749   8.950   3.923   1.828  2.1170 -0.9683 -0.5203
23129SOL    HW273750   9.003   3.979   1.959 -0.3412  0.1114  0.0640
23130SOL     OW73751   6.222   5.562   8.700 -0.1876 -0.8950 -0.5276
23130SOL    HW173752   6.253   5.497   8.763  0.1806 -1.0001 -0.8142
23130SOL    HW273753   6.235   5.646   8.743 -2.3338 -1.0625  0.5910
23131SOL     OW73754   9.925   3.777   6.584 -0.5376 -0.7209 -0.3584
23131SOL    HW173755   9.954   3.775   6.493  3.3677 -1.7605  0.7112
23131SOL    HW273756   9.936   3.868   6.611 -2.3852 -0.2550 -1.0095
23132SOL     OW73757   0.129   7.320   0.587  0.1361  0.6319  0.6839
23132SOL    HW173758   0.091   7.277   0.510  0.5841 -0.3007  0.9645
23132SOL    HW273759   0.191   7.383   0.552  0.0749  0.4665  0.2736
23133SOL     OW73760   0.601   4.557   8.432 -0.0606 -0.0548  0.1833
23133SOL    HW173761   0.634   4.552   8.342  1.1113  0.1624  0.5800
23133SOL    HW273762   0.569   4.646   8.442  0.7232  0.2225  0.2731
23134SOL     OW73763   3.216  10.468   8.967 -0.0002 -0.0166 -0.3866
23134SOL    HW173764   3.190  10.431   8.883  0.7260 -1.1028 -0.1518
23134SOL    HW273765   3.271  10.543   8.944 -3.1761  2.3404 -0.8950
23135SOL     OW73766   4.227   5.587   5.235  0.0094  0.1228  0.2488
23135SOL    HW173767   4.292   5.632   5.289  1.1217 -2.2121  0.9994
23135SOL    HW273768   4.280   5.535   5.173 -1.0085 -2.4116  1.3570
23136SOL     OW73769   2.670   9.765   9.649 -0.4918 -0.0668  0.3907
23136SOL    HW173770   2.678   9.697   9.582  1.4677  1.2837 -0.8498
23136SOL    HW273771   2.621   9.835   9.605  2.9014  1.8653 -0.6802
23137SOL     OW73772   1.954   2.043   5.688  0.2390 -0.1862 -0.2645
23137SOL    HW173773   1.930   2.133   5.663  1.4172  0.4911  0.9206
23137SOL    HW273774   1.875   2.008   5.729  0.2754  0.9244  0.8170
23138SOL     OW73775   9.383  10.580   3.666  0.1025  0.0714 -0.3807
23138SOL    HW173776   9.434  10.514   3.619  1.0599  1.3362 -1.1971
23138SOL    HW273777   9.300  10.537   3.687  1.6470 -2.2348  1.4372
23139SOL     OW73778  10.836   3.787   4.535  0.0372 -0.4701 -0.1090
23139SOL    HW173779  10.773   3.859   4.546  0.1712 -0.0011 -1.9537
23139SOL    HW273780  10.919   3.822   4.568  0.0838  0.2271 -0.9168
23140SOL     OW73781   0.220   5.901   9.232  0.4125  0.0804  0.3251
23140SOL    HW173782   0.250   5.988   9.205  0.9916 -0.1535  0.1948
23140SOL    HW273783   0.255   5.842   9.165  1.4878 -0.4539  1.3365
23141SOL     OW73784   7.444   7.477   1.001  0.4540 -0.2543 -0.0854
23141SOL    HW173785   7.388   7.412   0.960 -1.5064 -0.0566  2.0646
23141SOL    HW273786   7.487   7.522   0.928 -0.6781 -1.7489 -1.7335
23142SOL     OW73787  10.989   3.712  11.007  0.4564  0.1726  0.0385
23142SOL    HW173788  10.903   3.733  11.043  0.5559  0.1904  0.2646
23142SOL    HW273789  11.039   3.793  11.018  0.5556  0.1067  0.0650
23143SOL     OW73790   0.288   8.822   4.385 -0.5258 -0.1726 -0.3826
23143SOL    HW173791   0.214   8.792   4.331 -1.2099 -1.3852  1.1396
23143SOL    HW273792   0.333   8.742   4.410 -0.0657  0.3865  0.6165
23144SOL     OW73793   8.490  10.733   0.961 -0.1216 -0.2242 -0.0311
23144SOL    HW173794   8.549  10.664   0.993  0.0090  0.7493  2.0168
23144SOL    HW273795   8.435  10.754   1.037 -0.4483  1.6178 -0.7265
23145SOL     OW73796   7.462   7.768   1.769 -0.2940 -0.1870  0.2972
23145SOL    HW173797   7.377   7.725   1.760  0.1387 -1.8240  2.9530
23145SOL    HW273798   7.526   7.700   1.750  0.3895 -0.0458  1.8686
23146SOL     OW73799   5.209   8.729   1.740 -0.0660 -0.0860 -1.0075
23146SOL    HW173800   5.234   8.760   1.653 -0.0586 -2.3852 -1.9082
23146SOL    HW273801   5.290   8.693   1.777  0.0430  1.3015  0.2040
23147SOL     OW73802   2.182   5.413  10.253  0.1581 -0.0480  0.1645
23147SOL    HW173803   2.254   5.433  10.193  0.3758  0.4260  0.5765
23147SOL    HW273804   2.161   5.496  10.294  0.0172 -0.3696  0.7557
23148SOL     OW73805   6.818   3.615   5.103  0.2739  0.1336  0.0410
23148SOL    HW173806   6.903   3.635   5.140  0.5685 -0.7155 -0.1518
23148SOL    HW273807   6.832   3.615   5.008  0.2874 -0.8926  0.0272
23149SOL     OW73808   7.070   2.746   0.238  0.0335  0.5529  0.4996
23149SOL    HW173809   6.995   2.688   0.250 -0.8468  1.7331  0.9019
23149SOL    HW273810   7.099   2.729   0.149  0.9556 -1.7889  1.1650
23150SOL     OW73811   4.695   0.582   5.573 -0.0458 -0.2415 -0.1097
23150SOL    HW173812   4.608   0.590   5.614  0.2112  3.6138  0.0802
23150SOL    HW273813   4.677   0.586   5.479 -0.1160  1.8485 -0.0596
23151SOL     OW73814   7.831   5.427   5.014  0.5423  0.2735  0.1800
23151SOL    HW173815   7.804   5.353   4.959 -0.2159  0.2100  0.6336
23151SOL    HW273816   7.763   5.434   5.080  0.3120  1.7288 -0.1805
23152SOL     OW73817   8.633   0.433  10.147 -0.6303 -0.0192 -0.0565
23152SOL    HW173818   8.567   0.466  10.087 -1.6269  0.7791  1.4066
23152SOL    HW273819   8.714   0.475  10.120 -0.1922 -2.5502 -3.1565
23153SOL     OW73820   9.601   3.360   3.180 -0.2892  0.2145  0.4297
23153SOL    HW173821   9.597   3.455   3.167 -1.2233 -0.0930 -2.2954
23153SOL    HW273822   9.694   3.339   3.182 -0.0678  1.0537 -0.4295
23154SOL     OW73823   2.741   2.812   8.433  0.8937 -0.2896 -0.0585
23154SOL    HW173824   2.719   2.721   8.453 -1.4163  0.0029 -0.8731
23154SOL    HW273825   2.746   2.855   8.518 -1.4750 -0.5334  0.2870
23155SOL     OW73826   9.995   2.205   2.170 -0.2120  0.5624 -0.1793
23155SOL    HW173827   9.930   2.154   2.121 -1.3137  0.4385  1.3455
23155SOL    HW273828  10.037   2.141   2.228  0.0222  0.9675  0.1006
23156SOL     OW73829   1.025   6.790   7.074 -0.3040  0.0751  0.0561
23156SOL    HW173830   1.069   6.867   7.038 -0.1770 -0.2067 -0.3937
23156SOL    HW273831   0.937   6.792   7.036 -0.3245  0.0356  0.1007
23157SOL     OW73832   9.380   9.392  10.395  0.0906 -0.5322  0.0684
23157SOL    HW173833   9.454   9.440  10.433 -0.1854 -1.0179  1.2523
23157SOL    HW273834   9.320   9.379  10.468 -1.3762  0.2113 -0.9626
23158SOL     OW73835   0.651   8.347   7.457  0.4966  0.1126 -0.1761
23158SOL    HW173836   0.628   8.353   7.364  2.0098 -1.4087 -0.6925
23158SOL    HW273837   0.673   8.437   7.481 -1.6488  0.8774 -0.7526
23159SOL     OW73838   7.178   3.302   2.701  0.3407 -0.0858  0.0290
23159SOL    HW173839   7.239   3.346   2.760  1.1419  0.8622 -1.4512
23159SOL    HW273840   7.221   3.220   2.677  1.1084  0.6123 -1.0653
23160SOL     OW73841   2.079   4.039   4.191  0.2544  0.6801 -0.1936
23160SOL    HW173842   2.095   3.998   4.106  0.3461 -0.6036  0.4213
23160SOL    HW273843   2.161   4.082   4.213  0.1729  1.1797 -0.8286
23161SOL     OW73844   5.890   9.071   9.585 -0.0275 -0.1430 -0.1120
23161SOL    HW173845   5.848   9.090   9.501 -0.2213 -1.1592 -0.2628
23161SOL    HW273846   5.831   9.008   9.627 -0.5329  1.2293  1.3138
23162SOL     OW73847   5.180  10.877   6.603  0.0051  0.2201  0.6160
23162SOL    HW173848   5.242  10.932   6.553 -0.2926  0.5116  0.5623
23162SOL    HW273849   5.235  10.833   6.668  0.5004 -0.6188 -0.3284
23163SOL     OW73850   2.139   9.393   1.724  0.4136  0.6328 -0.0502
23163SOL    HW173851   2.061   9.447   1.713 -0.7908 -0.5144  2.1542
23163SOL    HW273852   2.155   9.393   1.819  1.3007 -1.5580 -0.1382
23164SOL     OW73853  10.078   6.509   7.350 -0.3351 -0.1711  0.3074
23164SOL    HW173854  10.081   6.566   7.427 -1.2432 -2.0851  1.8552
23164SOL    HW273855  10.143   6.441   7.369 -0.1676 -0.3616 -0.9038
23165SOL     OW73856   9.837  11.064   3.639  0.6230 -0.5169  0.0295
23165SOL    HW173857   9.838  11.015   3.557 -0.3488 -0.4821 -0.0169
23165SOL    HW273858   9.811  11.000   3.705 -0.2320 -0.1843  0.0349
23166SOL     OW73859   2.541   9.453  11.035 -0.0690 -0.3803 -0.2537
23166SOL    HW173860   2.515   9.543  11.015 -0.3429 -0.6383 -1.0825
23166SOL    HW273861   2.624   9.463  11.082 -0.4294  0.3278  0.2576
23167SOL     OW73862   7.582   8.673   4.215 -0.4485  0.4738 -0.0756
23167SOL    HW173863   7.577   8.679   4.311 -1.2093  1.5914 -0.1512
23167SOL    HW273864   7.618   8.587   4.198  1.4047  0.9216  1.2510
23168SOL     OW73865   4.402   3.947   1.756  0.0765  0.1478  0.9133
23168SOL    HW173866   4.381   3.952   1.850  1.3289  1.2591  1.1663
23168SOL    HW273867   4.496   3.967   1.752  0.2331 -0.7847 -0.5040
23169SOL     OW73868   8.043   3.649   8.564  0.2554 -0.1008 -0.2124
23169SOL    HW173869   8.060   3.561   8.597 -0.8671 -0.3323 -0.2163
23169SOL    HW273870   8.094   3.706   8.622 -1.3725 -0.5212  1.7234
23170SOL     OW73871   7.737   1.318   4.379  0.8630  0.3781 -0.6912
23170SOL    HW173872   7.790   1.355   4.309  1.5835  0.5192 -0.0795
23170SOL    HW273873   7.732   1.225   4.359  0.7594  0.4718 -1.1200
23171SOL     OW73874   0.684   0.648  10.580  0.2474 -0.1801 -0.4277
23171SOL    HW173875   0.613   0.585  10.565 -0.2335  0.1629  0.3825
23171SOL    HW273876   0.745   0.602  10.638 -0.3852  0.2821  0.6329
23172SOL     OW73877  10.864   1.624   4.141  0.0491  0.1775 -0.1185
23172SOL    HW173878  10.825   1.538   4.126 -0.5314  0.5451 -0.7403
23172SOL    HW273879  10.948   1.620   4.096  1.0677 -0.8285  1.7364
23173SOL     OW73880   0.767  10.923   7.133 -0.5484 -0.1350  0.0606
23173SOL    HW173881   0.856  10.893   7.118 -0.8374 -1.1953  0.3766
23173SOL    HW273882   0.773  10.981   7.208 -0.1436 -0.3271  0.1768
23174SOL     OW73883   3.621   7.700   2.713  0.1697  0.1123 -0.0828
23174SOL    HW173884   3.622   7.725   2.621  0.9390  2.2004  0.4424
23174SOL    HW273885   3.528   7.685   2.733 -0.0915  0.4922 -0.9733
23175SOL     OW73886   5.335   0.025   7.178  0.2199 -0.1508 -0.4432
23175SOL    HW173887   5.242   0.044   7.168 -0.0977  0.6138  2.9806
23175SOL    HW273888   5.337  -0.060   7.223  1.1569  0.0776 -0.0397
23176SOL     OW73889   3.999   7.717   6.143 -1.2868 -0.5046 -0.1900
23176SOL    HW173890   4.039   7.724   6.056 -0.0339 -0.1743  0.3776
23176SOL    HW273891   3.907   7.740   6.129 -1.2432 -0.9954 -1.5121
23177SOL     OW73892   8.589  10.740   1.544 -0.6932  0.1092 -0.4765
23177SOL    HW173893   8.559  10.652   1.565 -0.7942  0.2545  0.0156
23177SOL    HW273894   8.536  10.797   1.601 -1.6283  0.5951 -1.7944
23178SOL     OW73895   9.318   2.351   5.042 -0.1328 -0.0476 -0.0505
23178SOL    HW173896   9.381   2.344   5.113 -0.1055  0.2607 -0.0420
23178SOL    HW273897   9.233   2.348   5.084 -0.1185 -0.1338 -0.0289
23179SOL     OW73898   2.924   1.132   7.578  0.2809 -0.7073 -0.2262
23179SOL    HW173899   2.915   1.226   7.561  0.5730 -0.3902  1.2433
23179SOL    HW273900   2.870   1.116   7.655  0.3330 -1.7358 -0.3888
23180SOL     OW73901   7.196   6.250   3.299  0.1490  0.5369 -0.0200
23180SOL    HW173902   7.161   6.237   3.387  0.2135  1.3773  0.1395
23180SOL    HW273903   7.264   6.183   3.290  0.0451  0.3554  0.5113
23181SOL     OW73904   2.545   6.610   2.134  0.2479  0.5932 -0.2104
23181SOL    HW173905   2.489   6.672   2.180 -0.4007 -0.8797  1.0636
23181SOL    HW273906   2.571   6.656   2.054 -0.3449  2.4170  0.5931
23182SOL     OW73907   1.239  10.582   9.191  0.1986  0.1094 -0.0179
23182SOL    HW173908   1.161  10.584   9.136  0.2641  2.2133 -0.1216
23182SOL    HW273909   1.235  10.664   9.242  2.7687  0.7726 -0.7086
23183SOL     OW73910   4.855   5.747   5.896 -0.3068 -0.2529 -1.2370
23183SOL    HW173911   4.866   5.662   5.938  1.4784 -0.1828 -1.4541
23183SOL    HW273912   4.791   5.793   5.950  0.3740 -0.9291  0.1883
23184SOL     OW73913   8.982   9.356   5.044 -0.3598  0.6921 -0.7892
23184SOL    HW173914   9.010   9.441   5.011 -0.7770  0.7015 -1.1235
23184SOL    HW273915   8.977   9.367   5.139  0.2475  0.8420 -0.7769
23185SOL     OW73916   8.751   8.532  10.096  0.2216  0.2943  0.2514
23185SOL    HW173917   8.769   8.624  10.073  1.5870  0.0700  0.3328
23185SOL    HW273918   8.674   8.509  10.044  1.1373  0.8553 -1.4098
23186SOL     OW73919   9.520   8.327  10.521 -0.1294  0.1394  0.1963
23186SOL    HW173920   9.615   8.314  10.519 -0.2333 -1.3865  1.9279
23186SOL    HW273921   9.502   8.353  10.612 -1.3695  0.3143 -0.0857
23187SOL     OW73922   2.317   2.852   7.358  0.0804  0.0152  0.2927
23187SOL    HW173923   2.278   2.934   7.328  0.1494  0.0165  0.2042
23187SOL    HW273924   2.301   2.850   7.452  2.5421  1.4862  0.8039
23188SOL     OW73925   3.451   3.095   8.695 -0.0128 -0.0534  0.0827
23188SOL    HW173926   3.383   3.145   8.741 -0.3847 -0.0896 -0.4216
23188SOL    HW273927   3.409   3.066   8.614  0.8740  0.6790 -0.6575
23189SOL     OW73928   5.002  10.626   7.381  0.1976 -0.8049  0.0332
23189SOL    HW173929   4.925  10.571   7.365 -0.5924  0.2898 -0.1085
23189SOL    HW273930   5.048  10.627   7.297 -0.7805  0.2091 -0.5219
23190SOL     OW73931   1.246   6.028   3.896 -0.0587  0.1302 -0.3902
23190SOL    HW173932   1.334   6.054   3.923 -0.1941 -0.7172  0.9363
23190SOL    HW273933   1.194   6.107   3.905  0.2294  0.2377  0.3726
23191SOL     OW73934   3.062   2.192   7.603 -0.4899 -0.4497 -0.2447
23191SOL    HW173935   2.973   2.189   7.569 -0.6223 -0.1121  0.0709
23191SOL    HW273936   3.077   2.284   7.625  0.5309 -0.1895 -1.8529
23192SOL     OW73937   4.765   3.962   3.910  0.1873  0.1418 -1.0401
23192SOL    HW173938   4.727   4.040   3.950  3.1890  1.0105  0.4433
23192SOL    HW273939   4.739   3.890   3.967 -0.2363  0.4980 -0.7771
23193SOL     OW73940   7.396   7.830   7.157 -0.0021 -0.4433  0.3684
23193SOL    HW173941   7.438   7.750   7.190  0.3130 -0.0818  0.8678
23193SOL    HW273942   7.390   7.817   7.062  1.4646 -0.4159  0.2430
23194SOL     OW73943   4.271   2.767   5.260 -0.5372 -0.1593  0.2273
23194SOL    HW173944   4.256   2.808   5.175 -1.5156  0.1927  0.5551
23194SOL    HW273945   4.185   2.768   5.302 -0.0937 -0.4716  1.1576
23195SOL     OW73946   2.805   4.836  10.664 -0.0617  0.4178 -0.3630
23195SOL    HW173947   2.743   4.835  10.591  0.2925  0.4656 -0.6689
23195SOL    HW273948   2.753   4.810  10.740 -0.4943  0.6297 -0.5823
23196SOL     OW73949   7.650   8.886  10.207  0.0413 -0.1263  0.1352
23196SOL    HW173950   7.625   8.931  10.126 -0.5007 -0.8421 -0.1122
23196SOL    HW273951   7.568   8.880  10.257  0.1621 -0.5763  0.2854
23197SOL     OW73952  10.483   7.859   4.071  0.6580  0.1997 -0.1740
23197SOL    HW173953  10.534   7.912   4.131 -1.1448 -0.8115  2.4190
23197SOL    HW273954  10.394   7.895   4.077 -0.6724 -2.9910  1.7709
23198SOL     OW73955   0.983  10.585   3.518  0.1589 -0.2928  0.0183
23198SOL    HW173956   0.969  10.676   3.543  1.2329 -0.2278  0.4378
23198SOL    HW273957   1.028  10.546   3.593  1.2929 -0.7079 -0.8470
23199SOL     OW73958   1.007   4.800   3.241 -0.1750  0.0610 -0.5945
23199SOL    HW173959   1.012   4.783   3.147 -0.6843  1.3716 -0.8759
23199SOL    HW273960   1.028   4.716   3.282  0.6463 -0.3737 -1.8650
23200SOL     OW73961   4.055   5.601   0.158 -0.5071 -0.0871  0.0919
23200SOL    HW173962   4.056   5.519   0.109 -2.4535 -0.0525 -0.1027
23200SOL    HW273963   4.011   5.663   0.099 -1.1856  0.4509  1.1336
23201SOL     OW73964  10.844   5.222  10.648  0.2396 -0.6354  0.2721
23201SOL    HW173965  10.825   5.200  10.739  2.0150  1.0039  1.1166
23201SOL    HW273966  10.787   5.297  10.629  0.9563 -0.0087  0.5590
23202SOL     OW73967   2.232  10.620   4.132  0.3356 -0.1208  0.5171
23202SOL    HW173968   2.149  10.608   4.085 -0.2895  0.6528  1.3912
23202SOL    HW273969   2.262  10.707   4.105  1.1558 -0.6191 -0.2185
23203SOL     OW73970   1.810   5.781   5.115 -0.5501 -0.5128  0.0334
23203SOL    HW173971   1.754   5.718   5.160 -1.2160 -1.0591 -1.4839
23203SOL    HW273972   1.873   5.727   5.068 -0.3050  0.0050 -0.2332
23204SOL     OW73973  10.685   7.869   9.900  0.5563  0.4804 -0.0962
23204SOL    HW173974  10.603   7.869   9.950  0.6494 -0.9794  0.1137
23204SOL    HW273975  10.742   7.930   9.948  0.3516 -0.2286  1.1087
23205SOL     OW73976   3.952   5.988   7.903  0.2465  0.3614  0.2199
23205SOL    HW173977   3.903   5.906   7.904 -0.0986  0.5046 -1.5934
23205SOL    HW273978   4.033   5.967   7.856 -0.0549  1.1392 -0.6862
23206SOL     OW73979   2.471   1.543   8.813 -1.3069 -0.2657  0.2149
23206SOL    HW173980   2.388   1.569   8.853 -2.8028 -1.0147 -2.1657
23206SOL    HW273981   2.472   1.448   8.820 -0.4709 -0.2440  0.4939
23207SOL     OW73982  10.025   0.192   8.713 -0.5144  0.0004 -0.2784
23207SOL    HW173983  10.003   0.119   8.655  1.2189 -0.4398 -0.4282
23207SOL    HW273984  10.060   0.259   8.655 -1.4773  0.7185 -0.0561
23208SOL     OW73985   9.990   0.407   1.676 -0.2821  0.1424  0.2817
23208SOL    HW173986  10.002   0.341   1.744 -0.6957  0.6351  0.8368
23208SOL    HW273987   9.927   0.469   1.713 -0.4699  0.4431 -0.5268
23209SOL     OW73988   4.800  10.781   4.980  0.3050 -0.1371  0.9566
23209SOL    HW173989   4.751  10.784   5.063  0.2980 -0.9495  0.9808
23209SOL    HW273990   4.818  10.689   4.965 -3.4377 -0.6414 -2.1068
23210SOL     OW73991   0.401   5.082   2.260 -0.1059  0.0621 -0.4589
23210SOL    HW173992   0.318   5.126   2.240 -0.3801  0.7942  1.9887
23210SOL    HW273993   0.389   5.047   2.348  2.1530  0.0659 -0.0959
23211SOL     OW73994   6.543   2.747   9.816  0.3711 -0.2303  0.4189
23211SOL    HW173995   6.570   2.801   9.742 -2.4388 -0.0054 -0.5604
23211SOL    HW273996   6.579   2.661   9.797  0.7415  0.1274 -0.5848
23212SOL     OW73997   1.770   6.755   6.845 -0.4980 -0.0954 -0.3480
23212SOL    HW173998   1.724   6.838   6.842 -0.1196  0.2687  1.8116
23212SOL    HW273999   1.725   6.705   6.914  1.5790 -0.1381  1.1007
23213SOL     OW74000   7.675   0.403   5.009 -0.4345 -0.5489 -0.2149
23213SOL    HW174001   7.652   0.342   5.079  0.0519  1.3618  1.7139
23213SOL    HW274002   7.591   0.440   4.980 -0.6172 -1.1657 -0.4786
23214SOL     OW74003   1.706   9.589   8.680  0.1982 -0.1134 -0.0642
23214SOL    HW174004   1.695   9.503   8.640  0.5957  0.1434 -0.7451
23214SOL    HW274005   1.618   9.615   8.708 -0.2333  0.0337 -1.4780
23215SOL     OW74006   8.247   2.671   1.927 -0.1284 -0.0764 -0.1022
23215SOL    HW174007   8.306   2.676   1.852 -1.9326 -0.8066 -1.6543
23215SOL    HW274008   8.244   2.578   1.950  0.0796  0.0850  0.6340
23216SOL     OW74009   7.242  10.528   0.731  0.5225 -0.0021  0.1973
23216SOL    HW174010   7.285  10.557   0.812  0.7100  0.4950 -0.0728
23216SOL    HW274011   7.313  10.496   0.676  0.5371  0.6558 -0.1810
23217SOL     OW74012   5.037   0.097   2.510 -0.0366 -0.6285 -0.5149
23217SOL    HW174013   5.129   0.123   2.517  0.0635 -1.1417  0.2283
23217SOL    HW274014   5.018   0.101   2.416  0.1396  1.4688 -0.5023
23218SOL     OW74015   5.669   2.225   0.501  0.9341  0.3269 -0.4751
23218SOL    HW174016   5.578   2.247   0.480 -0.2474 -2.3115  1.3207
23218SOL    HW274017   5.710   2.208   0.417 -0.8920 -0.6084 -1.2211
23219SOL     OW74018   2.411  10.786   4.545 -0.4598  0.0473  0.0608
23219SOL    HW174019   2.419  10.865   4.599 -1.6101  0.7434 -0.7497
23219SOL    HW274020   2.408  10.818   4.455  2.8676 -1.1911 -0.6146
23220SOL     OW74021   1.088   3.108   8.008  0.5750  0.4157 -0.0312
23220SOL    HW174022   1.109   3.065   8.091  2.3585  0.7945 -0.2621
23220SOL    HW274023   1.159   3.085   7.949 -1.5388 -1.3485 -2.0932
23221SOL     OW74024   4.036  10.661   5.062 -0.2381  0.1479 -0.2559
23221SOL    HW174025   4.006  10.570   5.064 -0.8087  0.3560  0.6835
23221SOL    HW274026   3.956  10.714   5.062  0.1007  0.6720  0.3939
23222SOL     OW74027   9.640   7.840   3.122  0.2309 -0.0927  0.0076
23222SOL    HW174028   9.722   7.855   3.075  0.5563 -2.1494 -0.1689
23222SOL    HW274029   9.633   7.745   3.130 -2.4559 -0.0243 -0.5201
23223SOL     OW74030   6.931   4.013   3.263  0.0838  0.3083  0.1039
23223SOL    HW174031   6.989   4.081   3.229 -0.0504  1.1025  1.3934
23223SOL    HW274032   6.979   3.931   3.250  1.3185  0.9050  0.7636
23224SOL     OW74033   8.969   0.058   7.576 -0.1247  0.3132 -0.0411
23224SOL    HW174034   9.041   0.119   7.587  1.9809 -2.1526  0.8030
23224SOL    HW274035   9.006  -0.027   7.598 -2.8481 -1.3340 -1.3344
23225SOL     OW74036   9.956   7.229   6.520  0.1426 -0.0817  0.2670
23225SOL    HW174037   9.962   7.320   6.549  1.3358 -0.3025  0.7656
23225SOL    HW274038   9.887   7.191   6.573 -1.8840  1.0359 -1.3967
23226SOL     OW74039   6.097   0.040   8.205 -0.2648 -0.2885 -0.3234
23226SOL    HW174040   6.096   0.112   8.141 -0.4767 -0.1185 -0.1312
23226SOL    HW274041   6.022   0.058   8.262 -0.3867 -0.7281 -0.3452
23227SOL     OW74042   1.221   6.655   7.206 -0.0177  0.5953  0.0476
23227SOL    HW174043   1.150   6.711   7.178 -0.0134  0.6464  0.1400
23227SOL    HW274044   1.200   6.569   7.170 -0.6518  0.3684  0.9258
23228SOL     OW74045  10.540   8.343   3.815  0.0010 -0.1688  0.0866
23228SOL    HW174046  10.545   8.350   3.911  2.1330 -2.5394  0.2483
23228SOL    HW274047  10.466   8.285   3.800 -1.9490  2.1781  0.0691
23229SOL     OW74048   0.505   9.336   3.660 -0.1782  0.3219 -0.7138
23229SOL    HW174049   0.539   9.371   3.742  0.4834  1.4931 -1.4479
23229SOL    HW274050   0.481   9.246   3.680  0.8735  0.2846  0.5241
23230SOL     OW74051   9.998   6.199   8.458 -0.7269  0.8526 -0.3954
23230SOL    HW174052  10.008   6.293   8.445 -1.1365  1.0991  0.8760
23230SOL    HW274053   9.957   6.191   8.545  0.8697 -0.5398  0.2884
23231SOL     OW74054   8.078   3.353  10.802  0.1167 -0.5888  0.2865
23231SOL    HW174055   8.079   3.444  10.772  3.4926  0.0557  1.8962
23231SOL    HW274056   8.071   3.302  10.721  2.3285  1.1052 -1.1152
23232SOL     OW74057   4.850   1.976   7.766  0.6159  0.3522 -0.3850
23232SOL    HW174058   4.772   2.021   7.798  1.5977  2.8423 -1.2751
23232SOL    HW274059   4.818   1.924   7.692 -0.5116 -0.2816  0.5117
23233SOL     OW74060   3.182   7.356  10.192  0.7154  0.6581 -0.2811
23233SOL    HW174061   3.128   7.395  10.122  0.2961  0.9219  0.1803
23233SOL    HW274062   3.243   7.299  10.146 -0.1654  0.1100 -0.8008
23234SOL     OW74063   1.898   5.920   6.050 -0.0636 -0.2618  1.1985
23234SOL    HW174064   1.972   5.861   6.035  0.0763  0.4758 -1.5480
23234SOL    HW274065   1.872   5.948   5.962 -1.8948  1.6116  2.2606
23235SOL     OW74066   9.423   3.407   0.658 -0.4470  0.0517 -0.0713
23235SOL    HW174067   9.444   3.478   0.598  1.4318 -1.0699 -0.8358
23235SOL    HW274068   9.366   3.349   0.608  0.9835 -0.7968 -0.7790
23236SOL     OW74069   3.018   9.895   9.065  0.0071 -0.1385 -0.5315
23236SOL    HW174070   3.050   9.985   9.069 -0.1306 -0.0180 -1.7120
23236SOL    HW274071   2.943   9.893   9.125  0.1515  0.4621 -0.3210
23237SOL     OW74072   5.851   9.618   0.169 -0.5992 -0.2401  0.5249
23237SOL    HW174073   5.824   9.535   0.208  1.0953 -1.5693 -0.9246
23237SOL    HW274074   5.805   9.620   0.084 -0.3990  0.1594  0.4249
23238SOL     OW74075   8.803   4.476   1.622  0.7069  0.2071 -0.9009
23238SOL    HW174076   8.843   4.548   1.574  0.4521  1.2468  0.4028
23238SOL    HW274077   8.716   4.466   1.582  1.1329 -0.1204 -1.7892
23239SOL     OW74078   9.543   6.942   7.438 -0.0136  0.1186 -0.1540
23239SOL    HW174079   9.472   7.007   7.439  0.5633  0.7543  0.4230
23239SOL    HW274080   9.613   6.983   7.488 -0.0444 -1.4234  1.2495
23240SOL     OW74081   3.467   4.658   9.295  0.3399  0.1320 -0.3076
23240SOL    HW174082   3.419   4.620   9.368  2.1740 -1.0386  0.3548
23240SOL    HW274083   3.435   4.748   9.290 -2.8043 -0.9090 -0.7682
23241SOL     OW74084   8.551   8.494   3.159  0.0524 -0.7607 -0.1820
23241SOL    HW174085   8.636   8.538   3.159  1.6038 -3.5343 -0.5398
23241SOL    HW274086   8.495   8.551   3.106  1.7004  1.0553 -0.0932
23242SOL     OW74087  10.054   8.996   0.727 -0.3987  0.1263  0.1627
23242SOL    HW174088  10.020   9.066   0.783 -0.8262 -0.2529  0.3889
23242SOL    HW274089  10.014   9.012   0.642 -1.7130 -0.6975  0.5916
23243SOL     OW74090   6.366   4.875   1.168  0.6582  0.2995  0.8467
23243SOL    HW174091   6.322   4.960   1.166  0.4272  0.1698 -0.9687
23243SOL    HW274092   6.450   4.890   1.125  0.6942 -0.3574  0.6857
23244SOL     OW74093   3.654   0.850   7.506 -0.1526 -0.1136 -0.1981
23244SOL    HW174094   3.570   0.817   7.475 -0.1066 -1.2321  0.8165
23244SOL    HW274095   3.686   0.783   7.566  0.4263  1.2986  1.1531
23245SOL     OW74096   4.391  10.666   1.431  0.8262 -0.3548 -0.0423
23245SOL    HW174097   4.413  10.658   1.338 -0.6409  2.1887 -0.7130
23245SOL    HW274098   4.295  10.668   1.432  0.8122 -0.9407  1.6155
23246SOL     OW74099   9.536   7.302   3.166 -0.3931  0.1495 -0.1190
23246SOL    HW174100   9.528   7.243   3.241  1.2782  0.1462  0.0962
23246SOL    HW274101   9.461   7.281   3.110 -0.5177 -1.3005  0.5500
23247SOL     OW74102   0.607   8.350   4.979 -0.2085  0.1103  0.2257
23247SOL    HW174103   0.661   8.416   5.023 -0.8107 -0.6162  2.1654
23247SOL    HW274104   0.649   8.337   4.894 -0.0906  2.9786 -0.2559
23248SOL     OW74105  10.881   6.822   0.960 -0.7061  0.0694 -0.0843
23248SOL    HW174106  10.850   6.732   0.955  0.0758 -0.1338 -1.6097
23248SOL    HW274107  10.851   6.863   0.879  0.8221  0.5566 -0.4286
23249SOL     OW74108  10.970   9.833  10.911  0.2810  0.3255  0.0281
23249SOL    HW174109  10.875   9.831  10.920  0.1689  2.2711 -0.3707
23249SOL    HW274110  10.997   9.741  10.917 -1.6872 -0.3352 -0.6124
23250SOL     OW74111   2.634  10.870   3.949 -0.6677  0.1133 -0.1326
23250SOL    HW174112   2.663  10.890   4.038  0.1479  0.1992 -0.4041
23250SOL    HW274113   2.673  10.939   3.895 -0.4279 -0.4272 -0.6636
23251SOL     OW74114   1.420   3.142   2.247  0.1188 -0.0579 -0.1293
23251SOL    HW174115   1.337   3.094   2.253 -0.0248  0.0910 -0.8708
23251SOL    HW274116   1.417   3.203   2.321  0.8634 -2.0043  1.6175
23252SOL     OW74117   9.454   0.700   1.514 -0.2019  0.0707  0.0558
23252SOL    HW174118   9.516   0.684   1.442 -0.5515  0.8811 -0.4432
23252SOL    HW274119   9.495   0.770   1.565 -1.0859  1.2333 -0.7800
23253SOL     OW74120   3.166   0.437   9.276 -0.0401 -0.7241  0.0460
23253SOL    HW174121   3.129   0.443   9.188  0.3329  0.7852 -0.0282
23253SOL    HW274122   3.097   0.471   9.333  0.9120  1.4968 -0.0285
23254SOL     OW74123   5.175   9.190   4.382  0.3088 -0.4520  0.3943
23254SOL    HW174124   5.084   9.187   4.412  0.3937 -0.8761  0.6235
23254SOL    HW274125   5.170   9.203   4.288 -0.0113 -1.5700  0.2486
23255SOL     OW74126   6.193  10.605   4.343 -0.3107 -0.1024  0.4915
23255SOL    HW174127   6.135  10.665   4.296  3.0643  2.1526 -1.2111
23255SOL    HW274128   6.199  10.642   4.431 -0.1510  0.6681  0.1653
23256SOL     OW74129  11.003   3.200   8.793  0.0439 -0.4691  0.1909
23256SOL    HW174130  11.087   3.192   8.747 -1.0680 -0.9697 -1.8312
23256SOL    HW274131  10.967   3.111   8.792 -1.0951 -0.0203 -0.1284
23257SOL     OW74132   9.376   8.845   8.468 -0.7347 -0.0780  0.2619
23257SOL    HW174133   9.313   8.913   8.444 -1.1626  0.3438  2.3422
23257SOL    HW274134   9.442   8.891   8.520 -1.6359 -1.3480  2.6977
23258SOL     OW74135   1.835   3.504   2.143 -0.0710 -0.1640  0.3087
23258SOL    HW174136   1.907   3.565   2.123 -1.6596  2.2443  1.4398
23258SOL    HW274137   1.876   3.435   2.195  1.3371  1.6159  1.7176
23259SOL     OW74138   3.547   8.237   2.724 -1.1717 -0.1694  0.8938
23259SOL    HW174139   3.494   8.283   2.789 -1.4064 -0.0597  0.6283
23259SOL    HW274140   3.483   8.197   2.665 -0.9759  0.7802 -0.0045
23260SOL     OW74141   5.957   2.440   4.037 -0.2562  0.2439 -0.1000
23260SOL    HW174142   5.927   2.481   3.956  0.0769  3.6647  1.3505
23260SOL    HW274143   6.029   2.383   4.011 -1.1885  0.0091 -2.3390
23261SOL     OW74144   2.741   9.965   9.880 -0.5542 -0.2652  0.0276
23261SOL    HW174145   2.727   9.870   9.878  0.3460 -0.4440  1.0772
23261SOL    HW274146   2.750   9.986   9.973 -1.4388  0.9750 -0.1430
23262SOL     OW74147   6.804   1.644   7.010  0.1461  0.2586 -0.9777
23262SOL    HW174148   6.831   1.553   7.020 -0.5243  0.1500 -0.0250
23262SOL    HW274149   6.729   1.653   7.068 -0.6128  1.0761 -2.0433
23263SOL     OW74150   8.152   4.070   3.211  0.4580  0.1895 -0.6066
23263SOL    HW174151   8.158   3.994   3.153 -2.4365  1.5732 -2.9569
23263SOL    HW274152   8.071   4.057   3.261  0.1186  1.5309 -0.7734
23264SOL     OW74153   4.302   0.534   2.261  0.1415 -1.3480  1.0180
23264SOL    HW174154   4.237   0.502   2.199 -0.0525  1.3088 -0.3021
23264SOL    HW274155   4.385   0.500   2.229  0.3476  1.6020 -2.1393
23265SOL     OW74156   7.334   8.419   7.690  0.3180 -0.0219  0.7213
23265SOL    HW174157   7.305   8.363   7.618 -0.4842  2.2059 -0.8065
23265SOL    HW274158   7.429   8.425   7.678  0.1417  0.7193 -0.5176
23266SOL     OW74159   7.430  11.100  10.977  0.3264  0.3106  0.3886
23266SOL    HW174160   7.440  11.065  10.889  2.7759 -0.5554  0.9300
23266SOL    HW274161   7.482  11.181  10.977  0.2045  0.3951  0.9833
23267SOL     OW74162   0.529   4.266   9.484 -0.0405 -0.2857  0.1065
23267SOL    HW174163   0.618   4.259   9.519 -0.0619 -0.6578  0.0867
23267SOL    HW274164   0.513   4.361   9.478  1.3984 -0.1165 -2.5247
23268SOL     OW74165   9.375   7.180   8.919  0.3145  0.5356 -0.8067
23268SOL    HW174166   9.290   7.203   8.955  1.5718 -0.4335  3.3058
23268SOL    HW274167   9.375   7.084   8.914  0.8300  0.5699 -1.7984
23269SOL     OW74168   2.076   7.266   1.751 -0.1386 -0.8085  0.7744
23269SOL    HW174169   1.990   7.299   1.778  0.4855  0.3436  1.4618
23269SOL    HW274170   2.085   7.294   1.660  0.6553  1.6814  1.5249
23270SOL     OW74171  10.838   2.106   3.510 -0.4341 -0.0372 -0.0473
23270SOL    HW174172  10.895   2.033   3.534 -0.8150 -0.4834 -0.4857
23270SOL    HW274173  10.831   2.158   3.590  0.1539 -0.2656  0.1582
23271SOL     OW74174  10.674   5.981   4.304 -0.4419 -0.4717 -0.0766
23271SOL    HW174175  10.659   6.065   4.261 -0.6826 -0.0398  0.8358
23271SOL    HW274176  10.595   5.964   4.354  0.7286  0.2446  2.1601
23272SOL     OW74177   3.755   5.787   3.486 -0.2029 -0.0852 -0.0890
23272SOL    HW174178   3.693   5.719   3.513 -1.4313  0.6495 -0.9491
23272SOL    HW274179   3.717   5.823   3.406  1.8190 -0.2186 -1.1468
23273SOL     OW74180   0.905   8.526   3.204 -0.2223  0.6604 -0.2992
23273SOL    HW174181   0.906   8.621   3.194  1.7324  0.6355 -0.6776
23273SOL    HW274182   0.857   8.494   3.128 -0.4566  1.3214 -0.4307
23274SOL     OW74183   6.574   1.572  10.829  0.0717 -0.3875  0.4320
23274SOL    HW174184   6.633   1.504  10.862  0.6137 -0.5613 -0.8037
23274SOL    HW274185   6.584   1.645  10.890  2.9864  0.2874 -0.6411
23275SOL     OW74186   5.689   4.484   9.170 -0.0086  0.3524  0.0316
23275SOL    HW174187   5.783   4.470   9.157 -0.3215 -1.0823 -0.8981
23275SOL    HW274188   5.672   4.449   9.258  0.3244  0.5733  0.1846
23276SOL     OW74189   0.445   8.124   0.856 -0.2071  0.4971 -0.3980
23276SOL    HW174190   0.426   8.181   0.782 -1.3263 -0.1721 -0.6344
23276SOL    HW274191   0.507   8.059   0.822 -1.8545 -0.7146 -1.1887
23277SOL     OW74192   9.132   5.570   8.072 -0.0568 -0.3609  0.2938
23277SOL    HW174193   9.163   5.485   8.039 -0.2405 -0.3696  0.1398
23277SOL    HW274194   9.187   5.588   8.148  0.0385 -0.5804  0.2780
23278SOL     OW74195   7.145   0.518   2.661 -0.1545 -0.1353  0.0293
23278SOL    HW174196   7.165   0.590   2.721  3.8405 -0.5791 -0.5028
23278SOL    HW274197   7.154   0.439   2.714 -0.8026 -0.3978 -0.2377
23279SOL     OW74198   6.123   7.025   5.981 -0.1745 -0.4840 -0.4969
23279SOL    HW174199   6.175   7.099   6.012  0.2021 -0.8352 -0.2689
23279SOL    HW274200   6.169   6.993   5.904 -0.2186 -0.6105 -0.4722
23280SOL     OW74201   2.993   9.848   6.205  0.2147  0.5025 -0.4264
23280SOL    HW174202   3.023   9.843   6.114 -0.9665 -1.1724 -0.7577
23280SOL    HW274203   3.072   9.831   6.257  0.5596 -0.2343 -1.1702
23281SOL     OW74204   3.982   7.011   3.951  0.7417 -0.4714  0.0836
23281SOL    HW174205   4.043   7.058   3.894  1.6850 -2.5578 -0.7470
23281SOL    HW274206   3.925   6.963   3.891 -0.2708 -0.3098  0.8946
23282SOL     OW74207   6.118   4.593   4.764  0.2574  0.8581 -0.3149
23282SOL    HW174208   6.170   4.669   4.737  1.6543  0.2630  0.5967
23282SOL    HW274209   6.089   4.613   4.853  0.7266  0.2935 -0.0253
23283SOL     OW74210   9.519   1.589   1.271  0.6645 -0.5611 -0.2083
23283SOL    HW174211   9.478   1.526   1.330 -0.1117 -0.1967 -0.3309
23283SOL    HW274212   9.544   1.538   1.194  1.2366 -0.9478  0.2291
23284SOL     OW74213   8.717   6.139   8.453  0.7761  0.4281  0.0202
23284SOL    HW174214   8.691   6.230   8.469 -1.1592  0.0472 -0.6476
23284SOL    HW274215   8.663   6.112   8.379 -0.5327 -2.0356  1.7436
23285SOL     OW74216   1.778   1.679   2.765  0.0188  0.1393 -0.3854
23285SOL    HW174217   1.873   1.666   2.773 -0.2359 -1.2552  0.8780
23285SOL    HW274218   1.748   1.689   2.856 -1.0219  0.8219 -0.7854
23286SOL     OW74219   0.330   0.723  10.508 -0.1652 -0.1749 -0.2754
23286SOL    HW174220   0.264   0.723  10.578 -1.4431  3.1456 -1.3143
23286SOL    HW274221   0.280   0.702  10.429  0.1840  1.3789 -0.9248
23287SOL     OW74222   8.757   8.169   7.322 -0.3908 -0.0336  0.2622
23287SOL    HW174223   8.666   8.146   7.307 -0.2118 -0.8188  0.3158
23287SOL    HW274224   8.791   8.097   7.376  0.7630 -0.7902 -1.3800
23288SOL     OW74225   5.641   8.087   8.846  0.8168  0.0723 -0.8450
23288SOL    HW174226   5.693   8.011   8.873  1.6535  1.2674  1.1305
23288SOL    HW274227   5.635   8.141   8.925 -1.6137  1.0428 -1.6114
23289SOL     OW74228   2.074   8.196  10.586 -0.7280 -0.1766  0.0312
23289SOL    HW174229   2.071   8.207  10.491  2.0453 -0.6109 -0.1907
23289SOL    HW274230   2.053   8.104  10.600  1.0389 -0.6750 -0.4059
23290SOL     OW74231   3.228   9.040   1.683 -0.0211 -0.0362  0.1033
23290SOL    HW174232   3.181   9.109   1.731  1.4260  0.1611  1.3100
23290SOL    HW274233   3.295   9.010   1.744  0.3509 -1.4802 -0.9598
23291SOL     OW74234   0.236   8.436   3.100 -0.0679 -0.0821 -0.1665
23291SOL    HW174235   0.328   8.440   3.127 -0.0114  0.1539 -0.3953
23291SOL    HW274236   0.215   8.342   3.099  0.1779 -0.1362 -0.1395
23292SOL     OW74237   7.764   2.879   2.784 -0.2368 -0.0378  0.1710
23292SOL    HW174238   7.767   2.803   2.726 -1.1533 -0.3718  0.5512
23292SOL    HW274239   7.836   2.864   2.846 -0.1001 -0.3415 -0.0591
23293SOL     OW74240   5.725   6.423   2.177 -0.2222  0.7176 -0.2183
23293SOL    HW174241   5.763   6.435   2.264  0.7613  1.1431 -0.6875
23293SOL    HW274242   5.749   6.334   2.152 -1.4009  0.2285  0.3642
23294SOL     OW74243  10.545   4.616   5.316 -0.0467 -0.4326 -0.4722
23294SOL    HW174244  10.539   4.659   5.402 -3.0689 -0.4810 -0.5468
23294SOL    HW274245  10.546   4.688   5.253  0.1426 -0.4104 -0.4429
23295SOL     OW74246   5.967   9.509   4.963 -0.4046 -0.2383 -0.1383
23295SOL    HW174247   5.945   9.601   4.950 -2.2213 -0.7160 -0.7563
23295SOL    HW274248   5.945   9.491   5.055 -0.7436 -0.2208 -0.2145
23296SOL     OW74249   0.355   8.565   2.856  0.2310 -0.2152  0.0999
23296SOL    HW174250   0.401   8.645   2.882 -0.0416  0.2927 -0.9189
23296SOL    HW274251   0.312   8.535   2.936  1.6700 -0.2776  0.8928
23297SOL     OW74252   1.365   0.754   1.371 -0.1024  0.2037  0.5768
23297SOL    HW174253   1.353   0.739   1.277 -1.2183 -0.4240  0.7934
23297SOL    HW274254   1.320   0.837   1.388 -1.2149 -0.4121  0.7840
23298SOL     OW74255   1.172   4.923   5.146  0.2125 -0.2466 -0.3523
23298SOL    HW174256   1.093   4.884   5.185  0.4943 -0.1358  0.3541
23298SOL    HW274257   1.144   4.954   5.060 -0.3050 -0.9643 -0.4548
23299SOL     OW74258   0.071   9.438   4.963 -0.2007  0.1026  0.2479
23299SOL    HW174259   0.125   9.457   4.886 -0.5086  0.1949  0.0530
23299SOL    HW274260   0.124   9.465   5.037  0.5262 -0.9374  0.1291
23300SOL     OW74261   3.703   8.292   3.378 -0.1711  0.6323  0.4009
23300SOL    HW174262   3.751   8.374   3.389 -0.5235  0.6006  2.5715
23300SOL    HW274263   3.771   8.225   3.372  0.1233  1.0575 -1.5329
23301SOL     OW74264   0.193   9.505   1.056  0.0515 -0.2459  0.0583
23301SOL    HW174265   0.102   9.476   1.053 -0.1551  0.4924 -2.0113
23301SOL    HW274266   0.242   9.434   1.014  0.4373 -0.5862  1.0555
23302SOL     OW74267   1.998   0.015   0.464 -0.2946  0.1107 -0.2155
23302SOL    HW174268   2.050   0.047   0.538  0.6649  0.5361 -1.0595
23302SOL    HW274269   2.007   0.083   0.397 -1.3470 -0.1518 -0.6527
23303SOL     OW74270   2.892   1.663   8.486  0.2872 -0.1706 -0.2069
23303SOL    HW174271   2.897   1.758   8.491  2.5772 -0.2793  1.7485
23303SOL    HW274272   2.830   1.638   8.555  1.2409 -0.1073  0.7133
23304SOL     OW74273   2.344   4.326  10.225 -0.4012  0.3496 -0.2560
23304SOL    HW174274   2.256   4.303  10.257 -1.0056  1.0715 -1.3309
23304SOL    HW274275   2.368   4.403  10.276 -0.5603  0.3821 -0.2293
23305SOL     OW74276   8.581   0.006   7.220 -0.2744 -0.1440  0.6092
23305SOL    HW174277   8.579  -0.088   7.202  0.6712 -0.0592 -0.0227
23305SOL    HW274278   8.666   0.021   7.261 -0.6342  0.3617  1.1782
23306SOL     OW74279   9.574   7.901   8.007 -0.4169 -0.5637 -0.5284
23306SOL    HW174280   9.668   7.884   7.999 -0.1519  0.1175  0.9678
23306SOL    HW274281   9.540   7.826   8.055 -0.5355 -0.5100 -0.5269
23307SOL     OW74282   0.757   6.492   4.647 -0.1758 -0.5393  0.0027
23307SOL    HW174283   0.849   6.500   4.620  0.1717 -1.8230  0.7479
23307SOL    HW274284   0.707   6.518   4.569  0.8162 -0.3384 -0.5813
23308SOL     OW74285   3.456   0.967   9.800 -0.1813 -0.2428  0.0821
23308SOL    HW174286   3.393   0.959   9.871  1.9023  2.6360  2.4733
23308SOL    HW274287   3.431   1.047   9.754  0.1335 -0.5870 -0.7106
23309SOL     OW74288   0.016   5.794   5.586  0.5081 -0.6099 -0.6393
23309SOL    HW174289  -0.035   5.863   5.629 -0.5439 -1.2732 -0.8066
23309SOL    HW274290   0.100   5.836   5.566  0.1538  0.4019 -0.0675
23310SOL     OW74291   1.550   1.815   8.705 -0.7403 -0.0036  0.1184
23310SOL    HW174292   1.603   1.785   8.779  0.7300 -1.4515 -1.4314
23310SOL    HW274293   1.479   1.750   8.699 -0.6253 -0.1178  0.0026
23311SOL     OW74294   5.616   7.855   7.749 -0.1635  0.1313 -0.0086
23311SOL    HW174295   5.673   7.871   7.674  0.2252 -1.2789 -0.0472
23311SOL    HW274296   5.672   7.809   7.812 -0.9076 -0.1306  0.4775
23312SOL     OW74297   7.968   1.858   0.321  0.1744 -0.3690  0.1563
23312SOL    HW174298   7.961   1.770   0.285  0.2008  0.0429 -0.8934
23312SOL    HW274299   7.991   1.845   0.413  1.6185 -1.4543 -0.3195
23313SOL     OW74300   7.474   6.456   9.878 -0.1866 -0.1291  0.4423
23313SOL    HW174301   7.522   6.526   9.833  0.3379 -1.0141 -0.4127
23313SOL    HW274302   7.434   6.406   9.807 -0.8118 -0.5222  1.0626
23314SOL     OW74303   9.519  11.028   3.857 -0.1744 -0.2800 -0.5659
23314SOL    HW174304   9.440  11.010   3.907 -1.1924  0.6277 -1.7870
23314SOL    HW274305   9.513  10.971   3.781  0.7188 -0.7173 -0.3256
23315SOL     OW74306  10.737   2.314   2.190 -0.1642  0.5813  0.7311
23315SOL    HW174307  10.752   2.282   2.279  2.4003  0.3120  0.2680
23315SOL    HW274308  10.764   2.405   2.191 -0.0600  0.5623  0.2186
23316SOL     OW74309   0.440   6.272   4.634 -0.2412  0.4514  0.0339
23316SOL    HW174310   0.377   6.289   4.564  0.8931  2.4780 -0.5854
23316SOL    HW274311   0.524   6.263   4.589  0.3704  0.8694  1.0486
23317SOL     OW74312   3.429   6.950   9.107 -0.2806  0.1919 -0.0480
23317SOL    HW174313   3.350   6.901   9.127  0.8749 -1.2372  1.3056
23317SOL    HW274314   3.487   6.934   9.182  2.2140 -0.8635 -2.0357
23318SOL     OW74315   2.457  10.624   7.726  0.3679  1.1424 -0.1384
23318SOL    HW174316   2.414  10.551   7.682 -1.0447  0.9572  1.4589
23318SOL    HW274317   2.539  10.587   7.759 -0.4507  0.1768  0.8781
23319SOL     OW74318   9.704  10.567   7.350 -0.2654 -0.2106  0.5495
23319SOL    HW174319   9.743  10.620   7.420 -0.4112 -2.2155  2.2313
23319SOL    HW274320   9.619  10.539   7.385  0.2430 -2.3941  0.2037
23320SOL     OW74321   5.241   4.636   0.492 -0.1823 -0.0919 -0.7769
23320SOL    HW174322   5.283   4.568   0.544 -0.9349 -1.3453 -1.7438
23320SOL    HW274323   5.260   4.717   0.539  1.3612 -0.8668  0.0143
23321SOL     OW74324   3.747  10.837   4.333 -0.2897  1.0298  0.1055
23321SOL    HW174325   3.804  10.766   4.306  0.2388  2.1265 -1.9224
23321SOL    HW274326   3.725  10.818   4.424  1.4573 -0.6206  0.2417
23322SOL     OW74327   9.671   5.575   1.241  0.5518  0.0018  0.1255
23322SOL    HW174328   9.681   5.657   1.194  1.4903 -0.6057 -0.7746
23322SOL    HW274329   9.590   5.537   1.208  0.0703  0.5886  0.6074
23323SOL     OW74330   5.310   6.796   9.374  0.0814  0.4135 -0.3310
23323SOL    HW174331   5.273   6.712   9.403 -0.3270  0.9151  0.6644
23323SOL    HW274332   5.404   6.778   9.366  0.0925  0.0248  0.5255
23324SOL     OW74333   8.003   0.407   7.077  0.2254 -0.6704  0.1200
23324SOL    HW174334   7.980   0.325   7.122 -2.1497  0.1319  0.5345
23324SOL    HW274335   8.054   0.456   7.141 -0.4221 -0.8372  0.7787
23325SOL     OW74336   8.237   9.744   4.795  0.0589 -0.0381 -0.0971
23325SOL    HW174337   8.252   9.693   4.874 -0.1533  1.5250  0.9780
23325SOL    HW274338   8.190   9.822   4.824  1.3889  1.3715 -1.5050
23326SOL     OW74339   7.305   4.442   1.819  0.4121 -0.5273  0.2087
23326SOL    HW174340   7.212   4.423   1.811  0.5545 -1.0991 -0.1715
23326SOL    HW274341   7.319   4.521   1.767  0.7082 -2.2630 -2.5760
23327SOL     OW74342   3.438   8.217   8.069  0.8507 -0.0415  0.2700
23327SOL    HW174343   3.496   8.221   7.993 -1.8432 -0.2974 -1.9515
23327SOL    HW274344   3.408   8.308   8.080  1.4890  0.0605  1.3014
23328SOL     OW74345   7.216   1.437   6.652  0.1949  0.6944  0.1611
23328SOL    HW174346   7.177   1.351   6.667 -2.4181  1.8642  0.5414
23328SOL    HW274347   7.294   1.438   6.707  1.4478 -2.1039 -1.3331
23329SOL     OW74348   7.870  10.870   8.856 -0.1884 -0.2229  0.3850
23329SOL    HW174349   7.811  10.833   8.791 -0.2930 -0.8275  0.8080
23329SOL    HW274350   7.827  10.853   8.940  0.2077  0.0372  0.6485
23330SOL     OW74351   0.925   6.920   5.586 -0.1180  0.2906 -0.7117
23330SOL    HW174352   1.009   6.880   5.605 -0.6751 -0.0644  1.2934
23330SOL    HW274353   0.873   6.851   5.545  0.2101  0.1607 -0.9046
23331SOL     OW74354   3.955   1.037   3.322 -0.2704  0.1334  0.0841
23331SOL    HW174355   3.970   1.003   3.410  1.0895 -0.3065 -0.3013
23331SOL    HW274356   3.926   0.960   3.272  0.6539  0.0012 -0.2588
23332SOL     OW74357   4.704  10.027   0.942 -0.4701  0.2386 -0.1729
23332SOL    HW174358   4.658   9.946   0.923 -0.0589 -0.8373  2.7956
23332SOL    HW274359   4.796  10.002   0.949 -0.2596  1.0705  0.2414
23333SOL     OW74360   7.709   6.632   3.438 -0.3756 -0.2238 -0.3425
23333SOL    HW174361   7.673   6.599   3.356 -0.7840 -0.6193 -0.0138
23333SOL    HW274362   7.708   6.556   3.497  1.2536 -0.3176 -0.3942
23334SOL     OW74363   4.547  10.023   7.431 -0.0459  0.3193  0.3313
23334SOL    HW174364   4.585   9.982   7.353  2.0930  1.1517  0.8467
23334SOL    HW274365   4.454  10.000   7.428  0.0243  0.0762 -2.2830
23335SOL     OW74366  10.000   6.844   1.390  0.0477  0.3820  0.1963
23335SOL    HW174367   9.919   6.895   1.390 -1.3983 -1.6726 -2.1200
23335SOL    HW274368  10.015   6.823   1.482 -0.6907  2.7710  0.9242
23336SOL     OW74369   0.087  10.105   8.375 -0.6296  0.5546  0.9942
23336SOL    HW174370   0.146  10.039   8.338  0.2455  1.9976 -0.3266
23336SOL    HW274371   0.001  10.065   8.372 -0.1933 -0.3643 -0.2630
23337SOL     OW74372   0.307   6.484   7.901 -0.0339  0.4563 -0.5676
23337SOL    HW174373   0.368   6.542   7.948 -0.0217 -0.2428  0.3100
23337SOL    HW274374   0.225   6.533   7.897  0.0320  0.6172 -0.0090
23338SOL     OW74375   0.965   8.289  10.829  0.1444 -0.0087  0.3499
23338SOL    HW174376   1.046   8.254  10.866  0.8436 -2.6108 -3.0894
23338SOL    HW274377   0.990   8.324  10.744 -2.2771 -1.0436 -0.9003
23339SOL     OW74378   3.373   7.016  10.709 -0.2121 -0.1053 -0.3034
23339SOL    HW174379   3.356   7.110  10.705 -1.8483 -0.4174 -2.1200
23339SOL    HW274380   3.423   7.004  10.789  1.1905  2.4768 -0.6789
23340SOL     OW74381   2.469   3.556   5.031 -0.1190  0.1893  0.4563
23340SOL    HW174382   2.529   3.482   5.022  0.0268  0.3536  0.0376
23340SOL    HW274383   2.389   3.519   5.068  0.0240 -0.1389  0.4369
23341SOL     OW74384  10.972   3.620   4.369  0.5690  0.1290  0.1747
23341SOL    HW174385  11.061   3.649   4.390 -0.3135  3.0936  0.3356
23341SOL    HW274386  10.915   3.681   4.416 -1.5547 -0.9761 -0.8077
23342SOL     OW74387   5.785   7.692   3.137  0.2444 -0.1567  0.2964
23342SOL    HW174388   5.727   7.616   3.127 -0.7813  0.4230  1.5127
23342SOL    HW274389   5.726   7.767   3.132  0.7674  0.4347  2.1129
23343SOL     OW74390   3.325   2.950   9.056  0.6148 -0.1852  0.1680
23343SOL    HW174391   3.321   2.921   8.964 -1.7531  2.7944 -0.8339
23343SOL    HW274392   3.409   2.994   9.064 -0.0941  1.6136 -1.4001
23344SOL     OW74393   1.632   3.309   6.974  0.2398  0.2570 -0.1895
23344SOL    HW174394   1.601   3.245   7.038  0.4336 -2.1449 -2.3354
23344SOL    HW274395   1.724   3.289   6.962 -0.2916 -1.0751 -2.9220
23345SOL     OW74396  11.081   0.770   3.363  0.8136 -0.8301  0.2059
23345SOL    HW174397  11.096   0.800   3.453  0.2137  1.9914 -0.5441
23345SOL    HW274398  11.161   0.794   3.316  1.3270 -2.7429  0.0417
23346SOL     OW74399   3.137   9.697   3.806 -0.0347 -0.1170 -0.2078
23346SOL    HW174400   3.221   9.741   3.794 -0.8338  1.7701  0.6952
23346SOL    HW274401   3.082   9.730   3.734 -0.6286  0.3667  0.4535
23347SOL     OW74402   2.391   5.725   4.787  0.1258  0.4262 -0.1178
23347SOL    HW174403   2.348   5.668   4.850  0.9067 -0.4060 -0.3096
23347SOL    HW274404   2.477   5.686   4.775  1.7140  3.0643  1.6651
23348SOL     OW74405   9.753  10.511   9.164  0.2653  0.0743  0.8629
23348SOL    HW174406   9.696  10.480   9.234  0.6152 -1.3088  0.5531
23348SOL    HW274407   9.814  10.571   9.207  0.9379 -1.3133  1.8967
23349SOL     OW74408   0.772  10.020   6.780  0.1848 -0.2562 -0.4617
23349SOL    HW174409   0.790   9.940   6.730 -0.4262 -0.8730  0.2703
23349SOL    HW274410   0.692  10.055   6.741  1.0324  0.6107 -1.4853
23350SOL     OW74411   3.202  10.994   2.645  0.2820  0.2122  0.4350
23350SOL    HW174412   3.177  10.983   2.554 -0.8559  0.0436  0.7413
23350SOL    HW274413   3.168  11.080   2.669 -0.6585 -0.3115  1.0569
23351SOL     OW74414   0.230   0.742   6.022  0.1679  0.1034  0.3756
23351SOL    HW174415   0.281   0.788   6.088  0.3473 -0.5649  0.7083
23351SOL    HW274416   0.282   0.665   6.000 -0.9320 -0.9065  1.1359
23352SOL     OW74417   6.411   0.762   3.058  0.4066  0.2885 -0.2520
23352SOL    HW174418   6.464   0.759   3.138  0.1875  1.0039 -0.0753
23352SOL    HW274419   6.360   0.842   3.066 -0.5571 -0.2742 -0.5231
23353SOL     OW74420  10.889   7.149   5.887 -0.5176  0.1163  0.2685
23353SOL    HW174421  10.935   7.086   5.832 -1.1683 -0.2501  0.1351
23353SOL    HW274422  10.947   7.225   5.890 -0.2050 -0.0877 -0.4328
23354SOL     OW74423   0.143   1.236   4.417 -0.8621 -0.6267 -0.1867
23354SOL    HW174424   0.189   1.161   4.378 -2.0112 -1.7598  0.5650
23354SOL    HW274425   0.155   1.225   4.511  0.0486  0.8841 -0.0994
23355SOL     OW74426   7.796   6.123   4.750  0.1361 -0.7759  0.4229
23355SOL    HW174427   7.713   6.114   4.797 -0.6084  2.9281  0.0845
23355SOL    HW274428   7.862   6.089   4.812 -1.1359  0.8202  2.8180
23356SOL     OW74429   0.149   2.061   8.152 -0.7657  0.4666  0.1564
23356SOL    HW174430   0.235   2.081   8.189 -1.1745  1.3357  0.6831
23356SOL    HW274431   0.091   2.055   8.229 -1.4375  1.3303 -0.2614
23357SOL     OW74432   7.793   1.386   6.741  0.3289 -0.1104  0.3322
23357SOL    HW174433   7.872   1.367   6.792 -1.0043 -1.2289  2.0811
23357SOL    HW274434   7.761   1.301   6.712 -0.4779  0.2841  0.0298
23358SOL     OW74435   2.117   0.725   0.778  0.3545  0.2634  1.2091
23358SOL    HW174436   2.049   0.749   0.842  2.5575  1.1374  3.3560
23358SOL    HW274437   2.165   0.653   0.820  1.0269 -0.0764 -0.0942
23359SOL     OW74438   3.038   2.991   8.301 -0.2320  0.3221  0.4548
23359SOL    HW174439   2.962   3.047   8.320 -2.7574 -1.7936 -2.4115
23359SOL    HW274440   3.087   3.040   8.235 -0.9506  0.3137 -0.0951
23360SOL     OW74441   3.841   4.686   8.518 -0.5813 -0.0099  0.0670
23360SOL    HW174442   3.772   4.620   8.520 -1.3590  0.6351 -2.0211
23360SOL    HW274443   3.810   4.755   8.576  0.0746 -1.2425  1.9889
23361SOL     OW74444   5.476   8.532   5.429  0.5848  0.0383 -0.1201
23361SOL    HW174445   5.548   8.479   5.465  0.5852 -0.2158 -0.4842
23361SOL    HW274446   5.409   8.530   5.497 -0.1385 -1.9155 -0.8054
23362SOL     OW74447   9.579   9.560   2.790 -0.2201 -0.6043  0.1414
23362SOL    HW174448   9.503   9.505   2.771 -1.5593  1.1214  0.2962
23362SOL    HW274449   9.556   9.607   2.870 -0.9180  3.1534 -2.0621
23363SOL     OW74450   5.543   1.330   3.254  0.4096  0.2657 -0.3534
23363SOL    HW174451   5.523   1.238   3.235  0.7380  0.0240  0.4043
23363SOL    HW274452   5.572   1.366   3.170  2.1672 -0.8544 -0.3032
23364SOL     OW74453   6.121   5.151   5.989 -0.4030 -0.2757  0.1067
23364SOL    HW174454   6.070   5.148   5.908 -1.2814 -0.4013  0.6539
23364SOL    HW274455   6.210   5.127   5.962 -0.6639 -0.2170 -0.8346
23365SOL     OW74456   0.212  10.013   6.412  0.2779 -0.1157 -0.2688
23365SOL    HW174457   0.254  10.091   6.376  1.1963 -0.9826 -1.1753
23365SOL    HW274458   0.234  10.015   6.505 -0.9125  1.4194  0.0093
23366SOL     OW74459   8.416   7.093   4.757 -0.4922  0.1768  0.4457
23366SOL    HW174460   8.510   7.084   4.746 -0.5121  0.4094  0.0776
23366SOL    HW274461   8.398   7.186   4.742 -1.2269 -0.4023 -2.9878
23367SOL     OW74462   7.774  10.305   9.727  0.4310  0.4607  0.0889
23367SOL    HW174463   7.820  10.352   9.658  1.5447  0.6758  0.9592
23367SOL    HW274464   7.769  10.367   9.799 -2.8967  1.1496 -0.5362
23368SOL     OW74465   1.079   1.583   6.753 -0.3145  0.0472  0.0042
23368SOL    HW174466   1.063   1.489   6.761  0.4029 -0.2501 -1.5147
23368SOL    HW274467   1.141   1.590   6.680  0.6910  1.6061  0.9474
23369SOL     OW74468   4.309   4.811   7.130 -0.6559  0.1004 -0.5313
23369SOL    HW174469   4.403   4.811   7.145 -0.4490 -1.0889 -1.7221
23369SOL    HW274470   4.277   4.886   7.181  0.7414 -0.2576  0.9557
23370SOL     OW74471   1.566   4.699  10.676  0.0570  0.1565 -0.0049
23370SOL    HW174472   1.644   4.670  10.724 -1.4267 -0.8325  1.9353
23370SOL    HW274473   1.594   4.701  10.584  1.4252 -3.7082  0.1478
23371SOL     OW74474   5.815   4.660   1.285 -0.5816 -0.0522 -0.1407
23371SOL    HW174475   5.754   4.696   1.222 -0.9491 -1.4834 -0.6337
23371SOL    HW274476   5.892   4.717   1.280 -1.2894  0.8749 -0.5861
23372SOL     OW74477  10.322  10.493   0.208  0.0542  0.1199 -0.0362
23372SOL    HW174478  10.336  10.570   0.154  0.7053 -1.3604 -2.1087
23372SOL    HW274479  10.410  10.458   0.224 -0.3147 -2.7088 -3.1341
23373SOL     OW74480   9.863   4.549   9.298  0.9094 -0.1468 -0.0939
23373SOL    HW174481   9.853   4.606   9.221  1.7242 -0.8391 -0.7224
23373SOL    HW274482   9.956   4.550   9.317  1.2172 -2.6498 -1.1990
23374SOL     OW74483   0.530   2.400   5.355 -0.7394  0.4275  0.2739
23374SOL    HW174484   0.495   2.436   5.273 -0.5929 -0.4925 -0.2017
23374SOL    HW274485   0.462   2.341   5.387  0.0484 -0.8055 -0.2737
23375SOL     OW74486   2.091   5.660   1.775  0.2023 -0.1492  0.2746
23375SOL    HW174487   2.060   5.735   1.824  2.6315  0.8590  0.4313
23375SOL    HW274488   2.020   5.596   1.781 -1.7761  1.9329  0.4850
23376SOL     OW74489   3.791   2.811   3.946 -0.0334  0.0568 -0.7386
23376SOL    HW174490   3.843   2.756   3.888 -0.0950 -0.1473 -0.6026
23376SOL    HW274491   3.761   2.884   3.890 -0.5300 -0.4136 -1.1014
23377SOL     OW74492   7.876  10.693   0.098  0.5458  0.5802  0.2259
23377SOL    HW174493   7.860  10.735   0.013  1.1877 -0.1271 -0.2535
23377SOL    HW274494   7.817  10.617   0.098  1.1222  0.1297  0.0717
23378SOL     OW74495  10.862  10.625  11.046  0.4058  0.4068 -0.5493
23378SOL    HW174496  10.941  10.680  11.052 -0.4788  1.5356  2.6116
23378SOL    HW274497  10.794  10.675  11.092 -0.7078 -2.8778  1.7703
23379SOL     OW74498   4.105   3.984   0.951 -0.4683  0.0114 -0.1106
23379SOL    HW174499   4.172   4.002   0.885 -0.8569 -1.4774 -0.9557
23379SOL    HW274500   4.120   3.893   0.976 -1.2041  0.1358  0.8380
23380SOL     OW74501   4.787   5.909   6.412 -0.0082  0.4106  0.0018
23380SOL    HW174502   4.877   5.877   6.418  0.4910  1.6432 -0.5759
23380SOL    HW274503   4.765   5.902   6.319 -0.4161  0.3564  0.1017
23381SOL     OW74504   1.380   9.974   3.625 -0.1960  0.0838 -0.2435
23381SOL    HW174505   1.311  10.021   3.670  0.1782  0.1902  0.2259
23381SOL    HW274506   1.453   9.972   3.687  0.2360  0.0015 -0.7398
23382SOL     OW74507   7.025  10.119  10.174 -0.0173  0.9068  0.2676
23382SOL    HW174508   6.937  10.088  10.157 -0.4373  1.4218  1.4181
23382SOL    HW274509   7.016  10.182  10.245  1.2307  1.2453  0.1641
23383SOL     OW74510   8.844   9.082   9.610 -0.1747 -0.6690  0.1788
23383SOL    HW174511   8.808   9.017   9.671 -0.1322  0.9094  1.9839
23383SOL    HW274512   8.773   9.145   9.597  0.5769  0.2691  0.4864
23384SOL     OW74513   4.528   9.679   7.185  0.1008  0.0813 -0.2222
23384SOL    HW174514   4.547   9.617   7.256  4.1105 -0.0611 -1.1371
23384SOL    HW274515   4.527   9.625   7.107 -0.0863  0.7423 -0.6810
23385SOL     OW74516   6.837   3.206  10.140 -0.0983 -0.3646 -0.6049
23385SOL    HW174517   6.882   3.175  10.219  0.9435  1.2527 -0.4912
23385SOL    HW274518   6.808   3.295  10.163 -2.2957 -0.8973 -1.1268
23386SOL     OW74519   3.579   0.654   6.122  0.5047  0.0870 -0.2029
23386SOL    HW174520   3.639   0.725   6.101 -0.9987  0.7474 -2.6780
23386SOL    HW274521   3.539   0.680   6.205  0.5384  1.7859 -0.6897
23387SOL     OW74522   6.436   7.868  10.734  0.0065 -0.7808 -0.4577
23387SOL    HW174523   6.387   7.790  10.710 -0.2992 -0.7380  0.0168
23387SOL    HW274524   6.400   7.895  10.819 -0.6608  0.4888 -1.1021
23388SOL     OW74525  10.371   6.211  10.112 -0.0217  0.1700  0.6178
23388SOL    HW174526  10.365   6.118  10.136  0.0146  0.1565  0.5741
23388SOL    HW274527  10.432   6.213  10.039  0.7377  0.3418  1.2395
23389SOL     OW74528   3.767   8.878   9.468 -0.2337  0.2403  0.3701
23389SOL    HW174529   3.717   8.866   9.387  0.7976 -0.6850 -0.1546
23389SOL    HW274530   3.706   8.921   9.527 -1.5980 -0.7037 -0.2982
23390SOL     OW74531   9.216   4.618   7.788  0.3509 -0.0959 -0.0034
23390SOL    HW174532   9.292   4.568   7.759  0.5123  0.9584 -1.5413
23390SOL    HW274533   9.212   4.604   7.883  1.0660 -2.0313 -0.2125
23391SOL     OW74534   9.970   4.631  10.612 -0.1835 -0.3843 -0.2431
23391SOL    HW174535   9.900   4.667  10.665  0.2258 -0.3510  0.2829
23391SOL    HW274536  10.043   4.693  10.623  0.8831 -1.8340  1.4888
23392SOL     OW74537   6.646   1.610   4.253  0.3898 -0.0147  0.0420
23392SOL    HW174538   6.565   1.641   4.212  0.6017 -0.5769 -0.8563
23392SOL    HW274539   6.645   1.648   4.340  0.5240  2.2841 -0.8900
23393SOL     OW74540   4.919   6.344   5.947 -0.8867  0.5071 -0.6517
23393SOL    HW174541   4.885   6.432   5.931 -1.0091  0.3806 -1.1015
23393SOL    HW274542   5.007   6.345   5.909 -0.9725  0.3697 -0.8549
23394SOL     OW74543   6.590   0.144   3.419  0.1894 -0.3562 -0.0648
23394SOL    HW174544   6.559   0.232   3.440  0.3882 -0.7139  1.9272
23394SOL    HW274545   6.679   0.156   3.388  0.0325  0.1908 -0.3007
23395SOL     OW74546  10.245   4.205   4.933  0.1752  0.2210  0.5596
23395SOL    HW174547  10.338   4.226   4.925  0.9578 -2.6967  0.9755
23395SOL    HW274548  10.218   4.246   5.016  0.9235  1.4844  0.2038
23396SOL     OW74549   2.167   5.082   9.878 -0.4466  0.0154  0.3584
23396SOL    HW174550   2.219   5.058   9.954 -1.1901 -1.6031  0.3916
23396SOL    HW274551   2.116   5.004   9.857 -2.0731  1.1885 -0.3221
23397SOL     OW74552   9.378   4.630   6.510  0.4184  0.3853 -0.3601
23397SOL    HW174553   9.305   4.687   6.486  1.7343  1.5623 -1.8365
23397SOL    HW274554   9.416   4.672   6.587  1.8535  2.0646 -1.8946
23398SOL     OW74555   1.920   7.173   7.431 -0.3260 -0.0516  0.1363
23398SOL    HW174556   1.898   7.145   7.343  1.9966  1.7634 -1.1169
23398SOL    HW274557   1.984   7.108   7.462  2.2468  1.6466 -1.3329
23399SOL     OW74558   9.553   0.538   8.079  0.1883 -0.1900  0.0089
23399SOL    HW174559   9.623   0.523   8.143  0.2035  0.1770  0.0793
23399SOL    HW274560   9.479   0.486   8.111  0.3064 -0.2754  0.1415
23400SOL     OW74561   4.802   4.349   0.714  0.1405  1.1561  0.4670
23400SOL    HW174562   4.877   4.331   0.770 -1.0611  1.1760  2.1450
23400SOL    HW274563   4.811   4.442   0.691  1.8443  0.6307 -1.3254
23401SOL     OW74564   2.853  10.977   1.626 -0.1623  0.2098 -0.2841
23401SOL    HW174565   2.934  10.933   1.650 -0.2332  0.4587  0.4370
23401SOL    HW274566   2.879  11.068   1.610 -0.6694  0.9716  2.6344
23402SOL     OW74567   1.578   2.697   3.958 -0.6975  0.0860  0.3562
23402SOL    HW174568   1.656   2.719   4.009  0.3610 -1.2561 -0.6121
23402SOL    HW274569   1.513   2.671   4.023  0.8191 -2.2107  1.0770
23403SOL     OW74570   6.831   3.340   0.345  0.2038 -0.0809 -0.2974
23403SOL    HW174571   6.799   3.253   0.322  0.5727 -1.1645  2.9274
23403SOL    HW274572   6.752   3.390   0.367  0.0896  0.1009 -1.0680
23404SOL     OW74573   6.309   4.207   5.996  0.0234  0.5343  0.5185
23404SOL    HW174574   6.309   4.154   6.075  0.6243  1.1831  0.9757
23404SOL    HW274575   6.232   4.264   6.004 -0.4983 -0.1006  0.1310
23405SOL     OW74576   0.972   9.916   5.481  0.2290  0.3846  0.6291
23405SOL    HW174577   0.963   9.925   5.386  1.2996  0.2554  0.5049
23405SOL    HW274578   0.908   9.977   5.517  0.1534  0.7927 -0.1799
23406SOL     OW74579   7.587   5.858   3.348  0.1095  0.2751  0.9737
23406SOL    HW174580   7.643   5.838   3.272 -0.6830 -1.5304  0.8121
23406SOL    HW274581   7.521   5.789   3.348 -0.9163  1.2011  2.3574
23407SOL     OW74582   9.518   0.141   4.400 -0.0920 -0.1293  0.1491
23407SOL    HW174583   9.533   0.136   4.306  0.5383  0.6663  0.2054
23407SOL    HW274584   9.438   0.089   4.413 -0.4315  0.0983 -0.8755
23408SOL     OW74585   9.512   7.746   7.365 -0.0044 -0.5993  0.4485
23408SOL    HW174586   9.553   7.710   7.443 -0.6496 -0.1991  0.9837
23408SOL    HW274587   9.419   7.728   7.376 -0.2075  0.2620  0.2139
23409SOL     OW74588   1.365   9.564   9.838 -0.3992 -0.1018  0.6231
23409SOL    HW174589   1.411   9.482   9.827 -0.4433 -0.0655  0.0984
23409SOL    HW274590   1.330   9.561   9.927 -1.0587 -0.9883  0.3467
23410SOL     OW74591  10.733   0.117   2.189  0.3547 -0.8863  0.1486
23410SOL    HW174592  10.809   0.091   2.240  1.6287 -0.8311 -1.6440
23410SOL    HW274593  10.677   0.040   2.189  2.4613 -2.5595 -2.1348
23411SOL     OW74594   9.155   5.135   6.936 -0.0733  0.4676 -0.2405
23411SOL    HW174595   9.196   5.180   6.861 -0.1192  1.7989  0.5036
23411SOL    HW274596   9.094   5.073   6.896  1.7246 -0.6768 -1.3497
23412SOL     OW74597  10.170   3.381   7.431  0.1216  0.3002 -0.2052
23412SOL    HW174598  10.256   3.410   7.462  0.0755 -0.9492  1.2342
23412SOL    HW274599  10.110   3.452   7.455  0.5463  0.6039 -0.0299
23413SOL     OW74600   4.793   6.137   4.365  0.1307  1.1171  0.3942
23413SOL    HW174601   4.738   6.094   4.431 -1.0172  1.5762 -0.2431
23413SOL    HW274602   4.829   6.213   4.410 -1.5424  2.0530  0.1920
23414SOL     OW74603   6.486   9.696   0.763 -0.2949  0.4414  0.5108
23414SOL    HW174604   6.458   9.781   0.729 -1.2033  0.1355  0.4635
23414SOL    HW274605   6.405   9.657   0.797  0.4034  0.3079  2.0971
23415SOL     OW74606   8.619   7.903   7.860  0.4605  0.1171  0.7031
23415SOL    HW174607   8.671   7.962   7.806 -1.7200  0.9466 -0.6422
23415SOL    HW274608   8.593   7.832   7.801 -0.3544 -0.0010  1.1891
23416SOL     OW74609   9.795   1.218   5.428 -0.0873  0.5188  0.4769
23416SOL    HW174610   9.807   1.188   5.518 -1.3562 -0.6330  0.3031
23416SOL    HW274611   9.727   1.159   5.393 -1.9795  2.9587 -0.2346
23417SOL     OW74612   9.303   0.851   4.089  0.8201  0.0912 -0.0078
23417SOL    HW174613   9.235   0.915   4.069 -1.2473 -1.7713  0.6737
23417SOL    HW274614   9.337   0.878   4.174  1.7060  1.6193 -0.8077
23418SOL     OW74615   1.519   3.613   2.527  0.8931  0.3859  0.0619
23418SOL    HW174616   1.573   3.588   2.602 -0.5364  0.1327  1.0602
23418SOL    HW274617   1.513   3.533   2.474  1.5203  0.4268 -0.0720
23419SOL     OW74618   8.653   1.710   6.499  0.5745  0.2349 -0.1566
23419SOL    HW174619   8.576   1.654   6.508  0.7095  0.0933  0.0981
23419SOL    HW274620   8.645   1.773   6.571  0.4731  0.4855 -0.3852
23420SOL     OW74621   0.316   0.858   0.668  0.4859  0.3693  0.0834
23420SOL    HW174622   0.321   0.776   0.618 -1.0633 -0.4533  1.1570
23420SOL    HW274623   0.326   0.830   0.759  0.2242  1.4136  0.4458
23421SOL     OW74624   3.515   1.143   6.118 -0.2910  0.2296  0.1503
23421SOL    HW174625   3.474   1.191   6.190 -2.5259  0.5359 -1.2350
23421SOL    HW274626   3.443   1.099   6.074  1.1292 -0.7133 -1.3531
23422SOL     OW74627   3.956   8.923  10.696  0.1982  0.7322 -0.3312
23422SOL    HW174628   4.016   8.864  10.650 -1.2965  0.8606 -2.5733
23422SOL    HW274629   3.988   9.011  10.674  0.0769  0.7902 -0.2733
23423SOL     OW74630  10.978   4.357   0.563 -0.5326  0.8415 -0.0750
23423SOL    HW174631  10.948   4.391   0.478  1.5977  0.7080 -0.9374
23423SOL    HW274632  10.919   4.397   0.627 -2.8666  0.1035 -1.6655
23424SOL     OW74633  11.074   7.614   7.244 -0.2318 -0.1340 -0.1173
23424SOL    HW174634  10.992   7.577   7.211 -0.4634  2.5165 -2.9469
23424SOL    HW274635  11.140   7.548   7.221 -1.2301 -1.2079 -0.0355
23425SOL     OW74636   1.550   0.828   6.442  0.2062 -0.2299  0.5893
23425SOL    HW174637   1.613   0.811   6.372 -0.8556  0.9594 -0.7200
23425SOL    HW274638   1.526   0.920   6.430 -1.3196 -0.4969  1.4162
23426SOL     OW74639   8.851  11.109   1.702 -0.0875  0.6291  0.0160
23426SOL    HW174640   8.902  11.035   1.669 -1.5772 -0.4263  0.0027
23426SOL    HW274641   8.889  11.185   1.659  0.7510 -0.2465 -0.8464
23427SOL     OW74642   1.772   0.464   6.495  0.4724  0.6287 -0.2741
23427SOL    HW174643   1.832   0.391   6.480 -1.1397 -0.3080 -2.9169
23427SOL    HW274644   1.800   0.531   6.433  0.0243  0.9727 -0.1129
23428SOL     OW74645   8.869   4.723   2.731 -0.1857 -0.2671 -0.2522
23428SOL    HW174646   8.797   4.783   2.710  1.4306  1.3310 -1.4667
23428SOL    HW274647   8.937   4.744   2.668  0.9409 -2.5746  0.0753
23429SOL     OW74648   1.844   4.593   1.396  0.1548 -0.1491 -0.1085
23429SOL    HW174649   1.815   4.681   1.372  2.7015  0.9628  0.6059
23429SOL    HW274650   1.805   4.579   1.483  1.8287  1.4291  0.9728
23430SOL     OW74651   6.903   8.505   0.578  0.2345  0.3787  0.2564
23430SOL    HW174652   6.972   8.440   0.592 -0.5502 -0.9946 -1.7882
23430SOL    HW274653   6.899   8.516   0.483 -2.5172  0.2044  0.2866
23431SOL     OW74654   8.052   6.083   0.933 -0.0513  0.0190 -0.1073
23431SOL    HW174655   7.987   6.052   0.996  0.2086 -1.3700 -0.4889
23431SOL    HW274656   8.000   6.121   0.861 -0.5331 -1.9316 -0.8598
23432SOL     OW74657   2.891   6.646   6.177 -0.0088 -0.4161  0.1468
23432SOL    HW174658   2.915   6.582   6.245 -2.2572 -0.4140  1.0392
23432SOL    HW274659   2.940   6.618   6.100  0.5125 -2.0776  1.0240
23433SOL     OW74660   2.721  10.273   6.087 -0.3501 -0.4217 -0.0491
23433SOL    HW174661   2.768  10.210   6.141  2.1327  0.3058 -1.2451
23433SOL    HW274662   2.732  10.242   5.997  1.0377  1.7111 -0.6824
23434SOL     OW74663   1.148   9.047   7.428 -0.5962 -0.1931  0.0242
23434SOL    HW174664   1.153   9.049   7.332  0.2877  1.2968  0.0623
23434SOL    HW274665   1.141   9.139   7.453 -1.5612 -0.6067  1.3812
23435SOL     OW74666   8.347   9.250   2.338 -0.5493 -0.0740  0.5395
23435SOL    HW174667   8.302   9.209   2.265  1.5319 -1.3747 -0.0900
23435SOL    HW274668   8.292   9.325   2.361 -1.7222 -0.1455 -1.7583
23436SOL     OW74669   8.617   3.808   8.306  0.8956 -0.1875  0.2094
23436SOL    HW174670   8.596   3.818   8.399 -1.2793 -0.2032 -0.2300
23436SOL    HW274671   8.684   3.738   8.304  0.8049 -0.3504  1.7272
23437SOL     OW74672  10.033  10.193   3.703 -0.4678 -0.0772  0.2427
23437SOL    HW174673   9.979  10.126   3.662 -1.1483  0.2794  0.5269
23437SOL    HW274674  10.099  10.145   3.752 -0.8018 -0.5323  0.2467
23438SOL     OW74675   0.755   3.192   2.021  0.7447 -0.2766 -0.0479
23438SOL    HW174676   0.742   3.270   1.967 -1.5230 -1.2147 -0.9562
23438SOL    HW274677   0.839   3.157   1.992  0.4957  0.3290 -1.5794
23439SOL     OW74678   1.138   5.152   9.099  0.2721  0.4159 -0.2454
23439SOL    HW174679   1.219   5.103   9.114  0.2752 -0.1482 -1.9510
23439SOL    HW274680   1.165   5.228   9.048  0.0926  1.7067  1.4605
23440SOL     OW74681   4.026   0.005   2.275  0.3409  0.2563 -0.2503
23440SOL    HW174682   3.981   0.081   2.311 -1.6679 -1.2720  0.6979
23440SOL    HW274683   4.077  -0.030   2.348 -0.0102 -0.1917 -0.2135
23441SOL     OW74684   0.266   1.626   8.203 -0.1591 -0.0877  0.1060
23441SOL    HW174685   0.252   1.535   8.231 -0.7964 -0.1506 -0.3916
23441SOL    HW274686   0.179   1.656   8.177 -0.7162  1.8084  3.5270
23442SOL     OW74687   1.805   1.333   3.814  0.3714  0.0548  0.2650
23442SOL    HW174688   1.860   1.405   3.847  0.0223  0.9528 -1.0343
23442SOL    HW274689   1.819   1.262   3.876  0.7624  1.2288  1.5813
23443SOL     OW74690  10.562   7.851   1.974 -0.8877 -0.1229  0.0410
23443SOL    HW174691  10.478   7.820   1.940 -1.9529  1.3185  1.2234
23443SOL    HW274692  10.572   7.938   1.936  0.3288 -0.4604 -0.4549
23444SOL     OW74693   8.836   9.910   8.564 -0.2226 -0.2488 -0.3976
23444SOL    HW174694   8.785   9.911   8.645  0.4626 -0.1617  0.0351
23444SOL    HW274695   8.916   9.862   8.587  1.6005  2.7364 -0.0137
23445SOL     OW74696   8.891   0.315   4.455 -0.3564  0.3875  0.5019
23445SOL    HW174697   8.878   0.410   4.456 -0.1067  0.4572 -0.8883
23445SOL    HW274698   8.910   0.292   4.546 -0.5242  1.6468  0.8721
23446SOL     OW74699   7.977   6.654   8.067  0.5748 -0.1269  0.1444
23446SOL    HW174700   8.002   6.566   8.096  0.7379 -0.0743  0.1633
23446SOL    HW274701   8.015   6.662   7.980 -1.0869 -0.8086 -0.6805
23447SOL     OW74702   4.034   4.032   3.115 -0.1282 -0.2634  0.0234
23447SOL    HW174703   4.050   4.116   3.157 -1.4288  0.3559 -0.6428
23447SOL    HW274704   4.006   4.054   3.026  1.0835 -1.4804 -0.7067
23448SOL     OW74705   5.169   6.956   6.464 -0.5912 -0.2914 -0.6085
23448SOL    HW174706   5.080   6.980   6.489 -0.8092  0.3796 -1.9441
23448SOL    HW274707   5.177   6.986   6.374  0.7666 -0.9638 -0.7279
23449SOL     OW74708  10.790   9.732   5.521  0.3610  0.3222  0.0495
23449SOL    HW174709  10.789   9.815   5.473 -1.6892 -0.7540 -1.9540
23449SOL    HW274710  10.715   9.737   5.580  1.7138  0.8298  1.8300
23450SOL     OW74711   2.777   7.072   7.946  0.1489 -0.4163 -0.1588
23450SOL    HW174712   2.789   7.084   8.040  0.9590 -0.8748 -0.1963
23450SOL    HW274713   2.722   6.995   7.937  0.2865 -0.5263 -0.0603
23451SOL     OW74714   7.085   5.801   0.926  0.0148 -0.2891  0.0624
23451SOL    HW174715   7.109   5.870   0.863  0.6012  0.7310  1.3442
23451SOL    HW274716   7.077   5.847   1.010 -0.9271 -1.5770  0.7141
23452SOL     OW74717   7.383   3.605   7.303 -0.1006  0.3718 -0.4668
23452SOL    HW174718   7.402   3.669   7.372 -1.2876 -1.8040  2.0737
23452SOL    HW274719   7.287   3.597   7.303  0.0353 -1.7832 -0.2746
23453SOL     OW74720   6.186   8.465   6.160 -0.0920 -0.1103 -0.0322
23453SOL    HW174721   6.227   8.446   6.075 -1.1061  0.4721 -0.6704
23453SOL    HW274722   6.237   8.537   6.196 -0.6825  0.7919 -0.9437
23454SOL     OW74723   1.179   0.585   9.793  0.5752  0.1795 -0.0619
23454SOL    HW174724   1.098   0.603   9.747  1.2664  0.9542 -1.0154
23454SOL    HW274725   1.207   0.671   9.827  0.2288 -0.3178  1.5967
23455SOL     OW74726   9.258   2.114   7.997  0.1029  0.4566 -0.1798
23455SOL    HW174727   9.195   2.144   7.930 -0.7081  0.2497  0.4717
23455SOL    HW274728   9.242   2.020   8.005  0.6117  0.3742 -0.1173
23456SOL     OW74729   9.581  10.061   2.077  0.2978  0.4248 -0.0800
23456SOL    HW174730   9.624   9.977   2.061 -0.1997  0.1133  0.1960
23456SOL    HW274731   9.487  10.043   2.069 -0.0095  0.2696  2.7873
23457SOL     OW74732   1.796   1.006   3.568  0.2426 -0.4708  0.4017
23457SOL    HW174733   1.735   1.023   3.639  1.3152 -0.5140  1.3544
23457SOL    HW274734   1.808   0.911   3.568 -3.0042 -1.0996 -2.6313
23458SOL     OW74735   3.288   3.046   8.463  1.2411  0.1144 -0.1745
23458SOL    HW174736   3.350   3.109   8.426  0.5345  0.7461 -0.3005
23458SOL    HW274737   3.214   3.047   8.403  1.6665 -1.6648 -0.7808
23459SOL     OW74738   1.905   4.302   3.283 -1.1300  0.0136  0.2243
23459SOL    HW174739   1.858   4.385   3.293 -1.3109 -0.2465  1.8054
23459SOL    HW274740   1.998   4.326   3.287 -1.0775  0.4034 -1.8820
23460SOL     OW74741   3.032   0.591   4.152  0.4359  0.0524 -0.0182
23460SOL    HW174742   2.945   0.557   4.175 -0.2219  1.5437 -0.2070
23460SOL    HW274743   3.023   0.686   4.160  1.5854  0.3337 -1.6635
23461SOL     OW74744   1.296   9.116  10.776 -0.3272 -0.2727  0.0483
23461SOL    HW174745   1.365   9.119  10.842 -0.9658 -1.2114  0.7798
23461SOL    HW274746   1.224   9.166  10.814 -0.6822 -0.7830  0.0519
23462SOL     OW74747   1.161   7.995   3.746  0.0920 -0.1820  0.3319
23462SOL    HW174748   1.246   7.952   3.759  0.3015 -0.9558 -2.8400
23462SOL    HW274749   1.170   8.079   3.791  1.4595 -1.3840  2.4780
23463SOL     OW74750   9.926   4.285   9.646 -0.3259 -0.0480  0.0078
23463SOL    HW174751   9.943   4.367   9.691  1.0882  0.9079 -2.0916
23463SOL    HW274752  10.000   4.229   9.671 -0.5548 -0.1956  0.3577
23464SOL     OW74753   1.253  10.006   4.389  0.2565 -0.8393  0.1564
23464SOL    HW174754   1.226  10.072   4.326  0.8630 -0.1178  0.6284
23464SOL    HW274755   1.211  10.032   4.471  1.2986 -0.4346  0.5890
23465SOL     OW74756   2.364   1.595   1.539  0.5875 -0.2124  0.5954
23465SOL    HW174757   2.353   1.595   1.634 -2.2911 -0.6309  0.3716
23465SOL    HW274758   2.410   1.676   1.520  2.2517 -0.6752  2.4028
23466SOL     OW74759   1.272   6.932   7.999  0.4591  0.8103 -0.4782
23466SOL    HW174760   1.224   6.880   7.935  0.6121  0.0442  0.0223
23466SOL    HW274761   1.355   6.887   8.010  0.7407  1.3613 -0.2965
23467SOL     OW74762   7.560   6.412   8.986  0.2207 -0.1912  0.2454
23467SOL    HW174763   7.528   6.503   8.982 -0.6155 -0.4223  1.1783
23467SOL    HW274764   7.481   6.359   8.977  0.5988 -0.8112  0.5134
23468SOL     OW74765   8.917   2.411   7.103  0.2416 -0.1423  0.5570
23468SOL    HW174766   9.009   2.401   7.128  0.2775  0.1617  0.5478
23468SOL    HW274767   8.873   2.334   7.141 -0.1058  1.3123  3.4445
23469SOL     OW74768   7.398   4.062   3.118  0.4885  0.2873 -0.7561
23469SOL    HW174769   7.487   4.070   3.153 -0.1322 -1.5328  1.4824
23469SOL    HW274770   7.406   3.997   3.048  0.6931 -1.2113  0.6048
23470SOL     OW74771   3.897   3.472  11.030 -0.2223 -0.0456  0.4185
23470SOL    HW174772   3.915   3.412  11.102  1.0055 -0.5223 -0.2563
23470SOL    HW274773   3.970   3.459  10.969 -1.9055 -0.6315 -1.5652
23471SOL     OW74774   9.928   1.917   6.609  0.1933  0.1933  0.1776
23471SOL    HW174775  10.007   1.925   6.556  0.2522  2.6694  0.5164
23471SOL    HW274776   9.858   1.897   6.546  0.7111  0.3520 -0.4536
23472SOL     OW74777   7.136   2.730   0.592  0.3408  0.3935 -0.3322
23472SOL    HW174778   7.076   2.733   0.666  1.7179 -0.8755  0.8771
23472SOL    HW274779   7.129   2.818   0.553 -1.3193  0.6875  0.5098
23473SOL     OW74780   8.147   0.986  10.158  0.1892  0.3025 -0.2726
23473SOL    HW174781   8.093   0.907  10.166 -0.6213  0.8440 -0.2376
23473SOL    HW274782   8.107   1.048  10.219  1.3096  0.4810  0.3001
23474SOL     OW74783   5.041   6.730   0.549 -0.0137 -0.4929 -0.7886
23474SOL    HW174784   4.967   6.679   0.517 -1.0572  0.2346  0.3485
23474SOL    HW274785   5.071   6.683   0.627 -1.6513  1.0823  0.8848
23475SOL     OW74786   9.385   3.666   1.070 -0.7463  0.1190  0.6646
23475SOL    HW174787   9.306   3.677   1.018 -0.9848  0.5790  1.1075
23475SOL    HW274788   9.425   3.585   1.038 -0.3249  0.9264 -0.9679
23476SOL     OW74789   6.133   8.678   3.824 -0.5046 -0.1359 -0.2949
23476SOL    HW174790   6.047   8.685   3.783 -0.3657  2.3927 -0.3369
23476SOL    HW274791   6.155   8.768   3.849  3.1287 -0.1968 -2.4220
23477SOL     OW74792   8.252   8.557   5.700 -0.3654 -0.1613  0.3247
23477SOL    HW174793   8.233   8.595   5.615 -0.3363  0.3965  0.5652
23477SOL    HW274794   8.289   8.471   5.680 -0.9509 -0.2987 -0.2066
23478SOL     OW74795   0.757   3.869   6.817  0.1325 -0.2726  0.0147
23478SOL    HW174796   0.850   3.879   6.798  0.2721 -0.5159  0.5642
23478SOL    HW274797   0.731   3.789   6.772 -0.4789  1.2503 -2.5312
23479SOL     OW74798   9.818   8.189   2.572  0.1014  0.3118  0.1826
23479SOL    HW174799   9.728   8.219   2.565 -0.1071 -0.4362 -0.5486
23479SOL    HW274800   9.865   8.261   2.614 -0.7783  0.8053  0.3388
23480SOL     OW74801   0.446   2.002   5.036  0.1127  0.1351 -0.7114
23480SOL    HW174802   0.378   1.964   5.092  0.2088  0.2097 -0.5440
23480SOL    HW274803   0.525   1.952   5.058  0.0514 -0.1384 -1.1052
23481SOL     OW74804   4.544   5.234   8.929  0.2670  0.1004 -0.3740
23481SOL    HW174805   4.529   5.320   8.968 -2.4254  0.3887 -1.8440
23481SOL    HW274806   4.592   5.253   8.848  0.2362  0.1597 -0.3790
23482SOL     OW74807   1.851   3.100   2.671  0.1101 -0.5455 -0.1722
23482SOL    HW174808   1.852   3.006   2.651 -0.5943 -0.6971  0.4503
23482SOL    HW274809   1.943   3.126   2.665  0.4328 -1.4622  0.4678
23483SOL     OW74810   0.128   9.782   2.430  0.4383 -0.4362 -0.3207
23483SOL    HW174811   0.059   9.842   2.399  0.5834  0.2100  0.5937
23483SOL    HW274812   0.159   9.821   2.512 -0.3313 -2.4177  0.9743
23484SOL     OW74813   6.295   1.753   1.076  0.1997 -0.1390 -1.0073
23484SOL    HW174814   6.343   1.675   1.047 -1.0226 -0.1993 -3.0566
23484SOL    HW274815   6.335   1.825   1.029 -1.5190 -0.1688 -2.6426
23485SOL     OW74816   9.299   4.496   4.829 -0.3839 -0.2567  0.0652
23485SOL    HW174817   9.312   4.435   4.757 -1.7054  0.4461 -0.8067
23485SOL    HW274818   9.288   4.440   4.906 -1.1496 -1.1138 -0.6431
23486SOL     OW74819   1.363   8.846   3.270 -0.2812  0.2272 -0.1650
23486SOL    HW174820   1.449   8.849   3.313 -0.6279 -1.1319  0.7157
23486SOL    HW274821   1.368   8.770   3.212 -1.0894 -0.2797  0.4078
23487SOL     OW74822   9.139   4.727   8.324  0.1176  0.2769 -0.5257
23487SOL    HW174823   9.199   4.675   8.271 -0.4358  0.6722 -1.5547
23487SOL    HW274824   9.169   4.817   8.313  1.2287  0.2310  1.4456
23488SOL     OW74825   5.566   2.608   8.813  0.0318 -0.1669  0.0824
23488SOL    HW174826   5.521   2.689   8.788 -0.0974 -0.6252 -1.2799
23488SOL    HW274827   5.603   2.575   8.731  0.8901 -1.0067  0.7776
23489SOL     OW74828   4.228   7.798   7.819  0.3708  0.0284  0.1766
23489SOL    HW174829   4.190   7.816   7.732 -1.6732 -0.4633  0.9060
23489SOL    HW274830   4.265   7.711   7.811  3.1098  1.1931 -1.0681
23490SOL     OW74831   8.299   0.282   2.078 -0.1922 -0.3057 -0.3014
23490SOL    HW174832   8.311   0.212   2.014  0.4009 -1.3904  0.9557
23490SOL    HW274833   8.379   0.282   2.130 -0.4740  0.8444  0.1637
23491SOL     OW74834   0.502   7.421   8.801  0.1910 -0.2215  0.2838
23491SOL    HW174835   0.567   7.379   8.857 -1.4108 -0.1019  2.3430
23491SOL    HW274836   0.551   7.491   8.757  1.7409 -0.9808  0.7242
23492SOL     OW74837   6.097   8.975   7.748 -0.0746  0.3832 -0.2370
23492SOL    HW174838   6.117   9.020   7.830 -0.1706  0.4807 -0.2669
23492SOL    HW274839   6.085   9.046   7.685 -1.3630  0.3690 -0.0347
23493SOL     OW74840  10.729   2.719   3.736  0.2620  0.1559 -0.1233
23493SOL    HW174841  10.775   2.691   3.815  0.0658  1.5483  0.5077
23493SOL    HW274842  10.723   2.639   3.683 -0.4818 -1.0685  1.6782
23494SOL     OW74843   7.936   6.233   6.060 -0.0207  0.5781 -0.0541
23494SOL    HW174844   7.863   6.283   6.023  0.8242  0.9541 -1.2401
23494SOL    HW274845   7.987   6.204   5.985 -0.6590 -2.4598  0.5379
23495SOL     OW74846   8.533   5.261   6.010 -0.5184 -0.1678  0.3636
23495SOL    HW174847   8.454   5.213   6.033 -0.1794 -1.0056 -0.1800
23495SOL    HW274848   8.520   5.348   6.048 -0.1085 -1.3660  3.5088
23496SOL     OW74849   5.408   6.175  10.054  0.1628 -0.0765  0.2117
23496SOL    HW174850   5.498   6.143  10.042  0.5960  1.2917 -0.3198
23496SOL    HW274851   5.366   6.108  10.109  1.4467 -0.8297  0.3121
23497SOL     OW74852   8.761   8.457   7.268 -0.0086  0.8000 -0.5813
23497SOL    HW174853   8.674   8.495   7.280 -0.7782 -0.6387 -1.3873
23497SOL    HW274854   8.761   8.379   7.323  1.3144  1.5449  0.5359
23498SOL     OW74855   2.590   7.215   2.948  0.6739  0.3007  0.3130
23498SOL    HW174856   2.662   7.196   2.888  0.8697  1.1652  0.2565
23498SOL    HW274857   2.535   7.278   2.901 -0.1909 -0.4310  0.3132
23499SOL     OW74858   8.425   5.329   2.846  0.6359 -0.2459  0.0765
23499SOL    HW174859   8.479   5.381   2.906 -0.4911  0.4591  0.5185
23499SOL    HW274860   8.443   5.366   2.759  1.5521 -0.6443  0.0763
23500SOL     OW74861   7.962  10.857   7.485  0.2040 -0.2609 -0.5278
23500SOL    HW174862   7.911  10.782   7.515  1.1653 -0.2521  1.2750
23500SOL    HW274863   8.051  10.838   7.513  0.5899  1.2580 -0.6297
23501SOL     OW74864  10.037   0.970   4.798 -0.4268 -0.4132  0.5909
23501SOL    HW174865   9.998   0.883   4.789 -4.5825  1.2633  0.0874
23501SOL    HW274866  10.052   0.999   4.709 -1.0973  0.1548  0.6549
23502SOL     OW74867   1.035   0.051   6.326  0.3986 -0.3208  0.0471
23502SOL    HW174868   1.038   0.040   6.421 -1.8091 -2.6938 -0.0402
23502SOL    HW274869   1.020   0.144   6.313  0.1423 -0.0408  2.0586
23503SOL     OW74870   3.886  10.379   4.153  0.0370  0.5463 -0.3602
23503SOL    HW174871   3.871  10.435   4.077  0.8513  0.3997 -0.6468
23503SOL    HW274872   3.806  10.328   4.162 -0.9246  2.0905  0.2098
23504SOL     OW74873   6.368  10.010   1.322  0.1261 -0.1661  0.6026
23504SOL    HW174874   6.355  10.098   1.358  0.8803 -0.1156  0.7759
23504SOL    HW274875   6.400   9.958   1.397  3.0775  0.2617 -0.2139
23505SOL     OW74876   4.451   1.410   5.436  0.2155  0.0618  0.2123
23505SOL    HW174877   4.516   1.343   5.456  0.2996 -0.4494 -1.5632
23505SOL    HW274878   4.469   1.480   5.498  1.0292 -0.9685  1.1961
23506SOL     OW74879  10.463   4.222   4.412 -0.4349  0.2016 -0.1312
23506SOL    HW174880  10.431   4.134   4.391 -2.2379  1.1273 -1.5477
23506SOL    HW274881  10.426   4.241   4.498 -1.3492  0.1586 -0.5072
23507SOL     OW74882   8.526   6.575   1.837  0.3443 -0.1812  0.3185
23507SOL    HW174883   8.559   6.655   1.877 -1.6461  0.9491 -0.1386
23507SOL    HW274884   8.563   6.575   1.749 -0.1395  0.5980  0.1060
23508SOL     OW74885   0.380   2.872   2.297 -0.8150  0.1826 -0.3852
23508SOL    HW174886   0.445   2.841   2.360 -1.4807 -1.8242 -0.6078
23508SOL    HW274887   0.351   2.956   2.332  0.6599  0.3139  0.6074
23509SOL     OW74888   4.957   3.070   3.960  0.4845  0.4916 -0.8504
23509SOL    HW174889   5.016   3.145   3.971  0.9771 -0.0458  0.2997
23509SOL    HW274890   4.997   3.018   3.891  1.2557  0.2545 -0.2438
23510SOL     OW74891   7.509   7.462   7.460 -0.7987 -0.2021  0.3346
23510SOL    HW174892   7.510   7.532   7.395  0.3871 -0.2116  0.3325
23510SOL    HW274893   7.601   7.450   7.484 -0.9137 -2.0533  0.0072
23511SOL     OW74894   2.142   1.681   7.850  0.2604 -0.0246  0.5181
23511SOL    HW174895   2.233   1.665   7.825 -0.1200 -0.5105 -0.5775
23511SOL    HW274896   2.091   1.617   7.802 -0.6801  0.2547  1.1053
23512SOL     OW74897  10.182   2.563   8.155  0.7236  0.2508 -0.1660
23512SOL    HW174898  10.130   2.570   8.235 -1.4770  3.7277 -1.6850
23512SOL    HW274899  10.265   2.605   8.177  0.2600  0.8896  0.4043
23513SOL     OW74900   6.842   4.947   7.882  0.6262  0.3986 -0.1799
23513SOL    HW174901   6.924   4.980   7.845 -0.8593  1.9539 -2.3517
23513SOL    HW274902   6.794   5.025   7.908 -1.4997 -0.1717 -2.0693
23514SOL     OW74903   6.501   7.330   5.043 -0.3300 -0.1395 -0.2027
23514SOL    HW174904   6.432   7.390   5.017 -0.3737  0.1392  0.5486
23514SOL    HW274905   6.574   7.387   5.068 -0.4189 -0.3934  0.6455
23515SOL     OW74906  10.305   6.180   5.405  0.7346  0.6631  0.6394
23515SOL    HW174907  10.294   6.150   5.315  0.8329  1.8369  0.2138
23515SOL    HW274908  10.217   6.180   5.442  1.0755 -4.1243  2.0726
23516SOL     OW74909   0.038   6.527   7.948  0.3510 -0.2465 -0.0224
23516SOL    HW174910  -0.004   6.462   7.893 -1.8336  0.5775  0.5833
23516SOL    HW274911   0.030   6.609   7.900 -0.8139  0.3274  1.0898
23517SOL     OW74912   2.179   1.274   8.652 -0.4873  0.0940 -0.4156
23517SOL    HW174913   2.259   1.248   8.698 -1.1647  0.3884  0.9420
23517SOL    HW274914   2.192   1.366   8.631 -0.7569  0.3376  0.4498
23518SOL     OW74915   2.164   4.320   3.355 -0.4051 -0.1871  0.0368
23518SOL    HW174916   2.120   4.312   3.440 -1.2310  1.4605 -0.1783
23518SOL    HW274917   2.192   4.232   3.334 -1.0331 -0.7983  1.5774
23519SOL     OW74918   9.053   1.700   0.512  0.3416  0.9158  0.1664
23519SOL    HW174919   9.128   1.738   0.466 -0.1174  1.0641 -0.4710
23519SOL    HW274920   8.986   1.769   0.508 -0.1639  0.4131 -0.1496
23520SOL     OW74921   8.871   1.541   3.194  0.2235  0.8781  0.4677
23520SOL    HW174922   8.823   1.552   3.112  0.3551  1.7442  0.4949
23520SOL    HW274923   8.963   1.550   3.168  0.3225  0.1570  0.5584
23521SOL     OW74924   3.657   2.920   1.559 -0.3709  0.0007  0.0445
23521SOL    HW174925   3.562   2.918   1.545 -0.2529 -0.1446 -0.7374
23521SOL    HW274926   3.677   3.011   1.578 -0.5694  0.1477 -0.4601
23522SOL     OW74927   8.555   3.724   5.566  0.1215 -0.0349  0.0938
23522SOL    HW174928   8.515   3.661   5.506  0.8482  0.2146 -0.6726
23522SOL    HW274929   8.533   3.692   5.654  0.9098 -1.6420 -0.2735
23523SOL     OW74930   6.919  10.460   2.152 -0.0325  0.0096 -0.3178
23523SOL    HW174931   6.841  10.405   2.161  0.3045 -1.2891 -3.7373
23523SOL    HW274932   6.891  10.531   2.094  0.8457  0.6564  0.0267
23524SOL     OW74933   8.879   6.065   4.930 -0.3520  0.4603 -0.5658
23524SOL    HW174934   8.896   5.999   4.997 -0.2237  0.3658 -0.6911
23524SOL    HW274935   8.829   6.020   4.862  0.2339  0.3403 -0.9228
23525SOL     OW74936   1.177   8.995   9.314  0.5750  0.1700 -0.4766
23525SOL    HW174937   1.129   8.955   9.241  0.3433 -1.5381  0.5594
23525SOL    HW274938   1.245   8.932   9.335 -0.2151 -0.0504  1.6525
23526SOL     OW74939   5.916   4.533   6.556 -0.2936 -0.2942  0.0847
23526SOL    HW174940   5.912   4.605   6.493  1.0752  0.2283  0.5462
23526SOL    HW274941   5.879   4.458   6.509 -0.6679  0.4331 -0.8129
23527SOL     OW74942   9.535   1.974  11.002 -0.3529  0.3377 -0.3224
23527SOL    HW174943   9.614   2.013  10.964  0.0814 -1.4328 -1.3191
23527SOL    HW274944   9.563   1.888  11.034 -1.0960  1.0471  2.5718
23528SOL     OW74945   3.180   4.039   1.622 -0.0970 -0.6292 -0.2586
23528SOL    HW174946   3.106   4.021   1.564  0.1394  0.0931 -0.8123
23528SOL    HW274947   3.219   4.119   1.586  1.2418 -1.2625 -0.2597
23529SOL     OW74948  10.597  10.244   8.036 -0.2101  0.3413 -0.6054
23529SOL    HW174949  10.576  10.290   7.954 -1.4261  0.0365 -0.4889
23529SOL    HW274950  10.683  10.206   8.021 -1.0725 -1.0891 -2.3873
23530SOL     OW74951   1.681   9.116   4.048  0.6008  0.1873 -0.2979
23530SOL    HW174952   1.700   9.201   4.088  3.6012 -0.0472 -0.9756
23530SOL    HW274953   1.723   9.120   3.962  3.0177 -2.7108  0.5401
23531SOL     OW74954   1.618   1.162   8.526  0.0186 -0.5177 -0.5126
23531SOL    HW174955   1.588   1.209   8.604 -0.7139 -0.8730 -0.5751
23531SOL    HW274956   1.556   1.090   8.516  0.9863 -1.3690 -0.5522
23532SOL     OW74957   7.832   2.951   7.601  0.4647 -0.1448  0.4891
23532SOL    HW174958   7.914   3.000   7.590  0.9513 -1.0981 -0.2564
23532SOL    HW274959   7.842   2.875   7.545 -2.4602  1.5370 -2.6239
23533SOL     OW74960   6.885   2.159   3.037  0.1322  0.0742  0.3114
23533SOL    HW174961   6.894   2.204   2.952  1.5520  0.4158  0.6124
23533SOL    HW274962   6.797   2.180   3.066 -1.4100 -2.2010 -2.2559
23534SOL     OW74963   4.002   5.711   8.365  0.4044 -0.2100 -0.1908
23534SOL    HW174964   3.928   5.652   8.350  0.7999 -0.7378 -0.1246
23534SOL    HW274965   4.066   5.657   8.411  1.3949 -0.1793 -1.4778
23535SOL     OW74966  10.664   4.586   9.487 -0.6119  0.4561 -0.1057
23535SOL    HW174967  10.614   4.618   9.562  1.3148 -0.5637  1.7107
23535SOL    HW274968  10.719   4.659   9.461 -0.2801  0.3918  0.3985
23536SOL     OW74969   3.220   8.214   3.590 -0.2842 -0.0257 -0.8527
23536SOL    HW174970   3.290   8.278   3.593 -1.4233  1.2615 -0.9145
23536SOL    HW274971   3.232   8.162   3.670 -0.2376  1.2458 -0.0085
23537SOL     OW74972   2.304   4.872   8.529  0.4220 -0.0104 -0.6019
23537SOL    HW174973   2.212   4.849   8.516  0.1398  1.0471 -0.6027
23537SOL    HW274974   2.352   4.822   8.464  0.0603 -1.9628  0.5522
23538SOL     OW74975   8.289   5.419   4.951  0.3796 -0.1553 -0.7637
23538SOL    HW174976   8.200   5.444   4.976  0.3607 -0.7487 -0.2111
23538SOL    HW274977   8.301   5.457   4.864 -0.7070 -0.7519 -1.1957
23539SOL     OW74978   2.982   4.982   5.003  0.4833 -0.6429  0.2460
23539SOL    HW174979   3.042   5.049   4.971 -1.5500  0.1898 -2.2593
23539SOL    HW274980   2.895   5.015   4.980 -0.7931 -2.8768  1.4848
23540SOL     OW74981   6.444   6.831   2.358 -0.3892 -0.4750  0.1020
23540SOL    HW174982   6.529   6.802   2.325 -0.6697 -0.2983 -0.8199
23540SOL    HW274983   6.413   6.758   2.413 -0.3030 -1.1925 -0.7749
23541SOL     OW74984   6.048   4.816   1.367  0.9045 -0.0248  0.1654
23541SOL    HW174985   6.054   4.897   1.315 -0.7424  0.6500  0.9487
23541SOL    HW274986   6.036   4.847   1.457 -0.5214 -1.1246  0.3800
23542SOL     OW74987   0.277   2.500   5.802  0.4237 -0.4245  0.1597
23542SOL    HW174988   0.212   2.505   5.732 -0.6442  0.7508  1.1793
23542SOL    HW274989   0.274   2.409   5.831  0.0535 -0.6499 -0.5652
23543SOL     OW74990   7.330   6.456   1.503 -0.2511 -0.0975  0.0672
23543SOL    HW174991   7.361   6.388   1.445 -2.1851 -1.4662  0.5384
23543SOL    HW274992   7.270   6.508   1.450  2.0752  2.0753 -0.6313
23544SOL     OW74993   9.240  10.768   0.431 -0.6534  0.4265 -0.2607
23544SOL    HW174994   9.178  10.792   0.499 -0.3487 -1.0045  0.5597
23544SOL    HW274995   9.324  10.762   0.476 -0.4317 -0.4630 -0.7652
23545SOL     OW74996   8.752   8.593   3.827  0.4877 -0.0483 -0.3453
23545SOL    HW174997   8.720   8.642   3.903  1.3854 -1.0918  0.7333
23545SOL    HW274998   8.678   8.594   3.766 -0.1589  1.0429  0.4137
23546SOL     OW74999   6.196   3.104   1.358 -0.2003  0.4045 -0.0554
23546SOL    HW175000   6.262   3.037   1.372 -0.3558  0.1837 -0.3553
23546SOL    HW275001   6.211   3.168   1.427  1.9566  1.6823 -1.6032
23547SOL     OW75002   6.900   2.331   2.249  0.5237 -0.3714  0.0848
23547SOL    HW175003   6.843   2.398   2.209 -0.2409  0.5269  2.4885
23547SOL    HW275004   6.907   2.263   2.182 -1.7300  0.4281 -1.0918
23548SOL     OW75005   9.915   3.506   3.338  0.1644  0.1308  0.0593
23548SOL    HW175006   9.938   3.449   3.265 -3.2212  0.6619 -1.5810
23548SOL    HW275007   9.968   3.585   3.323  0.3531 -0.2085 -1.2020
23549SOL     OW75008   7.289   0.386   4.308  0.9137 -0.0195  0.1706
23549SOL    HW175009   7.197   0.382   4.335  1.2680  1.0693  1.6682
23549SOL    HW275010   7.286   0.413   4.216 -0.2397  1.8888  0.7243
23550SOL     OW75011   1.042   0.388   7.214  0.0311 -0.1277  0.3509
23550SOL    HW175012   0.951   0.418   7.209  0.3604  0.7417 -0.7653
23550SOL    HW275013   1.035   0.292   7.217 -1.0045 -0.0496  3.2477
23551SOL     OW75014  10.580   5.682   6.846  0.4056  0.5397 -0.0515
23551SOL    HW175015  10.656   5.625   6.852  0.9408  0.8641 -2.3687
23551SOL    HW275016  10.612   5.768   6.873  0.6146  0.4890 -0.1389
23552SOL     OW75017   9.977   9.762   2.875 -0.5345  0.0801 -0.3015
23552SOL    HW175018   9.891   9.760   2.918 -0.7289  0.4244 -0.6638
23552SOL    HW275019  10.008   9.852   2.889 -1.3542  0.7405 -2.3154
23553SOL     OW75020   0.607   7.348   1.092  0.5750 -0.1826 -0.2547
23553SOL    HW175021   0.515   7.332   1.069  1.1571 -1.5680 -1.8073
23553SOL    HW275022   0.619   7.441   1.074 -0.2861 -0.1840 -0.9355
23554SOL     OW75023  10.180   9.955   1.532  0.3253 -0.0980 -0.6107
23554SOL    HW175024  10.197   9.938   1.624  1.4127  0.8766 -0.6111
23554SOL    HW275025  10.124  10.033   1.532  0.1723 -0.2051 -0.7747
23555SOL     OW75026   1.307  10.028   0.807  0.1699  0.2973 -0.0237
23555SOL    HW175027   1.226  10.011   0.855  0.8389  0.9705  1.4019
23555SOL    HW275028   1.311  10.123   0.799  0.6196  0.2474 -0.4538
23556SOL     OW75029  10.576  10.588   9.909  0.1533  0.5094  0.0398
23556SOL    HW175030  10.517  10.616   9.979  0.6811 -0.8919  1.1058
23556SOL    HW275031  10.519  10.567   9.835 -0.3112  3.6820 -0.6351
23557SOL     OW75032   7.351   1.738   9.102  0.2204 -0.0694 -0.6256
23557SOL    HW175033   7.296   1.779   9.035  0.4596  1.4295  0.0635
23557SOL    HW275034   7.391   1.664   9.057  1.1645  1.4604 -2.4827
23558SOL     OW75035   0.817   9.424   2.514  0.0337 -0.1729 -0.3130
23558SOL    HW175036   0.782   9.457   2.597 -1.5756 -0.9111 -0.6506
23558SOL    HW275037   0.772   9.340   2.501 -1.0757  0.7128 -2.7445
23559SOL     OW75038   8.420   9.038   8.544 -0.6149  0.0966  0.9166
23559SOL    HW175039   8.342   8.983   8.546  0.9348 -2.2836  0.6199
23559SOL    HW275040   8.478   8.998   8.610  1.0883  0.5437 -0.2463
23560SOL     OW75041   1.015   7.618   4.296  0.2487 -0.0473  0.0072
23560SOL    HW175042   0.956   7.631   4.370  0.5308 -1.8894  0.5946
23560SOL    HW275043   1.035   7.524   4.297  1.5606  0.1797 -1.4191
23561SOL     OW75044   6.280   4.075   2.708 -0.1955  0.0903  0.7838
23561SOL    HW175045   6.277   3.982   2.685 -0.8831  0.1886  0.4501
23561SOL    HW275046   6.224   4.081   2.786 -0.8138  0.3569  0.3219
23562SOL     OW75047   0.528   9.454   3.418  0.3920 -0.0168  0.1023
23562SOL    HW175048   0.573   9.538   3.420  4.3166 -1.8642 -0.4572
23562SOL    HW275049   0.523   9.427   3.510 -0.9632  0.7912  0.2919
23563SOL     OW75050   5.286  10.249   0.308  0.6289 -0.4185  0.3682
23563SOL    HW175051   5.331  10.224   0.227  1.6485 -0.4968  0.9570
23563SOL    HW275052   5.259  10.340   0.292  0.7962 -0.4392 -0.0613
23564SOL     OW75053   9.602   6.250   1.566  0.2019 -0.1338 -0.2783
23564SOL    HW175054   9.564   6.184   1.508  0.4340 -0.9925  0.5349
23564SOL    HW275055   9.552   6.330   1.547 -0.7586 -0.7872 -0.5579
23565SOL     OW75056   0.145   6.921   1.252  0.1740 -0.1346 -0.2668
23565SOL    HW175057   0.143   6.959   1.340 -0.6687 -0.6214 -0.0709
23565SOL    HW275058   0.149   6.997   1.193  1.8422  0.1899  0.1924
23566SOL     OW75059   1.536   5.143   5.738 -0.2043  0.6993  0.6684
23566SOL    HW175060   1.496   5.056   5.738  0.0650  0.5446 -0.8837
23566SOL    HW275061   1.568   5.154   5.827  0.6250 -1.2189  0.6604
23567SOL     OW75062   9.029   7.950   6.312 -0.4337  0.0606 -0.5986
23567SOL    HW175063   9.104   7.951   6.252  1.7497 -0.5101  1.9588
23567SOL    HW275064   9.055   8.008   6.384 -1.6649 -1.5658  1.2442
23568SOL     OW75065   8.550   0.054   7.981 -0.3407  0.3212 -0.4858
23568SOL    HW175066   8.569   0.147   7.983 -2.2750  0.7452 -0.1043
23568SOL    HW275067   8.555   0.029   7.889  0.2022  0.7695 -0.5828
23569SOL     OW75068   8.113   5.750   8.947  0.3180  0.7797  0.7923
23569SOL    HW175069   8.021   5.773   8.935  0.5467  0.3791 -2.5659
23569SOL    HW275070   8.120   5.731   9.041 -2.5527  2.6149  1.5253
23570SOL     OW75071   9.334   5.028   6.671 -0.0201 -0.2206  0.6686
23570SOL    HW175072   9.337   5.093   6.600  1.6035  1.0305  1.7963
23570SOL    HW275073   9.242   5.004   6.677 -0.6491  1.7649 -0.0055
23571SOL     OW75074   9.597   2.199   1.701  0.0837  0.4329 -0.2337
23571SOL    HW175075   9.680   2.196   1.748  0.0380 -0.4286 -0.2018
23571SOL    HW275076   9.531   2.208   1.770  0.0639 -0.1810 -0.1652
23572SOL     OW75077   2.687   8.599   0.762  1.4172 -0.7417 -0.2284
23572SOL    HW175078   2.730   8.514   0.762  2.0146 -0.4689 -1.7024
23572SOL    HW275079   2.648   8.606   0.676  0.3092 -0.0266  0.3103
23573SOL     OW75080   3.906   8.792   0.916 -0.1027 -0.3366 -0.3432
23573SOL    HW175081   3.963   8.839   0.977 -0.0087 -1.3175  0.3528
23573SOL    HW275082   3.900   8.704   0.952 -3.1864  0.0577  0.3939
23574SOL     OW75083   4.679   0.491   6.997  0.3392 -0.5919  0.2515
23574SOL    HW175084   4.698   0.536   7.080  0.2793 -0.4352  0.1819
23574SOL    HW275085   4.741   0.528   6.935 -0.8657  0.7191 -0.2369
23575SOL     OW75086   5.709   5.991   2.498  1.0314  0.5959 -0.6406
23575SOL    HW175087   5.706   5.989   2.593  1.3262 -0.2033 -0.6394
23575SOL    HW275088   5.618   6.004   2.471  0.6872 -0.9362 -0.2711
23576SOL     OW75089   4.459   5.702   2.324 -0.2463 -0.0737  0.4521
23576SOL    HW175090   4.447   5.794   2.301  0.0959 -0.0231  0.4814
23576SOL    HW275091   4.370   5.667   2.328 -0.3429 -0.4588 -2.4313
23577SOL     OW75092   0.405   5.724   0.018  0.2820 -0.2448 -0.3306
23577SOL    HW175093   0.388   5.653   0.080  0.1873 -0.4957 -0.6386
23577SOL    HW275094   0.379   5.688  -0.067  2.6345 -0.7783 -0.8874
23578SOL     OW75095  10.522   7.737   3.838  0.4182 -0.0117 -0.1530
23578SOL    HW175096  10.614   7.710   3.842 -0.4243 -3.1566  1.2622
23578SOL    HW275097  10.502   7.767   3.927 -0.6503 -2.4732  0.5228
23579SOL     OW75098   7.488   4.703   0.149 -0.0919 -0.6792 -0.4006
23579SOL    HW175099   7.447   4.670   0.069 -0.6991 -1.2434  0.1292
23579SOL    HW275100   7.529   4.626   0.188  0.3531 -0.3715 -0.2502
23580SOL     OW75101   0.244   7.316   9.011 -0.7315  0.2574  0.4771
23580SOL    HW175102   0.152   7.341   9.006 -0.6205  0.5082 -0.8378
23580SOL    HW275103   0.290   7.396   9.035 -0.8430  0.1616  1.0121
23581SOL     OW75104   0.822   6.718   4.489  0.4008  0.4535 -0.6810
23581SOL    HW175105   0.910   6.700   4.456  0.6501 -1.1400  0.7177
23581SOL    HW275106   0.836   6.749   4.579 -0.4915 -2.1737  0.4574
23582SOL     OW75107   8.466   0.423   6.598 -0.4933  0.1496 -0.2253
23582SOL    HW175108   8.377   0.450   6.576 -0.6297 -0.3020 -0.2266
23582SOL    HW275109   8.489   0.475   6.675 -0.3844  1.0062 -0.8089
23583SOL     OW75110   3.668   9.057   8.795 -0.0880 -0.5447 -0.2944
23583SOL    HW175111   3.731   9.092   8.857  0.1193  0.4163 -1.0339
23583SOL    HW275112   3.608   9.129   8.777  0.3302 -0.5474 -1.8190
23584SOL     OW75113   3.616  10.141   6.423 -0.4893 -0.6628  0.0860
23584SOL    HW175114   3.570  10.206   6.476 -0.0592 -0.0095 -0.3301
23584SOL    HW275115   3.547  10.093   6.377 -0.7516  2.1278 -2.7190
23585SOL     OW75116   2.529   7.566   6.321  0.2505 -0.2296  0.0695
23585SOL    HW175117   2.544   7.638   6.261 -0.1827 -0.9843 -0.9821
23585SOL    HW275118   2.596   7.576   6.389  1.3934  0.0726 -1.0683
23586SOL     OW75119   4.054  10.565   8.670 -0.2520 -0.0295 -0.1926
23586SOL    HW175120   4.134  10.513   8.674 -0.1612 -0.0080 -1.4151
23586SOL    HW275121   3.994  10.513   8.616 -1.4633 -0.5480  1.5533
23587SOL     OW75122   9.900   0.833   7.975 -0.0469 -0.1847  0.0233
23587SOL    HW175123   9.908   0.877   7.890  0.4804 -0.9164 -0.3330
23587SOL    HW275124   9.806   0.820   7.987 -0.2522  1.4810  0.3983
23588SOL     OW75125   9.180   9.329   6.415 -0.4262 -0.2379  0.0360
23588SOL    HW175126   9.238   9.294   6.482 -1.1722  0.0565  0.8450
23588SOL    HW275127   9.200   9.278   6.336  2.2994  1.1245 -0.2584
23589SOL     OW75128   2.451   1.039   4.555  0.4277  0.1997 -0.7393
23589SOL    HW175129   2.376   1.017   4.500  0.6968 -1.8196 -0.3435
23589SOL    HW275130   2.460   1.134   4.546 -2.4936  0.5993 -0.3906
23590SOL     OW75131   1.944   2.208   8.339 -0.2373  0.5562 -0.2183
23590SOL    HW175132   1.892   2.288   8.341  1.9397  2.1570 -2.1740
23590SOL    HW275133   2.005   2.217   8.412 -0.1011  0.6204 -0.3390
23591SOL     OW75134   4.647   7.930   0.405  0.0252 -0.2098 -0.4752
23591SOL    HW175135   4.664   7.967   0.318  1.5120  1.4772  0.4542
23591SOL    HW275136   4.725   7.878   0.424 -0.0566 -0.1511  0.0264
23592SOL     OW75137  10.108   2.859   3.354 -0.1681  0.5265 -0.2533
23592SOL    HW175138  10.192   2.854   3.309  0.5718  1.2860  0.9654
23592SOL    HW275139  10.132   2.879   3.445 -1.7138  2.2245 -0.1718
23593SOL     OW75140   9.070   1.254   5.074  0.2477  0.5347 -0.2874
23593SOL    HW175141   9.091   1.337   5.032 -1.7345  0.4218 -1.6058
23593SOL    HW275142   9.045   1.278   5.164  1.3068  1.1399 -0.1321
23594SOL     OW75143   6.844   3.651   0.884 -0.2085  0.4801  0.1838
23594SOL    HW175144   6.871   3.568   0.924  0.0402  0.8735  0.8199
23594SOL    HW275145   6.748   3.646   0.884 -0.1904 -0.1608 -0.5263
23595SOL     OW75146   0.761   0.552   0.075  0.3998 -0.7781 -0.1868
23595SOL    HW175147   0.707   0.619   0.033  0.4443  0.4357  1.5623
23595SOL    HW275148   0.736   0.470   0.033 -0.3178  0.2120 -1.7727
23596SOL     OW75149   0.346  10.670   5.532  0.5784 -0.0784  0.1706
23596SOL    HW175150   0.398  10.734   5.484 -0.4491 -2.7742 -5.4926
23596SOL    HW275151   0.261  10.713   5.545  0.7952  0.7076 -0.8773
23597SOL     OW75152   0.368   2.346   6.833  0.2562  0.3500 -0.3875
23597SOL    HW175153   0.301   2.373   6.896  0.9202  0.0639  0.4637
23597SOL    HW275154   0.332   2.370   6.748 -1.0730 -0.1265  0.0258
23598SOL     OW75155   8.619   6.535   5.788 -0.1623  0.2094  0.8762
23598SOL    HW175156   8.665   6.451   5.784 -0.8997 -0.2142  1.0924
23598SOL    HW275157   8.642   6.578   5.706 -0.5793 -0.6436  0.2831
23599SOL     OW75158   2.691   1.158   9.597  0.5119 -0.4284 -0.2859
23599SOL    HW175159   2.675   1.217   9.671  0.1387 -3.0139  1.8667
23599SOL    HW275160   2.607   1.117   9.580  0.0642  1.5144 -3.6571
23600SOL     OW75161   3.170   5.593   6.521 -0.2697  0.3371 -0.0139
23600SOL    HW175162   3.208   5.658   6.580 -0.6532 -1.1963  1.9859
23600SOL    HW275163   3.080   5.624   6.506 -0.3047  0.5057  0.5393
23601SOL     OW75164   6.303   4.986   5.396  0.4253 -0.2230 -0.8702
23601SOL    HW175165   6.322   4.914   5.336 -0.4308  0.1998 -1.6550
23601SOL    HW275166   6.349   4.962   5.477  0.8057 -1.2538 -1.3788
23602SOL     OW75167   9.292   4.857   9.692  0.3928 -0.0441  0.4281
23602SOL    HW175168   9.258   4.809   9.616 -1.2266 -1.1527  1.7748
23602SOL    HW275169   9.354   4.796   9.732 -0.5848 -0.4638  1.3337
23603SOL     OW75170   6.862   7.622   4.769 -0.1305  0.0335 -0.4294
23603SOL    HW175171   6.915   7.544   4.753  0.3329  0.0494  0.8482
23603SOL    HW275172   6.875   7.676   4.692  2.4515  0.4079  0.1558
23604SOL     OW75173  10.255   9.941   7.811  0.1393  0.4388 -0.0702
23604SOL    HW175174  10.207   9.901   7.739 -2.0812  0.4144  1.3354
23604SOL    HW275175  10.221  10.030   7.816 -2.0807 -0.4131  2.7630
23605SOL     OW75176  10.120   2.042   9.440  0.3340  0.3191  0.2202
23605SOL    HW175177  10.049   2.104   9.423  0.4436  0.0380 -1.3973
23605SOL    HW275178  10.081   1.956   9.426  0.5196  0.0640  1.1935
23606SOL     OW75179   5.584   8.588   9.752 -0.7329  0.1082  0.1166
23606SOL    HW175180   5.563   8.609   9.844 -1.5091 -1.2904  0.2749
23606SOL    HW275181   5.575   8.493   9.746  3.2252 -0.3728 -0.4326
23607SOL     OW75182   5.477   1.082   3.114 -0.0920 -0.1928 -0.4120
23607SOL    HW175183   5.443   1.106   3.028 -0.1373 -0.5532 -0.4978
23607SOL    HW275184   5.566   1.050   3.097  0.1463  0.3625 -0.2392
23608SOL     OW75185   7.672   8.263   1.799 -0.0990  0.1428  0.1475
23608SOL    HW175186   7.594   8.218   1.767  0.6350 -1.3711  0.4058
23608SOL    HW275187   7.664   8.260   1.894 -1.2524  2.8034  0.2153
23609SOL     OW75188   7.242   9.104  10.958  0.2883  0.3896 -0.7319
23609SOL    HW175189   7.169   9.044  10.940 -0.0627  0.2523  0.9706
23609SOL    HW275190   7.313   9.073  10.902  0.9491 -3.3097  1.7505
23610SOL     OW75191   2.625   8.929   8.042 -0.0247  0.0693 -0.4762
23610SOL    HW175192   2.696   8.878   8.082 -0.1018  0.1156 -0.2811
23610SOL    HW275193   2.668   9.010   8.012  0.1781 -0.2738 -1.1401
23611SOL     OW75194   3.531   9.377   0.090 -0.1382  0.3502  0.1878
23611SOL    HW175195   3.473   9.449   0.062  0.4406  1.2818  1.3013
23611SOL    HW275196   3.476   9.322   0.146 -0.6853 -0.3069 -0.9533
23612SOL     OW75197  10.529   8.277   2.459  0.0220  0.1764 -0.2981
23612SOL    HW175198  10.473   8.209   2.420 -4.0701  3.2985 -0.4970
23612SOL    HW275199  10.508   8.273   2.553 -1.1497  1.8061 -0.4627
23613SOL     OW75200  11.074   0.678  10.146  0.3678  0.4376  0.0581
23613SOL    HW175201  11.138   0.741  10.113  0.5508 -0.2870 -1.0152
23613SOL    HW275202  10.989   0.718  10.127  0.4698  0.0240 -1.3667
23614SOL     OW75203  10.960   6.929   9.960 -0.1287  0.0579 -0.8845
23614SOL    HW175204  10.908   7.007   9.980 -1.4868 -0.5944 -1.7407
23614SOL    HW275205  10.899   6.870   9.916  0.9408 -1.3857 -0.5067
23615SOL     OW75206   1.803   8.029   7.860  0.2325 -0.6554  0.2686
23615SOL    HW175207   1.860   7.953   7.844  0.3708 -0.5910  0.4479
23615SOL    HW275208   1.758   8.043   7.777  0.5007 -0.6918  0.1139
23616SOL     OW75209   4.479   5.895   8.794 -0.0816 -0.3469  0.1384
23616SOL    HW175210   4.402   5.948   8.814 -0.2761 -0.1678 -0.9732
23616SOL    HW275211   4.519   5.876   8.879 -1.2544 -0.2956  0.7136
23617SOL     OW75212   8.015   0.976   5.665  0.4722  0.7275  0.0945
23617SOL    HW175213   8.090   1.018   5.708  0.7736  0.6016 -0.2996
23617SOL    HW275214   7.954   1.048   5.650  0.2215  0.7260  1.0089
23618SOL     OW75215   3.482   6.517   4.319 -0.1816  0.3806  0.1248
23618SOL    HW175216   3.576   6.517   4.297 -0.5999 -1.5406 -2.1184
23618SOL    HW275217   3.448   6.596   4.277  0.0806 -0.1069 -1.0402
23619SOL     OW75218   8.516   8.715   4.459 -0.3082 -0.0437  0.0848
23619SOL    HW175219   8.469   8.653   4.402  0.1598  0.5408 -0.9679
23619SOL    HW275220   8.448   8.750   4.517 -1.9835  3.0512 -3.3438
23620SOL     OW75221   1.696   0.093   4.479  0.1221 -0.2186 -0.1701
23620SOL    HW175222   1.600   0.095   4.483  0.0855 -1.2999 -0.2569
23620SOL    HW275223   1.723   0.052   4.561  0.5641  0.6980  0.1653
23621SOL     OW75224   3.234   5.359   3.484  0.1302  0.3132 -0.3194
23621SOL    HW175225   3.140   5.343   3.478  0.3027 -0.9565  0.0968
23621SOL    HW275226   3.241   5.451   3.511 -0.9934  0.3545 -0.1159
23622SOL     OW75227  10.597   1.448   0.317 -0.0864 -0.2169  0.3147
23622SOL    HW175228  10.559   1.525   0.274 -1.2052 -0.2928  1.1173
23622SOL    HW275229  10.620   1.390   0.244  0.2589  0.6235 -0.2752
23623SOL     OW75230   6.966   7.131   5.481 -0.7645  0.4261  0.0151
23623SOL    HW175231   6.927   7.173   5.557  0.7243  0.7775  0.6378
23623SOL    HW275232   6.968   7.199   5.413 -2.2354  0.0657 -0.4105
23624SOL     OW75233   7.255  10.609   4.410  0.2309  0.0439 -0.5824
23624SOL    HW175234   7.194  10.679   4.436  1.0733  0.4609  0.3323
23624SOL    HW275235   7.325  10.613   4.476  0.7192 -1.1095 -1.0178
23625SOL     OW75236   0.173   7.826   4.054 -0.4079 -0.1629  0.5100
23625SOL    HW175237   0.254   7.836   4.104 -0.6107 -0.5155  0.9154
23625SOL    HW275238   0.131   7.750   4.092 -0.0907 -1.0640 -0.8640
23626SOL     OW75239   3.867   3.104   3.751  0.2673  0.1135  0.3703
23626SOL    HW175240   3.826   3.172   3.805 -0.8693 -0.0904 -0.2067
23626SOL    HW275241   3.960   3.111   3.771  0.0792  1.2853  0.9538
23627SOL     OW75242   9.863   3.349   6.888  0.3015  0.8031  0.0613
23627SOL    HW175243   9.935   3.402   6.923 -0.8291  2.1470  0.4623
23627SOL    HW275244   9.805   3.413   6.845 -0.5656 -0.2655 -0.4003
23628SOL     OW75245   4.617   0.060   9.167  0.4021 -0.1678  0.0530
23628SOL    HW175246   4.616   0.072   9.262  0.5023 -1.8270  0.2910
23628SOL    HW275247   4.529   0.027   9.146 -0.1536  1.6143 -0.6807
23629SOL     OW75248   3.594  10.993   3.063 -0.3402 -0.1208 -0.3801
23629SOL    HW175249   3.601  10.975   3.157 -1.9824  0.2372 -0.1683
23629SOL    HW275250   3.606  11.087   3.055  0.8582 -0.2755 -0.6773
23630SOL     OW75251   3.591   3.739   1.864  0.1858 -0.0200 -0.1225
23630SOL    HW175252   3.581   3.790   1.784  0.6323  1.4051  0.6985
23630SOL    HW275253   3.506   3.744   1.907  0.7197  1.6210  0.8335
23631SOL     OW75254   9.350   4.967   2.545  0.2521  0.2264 -0.4982
23631SOL    HW175255   9.301   4.947   2.625  1.0640  0.5229  0.0810
23631SOL    HW275256   9.409   4.893   2.534  1.1085  0.8250 -0.0490
23632SOL     OW75257  10.022   8.931   1.758 -0.3970  0.5621  0.4298
23632SOL    HW175258  10.057   8.902   1.673  0.8032  0.9892  0.7542
23632SOL    HW275259  10.094   8.981   1.797  0.4943 -2.5226  3.2083
23633SOL     OW75260   5.070   4.704   6.784 -0.0567 -0.0300  0.3455
23633SOL    HW175261   4.983   4.718   6.747 -0.8619 -0.3818  2.0095
23633SOL    HW275262   5.088   4.611   6.771  0.1310  0.0732 -0.1279
23634SOL     OW75263   2.236   4.692   8.800 -0.5596  0.7136  0.2636
23634SOL    HW175264   2.170   4.716   8.865  0.3260 -2.0099  2.3212
23634SOL    HW275265   2.294   4.768   8.796 -1.3571  1.4486  1.6949
23635SOL     OW75266   3.044   7.749   6.900  0.2028  0.2772  0.1318
23635SOL    HW175267   3.013   7.662   6.873  1.4725  0.2228 -1.3256
23635SOL    HW275268   2.974   7.808   6.874 -1.2921 -0.3904  2.3771
23636SOL     OW75269   4.051   7.368   0.117 -0.1444  0.5587 -0.2763
23636SOL    HW175270   4.137   7.329   0.131  0.0177  0.1751 -2.0715
23636SOL    HW275271   4.055   7.451   0.164  0.3602 -0.4499  1.5896
23637SOL     OW75272   5.050   1.403   8.577 -0.3974 -0.5196  0.2604
23637SOL    HW175273   4.990   1.357   8.636 -0.4186 -0.5416  0.2212
23637SOL    HW275274   5.012   1.491   8.569 -0.3244 -0.4760  0.3812
23638SOL     OW75275   9.379   7.733   2.420  0.1324  0.0019 -0.1059
23638SOL    HW175276   9.308   7.796   2.433 -0.6906 -0.6611 -1.1662
23638SOL    HW275277   9.363   7.664   2.484  0.8718  0.6980  0.8628
23639SOL     OW75278   0.969   3.983   9.573 -0.0148  0.0130 -0.1664
23639SOL    HW175279   1.053   3.945   9.546 -0.2630 -0.7228  0.0663
23639SOL    HW275280   0.987   4.021   9.659  0.0403 -0.3012 -0.0360
23640SOL     OW75281   2.416  10.532   9.916 -0.6683 -0.0131  0.2929
23640SOL    HW175282   2.444  10.539   9.824 -0.5264  1.8219  0.4352
23640SOL    HW275283   2.348  10.465   9.915 -0.6909 -0.0080 -1.1788
23641SOL     OW75284   2.491   2.985   8.093  0.3030 -0.6374  0.0795
23641SOL    HW175285   2.436   3.014   8.020  1.7207  1.0344 -0.4115
23641SOL    HW275286   2.429   2.962   8.162 -1.0580  1.3880 -0.3548
23642SOL     OW75287   5.758   5.096   6.465 -0.1706 -0.0125  0.1425
23642SOL    HW175288   5.753   5.152   6.542  1.2021  0.2068  0.1009
23642SOL    HW275289   5.851   5.089   6.446 -0.4890  1.4922 -2.6063
23643SOL     OW75290   4.599   0.219   6.274  0.7665  0.1005  0.0673
23643SOL    HW175291   4.530   0.280   6.299 -0.5483 -0.4344 -2.0326
23643SOL    HW275292   4.623   0.175   6.356 -0.4935  1.1890  1.0615
23644SOL     OW75293   9.735   7.711   2.305  0.1256 -0.4905  0.2469
23644SOL    HW175294   9.758   7.725   2.397  0.4112  3.3571 -0.2639
23644SOL    HW275295   9.641   7.732   2.301  0.7876  2.7720 -0.7738
23645SOL     OW75296   4.788   1.329   2.672 -0.1927 -0.3732 -0.1804
23645SOL    HW175297   4.843   1.406   2.686 -1.4796  0.9325 -1.8889
23645SOL    HW275298   4.813   1.298   2.585 -0.8877 -0.8457 -0.2167
23646SOL     OW75299   3.751   7.203   4.401 -0.3827 -0.1989 -0.0131
23646SOL    HW175300   3.797   7.147   4.339  1.0034 -0.6340  1.3536
23646SOL    HW275301   3.741   7.150   4.480 -1.3110  0.6382  0.4646
23647SOL     OW75302   0.766   5.321   9.361 -0.0298 -0.2853 -0.0481
23647SOL    HW175303   0.722   5.281   9.285 -0.9177 -0.2614  0.4436
23647SOL    HW275304   0.711   5.397   9.383  0.3310 -0.1809  0.4972
23648SOL     OW75305   9.223   7.515   0.912  0.6997 -0.6671 -0.3353
23648SOL    HW175306   9.135   7.534   0.947  0.6483  4.0448 -2.2499
23648SOL    HW275307   9.206   7.475   0.826  0.2936  1.0300 -1.0848
23649SOL     OW75308   5.372   0.829   4.639  0.2086  0.5944  0.1554
23649SOL    HW175309   5.288   0.811   4.681 -0.5139 -2.4711 -2.2673
23649SOL    HW275310   5.435   0.829   4.711 -1.6734  1.9615  1.9059
23650SOL     OW75311   6.596   6.310   6.762 -0.1374  0.4794  0.4262
23650SOL    HW175312   6.619   6.397   6.730  0.4249  0.2438  0.1754
23650SOL    HW275313   6.553   6.326   6.846  2.1114  0.8995  1.5792
23651SOL     OW75314  10.662   2.960   4.288 -0.5047  0.6191 -0.0946
23651SOL    HW175315  10.587   2.933   4.341 -1.5430  1.2291 -1.1860
23651SOL    HW275316  10.731   2.898   4.309 -1.4304 -0.1551  0.7067
23652SOL     OW75317   8.365   3.806   7.436  0.4289  0.3908  0.1021
23652SOL    HW175318   8.384   3.716   7.412  2.9297  0.7749  0.4452
23652SOL    HW275319   8.380   3.810   7.530 -1.4626  0.7759  0.4281
23653SOL     OW75320   1.382   5.246   6.587  0.1393  0.0865 -0.1925
23653SOL    HW175321   1.333   5.187   6.644 -0.2629  0.1689 -0.4544
23653SOL    HW275322   1.394   5.198   6.506 -1.1219  0.7398 -0.8032
23654SOL     OW75323   2.774  10.748   1.877  0.2469 -0.6231  0.1851
23654SOL    HW175324   2.839  10.779   1.941  0.4430 -0.2330 -0.1968
23654SOL    HW275325   2.824  10.735   1.797 -0.4439  1.5614 -0.6785
23655SOL     OW75326   7.215  10.489   6.350  0.4574 -0.2487 -0.2058
23655SOL    HW175327   7.255  10.407   6.379 -0.8151 -0.3109  1.5752
23655SOL    HW275328   7.137  10.461   6.301 -0.1465 -0.1425  0.6634
23656SOL     OW75329   1.939   8.981   6.262  0.5715  0.0468  0.3486
23656SOL    HW175330   2.021   8.954   6.304  1.2198 -0.0387 -0.9271
23656SOL    HW275331   1.960   8.985   6.169 -1.6759 -2.9893 -0.4324
23657SOL     OW75332   0.856   4.842   6.088  0.1472  0.0778  0.5763
23657SOL    HW175333   0.918   4.890   6.142 -0.8787  1.1357  0.8404
23657SOL    HW275334   0.775   4.840   6.139  0.5274 -3.3810  1.3530
23658SOL     OW75335   6.646   6.812   1.469  0.3154  0.0227 -0.2219
23658SOL    HW175336   6.736   6.802   1.498  0.3426  2.9378  0.9739
23658SOL    HW275337   6.643   6.896   1.423 -1.2559 -1.2875 -2.8177
23659SOL     OW75338   4.868  10.574   8.863 -0.0799  0.1033 -0.0743
23659SOL    HW175339   4.943  10.631   8.848  0.1028  0.3788  1.6483
23659SOL    HW275340   4.859  10.524   8.782  2.0352 -0.0310 -0.2708
23660SOL     OW75341   4.380  10.484   2.755 -0.4223 -0.4412 -0.3626
23660SOL    HW175342   4.472  10.478   2.782 -0.7789  0.1410  1.0871
23660SOL    HW275343   4.381  10.536   2.675  0.5292 -0.7181 -0.5431
23661SOL     OW75344   1.238   6.406   3.646  0.0363 -0.1314  0.1457
23661SOL    HW175345   1.224   6.386   3.554  0.2856  1.0200 -0.1542
23661SOL    HW275346   1.330   6.431   3.652 -0.5272  2.2077  0.2024
23662SOL     OW75347   8.741   7.936   2.251  0.8011  0.1867 -0.0215
23662SOL    HW175348   8.657   7.921   2.207 -0.2260  0.2586  1.8418
23662SOL    HW275349   8.728   8.018   2.298  1.9959  0.2768  0.1703
23663SOL     OW75350   5.717   8.481   6.759 -0.1020  0.3419 -0.0377
23663SOL    HW175351   5.660   8.521   6.824 -0.6519 -1.0767  0.3718
23663SOL    HW275352   5.679   8.396   6.741  0.0531  0.6633 -2.2183
23664SOL     OW75353   7.048   7.825   7.241  0.3101 -0.1838 -0.1270
23664SOL    HW175354   7.113   7.869   7.186  0.3182  0.7161  0.5810
23664SOL    HW275355   7.084   7.737   7.255  0.3960 -0.3740 -1.3868
23665SOL     OW75356   9.700   4.169   1.201  0.3428  0.0154  0.4007
23665SOL    HW175357   9.754   4.246   1.182  0.8951 -0.4435  0.0711
23665SOL    HW275358   9.636   4.166   1.130  0.6741 -0.1387  0.1022
23666SOL     OW75359   7.840   9.125   3.397 -0.3203 -0.4452 -0.0914
23666SOL    HW175360   7.827   9.101   3.306 -0.7006  0.2763 -0.2326
23666SOL    HW275361   7.760   9.171   3.422  0.6262  1.2613 -0.0330
23667SOL     OW75362   1.490   4.175   0.628  0.2275 -0.0278  0.1301
23667SOL    HW175363   1.585   4.180   0.627  0.3045 -0.1892 -2.7986
23667SOL    HW275364   1.471   4.086   0.657  0.8965  0.3435  1.7781
23668SOL     OW75365   3.850   8.835  10.933  0.3884 -0.2166  0.3433
23668SOL    HW175366   3.755   8.823  10.929  0.3267  0.0160  1.0343
23668SOL    HW275367   3.875   8.858  10.844  0.1957 -3.0487 -0.5396
23669SOL     OW75368   0.575   0.145   4.796  0.6028 -0.2892 -0.2804
23669SOL    HW175369   0.489   0.153   4.837  0.4749 -0.6566 -0.4715
23669SOL    HW275370   0.616   0.071   4.841  0.5664 -0.5235 -0.6232
23670SOL     OW75371   1.090   3.517   3.410 -0.4475 -0.2504 -0.2841
23670SOL    HW175372   1.166   3.494   3.463 -0.0098  0.6130 -0.5069
23670SOL    HW275373   1.107   3.608   3.384 -0.8738 -0.5012 -1.4952
23671SOL     OW75374   7.726  10.072   0.542 -0.0192 -0.3619  0.8838
23671SOL    HW175375   7.727  10.106   0.453  0.1691  0.8185  1.3190
23671SOL    HW275376   7.777   9.991   0.538  2.2163  0.9874  0.4111
23672SOL     OW75377   4.109   2.849   2.310 -0.2992  0.4281 -0.0926
23672SOL    HW175378   4.202   2.870   2.315 -0.4395  0.9581  0.3772
23672SOL    HW275379   4.098   2.808   2.224  0.3789  0.3004 -0.1217
23673SOL     OW75380   6.538   5.485   7.808 -0.5674 -0.4253 -0.4989
23673SOL    HW175381   6.554   5.462   7.899 -0.2908  2.2525  0.2147
23673SOL    HW275382   6.456   5.442   7.786 -1.2364 -0.2149  1.3930
23674SOL     OW75383   4.042   6.701   0.555  0.3148 -0.0251 -0.7056
23674SOL    HW175384   4.018   6.632   0.494  0.2039 -2.1073  1.5127
23674SOL    HW275385   4.117   6.666   0.603  0.2293  1.3557  0.5403
23675SOL     OW75386   8.188   2.585   6.521 -0.0281  0.6088 -0.5509
23675SOL    HW175387   8.227   2.629   6.596 -2.4030  0.5063  0.8616
23675SOL    HW275388   8.170   2.496   6.551 -2.3139  0.9672 -0.6771
23676SOL     OW75389   4.665   9.977   9.681 -0.2850  0.0839 -0.2918
23676SOL    HW175390   4.729   9.916   9.645  2.2391  0.8718  2.5301
23676SOL    HW275391   4.613   9.926   9.743 -0.1855  0.1579 -0.1463
23677SOL     OW75392   0.597   8.766   3.484 -0.4755  0.4818  0.1246
23677SOL    HW175393   0.597   8.860   3.467  1.2448  0.4341 -0.3426
23677SOL    HW275394   0.549   8.756   3.566 -1.3750  1.6640 -0.2295
23678SOL     OW75395   8.357   4.683   1.893 -0.1233 -0.5326 -0.2657
23678SOL    HW175396   8.359   4.725   1.979  2.7612 -3.8874  1.6050
23678SOL    HW275397   8.448   4.681   1.865 -0.4928 -2.6872 -1.5862
23679SOL     OW75398   4.989  10.085   0.117 -0.4518 -0.4262 -0.3866
23679SOL    HW175399   5.072  10.112   0.076 -0.6492 -1.4388 -1.5122
23679SOL    HW275400   4.935  10.163   0.115  0.4466  0.2336  0.3000
23680SOL     OW75401   4.733   5.024   9.744 -0.0274  0.4051  0.2037
23680SOL    HW175402   4.698   4.936   9.757 -0.8272  0.4850 -1.2175
23680SOL    HW275403   4.717   5.042   9.652  1.5424  1.4402  0.1147
23681SOL     OW75404   9.165   7.279  10.499  0.6490 -0.1944 -0.9220
23681SOL    HW175405   9.081   7.301  10.457 -0.2675 -1.6969  0.0355
23681SOL    HW275406   9.230   7.327  10.448 -0.8787  1.8407 -1.0575
23682SOL     OW75407  10.099   8.741   5.478 -0.4698 -0.6987 -1.5153
23682SOL    HW175408  10.085   8.764   5.386 -0.6002  0.2790 -1.2547
23682SOL    HW275409  10.193   8.723   5.484 -0.7105 -2.4363 -2.1882
23683SOL     OW75410   8.510   8.783   3.177 -0.3935 -0.3523  0.0484
23683SOL    HW175411   8.432   8.837   3.187 -0.6248 -0.4208 -1.1942
23683SOL    HW275412   8.581   8.839   3.208 -0.7685  0.2511 -0.1455
23684SOL     OW75413   3.606   0.929   1.066  0.2234  0.2831 -0.1576
23684SOL    HW175414   3.695   0.895   1.064  0.0251 -0.2198 -1.0757
23684SOL    HW275415   3.566   0.898   0.984 -0.7204  0.6909  0.1276
23685SOL     OW75416   4.988   3.990   1.286 -0.3965  0.5675  0.3913
23685SOL    HW175417   5.000   3.899   1.260 -1.4970  0.2709  0.8886
23685SOL    HW275418   4.923   4.025   1.224 -0.2470  0.9164  0.4258
23686SOL     OW75419   5.180   7.717   0.905  0.1347 -0.1426  0.1112
23686SOL    HW175420   5.153   7.774   0.978  0.7730  0.0427  0.2140
23686SOL    HW275421   5.119   7.738   0.834  1.4783  2.1068 -0.5028
23687SOL     OW75422   0.842   5.108   4.692 -0.0566  0.3066  0.2144
23687SOL    HW175423   0.756   5.130   4.728 -0.3907  0.8810 -0.8657
23687SOL    HW275424   0.898   5.182   4.717 -0.1703  0.4799 -0.0373
23688SOL     OW75425   6.956   9.561   4.239 -0.4643  0.3063 -0.3259
23688SOL    HW175426   6.882   9.500   4.238  0.7477 -1.2248 -0.6312
23688SOL    HW275427   6.963   9.589   4.331 -1.0657  0.0019 -0.1843
23689SOL     OW75428   5.657   2.944   5.758  0.7978  0.0620  0.2647
23689SOL    HW175429   5.706   2.876   5.804  0.4567 -0.5339 -0.2312
23689SOL    HW275430   5.601   2.983   5.824  0.4924 -0.6136  0.4101
23690SOL     OW75431   7.791  10.528   8.739  0.4319  0.3721 -0.4341
23690SOL    HW175432   7.766  10.621   8.745  0.2662  0.2714  0.6856
23690SOL    HW275433   7.722  10.489   8.686  0.7864  0.9839 -1.3693
23691SOL     OW75434   9.488   9.110   4.114 -0.2369 -0.2419  0.7251
23691SOL    HW175435   9.502   9.153   4.029 -0.2212  0.2095  0.9579
23691SOL    HW275436   9.453   9.024   4.090 -0.7051  0.0651  0.2703
23692SOL     OW75437   4.846   4.163   8.296 -0.3247 -0.2050 -0.1755
23692SOL    HW175438   4.903   4.226   8.251 -0.1530  0.2615  0.6697
23692SOL    HW275439   4.866   4.175   8.389 -2.9773  1.1609  0.3060
23693SOL     OW75440   4.698  10.700   5.498  0.1599  0.2136  0.7128
23693SOL    HW175441   4.762  10.763   5.530 -0.6000  1.5953 -0.3905
23693SOL    HW275442   4.614  10.733   5.531 -0.1673 -0.7180  0.8548
23694SOL     OW75443   9.014   3.301   5.293  0.1454  0.2071  0.4078
23694SOL    HW175444   9.073   3.246   5.241 -1.3142 -0.7543 -0.3006
23694SOL    HW275445   9.067   3.332   5.366  2.0390  0.9247 -1.2072
23695SOL     OW75446   5.942   9.446   6.602  0.3613  0.1958 -0.1447
23695SOL    HW175447   5.889   9.449   6.681 -0.9536  1.8630 -1.0247
23695SOL    HW275448   5.920   9.527   6.555  1.8624 -0.2465 -1.7269
23696SOL     OW75449   9.360   4.690   3.353 -0.1427  0.1145  0.0357
23696SOL    HW175450   9.443   4.648   3.335 -1.4107 -2.2167 -0.7088
23696SOL    HW275451   9.339   4.738   3.273  0.4705  0.7224  0.2328
23697SOL     OW75452   8.762   8.839   9.442  0.2650  0.9145 -0.4444
23697SOL    HW175453   8.795   8.832   9.531  1.0698  1.1506 -0.7189
23697SOL    HW275454   8.716   8.923   9.439 -2.6839 -0.4940  0.6631
23698SOL     OW75455   2.523   9.495   4.679 -0.2157 -0.2900  0.3353
23698SOL    HW175456   2.449   9.556   4.688 -0.5539 -0.5996 -0.2795
23698SOL    HW275457   2.600   9.550   4.693 -0.5424  0.1274  0.5524
23699SOL     OW75458   3.025   5.932   3.296 -0.0557  0.3889  0.2328
23699SOL    HW175459   3.038   5.882   3.377 -1.9244 -0.4444  0.0511
23699SOL    HW275460   3.048   6.022   3.320 -0.0967  0.0628  1.5564
23700SOL     OW75461   2.471   0.709   3.048  0.0486  0.1334  0.5228
23700SOL    HW175462   2.429   0.703   2.962  0.2403  0.6231  0.3873
23700SOL    HW275463   2.531   0.783   3.039 -0.9904  1.1252  1.5401
23701SOL     OW75464   7.578   2.788   8.440 -0.2572  0.0077  0.0324
23701SOL    HW175465   7.657   2.843   8.443 -0.1313 -0.1713 -0.0084
23701SOL    HW275466   7.545   2.800   8.351 -1.0851  1.2178  0.4753
23702SOL     OW75467   8.017   3.069   6.063 -0.7232  0.3891 -0.3132
23702SOL    HW175468   7.946   3.130   6.085 -1.5145 -0.6261  0.0363
23702SOL    HW275469   7.990   2.986   6.102  0.3514 -0.1844 -0.7491
23703SOL     OW75470   4.443   7.488   1.471 -0.1537  0.5531  0.0316
23703SOL    HW175471   4.446   7.427   1.398 -1.1358 -0.1534  0.5655
23703SOL    HW275472   4.407   7.569   1.434  0.5586  0.6187 -0.5367
23704SOL     OW75473   7.804  10.419   3.326 -0.1816 -0.6380  0.3650
23704SOL    HW175474   7.788  10.340   3.378  2.5707 -2.6095 -1.5208
23704SOL    HW275475   7.869  10.392   3.261  1.0323  3.2718 -0.2727
23705SOL     OW75476   8.024   8.411  11.017  0.2176 -0.0057 -0.6884
23705SOL    HW175477   8.013   8.410  11.112  2.0639 -1.2525 -0.4258
23705SOL    HW275478   8.090   8.478  11.001  0.5935 -0.4298 -0.9692
23706SOL     OW75479   6.055   0.263  10.070 -0.1000 -0.1119  0.5247
23706SOL    HW175480   6.135   0.288  10.115 -0.6615 -1.6290  2.4871
23706SOL    HW275481   5.986   0.315  10.112 -0.3701 -0.0026 -0.0427
23707SOL     OW75482   8.338   0.053   0.253 -0.2041 -0.1587 -0.2831
23707SOL    HW175483   8.363   0.138   0.216  0.7413 -0.5844 -0.6705
23707SOL    HW275484   8.391   0.044   0.332 -0.2604 -0.4020 -0.2698
23708SOL     OW75485   4.472   0.279   5.683 -0.2694 -0.1251 -0.1312
23708SOL    HW175486   4.492   0.280   5.777  1.2907 -1.7533 -0.3986
23708SOL    HW275487   4.392   0.227   5.677  0.1988 -0.9172  0.2351
23709SOL     OW75488   4.038   4.493   0.716  0.5066  0.2024 -0.3551
23709SOL    HW175489   4.083   4.576   0.698  0.9057 -0.0555 -0.5536
23709SOL    HW275490   4.027   4.452   0.630  0.4695 -0.0310 -0.2409
23710SOL     OW75491   3.631   5.402   4.437 -0.1474  0.1100 -0.0339
23710SOL    HW175492   3.573   5.368   4.367  0.4911 -0.5173 -0.2738
23710SOL    HW275493   3.644   5.494   4.415 -0.0321 -0.0589 -0.6965
23711SOL     OW75494   0.510   8.273   0.101 -0.3984 -0.3534 -0.0557
23711SOL    HW175495   0.577   8.230   0.049  0.2618  3.3141 -2.6225
23711SOL    HW275496   0.559   8.322   0.168 -0.7206  0.0504 -0.1076
23712SOL     OW75497   0.928   5.186   7.751 -0.2685  0.0249  0.1205
23712SOL    HW175498   0.852   5.229   7.791 -0.8555  0.3511 -1.2669
23712SOL    HW275499   0.916   5.200   7.657  0.1441 -2.1861 -0.2996
23713SOL     OW75500   8.672   0.297   0.317 -0.5073 -0.1171  0.3468
23713SOL    HW175501   8.584   0.333   0.305 -0.1229  0.8517  0.3976
23713SOL    HW275502   8.724   0.370   0.349 -0.0487 -1.0734  1.9083
23714SOL     OW75503   1.106   3.514   0.295 -0.1146  0.2902  0.4346
23714SOL    HW175504   1.159   3.456   0.349 -1.4174 -1.5998 -0.1981
23714SOL    HW275505   1.169   3.571   0.251  1.1620 -0.1286  1.6581
23715SOL     OW75506   7.176  10.514   4.974 -0.1552 -0.1501 -0.0985
23715SOL    HW175507   7.124  10.450   4.926  1.2885 -2.4925  1.2255
23715SOL    HW275508   7.119  10.541   5.047 -0.4456 -0.6768 -0.1247
23716SOL     OW75509   7.678   3.609   8.171  0.1086 -0.1719  0.0996
23716SOL    HW175510   7.699   3.573   8.085 -1.2203  1.2783 -0.8831
23716SOL    HW275511   7.762   3.611   8.218  0.8745 -0.8378 -1.2012
23717SOL     OW75512   8.883   8.165   2.742 -0.5444 -0.2226  0.3880
23717SOL    HW175513   8.880   8.205   2.829 -2.8101 -1.2006  0.8249
23717SOL    HW275514   8.822   8.217   2.690 -1.3233 -1.2995  0.1865
23718SOL     OW75515   5.043   6.347   0.600 -0.6153 -0.1837 -0.0131
23718SOL    HW175516   5.050   6.384   0.513  0.3861 -0.7643 -0.1857
23718SOL    HW275517   4.994   6.266   0.588 -1.0842  0.0768  0.0810
23719SOL     OW75518   8.368   2.720   5.358 -0.1594 -0.1313 -0.1781
23719SOL    HW175519   8.418   2.739   5.279 -0.3220  1.1722  0.0112
23719SOL    HW275520   8.332   2.632   5.344 -1.6570  0.7472 -2.3257
23720SOL     OW75521   2.019   0.834   4.905 -0.4240  0.6047  0.1062
23720SOL    HW175522   2.010   0.740   4.887 -0.9442  0.9066 -1.3091
23720SOL    HW275523   1.998   0.877   4.822 -1.0228  2.0205  0.9484
23721SOL     OW75524   5.056   8.680   2.230 -0.9312  0.0352  0.2097
23721SOL    HW175525   5.150   8.689   2.213 -0.4902 -1.0955  1.8384
23721SOL    HW275526   5.018   8.764   2.204  0.3336  0.0777 -1.6352
23722SOL     OW75527   1.359  10.298   1.748  0.0886 -0.1620 -0.1182
23722SOL    HW175528   1.436  10.354   1.751 -1.5121  2.0914  2.2895
23722SOL    HW275529   1.393  10.213   1.720  3.2991  0.8979  0.1506
23723SOL     OW75530   7.361   3.270   5.911  0.2091 -0.3223  0.8163
23723SOL    HW175531   7.343   3.355   5.872 -1.2232  0.0751  2.2076
23723SOL    HW275532   7.322   3.207   5.851 -0.1749  0.1312  0.5847
23724SOL     OW75533   6.958   0.951   7.448  0.5628 -0.7874  0.7107
23724SOL    HW175534   6.979   0.859   7.430 -0.6058 -1.3996  2.2335
23724SOL    HW275535   6.884   0.947   7.508 -0.0988  1.1916  0.0853
23725SOL     OW75536   7.294   0.353   0.967 -0.0389 -0.0232 -0.0216
23725SOL    HW175537   7.265   0.444   0.964  0.5158  0.1667  0.3618
23725SOL    HW275538   7.377   0.355   1.014  1.0559 -0.4583 -1.8204
23726SOL     OW75539   9.602   3.971   2.057  0.0081 -0.0676  0.0496
23726SOL    HW175540   9.601   4.061   2.090  0.7033 -0.3667  0.9419
23726SOL    HW275541   9.570   3.978   1.967 -2.6051  0.7162  0.9444
23727SOL     OW75542   9.656   0.924   7.084 -0.2290  0.9270 -0.1151
23727SOL    HW175543   9.649   0.853   7.148  2.9522 -0.1057 -0.7700
23727SOL    HW275544   9.566   0.936   7.052 -1.1586 -1.5347  1.3023
23728SOL     OW75545   8.151   7.933  10.075 -0.3437  0.2778 -0.1239
23728SOL    HW175546   8.169   7.997  10.144  0.3597  0.5478 -0.5502
23728SOL    HW275547   8.220   7.947  10.010  0.2335 -1.3673  0.0882
23729SOL     OW75548   8.642   1.020   0.144  0.1051  0.3684  0.3116
23729SOL    HW175549   8.550   1.037   0.127 -0.0555 -0.4146  0.3349
23729SOL    HW275550   8.680   1.105   0.163 -0.3593  0.8633 -0.8852
23730SOL     OW75551   4.968   1.551   1.425 -0.4419  0.4688  0.1672
23730SOL    HW175552   5.041   1.566   1.365  1.5339  0.8020  2.4768
23730SOL    HW275553   4.985   1.464   1.462 -1.7121  0.1894  0.1263
23731SOL     OW75554   1.952  10.412   4.808 -0.3233  0.4822 -0.1787
23731SOL    HW175555   1.914  10.465   4.878 -0.0116  1.0661 -0.4476
23731SOL    HW275556   1.912  10.446   4.728 -0.4620  0.0094 -0.3125
23732SOL     OW75557   5.169   1.993   4.370 -0.2175  0.2907 -0.2514
23732SOL    HW175558   5.246   2.008   4.425 -1.0350  0.7974  0.7940
23732SOL    HW275559   5.184   2.047   4.293  1.4366 -1.2360 -1.0643
23733SOL     OW75560   0.818   4.459   4.303 -0.7158  0.2889  0.2850
23733SOL    HW175561   0.885   4.508   4.255 -0.3068  0.8328  1.3718
23733SOL    HW275562   0.746   4.520   4.314 -1.6839 -0.4826 -1.4057
23734SOL     OW75563   5.421   0.906   2.235 -0.1838 -0.1431  0.4203
23734SOL    HW175564   5.330   0.908   2.205  0.3164 -0.6220 -1.2241
23734SOL    HW275565   5.471   0.949   2.165  0.7010  1.6437  2.0396
23735SOL     OW75566   1.823   8.642   3.251  0.3451  0.2489  0.0716
23735SOL    HW175567   1.863   8.620   3.335  0.1842 -0.9459 -0.1443
23735SOL    HW275568   1.897   8.662   3.194  0.4589  0.9935  0.4719
23736SOL     OW75569   9.818   0.444   2.297 -0.0176 -0.2168 -0.0286
23736SOL    HW175570   9.897   0.392   2.283  0.3335 -0.2041  1.7063
23736SOL    HW275571   9.823   0.472   2.388 -2.2246 -0.5778  0.2775
23737SOL     OW75572  10.703  10.109   9.345  0.2465  0.2174  0.0755
23737SOL    HW175573  10.772  10.097   9.410  0.2089 -0.9320 -0.0849
23737SOL    HW275574  10.632  10.052   9.373  0.0771 -0.0053 -0.7564
23738SOL     OW75575  10.841   2.938   0.480 -0.2086 -0.0828 -0.2880
23738SOL    HW175576  10.793   2.864   0.441 -2.8376  1.2611  0.2187
23738SOL    HW275577  10.844   3.004   0.411  0.0700  0.2283  0.0166
23739SOL     OW75578   0.313   1.467   4.562 -0.4242  0.1213  0.6434
23739SOL    HW175579   0.346   1.413   4.490  0.0459  0.9834  0.1994
23739SOL    HW275580   0.235   1.421   4.592 -0.6489 -0.2392 -0.4418
23740SOL     OW75581   5.061  11.112   5.487 -0.1710 -0.2347  0.1359
23740SOL    HW175582   5.014  11.185   5.447  1.7532  0.9281 -0.1402
23740SOL    HW275583   5.049  11.125   5.581  0.2711  0.5514  0.0962
23741SOL     OW75584   7.088   0.412   8.129  0.0664 -0.1330  0.3180
23741SOL    HW175585   7.027   0.353   8.085  0.8812 -0.4739 -0.3796
23741SOL    HW275586   7.168   0.361   8.141  0.7844  0.8069 -0.2967
23742SOL     OW75587   8.977  10.008   6.313  0.3751  0.4503 -0.0711
23742SOL    HW175588   8.899  10.061   6.296  0.3521  0.3233 -0.3519
23742SOL    HW275589   9.049  10.072   6.315  0.2183  0.6222  0.5865
23743SOL     OW75590   7.282   3.978   4.620 -0.3920 -0.0398  0.2654
23743SOL    HW175591   7.361   3.924   4.618  0.5207  1.2429 -0.4878
23743SOL    HW275592   7.296   4.038   4.694  0.1762  1.3300 -0.9097
23744SOL     OW75593  10.101   5.793   5.589  0.3635 -0.0978 -0.2213
23744SOL    HW175594  10.024   5.849   5.602  1.2523  1.2788 -0.7521
23744SOL    HW275595  10.173   5.853   5.572  1.7969 -1.3065  1.2158
23745SOL     OW75596   8.526   3.683   3.572  0.3359  0.1221  0.5536
23745SOL    HW175597   8.517   3.723   3.486 -0.0529 -0.3332  0.3760
23745SOL    HW275598   8.457   3.616   3.575  0.3005  0.1796  1.2442
23746SOL     OW75599   5.434   6.285   4.217  0.5632  0.4029 -0.0978
23746SOL    HW175600   5.391   6.244   4.292  1.7130 -0.3515  0.1809
23746SOL    HW275601   5.469   6.367   4.250 -0.9941  1.2327 -0.4360
23747SOL     OW75602   0.647   6.645   9.899  0.1208 -0.1178 -0.6320
23747SOL    HW175603   0.696   6.615   9.975  1.3377  2.3554 -0.3391
23747SOL    HW275604   0.578   6.701   9.935 -0.4068 -0.3243 -1.2794
23748SOL     OW75605   4.619   3.686   8.710 -0.2236  0.4819  0.7956
23748SOL    HW175606   4.623   3.766   8.657  1.4288 -0.3379 -0.3809
23748SOL    HW275607   4.576   3.714   8.791 -3.0135  1.7651 -0.9448
23749SOL     OW75608  10.921  10.493   4.786  0.0382 -0.0374 -0.1699
23749SOL    HW175609  10.943  10.428   4.853 -0.3079 -1.3865 -1.3259
23749SOL    HW275610  10.920  10.576   4.834  2.0143 -0.6326  1.0448
23750SOL     OW75611   5.525   2.413   5.421  0.1929  0.0279  0.1485
23750SOL    HW175612   5.543   2.423   5.515  1.3943  1.7917 -0.2446
23750SOL    HW275613   5.579   2.339   5.394 -0.3217 -0.6308  0.8558
23751SOL     OW75614   7.827   1.236   2.964  0.9766  0.1369 -0.1400
23751SOL    HW175615   7.737   1.260   2.988  1.0569 -0.3245  0.6284
23751SOL    HW275616   7.871   1.218   3.047  1.0432 -2.2527 -0.6123
23752SOL     OW75617   0.526   7.487   2.188 -0.0683 -0.2878 -0.2578
23752SOL    HW175618   0.520   7.561   2.249  0.1763 -0.1644 -0.3807
23752SOL    HW275619   0.444   7.491   2.138  0.3460  0.4763 -0.9084
23753SOL     OW75620   7.428   4.800   0.964 -0.0733  0.0110  0.0750
23753SOL    HW175621   7.462   4.780   1.050 -2.7750 -1.0801  1.0138
23753SOL    HW275622   7.477   4.877   0.935  1.3404  0.0168  2.2914
23754SOL     OW75623   9.237   1.301   1.733  0.0898 -0.0191  0.4578
23754SOL    HW175624   9.142   1.292   1.737  0.1128 -0.1329  0.7769
23754SOL    HW275625   9.252   1.373   1.672 -0.0851 -2.2387 -2.4214
23755SOL     OW75626   8.398   9.633   9.221  0.0477 -0.2608 -0.1937
23755SOL    HW175627   8.474   9.575   9.229  0.6263  0.5297  0.2165
23755SOL    HW275628   8.412   9.679   9.139  0.4015  0.4154  0.2378
23756SOL     OW75629   4.970   5.247   7.481 -0.0921  0.2716 -0.0889
23756SOL    HW175630   4.922   5.169   7.507  1.6479 -0.8602 -0.0564
23756SOL    HW275631   4.988   5.293   7.563  1.7876 -1.1243  0.3766
23757SOL     OW75632   3.929   8.198   2.919 -0.1007  0.5444  0.6468
23757SOL    HW175633   3.836   8.177   2.927 -0.1773  0.7907  0.4316
23757SOL    HW275634   3.959   8.147   2.844 -0.2452  1.0533  0.2349
23758SOL     OW75635   8.896   0.681   6.190 -0.3330 -0.3933 -0.2183
23758SOL    HW175636   8.831   0.627   6.235 -0.7224 -0.3312 -0.7100
23758SOL    HW275637   8.851   0.764   6.172 -0.5664 -0.8274 -1.7627
23759SOL     OW75638   6.057   7.308   0.609 -0.5658  0.1132 -0.0212
23759SOL    HW175639   6.022   7.312   0.520 -1.4396 -0.8783  0.2501
23759SOL    HW275640   6.115   7.383   0.616 -0.3960  0.1440 -1.4671
23760SOL     OW75641   7.490  10.261   6.056 -0.1942  0.3440 -0.0829
23760SOL    HW175642   7.535  10.176   6.054 -0.4236  0.2037  0.4715
23760SOL    HW275643   7.400  10.241   6.029  0.1050  0.6559 -1.3724
23761SOL     OW75644   6.771   6.110   0.238  0.0926 -0.1920 -0.4083
23761SOL    HW175645   6.806   6.056   0.168 -0.8213 -0.6604 -0.5276
23761SOL    HW275646   6.677   6.090   0.238 -0.0930  0.6470  0.2080
23762SOL     OW75647   6.420   7.858   4.575  0.1471  0.2781 -0.0547
23762SOL    HW175648   6.445   7.885   4.487 -2.7989 -0.5425 -1.2763
23762SOL    HW275649   6.351   7.919   4.601 -0.8877 -1.0687  0.5207
23763SOL     OW75650   1.370   9.943   8.214 -0.0735 -0.1878  0.2842
23763SOL    HW175651   1.286   9.988   8.208 -0.0972 -0.1952  0.5252
23763SOL    HW275652   1.387   9.912   8.126 -0.4228 -0.3611  0.2751
23764SOL     OW75653   5.556   9.453   7.226  0.2750  0.9322  0.2847
23764SOL    HW175654   5.472   9.461   7.271 -0.2667  0.5682 -0.6320
23764SOL    HW275655   5.588   9.543   7.220  0.2826  1.0017  1.2433
23765SOL     OW75656   1.239  11.086   5.986  0.2859  0.0891 -0.5162
23765SOL    HW175657   1.179  11.046   5.923 -0.9626 -1.5936  1.5674
23765SOL    HW275658   1.261  11.014   6.046 -2.1478  2.3215  3.5418
23766SOL     OW75659   6.244   8.930   7.363  0.0707  0.6383 -0.0128
23766SOL    HW175660   6.149   8.916   7.359  0.3283 -1.1137 -1.0767
23766SOL    HW275661   6.264   8.979   7.284  0.0970  0.6535  0.0032
23767SOL     OW75662   3.188   6.269   7.182  0.7471 -0.2645  0.2618
23767SOL    HW175663   3.237   6.350   7.176 -1.2883  0.9891 -0.2459
23767SOL    HW275664   3.244   6.203   7.141  3.5708  0.2397  2.9081
23768SOL     OW75665   4.485   2.660  10.430 -0.6021  0.6400  0.0185
23768SOL    HW175666   4.396   2.672  10.462  0.0625  2.1373  1.4158
23768SOL    HW275667   4.540   2.662  10.509  0.7263  0.2762 -0.8570
23769SOL     OW75668   0.406   7.568   1.947 -0.4357  0.0995 -0.0347
23769SOL    HW175669   0.411   7.571   1.851  0.4421 -0.5162 -0.0144
23769SOL    HW275670   0.434   7.655   1.975  0.2447 -0.0256 -0.3071
23770SOL     OW75671   9.415   3.066  10.556 -0.2543 -0.0118 -0.2510
23770SOL    HW175672   9.325   3.041  10.539 -0.2540 -0.7320  0.7385
23770SOL    HW275673   9.412   3.160  10.574 -0.5601  0.3082 -1.8392
23771SOL     OW75674   7.963   0.447   0.778  0.2160  0.1461 -0.5096
23771SOL    HW175675   7.883   0.485   0.815  1.2038  2.6001 -0.7710
23771SOL    HW275676   7.933   0.399   0.701 -1.0351  0.9619 -0.5595
23772SOL     OW75677   7.756   4.895  10.122  0.3391  0.1422 -0.4093
23772SOL    HW175678   7.822   4.882  10.054 -0.3107  0.9685 -1.2206
23772SOL    HW275679   7.767   4.986  10.149 -0.6383  0.3792 -0.7626
23773SOL     OW75680   6.949  10.720   2.335 -0.3344  0.4098  0.4904
23773SOL    HW175681   6.927  10.813   2.336  0.6251  0.6496  0.1696
23773SOL    HW275682   7.044  10.717   2.341 -0.0847 -0.4121 -2.4007
23774SOL     OW75683   1.855   5.203   2.973 -0.5621  0.1578  0.1767
23774SOL    HW175684   1.938   5.174   3.010 -0.7046  1.2365  1.3987
23774SOL    HW275685   1.791   5.190   3.042 -0.9122  1.8082  0.2101
23775SOL     OW75686   1.470   3.775   5.839  0.3724  0.0331 -0.3059
23775SOL    HW175687   1.476   3.714   5.766  1.6803  0.1850 -0.3540
23775SOL    HW275688   1.486   3.722   5.917 -0.3194  0.0000 -0.1761
23776SOL     OW75689   4.844   5.386   3.300  0.1622 -0.1181 -0.0888
23776SOL    HW175690   4.903   5.458   3.323 -1.0299  0.2375  2.0997
23776SOL    HW275691   4.850   5.325   3.373  0.5233 -1.9222 -1.5237
23777SOL     OW75692   1.703   1.378   1.881 -0.0262  0.1978 -0.5900
23777SOL    HW175693   1.777   1.332   1.841  0.9702  0.1042  1.2619
23777SOL    HW275694   1.651   1.308   1.921 -0.5377  0.3692 -0.9492
23778SOL     OW75695  10.309   9.139   4.780 -0.3384 -0.1481 -0.1623
23778SOL    HW175696  10.330   9.051   4.811 -1.7330 -0.1325  0.9297
23778SOL    HW275697  10.393   9.184   4.777  0.1696 -0.9328  1.1784
23779SOL     OW75698   2.736   1.471   5.625 -0.6173  0.3854 -0.3573
23779SOL    HW175699   2.702   1.382   5.635  1.2667 -0.4921 -1.2302
23779SOL    HW275700   2.802   1.479   5.693  0.4259  0.4550 -1.3401
23780SOL     OW75701   6.163   5.369  11.005  0.0482  0.0875 -0.2865
23780SOL    HW175702   6.151   5.380  10.911  1.2800 -0.9195 -0.5840
23780SOL    HW275703   6.234   5.428  11.028  0.9460 -0.9435 -0.3371
23781SOL     OW75704   4.512   8.280   3.881  0.0471 -0.3962 -0.1548
23781SOL    HW175705   4.568   8.273   3.958 -0.1809 -2.3296 -0.1273
23781SOL    HW275706   4.486   8.372   3.878 -0.6398 -0.4397  2.5617
23782SOL     OW75707   7.800   3.960   9.493 -0.1817  0.3158  0.4013
23782SOL    HW175708   7.826   3.915   9.574  0.2515  2.0326  1.2712
23782SOL    HW275709   7.853   4.040   9.492 -0.1903  0.3512 -1.5949
23783SOL     OW75710   1.060   2.883   7.472 -0.1971  0.1907 -0.4200
23783SOL    HW175711   1.048   2.970   7.434  1.3043  0.4479 -0.3497
23783SOL    HW275712   1.022   2.889   7.560  0.3179  0.9322 -0.2383
23784SOL     OW75713   4.437   8.808   7.004 -0.2043 -0.2068 -0.8883
23784SOL    HW175714   4.423   8.803   7.099 -1.4730 -0.3608 -1.0643
23784SOL    HW275715   4.407   8.723   6.972  0.8127 -0.4014 -1.3813
23785SOL     OW75716   5.589   3.082  10.056 -0.0177 -0.2403  0.1873
23785SOL    HW175717   5.654   3.141  10.095 -0.8228  0.5199  0.4129
23785SOL    HW275718   5.639   3.004  10.032  0.8723  0.0931  0.8857
23786SOL     OW75719   6.562   9.198  10.433  0.1371 -0.7989 -0.1263
23786SOL    HW175720   6.541   9.277  10.482 -1.1663 -1.6152  0.6867
23786SOL    HW275721   6.655   9.183  10.450  0.6993  1.1202 -1.1758
23787SOL     OW75722   5.599  10.140   3.447  0.0027 -0.4776 -0.4128
23787SOL    HW175723   5.583  10.171   3.358 -1.2004  0.2352  0.0364
23787SOL    HW275724   5.599  10.220   3.501  0.1839 -0.9472  0.3056
23788SOL     OW75725   7.368   2.028   6.243 -0.1114  0.4289  0.0651
23788SOL    HW175726   7.410   2.028   6.156 -0.4676 -0.8812 -0.1385
23788SOL    HW275727   7.292   2.084   6.232  1.1893  2.3246  0.2607
23789SOL     OW75728   8.707   4.896   0.169  0.2260  0.1693 -0.5130
23789SOL    HW175729   8.721   4.895   0.074  0.9317 -0.6992 -0.4206
23789SOL    HW275730   8.727   4.985   0.196  0.7272  0.2361 -1.0897
23790SOL     OW75731  10.462   3.205   4.236 -0.1374 -0.3217 -0.2100
23790SOL    HW175732  10.523   3.137   4.267 -0.8857 -0.5715  0.7732
23790SOL    HW275733  10.376   3.163   4.237 -0.5711  0.5401  0.1237
23791SOL     OW75734   1.409   7.478   4.518  0.4755 -0.5155 -0.0165
23791SOL    HW175735   1.465   7.494   4.594 -0.0911 -1.3649  0.5969
23791SOL    HW275736   1.468   7.485   4.443  0.7162  2.1773  0.3006
23792SOL     OW75737   2.675  10.657   2.963 -0.0771  0.4510 -0.0377
23792SOL    HW175738   2.665  10.697   3.049  2.1382  0.8959  0.0852
23792SOL    HW275739   2.751  10.702   2.924 -0.2789 -0.5701 -1.7249
23793SOL     OW75740   6.432   6.791   8.749  0.1216 -0.4713  0.0220
23793SOL    HW175741   6.421   6.753   8.836 -1.6364  2.6301  1.3243
23793SOL    HW275742   6.346   6.784   8.709  0.2785  0.2732 -0.4711
23794SOL     OW75743  10.743   1.060   8.337 -0.1604 -0.1273 -0.6145
23794SOL    HW175744  10.677   1.099   8.394 -0.0862 -0.2310 -0.4551
23794SOL    HW275745  10.780   1.133   8.288  1.1011  0.2562  0.8262
23795SOL     OW75746   2.098   7.556  10.591  0.6399 -0.7147  0.5759
23795SOL    HW175747   2.015   7.601  10.605  1.4485  0.4514  1.9692
23795SOL    HW275748   2.099   7.486  10.657  0.9805 -0.3784  0.9343
23796SOL     OW75749   8.984  10.664   8.469 -0.1300 -0.0333 -0.1528
23796SOL    HW175750   9.041  10.683   8.544  1.7105  1.0215 -1.7120
23796SOL    HW275751   9.026  10.590   8.425 -1.2613 -0.7239 -0.1041
23797SOL     OW75752   5.065   2.116   2.445 -0.0752  0.3646  0.1673
23797SOL    HW175753   5.000   2.183   2.465 -0.6892 -0.2889  0.3792
23797SOL    HW275754   5.139   2.137   2.501 -0.0987  1.1025 -0.0637
23798SOL     OW75755   1.419   3.766   5.127 -0.0719 -0.3675  0.4523
23798SOL    HW175756   1.440   3.706   5.199 -0.9088  0.5020  1.4652
23798SOL    HW275757   1.364   3.833   5.168 -0.0155  0.5152 -0.8718
23799SOL     OW75758   9.212   3.135   4.153 -0.8647 -0.1648  0.4548
23799SOL    HW175759   9.257   3.216   4.178 -0.8290  0.0925 -0.4012
23799SOL    HW275760   9.273   3.066   4.179  0.5257  0.2092 -1.5650
23800SOL     OW75761   1.679   8.015   7.601  0.0465  0.3618  0.2265
23800SOL    HW175762   1.742   8.076   7.562 -1.3030  1.6081 -0.0981
23800SOL    HW275763   1.597   8.032   7.555 -0.2999 -2.0252 -0.1458
23801SOL     OW75764   4.917   5.662   8.457 -0.3311 -0.4274 -0.4717
23801SOL    HW175765   4.976   5.635   8.387 -0.7683  0.1081 -1.0603
23801SOL    HW275766   4.892   5.752   8.434 -0.4194 -0.2190  0.4121
23802SOL     OW75767   4.621   4.578   1.297  0.0150 -0.1302  0.0720
23802SOL    HW175768   4.539   4.538   1.326 -0.7969  1.7462  0.4749
23802SOL    HW275769   4.685   4.549   1.362 -0.6541 -0.3496  0.6463
23803SOL     OW75770   4.723   6.542   9.362 -0.0900 -0.1692  0.6057
23803SOL    HW175771   4.692   6.454   9.340 -1.1937  0.3069  0.2137
23803SOL    HW275772   4.819   6.535   9.357 -0.1842 -0.6657 -2.1865
23804SOL     OW75773   4.366   7.964   8.328  0.5702 -0.4667  0.1514
23804SOL    HW175774   4.329   7.942   8.242 -3.8704  0.7388  1.4657
23804SOL    HW275775   4.387   8.057   8.323  0.4639 -0.4335  0.3057
23805SOL     OW75776   4.325   0.006   4.601  0.0748  0.3326  0.5268
23805SOL    HW175777   4.395  -0.005   4.537 -0.9479  3.9453 -1.4960
23805SOL    HW275778   4.370   0.022   4.684  1.5613  0.1212 -0.2092
23806SOL     OW75779  10.213   1.822   7.245 -0.8013 -0.0110  0.6640
23806SOL    HW175780  10.124   1.822   7.281 -0.8831  0.8141  0.4787
23806SOL    HW275781  10.245   1.734   7.261 -2.7149 -1.2961 -1.9426
23807SOL     OW75782   0.444   3.760   1.646  0.2356 -0.4633 -0.6192
23807SOL    HW175783   0.415   3.822   1.714  2.5524 -1.0239  0.9882
23807SOL    HW275784   0.393   3.680   1.664  1.9207 -1.1472  1.5987
23808SOL     OW75785   7.467   1.803   0.435  0.1375 -0.5713 -0.1705
23808SOL    HW175786   7.443   1.881   0.485 -1.5162 -0.8314 -0.5027
23808SOL    HW275787   7.401   1.738   0.457 -0.2235 -0.9269 -2.0902
23809SOL     OW75788   3.265   1.642   9.528 -0.9122 -0.0268 -0.6597
23809SOL    HW175789   3.347   1.635   9.479  0.7471 -1.0605  1.9800
23809SOL    HW275790   3.199   1.604   9.471  0.7881 -0.8331 -2.2122
23810SOL     OW75791   0.928   1.019  10.126 -0.6684  0.0328 -0.4165
23810SOL    HW175792   1.020   1.037  10.143 -0.6866 -0.6450  0.4889
23810SOL    HW275793   0.929   0.941  10.070 -0.6319  1.8467 -3.1583
23811SOL     OW75794   2.293  10.477   1.454  0.0378 -0.0412 -0.0022
23811SOL    HW175795   2.321  10.431   1.533 -1.4000  1.0725  1.2219
23811SOL    HW275796   2.304  10.570   1.475 -1.6256  0.3160 -0.5686
23812SOL     OW75797   6.164   8.251   1.901  0.4193 -0.3943  0.5334
23812SOL    HW175798   6.231   8.245   1.969  0.7277 -1.0190  0.1876
23812SOL    HW275799   6.144   8.160   1.879  0.2290 -0.2028 -0.1118
23813SOL     OW75800   9.388   8.290   1.953  0.2228  0.1665  0.5792
23813SOL    HW175801   9.337   8.370   1.962  0.2129  0.0364  1.7435
23813SOL    HW275802   9.354   8.231   2.020  1.7759  0.0259  1.2797
23814SOL     OW75803   1.624  10.317   1.441 -0.1819 -0.1362 -0.6711
23814SOL    HW175804   1.714  10.346   1.450 -0.3234  0.5488 -1.3319
23814SOL    HW275805   1.572  10.398   1.439 -1.0051 -0.5616  1.4363
23815SOL     OW75806   7.612   5.467  11.110 -0.0369 -0.1604  0.4436
23815SOL    HW175807   7.632   5.468  11.016  1.6827  0.4686  0.7819
23815SOL    HW275808   7.533   5.520  11.118  0.8671  1.3947 -0.4568
23816SOL     OW75809   9.974   8.192   8.299 -0.1979  0.0711  0.2039
23816SOL    HW175810   9.953   8.184   8.392  0.1514 -0.6621  0.2309
23816SOL    HW275811  10.014   8.108   8.277 -2.7452 -0.8303 -1.2767
23817SOL     OW75812   0.846   2.967   4.171 -0.3688 -0.1843  0.9247
23817SOL    HW175813   0.900   2.933   4.100 -0.9573  0.0164  0.3811
23817SOL    HW275814   0.818   3.053   4.142  1.1388  0.8421  2.3081
23818SOL     OW75815   0.297   4.958   6.193 -0.1016 -0.0353  0.4542
23818SOL    HW175816   0.367   5.019   6.217 -1.5735  1.1534  1.9612
23818SOL    HW275817   0.327   4.873   6.227  1.2710  0.1060 -0.3020
23819SOL     OW75818   6.495   5.241   3.374 -0.3428 -0.4102  0.1384
23819SOL    HW175819   6.514   5.166   3.318 -0.4750 -0.4696  0.1737
23819SOL    HW275820   6.405   5.228   3.402 -0.4171 -0.1577  0.0173
23820SOL     OW75821   1.713   7.279   3.507  0.0617 -0.0300 -0.1405
23820SOL    HW175822   1.636   7.224   3.496  0.3045 -0.1127 -1.6558
23820SOL    HW275823   1.771   7.229   3.563 -0.5647 -0.4150  0.1676
23821SOL     OW75824   0.108   1.133   0.635 -0.1076 -0.3637  0.7106
23821SOL    HW175825   0.139   1.043   0.649  0.5701  0.1387  2.7778
23821SOL    HW275826   0.133   1.153   0.545  0.0212 -2.1187  0.3090
23822SOL     OW75827   4.115   5.128   9.944 -0.2368 -0.1620 -0.3432
23822SOL    HW175828   4.040   5.127  10.003  0.2223  1.1375  0.2967
23822SOL    HW275829   4.116   5.217   9.908  1.4260  0.0963  0.2610
23823SOL     OW75830   5.060   0.979   6.797 -0.3983 -0.1658 -0.2327
23823SOL    HW175831   5.072   0.936   6.713 -0.4514 -0.3156 -0.1654
23823SOL    HW275832   5.118   0.931   6.857  0.4106  0.5768 -0.3909
23824SOL     OW75833  10.934  10.339   7.772 -0.1038 -0.1429 -0.2743
23824SOL    HW175834  10.852  10.389   7.772  0.2224  0.4110  0.5808
23824SOL    HW275835  11.002  10.406   7.773  0.4099 -0.5703 -2.3080
23825SOL     OW75836   0.190   6.431   2.041 -0.8639  0.4195 -0.6332
23825SOL    HW175837   0.233   6.471   1.965  1.6451 -0.9802 -0.0757
23825SOL    HW275838   0.207   6.337   2.031 -3.0632 -0.1286  0.1742
23826SOL     OW75839   4.637   7.953   4.908  0.0682 -0.7963  0.3984
23826SOL    HW175840   4.703   7.996   4.962  0.2000 -1.2916  0.6300
23826SOL    HW275841   4.556   7.959   4.960 -0.4715  1.2334 -0.5504
23827SOL     OW75842   0.616   2.600   7.185  0.4237  0.4004 -0.5873
23827SOL    HW175843   0.541   2.602   7.243  0.3107 -0.3917 -0.6963
23827SOL    HW275844   0.603   2.675   7.127  0.0109  0.5954 -0.2494
23828SOL     OW75845   3.349   7.427   9.744  0.2131  0.1474 -0.7891
23828SOL    HW175846   3.328   7.515   9.775  1.1528 -0.0408  0.4877
23828SOL    HW275847   3.430   7.438   9.694  2.5944 -0.4000  2.5647
23829SOL     OW75848   9.290   4.313   1.075 -0.7233 -0.2027 -0.3772
23829SOL    HW175849   9.247   4.308   1.160  0.0555  0.9778  0.1142
23829SOL    HW275850   9.221   4.346   1.016 -1.2853 -1.0964 -0.2345
23830SOL     OW75851   8.164   9.005   1.093 -0.0626  0.0093 -0.1042
23830SOL    HW175852   8.234   9.057   1.053  0.1731 -0.1393  0.1128
23830SOL    HW275853   8.091   9.012   1.032  0.4102 -0.5135 -0.7399
23831SOL     OW75854   4.906   6.121   0.522  0.5736 -0.2943  0.8091
23831SOL    HW175855   4.988   6.073   0.534 -0.0980 -1.5214  0.6527
23831SOL    HW275856   4.837   6.057   0.541 -0.3560  0.7122  0.9486
23832SOL     OW75857   6.056   9.413   2.285  0.2465 -0.5316  0.1981
23832SOL    HW175858   6.079   9.422   2.193 -0.8603 -0.7949 -0.1220
23832SOL    HW275859   6.003   9.333   2.289 -0.6780  0.0863  0.8632
23833SOL     OW75860   2.626   3.115   7.835 -0.1358 -0.2219 -0.0063
23833SOL    HW175861   2.575   3.162   7.770  0.7256 -1.5905 -1.7759
23833SOL    HW275862   2.583   3.030   7.844  0.2314 -0.3583  0.5967
23834SOL     OW75863   2.144   8.204   2.820 -0.0884 -0.3039 -0.0926
23834SOL    HW175864   2.061   8.239   2.788  0.1219  0.8438  0.5806
23834SOL    HW275865   2.148   8.231   2.912 -0.2245 -2.6925  0.6998
23835SOL     OW75866   9.759   7.846   5.572  0.4230  0.1745  0.0104
23835SOL    HW175867   9.786   7.802   5.653  2.7180  1.6698  0.1714
23835SOL    HW275868   9.721   7.929   5.601 -1.3778 -0.4578 -0.3961
23836SOL     OW75869   6.067   8.227   1.400  0.0229  0.1556  0.5111
23836SOL    HW175870   6.137   8.268   1.450  1.1458 -2.0825  0.8876
23836SOL    HW275871   6.056   8.140   1.440 -2.5509  0.1964  0.0682
23837SOL     OW75872  10.549   0.276   5.650 -0.2192 -0.0344  0.1777
23837SOL    HW175873  10.481   0.254   5.713 -1.5879 -3.4648 -2.2078
23837SOL    HW275874  10.626   0.228   5.679 -0.1069  0.3435  0.5146
23838SOL     OW75875   6.797   3.612   2.286  0.3206  0.5568  0.3095
23838SOL    HW175876   6.814   3.532   2.236 -0.1343  1.1581 -0.8249
23838SOL    HW275877   6.713   3.597   2.329 -1.6560  1.7830 -2.8453
23839SOL     OW75878   2.606   4.368   1.133 -0.4204 -0.4302 -0.1991
23839SOL    HW175879   2.658   4.303   1.180 -1.2210 -0.7673  0.2359
23839SOL    HW275880   2.573   4.322   1.056 -0.5656 -0.3863 -0.1627
23840SOL     OW75881   3.093   5.632   2.917  0.2604  0.6325 -0.4902
23840SOL    HW175882   3.095   5.549   2.869  0.8138  0.3566 -0.0058
23840SOL    HW275883   3.103   5.699   2.849  1.0631  0.2472 -0.7701
23841SOL     OW75884   9.183   2.002   1.118 -0.6006  0.2233  0.0385
23841SOL    HW175885   9.147   2.036   1.037 -0.5347  1.8849  0.6695
23841SOL    HW275886   9.115   1.943   1.152 -2.1513  2.1741  0.4882
23842SOL     OW75887   6.306   1.012   7.952  0.2771  0.5171 -0.6142
23842SOL    HW175888   6.266   1.099   7.946 -1.1352 -0.1988 -2.8679
23842SOL    HW275889   6.232   0.951   7.958  1.2254 -0.5915  0.6066
23843SOL     OW75890   8.905   9.155   7.845 -0.0872 -0.0196 -0.3255
23843SOL    HW175891   8.851   9.138   7.922  1.8466  2.1912  1.6349
23843SOL    HW275892   8.971   9.086   7.846 -1.8824 -1.9223 -1.9746
23844SOL     OW75893   6.248   9.756   6.887  0.6227  0.2412  0.2395
23844SOL    HW175894   6.332   9.723   6.920  0.9462  0.0999 -0.7149
23844SOL    HW275895   6.271   9.811   6.812 -0.0080  1.6669  1.0417
23845SOL     OW75896   3.892   9.768   1.879  0.0189 -0.0304 -0.4379
23845SOL    HW175897   3.875   9.775   1.785 -0.6789  0.1596 -0.3030
23845SOL    HW275898   3.876   9.675   1.899  2.0579 -0.5277 -0.8477
23846SOL     OW75899   3.316   3.373   9.948 -0.3489  0.0141 -0.3875
23846SOL    HW175900   3.280   3.396  10.034 -0.8166 -2.0403  0.0218
23846SOL    HW275901   3.407   3.348   9.967 -0.9438 -2.1663 -0.1299
23847SOL     OW75902   2.898   3.837   7.320 -0.3791 -0.0993  0.6657
23847SOL    HW175903   2.907   3.855   7.413  2.2731  1.6810  0.2107
23847SOL    HW275904   2.959   3.898   7.278 -0.2987 -1.8910 -2.1292
23848SOL     OW75905   0.361   1.647   9.481  0.1293  0.0419  0.2547
23848SOL    HW175906   0.360   1.630   9.387  0.3256  0.5999  0.1486
23848SOL    HW275907   0.269   1.647   9.507  0.0290  0.6955 -0.0889
23849SOL     OW75908   8.658   6.682   4.384 -0.2280  0.0161 -0.1701
23849SOL    HW175909   8.729   6.644   4.332 -1.0176 -1.2255 -0.3971
23849SOL    HW275910   8.580   6.666   4.331 -0.8467  0.1141  0.7014
23850SOL     OW75911  10.062  10.487   8.670 -0.0783 -0.2184 -0.0103
23850SOL    HW175912  10.043  10.532   8.588 -0.6718 -1.9626 -0.8904
23850SOL    HW275913  10.034  10.397   8.655  3.9700 -1.7717  0.4465
23851SOL     OW75914   4.036   5.413   8.838  0.0135  0.0743 -0.2267
23851SOL    HW175915   4.051   5.322   8.812 -0.9021 -0.4045  0.8046
23851SOL    HW275916   4.055   5.464   8.759  0.6644 -0.9941 -0.7893
23852SOL     OW75917   7.927   3.854  10.619 -0.8845 -0.0939 -0.3478
23852SOL    HW175918   7.865   3.856  10.693  0.1162  0.3786  0.5066
23852SOL    HW275919   7.991   3.921  10.641  1.0458 -1.8938 -0.2195
23853SOL     OW75920   1.018   6.881   7.819  0.1175 -0.1926 -0.2637
23853SOL    HW175921   1.037   6.927   7.737 -1.4843 -0.2250 -0.6860
23853SOL    HW275922   1.046   6.791   7.803  0.5976 -0.0116 -0.4649
23854SOL     OW75923   1.699   2.227   3.168  0.3791 -0.0310  0.3025
23854SOL    HW175924   1.705   2.135   3.141  0.3940  0.6038 -2.0730
23854SOL    HW275925   1.785   2.247   3.204 -0.2111 -1.4216  2.7202
23855SOL     OW75926   7.598   5.914  10.059 -0.4771  0.5146  0.5142
23855SOL    HW175927   7.574   5.984  10.120  0.9782  1.2017  0.3297
23855SOL    HW275928   7.642   5.958   9.987  0.2330 -0.5645  0.2608
23856SOL     OW75929  10.897   4.796   1.779 -0.0862  0.6431 -0.0110
23856SOL    HW175930  10.839   4.724   1.805  2.0039 -0.9415  0.5731
23856SOL    HW275931  10.893   4.858   1.851 -0.3138  0.0883  0.4599
23857SOL     OW75932   6.587   9.859   6.897  0.0216 -0.1493 -0.0868
23857SOL    HW175933   6.526   9.843   6.825 -0.1265 -0.3636  0.0845
23857SOL    HW275934   6.560   9.943   6.934 -1.1300 -0.9447  0.9487
23858SOL     OW75935   6.141   8.418   7.192  0.0253  0.7926  0.3731
23858SOL    HW175936   6.057   8.441   7.152 -0.7160  2.6574  2.6879
23858SOL    HW275937   6.121   8.408   7.285  2.1594 -0.0923  0.8029
23859SOL     OW75938   9.862   9.109   5.088  0.1940 -0.1169 -0.2545
23859SOL    HW175939   9.794   9.144   5.145  0.3535  0.4899 -0.4321
23859SOL    HW275940   9.815   9.075   5.012  0.1251  0.7427 -0.6016
23860SOL     OW75941   7.707  10.784  10.636  0.1365 -0.6258  0.6232
23860SOL    HW175942   7.713  10.689  10.621  0.9646 -0.7491  1.6487
23860SOL    HW275943   7.772  10.802  10.704 -1.5799  0.3086  2.1048
23861SOL     OW75944   1.301   0.911   5.476 -0.4906  0.0200  0.2820
23861SOL    HW175945   1.294   0.831   5.424 -1.6372  0.1141  0.2693
23861SOL    HW275946   1.392   0.938   5.466 -0.4136 -0.5745 -0.7802
23862SOL     OW75947   3.793   9.866   9.097 -0.0844 -0.1993  0.5210
23862SOL    HW175948   3.759   9.834   9.013  2.3788  0.9511 -1.0209
23862SOL    HW275949   3.714   9.890   9.146 -1.6341  1.0918 -2.2888
23863SOL     OW75950   9.016   3.409   2.528  0.2967  0.0497  0.5571
23863SOL    HW175951   9.070   3.340   2.567 -1.1663 -0.7176  1.3204
23863SOL    HW275952   8.927   3.388   2.556 -0.5068  0.8466 -1.2600
23864SOL     OW75953   0.258   6.182   3.589 -0.2641 -0.2837 -0.0782
23864SOL    HW175954   0.284   6.273   3.576 -0.2225 -0.0480  1.4361
23864SOL    HW275955   0.249   6.146   3.501 -0.7820  1.3216 -0.7082
23865SOL     OW75956   1.825   9.534   5.474  0.4585  0.6607  0.4362
23865SOL    HW175957   1.824   9.629   5.483  0.4638  0.5311  1.9479
23865SOL    HW275958   1.810   9.519   5.380 -1.1549  2.1166  0.4130
23866SOL     OW75959   9.600   3.751  10.975 -0.2615 -0.1665  0.2912
23866SOL    HW175960   9.644   3.738  10.891 -0.2524  0.8200  0.1281
23866SOL    HW275961   9.655   3.706  11.039  0.4451  0.1917 -0.0568
23867SOL     OW75962   4.510   9.581   9.591 -0.2401 -0.2385  0.2904
23867SOL    HW175963   4.526   9.505   9.535  1.4714  1.0827 -1.0824
23867SOL    HW275964   4.583   9.640   9.575 -2.0835  2.2632  0.4152
23868SOL     OW75965   1.609   8.422   5.481  0.3237 -0.4194 -0.1709
23868SOL    HW175966   1.621   8.427   5.386 -3.3208  0.8791 -0.7205
23868SOL    HW275967   1.562   8.503   5.503  0.7121 -0.8855  2.7025
23869SOL     OW75968   6.349   3.480   0.089  0.2213 -0.1181  0.0646
23869SOL    HW175969   6.371   3.404   0.036 -0.1205 -0.6641  0.6897
23869SOL    HW275970   6.286   3.529   0.036 -0.1777 -0.6975  0.0026
23870SOL     OW75971   2.369   5.608   1.823 -0.1026 -0.4605 -0.0065
23870SOL    HW175972   2.373   5.661   1.903  1.5453 -2.6276  1.4591
23870SOL    HW275973   2.279   5.618   1.793 -0.5947  0.9814  1.7323
23871SOL     OW75974  10.235   2.732   9.622 -0.2515 -0.3851 -0.3145
23871SOL    HW175975  10.235   2.699   9.532  0.0695 -0.7093 -0.1985
23871SOL    HW275976  10.189   2.816   9.617  0.0857 -0.2234 -0.8489
23872SOL     OW75977   9.467   7.444   6.462 -0.0188  0.2729  0.3081
23872SOL    HW175978   9.459   7.435   6.557 -0.1573 -0.4890  0.2315
23872SOL    HW275979   9.386   7.405   6.427  0.5924 -0.6025 -0.1722
23873SOL     OW75980  10.880  11.045   6.174 -0.4031 -0.1186  0.2714
23873SOL    HW175981  10.853  10.976   6.113 -0.2821 -0.8020  0.9903
23873SOL    HW275982  10.975  11.049   6.167 -0.4564  0.4618 -0.2764
23874SOL     OW75983   5.040   8.922   2.776  0.0623  1.0013 -0.3259
23874SOL    HW175984   4.968   8.986   2.774 -0.0891  0.8282 -0.4890
23874SOL    HW275985   5.116   8.972   2.747  0.0573  1.2483  0.0874
23875SOL     OW75986   0.834   7.085   4.310 -0.1441  0.3000 -0.1918
23875SOL    HW175987   0.790   7.141   4.245  1.3105  0.6621 -0.9099
23875SOL    HW275988   0.772   7.014   4.326 -1.2093  1.0619 -0.7650
23876SOL     OW75989   2.164   6.940   2.324 -0.2233 -0.1898 -0.6437
23876SOL    HW175990   2.085   6.900   2.358  0.3561  1.1171  2.5395
23876SOL    HW275991   2.148   6.948   2.230 -3.5969 -0.4691 -0.2001
23877SOL     OW75992  10.210   8.532   0.810  0.4063  0.1023 -0.2761
23877SOL    HW175993  10.259   8.612   0.829  0.6077  0.1373 -0.9067
23877SOL    HW275994  10.276   8.463   0.811  0.2914 -0.0065 -0.0832
23878SOL     OW75995   9.888   4.859   8.306  0.7281  0.4056  0.2714
23878SOL    HW175996   9.833   4.790   8.270  1.7915 -1.2975  1.7178
23878SOL    HW275997   9.848   4.940   8.276  0.0417 -0.8261 -2.3929
23879SOL     OW75998   4.196   6.779  10.964 -0.3710 -0.1264  0.2601
23879SOL    HW175999   4.288   6.805  10.972 -0.2664 -0.9338  2.4038
23879SOL    HW276000   4.156   6.848  10.912  1.5122  0.0378 -1.0879
23880SOL     OW76001   6.075   0.856   6.068  0.3289  0.1135  0.0377
23880SOL    HW176002   6.046   0.876   5.979  2.0708 -0.9980 -0.8470
23880SOL    HW276003   6.083   0.941   6.111 -2.3165  0.5568 -0.2322
23881SOL     OW76004   6.968   3.694   2.618  0.0640 -0.5513 -0.2427
23881SOL    HW176005   6.961   3.611   2.665  0.1963  0.4550  1.6477
23881SOL    HW276006   6.882   3.735   2.628 -0.1614 -0.6277 -1.5833
23882SOL     OW76007   0.547   6.710   0.103 -0.7363 -0.2337 -0.4985
23882SOL    HW176008   0.641   6.694   0.092 -0.7408 -0.5434 -0.0807
23882SOL    HW276009   0.541   6.803   0.123 -0.2606 -0.7277  2.3581
23883SOL     OW76010   6.108   8.207   0.752  0.1581 -0.3920  0.1347
23883SOL    HW176011   6.075   8.265   0.821 -1.4737  0.2882 -1.1558
23883SOL    HW276012   6.111   8.263   0.674  0.0904 -1.6324 -0.7769
23884SOL     OW76013   2.153   4.687   7.226 -0.0750 -0.1904 -0.0889
23884SOL    HW176014   2.082   4.747   7.246 -0.9459 -1.3605  0.4216
23884SOL    HW276015   2.112   4.616   7.177  0.8496 -0.6172 -0.2811
23885SOL     OW76016   8.183   8.457   0.378  0.7297  0.1737 -0.1918
23885SOL    HW176017   8.251   8.390   0.367  0.1869 -0.8521  2.1065
23885SOL    HW276018   8.232   8.539   0.386  1.8190 -0.5985  1.9166
23886SOL     OW76019   3.413   9.888   0.624  0.2992 -0.4051  0.1495
23886SOL    HW176020   3.337   9.843   0.661 -0.3989 -0.1697 -0.9772
23886SOL    HW276021   3.414   9.863   0.532  0.5888  0.9351 -0.2343
23887SOL     OW76022   8.961   7.495   6.348 -0.2549  0.2867  0.5867
23887SOL    HW176023   8.981   7.580   6.387  0.5942 -0.6848  2.4066
23887SOL    HW276024   8.875   7.472   6.384  2.0072 -2.2945  5.4103
23888SOL     OW76025   4.395   6.428   1.519 -0.0367  0.5853 -0.4206
23888SOL    HW176026   4.442   6.440   1.602 -0.5921 -1.8009  0.3101
23888SOL    HW276027   4.463   6.436   1.452  1.2703 -1.4598  0.5353
23889SOL     OW76028   1.895   3.266   7.508  0.3312  0.0430 -0.4980
23889SOL    HW176029   1.853   3.312   7.435 -1.8695  1.4073  1.5219
23889SOL    HW276030   1.890   3.174   7.484 -0.1377  0.4598 -2.1494
23890SOL     OW76031   6.725   2.280   6.648  0.2913 -0.3243 -0.0200
23890SOL    HW176032   6.708   2.252   6.558 -0.6967 -1.1172  0.3961
23890SOL    HW276033   6.773   2.208   6.688 -0.6002 -0.6442  0.5105
23891SOL     OW76034   9.464   3.721   7.124  0.3794  0.1912 -0.0435
23891SOL    HW176035   9.491   3.704   7.034  1.3802  0.3908  0.2079
23891SOL    HW276036   9.546   3.734   7.172 -0.1738  1.6815  0.5780
23892SOL     OW76037  11.067   8.260   1.207 -0.2579 -0.0965  0.1426
23892SOL    HW176038  11.095   8.285   1.295  1.0223  2.7709 -0.9626
23892SOL    HW276039  11.146   8.230   1.164 -0.7793 -0.9796 -0.2351
23893SOL     OW76040   7.892   9.709   8.727  0.1718 -0.1661  0.2450
23893SOL    HW176041   7.901   9.625   8.772 -0.0056 -0.0081  0.5836
23893SOL    HW276042   7.889   9.687   8.634  0.3089 -0.5173  0.3227
23894SOL     OW76043   4.130   0.875   6.430 -0.0528  0.0409 -0.1752
23894SOL    HW176044   4.171   0.931   6.496  0.1283 -0.3551  0.0460
23894SOL    HW276045   4.043   0.914   6.416 -0.5992 -0.6002  1.2251
23895SOL     OW76046   8.000   9.837   8.380 -0.2132 -0.0215  0.3387
23895SOL    HW176047   8.059   9.893   8.432  1.0215 -0.7738 -0.2076
23895SOL    HW276048   7.959   9.897   8.318  0.4473  0.4191  0.3169
23896SOL     OW76049   2.525   6.647   8.189 -0.3568  0.2307 -0.4291
23896SOL    HW176050   2.498   6.627   8.100 -0.4468 -0.9693 -0.1509
23896SOL    HW276051   2.525   6.562   8.234  0.0379  0.7620  0.6140
23897SOL     OW76052   0.209   5.419   2.427  0.1310  0.1973  0.0491
23897SOL    HW176053   0.213   5.332   2.389 -0.7486  0.8081 -1.4954
23897SOL    HW276054   0.269   5.471   2.374  0.6683  0.5555  0.9743
23898SOL     OW76055   6.148   9.665   6.152 -0.0949 -0.3740  0.1180
23898SOL    HW176056   6.166   9.666   6.246  2.7317  1.6566 -0.3181
23898SOL    HW276057   6.078   9.729   6.141  2.0057  2.2048  0.6070
23899SOL     OW76058   0.287   8.809   4.790 -0.4885 -0.5974 -0.3409
23899SOL    HW176059   0.227   8.884   4.787  0.5326  0.4663  2.3417
23899SOL    HW276060   0.233   8.737   4.822 -1.1283 -0.6387 -1.4564
23900SOL     OW76061   8.368   7.346   4.804  0.3021 -0.5677  0.0440
23900SOL    HW176062   8.318   7.361   4.884 -1.6410  0.8396 -1.3451
23900SOL    HW276063   8.433   7.417   4.803 -1.4102  1.0881 -0.8476
23901SOL     OW76064   2.598   6.181   8.418  0.9440  0.0082 -0.6111
23901SOL    HW176065   2.546   6.102   8.435 -1.7903  2.1583  2.0864
23901SOL    HW276066   2.622   6.214   8.504  0.3333  3.1115 -1.4934
23902SOL     OW76067   5.350   7.002   8.843  0.8127  0.4476 -0.7876
23902SOL    HW176068   5.343   6.926   8.901  1.4361  1.8787  1.2768
23902SOL    HW276069   5.321   7.076   8.896  1.9138  1.9270 -2.1374
23903SOL     OW76070   0.986   5.412   5.943  0.2134 -0.0306  0.0195
23903SOL    HW176071   0.944   5.493   5.914  2.2572  0.5517 -1.5975
23903SOL    HW276072   0.943   5.343   5.892 -0.1358  0.3015 -0.1371
23904SOL     OW76073   6.846   9.342   6.775  0.5872 -0.3325  0.4170
23904SOL    HW176074   6.921   9.292   6.742  0.8080 -0.2343  0.7617
23904SOL    HW276075   6.796   9.279   6.827  0.8318 -0.2153  0.7990
23905SOL     OW76076   7.516   7.218  10.895 -0.2353  0.2119 -0.1986
23905SOL    HW176077   7.464   7.138  10.907 -0.3557  0.4760  1.2217
23905SOL    HW276078   7.464   7.272  10.837 -0.3134 -0.5915 -0.9056
23906SOL     OW76079   1.925  10.334   9.275  0.2370 -0.4608 -0.6869
23906SOL    HW176080   1.925  10.421   9.236 -1.5951 -0.5468 -0.9781
23906SOL    HW276081   1.979  10.281   9.215  0.1008  0.1323 -1.3454
23907SOL     OW76082   2.322   3.659   7.187 -0.3255  0.3652 -0.4283
23907SOL    HW176083   2.401   3.711   7.171  0.0171 -0.2292 -0.7176
23907SOL    HW276084   2.331   3.583   7.130 -0.7833 -0.0456  0.0303
23908SOL     OW76085   2.609   6.464   1.154 -0.2495 -0.7170 -0.5836
23908SOL    HW176086   2.639   6.388   1.104 -0.0015 -0.5947 -0.6195
23908SOL    HW276087   2.513   6.459   1.149 -0.2282 -0.6050 -1.2275
23909SOL     OW76088   6.781   3.137   4.472  0.7097 -0.0790 -0.3897
23909SOL    HW176089   6.738   3.068   4.421  1.9317 -0.7285 -0.5942
23909SOL    HW276090   6.834   3.089   4.537 -0.8855  0.7186  1.6182
23910SOL     OW76091   9.595   3.694   1.318  0.0200  0.3768  0.2282
23910SOL    HW176092   9.671   3.640   1.299 -0.0162  0.7770 -1.1773
23910SOL    HW276093   9.543   3.691   1.238 -0.4544  1.7192  0.4646
23911SOL     OW76094   0.921   3.628  11.049  0.0213 -0.1110  0.0341
23911SOL    HW176095   0.863   3.581  11.108 -0.5941  1.4931  0.7535
23911SOL    HW276096   0.940   3.710  11.094  0.5112  0.6423 -1.4736
23912SOL     OW76097   2.194   1.102   6.579 -0.1491 -0.2703  0.4499
23912SOL    HW176098   2.116   1.155   6.566 -0.1713 -0.2188  0.7746
23912SOL    HW276099   2.259   1.139   6.519 -0.2703 -0.0972  0.4250
23913SOL     OW76100   5.433   0.287   1.760  0.5685 -0.7047 -0.1030
23913SOL    HW176101   5.475   0.213   1.803 -0.6537 -0.9625  0.7192
23913SOL    HW276102   5.483   0.301   1.680  2.2343 -0.9330  0.8619
23914SOL     OW76103   4.540   9.135   9.249 -0.3144 -0.5418 -0.6189
23914SOL    HW176104   4.511   9.162   9.161  0.7751  1.7500 -0.3448
23914SOL    HW276105   4.628   9.100   9.236  0.0594  0.2896 -0.4083
23915SOL     OW76106   7.567   0.199   0.608 -0.2195  0.1056  0.2141
23915SOL    HW176107   7.593   0.291   0.605  2.1197 -0.5038 -0.0102
23915SOL    HW276108   7.558   0.173   0.516 -0.7608  0.0662  0.2742
23916SOL     OW76109   5.840   0.418   6.848 -0.5681  0.0569  0.1364
23916SOL    HW176110   5.806   0.355   6.912 -1.0134 -0.0040 -0.1515
23916SOL    HW276111   5.768   0.480   6.836 -1.2947 -1.0894 -1.8413
23917SOL     OW76112   6.191   6.579   3.974  0.1282 -0.2721  0.8108
23917SOL    HW176113   6.108   6.536   3.996 -1.0324  1.5182  0.1870
23917SOL    HW276114   6.245   6.510   3.936 -2.4036 -0.8522 -2.1437
23918SOL     OW76115   0.821   1.329   0.594 -0.3127 -0.6189  0.3456
23918SOL    HW176116   0.749   1.346   0.533 -1.9315 -1.9937  1.7739
23918SOL    HW276117   0.831   1.410   0.643 -0.4071 -0.2043 -0.3002
23919SOL     OW76118   8.215   1.118   9.555 -0.3362 -0.4131 -0.2493
23919SOL    HW176119   8.198   1.212   9.560 -0.4822 -0.4438 -0.1730
23919SOL    HW276120   8.129   1.079   9.541 -0.2812 -0.5392 -0.2346
23920SOL     OW76121   4.135   2.347   0.112 -0.2317  0.1872 -0.3070
23920SOL    HW176122   4.211   2.404   0.123  0.4210 -0.8276  0.5937
23920SOL    HW276123   4.158   2.267   0.159 -1.3382 -0.6307 -1.1097
23921SOL     OW76124   7.043   4.720   3.072 -0.3173 -0.3200  0.2675
23921SOL    HW176125   6.950   4.739   3.059 -1.1233 -2.5367  2.1013
23921SOL    HW276126   7.069   4.777   3.144 -0.0696  0.6650 -0.5721
23922SOL     OW76127   5.006   9.152   7.949 -0.4866 -0.1744  0.4779
23922SOL    HW176128   4.941   9.082   7.938 -0.4731 -0.0962 -0.1507
23922SOL    HW276129   4.962   9.231   7.915  0.6544 -0.5178 -2.0513
23923SOL     OW76130   8.830   3.322   3.640 -0.6391  0.2189  0.4156
23923SOL    HW176131   8.772   3.369   3.700  0.0322 -0.4432  1.6015
23923SOL    HW276132   8.771   3.286   3.574 -1.7707 -1.2931  2.1486
23924SOL     OW76133   5.745   2.532   0.531 -0.6041  0.2823  0.2272
23924SOL    HW176134   5.711   2.448   0.562  1.7465 -0.2547  1.5393
23924SOL    HW276135   5.783   2.512   0.445 -0.1642  0.0427  0.4791
23925SOL     OW76136   1.089   1.240   7.769 -0.8421  0.1462 -0.0047
23925SOL    HW176137   1.171   1.286   7.758 -0.3992 -0.6907 -0.3380
23925SOL    HW276138   1.038   1.294   7.829  1.0321 -0.6756  2.4849
23926SOL     OW76139   7.662   4.583   3.804 -0.3432 -0.6850 -0.3991
23926SOL    HW176140   7.662   4.493   3.773  0.5592 -0.7328 -0.2927
23926SOL    HW276141   7.575   4.616   3.783 -1.0716 -1.9117  0.5337
23927SOL     OW76142   7.467   4.412   0.426  0.1059 -0.1661  0.0274
23927SOL    HW176143   7.392   4.471   0.432  0.9477  1.3979 -2.8410
23927SOL    HW276144   7.534   4.452   0.482 -0.3255 -0.0895  0.4889
23928SOL     OW76145   2.418   4.479   1.335  0.3914  0.0673  0.0479
23928SOL    HW176146   2.383   4.558   1.295  1.3420  1.1639  1.3170
23928SOL    HW276147   2.503   4.466   1.293  1.6577  1.5520  2.0091
23929SOL     OW76148   9.938   1.660   7.550  0.0951 -0.5829 -0.3651
23929SOL    HW176149   9.952   1.708   7.468  0.1690 -0.6666 -0.4022
23929SOL    HW276150  10.025   1.630   7.575  0.1762  0.0272  0.1074
23930SOL     OW76151   9.827   7.345   9.075 -0.0310 -0.5235 -0.3990
23930SOL    HW176152   9.882   7.409   9.120 -0.1188  0.2788 -1.4078
23930SOL    HW276153   9.847   7.262   9.119 -1.5614  0.4698  2.4589
23931SOL     OW76154  10.539  10.757   7.780 -0.3181 -0.3117 -0.1986
23931SOL    HW176155  10.509  10.848   7.779  0.4393 -0.0171  1.1501
23931SOL    HW276156  10.494  10.717   7.854 -0.9957 -1.1853 -1.0590
23932SOL     OW76157   1.534   6.482   3.627  0.2183 -0.4327 -0.0087
23932SOL    HW176158   1.549   6.535   3.548 -3.9660  1.7923  0.3815
23932SOL    HW276159   1.548   6.543   3.699 -0.8498 -0.9706  0.6756
23933SOL     OW76160   6.943   0.506   6.210  0.0736 -0.5593  0.0537
23933SOL    HW176161   7.026   0.521   6.166  0.5361 -0.2815  1.0002
23933SOL    HW276162   6.920   0.590   6.249 -0.3959 -0.7607  0.2297
23934SOL     OW76163   2.851   8.182   7.635  0.1478 -0.2355  0.4115
23934SOL    HW176164   2.847   8.174   7.730  0.3879  1.6201  0.6198
23934SOL    HW276165   2.918   8.120   7.608  1.0346  0.1653  1.6036
23935SOL     OW76166   9.786   4.848  10.725 -0.1876  0.3588 -0.2889
23935SOL    HW176167   9.750   4.905  10.657  0.0543 -1.4581 -2.0307
23935SOL    HW276168   9.709   4.819  10.775 -0.4704  0.9845 -0.3449
23936SOL     OW76169   3.834   2.114   0.503  0.0772 -0.3350  0.0825
23936SOL    HW176170   3.873   2.175   0.440 -0.7612  2.0258  1.7394
23936SOL    HW276171   3.745   2.099   0.470 -0.4087  1.0056  0.7163
23937SOL     OW76172   3.005  10.931   0.252  0.3168 -0.4363 -0.1290
23937SOL    HW176173   2.962  10.899   0.172 -0.9505 -1.6923  1.0084
23937SOL    HW276174   3.013  10.854   0.308 -1.1472  0.8250  1.9811
23938SOL     OW76175   9.187   5.247   2.471 -0.7801  0.2794 -0.2763
23938SOL    HW176176   9.276   5.212   2.463  1.0567  4.4401 -0.5832
23938SOL    HW276177   9.143   5.219   2.391  1.2319  0.4675 -1.5328
23939SOL     OW76178   4.541   1.270   4.123 -0.0618  0.4322 -0.1514
23939SOL    HW176179   4.470   1.283   4.185 -0.8634  2.3363 -1.3728
23939SOL    HW276180   4.613   1.325   4.155 -0.3427  1.1217 -0.6841
23940SOL     OW76181   1.707   4.077   5.819 -0.2875  0.3571  0.2637
23940SOL    HW176182   1.624   4.050   5.779  1.1062 -1.7177 -1.4615
23940SOL    HW276183   1.756   4.117   5.747  0.3482  1.3057  1.1947
23941SOL     OW76184   4.066   8.755   6.896  0.3936  0.4496 -0.5041
23941SOL    HW176185   4.055   8.734   6.989 -0.5666 -0.1001 -0.7301
23941SOL    HW276186   4.035   8.845   6.888  1.9545  1.0502 -0.0210
23942SOL     OW76187  10.961   7.123   8.707  0.5962 -0.2654 -0.1437
23942SOL    HW176188  11.046   7.123   8.663  0.6015  0.4649 -0.1474
23942SOL    HW276189  10.976   7.073   8.788  0.9165 -0.5140 -0.3561
23943SOL     OW76190   8.049   6.349   1.319 -0.0472 -0.0407  0.6345
23943SOL    HW176191   8.022   6.434   1.352 -0.0690 -0.6723  2.3612
23943SOL    HW276192   8.115   6.318   1.382  0.4141 -1.0444 -0.2882
23944SOL     OW76193   9.131   3.639   0.374  0.2809  0.0668  0.1217
23944SOL    HW176194   9.219   3.612   0.348 -0.1533  0.5517 -1.9863
23944SOL    HW276195   9.141   3.731   0.398  0.5862 -0.2555  1.3363
23945SOL     OW76196   4.577   2.702   9.350  0.6668 -0.5628 -0.3380
23945SOL    HW176197   4.534   2.785   9.329 -0.2295 -1.1113 -0.7440
23945SOL    HW276198   4.649   2.726   9.409  1.8145  0.7821 -2.1549
23946SOL     OW76199   6.385   1.632   6.092  0.1644 -0.7275 -0.4522
23946SOL    HW176200   6.292   1.651   6.076  0.6732  1.6996 -0.7922
23946SOL    HW276201   6.392   1.625   6.187 -0.2641 -0.4314 -0.3956
23947SOL     OW76202   3.045   1.108   4.059 -0.5843 -0.5864 -0.1455
23947SOL    HW176203   2.996   1.186   4.087 -3.3489 -1.1155 -2.9262
23947SOL    HW276204   3.038   1.109   3.964  1.6398 -2.8528 -0.4039
23948SOL     OW76205   9.104   5.125   2.894  0.1251  0.3392 -0.0920
23948SOL    HW176206   9.181   5.069   2.883 -0.1995 -0.2087  0.3736
23948SOL    HW276207   9.054   5.084   2.965 -2.1954 -1.1508 -2.3770
23949SOL     OW76208   4.355   2.246   5.964  0.5163  0.9697  0.0034
23949SOL    HW176209   4.415   2.316   5.990  0.7631  0.7015  0.1578
23949SOL    HW276210   4.268   2.286   5.968  0.6596  1.2727  0.0731
23950SOL     OW76211   6.672   4.512   5.276  0.4285  0.1145  0.0811
23950SOL    HW176212   6.589   4.523   5.229  0.2184 -0.9887  0.1620
23950SOL    HW276213   6.704   4.427   5.247  2.4124  1.2568 -1.2804
23951SOL     OW76214   6.645   7.816   2.637  0.0425 -0.4021 -0.0068
23951SOL    HW176215   6.705   7.841   2.708  1.2688  1.3973 -1.5863
23951SOL    HW276216   6.594   7.743   2.674  1.2596 -0.1619  2.3751
23952SOL     OW76217   6.955   5.967   4.939  0.0816  0.0741 -0.4558
23952SOL    HW176218   6.995   6.049   4.967  1.6655 -0.2674 -1.5798
23952SOL    HW276219   6.969   5.965   4.844 -1.1466 -0.8629 -0.6395
23953SOL     OW76220   8.644   4.452   9.554 -0.0595  0.7214  0.4653
23953SOL    HW176221   8.709   4.516   9.526 -0.1444  0.6387  0.0716
23953SOL    HW276222   8.585   4.444   9.480 -0.1716  0.3434  0.5917
23954SOL     OW76223   4.373   2.028  10.532 -0.1528 -0.1474 -0.4418
23954SOL    HW176224   4.349   2.023  10.624 -1.3503 -1.1416 -0.7830
23954SOL    HW276225   4.291   2.014  10.484  0.2921  1.2328 -1.6718
23955SOL     OW76226  10.436   5.153   6.996  0.1447  0.5427 -0.0702
23955SOL    HW176227  10.364   5.169   6.937  0.6166 -1.9497 -1.4582
23955SOL    HW276228  10.463   5.240   7.027 -2.0009  1.6576 -1.1970
23956SOL     OW76229   0.219   4.031   5.817  0.1965 -0.1665 -1.0210
23956SOL    HW176230   0.147   3.982   5.777 -0.6213 -0.0074  0.2057
23956SOL    HW276231   0.256   3.970   5.882 -0.1952  0.4755 -0.1748
23957SOL     OW76232   5.936   5.307   4.061  0.0070  0.2237  0.1179
23957SOL    HW176233   5.869   5.331   3.997 -0.0945 -1.4729 -0.4603
23957SOL    HW276234   6.014   5.356   4.034 -0.1979 -0.0259 -0.9659
23958SOL     OW76235   4.260   8.661   5.287  0.0756  0.2108  0.2591
23958SOL    HW176236   4.184   8.604   5.276  1.1120 -1.1422 -0.2041
23958SOL    HW276237   4.304   8.628   5.365  0.7327  0.3244 -0.0560
23959SOL     OW76238  10.401   8.334   3.352  0.7993  0.4431  0.3436
23959SOL    HW176239  10.414   8.418   3.309 -0.5206 -0.2721 -1.6208
23959SOL    HW276240  10.373   8.275   3.282  0.3161 -1.2817  1.8888
23960SOL     OW76241   3.810   7.126  10.334  0.2758 -1.0083  0.1945
23960SOL    HW176242   3.770   7.068  10.269 -2.3185 -2.9343  3.2112
23960SOL    HW276243   3.774   7.097  10.417 -0.4823  4.3577  2.1295
23961SOL     OW76244   8.407   2.808   6.974 -0.0271 -0.1214  0.1679
23961SOL    HW176245   8.395   2.903   6.979 -0.2370 -0.1717  0.6920
23961SOL    HW276246   8.442   2.783   7.060  0.3617 -0.4723 -0.0892
23962SOL     OW76247   9.926   5.690   1.747 -0.3579  0.4597  0.3586
23962SOL    HW176248   9.852   5.638   1.716  0.5583  0.3209 -1.7978
23962SOL    HW276249   9.908   5.779   1.715  0.9019  0.1914 -1.2179
23963SOL     OW76250   2.237   7.639   1.694  0.0177  0.3950  1.1640
23963SOL    HW176251   2.185   7.604   1.622  1.6565  0.1765  0.0195
23963SOL    HW276252   2.237   7.734   1.680 -0.8663  0.4924  1.7528
23964SOL     OW76253   3.304   2.792   8.541  0.1414  0.3919  0.3359
23964SOL    HW176254   3.296   2.887   8.544  0.4532  0.3983  1.3277
23964SOL    HW276255   3.220   2.762   8.506 -0.4146  0.9714  1.1399
23965SOL     OW76256   8.214   9.139   2.674  0.1950 -0.4654 -0.2775
23965SOL    HW176257   8.309   9.129   2.669  0.2122  0.1818 -1.8546
23965SOL    HW276258   8.181   9.049   2.674  0.7944 -0.6943  0.0422
23966SOL     OW76259   1.368   9.146   3.427 -0.2817 -0.1688 -0.0779
23966SOL    HW176260   1.360   9.068   3.483  0.3345  0.2817  0.6464
23966SOL    HW276261   1.291   9.142   3.370 -0.1412 -1.4370 -0.2139
23967SOL     OW76262   1.639   6.998   2.550 -1.0964  0.2865  0.0382
23967SOL    HW176263   1.731   7.015   2.567 -0.8774 -0.2226 -0.6105
23967SOL    HW276264   1.631   6.903   2.556 -1.6590  0.3570  0.4758
23968SOL     OW76265   1.274   0.932   6.222 -0.4754 -0.2452  0.3288
23968SOL    HW176266   1.230   0.896   6.299 -0.9521 -0.7528 -0.1702
23968SOL    HW276267   1.295   0.855   6.169  1.3428 -0.0567  0.7064
23969SOL     OW76268   1.194   8.592   7.054  0.1272 -0.3232 -0.0612
23969SOL    HW176269   1.262   8.566   7.117 -0.8549 -0.3816  1.0130
23969SOL    HW276270   1.114   8.596   7.106 -0.6261  0.1425 -1.2198
23970SOL     OW76271   2.302  10.122   9.445  0.1803 -0.0371 -0.0726
23970SOL    HW176272   2.358  10.160   9.378 -0.0584  0.2104 -0.1360
23970SOL    HW276273   2.315  10.027   9.437  1.3587  0.0462  0.5861
23971SOL     OW76274   8.799   2.440   2.803 -0.2319 -0.4689 -0.1843
23971SOL    HW176275   8.718   2.473   2.764 -0.6917 -1.1587  0.1819
23971SOL    HW276276   8.855   2.518   2.811 -0.5029 -0.1397 -1.2761
23972SOL     OW76277   6.968   7.326   0.917  0.3007  0.0413  0.1222
23972SOL    HW176278   6.989   7.418   0.900  0.5183 -0.0301 -0.0078
23972SOL    HW276279   6.915   7.299   0.843 -0.0124  0.1434  0.3086
23973SOL     OW76280   9.009   2.525   2.573 -0.1151 -0.1006  0.5403
23973SOL    HW176281   8.939   2.590   2.560  0.2729  0.2287  0.0773
23973SOL    HW276282   9.018   2.519   2.668 -1.7147 -1.1623  0.6803
23974SOL     OW76283   2.417   4.415   2.587  0.7124 -0.6442  0.0072
23974SOL    HW176284   2.334   4.370   2.572 -0.3282  0.9189  0.8049
23974SOL    HW276285   2.477   4.376   2.523 -1.1164 -0.5026 -1.8969
23975SOL     OW76286  10.832   2.667   6.776  0.6814 -0.1442 -0.0052
23975SOL    HW176287  10.858   2.685   6.686  0.2727  0.5618  0.0065
23975SOL    HW276288  10.738   2.652   6.771  0.5341  0.5926  0.3891
23976SOL     OW76289   4.556   5.686   5.720 -0.0069  0.0394 -0.3979
23976SOL    HW176290   4.476   5.723   5.758  0.6003  1.3792 -0.3774
23976SOL    HW276291   4.551   5.592   5.741 -1.5599  0.0920 -0.3941
23977SOL     OW76292   6.183   7.605   5.689 -0.5468 -0.2450  0.1132
23977SOL    HW176293   6.108   7.574   5.639 -1.4056 -0.0346  1.2297
23977SOL    HW276294   6.202   7.535   5.752 -1.0074  0.4539  1.0663
23978SOL     OW76295   8.841   0.391   0.674  0.3029  0.0490  0.0137
23978SOL    HW176296   8.796   0.417   0.755 -1.5582  1.2421 -1.2889
23978SOL    HW276297   8.921   0.444   0.672  0.7681 -0.5775  1.4209
23979SOL     OW76298   7.222   9.348   6.158 -0.9500  0.3025 -0.2046
23979SOL    HW176299   7.258   9.354   6.069  1.7491 -0.3389  0.7665
23979SOL    HW276300   7.210   9.439   6.185  0.5525  0.5648 -0.3560
23980SOL     OW76301   0.535   3.232   6.165  0.5386 -0.5174 -0.1542
23980SOL    HW176302   0.521   3.319   6.202 -0.0157 -0.4613 -0.4927
23980SOL    HW276303   0.585   3.247   6.085 -1.2443 -0.3072 -1.2822
23981SOL     OW76304   1.969   3.026   3.093 -0.4214 -0.2911  0.4901
23981SOL    HW176305   1.920   2.972   3.031  0.1522  0.3973 -0.6014
23981SOL    HW276306   2.054   2.982   3.101 -0.5982 -0.5398  1.0275
23982SOL     OW76307   9.223   7.616   0.329  0.2216 -0.9069  0.1533
23982SOL    HW176308   9.312   7.589   0.348  0.5739 -1.0608 -1.5018
23982SOL    HW276309   9.222   7.710   0.347  0.6267 -0.9695  0.5079
23983SOL     OW76310  11.001   0.913   9.407  0.5350 -0.2215 -0.2044
23983SOL    HW176311  10.909   0.926   9.385 -0.1076 -0.6631  1.9571
23983SOL    HW276312  11.020   0.823   9.380  0.0261 -0.4731  0.2706
23984SOL     OW76313   2.741   9.757   5.984  0.0710  0.4772 -0.0961
23984SOL    HW176314   2.833   9.741   5.968 -0.0097 -0.7740  0.5573
23984SOL    HW276315   2.730   9.744   6.078 -1.0408 -1.0069 -0.3774
23985SOL     OW76316   6.628   2.663   6.280 -0.5005 -0.0210 -0.5126
23985SOL    HW176317   6.654   2.667   6.373  0.0521 -0.1349 -0.6574
23985SOL    HW276318   6.663   2.579   6.250  1.2302  0.9536 -1.3786
23986SOL     OW76319   8.534  10.725   8.589  0.5075 -0.0149  0.1417
23986SOL    HW176320   8.479  10.662   8.634 -0.3131 -1.8320 -3.1010
23986SOL    HW276321   8.623  10.691   8.600  0.2451 -0.8165 -0.1699
23987SOL     OW76322   8.015   3.155  10.177 -0.0311  0.2430 -0.6312
23987SOL    HW176323   7.943   3.214  10.152 -1.1521 -0.2015  1.3695
23987SOL    HW276324   8.084   3.214  10.207 -0.4271  0.6083 -0.4227
23988SOL     OW76325   1.724   6.367   2.678  0.0539  0.0441  0.4534
23988SOL    HW176326   1.662   6.434   2.651 -0.4829 -0.4870  0.3523
23988SOL    HW276327   1.725   6.373   2.774  0.3874  0.5256  0.4256
23989SOL     OW76328   8.945   9.745   7.948 -0.2785 -0.3820 -1.0369
23989SOL    HW176329   8.938   9.723   8.041 -1.5803 -0.2010 -1.0636
23989SOL    HW276330   8.983   9.833   7.946 -0.4769 -0.2878 -0.6625
23990SOL     OW76331   3.505   5.764   0.344  0.5235  0.2859 -0.4338
23990SOL    HW176332   3.562   5.713   0.286 -0.0611  0.4259 -1.1487
23990SOL    HW276333   3.543   5.852   0.345 -0.1512  0.6021 -1.5930
23991SOL     OW76334   9.012   5.963   1.521  0.6510  0.6296  0.0800
23991SOL    HW176335   9.059   5.888   1.486 -1.6673 -0.9639  0.1444
23991SOL    HW276336   9.040   5.969   1.612  0.3505 -0.6321  0.2741
23992SOL     OW76337   9.340   6.367   4.991 -0.2984  0.1383  0.0281
23992SOL    HW176338   9.379   6.300   4.934 -1.3955 -0.1843 -0.3794
23992SOL    HW276339   9.335   6.445   4.936 -0.3648  0.1346  0.0283
23993SOL     OW76340   0.838   9.268   1.124  0.4934 -0.0149  0.0972
23993SOL    HW176341   0.909   9.330   1.140  1.1017 -0.8832  0.8557
23993SOL    HW276342   0.877   9.183   1.143 -0.6195 -0.5428  0.0331
23994SOL     OW76343  10.643   8.675   0.306  0.0971 -0.0018  0.0821
23994SOL    HW176344  10.659   8.668   0.212  3.4687 -0.1331  0.5484
23994SOL    HW276345  10.635   8.585   0.336  0.2341 -0.0172  0.0756
23995SOL     OW76346  10.740   4.206   4.442  0.3826 -0.0379  0.4961
23995SOL    HW176347  10.792   4.274   4.485  1.0646  0.6034 -1.2693
23995SOL    HW276348  10.653   4.244   4.433 -0.1472 -0.6906  2.4572
23996SOL     OW76349   7.226   5.011   5.232  0.2386  0.3386  0.2853
23996SOL    HW176350   7.182   4.942   5.281 -1.8919  1.1259 -0.4186
23996SOL    HW276351   7.168   5.086   5.239  0.7210  0.9933 -1.9546
23997SOL     OW76352   2.896   9.073   7.528 -0.0015  0.1913 -0.1840
23997SOL    HW176353   2.872   9.033   7.445  0.3791  1.4199 -0.9136
23997SOL    HW276354   2.846   9.025   7.594  1.2928 -2.2591 -0.8531
23998SOL     OW76355   6.704   3.782   9.721  0.6042  0.1837  0.1020
23998SOL    HW176356   6.755   3.801   9.642 -0.1375  1.8790 -0.0016
23998SOL    HW276357   6.613   3.781   9.692  0.3809 -0.0326  0.7837
23999SOL     OW76358   0.910   7.225   8.032  0.1275  0.5767  0.4935
23999SOL    HW176359   0.919   7.319   8.050  0.2250  0.5879  0.3884
23999SOL    HW276360   0.991   7.202   7.986 -0.9092  0.9225 -1.5961
24000SOL     OW76361   9.641   8.440   3.603  0.2555 -0.0390 -0.4538
24000SOL    HW176362   9.547   8.454   3.606 -0.1051 -2.2732 -0.3312
24000SOL    HW276363   9.677   8.517   3.648 -1.6732 -0.4871  2.0984
24001SOL     OW76364   3.781   8.195   9.494 -0.0261  0.2455  0.1037
24001SOL    HW176365   3.859   8.219   9.444 -0.2522 -0.3366 -0.5478
24001SOL    HW276366   3.814   8.152   9.572  0.3256  0.8672  0.3058
24002SOL     OW76367  10.909   7.855   3.007  0.3955  0.4592 -0.2051
24002SOL    HW176368  10.836   7.862   2.945  2.0939  1.4183 -2.2415
24002SOL    HW276369  10.926   7.946   3.034  1.2585  0.3290 -0.2856
24003SOL     OW76370   2.181   2.049   6.446  0.0041  0.4398  0.3895
24003SOL    HW176371   2.231   2.018   6.521  0.2507 -0.4318 -0.1198
24003SOL    HW276372   2.103   1.992   6.444 -0.9282  1.6511  1.0579
24004SOL     OW76373   6.901   5.179   3.514  0.8694  0.4002 -0.6541
24004SOL    HW176374   6.921   5.222   3.431 -0.0964 -0.9159 -1.6034
24004SOL    HW276375   6.807   5.192   3.525  0.8774 -0.0077 -0.0968
24005SOL     OW76376   4.589   7.272   5.265  0.1675  0.0241 -0.2989
24005SOL    HW176377   4.499   7.304   5.270 -0.5925 -1.8676 -0.9599
24005SOL    HW276378   4.640   7.347   5.235 -1.0693  1.3094  0.6743
24006SOL     OW76379   6.004   5.810   2.131  0.2525 -0.1578 -0.1577
24006SOL    HW176380   6.088   5.854   2.147 -0.2890  0.1497  2.0533
24006SOL    HW276381   5.942   5.854   2.189 -1.2114 -1.1645 -0.8942
24007SOL     OW76382   3.143   0.166   5.101 -0.6381  0.0752 -0.3018
24007SOL    HW176383   3.113   0.253   5.077  0.2203  0.8728  1.3955
24007SOL    HW276384   3.208   0.144   5.034 -2.0127  0.0115 -1.6764
24008SOL     OW76385   2.355   4.810   2.070 -0.1254  0.6598  0.0616
24008SOL    HW176386   2.351   4.889   2.015 -0.7560  0.4696 -0.1688
24008SOL    HW276387   2.377   4.740   2.008 -2.8210  0.0834 -0.3613
24009SOL     OW76388   8.384   5.807   3.380 -0.3160 -0.2404 -0.2108
24009SOL    HW176389   8.398   5.820   3.286  2.1811 -2.0379 -0.2109
24009SOL    HW276390   8.437   5.874   3.422 -1.2759  0.4384 -0.0601
24010SOL     OW76391   0.136   1.427   8.514  0.6715  0.1804  0.1436
24010SOL    HW176392   0.105   1.384   8.594  0.5023  0.1769  0.0762
24010SOL    HW276393   0.058   1.468   8.477  1.0527  1.6138  0.8519
24011SOL     OW76394   0.187   5.088  10.512  0.3948  0.4162  0.4057
24011SOL    HW176395   0.282   5.081  10.522  0.2906 -1.1185  0.5951
24011SOL    HW276396   0.168   5.046  10.428 -0.1827 -0.0741  0.7638
24012SOL     OW76397   1.119   2.026   5.555  0.5259  0.4178 -0.3509
24012SOL    HW176398   1.069   1.992   5.629  0.5559  0.2199 -0.4192
24012SOL    HW276399   1.075   2.107   5.530 -1.6718 -1.2449 -2.3652
24013SOL     OW76400   5.591   3.619   6.664 -0.6713  0.1755 -0.0670
24013SOL    HW176401   5.623   3.693   6.715  2.3283 -0.9827 -0.0525
24013SOL    HW276402   5.544   3.564   6.727  0.8032  0.0089  0.9261
24014SOL     OW76403   8.124   5.043   2.205 -0.5248 -0.1883  0.6538
24014SOL    HW176404   8.141   5.039   2.299  0.9488 -0.1287  0.4184
24014SOL    HW276405   8.059   5.114   2.196 -0.1620  0.2832  1.5603
24015SOL     OW76406  10.437   1.851   8.504 -0.2375  0.6513  0.4162
24015SOL    HW176407  10.408   1.762   8.525  0.3555  1.0120  3.0468
24015SOL    HW276408  10.517   1.863   8.554  0.2032  2.3927 -0.6092
24016SOL     OW76409   7.475   5.273   2.871 -0.6399 -0.6212 -1.0236
24016SOL    HW176410   7.494   5.290   2.963 -1.6563  1.9273 -1.1929
24016SOL    HW276411   7.495   5.180   2.859 -1.1918 -1.2331  1.9367
24017SOL     OW76412   0.975   6.742   1.593 -0.5473  0.0992  0.0605
24017SOL    HW176413   0.984   6.651   1.620 -1.1881  0.0787  0.2021
24017SOL    HW276414   0.945   6.788   1.671  0.6119  0.5956  0.2394
24018SOL     OW76415   4.095   9.609   9.441 -0.4243  0.4964 -0.8545
24018SOL    HW176416   4.047   9.645   9.366 -0.4592  0.2854 -0.9325
24018SOL    HW276417   4.133   9.527   9.408 -1.6414 -0.3412 -0.2144
24019SOL     OW76418   8.838   3.844   4.674 -0.1182  0.4347  0.2920
24019SOL    HW176419   8.827   3.790   4.752  1.6367 -0.6996 -0.1716
24019SOL    HW276420   8.751   3.879   4.656 -1.0543 -1.1742  1.4011
24020SOL     OW76421   7.451   5.472   0.443 -0.1161  0.7528 -0.6199
24020SOL    HW176422   7.510   5.465   0.368  1.1268  0.7661  0.3337
24020SOL    HW276423   7.369   5.434   0.412  0.6589 -0.1035 -1.6932
24021SOL     OW76424   8.548   7.998   9.624  0.5929  0.4720 -0.1356
24021SOL    HW176425   8.603   7.942   9.679  0.0062  0.2926  0.2765
24021SOL    HW276426   8.519   8.068   9.682  0.9769  0.9746 -0.5414
24022SOL     OW76427   3.490   0.541   7.366  0.0643  0.2365 -0.2210
24022SOL    HW176428   3.425   0.606   7.340  1.0535  1.2421 -0.2656
24022SOL    HW276429   3.484   0.539   7.462 -2.2762 -2.1045 -0.2936
24023SOL     OW76430   1.795   7.221   4.202  0.0468 -0.1701  0.0948
24023SOL    HW176431   1.805   7.140   4.152  0.6511  0.1469 -0.3094
24023SOL    HW276432   1.873   7.224   4.257  0.4534  0.5528 -0.5064
24024SOL     OW76433   3.822   4.780   3.406 -0.8751  0.6184 -0.4101
24024SOL    HW176434   3.728   4.762   3.409 -0.6679 -0.5486 -0.2755
24024SOL    HW276435   3.860   4.718   3.468 -0.0214  1.1319 -0.4016
24025SOL     OW76436   7.306   2.294   6.513 -0.6962  0.0124 -0.3376
24025SOL    HW176437   7.325   2.292   6.420 -0.2040  2.6910 -0.3608
24025SOL    HW276438   7.384   2.257   6.555 -0.3073  0.1480 -0.9350
24026SOL     OW76439   8.244   3.784   6.989 -0.1449  0.3268  0.4655
24026SOL    HW176440   8.186   3.729   6.937  0.5625 -0.3567  0.3699
24026SOL    HW276441   8.332   3.750   6.971  0.1200 -0.0586  2.1994
24027SOL     OW76442   5.286   9.832   2.998 -0.1900  0.0469 -0.2591
24027SOL    HW176443   5.378   9.838   3.023 -0.0110 -0.4266 -0.7949
24027SOL    HW276444   5.278   9.747   2.955 -1.0403 -0.2442  0.4507
24028SOL     OW76445   9.176  10.536   5.982  0.4062 -0.1938 -0.1750
24028SOL    HW176446   9.150  10.454   5.938  0.7334 -1.2165  1.4373
24028SOL    HW276447   9.093  10.577   6.006  0.2315 -0.6421  0.0133
24029SOL     OW76448   5.712   3.299   8.059  0.3063  0.0073  0.4182
24029SOL    HW176449   5.703   3.285   8.153 -0.6607  2.0443  0.6988
24029SOL    HW276450   5.784   3.361   8.051 -0.1917  0.5478 -0.0723
24030SOL     OW76451   8.992   2.618   8.657  0.0886 -0.3161  0.7348
24030SOL    HW176452   8.925   2.686   8.665 -0.1146 -0.7413  3.5328
24030SOL    HW276453   9.069   2.666   8.626 -0.3869  0.9619  1.4188
24031SOL     OW76454   6.516   3.050   4.606  0.1715  0.0496  0.5914
24031SOL    HW176455   6.598   3.097   4.590  1.0089  0.1997  4.3779
24031SOL    HW276456   6.459   3.114   4.648 -1.7773 -0.2271 -1.4225
24032SOL     OW76457   6.996   2.117   9.933 -0.5915  0.4213  0.1951
24032SOL    HW176458   6.987   2.137   9.840 -0.6726  1.5111  0.4258
24032SOL    HW276459   6.957   2.030   9.943  0.6033 -0.2955 -1.0066
24033SOL     OW76460   7.675   6.180   0.797 -0.6143  0.9254 -0.1636
24033SOL    HW176461   7.612   6.140   0.737  0.6654  0.5288 -1.2909
24033SOL    HW276462   7.759   6.145   0.770  0.1344  1.6520  1.1431
24034SOL     OW76463  10.451   7.100   7.744 -0.1999  0.2515  0.0177
24034SOL    HW176464  10.419   7.183   7.779 -0.2491  0.3752 -0.3212
24034SOL    HW276465  10.416   7.034   7.804  0.1328  0.4982  0.4938
24035SOL     OW76466   8.553   7.990   9.058 -0.1089 -0.4996 -0.1086
24035SOL    HW176467   8.616   8.061   9.047 -0.0604 -0.1510  1.9993
24035SOL    HW276468   8.592   7.916   9.011 -0.1960  0.8381 -2.3979
24036SOL     OW76469   1.433   0.279   3.370  0.1735  0.5930  0.3928
24036SOL    HW176470   1.397   0.320   3.292 -2.1950  0.6913  1.4353
24036SOL    HW276471   1.437   0.186   3.348 -2.2099  0.3564  0.6604
24037SOL     OW76472   0.403   8.823   1.252  0.3640  0.2229  0.0686
24037SOL    HW176473   0.474   8.887   1.253  0.8339 -0.3049  0.3989
24037SOL    HW276474   0.391   8.803   1.159 -0.2384  1.2804 -0.1041
24038SOL     OW76475   9.967   8.847   6.267 -0.0868 -0.0052  0.3492
24038SOL    HW176476   9.973   8.922   6.208  0.0130  0.2739  0.7066
24038SOL    HW276477  10.029   8.783   6.232 -1.8822 -0.9198 -1.3584
24039SOL     OW76478   8.460   6.246   0.811  0.2088  0.1237 -0.2206
24039SOL    HW176479   8.400   6.184   0.853  0.2194  0.4880  0.3484
24039SOL    HW276480   8.543   6.199   0.806 -0.4380 -0.8806 -2.2537
24040SOL     OW76481   9.491  10.714   5.456  0.2958  0.0662 -0.8936
24040SOL    HW176482   9.425  10.779   5.432  0.8105  0.0345 -2.5012
24040SOL    HW276483   9.505  10.662   5.377  1.0953 -0.9587 -0.1235
24041SOL     OW76484   8.920   6.337   5.464 -0.2769  0.1901  0.1599
24041SOL    HW176485   9.011   6.311   5.452 -0.2889 -0.2504  0.9731
24041SOL    HW276486   8.875   6.257   5.489 -1.2404  0.0381 -1.8855
24042SOL     OW76487   3.679   5.603  10.833  0.0603  0.3635  0.1520
24042SOL    HW176488   3.748   5.616  10.768 -0.4406  0.8854 -0.2832
24042SOL    HW276489   3.707   5.526  10.882  0.1984 -0.3468 -1.0072
24043SOL     OW76490   5.597   1.391   7.576 -0.1620  0.0895  0.1619
24043SOL    HW176491   5.672   1.451   7.570  0.8238 -0.9877  1.1480
24043SOL    HW276492   5.637   1.305   7.588 -1.5414 -0.3157  2.4386
24044SOL     OW76493   1.226   1.164   0.513 -0.0191 -0.1238 -0.2795
24044SOL    HW176494   1.160   1.160   0.443  0.3794 -0.0066 -0.6685
24044SOL    HW276495   1.176   1.152   0.593 -0.6906  1.1500 -0.4688
24045SOL     OW76496   0.201   4.230   2.905  0.1460 -0.0066 -0.1902
24045SOL    HW176497   0.129   4.270   2.952  0.6120  0.9325 -0.2587
24045SOL    HW276498   0.207   4.141   2.941 -0.5463  0.1574  0.3464
24046SOL     OW76499   6.645   4.439   0.508 -0.3644 -0.2645 -0.0270
24046SOL    HW176500   6.684   4.474   0.428  2.3766 -0.4900  1.0964
24046SOL    HW276501   6.694   4.480   0.579 -2.4046 -0.4052  1.5755
24047SOL     OW76502   6.533  10.563   7.683  0.5419  0.6425  0.2263
24047SOL    HW176503   6.550  10.470   7.698  0.7802  0.2647 -2.0969
24047SOL    HW276504   6.449  10.578   7.727 -0.1638 -1.0065 -0.4723
24048SOL     OW76505   4.393   9.670  10.237 -0.1608  0.3115  0.0902
24048SOL    HW176506   4.345   9.615  10.298  0.4191  0.4327  0.6635
24048SOL    HW276507   4.331   9.688  10.166  0.0032 -2.0933 -0.7502
24049SOL     OW76508   5.572   9.118   2.258 -0.1387  0.3055 -0.6073
24049SOL    HW176509   5.483   9.084   2.267 -0.2733 -0.0561 -2.7380
24049SOL    HW276510   5.560   9.213   2.249 -0.4564  0.1605 -2.0058
24050SOL     OW76511   7.962   5.209   2.532  0.1973 -0.0277 -0.3421
24050SOL    HW176512   7.952   5.206   2.627 -1.4162  0.1541 -0.4795
24050SOL    HW276513   7.938   5.298   2.508  0.8757  0.0107 -0.9020
24051SOL     OW76514   2.486   5.795   7.844  0.1705 -0.6007  0.1625
24051SOL    HW176515   2.572   5.829   7.818  1.0013 -0.6863  2.4981
24051SOL    HW276516   2.477   5.822   7.936 -1.6488 -1.8851  0.4098
24052SOL     OW76517   9.595   7.104   8.666  0.0262 -0.1402 -0.4114
24052SOL    HW176518   9.567   7.195   8.681  1.3211  0.3689 -0.8565
24052SOL    HW276519   9.591   7.094   8.571 -2.3445 -1.3519 -0.2511
24053SOL     OW76520  10.159   6.809   0.549 -0.3397 -0.4235 -0.2342
24053SOL    HW176521  10.183   6.723   0.516  1.9804 -0.0248  0.2895
24053SOL    HW276522  10.170   6.868   0.474 -0.1577 -0.3033 -0.1131
24054SOL     OW76523   9.916   1.461   5.985 -0.1087  0.1122  0.7583
24054SOL    HW176524   9.899   1.367   5.988 -0.3348  0.1728  2.0447
24054SOL    HW276525   9.849   1.499   6.042 -1.2857  1.2748 -1.2783
24055SOL     OW76526   7.496   5.068   2.245 -0.2154 -0.3386  0.1869
24055SOL    HW176527   7.534   5.086   2.331 -0.9749 -3.5705  1.3331
24055SOL    HW276528   7.480   4.974   2.245 -1.5088 -0.2393 -3.0198
24056SOL     OW76529   3.506   1.469   9.137  0.6579 -0.9319 -0.2294
24056SOL    HW176530   3.475   1.378   9.131 -2.0333 -0.1658  0.8154
24056SOL    HW276531   3.550   1.484   9.053 -0.0416 -2.7878 -0.9933
24057SOL     OW76532   5.890   4.172   9.038 -0.8617  0.1860 -0.0556
24057SOL    HW176533   5.877   4.176   9.132 -3.8827 -0.7444 -0.3472
24057SOL    HW276534   5.911   4.263   9.013  1.3833  0.2046  1.5765
24058SOL     OW76535   5.668   2.599   5.057  0.4229 -0.5389 -0.3207
24058SOL    HW176536   5.714   2.610   5.140  1.2324 -0.0165 -0.8195
24058SOL    HW276537   5.597   2.538   5.077  0.3793 -0.1452  0.8307
24059SOL     OW76538   5.308   8.007   1.310  0.2278  0.3163  0.3423
24059SOL    HW176539   5.262   7.923   1.312  0.3901  0.2247  0.2563
24059SOL    HW276540   5.240   8.072   1.329 -0.0152  0.2118 -0.1354
24060SOL     OW76541   9.894   4.442   6.108 -0.3114 -0.0784  0.4328
24060SOL    HW176542   9.836   4.368   6.126  0.0065 -1.1286 -2.4082
24060SOL    HW276543   9.966   4.430   6.170 -0.6411 -1.7441  0.5459
24061SOL     OW76544   2.820  10.614   5.278 -0.6240 -0.4349  0.4679
24061SOL    HW176545   2.824  10.709   5.290 -0.4275 -0.3450 -0.2622
24061SOL    HW276546   2.762  10.602   5.203  0.8137 -0.7731 -0.6415
24062SOL     OW76547   4.399   1.945   3.996 -0.3428 -0.4383  0.0418
24062SOL    HW176548   4.482   1.905   4.020 -0.0495  0.9855  1.5822
24062SOL    HW276549   4.343   1.872   3.971  0.5343 -1.6750  1.5594
24063SOL     OW76550   4.813   9.129   8.362  0.2551 -0.8217  0.1311
24063SOL    HW176551   4.888   9.180   8.333 -0.2234 -0.5917 -0.7441
24063SOL    HW276552   4.771   9.183   8.429 -0.7912  0.4132 -1.4522
24064SOL     OW76553   0.240   9.825   8.793  0.3582 -0.0330 -0.3019
24064SOL    HW176554   0.227   9.762   8.723  1.2318 -0.5292 -0.0374
24064SOL    HW276555   0.332   9.849   8.787  1.6551 -3.1353  3.0857
24065SOL     OW76556   7.164   5.663   9.053  0.2639 -0.0339  0.0371
24065SOL    HW176557   7.086   5.709   9.020  1.1110  1.2396 -0.2606
24065SOL    HW276558   7.133   5.575   9.073 -1.7573  1.0109  1.9554
24066SOL     OW76559  10.980   0.447   7.390  0.6749 -0.3910 -0.3279
24066SOL    HW176560  11.057   0.391   7.379  0.8187 -0.8074  2.1958
24066SOL    HW276561  10.951   0.430   7.479 -0.1500  2.4979  0.0527
24067SOL     OW76562   2.601   0.619   7.058  0.2961 -0.2829  0.2788
24067SOL    HW176563   2.572   0.659   6.976  2.3501 -1.8693 -1.3011
24067SOL    HW276564   2.691   0.648   7.069  0.2222 -0.5063  1.7542
24068SOL     OW76565   7.724   7.257   4.089  0.0063 -0.3103  0.1005
24068SOL    HW176566   7.650   7.234   4.146 -1.4617  2.6654 -0.4175
24068SOL    HW276567   7.779   7.314   4.143  0.5981 -0.4964 -0.3018
24069SOL     OW76568   1.484   4.672   6.787  0.0111 -0.2049 -0.8407
24069SOL    HW176569   1.469   4.725   6.708 -0.7122 -0.1355 -0.6652
24069SOL    HW276570   1.568   4.703   6.821  0.1073  0.0838 -1.3360
24070SOL     OW76571   8.605   9.458  10.570 -0.0426  0.1622 -0.3446
24070SOL    HW176572   8.625   9.440  10.478 -2.5579  1.0578 -1.1550
24070SOL    HW276573   8.659   9.396  10.619  0.5181 -1.1189 -2.4592
24071SOL     OW76574  10.762   7.321  11.070 -0.1234  0.2307 -0.4644
24071SOL    HW176575  10.677   7.284  11.046 -0.3993 -0.7281  1.7913
24071SOL    HW276576  10.805   7.338  10.986 -1.9977 -0.5232 -1.6325
24072SOL     OW76577   1.232   8.611   2.833 -0.7025  0.8213 -0.1790
24072SOL    HW176578   1.158   8.550   2.832  0.1406 -0.3590  1.9791
24072SOL    HW276579   1.253   8.624   2.741 -2.0716 -0.7322 -0.7698
24073SOL     OW76580   7.216   7.086   4.325 -0.3992  0.5139 -0.5826
24073SOL    HW176581   7.180   7.044   4.403  0.2673 -0.1517 -0.6198
24073SOL    HW276582   7.151   7.070   4.257  0.4425 -1.7325 -0.9596
24074SOL     OW76583   0.554  10.409  10.865  0.5282 -0.3005 -0.3829
24074SOL    HW176584   0.586  10.430  10.777 -1.5759  0.7482 -0.9697
24074SOL    HW276585   0.605  10.466  10.923  0.0047  1.0993 -1.2391
24075SOL     OW76586   0.544   4.326   2.099 -0.1177  0.1148 -0.4471
24075SOL    HW176587   0.503   4.401   2.056  0.9296 -0.0349 -1.7842
24075SOL    HW276588   0.483   4.254   2.086 -0.2158  0.2816 -0.9325
24076SOL     OW76589   4.786   0.830   7.197  0.0017  0.1455 -0.4273
24076SOL    HW176590   4.865   0.776   7.197 -0.9131 -1.2704 -1.1062
24076SOL    HW276591   4.807   0.904   7.253  1.0842 -1.2626  1.1138
24077SOL     OW76592   7.897   0.525  10.180 -0.5094 -0.9955 -0.0044
24077SOL    HW176593   7.834   0.454  10.191 -0.5959 -0.7450  1.2710
24077SOL    HW276594   7.869   0.570  10.101 -2.7926 -0.0630  1.2288
24078SOL     OW76595   5.032   0.040  10.356  0.1450  0.7491  0.5988
24078SOL    HW176596   4.992   0.089  10.283  0.0868  0.6821  0.5862
24078SOL    HW276597   5.068   0.108  10.413 -0.9572  0.8713  1.1881
24079SOL     OW76598   8.545  10.233   8.084  0.2137  0.3504  0.8020
24079SOL    HW176599   8.562  10.228   8.178 -0.7088 -0.5861  0.9344
24079SOL    HW276600   8.481  10.305   8.076 -0.8997 -0.5663  1.0974
24080SOL     OW76601   0.958   1.912   5.737  0.2358 -0.2843  0.0813
24080SOL    HW176602   0.995   1.824   5.740  0.2098 -0.3275 -0.6756
24080SOL    HW276603   0.867   1.898   5.709 -0.5073 -0.2151  2.2711
24081SOL     OW76604   0.423   8.729   8.008 -0.1202 -0.5434 -0.0442
24081SOL    HW176605   0.339   8.715   7.965 -1.2338 -1.5431  2.3078
24081SOL    HW276606   0.451   8.642   8.035  1.6837 -0.2159 -0.7375
24082SOL     OW76607   8.797   1.695   5.607 -0.1008 -0.7077 -0.1439
24082SOL    HW176608   8.847   1.733   5.679  0.3944  3.0348 -2.2249
24082SOL    HW276609   8.719   1.659   5.649  0.4428  0.7194  2.2946
24083SOL     OW76610   9.416   4.483   7.688  0.4904  0.1967  0.7077
24083SOL    HW176611   9.498   4.505   7.645 -0.4366  1.1544 -0.6365
24083SOL    HW276612   9.419   4.388   7.698 -0.1867 -0.5155 -3.7011
24084SOL     OW76613  10.825   2.972   9.520  0.5268 -0.6727  0.1235
24084SOL    HW176614  10.764   2.899   9.505 -1.4355  0.9169 -0.0591
24084SOL    HW276615  10.793   3.014   9.600  0.5197  1.0276 -0.7376
24085SOL     OW76616   8.803   0.812   8.032  0.3316  0.1618 -0.0592
24085SOL    HW176617   8.726   0.784   8.082  0.2414  0.0301 -0.2692
24085SOL    HW276618   8.777   0.896   7.994  0.1963 -0.0057 -0.3409
24086SOL     OW76619   4.515   7.641   5.131  0.1569  0.1048  0.3569
24086SOL    HW176620   4.528   7.735   5.132 -1.3668  0.3597 -0.0948
24086SOL    HW276621   4.448   7.625   5.197  0.1350 -0.6036  0.1779
24087SOL     OW76622   1.181   4.202   0.632  0.0837  0.3140 -0.1329
24087SOL    HW176623   1.157   4.230   0.544  1.2872  2.6419  0.2167
24087SOL    HW276624   1.273   4.178   0.626 -0.2135 -1.0074  0.1997
24088SOL     OW76625   8.486   4.182   0.046  0.5123  0.3421  0.4611
24088SOL    HW176626   8.451   4.183   0.135  0.5564 -1.5914  0.5350
24088SOL    HW276627   8.521   4.093   0.035 -2.0818 -0.4545 -2.4747
24089SOL     OW76628   9.149   5.926   8.333 -0.3606  0.4410 -0.0700
24089SOL    HW176629   9.235   5.962   8.312  0.6408 -0.7278  1.6857
24089SOL    HW276630   9.097   6.001   8.361  0.6346  0.9662  0.4330
24090SOL     OW76631   0.030  10.882   6.641  0.0616 -0.1081  0.4071
24090SOL    HW176632   0.017  10.921   6.727 -0.8807  0.7978 -0.1199
24090SOL    HW276633   0.115  10.915   6.612  0.4557 -0.5481  1.0456
24091SOL     OW76634   5.009   9.927   2.848 -0.4222  0.1755  0.2179
24091SOL    HW176635   5.014  10.023   2.843  1.6909  0.0566 -1.3257
24091SOL    HW276636   5.088   9.902   2.895  0.4004 -0.8954 -1.6458
24092SOL     OW76637   0.945   0.050   1.928  0.1069  0.9109  0.2961
24092SOL    HW176638   0.909   0.073   2.014  1.1396  3.0115  0.2266
24092SOL    HW276639   0.890   0.098   1.865 -0.5475 -0.4890 -0.2361
24093SOL     OW76640  10.319  10.060   3.100  0.1104 -0.2280 -0.8252
24093SOL    HW176641  10.330  10.056   3.195  0.8076 -2.7538 -0.9349
24093SOL    HW276642  10.314  10.153   3.080  0.1434  0.3752  1.6569
24094SOL     OW76643   1.432   9.767   8.581  0.1221  0.3986 -0.1254
24094SOL    HW176644   1.480   9.820   8.644 -0.1025  1.3123 -0.7084
24094SOL    HW276645   1.346   9.808   8.576  0.2951  0.6215 -1.3823
24095SOL     OW76646   1.897   7.108   7.845 -0.0713  0.6289 -0.4583
24095SOL    HW176647   1.857   7.119   7.932  0.7214 -0.2503  0.0458
24095SOL    HW276648   1.927   7.017   7.845  0.0473  0.6563 -1.6247
24096SOL     OW76649   1.173  10.460   8.656  0.4948  0.7096 -0.5429
24096SOL    HW176650   1.256  10.418   8.633  0.4255  1.7095 -2.9701
24096SOL    HW276651   1.198  10.548   8.685  0.2933  1.1054 -1.5391
24097SOL     OW76652   3.017   2.778   2.413 -0.3358 -0.6429 -0.1072
24097SOL    HW176653   2.934   2.792   2.459  1.0779  0.8172  2.1561
24097SOL    HW276654   3.027   2.857   2.359 -0.7087 -1.1346 -0.9157
24098SOL     OW76655  10.610   9.173   5.522 -0.4584 -0.2057 -0.4396
24098SOL    HW176656  10.630   9.108   5.589 -1.5845  0.6699  0.7834
24098SOL    HW276657  10.671   9.152   5.450  0.8014 -1.1515  0.8353
24099SOL     OW76658   7.275   6.200   0.565 -0.6146 -0.2652  0.4943
24099SOL    HW176659   7.254   6.281   0.518 -2.1132 -0.9422 -0.0449
24099SOL    HW276660   7.329   6.150   0.504  1.3712  0.7775  1.2739
24100SOL     OW76661   9.006   5.138   9.517  0.1472  0.5825  0.3635
24100SOL    HW176662   9.068   5.091   9.462 -0.6760  1.7424 -1.6778
24100SOL    HW276663   9.022   5.105   9.605  1.1534 -1.7781 -0.6236
24101SOL     OW76664   5.140   2.423   6.511 -1.2166 -0.1641  0.3306
24101SOL    HW176665   5.077   2.351   6.516  0.4024 -1.6529 -0.1209
24101SOL    HW276666   5.216   2.392   6.560 -0.8229  1.6362  0.9326
24102SOL     OW76667   3.714   9.796   9.589  0.0247 -0.2995  0.0561
24102SOL    HW176668   3.749   9.708   9.601  0.4173 -0.7301 -3.2361
24102SOL    HW276669   3.624   9.782   9.559  0.3072  0.3557 -1.1515
24103SOL     OW76670   2.127   6.338  10.805  0.1929  0.1472  0.5224
24103SOL    HW176671   2.162   6.249  10.801  1.5247  0.6663  0.2610
24103SOL    HW276672   2.062   6.335  10.875  0.8712 -0.8139  1.1265
24104SOL     OW76673   9.937  11.090   3.175  0.4142  0.3170 -0.5949
24104SOL    HW176674   9.888  11.041   3.240  1.6121 -0.9199 -0.5837
24104SOL    HW276675   9.921  11.182   3.197 -1.2823 -0.0506 -0.1746
24105SOL     OW76676   0.109   0.961   9.599  0.1350 -0.0334  0.6085
24105SOL    HW176677   0.045   0.922   9.539  1.3582 -0.7851 -0.2539
24105SOL    HW276678   0.113   0.899   9.672  0.9325 -0.7612 -0.0314
24106SOL     OW76679   5.869   8.005   9.484 -0.0163  0.3310  0.3522
24106SOL    HW176680   5.877   8.061   9.561 -1.0968 -1.6246  1.9996
24106SOL    HW276681   5.942   7.943   9.491 -0.2110  0.0406 -0.1172
24107SOL     OW76682   6.214   0.541   1.643 -0.4706  0.0832  0.0964
24107SOL    HW176683   6.259   0.519   1.725 -0.7086  0.2486  0.2748
24107SOL    HW276684   6.125   0.563   1.670  0.0030  2.2708  0.0917
24108SOL     OW76685   1.206   5.885   4.892  0.3012 -0.1417 -0.1266
24108SOL    HW176686   1.189   5.812   4.833 -0.4085 -0.6223  0.6574
24108SOL    HW276687   1.271   5.852   4.953  0.3476  0.0498 -0.0706
24109SOL     OW76688   8.782   7.911   3.938  0.3583  0.1571 -0.0133
24109SOL    HW176689   8.698   7.883   3.976  0.5270 -0.5395 -0.1500
24109SOL    HW276690   8.811   7.982   3.995  0.5366 -0.7765  1.0954
24110SOL     OW76691   5.024   1.702   9.327  0.0792  0.7146  0.2209
24110SOL    HW176692   4.936   1.701   9.291  0.8149  1.1062 -1.7129
24110SOL    HW276693   5.081   1.721   9.253  1.8017  0.5962  1.4262
24111SOL     OW76694   9.775   3.925   7.053 -0.1805  0.4643 -0.2581
24111SOL    HW176695   9.823   4.007   7.060  0.0812  0.3219 -0.3462
24111SOL    HW276696   9.695   3.947   7.005 -0.7273  0.9205  0.8268
24112SOL     OW76697   7.343   5.113   3.325 -0.3153 -0.1460  0.3561
24112SOL    HW176698   7.261   5.085   3.364  0.1668 -1.2566  0.5892
24112SOL    HW276699   7.408   5.049   3.354  0.4545  0.1721 -0.5968
24113SOL     OW76700   0.172   7.134   1.105  0.3374 -0.1268  0.3446
24113SOL    HW176701   0.251   7.187   1.109 -0.1236  0.7332 -1.1914
24113SOL    HW276702   0.159   7.117   1.012 -0.7339 -1.1064  0.6485
24114SOL     OW76703   4.342   9.126   2.273  0.5632 -0.1265 -0.1037
24114SOL    HW176704   4.267   9.158   2.222  0.5968 -1.8963 -1.3688
24114SOL    HW276705   4.419   9.154   2.222  0.6743 -0.0629  0.0996
24115SOL     OW76706   2.344   2.169  10.037 -0.4701  0.2846  0.2095
24115SOL    HW176707   2.298   2.241  10.082 -1.2017 -0.3507  0.5039
24115SOL    HW276708   2.321   2.181   9.945  2.2658  2.5082 -0.3362
24116SOL     OW76709   7.539   5.091   4.703 -0.1770 -0.2073  0.7521
24116SOL    HW176710   7.513   5.000   4.688 -0.7546 -0.2139  1.7016
24116SOL    HW276711   7.592   5.114   4.627 -2.4614 -0.3799 -1.0064
24117SOL     OW76712  10.578   7.923   0.221  0.5084 -0.4955 -0.2672
24117SOL    HW176713  10.536   7.938   0.305 -0.6044  1.4978 -1.1113
24117SOL    HW276714  10.556   7.832   0.199  0.0420 -0.7495  1.1490
24118SOL     OW76715   3.682   3.296   4.262  0.0354 -0.3315  0.0305
24118SOL    HW176716   3.617   3.300   4.192  2.7744 -0.6893 -2.7743
24118SOL    HW276717   3.729   3.214   4.246  2.7316  1.0540  0.3106
24119SOL     OW76718   6.562   4.682   1.606  0.0422 -0.5390 -0.2067
24119SOL    HW176719   6.502   4.678   1.680 -0.5750 -1.0219 -0.7228
24119SOL    HW276720   6.533   4.757   1.555 -1.0636 -1.6147 -1.2257
24120SOL     OW76721   5.391   2.395  10.924 -0.0135  0.2521  0.6356
24120SOL    HW176722   5.341   2.336  10.980 -0.0148  0.8685  1.3096
24120SOL    HW276723   5.482   2.378  10.947 -0.0196  0.6036  0.9496
24121SOL     OW76724   1.175   0.482   6.645  0.4605 -0.0949  0.2898
24121SOL    HW176725   1.147   0.564   6.686 -1.0782 -0.8860  0.9217
24121SOL    HW276726   1.250   0.506   6.591 -0.8741  2.0126 -0.7490
24122SOL     OW76727   6.963   5.127   2.730 -0.4336 -0.3693  0.2964
24122SOL    HW176728   6.940   5.213   2.765  1.2385  1.2404 -2.2280
24122SOL    HW276729   6.937   5.131   2.638  0.8137 -2.0864 -0.1820
24123SOL     OW76730   0.644   3.049   8.145  0.1967 -0.7973 -0.3665
24123SOL    HW176731   0.579   3.107   8.105  1.5745  0.6755 -0.6137
24123SOL    HW276732   0.602   3.015   8.223 -0.3989  1.3142  0.3003
24124SOL     OW76733   7.057  10.526   5.865 -0.7312 -0.6325 -0.1660
24124SOL    HW176734   6.972  10.554   5.829 -0.1341  1.0405 -0.3804
24124SOL    HW276735   7.035  10.483   5.948 -1.8503 -1.1322 -0.7002
24125SOL     OW76736   2.637   6.009   9.812 -0.1969  0.3896 -0.1950
24125SOL    HW176737   2.696   6.080   9.786 -0.6987  0.5599 -0.9185
24125SOL    HW276738   2.686   5.960   9.878  0.7500  0.5362 -0.7594
24126SOL     OW76739   6.238   3.225   5.135  0.2675  0.5376  0.2531
24126SOL    HW176740   6.302   3.155   5.118 -1.7182 -1.0321 -1.2299
24126SOL    HW276741   6.225   3.266   5.049 -0.0131  1.4834  0.7387
24127SOL     OW76742   5.726   0.137   2.239 -0.4235 -0.2033 -0.7322
24127SOL    HW176743   5.734   0.179   2.324  0.4257 -0.6577 -0.5708
24127SOL    HW276744   5.634   0.148   2.215 -0.6059  0.1865  0.1008
24128SOL     OW76745   5.013  10.652   6.544 -0.3039 -0.0363 -0.5335
24128SOL    HW176746   5.081  10.718   6.533 -0.9638  0.4450 -1.9409
24128SOL    HW276747   5.018  10.628   6.637  0.8572  0.9849 -0.3047
24129SOL     OW76748  10.672   8.987   4.966 -0.0127  0.9008  0.0027
24129SOL    HW176749  10.731   8.957   4.896 -1.1518  1.5618 -1.2985
24129SOL    HW276750  10.688   9.081   4.973 -0.2089  0.9095  0.3482
24130SOL     OW76751   1.077  10.799   1.898 -0.0617  0.1050  0.7823
24130SOL    HW176752   1.143  10.855   1.940  1.1922  1.2508 -2.3367
24130SOL    HW276753   1.129  10.731   1.854 -1.1159 -0.0485 -0.2542
24131SOL     OW76754   7.957   1.642  10.777  0.3518  0.7660 -0.0623
24131SOL    HW176755   8.044   1.608  10.755  0.5970  0.7615  0.9020
24131SOL    HW276756   7.901   1.565  10.778 -0.0349  0.9425 -2.2938
24132SOL     OW76757   4.573   4.194   8.643  0.3765  0.2093 -0.4267
24132SOL    HW176758   4.579   4.209   8.548 -0.5636 -2.5771 -1.0252
24132SOL    HW276759   4.664   4.187   8.672  0.7284 -1.7206 -1.7443
24133SOL     OW76760   0.766   6.867   4.751 -0.6322 -0.1101 -0.4485
24133SOL    HW176761   0.676   6.843   4.773 -0.2980 -0.9050  0.1317
24133SOL    HW276762   0.766   6.962   4.746 -1.1245  0.0334  1.3966
24134SOL     OW76763   7.592   0.634  10.824 -0.2602  0.2205  0.1026
24134SOL    HW176764   7.526   0.702  10.811 -1.2298 -0.5640  0.8060
24134SOL    HW276765   7.619   0.610  10.735 -1.0038  0.4705 -0.1978
24135SOL     OW76766   4.476   7.831   1.060  1.0346  0.7233 -0.4649
24135SOL    HW176767   4.514   7.901   1.008  2.4450  0.6593  0.4233
24135SOL    HW276768   4.550   7.796   1.111 -0.0261 -0.0983  0.5652
24136SOL     OW76769   0.498   3.015   0.031  0.1224  0.2081  0.0120
24136SOL    HW176770   0.580   2.999   0.077  1.8950  0.4904 -2.7905
24136SOL    HW276771   0.489   2.940  -0.029 -1.2203  0.6241 -0.3554
24137SOL     OW76772   1.943   1.258   4.080 -1.3110  0.1507 -0.4237
24137SOL    HW176773   1.966   1.344   4.045 -0.8472  0.8051  1.3914
24137SOL    HW276774   2.003   1.198   4.037  0.4084  1.1589  0.4464
24138SOL     OW76775   5.077   4.347   0.801 -0.4048  0.0209  0.6115
24138SOL    HW176776   5.079   4.283   0.871 -1.1558 -0.2021  0.4346
24138SOL    HW276777   5.168   4.353   0.770  0.0490  0.5680  1.9911
24139SOL     OW76778   0.123   8.243   6.202 -0.0408  0.7237 -0.2572
24139SOL    HW176779   0.111   8.153   6.173 -0.1433 -0.0305  2.0056
24139SOL    HW276780   0.216   8.261   6.188  0.0579  0.1530 -0.3376
24140SOL     OW76781   7.533  11.067   2.659 -1.0034  0.2762 -0.2125
24140SOL    HW176782   7.451  11.043   2.615 -1.6144  0.4458  0.8157
24140SOL    HW276783   7.506  11.106   2.742  0.1632 -1.7047  1.1717
24141SOL     OW76784   9.950   6.761   3.999  0.3934 -0.2180 -0.1169
24141SOL    HW176785   9.958   6.778   4.092  1.2049 -0.5268 -0.1172
24141SOL    HW276786   9.930   6.668   3.993 -2.1829  0.2667 -0.1820
24142SOL     OW76787   7.067   8.990   6.991  0.1227  0.1468 -0.0598
24142SOL    HW176788   7.099   9.076   6.966 -2.4012  1.6637  1.4117
24142SOL    HW276789   7.063   8.993   7.087 -0.9928 -1.2167 -0.0285
24143SOL     OW76790   6.471  11.099   2.665 -0.0712 -0.2160  0.1711
24143SOL    HW176791   6.383  11.128   2.642 -0.9847 -1.7585  1.4761
24143SOL    HW276792   6.510  11.173   2.712 -1.5479 -0.2872  1.6023
24144SOL     OW76793   3.495  10.292   1.750 -0.2372 -0.6164 -0.3186
24144SOL    HW176794   3.565  10.329   1.696 -0.9630 -0.6491 -1.3099
24144SOL    HW276795   3.539  10.231   1.809  0.6347 -0.2131 -0.5409
24145SOL     OW76796   4.781   3.723   4.482  0.3504  0.3197  0.5407
24145SOL    HW176797   4.821   3.782   4.546  0.0580 -1.0158  2.0162
24145SOL    HW276798   4.854   3.677   4.442  0.5007  0.7451  0.3191
24146SOL     OW76799   0.131   3.744   6.575  0.8346  0.4048  0.0966
24146SOL    HW176800   0.149   3.652   6.597  1.7692  0.4240 -0.5024
24146SOL    HW276801   0.124   3.745   6.480 -0.2666  0.7882  0.1686
24147SOL     OW76802   1.199   5.901   0.737  0.0536  0.7917 -0.2725
24147SOL    HW176803   1.133   5.930   0.800 -1.0665 -1.8740 -0.0839
24147SOL    HW276804   1.155   5.833   0.687  2.6929 -1.2602  0.0023
24148SOL     OW76805   1.884   7.371   2.990  0.2017 -0.3463  0.1908
24148SOL    HW176806   1.812   7.354   2.929  1.3771 -0.9560 -1.0817
24148SOL    HW276807   1.901   7.465   2.980 -1.3117  0.1228  1.5706
24149SOL     OW76808   1.156   7.923   6.143  0.1015 -0.5299 -0.1986
24149SOL    HW176809   1.135   7.904   6.234  0.1668  1.0598  0.1834
24149SOL    HW276810   1.247   7.955   6.145 -0.0898  0.0793 -0.7202
24150SOL     OW76811   6.125   2.320   9.438  0.8377 -0.4248 -0.5010
24150SOL    HW176812   6.043   2.272   9.428  2.0294 -2.3862 -1.5138
24150SOL    HW276813   6.099   2.412   9.444 -1.5043 -1.0882  0.6748
24151SOL     OW76814   4.361   0.480   4.118  0.1624 -0.6081 -0.1795
24151SOL    HW176815   4.436   0.432   4.083  0.7339  0.5923 -0.6769
24151SOL    HW276816   4.314   0.511   4.040 -0.9399 -1.4628  0.1230
24152SOL     OW76817   2.056   1.451   5.882 -0.3427 -0.1870  0.4407
24152SOL    HW176818   2.142   1.486   5.905  0.1581 -0.6042 -0.7254
24152SOL    HW276819   2.015   1.522   5.832 -1.0340  0.3365  1.7053
24153SOL     OW76820   6.084   5.870   8.321  0.1147  0.0064 -0.2334
24153SOL    HW176821   6.164   5.913   8.288  0.2966 -1.5193 -2.0039
24153SOL    HW276822   6.116   5.786   8.356 -0.7529 -1.0021 -1.7569
24154SOL     OW76823   8.211   6.626   3.939 -0.0519  0.5503 -0.0003
24154SOL    HW176824   8.208   6.579   3.855 -1.3413  2.3007 -0.9907
24154SOL    HW276825   8.175   6.712   3.920  0.6827  1.3927  2.1328
24155SOL     OW76826   2.285   3.692   5.952 -0.6899 -0.3579  0.2081
24155SOL    HW176827   2.192   3.693   5.931 -0.4947 -0.7125 -0.7090
24155SOL    HW276828   2.298   3.611   6.001 -0.8589 -0.3230  0.3097
24156SOL     OW76829   1.852  10.580   4.606 -0.2422  0.5729 -0.4746
24156SOL    HW176830   1.883  10.546   4.522  1.1782 -0.0079  0.2447
24156SOL    HW276831   1.757  10.567   4.604 -0.1248 -0.2752 -1.6174
24157SOL     OW76832   2.222   8.974   9.352 -0.0956  0.1056 -0.1699
24157SOL    HW176833   2.261   8.892   9.380  0.3908 -0.0083 -1.1317
24157SOL    HW276834   2.141   8.981   9.402  0.5340 -0.2789  0.9167
24158SOL     OW76835  10.380   2.635   3.670  0.1924  0.1190 -0.2746
24158SOL    HW176836  10.408   2.646   3.760  0.3520  1.2741 -0.4379
24158SOL    HW276837  10.284   2.640   3.674  0.1620 -0.5647 -0.0912
24159SOL     OW76838   6.831   1.132   3.747  0.0878 -0.3918 -0.8828
24159SOL    HW176839   6.817   1.140   3.653  0.4637 -2.6840 -1.1886
24159SOL    HW276840   6.832   1.038   3.763  0.2094 -0.0534  1.3977
24160SOL     OW76841   6.102   3.072   4.575 -0.1270 -0.7187  0.3891
24160SOL    HW176842   6.134   3.138   4.514  0.1408 -0.5791  0.6751
24160SOL    HW276843   6.007   3.088   4.580  0.0547  0.2186  1.1190
24161SOL     OW76844   8.392  11.040   9.737 -0.3157 -0.1206  0.1937
24161SOL    HW176845   8.359  10.950   9.747 -1.0247 -0.2215 -2.3289
24161SOL    HW276846   8.315  11.095   9.746 -0.3064  0.0360 -0.6359
24162SOL     OW76847   8.139  10.131   1.985 -0.6550  0.4461  0.6739
24162SOL    HW176848   8.169  10.206   1.934  1.2030 -0.5894  0.1219
24162SOL    HW276849   8.168  10.150   2.075  2.9523 -0.9637  0.0123
24163SOL     OW76850   7.141   3.164   6.151 -0.0780  0.0327 -0.1116
24163SOL    HW176851   7.173   3.115   6.075  0.7104 -1.8063  1.3165
24163SOL    HW276852   7.116   3.250   6.116  0.4190 -0.6799 -2.3871
24164SOL     OW76853   7.185   5.420   0.657 -0.0942  0.5400 -0.1463
24164SOL    HW176854   7.141   5.398   0.574  2.2693  1.4922 -1.7503
24164SOL    HW276855   7.242   5.345   0.674 -0.1860  0.5833  0.3667
24165SOL     OW76856   8.738   6.602   9.208 -0.1358 -0.6433 -0.0179
24165SOL    HW176857   8.830   6.575   9.212 -0.6791 -2.7939 -0.6990
24165SOL    HW276858   8.705   6.587   9.296 -0.1748 -1.2957 -0.1363
24166SOL     OW76859   7.477   2.031   3.709 -0.1460 -0.3043  0.0498
24166SOL    HW176860   7.499   2.014   3.801  0.7661  0.9604  0.0826
24166SOL    HW276861   7.417   2.105   3.712  1.8600  1.4249 -0.4718
24167SOL     OW76862   6.341   1.319   3.334 -0.1977 -0.1226  0.0990
24167SOL    HW176863   6.318   1.283   3.248  0.1516 -0.0926 -0.0086
24167SOL    HW276864   6.403   1.256   3.371  1.5316  1.0245 -0.6843
24168SOL     OW76865   3.763  10.543  10.543  0.1182 -0.1710  0.1475
24168SOL    HW176866   3.794  10.595  10.469 -1.2686  0.9201  0.3033
24168SOL    HW276867   3.788  10.453  10.521  0.6436  0.2745 -1.1515
24169SOL     OW76868   6.326  10.129   0.318 -0.3152 -0.3623 -0.1602
24169SOL    HW176869   6.335  10.092   0.230  2.5061 -1.0028  0.2882
24169SOL    HW276870   6.313  10.223   0.303 -1.4332 -0.6692 -1.2467
24170SOL     OW76871   7.330   9.478   9.953  0.1879  0.4138  0.6147
24170SOL    HW176872   7.422   9.497   9.937  0.1887  2.7739  2.8441
24170SOL    HW276873   7.330   9.398  10.006  0.9877  0.5813  0.8736
24171SOL     OW76874   5.756   3.792   8.586  0.2074 -0.5846 -0.2352
24171SOL    HW176875   5.660   3.788   8.586  0.1646  0.1024  0.5916
24171SOL    HW276876   5.779   3.806   8.494 -0.6582  2.1072 -0.1385
24172SOL     OW76877   8.730   6.738   0.221  0.3466 -0.3935  0.0405
24172SOL    HW176878   8.789   6.663   0.223 -1.0803 -1.5408  0.7601
24172SOL    HW276879   8.677   6.730   0.301  0.9702  2.0763  0.7830
24173SOL     OW76880   2.648   8.107   3.283 -0.6113  0.0291 -0.2270
24173SOL    HW176881   2.712   8.037   3.294 -1.2224 -0.1280  3.5746
24173SOL    HW276882   2.563   8.061   3.278 -0.8865  0.4126  0.7652
24174SOL     OW76883   3.716   4.049   3.512  0.1369  0.5619 -0.2824
24174SOL    HW176884   3.635   4.067   3.465 -0.4625  0.1331  0.5388
24174SOL    HW276885   3.773   4.007   3.448 -0.3288  0.7904 -0.8506
24175SOL     OW76886   4.318   8.417   4.138 -0.4285  0.5644 -0.4401
24175SOL    HW176887   4.370   8.472   4.196  1.7751 -0.9266 -0.8942
24175SOL    HW276888   4.313   8.465   4.056 -0.8755  1.2621 -0.0188
24176SOL     OW76889   2.320   9.468   4.382  0.1427 -0.2798 -0.5067
24176SOL    HW176890   2.309   9.525   4.459 -1.0222 -2.4412  1.0334
24176SOL    HW276891   2.412   9.442   4.385  0.8681  1.8576 -1.5847
24177SOL     OW76892   7.296   5.557   7.573  0.1173 -0.4145 -0.4709
24177SOL    HW176893   7.203   5.544   7.592 -0.4410  1.4415 -1.6083
24177SOL    HW276894   7.316   5.643   7.612  1.5745 -1.1206  0.4133
24178SOL     OW76895   9.426   6.303   9.878  0.3702 -0.1664 -0.0533
24178SOL    HW176896   9.414   6.259   9.794  1.7930 -0.9367  0.1232
24178SOL    HW276897   9.373   6.252   9.940  0.0394 -0.1369 -0.3100
24179SOL     OW76898   6.772   3.999   2.135  0.2595 -0.2820 -0.7247
24179SOL    HW176899   6.695   3.951   2.166  0.3587 -1.5095 -2.2693
24179SOL    HW276900   6.764   4.086   2.175 -0.8496 -1.0125  0.7439
24180SOL     OW76901   5.981   3.758   8.749 -0.1545  0.1764  0.6766
24180SOL    HW176902   5.893   3.754   8.711 -0.6980 -4.0888  1.8493
24180SOL    HW276903   6.039   3.733   8.677 -0.5603 -1.9655  1.0067
24181SOL     OW76904   4.473  10.438  10.655  0.4630  0.3011  0.5006
24181SOL    HW176905   4.431  10.525  10.655 -0.6012 -0.1832  1.2264
24181SOL    HW276906   4.408  10.380  10.615  1.7077  0.0453 -1.2391
24182SOL     OW76907   7.040   7.651   4.297  0.2602 -0.2419 -0.4552
24182SOL    HW176908   7.113   7.713   4.296 -0.1138  0.2270  0.1778
24182SOL    HW276909   7.076   7.571   4.259  0.6542  0.4657 -1.6268
24183SOL     OW76910   3.507   8.733   2.949  0.1023 -0.1005 -0.6208
24183SOL    HW176911   3.494   8.820   2.912 -3.4142  0.2310  1.0033
24183SOL    HW276912   3.494   8.744   3.043 -0.2393 -2.3467 -0.3367
24184SOL     OW76913   8.169   6.885   0.982 -0.4343  0.6538  0.1268
24184SOL    HW176914   8.221   6.890   0.902 -1.1731  0.1184 -0.4017
24184SOL    HW276915   8.189   6.967   1.028  0.9203  0.4220 -0.0083
24185SOL     OW76916   5.294   6.033   0.332  0.2214  0.3138 -0.4735
24185SOL    HW176917   5.289   6.128   0.343 -1.1811  0.0748  1.4247
24185SOL    HW276918   5.274   6.019   0.239  0.1959  1.8481 -0.7286
24186SOL     OW76919   1.245   8.807  10.444  0.5635  0.1283 -0.1349
24186SOL    HW176920   1.332   8.771  10.427  0.4934 -0.2972  0.3777
24186SOL    HW276921   1.193   8.779  10.369  0.2908 -1.6116  0.6471
24187SOL     OW76922   9.838   3.709   4.477  0.1014 -0.2537 -0.4857
24187SOL    HW176923   9.868   3.772   4.413 -3.1349  1.9524 -0.1074
24187SOL    HW276924   9.742   3.717   4.475 -0.2385 -1.1857  3.4336
24188SOL     OW76925   2.145   3.546   8.955 -0.1721  0.4714  0.0711
24188SOL    HW176926   2.239   3.528   8.947 -0.1920  0.7888 -1.1162
24188SOL    HW276927   2.138   3.607   9.028  0.5039  0.1717  0.3933
24189SOL     OW76928   7.059   7.922   0.715 -0.0457  0.1405  0.2249
24189SOL    HW176929   6.983   7.966   0.755  0.4823  1.0356  0.2592
24189SOL    HW276930   7.127   7.927   0.782  0.0491 -0.6650  0.1924
24190SOL     OW76931  10.351   7.238   8.921  0.0130 -0.0889 -0.0381
24190SOL    HW176932  10.440   7.207   8.940 -0.3828 -1.0825  0.2587
24190SOL    HW276933  10.338   7.221   8.828 -0.0350 -0.3792  0.0219
24191SOL     OW76934   8.175   7.067   6.694 -0.0247 -0.4441 -0.2846
24191SOL    HW176935   8.236   7.067   6.767 -0.8003 -0.4161  0.3708
24191SOL    HW276936   8.095   7.106   6.728 -0.0826  0.5070 -1.4238
24192SOL     OW76937   0.286   2.322   2.051 -0.2846  0.1308 -0.0964
24192SOL    HW176938   0.257   2.235   2.077  1.5765 -0.4664  0.0920
24192SOL    HW276939   0.245   2.381   2.115  1.1814 -0.9587  1.9607
24193SOL     OW76940   4.950   7.799   1.060  0.1031 -0.3359 -0.2404
24193SOL    HW176941   4.892   7.829   0.990  1.9308  1.0213 -1.2513
24193SOL    HW276942   4.955   7.873   1.120 -0.6198 -1.1122  0.8005
24194SOL     OW76943   0.866   3.226   7.220 -0.0387  0.2878  0.5358
24194SOL    HW176944   0.950   3.270   7.205  0.5976 -1.1213 -0.2027
24194SOL    HW276945   0.810   3.294   7.257  0.7265  1.8717 -1.0543
24195SOL     OW76946   7.387   8.723   1.050 -0.0443  0.1037  0.1473
24195SOL    HW176947   7.438   8.757   1.123 -0.1343  0.6548 -0.0422
24195SOL    HW276948   7.336   8.798   1.018  1.1690  0.3009 -1.4815
24196SOL     OW76949   1.043   3.271   4.730  0.3070  0.0718  0.3968
24196SOL    HW176950   1.035   3.238   4.641 -0.1404  1.2627 -0.0200
24196SOL    HW276951   0.952   3.278   4.761  0.4597 -0.3790  0.9787
24197SOL     OW76952   6.761   6.163   6.287  0.1622 -0.4736 -0.0253
24197SOL    HW176953   6.737   6.249   6.320  0.6155 -0.1734 -0.4734
24197SOL    HW276954   6.790   6.178   6.197  0.5222 -1.0521 -0.0134
24198SOL     OW76955   8.198   2.857  10.802 -0.8815 -0.4945 -0.7462
24198SOL    HW176956   8.231   2.778  10.846  0.7042  0.9514  0.7879
24198SOL    HW276957   8.247   2.860  10.720 -1.6546 -1.5805 -1.2822
24199SOL     OW76958   7.751  10.851   7.888  0.4682  0.0823  0.4017
24199SOL    HW176959   7.806  10.884   7.959 -0.6317  3.7475 -0.2596
24199SOL    HW276960   7.664  10.839   7.928  0.4583 -0.4049  0.2420
24200SOL     OW76961  10.778   7.500   5.044 -0.9022  0.6127 -0.1423
24200SOL    HW176962  10.850   7.514   4.982 -0.5693  2.7510  0.6397
24200SOL    HW276963  10.699   7.500   4.990 -0.3706 -2.1458 -1.0595
24201SOL     OW76964   4.611   3.798   3.195  0.0489 -0.5783 -0.1383
24201SOL    HW176965   4.538   3.844   3.153  0.6087 -0.9147 -1.5435
24201SOL    HW276966   4.641   3.859   3.263 -1.0143 -0.0937 -0.0770
24202SOL     OW76967   3.934   0.663   1.362 -0.5813 -0.1224 -0.2806
24202SOL    HW176968   3.859   0.616   1.324 -1.1127  1.4439 -1.2843
24202SOL    HW276969   3.900   0.750   1.381  1.0268  0.6639 -0.8765
24203SOL     OW76970   1.102   2.104   8.420 -0.6012 -0.5771 -0.1108
24203SOL    HW176971   1.068   2.051   8.493 -1.4401 -0.7207 -0.5841
24203SOL    HW276972   1.032   2.101   8.355  0.1350 -0.4443 -0.9193
24204SOL     OW76973   6.625   9.675   5.705 -0.2698  0.2388 -0.8000
24204SOL    HW176974   6.718   9.687   5.726 -0.1552 -0.1046 -1.0978
24204SOL    HW276975   6.620   9.686   5.611 -0.5699  0.4789 -0.7556
24205SOL     OW76976   6.402   9.560   8.375  0.3486  0.3460  0.2877
24205SOL    HW176977   6.486   9.596   8.402  0.0468  0.1191  1.5926
24205SOL    HW276978   6.413   9.465   8.377 -0.4392  0.2527  2.2921
24206SOL     OW76979   3.131   9.719   8.895 -0.2354 -0.3589 -0.1382
24206SOL    HW176980   3.168   9.662   8.962 -1.1032  0.6228  1.2107
24206SOL    HW276981   3.089   9.790   8.943 -1.3113  0.1247 -1.6990
24207SOL     OW76982   4.953   3.301   7.314  0.5724 -0.2055  0.0413
24207SOL    HW176983   4.915   3.258   7.237  0.4252  1.5690 -0.9192
24207SOL    HW276984   5.023   3.356   7.279  0.4169  0.7497  1.1698
24208SOL     OW76985   0.036   0.916  10.004  0.0174  0.1761 -0.0733
24208SOL    HW176986   0.009   0.854   9.935 -1.1142  1.3221 -0.7074
24208SOL    HW276987   0.002   1.001   9.974  0.3258  0.8624  1.4509
24209SOL     OW76988   1.672  10.395   6.376 -0.4229 -0.0490 -0.1018
24209SOL    HW176989   1.730  10.372   6.304  1.0200  0.3992  0.8754
24209SOL    HW276990   1.692  10.331   6.445 -0.7379  0.4035  0.4219
24210SOL     OW76991   6.834   3.483   1.494 -0.0119  0.3566  0.1588
24210SOL    HW176992   6.908   3.496   1.553 -0.6173  0.5314  0.8967
24210SOL    HW276993   6.859   3.530   1.414  0.9259 -0.0978  0.1655
24211SOL     OW76994   1.808   3.842   3.618  0.5402  0.6260  0.0105
24211SOL    HW176995   1.723   3.885   3.616 -0.7398 -1.7239  0.7258
24211SOL    HW276996   1.808   3.793   3.700  0.8950 -2.5784 -1.7715
24212SOL     OW76997   6.402   0.175   7.409  0.0312  0.0172 -0.4262
24212SOL    HW176998   6.497   0.185   7.406  0.1417 -0.9973 -0.7485
24212SOL    HW276999   6.385   0.136   7.495 -0.0103 -0.4591 -0.6433
24213SOL     OW77000   0.648   6.745  10.332 -0.1671 -0.5753 -0.0214
24213SOL    HW177001   0.553   6.743  10.345 -0.0267 -0.0944  1.2701
24213SOL    HW277002   0.682   6.682  10.395  0.3054 -1.8930 -1.5303
24214SOL     OW77003   7.604   6.420   3.955  0.2791  0.3855  0.5203
24214SOL    HW177004   7.532   6.422   3.891  0.6056 -1.7343 -0.0040
24214SOL    HW277005   7.577   6.355   4.020  2.2496 -1.5831 -0.4717
24215SOL     OW77006   3.518   8.076   4.358 -0.5633 -0.1617  0.1139
24215SOL    HW177007   3.483   7.987   4.358  3.3746 -1.9535  2.2628
24215SOL    HW277008   3.574   8.079   4.281 -0.1852  0.2225  0.4044
24216SOL     OW77009  11.000   2.539   4.309  0.5888 -0.2564 -0.2228
24216SOL    HW177010  11.068   2.493   4.359 -0.6857 -1.0921  0.7998
24216SOL    HW277011  10.962   2.471   4.253  2.2371  0.7321 -2.7186
24217SOL     OW77012   4.813   5.756   4.519  0.1068 -0.5704 -0.0657
24217SOL    HW177013   4.805   5.825   4.585 -2.1157  0.1274 -0.9642
24217SOL    HW277014   4.907   5.738   4.513  0.5288  0.7539  1.8194
24218SOL     OW77015   7.873  10.294   1.942  0.1070  0.0974 -0.7042
24218SOL    HW177016   7.945  10.238   1.971 -0.0054  0.5449  0.4739
24218SOL    HW277017   7.882  10.297   1.847  1.0091 -0.7038 -0.6562
24219SOL     OW77018  10.629   7.964   5.375  0.5286  0.2190  0.4118
24219SOL    HW177019  10.637   7.869   5.383  2.2096  0.1892 -1.0909
24219SOL    HW277020  10.711   7.992   5.334  0.5131  2.4561  1.7511
24220SOL     OW77021  10.003   5.137  10.218 -0.0352 -0.6082 -0.0446
24220SOL    HW177022  10.069   5.186  10.267 -0.6914  0.4276 -0.1743
24220SOL    HW277023   9.949   5.204  10.176 -0.7803 -1.4494 -0.4664
24221SOL     OW77024   5.584   1.369   7.011  0.2437  0.2380 -0.0189
24221SOL    HW177025   5.669   1.374   6.967 -0.4083  0.6365 -1.2836
24221SOL    HW277026   5.592   1.426   7.087  1.6688 -1.1180  0.9076
24222SOL     OW77027   2.266  10.268  10.043  0.6692 -0.1169  0.2953
24222SOL    HW177028   2.300  10.185  10.009 -0.6453 -0.2755 -0.7483
24222SOL    HW277029   2.212  10.302   9.971 -0.6761  0.4875  1.5419
24223SOL     OW77030  10.911   1.989   7.912 -0.6202  0.2860 -0.7683
24223SOL    HW177031  10.845   2.016   7.848  1.2955 -0.3501 -3.1643
24223SOL    HW277032  10.994   1.993   7.864  0.6560 -2.5353  0.9468
24224SOL     OW77033   3.003   5.608   8.366  0.2636  0.4268 -0.3378
24224SOL    HW177034   2.910   5.630   8.356  0.3193  0.7574 -0.1437
24224SOL    HW277035   3.007   5.514   8.348 -0.0360  0.5019 -0.8247
24225SOL     OW77036   5.389   9.120   4.719 -0.0952 -0.6522 -0.0073
24225SOL    HW177037   5.371   9.054   4.785 -0.3089 -0.6950 -0.1067
24225SOL    HW277038   5.480   9.146   4.734 -0.5985  0.4947  1.3515
24226SOL     OW77039  10.518   3.304   8.485 -0.5363  0.0391  0.0209
24226SOL    HW177040  10.563   3.380   8.447  1.3175 -0.3162  1.3798
24226SOL    HW277041  10.426   3.332   8.492  0.0932  2.1944  0.5503
24227SOL     OW77042   1.379   4.677   4.371 -0.1636  0.2539  0.1753
24227SOL    HW177043   1.336   4.626   4.303  0.0946 -0.5642  0.6190
24227SOL    HW277044   1.309   4.732   4.406 -1.3669 -2.2974  2.0921
24228SOL     OW77045   5.033   8.079   0.149 -0.5865  0.3448  0.0208
24228SOL    HW177046   5.039   8.164   0.106  0.4134  1.2302  1.7915
24228SOL    HW277047   5.098   8.083   0.220 -2.6990 -0.6710  2.1504
24229SOL     OW77048   0.006   4.249   4.082  0.0303 -0.7012 -0.1006
24229SOL    HW177049  -0.057   4.321   4.073 -0.6822 -1.4729 -1.5675
24229SOL    HW277050  -0.023   4.202   4.161 -0.1260  0.0011  0.2689
24230SOL     OW77051   9.625   6.537   8.743  0.1196  0.2243  0.2595
24230SOL    HW177052   9.531   6.533   8.760  0.1358 -0.5134  0.2147
24230SOL    HW277053   9.666   6.522   8.828  0.1952  0.1833  0.2165
24231SOL     OW77054   9.452   6.561   7.212 -0.5578 -0.0766  0.0805
24231SOL    HW177055   9.414   6.576   7.125 -0.6241  1.3274  0.3278
24231SOL    HW277056   9.482   6.647   7.240  2.1682 -0.9894  0.2196
24232SOL     OW77057   3.602   8.579   2.756  0.3157 -0.4664  0.9357
24232SOL    HW177058   3.525   8.530   2.727 -0.7296  0.8165  1.4379
24232SOL    HW277059   3.570   8.634   2.828  1.1818  1.6370 -0.2054
24233SOL     OW77060   1.726   9.029  10.411 -0.0221 -0.6042 -0.2110
24233SOL    HW177061   1.752   8.940  10.386 -1.9188 -1.1702 -0.3243
24233SOL    HW277062   1.689   9.019  10.499 -2.2342 -0.3517 -1.0595
24234SOL     OW77063   7.119   2.660   4.027  0.5077  0.8348 -0.0066
24234SOL    HW177064   7.163   2.576   4.044 -0.9988  0.2062  1.0094
24234SOL    HW277065   7.102   2.659   3.932 -2.0108 -1.3808  0.3461
24235SOL     OW77066   2.316   8.954   4.959  0.0810 -0.2433 -0.2030
24235SOL    HW177067   2.369   8.954   5.039 -0.6663  0.2580  0.2982
24235SOL    HW277068   2.350   9.026   4.907 -0.8208  0.7945  0.6092
24236SOL     OW77069   8.930  11.068  10.108 -0.5864  0.2916  0.4226
24236SOL    HW177070   9.001  11.077  10.171 -1.0910 -1.7043  1.3446
24236SOL    HW277071   8.863  11.129  10.139  0.0669  0.9955  0.4776
24237SOL     OW77072   5.524   7.492   2.305  0.0080 -0.1974 -0.1145
24237SOL    HW177073   5.533   7.397   2.305  0.2283 -0.1845 -0.9103
24237SOL    HW277074   5.448   7.509   2.250  0.1616  0.0990 -0.2377
24238SOL     OW77075   5.662   3.765   3.923  0.4297  0.3095  0.8121
24238SOL    HW177076   5.623   3.680   3.939  0.9126 -0.0570  0.1088
24238SOL    HW277077   5.589   3.820   3.895  0.0397  0.2589  1.6950
24239SOL     OW77078   4.954   4.301   9.531 -0.3913 -0.2848 -0.3520
24239SOL    HW177079   5.024   4.310   9.596  1.0575 -1.6179 -1.6231
24239SOL    HW277080   4.909   4.386   9.532  0.6977  0.3226  1.1144
24240SOL     OW77081   2.215   2.740   4.530  0.0034  0.3445 -0.0065
24240SOL    HW177082   2.153   2.671   4.504 -0.8731  1.5099 -1.1387
24240SOL    HW277083   2.293   2.692   4.558  0.0560 -1.1300 -2.3182
24241SOL     OW77084   3.146   4.095   9.692 -0.3257 -0.1491  0.7753
24241SOL    HW177085   3.156   4.031   9.622 -0.7442  0.6418 -0.0390
24241SOL    HW277086   3.125   4.044   9.770 -0.5542 -0.9989  0.1631
24242SOL     OW77087   6.886   2.968   1.125  0.0876 -0.5200  0.0402
24242SOL    HW177088   6.857   3.039   1.068  0.5941  0.4926  1.0060
24242SOL    HW277089   6.956   2.924   1.077  0.9136  0.6905  0.1166
24243SOL     OW77090   6.476   2.387   5.946  0.2940 -0.2374 -0.0056
24243SOL    HW177091   6.396   2.368   5.995  0.8382  0.1976  1.0893
24243SOL    HW277092   6.454   2.462   5.891  0.2525  0.5626  1.0906
24244SOL     OW77093   9.641   3.905   6.138  0.2832 -0.2890 -0.3380
24244SOL    HW177094   9.594   3.901   6.222  0.7201  1.5510  0.0472
24244SOL    HW277095   9.625   3.820   6.098 -1.1737 -0.6851  0.9495
24245SOL     OW77096   1.870   6.937   8.537 -0.2832  0.5630 -0.3875
24245SOL    HW177097   1.952   6.891   8.520 -0.8406 -0.5316 -0.1876
24245SOL    HW277098   1.895   7.029   8.545  0.8989  0.2590 -0.4728
24246SOL     OW77099   6.268   2.847   2.354  0.1238 -0.1984 -0.4130
24246SOL    HW177100   6.191   2.884   2.311 -0.9375  0.0612  1.6052
24246SOL    HW277101   6.319   2.922   2.383  1.2099 -0.3684 -1.7554
24247SOL     OW77102   1.854   4.616   7.344 -0.2922  0.5225  0.3432
24247SOL    HW177103   1.842   4.575   7.258 -0.1035 -0.2486  0.6681
24247SOL    HW277104   1.769   4.656   7.364 -0.2831  0.8534 -0.2768
24248SOL     OW77105   8.889   3.515   7.495 -0.7616  0.7681  0.0181
24248SOL    HW177106   8.855   3.581   7.433  1.4940  0.6597 -1.4561
24248SOL    HW277107   8.853   3.432   7.463 -1.2919  0.9497  0.1312
24249SOL     OW77108   6.219   4.931   9.581  0.1436  0.4412  0.1064
24249SOL    HW177109   6.300   4.925   9.631  0.0291  1.0323  0.3728
24249SOL    HW277110   6.170   5.002   9.623  0.4528  1.6090 -1.4019
24250SOL     OW77111   0.602   8.855   3.188 -0.5331 -0.0749 -0.1956
24250SOL    HW177112   0.608   8.950   3.195  0.0828 -0.0742 -0.7071
24250SOL    HW277113   0.683   8.828   3.145 -1.1302 -0.7416 -0.9356
24251SOL     OW77114   9.304   1.968   7.657  0.0267 -0.1949  0.2755
24251SOL    HW177115   9.282   1.970   7.564 -0.1962 -0.0677  0.3306
24251SOL    HW277116   9.236   2.021   7.699  0.9537  0.9770  0.3437
24252SOL     OW77117   1.261   7.965   9.712 -0.1389  0.1757  0.1873
24252SOL    HW177118   1.188   7.933   9.657  2.1921 -3.1423 -1.2996
24252SOL    HW277119   1.259   7.908   9.789  0.6636  0.2868  0.2893
24253SOL     OW77120   7.815   7.643  10.902 -0.3666 -0.0380 -0.1492
24253SOL    HW177121   7.897   7.692  10.896  0.8724 -2.0304 -0.3811
24253SOL    HW277122   7.754   7.691  10.847  0.7992  1.1814 -0.4329
24254SOL     OW77123   2.748   7.379   1.609 -0.0001 -0.9907 -0.2998
24254SOL    HW177124   2.824   7.428   1.639  0.6623 -2.2829  0.2005
24254SOL    HW277125   2.736   7.310   1.674 -2.7061  0.2307  0.6209
24255SOL     OW77126   9.056   4.318   9.678  0.3652 -0.7090 -0.2933
24255SOL    HW177127   9.079   4.302   9.587 -0.3214 -0.9348 -0.4355
24255SOL    HW277128   9.051   4.414   9.685 -1.0910 -0.7120 -0.9023
24256SOL     OW77129   5.656   0.411   4.412  0.0507  0.5938  0.2845
24256SOL    HW177130   5.649   0.390   4.505 -0.3609 -0.5494  0.0101
24256SOL    HW277131   5.588   0.476   4.396 -1.3955 -0.8697  0.3272
24257SOL     OW77132   0.159   4.529   2.514 -0.1602 -0.2606  0.0126
24257SOL    HW177133   0.254   4.540   2.510 -0.2527  1.1444  1.1543
24257SOL    HW277134   0.134   4.510   2.423  1.0425  0.7789 -0.5717
24258SOL     OW77135   1.233   4.660   6.388  0.0316  0.0815  0.0359
24258SOL    HW177136   1.223   4.564   6.384  1.4895 -0.0617 -0.6461
24258SOL    HW277137   1.216   4.690   6.299 -2.2133  0.6897  0.6136
24259SOL     OW77138   3.305  10.610   8.260  0.2361  0.3326 -0.5714
24259SOL    HW177139   3.286  10.653   8.177  1.5020 -0.6198 -1.3954
24259SOL    HW277140   3.395  10.579   8.251 -0.0494 -0.9580  0.6368
24260SOL     OW77141   5.630   5.066   7.672  0.0779 -0.4393 -0.7533
24260SOL    HW177142   5.668   5.012   7.742 -0.5195 -0.4901 -0.4626
24260SOL    HW277143   5.704   5.085   7.614 -0.0293 -3.1703 -1.9271
24261SOL     OW77144   7.836   5.514   3.783  0.1978  0.0628 -0.3716
24261SOL    HW177145   7.896   5.511   3.709  0.9788  2.5733  0.0804
24261SOL    HW277146   7.856   5.596   3.828 -1.7312 -0.3303  1.3904
24262SOL     OW77147   0.564   0.641   9.853  0.6799 -0.1108 -0.4494
24262SOL    HW177148   0.633   0.614   9.913 -0.2103  0.6357  0.9456
24262SOL    HW277149   0.496   0.680   9.909 -0.3701  0.2212 -1.8867
24263SOL     OW77150   6.470   5.373   1.690 -0.2905  0.1337  0.0005
24263SOL    HW177151   6.443   5.383   1.599  0.4337  1.0858 -0.1214
24263SOL    HW277152   6.392   5.395   1.741  0.0940  2.6804 -0.3523
24264SOL     OW77153   1.797  10.906   4.900 -0.6968 -0.5157 -0.3122
24264SOL    HW177154   1.761  10.942   4.980 -0.1608 -0.3736 -0.1314
24264SOL    HW277155   1.768  10.965   4.831 -0.0346  0.1259 -0.0517
24265SOL     OW77156   0.868   5.199   9.018  0.0911 -0.0253 -0.3638
24265SOL    HW177157   0.934   5.208   9.087  0.6445 -0.7802 -0.7853
24265SOL    HW277158   0.881   5.276   8.962 -1.1499  1.2396  1.0041
24266SOL     OW77159   4.989   8.572   6.246  0.2049 -0.6056  0.2107
24266SOL    HW177160   5.042   8.586   6.168 -0.1692  0.9812  0.2068
24266SOL    HW277161   5.022   8.636   6.309  1.0503 -2.3832  1.6731
24267SOL     OW77162   3.967  11.002   4.847  0.2348  0.0501 -0.0593
24267SOL    HW177163   3.947  11.089   4.812 -0.7756  0.7039  2.0060
24267SOL    HW277164   3.891  10.949   4.825  0.2667  0.0397 -0.1470
24268SOL     OW77165   8.292   8.078   0.849  0.3907 -0.0656  0.0187
24268SOL    HW177166   8.240   8.079   0.929  0.2435  1.1890 -0.0680
24268SOL    HW277167   8.253   8.010   0.795  0.3534 -0.7673  0.9212
24269SOL     OW77168   7.436   1.899   8.837 -0.0088 -0.4019  0.0807
24269SOL    HW177169   7.396   1.812   8.837 -0.3371 -0.2916  1.7555
24269SOL    HW277170   7.523   1.885   8.874  0.1020 -0.0719 -0.0494
24270SOL     OW77171   8.932   5.598   3.480 -0.1157  0.0331 -0.4670
24270SOL    HW177172   8.858   5.619   3.537  0.0881  2.2428 -0.9310
24270SOL    HW277173   9.002   5.574   3.540 -0.8695 -1.0363  0.0215
24271SOL     OW77174   9.301   7.774   4.729  0.2611 -0.7152 -0.2279
24271SOL    HW177175   9.235   7.755   4.662  1.2642 -0.6709 -1.2379
24271SOL    HW277176   9.299   7.698   4.786 -1.0326 -0.4905  0.0796
24272SOL     OW77177   3.548   3.032   3.403 -0.0773  0.2959 -0.6750
24272SOL    HW177178   3.513   3.119   3.416 -1.2458 -0.2479 -0.0500
24272SOL    HW277179   3.533   2.987   3.486  0.4606 -0.5231 -1.0025
24273SOL     OW77180   9.020   4.149   6.769  0.2334 -0.3677 -0.0217
24273SOL    HW177181   9.058   4.067   6.800  1.2129 -0.3852 -1.1974
24273SOL    HW277182   9.030   4.209   6.844  0.6775 -0.9619  0.4061
24274SOL     OW77183   1.000   2.663   8.132 -0.4343  0.0780  0.8868
24274SOL    HW177184   1.069   2.648   8.068 -2.1012  1.9354 -1.5085
24274SOL    HW277185   0.975   2.575   8.162  1.6568 -0.7162  0.4418
24275SOL     OW77186   4.277   3.345   9.866  0.0123  0.2079 -0.9592
24275SOL    HW177187   4.370   3.363   9.861 -0.0012  0.7812  0.3278
24275SOL    HW277188   4.260   3.333   9.960 -0.5882 -3.4267 -1.3757
24276SOL     OW77189   7.918   3.020   2.465 -0.0756 -0.3638  0.5745
24276SOL    HW177190   7.967   2.938   2.477 -2.2037 -1.5627  1.7157
24276SOL    HW277191   7.967   3.085   2.516  0.6627 -1.3782  1.1975
24277SOL     OW77192  10.324   4.722   4.512 -0.2754 -0.3521  0.7827
24277SOL    HW177193  10.311   4.724   4.417  1.3277 -0.4951  0.5412
24277SOL    HW277194  10.374   4.643   4.528 -0.3766 -0.2293  1.7380
24278SOL     OW77195   3.396   2.761   7.319  0.0972 -0.2286  0.0846
24278SOL    HW177196   3.336   2.705   7.269 -0.5040  1.5337 -1.3002
24278SOL    HW277197   3.458   2.793   7.253  1.4888 -0.5921  1.1716
24279SOL     OW77198   8.660   5.841   9.036  0.7070 -0.7762 -0.0950
24279SOL    HW177199   8.744   5.846   8.991  0.8645 -1.0846  0.1660
24279SOL    HW277200   8.682   5.816   9.126  0.3852 -0.2305  0.1357
24280SOL     OW77201   3.863   6.466   9.301 -0.1105 -0.0139  0.5640
24280SOL    HW177202   3.909   6.491   9.221 -0.4310 -0.4005  0.2549
24280SOL    HW277203   3.876   6.539   9.360  2.6371 -0.9221  1.2309
24281SOL     OW77204   4.819   6.023   1.949  0.1289  0.3265 -0.0339
24281SOL    HW177205   4.729   5.993   1.933  0.9121 -1.7306 -0.9029
24281SOL    HW277206   4.855   5.961   2.011  1.0115  1.0448  0.1967
24282SOL     OW77207  10.209   1.236   2.833  0.3553 -0.2177 -0.3395
24282SOL    HW177208  10.116   1.223   2.814 -0.3108 -0.3130  2.5645
24282SOL    HW277209  10.237   1.154   2.874  0.6706  1.0981  2.2445
24283SOL     OW77210   1.920   3.561   8.059  0.1360  0.2640 -0.0165
24283SOL    HW177211   1.835   3.582   8.098 -0.1557 -0.7914 -0.0549
24283SOL    HW277212   1.955   3.490   8.114  0.1961 -0.5093 -1.0232
24284SOL     OW77213   2.172   3.912   5.735 -0.2726 -0.2865  0.2948
24284SOL    HW177214   2.087   3.941   5.704  0.0495  0.2570 -0.1107
24284SOL    HW277215   2.162   3.819   5.751 -0.6728 -0.4206 -0.6681
24285SOL     OW77216   2.370   8.692   2.723  0.4792 -0.0430  0.0993
24285SOL    HW177217   2.435   8.743   2.772 -1.5653  2.2016  0.6823
24285SOL    HW277218   2.415   8.667   2.642  2.2813  0.7594  0.7939
24286SOL     OW77219  10.709   3.982   5.518 -0.2803 -0.0550  0.4587
24286SOL    HW177220  10.754   3.991   5.603 -0.9828 -0.0928  0.8440
24286SOL    HW277221  10.617   3.967   5.541 -0.7481  1.3752 -0.3214
24287SOL     OW77222   6.965   9.536   9.811  0.0240  0.0240 -0.1202
24287SOL    HW177223   7.007   9.580   9.737 -0.9995  0.3423 -0.5312
24287SOL    HW277224   6.992   9.444   9.802 -0.1462  0.0432 -0.9439
24288SOL     OW77225   9.512   7.789   9.174 -0.0362  0.4904 -0.0983
24288SOL    HW177226   9.491   7.710   9.125 -0.8929  1.0107 -0.5975
24288SOL    HW277227   9.597   7.771   9.214 -0.2016 -0.6563 -0.2410
24289SOL     OW77228   2.783   2.786   5.185  0.1650 -0.0942  0.3753
24289SOL    HW177229   2.819   2.784   5.274  1.5181  0.0322 -0.1458
24289SOL    HW277230   2.847   2.836   5.135  0.7107 -2.2402 -1.2068
24290SOL     OW77231   7.323   1.602   2.414  0.3830 -0.1946 -0.1763
24290SOL    HW177232   7.371   1.645   2.485  1.4392 -1.0181 -0.3658
24290SOL    HW277233   7.283   1.674   2.365  0.1732  0.4208  0.8645
24291SOL     OW77234   2.325   7.879   9.342 -0.1664 -0.2928  0.7260
24291SOL    HW177235   2.333   7.784   9.337 -2.4198 -0.4636 -1.2483
24291SOL    HW277236   2.306   7.896   9.435  2.3794 -1.4746  1.5572
24292SOL     OW77237   0.839   8.674  10.527  0.0630 -0.1899  0.2706
24292SOL    HW177238   0.846   8.637  10.615  0.1265 -0.9832 -0.0575
24292SOL    HW277239   0.855   8.768  10.538  1.8907 -0.5335  0.8534
24293SOL     OW77240   9.388   7.808   0.514  0.4890 -0.3020 -0.2019
24293SOL    HW177241   9.415   7.737   0.573 -3.1781  0.2193  2.4670
24293SOL    HW277242   9.439   7.884   0.542 -0.2371 -0.3973  1.4683
24294SOL     OW77243   1.512   9.335   9.875  0.4185  0.2634 -0.3183
24294SOL    HW177244   1.498   9.326   9.969  0.0248  1.7512 -0.2126
24294SOL    HW277245   1.438   9.288   9.835 -1.6321  2.7777  0.2003
24295SOL     OW77246   6.222  10.170   1.700  0.2431  0.2885  0.0833
24295SOL    HW177247   6.253  10.214   1.779 -1.8905  1.4514  0.3266
24295SOL    HW277248   6.243  10.230   1.629  0.7273 -0.0324 -0.0461
24296SOL     OW77249   0.158   5.603   1.070 -0.1270 -0.3429  0.2183
24296SOL    HW177250   0.121   5.557   1.145 -2.6255 -0.2632 -0.8561
24296SOL    HW277251   0.184   5.533   1.010 -1.7216 -0.4372 -0.4131
24297SOL     OW77252   6.155   7.938  10.086 -0.0949  0.5018 -0.5298
24297SOL    HW177253   6.060   7.930  10.101 -0.1835  2.0285 -0.1075
24297SOL    HW277254   6.194   7.918  10.171  0.2644 -3.6472 -1.4738
24298SOL     OW77255   4.525  10.318   6.794  0.2212  0.4250  0.1423
24298SOL    HW177256   4.470  10.253   6.750  0.2798  1.0114 -0.8027
24298SOL    HW277257   4.519  10.396   6.740 -0.6092  1.5436  1.7754
24299SOL     OW77258   0.509   2.362   7.673 -0.5203 -0.4548 -0.1477
24299SOL    HW177259   0.562   2.432   7.636  0.2972 -0.1760  1.4703
24299SOL    HW277260   0.564   2.323   7.741 -1.4435 -1.8392 -0.1578
24300SOL     OW77261   1.665   5.660   7.438 -0.7713  0.0288  0.0010
24300SOL    HW177262   1.658   5.638   7.531  1.4754  0.1506  0.2569
24300SOL    HW277263   1.754   5.633   7.413 -1.4748 -0.4622 -2.2543
24301SOL     OW77264   9.779  10.827   9.715  0.3992  0.5712  0.2607
24301SOL    HW177265   9.845  10.831   9.784 -0.6011 -3.5887  1.7712
24301SOL    HW277266   9.829  10.836   9.634  2.1240  2.0113  1.4089
24302SOL     OW77267   6.162   9.694   2.570  0.3909 -0.1190 -0.6489
24302SOL    HW177268   6.185   9.780   2.536  1.9199 -0.7954 -1.4414
24302SOL    HW277269   6.246   9.648   2.578 -0.0863 -0.6842  2.2371
24303SOL     OW77270   0.297   0.872  10.781  0.0417 -0.1444  0.1258
24303SOL    HW177271   0.267   0.930  10.851  1.0782  0.1750  0.3074
24303SOL    HW277272   0.345   0.928  10.721 -0.4926 -0.4931 -0.6511
24304SOL     OW77273   4.361   6.279   5.551 -0.1387  0.2315  0.2818
24304SOL    HW177274   4.447   6.303   5.516  0.3398 -0.5891  0.8633
24304SOL    HW277275   4.317   6.236   5.478 -1.2085  3.1880 -0.9462
24305SOL     OW77276   2.539   5.323   8.248  0.4661  0.1225  0.1919
24305SOL    HW177277   2.621   5.319   8.199  0.5685 -0.8428  0.4313
24305SOL    HW277278   2.519   5.416   8.253  1.4261  0.3536 -0.0692
24306SOL     OW77279   7.371   6.460   2.479 -0.7168 -0.4322 -0.1648
24306SOL    HW177280   7.334   6.389   2.427 -1.3978 -0.5751  0.5088
24306SOL    HW277281   7.436   6.418   2.534 -1.4949 -0.6408  0.6208
24307SOL     OW77282   3.397  10.106  10.172  0.5244 -0.2386  0.1275
24307SOL    HW177283   3.482  10.065  10.155  0.5174 -0.4161  0.4902
24307SOL    HW277284   3.391  10.108  10.268  0.3413  0.2377  0.1061
24308SOL     OW77285   2.257   7.580   1.959 -0.0760  0.1971 -0.3098
24308SOL    HW177286   2.266   7.485   1.966  0.8746  0.3530  1.4169
24308SOL    HW277287   2.263   7.599   1.866  2.1293 -1.2685 -0.5345
24309SOL     OW77288   6.071  10.902   0.985  0.1407 -0.3083 -0.0372
24309SOL    HW177289   6.149  10.953   1.005  1.2644 -1.2699 -1.7183
24309SOL    HW277290   5.998  10.962   1.000  1.2047  0.7608  1.1044
24310SOL     OW77291   7.781   5.904  10.534 -0.3018 -0.0065  0.1674
24310SOL    HW177292   7.809   5.917  10.443  1.2680  0.7995  0.7185
24310SOL    HW277293   7.744   5.989  10.560 -0.4590 -0.1386  0.3808
24311SOL     OW77294   3.189   2.651   6.733 -0.1615 -0.1197  0.5712
24311SOL    HW177295   3.230   2.658   6.819 -0.3691  0.2422  0.6441
24311SOL    HW277296   3.262   2.652   6.672 -0.0556  0.5012  0.7020
24312SOL     OW77297   9.753   6.380  10.043 -0.9573  0.0677  0.0673
24312SOL    HW177298   9.739   6.402  10.135 -0.6194 -0.7432  0.3312
24312SOL    HW277299   9.697   6.304  10.028 -0.9901  0.1801 -0.3859
24313SOL     OW77300   2.572   1.566   4.116 -0.1773  0.1962  0.7726
24313SOL    HW177301   2.558   1.499   4.049  2.3601  1.4398 -1.1820
24313SOL    HW277302   2.565   1.519   4.199  0.7354 -2.3552 -0.4753
24314SOL     OW77303   2.191   3.373   9.249  0.1944  0.4555 -0.1703
24314SOL    HW177304   2.246   3.295   9.263 -0.2752 -0.3471 -2.3320
24314SOL    HW277305   2.242   3.427   9.188 -1.1277 -0.0914 -1.8517
24315SOL     OW77306   5.296   6.194   4.419  0.3070 -0.4431 -0.1835
24315SOL    HW177307   5.338   6.111   4.441  0.0475 -1.6623 -3.5986
24315SOL    HW277308   5.336   6.258   4.478  0.4876 -2.9241  2.6125
24316SOL     OW77309   1.644   3.400   0.844  0.6559 -0.0462 -0.4881
24316SOL    HW177310   1.636   3.343   0.920 -0.3233  0.0476 -0.4988
24316SOL    HW277311   1.600   3.481   0.871 -0.8106 -0.4423 -1.5443
24317SOL     OW77312   2.058   2.405   8.631 -0.0662  0.4864  0.0335
24317SOL    HW177313   1.995   2.357   8.577  0.6233  0.8684 -1.1324
24317SOL    HW277314   2.119   2.338   8.662 -0.8681  0.1563  0.9455
24318SOL     OW77315   2.797   8.883   9.167  0.0290 -0.1244  0.2880
24318SOL    HW177316   2.751   8.804   9.140  0.0825  0.0203 -0.2554
24318SOL    HW277317   2.885   8.854   9.190  0.2287 -0.1528 -0.4714
24319SOL     OW77318   0.606   5.678   2.305 -0.5272 -0.3730 -0.0766
24319SOL    HW177319   0.598   5.763   2.348 -0.1363 -1.8278  3.1641
24319SOL    HW277320   0.687   5.685   2.254 -0.3594  1.1035  0.3315
24320SOL     OW77321   1.374   7.150   7.379 -0.8483 -0.7075 -0.1417
24320SOL    HW177322   1.448   7.207   7.400 -0.8368 -0.7209 -0.1460
24320SOL    HW277323   1.338   7.186   7.298 -1.4536 -0.0898  0.3790
24321SOL     OW77324   3.166   4.683   2.657 -0.0603 -0.3572 -0.1968
24321SOL    HW177325   3.112   4.664   2.734 -1.2432  0.8211 -0.7112
24321SOL    HW277326   3.225   4.752   2.685  0.8785 -1.2927  0.2118
24322SOL     OW77327   2.169   9.863   8.853  0.3288 -0.0641  0.7422
24322SOL    HW177328   2.087   9.826   8.886  0.6475 -1.7735 -0.2069
24322SOL    HW277329   2.237   9.803   8.886  1.0908  0.7747  0.7241
24323SOL     OW77330   1.549  10.477   5.052  0.4377  0.1302 -0.9001
24323SOL    HW177331   1.606  10.429   5.112 -0.5085  2.0191  1.6884
24323SOL    HW277332   1.460  10.450   5.076  0.0516  0.2089 -2.1438
24324SOL     OW77333   0.796   5.874   1.003 -0.3931 -0.5343 -0.5680
24324SOL    HW177334   0.729   5.828   0.951  1.3415 -2.5950 -1.1188
24324SOL    HW277335   0.766   5.865   1.093 -1.8726  0.3844 -0.9282
24325SOL     OW77336  10.388   9.282   8.869  0.6246 -0.5650  0.1079
24325SOL    HW177337  10.412   9.336   8.794  1.4977 -0.4306  0.4661
24325SOL    HW277338  10.434   9.322   8.943 -2.4611  1.0604  1.3235
24326SOL     OW77339   2.404   8.219   3.790  0.4772 -0.1494  0.0163
24326SOL    HW177340   2.376   8.300   3.832 -1.6257 -1.7937  2.0473
24326SOL    HW277341   2.435   8.247   3.704 -3.6068  2.5032 -0.8950
24327SOL     OW77342   6.163   0.429   3.094 -0.0149 -0.2125  0.3618
24327SOL    HW177343   6.196   0.485   3.164  0.6329 -0.0080 -0.1027
24327SOL    HW277344   6.074   0.407   3.122 -0.4092  1.2985  0.4240
24328SOL     OW77345   2.550   2.426   7.201  0.1278  0.0913  0.3581
24328SOL    HW177346   2.501   2.400   7.279 -0.5084 -0.3679 -0.1721
24328SOL    HW277347   2.560   2.521   7.208  1.3185 -0.1032  1.6830
24329SOL     OW77348   7.542   1.878   1.451  0.3024  0.3546  0.3330
24329SOL    HW177349   7.614   1.824   1.420  0.2836  1.2409 -1.3427
24329SOL    HW277350   7.493   1.902   1.372 -0.8267  1.2082  1.2395
24330SOL     OW77351   3.797   6.451   5.024  0.3586 -0.3403  0.1862
24330SOL    HW177352   3.716   6.499   5.041 -0.5146 -2.4102  2.4584
24330SOL    HW277353   3.867   6.510   5.054 -0.3846  0.9260 -0.5078
24331SOL     OW77354   0.713   4.429   2.796 -0.8902 -0.0357 -0.4290
24331SOL    HW177355   0.732   4.501   2.856 -1.2217 -0.1584 -0.1702
24331SOL    HW277356   0.741   4.461   2.711  1.5417 -0.6421  0.0695
24332SOL     OW77357   3.308   0.573   3.864 -0.2203  0.7097 -0.1838
24332SOL    HW177358   3.291   0.571   3.958  0.1583 -2.9097 -0.0371
24332SOL    HW277359   3.395   0.612   3.855 -1.2399  3.3844  0.6303
24333SOL     OW77360   6.573   9.809   5.444 -0.3116 -0.5933 -0.1998
24333SOL    HW177361   6.526   9.748   5.388 -0.6234 -0.0259 -0.5597
24333SOL    HW277362   6.583   9.888   5.392 -1.0945  0.1432  0.7272
24334SOL     OW77363   5.870   9.493   9.756  0.3512  0.1233  0.0604
24334SOL    HW177364   5.794   9.526   9.804  0.0917  0.2730 -0.4456
24334SOL    HW277365   5.888   9.561   9.691  0.7136 -0.0678 -0.0424
24335SOL     OW77366   6.066   8.575   7.679  0.1540  0.2861  0.4717
24335SOL    HW177367   6.116   8.650   7.713  2.5610 -1.2510  0.5850
24335SOL    HW277368   6.053   8.519   7.755  1.2398 -0.8824 -0.1671
24336SOL     OW77369   5.108   1.097   4.728 -0.2974 -0.1507  0.6205
24336SOL    HW177370   5.179   1.161   4.741  0.2620 -0.4835 -0.6671
24336SOL    HW277371   5.029   1.143   4.755  0.2219  0.7519  0.6489
24337SOL     OW77372   7.795   9.282   8.459  0.1377 -0.8596 -0.3223
24337SOL    HW177373   7.801   9.244   8.547 -1.0285  0.6419  0.4656
24337SOL    HW277374   7.732   9.353   8.468  0.1056 -0.5632 -2.3645
24338SOL     OW77375   4.757   2.221   4.309 -0.0061 -0.1205  0.2793
24338SOL    HW177376   4.740   2.144   4.364  1.0074 -0.1463  0.5665
24338SOL    HW277377   4.748   2.189   4.220 -0.5758 -0.3365  0.4113
24339SOL     OW77378  10.487   0.482   2.313  0.0015  0.0408  0.0584
24339SOL    HW177379  10.412   0.533   2.343  0.3723  0.8876 -0.4253
24339SOL    HW277380  10.555   0.498   2.378 -0.9442 -2.7138  1.9098
24340SOL     OW77381   2.298   1.278   3.666  0.4460  0.2570  0.3855
24340SOL    HW177382   2.311   1.311   3.577  1.2550  3.1988  1.4722
24340SOL    HW277383   2.293   1.183   3.656 -0.6135  0.5253 -2.8992
24341SOL     OW77384   5.292   3.425   1.752 -0.1938 -0.4385  0.1303
24341SOL    HW177385   5.208   3.386   1.775 -0.3791  0.6706  1.4794
24341SOL    HW277386   5.345   3.352   1.720 -1.7643 -1.1112 -1.1204
24342SOL     OW77387  10.955  10.813   7.944 -0.3560 -0.1758 -0.5537
24342SOL    HW177388  10.914  10.790   8.027 -0.6483  1.9883 -0.0585
24342SOL    HW277389  11.047  10.826   7.966 -0.7586  2.3673 -0.0821
24343SOL     OW77390   6.392   5.499   1.174 -0.1710  0.2767 -0.1002
24343SOL    HW177391   6.348   5.564   1.118  0.3950  0.5981 -0.1849
24343SOL    HW277392   6.485   5.511   1.154  0.0197  0.2479  0.7576
24344SOL     OW77393  10.378   4.159   5.411 -0.0597 -0.0307  0.4730
24344SOL    HW177394  10.404   4.144   5.320 -0.7275 -1.5865  0.5141
24344SOL    HW277395  10.441   4.223   5.444  0.4558  0.2176 -0.9558
24345SOL     OW77396   7.832   0.259  10.663  0.0381  0.2340  0.5796
24345SOL    HW177397   7.863   0.306  10.585 -1.0153 -0.1561 -0.0830
24345SOL    HW277398   7.776   0.190  10.629 -0.5698  0.1642  1.7003
24346SOL     OW77399   4.043   2.214   8.248 -0.1946  0.0254 -0.3450
24346SOL    HW177400   4.119   2.211   8.306  0.4927 -1.8265 -1.2527
24346SOL    HW277401   4.059   2.290   8.191  0.1616  0.5991  0.5010
24347SOL     OW77402   0.163   7.062   9.360  0.4822 -0.3224 -0.4937
24347SOL    HW177403   0.248   7.016   9.357  1.5261  1.3334  1.2860
24347SOL    HW277404   0.163   7.105   9.446 -1.4025  1.1836 -1.1941
24348SOL     OW77405   9.456   3.563   9.275 -0.0270  0.2990  0.4718
24348SOL    HW177406   9.442   3.527   9.363 -2.4055  1.3542  0.6225
24348SOL    HW277407   9.378   3.617   9.259 -0.0393 -0.4457 -2.5873
24349SOL     OW77408   7.788   3.293  10.086  0.0565 -0.2636 -0.4472
24349SOL    HW177409   7.748   3.379  10.073  0.3494  0.8589  4.2922
24349SOL    HW277410   7.728   3.232  10.043 -1.6953  2.0613 -1.5126
24350SOL     OW77411  10.181  10.004  10.288  0.0143 -0.4806  0.6294
24350SOL    HW177412  10.197  10.089  10.327  0.4098  0.5213 -1.5682
24350SOL    HW277413  10.153   9.949  10.361 -1.0841  1.7258  1.9887
24351SOL     OW77414   0.980   9.624  10.622  0.2822  0.3194  0.2590
24351SOL    HW177415   0.997   9.713  10.590  0.0855  0.4698  0.5728
24351SOL    HW277416   0.922   9.636  10.697 -0.4338 -0.1325 -0.2160
24352SOL     OW77417   1.554  10.528   8.508  0.2675  0.1870 -0.8897
24352SOL    HW177418   1.636  10.523   8.557 -0.6685 -0.5665  0.6874
24352SOL    HW277419   1.496  10.466   8.552 -0.5995 -0.6529 -3.0779
24353SOL     OW77420   5.721   4.105   2.286  0.1502  0.1676  0.0011
24353SOL    HW177421   5.646   4.054   2.255  0.6323 -0.6498  0.1602
24353SOL    HW277422   5.718   4.097   2.381  0.2983  0.3425  0.0210
24354SOL     OW77423  10.217   3.855  11.107  0.1582 -0.4571  0.4575
24354SOL    HW177424  10.277   3.796  11.151 -1.7622 -1.7395  1.4669
24354SOL    HW277425  10.221   3.830  11.015  1.3297 -0.3291  0.4585
24355SOL     OW77426   7.210  10.674   9.232 -0.1850 -0.2729  0.7784
24355SOL    HW177427   7.259  10.745   9.274 -0.4518  0.7255 -0.5594
24355SOL    HW277428   7.119  10.694   9.251 -0.4490  1.1168 -1.5365
24356SOL     OW77429   6.454   0.276   2.480  0.1045  0.3389 -0.7028
24356SOL    HW177430   6.411   0.196   2.509 -0.0943  0.3655 -0.9222
24356SOL    HW277431   6.420   0.291   2.391 -0.5741  1.1688 -0.3198
24357SOL     OW77432  10.653   8.956   4.069  0.2205  0.4498  0.1141
24357SOL    HW177433  10.610   8.908   3.999 -0.6447  0.6105  0.5224
24357SOL    HW277434  10.703   9.024   4.024 -0.5938  0.7630 -0.3282
24358SOL     OW77435   0.307   1.823   0.372  0.7278 -0.1603  0.0503
24358SOL    HW177436   0.276   1.911   0.391 -0.0443 -0.2754 -0.6387
24358SOL    HW277437   0.293   1.774   0.454 -0.6421 -0.1341 -0.1575
24359SOL     OW77438   5.875   9.713   5.187 -0.0241 -0.2602 -0.3930
24359SOL    HW177439   5.824   9.740   5.263 -0.8391 -0.2181 -0.9380
24359SOL    HW277440   5.911   9.627   5.212  0.8161  0.3390  0.5251
24360SOL     OW77441   8.442   1.522   6.485  0.1301  0.3559 -0.0071
24360SOL    HW177442   8.480   1.455   6.428 -0.5809  0.9157 -1.1810
24360SOL    HW277443   8.389   1.474   6.547  0.7395 -0.2568  0.0501
24361SOL     OW77444   5.632   0.472   7.210  0.1283 -0.7693 -0.4365
24361SOL    HW177445   5.610   0.565   7.201  1.8096 -0.3062 -0.2583
24361SOL    HW277446   5.555   0.432   7.249 -0.4592  0.6565 -0.0750
24362SOL     OW77447   5.470   4.488  10.370  0.4086 -0.1687 -0.0265
24362SOL    HW177448   5.468   4.572  10.323 -0.3804  0.5471  1.2214
24362SOL    HW277449   5.452   4.422  10.304  2.0432  0.5265 -1.2402
24363SOL     OW77450   6.918   7.774   0.178  0.2175  0.1992 -0.0580
24363SOL    HW177451   6.935   7.685   0.211 -1.0924  0.2197  0.7196
24363SOL    HW277452   6.908   7.827   0.257  0.2838  0.9086 -0.5204
24364SOL     OW77453   5.952   6.664   5.349 -0.2062  0.4917  0.0738
24364SOL    HW177454   6.006   6.590   5.378 -0.3131  1.2404  2.3711
24364SOL    HW277455   5.881   6.624   5.300 -0.4625 -1.0144  1.5592
24365SOL     OW77456   7.400   1.752   8.214 -0.1168  0.2971  0.2615
24365SOL    HW177457   7.435   1.812   8.148  0.6214 -1.3157 -0.8677
24365SOL    HW277458   7.351   1.687   8.164 -0.1052 -0.5977  1.3613
24366SOL     OW77459   8.950   2.982   5.356  0.6586  0.2768 -0.4240
24366SOL    HW177460   8.866   2.947   5.384  1.8116 -2.3409  0.0433
24366SOL    HW277461   8.972   3.047   5.423 -0.4423  0.1421  0.0899
24367SOL     OW77462   3.768  10.614   6.610  0.3790  0.2945 -0.0968
24367SOL    HW177463   3.794  10.705   6.598  0.3360  0.4644  1.0184
24367SOL    HW277464   3.709  10.596   6.537 -0.4191  1.4832  0.2287
24368SOL     OW77465   6.215   4.475   4.260 -0.1495  0.0696  0.1019
24368SOL    HW177466   6.153   4.490   4.331 -0.6924 -3.0464  0.3920
24368SOL    HW277467   6.235   4.382   4.264  1.2546  0.1482 -2.6911
24369SOL     OW77468   2.673   7.334   9.596  0.6636 -0.3851  0.0759
24369SOL    HW177469   2.635   7.382   9.522  1.9678  1.4451  0.5503
24369SOL    HW277470   2.691   7.247   9.560  1.8905  0.6485 -1.9874
24370SOL     OW77471   1.682   6.767   9.854 -0.2619  0.2623  0.0446
24370SOL    HW177472   1.688   6.850   9.901 -1.8469 -0.2668  1.2998
24370SOL    HW277473   1.685   6.790   9.762  0.1147  1.6273  0.3820
24371SOL     OW77474   4.131   2.744   6.143  0.0614  0.3080  0.5737
24371SOL    HW177475   4.128   2.810   6.073 -1.3752  1.0009  1.2535
24371SOL    HW277476   4.053   2.691   6.129  1.2605 -1.3928 -0.0382
24372SOL     OW77477   9.416   1.858   6.209  0.1363 -0.0867  0.6140
24372SOL    HW177478   9.474   1.929   6.182 -0.8029 -0.0106 -1.3560
24372SOL    HW277479   9.473   1.781   6.213  0.8955  0.5059  1.4585
24373SOL     OW77480   0.839   3.256   8.103 -0.2657 -0.1386  0.0490
24373SOL    HW177481   0.786   3.178   8.121  0.7875 -0.7292  0.6634
24373SOL    HW277482   0.912   3.224   8.051  0.3995  0.3625  0.6587
24374SOL     OW77483   0.656   4.630   1.681  0.3392 -1.0429  0.0350
24374SOL    HW177484   0.645   4.685   1.759 -0.0580  0.4715 -1.0379
24374SOL    HW277485   0.608   4.550   1.701 -0.5618 -0.2917  0.9797
24375SOL     OW77486   8.865   5.423   8.164  0.0283  0.0312 -0.0446
24375SOL    HW177487   8.919   5.501   8.167  2.4101 -1.5580  0.8165
24375SOL    HW277488   8.927   5.350   8.165 -2.1154 -1.9120  0.2032
24376SOL     OW77489   3.347   2.127   5.339  0.3611 -0.0727 -0.5559
24376SOL    HW177490   3.380   2.050   5.292 -1.1379 -1.6180  0.8015
24376SOL    HW277491   3.425   2.172   5.370  1.4108  0.7007 -3.9108
24377SOL     OW77492   3.433   3.966   5.388 -0.0220  0.6266  0.3123
24377SOL    HW177493   3.497   4.015   5.440 -0.1235  0.7118  0.3567
24377SOL    HW277494   3.348   4.002   5.414  0.0155  1.8022 -1.0729
24378SOL     OW77495   8.690   9.251   5.260 -0.2370 -0.1550 -0.0852
24378SOL    HW177496   8.758   9.259   5.326 -0.7490 -0.6664  0.5077
24378SOL    HW277497   8.625   9.317   5.284 -0.1429  0.0760 -0.4387
24379SOL     OW77498   5.446  10.415   7.389 -0.2276 -0.6159  0.3925
24379SOL    HW177499   5.375  10.459   7.342 -0.5641 -1.4573  0.0818
24379SOL    HW277500   5.402  10.373   7.463 -0.1672 -1.6468 -0.1397
24380SOL     OW77501   4.187   6.539   5.696  0.2668 -0.8909 -0.2408
24380SOL    HW177502   4.100   6.570   5.668  0.3569  0.5244  0.8925
24380SOL    HW277503   4.240   6.542   5.617  0.3583  2.3657 -0.1980
24381SOL     OW77504   2.320   3.101   9.022  0.4795  0.9238  0.3150
24381SOL    HW177505   2.331   3.135   9.110  1.1501  0.1742  0.5313
24381SOL    HW277506   2.285   3.013   9.034  1.7533  0.3360 -0.1021
24382SOL     OW77507   3.492   7.654   8.536 -0.1200  0.8237  0.2143
24382SOL    HW177508   3.430   7.585   8.557  1.8838 -0.8394  0.9664
24382SOL    HW277509   3.540   7.622   8.460 -0.5950  2.4166 -0.8305
24383SOL     OW77510   7.657   4.424  10.970  0.2601 -0.2791 -0.3197
24383SOL    HW177511   7.727   4.490  10.971 -0.6301  0.7944 -2.1688
24383SOL    HW277512   7.694   4.349  11.016  0.6194  2.1179  3.7937
24384SOL     OW77513   9.079   3.894   4.863  0.2095  0.2951  0.3027
24384SOL    HW177514   9.035   3.972   4.830  0.1940  1.2029  2.2799
24384SOL    HW277515   9.019   3.822   4.843  0.0025  0.8390 -1.1345
24385SOL     OW77516   0.586   0.031   0.080 -0.0681 -0.2185  0.0154
24385SOL    HW177517   0.603   0.123   0.099  0.8601 -0.5706  1.0149
24385SOL    HW277518   0.600   0.023  -0.014 -0.7984  0.7789 -0.1921
24386SOL     OW77519   5.374   0.114   8.029 -0.0027  0.1902 -0.6711
24386SOL    HW177520   5.429   0.164   7.969  0.7360  0.4905  0.2301
24386SOL    HW277521   5.329   0.051   7.973  0.6220  0.4937 -1.5426
24387SOL     OW77522   8.936  10.534   1.073  0.0014 -0.3868 -0.7852
24387SOL    HW177523   8.984  10.455   1.050 -0.2534 -1.5986  2.2616
24387SOL    HW277524   8.968  10.557   1.161 -1.2545  1.8242 -0.8202
24388SOL     OW77525   6.692   3.041   7.428  0.3265 -0.1936 -0.0313
24388SOL    HW177526   6.782   3.016   7.449  0.2364  0.5030  1.2866
24388SOL    HW277527   6.683   3.130   7.462 -0.4392  0.3083 -1.4521
24389SOL     OW77528  10.681   1.948   2.103  0.0909  0.7160 -0.0614
24389SOL    HW177529  10.645   1.860   2.092  0.7409  0.2579  1.2629
24389SOL    HW277530  10.604   2.005   2.113 -0.3879  0.5512 -2.3005
24390SOL     OW77531   1.970   1.659   7.463 -0.3949 -0.2310 -0.1359
24390SOL    HW177532   1.953   1.572   7.499 -0.7395  0.7638  2.3084
24390SOL    HW277533   1.896   1.677   7.405 -1.5139 -0.6825  1.1122
24391SOL     OW77534   7.649   2.146  11.065 -0.4592  0.2045  0.3757
24391SOL    HW177535   7.561   2.135  11.099  0.1925  0.0687  2.1293
24391SOL    HW277536   7.699   2.182  11.139  1.1113 -0.3715 -0.3586
24392SOL     OW77537   2.794   3.523   1.249 -0.3188 -0.2019  0.1942
24392SOL    HW177538   2.786   3.428   1.240  0.3802 -0.1659 -0.9143
24392SOL    HW277539   2.873   3.536   1.301  0.6240 -0.2043 -1.1884
24393SOL     OW77540   8.355   2.670   1.654 -0.5253  0.2136 -0.5740
24393SOL    HW177541   8.387   2.588   1.617 -0.6349 -0.7753  1.3791
24393SOL    HW277542   8.268   2.682   1.616 -1.5494 -1.9091  0.9130
24394SOL     OW77543   0.265   3.359   0.201 -0.0477  0.1447 -0.1328
24394SOL    HW177544   0.229   3.271   0.213  1.4658 -0.4913  0.0494
24394SOL    HW277545   0.288   3.363   0.108  1.7553 -0.4518  0.2463
24395SOL     OW77546  10.646   3.324   1.804 -0.0608 -0.0805 -0.0258
24395SOL    HW177547  10.712   3.353   1.741 -0.4603  0.2350 -0.3085
24395SOL    HW277548  10.695   3.304   1.883  0.5914 -1.5867 -0.7809
24396SOL     OW77549   2.112   5.800   7.492 -0.9427  0.4165  0.1833
24396SOL    HW177550   2.198   5.812   7.533 -1.1427  0.8973  0.4783
24396SOL    HW277551   2.055   5.862   7.539 -1.7046 -0.7150  0.7840
24397SOL     OW77552   1.014   4.520   8.259 -0.1834  0.4716  0.4020
24397SOL    HW177553   1.072   4.451   8.228 -1.2332  0.5512 -1.9628
24397SOL    HW277554   1.028   4.592   8.197 -2.0909  0.8320  0.3481
24398SOL     OW77555   4.667  10.779  10.070 -0.1249 -0.6284  0.4420
24398SOL    HW177556   4.664  10.822   9.984  0.4767  0.3649  0.9037
24398SOL    HW277557   4.664  10.851  10.133  1.1626 -1.2363  1.2389
24399SOL     OW77558   1.469   8.138   7.469 -0.5546 -0.1891 -0.1150
24399SOL    HW177559   1.444   8.108   7.381 -0.5908 -1.5960  0.3430
24399SOL    HW277560   1.394   8.118   7.524 -0.5629  0.7657  0.2336
24400SOL     OW77561  10.627   5.222   1.229  0.3757 -0.1530  0.1620
24400SOL    HW177562  10.575   5.273   1.291 -0.1765  0.7767 -1.0357
24400SOL    HW277563  10.714   5.261   1.233  0.4626 -0.3890  0.6716
24401SOL     OW77564   4.334   3.097   9.025  0.0540  0.3908  0.0227
24401SOL    HW177565   4.402   3.109   8.960 -0.2019  0.6807 -0.1929
24401SOL    HW277566   4.374   3.125   9.107 -0.3775  2.3624 -0.3853
24402SOL     OW77567   3.689   4.466   4.458 -0.2143  0.1079 -0.5127
24402SOL    HW177568   3.778   4.434   4.444 -0.2761  0.3728 -1.6078
24402SOL    HW277569   3.671   4.447   4.550  1.2257  0.7163 -0.0836
24403SOL     OW77570   5.600   8.722   4.929 -0.0548 -0.0682  0.3981
24403SOL    HW177571   5.677   8.756   4.884 -0.7892  0.8854 -0.2010
24403SOL    HW277572   5.558   8.800   4.966 -1.1586 -0.4524 -0.0013
24404SOL     OW77573   0.407   6.755   2.207 -0.0966 -0.8194  0.0359
24404SOL    HW177574   0.354   6.796   2.139  0.1596  3.8758  2.2991
24404SOL    HW277575   0.344   6.723   2.271 -0.3995  1.7478  1.1239
24405SOL     OW77576   7.873   8.508   8.524  0.7763 -0.5568 -0.0186
24405SOL    HW177577   7.944   8.473   8.577  0.5399 -1.2371 -0.1476
24405SOL    HW277578   7.916   8.570   8.464  1.1975 -0.6427  0.1938
24406SOL     OW77579   7.686   4.469   0.170 -0.1785  0.2410  0.0177
24406SOL    HW177580   7.747   4.487   0.242  1.4978  0.1657 -1.3242
24406SOL    HW277581   7.711   4.381   0.139  0.1403  0.8600 -1.5835
24407SOL     OW77582   9.565   5.208   8.532  0.4697 -0.3871  0.3073
24407SOL    HW177583   9.485   5.259   8.537  1.1019  0.5923  0.7857
24407SOL    HW277584   9.571   5.180   8.441 -1.1009 -1.6361  0.5474
24408SOL     OW77585   6.103   5.105   3.968 -0.2753 -0.2664 -0.0565
24408SOL    HW177586   6.062   5.164   4.031 -0.2051  1.1550 -1.3004
24408SOL    HW277587   6.032   5.079   3.910 -0.1326 -0.7311 -0.0281
24409SOL     OW77588   7.408   9.940   5.285  0.1896 -0.0572  0.2022
24409SOL    HW177589   7.357   9.917   5.207 -1.2282  3.3039 -0.0428
24409SOL    HW277590   7.348   9.993   5.338  2.2366  0.7659  1.8535
24410SOL     OW77591  10.892   3.821   3.122 -0.6413 -0.4833  0.0846
24410SOL    HW177592  10.849   3.811   3.207 -0.3249  0.2437  0.3356
24410SOL    HW277593  10.820   3.839   3.061 -0.6913  1.1407  0.5745
24411SOL     OW77594   1.847   2.959   7.122 -0.8333 -0.3012  0.1013
24411SOL    HW177595   1.872   2.899   7.192  2.2110  1.2717  0.5089
24411SOL    HW277596   1.853   2.906   7.042  1.2293 -0.7753  0.5139
24412SOL     OW77597   8.956   8.681   2.064  0.2858 -0.0878 -0.1702
24412SOL    HW177598   8.986   8.653   1.977 -0.9391  1.2830 -1.0965
24412SOL    HW277599   8.967   8.777   2.063 -1.5751  0.1732  0.4002
24413SOL     OW77600   7.378   4.267   1.443  0.3114  0.4601  0.0286
24413SOL    HW177601   7.419   4.195   1.492  0.5159 -0.2906 -1.2061
24413SOL    HW277602   7.441   4.289   1.375  0.2439  1.8268  0.3852
24414SOL     OW77603   5.238   8.461   9.225  0.0431 -0.1264  0.3529
24414SOL    HW177604   5.232   8.409   9.145  0.6767 -0.6406  0.6269
24414SOL    HW277605   5.190   8.541   9.206  0.5108 -0.0796 -0.6692
24415SOL     OW77606   7.464   8.200  10.741 -0.1580 -0.1434 -0.5406
24415SOL    HW177607   7.544   8.163  10.779 -0.9089 -0.5003  0.7732
24415SOL    HW277608   7.393   8.161  10.793 -1.1896  0.1982 -1.6424
24416SOL     OW77609   6.681   9.656   1.533  0.2317  0.4933  0.4674
24416SOL    HW177610   6.594   9.682   1.503 -1.3530 -1.4423  2.9354
24416SOL    HW277611   6.704   9.580   1.481  1.2277  1.8757 -1.2235
24417SOL     OW77612   0.003   0.487   9.543 -0.4453 -0.2222 -0.2886
24417SOL    HW177613  -0.084   0.503   9.579  0.0312 -1.0854  1.3759
24417SOL    HW277614   0.057   0.469   9.620  0.9907 -0.6869 -1.3658
24418SOL     OW77615   6.605   8.209   8.394 -0.1167  0.2121 -0.2672
24418SOL    HW177616   6.609   8.119   8.428  0.2047  0.4981  0.4869
24418SOL    HW277617   6.603   8.199   8.299  0.5772 -0.5756 -0.2080
24419SOL     OW77618  10.613   5.335   9.582  0.2063 -1.2931 -0.5337
24419SOL    HW177619  10.679   5.274   9.548  0.3993 -0.9487 -0.7920
24419SOL    HW277620  10.574   5.290   9.656  0.6821 -1.5367 -0.4280
24420SOL     OW77621   1.480   6.611   7.558  0.5697 -0.3042  0.1604
24420SOL    HW177622   1.517   6.563   7.632 -1.4327 -1.7055  0.3372
24420SOL    HW277623   1.492   6.552   7.483 -1.1435 -0.7711  0.2113
24421SOL     OW77624   4.208   4.893   4.840  0.2078  0.3475 -0.4050
24421SOL    HW177625   4.293   4.883   4.883 -0.0138  1.6524  0.3763
24421SOL    HW277626   4.227   4.944   4.761  0.6038 -1.9928 -1.9061
24422SOL     OW77627   2.963   8.600   3.097 -0.4472  0.1173 -0.8769
24422SOL    HW177628   2.919   8.648   3.167 -1.3496 -1.7464 -0.1015
24422SOL    HW277629   3.017   8.535   3.142  1.6877  1.0838 -1.8669
24423SOL     OW77630   9.046   3.781   4.497 -0.0447  0.0442  0.0265
24423SOL    HW177631   9.122   3.794   4.553 -0.2562 -0.7669  0.5130
24423SOL    HW277632   8.972   3.806   4.552 -0.0257  3.1785 -1.1988
24424SOL     OW77633   9.527   5.582  10.004  0.3825 -0.1058  0.5970
24424SOL    HW177634   9.469   5.510  10.026 -0.4747  0.3079 -0.2015
24424SOL    HW277635   9.567   5.556   9.920 -1.1317  0.9863 -0.5136
24425SOL     OW77636   7.090   8.334   0.191  0.0950 -0.0169 -0.6636
24425SOL    HW177637   7.113   8.263   0.251  0.0311  0.1545 -0.4336
24425SOL    HW277638   7.128   8.308   0.107  0.7369  0.0438 -0.3980
24426SOL     OW77639   4.128   4.444   5.769  0.2607 -0.4200  0.3511
24426SOL    HW177640   4.182   4.413   5.696 -1.8471  0.0547 -1.5124
24426SOL    HW277641   4.176   4.520   5.804  1.1886 -0.4917 -0.7196
24427SOL     OW77642   0.009   8.658   6.856 -0.3589 -0.1346  0.4253
24427SOL    HW177643  -0.037   8.582   6.892 -0.4660  0.9766  2.8467
24427SOL    HW277644  -0.043   8.683   6.779 -1.2024 -1.5700  0.4939
24428SOL     OW77645   7.868   1.038   0.975  0.0944 -0.1701  0.0056
24428SOL    HW177646   7.799   1.104   0.986 -0.8506 -0.8559 -1.5321
24428SOL    HW277647   7.894   1.016   1.065 -1.1105  0.6932  0.5986
24429SOL     OW77648   2.144   6.385   9.297  0.2511  0.4517 -0.1148
24429SOL    HW177649   2.058   6.423   9.316  0.2396  0.7394 -0.7176
24429SOL    HW277650   2.142   6.298   9.338  0.4552  1.2575  1.7152
24430SOL     OW77651   6.082   7.101  10.123  0.0283 -0.4266 -0.4246
24430SOL    HW177652   6.026   7.149  10.185  0.3389  0.6232 -0.9404
24430SOL    HW277653   6.049   7.125  10.037 -0.2130 -1.6560 -0.6935
24431SOL     OW77654   3.434   2.367   9.674  0.4134 -0.5767  0.0903
24431SOL    HW177655   3.421   2.460   9.692  0.4161 -0.2638 -1.4143
24431SOL    HW277656   3.509   2.342   9.729  1.7772  0.8356 -1.0585
24432SOL     OW77657   0.534   2.751   4.981  0.7682  0.2648 -0.5612
24432SOL    HW177658   0.467   2.819   4.987  1.1929  0.7099 -0.6863
24432SOL    HW277659   0.561   2.752   4.889 -1.2733 -2.1310 -1.2816
24433SOL     OW77660  10.699   5.064   7.306  0.2265  0.3528  0.3425
24433SOL    HW177661  10.720   4.996   7.369  2.7513  0.2328 -0.5160
24433SOL    HW277662  10.670   5.138   7.359 -0.4844 -0.6412  1.4082
24434SOL     OW77663   5.103   3.772   5.728  0.0294  0.4569  0.3177
24434SOL    HW177664   5.189   3.735   5.706  0.2091  0.1328  1.5154
24434SOL    HW277665   5.067   3.800   5.644  0.7614 -0.5805 -0.3557
24435SOL     OW77666   3.462   8.581   8.145  0.1399  0.5772  0.7799
24435SOL    HW177667   3.436   8.540   8.228  0.2775  0.3576  0.7152
24435SOL    HW277668   3.385   8.631   8.118 -0.7147 -1.1277 -0.0938
24436SOL     OW77669   7.203   1.533   4.388  0.2917 -0.3619 -0.1658
24436SOL    HW177670   7.180   1.512   4.297 -1.4359  2.2290 -0.4333
24436SOL    HW277671   7.147   1.476   4.440  1.3527 -1.9300 -0.6513
24437SOL     OW77672   4.230   6.926   6.608 -0.8850 -0.7170 -0.4911
24437SOL    HW177673   4.216   6.931   6.703  2.0494  0.7650 -0.0150
24437SOL    HW277674   4.286   6.850   6.596 -0.5054 -0.3766 -0.9095
24438SOL     OW77675   7.017   0.559   5.517  0.1056  0.4442 -0.1324
24438SOL    HW177676   7.100   0.600   5.542 -0.7926  0.8940  2.4426
24438SOL    HW277677   7.035   0.465   5.522 -0.1036  0.4846  2.9186
24439SOL     OW77678   6.364   4.614   5.883 -0.1961  0.4684  0.3580
24439SOL    HW177679   6.278   4.575   5.903  0.0594  0.1585  0.8853
24439SOL    HW277680   6.364   4.697   5.931  0.1749  0.0085  1.1954
24440SOL     OW77681   3.878   6.187   7.738  0.1336  0.8039  0.1162
24440SOL    HW177682   3.804   6.243   7.762 -0.9079  0.4473 -2.0227
24440SOL    HW277683   3.884   6.123   7.809 -1.6260  0.8331  0.3342
24441SOL     OW77684   9.118   1.406   1.163  0.1827 -0.0036  0.3086
24441SOL    HW177685   9.191   1.433   1.109  0.3373  3.1290  1.8954
24441SOL    HW277686   9.157   1.355   1.234  0.5934  0.2298  0.2474
24442SOL     OW77687   5.804   1.943   2.927 -0.0562 -0.0003 -0.4573
24442SOL    HW177688   5.746   2.011   2.893 -1.6450 -2.9770 -4.4199
24442SOL    HW277689   5.749   1.887   2.981 -0.3344 -1.3411 -2.0533
24443SOL     OW77690   3.911   8.023   5.185 -0.4121  0.2394  0.2572
24443SOL    HW177691   3.926   8.014   5.091 -0.3901  0.8774  0.1931
24443SOL    HW277692   3.987   8.073   5.216 -0.6418  0.4188  0.5336
24444SOL     OW77693  10.900  10.758   3.545  0.2443 -0.5221 -0.2263
24444SOL    HW177694  10.895  10.849   3.573  0.3656 -0.5253 -0.1923
24444SOL    HW277695  10.960  10.717   3.607 -1.3416 -1.1006  0.9914
24445SOL     OW77696   4.130   8.731   7.829 -0.2460 -0.2599 -0.5304
24445SOL    HW177697   4.100   8.762   7.744  0.2939  3.2666  0.3832
24445SOL    HW277698   4.051   8.701   7.874 -0.8506 -0.1946 -1.5383
24446SOL     OW77699   0.007  10.076   0.402  0.2198 -0.2250  0.5713
24446SOL    HW177700   0.045   9.999   0.444 -1.6358 -1.9149 -0.6889
24446SOL    HW277701   0.013  10.057   0.308 -0.2126  1.2043  0.2375
24447SOL     OW77702   7.052   5.068   2.370  0.0674  0.0932  0.1697
24447SOL    HW177703   7.130   5.124   2.373 -0.9755  1.5838  2.5868
24447SOL    HW277704   7.084   4.981   2.393  1.1028  0.6194  0.8130
24448SOL     OW77705   8.931   8.364   8.374  0.6058  0.6278 -0.2728
24448SOL    HW177706   8.946   8.309   8.451 -0.4272  2.0732  1.0423
24448SOL    HW277707   8.895   8.305   8.308  0.7578 -0.4937  0.6270
24449SOL     OW77708   7.161   8.628   7.668 -0.2547  0.4027  0.0988
24449SOL    HW177709   7.196   8.544   7.697  2.9185  0.7059 -2.3581
24449SOL    HW277710   7.090   8.605   7.608  0.1880 -0.4881 -0.0935
24450SOL     OW77711   7.071  11.094   7.671  0.1348 -0.0636  0.5324
24450SOL    HW177712   7.155  11.098   7.625 -1.1091  0.7260 -1.8241
24450SOL    HW277713   7.062  11.002   7.696  1.1590 -0.3947 -0.2317
24451SOL     OW77714   8.796   8.293   2.175 -0.3219  0.1435 -0.4391
24451SOL    HW177715   8.831   8.214   2.216 -0.7409 -0.4202 -1.1472
24451SOL    HW277716   8.840   8.299   2.091  1.1616  1.7626  0.3914
24452SOL     OW77717   7.588   8.074   7.518  0.5758  0.3458 -0.1149
24452SOL    HW177718   7.640   7.995   7.510  1.1019  0.6204  0.5099
24452SOL    HW277719   7.642   8.142   7.478  0.3774  0.4915 -0.1356
24453SOL     OW77720   3.790   4.945   4.210 -0.6867  0.0333  0.1519
24453SOL    HW177721   3.795   4.996   4.291  2.9782  0.3276 -0.0645
24453SOL    HW277722   3.782   4.855   4.238 -0.7832  0.2439  0.8059
24454SOL     OW77723   9.161   5.637  10.592  0.7869  0.3790 -0.5133
24454SOL    HW177724   9.120   5.643  10.506 -0.8896  1.1434  0.2858
24454SOL    HW277725   9.143   5.548  10.622 -0.2304  0.6664 -0.2272
24455SOL     OW77726  10.647   1.032   4.022 -0.3840  0.4320 -0.2071
24455SOL    HW177727  10.680   0.982   4.097 -1.0433  0.6911  0.2734
24455SOL    HW277728  10.725   1.057   3.973 -0.0513 -1.8841 -1.0097
24456SOL     OW77729   9.803   4.678   2.606  0.6852  0.1420 -0.2407
24456SOL    HW177730   9.874   4.741   2.591  1.1205 -0.2784  0.0052
24456SOL    HW277731   9.848   4.600   2.639 -0.0920  0.5815  2.0068
24457SOL     OW77732   1.248   7.692   9.828 -0.1714  0.0378  0.2025
24457SOL    HW177733   1.195   7.674   9.906  1.0697 -0.8537  0.8574
24457SOL    HW277734   1.203   7.646   9.757 -0.6280 -0.1710  0.6217
24458SOL     OW77735   9.996   5.726  10.596  0.6409 -0.2812 -0.0312
24458SOL    HW177736  10.038   5.640  10.599  0.0629 -0.5667  0.0821
24458SOL    HW277737   9.915   5.714  10.646  0.7579  0.4417  0.3471
24459SOL     OW77738   5.336   6.689  10.721 -0.5830  0.3154 -0.3922
24459SOL    HW177739   5.389   6.663  10.797  0.3813 -0.4391 -1.2847
24459SOL    HW277740   5.246   6.668  10.746 -0.3078  0.3466  0.6528
24460SOL     OW77741   6.587   7.137   4.846  0.0391  0.0763 -0.6901
24460SOL    HW177742   6.557   7.193   4.917 -2.5549 -0.4251 -1.2793
24460SOL    HW277743   6.592   7.049   4.885  0.5638  0.1174 -0.6564
24461SOL     OW77744   3.894   9.859  10.382  0.1442  0.6342  0.6831
24461SOL    HW177745   3.911   9.831  10.292 -0.3529  0.5615  0.6128
24461SOL    HW277746   3.800   9.847  10.394  0.4307 -0.9510  1.7349
24462SOL     OW77747   9.239   2.425   4.247  0.2103 -0.5447  0.0877
24462SOL    HW177748   9.280   2.352   4.201 -0.2880 -0.9411  0.2542
24462SOL    HW277749   9.211   2.389   4.331 -1.0702 -0.4826 -0.2855
24463SOL     OW77750   4.513   3.108   8.791 -0.4866  0.2782  0.1281
24463SOL    HW177751   4.541   3.124   8.701 -0.3750  0.7365  0.2446
24463SOL    HW277752   4.525   3.014   8.803  0.9072  0.4353  0.1405
24464SOL     OW77753   6.201  10.832   7.101 -0.1112 -0.1221  0.1037
24464SOL    HW177754   6.208  10.908   7.158  1.2776  0.2493 -0.5281
24464SOL    HW277755   6.146  10.861   7.029  2.3400  1.1392 -1.3849
24465SOL     OW77756   4.934   3.067   7.577 -0.0717  0.2841  0.5821
24465SOL    HW177757   4.923   3.144   7.634  1.8581  2.2111 -1.4336
24465SOL    HW277758   5.028   3.052   7.574 -0.2856 -1.0810 -0.4224
24466SOL     OW77759   1.394  10.857   5.321  0.0626  0.2728 -0.1943
24466SOL    HW177760   1.332  10.851   5.394 -0.7785 -0.2809 -0.9347
24466SOL    HW277761   1.480  10.866   5.364 -0.3065 -0.9191  0.8871
24467SOL     OW77762   9.911   3.521  10.600  0.3543 -0.0993  0.1955
24467SOL    HW177763   9.882   3.431  10.620 -0.5776  0.2037  0.2869
24467SOL    HW277764   9.857   3.547  10.526  1.2726  0.0708 -0.4237
24468SOL     OW77765   7.605   1.882   6.442  0.5803 -0.2145 -0.1881
24468SOL    HW177766   7.621   1.928   6.361 -1.1283  1.4174  0.3363
24468SOL    HW277767   7.555   1.804   6.417  1.9821 -0.9279 -0.8854
24469SOL     OW77768  10.467   6.646  11.053  0.2254  0.0085  0.1278
24469SOL    HW177769  10.446   6.554  11.064  0.2511  0.1625  1.5495
24469SOL    HW277770  10.559   6.647  11.026 -0.5935 -0.5045 -3.1726
24470SOL     OW77771   4.946   7.747   3.682 -0.6143 -0.0914 -0.2648
24470SOL    HW177772   4.955   7.827   3.735 -1.5699  0.4300 -0.8609
24470SOL    HW277773   4.877   7.767   3.619 -0.4318 -1.1767 -0.8441
24471SOL     OW77774   6.327  10.906  11.092 -0.5118  0.1212  0.1739
24471SOL    HW177775   6.366  10.922  11.005 -0.8902  2.5898  0.3662
24471SOL    HW277776   6.240  10.945  11.086 -1.4807 -1.8493  0.9633
24472SOL     OW77777  10.643   1.492   5.607 -0.8648 -0.6630  0.3276
24472SOL    HW177778  10.731   1.493   5.569 -0.9264  0.3170  0.1792
24472SOL    HW277779  10.621   1.399   5.616  0.4107 -0.9234  0.8929
24473SOL     OW77780   2.695   7.278  10.947 -0.3072 -0.3351  0.4509
24473SOL    HW177781   2.759   7.341  10.981  0.5393 -0.9694  0.0833
24473SOL    HW277782   2.679   7.306  10.857  0.2718 -0.7902  0.2026
24474SOL     OW77783   9.999   9.559   3.303  0.3435  0.2567  0.5273
24474SOL    HW177784   9.979   9.544   3.211  0.1807  0.9777  0.4392
24474SOL    HW277785  10.022   9.652   3.308 -2.4346  1.0141  1.6439
24475SOL     OW77786   9.636  10.111   4.468 -0.6256 -0.1212  0.4408
24475SOL    HW177787   9.584  10.040   4.430 -0.4560 -0.0925  0.1554
24475SOL    HW277788   9.655  10.169   4.395 -0.5236  0.0750  0.6200
24476SOL     OW77789   8.851   2.389   9.718  0.0979 -0.2787  0.7500
24476SOL    HW177790   8.848   2.479   9.687 -2.4153 -0.8415 -0.9780
24476SOL    HW277791   8.932   2.353   9.682  0.5214  0.9517  0.4461
24477SOL     OW77792   0.900   8.694   5.229  0.2987 -0.4153 -0.2654
24477SOL    HW177793   0.820   8.647   5.206  1.0510 -1.0331 -1.7292
24477SOL    HW277794   0.892   8.709   5.323 -1.0067 -1.4849 -0.1722
24478SOL     OW77795   1.708   1.789   8.444  0.2273 -0.0867 -0.2015
24478SOL    HW177796   1.701   1.732   8.521  1.6214 -2.1576 -1.4967
24478SOL    HW277797   1.627   1.774   8.396 -0.1154  0.2793  0.2583
24479SOL     OW77798  10.031  10.207   7.279 -0.2141  0.7934  0.6269
24479SOL    HW177799   9.946  10.198   7.321 -0.3202  0.5695  0.3636
24479SOL    HW277800  10.039  10.301   7.260 -1.3573  0.5481 -1.3278
24480SOL     OW77801   2.635  10.156   5.111 -0.2460 -0.3777 -0.0445
24480SOL    HW177802   2.703  10.092   5.133 -0.5247 -0.6635  0.0031
24480SOL    HW277803   2.605  10.131   5.024 -1.0937 -0.9747  0.3980
24481SOL     OW77804   5.344   9.702   7.708  0.1543  0.4413  0.1592
24481SOL    HW177805   5.327   9.610   7.729 -2.0732  0.8380  0.3736
24481SOL    HW277806   5.278   9.725   7.642  2.9449  0.9781 -2.6857
24482SOL     OW77807   4.904   4.520   1.986  0.1238 -0.8955  0.1678
24482SOL    HW177808   4.873   4.442   1.939 -1.6675 -0.2250  0.1739
24482SOL    HW277809   4.901   4.590   1.920  0.7271 -0.6194  0.4336
24483SOL     OW77810   5.732   6.763   3.740 -0.2630 -0.1432 -0.6974
24483SOL    HW177811   5.704   6.753   3.831  2.2678  1.6638  0.3659
24483SOL    HW277812   5.789   6.687   3.724 -1.9505 -1.3378 -1.3880
24484SOL     OW77813   8.667   2.701   1.412  0.1326 -0.0939 -0.7132
24484SOL    HW177814   8.625   2.784   1.390  0.7440  0.6273  0.7373
24484SOL    HW277815   8.596   2.636   1.405 -0.5366  0.6619 -1.0789
24485SOL     OW77816   5.085   1.450   3.295 -0.3228 -0.8023  0.7811
24485SOL    HW177817   5.138   1.375   3.270  0.3203 -0.3968  0.8891
24485SOL    HW277818   4.999   1.414   3.314  0.0804 -1.5672  1.2014
24486SOL     OW77819   9.942   7.559   4.645  0.1140 -0.3927 -0.9609
24486SOL    HW177820   9.951   7.466   4.622  1.6043 -1.2195  2.3883
24486SOL    HW277821  10.026   7.598   4.620  0.3975 -0.5203 -0.2422
24487SOL     OW77822   3.021   7.662  10.913  0.0405 -0.4472  0.3451
24487SOL    HW177823   3.009   7.753  10.884 -2.3754 -0.6270  0.6238
24487SOL    HW277824   3.084   7.626  10.850  0.1982  1.1068 -0.4516
24488SOL     OW77825  10.894   8.091   5.985 -0.0317  0.4834  0.5529
24488SOL    HW177826  10.934   8.052   5.907  0.0969  0.9131  0.4022
24488SOL    HW277827  10.905   8.185   5.973 -0.2253  0.5619  0.9778
24489SOL     OW77828   5.369   4.570   1.337 -0.5927  0.2165 -0.0541
24489SOL    HW177829   5.398   4.486   1.373  0.1484  0.3161 -0.3928
24489SOL    HW277830   5.392   4.566   1.244 -0.6907  0.7271 -0.1070
24490SOL     OW77831   1.369   3.788  10.891 -0.1153  0.4175 -0.7540
24490SOL    HW177832   1.335   3.728  10.825  0.0516 -2.6012  1.6616
24490SOL    HW277833   1.437   3.838  10.846 -0.2448 -1.2457 -2.9312
24491SOL     OW77834   8.965   9.552   0.532  0.5451  0.1020  0.2857
24491SOL    HW177835   9.042   9.507   0.497  1.0286  0.7734  0.4523
24491SOL    HW277836   8.927   9.596   0.456 -0.6219 -1.5264 -0.1131
24492SOL     OW77837  10.568  10.517   5.018 -0.7252  0.2832 -0.0352
24492SOL    HW177838  10.512  10.527   5.096  0.1713 -0.8303  0.7712
24492SOL    HW277839  10.548  10.430   4.984 -0.7292  0.5584 -0.7642
24493SOL     OW77840   0.700   4.806   6.302  0.4224  0.0346 -0.0568
24493SOL    HW177841   0.707   4.754   6.382  1.1393  0.0751 -0.0869
24493SOL    HW277842   0.611   4.791   6.271  1.1975 -2.8999 -1.2396
24494SOL     OW77843   9.752   0.415   9.621  0.4087  0.0023 -0.1730
24494SOL    HW177844   9.701   0.372   9.552  0.5051  1.4573 -1.2086
24494SOL    HW277845   9.820   0.351   9.643  0.0715 -0.6969 -1.0669
24495SOL     OW77846   6.601  10.474   5.848  0.2990  0.1061 -0.2405
24495SOL    HW177847   6.510  10.501   5.838  0.0390 -0.0617  1.3559
24495SOL    HW277848   6.637  10.534   5.913  1.0805 -0.3561 -0.2367
24496SOL     OW77849   8.592   9.889   3.048 -0.2606 -0.6478 -0.0506
24496SOL    HW177850   8.550   9.862   3.130  1.4135  0.5062  1.2647
24496SOL    HW277851   8.612   9.982   3.061  0.4206 -0.5353 -1.6286
24497SOL     OW77852   8.745   5.106   6.297  0.4211 -0.2225 -0.3983
24497SOL    HW177853   8.696   5.051   6.358  0.6320 -1.7862 -1.5789
24497SOL    HW277854   8.756   5.052   6.219  1.1706  1.2973 -1.3991
24498SOL     OW77855   4.880  10.673   7.683 -0.0002  0.3345  0.5024
24498SOL    HW177856   4.870  10.767   7.668 -1.1633  0.1067 -0.2867
24498SOL    HW277857   4.854  10.633   7.600  0.4120 -0.6842  0.8560
24499SOL     OW77858   2.736  10.671   5.911 -0.4311 -0.1058  0.1352
24499SOL    HW177859   2.660  10.719   5.880 -0.4813 -0.5855 -0.5207
24499SOL    HW277860   2.809  10.731   5.899 -0.3155 -0.5762 -1.7822
24500SOL     OW77861   3.293   0.358   6.507 -0.1112 -0.4853  0.4111
24500SOL    HW177862   3.247   0.338   6.588 -2.0808  0.4682 -0.3764
24500SOL    HW277863   3.223   0.364   6.441  1.3423 -0.5562 -1.2120
24501SOL     OW77864   4.566   5.132   1.419  0.0982  0.2159 -0.0297
24501SOL    HW177865   4.578   5.040   1.397 -0.5074 -0.0118  0.5804
24501SOL    HW277866   4.563   5.134   1.514 -1.1114  0.7109 -0.0609
24502SOL     OW77867   4.172   4.438   6.441 -0.3269  0.3557  0.2389
24502SOL    HW177868   4.182   4.509   6.505  0.8123 -0.3875  0.9271
24502SOL    HW277869   4.251   4.385   6.453 -0.6274 -0.4017 -1.0461
24503SOL     OW77870   9.953   6.782   5.800  0.2232 -0.0322  0.0882
24503SOL    HW177871   9.908   6.852   5.753  1.2487  1.3902  1.1485
24503SOL    HW277872   9.888   6.711   5.806 -1.3273  1.3441  0.1871
24504SOL     OW77873   2.716   0.302   5.480 -0.0472  0.0273  0.2795
24504SOL    HW177874   2.707   0.385   5.434  4.0603 -0.0443 -1.1078
24504SOL    HW277875   2.753   0.243   5.415  3.5397 -0.8528  2.8060
24505SOL     OW77876   2.407   3.282   3.262 -0.3801 -0.3391  0.6144
24505SOL    HW177877   2.441   3.272   3.174 -0.6727 -0.6826  0.5401
24505SOL    HW277878   2.453   3.216   3.314 -2.2006 -2.0503  0.1533
24506SOL     OW77879   6.346   8.665   1.527 -0.7768 -0.0838 -0.3204
24506SOL    HW177880   6.251   8.663   1.534 -0.8191 -0.7692 -0.9423
24506SOL    HW277881   6.378   8.631   1.610 -1.0679  0.3019 -0.0478
24507SOL     OW77882   6.061   4.886   7.595 -0.0262 -0.1134  0.4098
24507SOL    HW177883   6.038   4.794   7.609  0.5058 -0.5388 -1.3074
24507SOL    HW277884   6.155   4.890   7.612 -0.1407  0.2542  1.0135
24508SOL     OW77885   5.748   1.551   4.205 -0.1806 -0.2830 -0.3669
24508SOL    HW177886   5.781   1.463   4.187  1.6996  0.4510 -0.6765
24508SOL    HW277887   5.703   1.543   4.289 -0.8221 -1.7028 -0.8035
24509SOL     OW77888   9.033   9.601   3.385  0.0576 -0.4748 -0.5279
24509SOL    HW177889   8.955   9.553   3.355 -0.8271  0.1927  0.6553
24509SOL    HW277890   9.046   9.572   3.475 -0.9432  2.0230  0.4827
24510SOL     OW77891   1.804   8.579  10.176  0.1780 -0.5758  0.4931
24510SOL    HW177892   1.739   8.544  10.115 -0.9541  0.7049  0.8906
24510SOL    HW277893   1.888   8.560  10.136 -0.5212 -0.1318 -1.2798
24511SOL     OW77894   7.027   0.547   3.316  0.1103  0.1456  0.0421
24511SOL    HW177895   6.998   0.465   3.275  1.2448  0.2282 -0.9981
24511SOL    HW277896   6.965   0.613   3.284  0.8786  0.1808 -1.4996
24512SOL     OW77897   1.306   5.189   5.578 -0.1982 -0.2015 -0.5267
24512SOL    HW177898   1.377   5.181   5.642 -0.9662 -0.6155  0.2931
24512SOL    HW277899   1.253   5.111   5.592 -2.1071  1.1814  0.4853
24513SOL     OW77900   2.731   8.374   4.370  0.1836  0.2562 -0.0985
24513SOL    HW177901   2.802   8.348   4.429  0.4085  1.1983  0.0532
24513SOL    HW277902   2.744   8.467   4.355 -0.4969  0.2509 -0.7978
24514SOL     OW77903   1.684   2.399   5.902  0.0892  0.4559  0.4109
24514SOL    HW177904   1.642   2.485   5.909 -0.5470  0.0317  2.4858
24514SOL    HW277905   1.651   2.350   5.976  0.3804 -1.6474 -0.7749
24515SOL     OW77906   6.562   3.505   3.116 -0.0616  0.1694 -0.0968
24515SOL    HW177907   6.484   3.450   3.106 -0.5189  0.8632 -0.4182
24515SOL    HW277908   6.530   3.594   3.103  0.8873  0.4221 -0.7521
24516SOL     OW77909   4.259   7.068   7.139  0.6272  0.0859 -0.4999
24516SOL    HW177910   4.304   7.131   7.195 -1.1083  1.9792 -1.0966
24516SOL    HW277911   4.170   7.063   7.176  0.2864 -0.7901 -1.4111
24517SOL     OW77912   6.586   3.987   1.522 -0.4527 -0.2657 -0.3091
24517SOL    HW177913   6.655   4.053   1.534  1.3449 -1.8119 -1.4852
24517SOL    HW277914   6.604   3.921   1.589 -2.3974  0.4865  1.0363
24518SOL     OW77915   3.262   0.275   6.060  0.3046 -0.0316 -0.6388
24518SOL    HW177916   3.294   0.234   6.141 -0.5507  1.4939  0.5210
24518SOL    HW277917   3.176   0.235   6.045  0.7741 -0.8521 -1.2402
24519SOL     OW77918   6.657   6.247   2.253 -0.1781  0.4309 -0.0210
24519SOL    HW177919   6.638   6.196   2.174 -1.1196  2.2631 -1.0419
24519SOL    HW277920   6.602   6.208   2.321  0.9827 -1.4623 -0.0992
24520SOL     OW77921   4.582  11.081   3.658 -0.5321 -0.2993 -0.0722
24520SOL    HW177922   4.515  11.099   3.593  0.8542  0.6359 -1.3050
24520SOL    HW277923   4.657  11.135   3.632  0.3685 -0.5416  1.8176
24521SOL     OW77924   6.686   6.654   8.712  0.0022 -0.2121  0.0651
24521SOL    HW177925   6.612   6.704   8.747 -1.0957 -2.6063  1.3718
24521SOL    HW277926   6.734   6.625   8.789  1.2572 -0.2705 -0.7122
24522SOL     OW77927   3.822   2.040   4.251  0.3628 -0.2050  0.0523
24522SOL    HW177928   3.821   2.131   4.280 -0.2974 -0.3437  0.4877
24522SOL    HW277929   3.913   2.023   4.227  0.4422  0.6482 -0.2846
24523SOL     OW77930   2.808   5.942   9.291 -0.1598  0.3042  0.0201
24523SOL    HW177931   2.806   5.847   9.276  3.8859  0.0858 -0.2010
24523SOL    HW277932   2.771   5.952   9.379 -1.5908 -1.3240 -0.3380
24524SOL     OW77933  10.793   6.681   6.268  0.6377  0.5614 -0.1883
24524SOL    HW177934  10.753   6.752   6.320  0.9667  1.6583 -1.3730
24524SOL    HW277935  10.804   6.719   6.181  1.3263 -0.7950 -0.7187
24525SOL     OW77936   8.798   2.358   7.455  0.0208  0.0741 -0.3071
24525SOL    HW177937   8.725   2.415   7.430  0.0100  1.4561  2.4519
24525SOL    HW277938   8.876   2.410   7.438  0.2363 -0.4475 -0.9473
24526SOL     OW77939   1.975   4.697  10.064 -0.1561 -0.3310  0.3649
24526SOL    HW177940   1.969   4.759   9.992  0.4917 -1.8926 -1.1208
24526SOL    HW277941   1.885   4.677  10.087 -0.3709  1.2860  1.0213
24527SOL     OW77942  11.084   2.277   5.921  0.0413  0.0318  0.0004
24527SOL    HW177943  11.175   2.255   5.903  0.3669  0.6030  0.8821
24527SOL    HW277944  11.082   2.372   5.918 -0.7327  0.0025 -0.9106
24528SOL     OW77945   0.876   2.878   3.289  0.0241  0.1362 -0.8468
24528SOL    HW177946   0.870   2.833   3.373 -1.3024  0.6260 -0.6672
24528SOL    HW277947   0.856   2.810   3.224  1.8208 -0.4435 -0.8717
24529SOL     OW77948   0.540   7.519   5.441 -0.7108  0.3477  0.3674
24529SOL    HW177949   0.605   7.547   5.506  0.8031  1.8031 -1.6238
24529SOL    HW277950   0.457   7.516   5.489  0.5930 -0.3802  2.7278
24530SOL     OW77951   5.444   8.091  10.279  0.0079  0.1492  0.0247
24530SOL    HW177952   5.348   8.096  10.278  0.0333  1.5004  0.7974
24530SOL    HW277953   5.463   8.002  10.307 -1.0075 -0.3493 -0.7901
24531SOL     OW77954   7.178   2.991   5.031  0.3408 -0.6391 -0.4948
24531SOL    HW177955   7.122   3.040   5.090 -0.0802  1.4750 -2.4916
24531SOL    HW277956   7.265   2.993   5.072  0.5235  2.5237 -0.7588
24532SOL     OW77957   3.282   4.506   6.738  0.2505 -0.7427 -0.1612
24532SOL    HW177958   3.351   4.568   6.764 -0.3667 -0.4655  0.8656
24532SOL    HW277959   3.206   4.561   6.718  0.2907 -1.0517 -1.2312
24533SOL     OW77960   8.207   8.402   2.726 -0.0118 -0.2325  0.2352
24533SOL    HW177961   8.142   8.333   2.709 -0.3953 -0.1785  1.4008
24533SOL    HW277962   8.167   8.481   2.688  0.0241 -0.4771 -0.3170
24534SOL     OW77963   1.454   8.841   0.333  0.1213  0.5226  0.0774
24534SOL    HW177964   1.433   8.925   0.374 -0.9198  0.4737 -0.3298
24534SOL    HW277965   1.370   8.794   0.328  0.8501 -0.9962  1.2832
24535SOL     OW77966   5.933   1.388   3.063 -0.1602  0.4384  0.3853
24535SOL    HW177967   6.002   1.414   3.125 -0.5747  0.8112  0.6911
24535SOL    HW277968   5.854   1.430   3.096 -0.7625 -0.8594  0.6647
24536SOL     OW77969   9.314   3.871   8.305  0.0852  0.7425 -0.5404
24536SOL    HW177970   9.271   3.830   8.380 -0.4325  0.3328 -1.0567
24536SOL    HW277971   9.246   3.923   8.263  0.5914  1.6728 -0.2290
24537SOL     OW77972   7.282   0.378   3.074 -0.0184 -0.2288  0.3890
24537SOL    HW177973   7.274   0.337   2.988  1.3220 -0.0315  0.1430
24537SOL    HW277974   7.274   0.472   3.057 -0.6996 -0.2352  0.6255
24538SOL     OW77975   3.414   9.156   3.697 -0.0418  0.1439  0.3156
24538SOL    HW177976   3.493   9.202   3.670  1.8986 -2.7454  0.6720
24538SOL    HW277977   3.397   9.187   3.786  2.1297 -0.8420  1.1493
24539SOL     OW77978   2.239   7.804   5.624  0.3677  0.2215 -0.7135
24539SOL    HW177979   2.277   7.892   5.621 -0.1922  0.4390 -1.9123
24539SOL    HW277980   2.267   7.763   5.543  1.6961 -1.2058  0.3963
24540SOL     OW77981   7.298   9.754   3.586  0.0177 -0.6468 -0.5659
24540SOL    HW177982   7.202   9.754   3.583 -0.0168  0.3232 -0.0340
24540SOL    HW277983   7.319   9.803   3.665  0.9487 -3.3648  0.9756
24541SOL     OW77984   9.711   9.972   9.999  0.2465  0.4693  0.4066
24541SOL    HW177985   9.802   9.960   9.971  0.3086  1.3678  0.1989
24541SOL    HW277986   9.716  10.038  10.068 -0.1855  0.0942  0.7959
24542SOL     OW77987   7.018   5.201  10.755  0.4653 -0.0813 -0.0797
24542SOL    HW177988   7.057   5.287  10.737  1.1681 -0.5618 -0.9515
24542SOL    HW277989   6.984   5.172  10.670 -0.5659 -0.2918  0.3885
24543SOL     OW77990   0.575   8.508   9.300  0.0410  0.2102  0.4931
24543SOL    HW177991   0.536   8.594   9.287  2.7488  1.5829  0.7123
24543SOL    HW277992   0.635   8.497   9.226  0.6283 -0.9514  1.1095
24544SOL     OW77993   0.843   7.710   7.295 -0.2443  0.5695 -0.3900
24544SOL    HW177994   0.885   7.642   7.348 -1.3070  0.1843 -0.0125
24544SOL    HW277995   0.870   7.691   7.205  0.8912  0.7167 -0.0985
24545SOL     OW77996  10.032   3.099  10.994  0.0710 -0.2594  0.3775
24545SOL    HW177997  10.060   3.010  11.011 -2.4671 -1.4536 -1.1536
24545SOL    HW277998  10.060   3.116  10.904  1.7343  1.0617  1.0859
24546SOL     OW77999   6.525   8.172   0.040  0.2168  0.2010 -0.0042
24546SOL    HW178000   6.438   8.150   0.073 -0.0776  1.5747  0.1893
24546SOL    HW278001   6.580   8.099   0.068 -0.7547 -0.4179  0.3573
24547SOL     OW78002   4.326   4.763   0.947 -0.0802  0.2034  0.5279
24547SOL    HW178003   4.364   4.676   0.955 -0.9699 -0.3737 -1.0106
24547SOL    HW278004   4.272   4.773   1.025  0.1475 -0.5671  0.7922
24548SOL     OW78005  10.199   9.824   0.611  0.8589  0.2834  0.6505
24548SOL    HW178006  10.220   9.731   0.614  0.9402  0.2895  0.3080
24548SOL    HW278007  10.281   9.867   0.589  0.6257  0.3570 -0.1016
24549SOL     OW78008   3.802   0.690   4.862  0.7165  0.4618  0.2409
24549SOL    HW178009   3.760   0.691   4.948 -0.9313 -2.2595 -0.4331
24549SOL    HW278010   3.893   0.715   4.880  0.3216  0.3667  2.7036
24550SOL     OW78011   5.567   5.737   3.254  0.1792  0.0932 -0.8119
24550SOL    HW178012   5.493   5.691   3.295  1.6855 -0.8773  0.9509
24550SOL    HW278013   5.636   5.671   3.250  1.4196  1.3824 -1.0551
24551SOL     OW78014   8.297  10.213   1.689  0.5063 -0.0591  0.2836
24551SOL    HW178015   8.264  10.123   1.684 -0.0025  0.1209  0.3076
24551SOL    HW278016   8.379  10.211   1.639  0.2659 -0.4332 -0.1101
24552SOL     OW78017   6.606   3.895   5.593 -0.1304  0.1962 -0.9505
24552SOL    HW178018   6.525   3.849   5.612  0.0464 -0.4777 -1.7597
24552SOL    HW278019   6.579   3.967   5.535 -0.2702  0.5168 -0.4901
24553SOL     OW78020   6.106   0.512   6.787  0.0181 -0.0583  0.2651
24553SOL    HW178021   6.024   0.469   6.812  0.4182 -1.6451 -1.0160
24553SOL    HW278022   6.121   0.485   6.697  1.2687  1.3298  0.0198
24554SOL     OW78023   3.146   2.301   7.336 -0.2886  0.3819  0.2563
24554SOL    HW178024   3.216   2.271   7.395 -0.3266  0.9950  0.6231
24554SOL    HW278025   3.113   2.221   7.295  0.3878  0.0505  0.3489
24555SOL     OW78026   6.414   9.517   2.499 -0.6303 -0.3589  0.0587
24555SOL    HW178027   6.371   9.447   2.449  1.2354  0.2583 -2.6500
24555SOL    HW278028   6.487   9.474   2.544 -1.0907 -0.5739  0.6127
24556SOL     OW78029   4.822   9.017   6.214  0.1032  0.1580  0.0675
24556SOL    HW178030   4.765   8.940   6.214  1.1198 -0.6243 -0.3414
24556SOL    HW278031   4.805   9.060   6.298  0.5948 -1.3664  0.9968
24557SOL     OW78032   7.419   4.758   7.020  0.3852 -0.2892 -0.3945
24557SOL    HW178033   7.475   4.828   7.054 -0.2521  0.2623 -0.4460
24557SOL    HW278034   7.466   4.677   7.040  0.8579  0.1236  0.2061
24558SOL     OW78035   4.416   7.409   9.720 -0.6560  0.6689  0.3308
24558SOL    HW178036   4.419   7.413   9.625 -1.3733 -0.2993  0.2571
24558SOL    HW278037   4.395   7.499   9.747 -2.1713  0.6061 -0.5136
24559SOL     OW78038   0.072   9.183   8.297  0.1273 -0.4770  0.5383
24559SOL    HW178039   0.051   9.131   8.219 -1.9086  2.0449 -0.7419
24559SOL    HW278040   0.166   9.197   8.292  0.4331 -2.3673 -0.0865
24560SOL     OW78041   8.544   4.584  10.536  0.2274  0.1787  0.6523
24560SOL    HW178042   8.576   4.495  10.524  0.8135  0.5183 -0.3861
24560SOL    HW278043   8.623   4.638  10.540 -0.1425  0.7909  0.0218
24561SOL     OW78044  10.145   8.990   6.091 -0.7583 -0.2116 -0.1282
24561SOL    HW178045  10.090   9.066   6.110  1.4031  1.1581  1.0765
24561SOL    HW278046  10.180   9.008   6.003 -0.5189  0.0122  0.0124
24562SOL     OW78047   7.478   5.794   0.858 -0.3702 -0.2715  0.1398
24562SOL    HW178048   7.455   5.707   0.827  1.3492 -1.2720  1.5280
24562SOL    HW278049   7.412   5.852   0.819 -0.2037 -1.8478 -2.6702
24563SOL     OW78050  10.334   2.573   6.681  0.1235  0.0074 -0.2410
24563SOL    HW178051  10.313   2.569   6.588 -1.5304 -1.4560  0.1336
24563SOL    HW278052  10.302   2.490   6.716  0.6104  0.5731  1.6538
24564SOL     OW78053   2.736   2.378   6.367  0.1016  0.0044 -0.3351
24564SOL    HW178054   2.650   2.407   6.339  0.9181  0.7306 -2.2385
24564SOL    HW278055   2.787   2.458   6.376  1.5872 -0.5519 -2.8773
24565SOL     OW78056   0.871   4.291  11.012 -0.5834 -0.2356  0.2959
24565SOL    HW178057   0.787   4.257  11.046 -1.5058 -0.0700 -1.6588
24565SOL    HW278058   0.852   4.311  10.920  1.6545 -0.2895 -0.2164
24566SOL     OW78059   8.240   7.611   5.783  0.1591 -0.2076 -0.0812
24566SOL    HW178060   8.250   7.669   5.707 -0.5347 -0.1689 -0.1499
24566SOL    HW278061   8.329   7.599   5.816  0.5181 -0.4837 -1.0977
24567SOL     OW78062  10.993   2.787   4.817 -0.1077 -0.4887 -0.0913
24567SOL    HW178063  11.081   2.825   4.818  0.3589 -1.5727  0.8464
24567SOL    HW278064  10.940   2.850   4.866  0.2280 -0.0487 -0.2764
24568SOL     OW78065   2.124   6.095   5.040  0.5117  0.3616 -0.1272
24568SOL    HW178066   2.066   6.058   4.974  1.0298  0.2169 -0.5120
24568SOL    HW278067   2.138   6.186   5.012  0.0853  0.5384  0.2317
24569SOL     OW78068   6.685   3.204   1.096  0.0770 -0.7728 -0.6323
24569SOL    HW178069   6.751   3.274   1.099 -0.7033  0.0298 -1.8218
24569SOL    HW278070   6.604   3.246   1.125  0.0840 -1.8214  1.0698
24570SOL     OW78071   7.392   1.495   3.429 -0.0699  0.1800 -0.0743
24570SOL    HW178072   7.425   1.465   3.345  0.4923 -0.1931  0.2734
24570SOL    HW278073   7.404   1.420   3.488 -0.8607  0.2830  0.2369
24571SOL     OW78074   9.117   5.792   1.944 -0.1071 -0.3132  0.1229
24571SOL    HW178075   9.191   5.733   1.933 -0.8914 -1.2125 -0.3856
24571SOL    HW278076   9.143   5.848   2.018  1.8910  0.6629 -1.2057
24572SOL     OW78077   2.126   4.739   1.505 -0.2758  0.5174  0.2915
24572SOL    HW178078   2.124   4.735   1.601 -0.5236 -0.7336  0.2533
24572SOL    HW278079   2.116   4.648   1.477 -0.1286  0.8582 -0.9275
24573SOL     OW78080   9.400   9.382   2.935 -1.1999  0.7413  0.2697
24573SOL    HW178081   9.326   9.335   2.898 -1.4438  1.2443  0.1074
24573SOL    HW278082   9.459   9.314   2.966 -2.3966  0.3265  1.7520
24574SOL     OW78083   5.512   8.585   8.413  0.2811 -0.3510  0.0815
24574SOL    HW178084   5.433   8.604   8.363 -0.7149 -0.6191  1.5078
24574SOL    HW278085   5.583   8.617   8.358 -0.8585  0.5740 -0.9009
24575SOL     OW78086   3.867   4.746   1.450 -0.5800 -0.0510  0.3338
24575SOL    HW178087   3.943   4.708   1.495 -0.1779  1.0199  0.5933
24575SOL    HW278088   3.792   4.698   1.485 -0.1868  0.1574  1.5159
24576SOL     OW78089   0.431   7.667   0.549 -0.1304 -0.1140  0.1865
24576SOL    HW178090   0.484   7.624   0.616 -0.3909  0.5138  0.8157
24576SOL    HW278091   0.492   7.722   0.502  0.0511 -0.5423 -0.0848
24577SOL     OW78092   8.971   2.437   4.667 -0.2319  0.1607 -0.3685
24577SOL    HW178093   8.891   2.490   4.663 -1.6739 -1.9637 -1.8512
24577SOL    HW278094   8.975   2.406   4.757 -1.0671  0.3253 -0.2622
24578SOL     OW78095   9.370   9.161   8.635 -0.2371  0.0594  0.0976
24578SOL    HW178096   9.446   9.144   8.579 -0.4422 -0.9369  0.1050
24578SOL    HW278097   9.336   9.245   8.605 -0.2580 -0.3839 -1.1810
24579SOL     OW78098   0.217   5.059   3.736  0.6046  0.1887  0.3669
24579SOL    HW178099   0.235   4.978   3.783 -0.6593 -0.2142  0.1880
24579SOL    HW278100   0.228   5.128   3.802  0.3334 -0.2470  0.8703
24580SOL     OW78101  10.870   1.326   4.101  0.2695  0.2279  0.1247
24580SOL    HW178102  10.918   1.268   4.041  0.0692  1.4657 -1.2833
24580SOL    HW278103  10.910   1.309   4.187  1.1382 -0.9841 -0.4778
24581SOL     OW78104   0.442   8.114   1.951  0.5915 -0.2032 -0.1400
24581SOL    HW178105   0.503   8.146   1.885  1.6966  0.5176  1.1881
24581SOL    HW278106   0.493   8.112   2.032 -0.9372 -0.3303  0.8561
24582SOL     OW78107   8.211   1.841   9.049 -0.5939  0.1373  0.7398
24582SOL    HW178108   8.305   1.837   9.065 -0.0525  2.6999 -1.1140
24582SOL    HW278109   8.174   1.870   9.133  0.5718  1.2417  0.9012
24583SOL     OW78110   2.624   9.033   7.153  0.5078  0.3962  0.2124
24583SOL    HW178111   2.665   8.998   7.074 -1.1665 -0.5677 -0.2581
24583SOL    HW278112   2.638   9.128   7.147  2.3864  0.1533 -0.0572
24584SOL     OW78113   5.590   4.368   5.533 -0.1603  0.3976  0.2204
24584SOL    HW178114   5.556   4.291   5.579 -2.4637  1.5484  0.5875
24584SOL    HW278115   5.564   4.354   5.442 -0.2190  0.5607  0.2130
24585SOL     OW78116   2.287   1.549   0.589  0.1749 -0.0558  0.2167
24585SOL    HW178117   2.198   1.580   0.571  0.8010  1.8145  0.1935
24585SOL    HW278118   2.277   1.454   0.598 -1.4278 -0.1856 -2.1208
24586SOL     OW78119   0.970   1.068   9.828  0.6573  0.0757 -0.2075
24586SOL    HW178120   0.936   1.112   9.749  0.9117 -0.6169 -0.7121
24586SOL    HW278121   0.925   0.983   9.829  0.9554 -0.0780  0.1773
24587SOL     OW78122   7.592   4.957   7.078 -0.1228 -0.2740 -0.0181
24587SOL    HW178123   7.683   4.934   7.064  0.1638 -0.1866  1.5434
24587SOL    HW278124   7.588   5.051   7.062 -0.5584 -0.7000 -2.8616
24588SOL     OW78125   2.870  10.501   6.166  0.6161 -0.1420  0.6398
24588SOL    HW178126   2.823  10.423   6.136  1.5484 -1.4429  2.3202
24588SOL    HW278127   2.841  10.571   6.108  0.1878 -1.8502 -1.3246
24589SOL     OW78128   3.280  10.160   9.753  0.0757  0.6740  0.7572
24589SOL    HW178129   3.281  10.253   9.733 -1.4067  0.6142  0.2723
24589SOL    HW278130   3.227  10.152   9.832  0.3095  0.2616  0.8774
24590SOL     OW78131   0.602   2.407   6.359  0.5081  0.2272  0.3202
24590SOL    HW178132   0.536   2.350   6.320  0.6076  1.3639 -1.6298
24590SOL    HW278133   0.685   2.373   6.326  0.9100 -0.8181  2.2712
24591SOL     OW78134  10.423   0.954  10.112  0.0709 -0.3206  0.4787
24591SOL    HW178135  10.429   0.872  10.162  0.8064  0.7922  2.3424
24591SOL    HW278136  10.352   1.003  10.155 -1.0504 -0.3520 -1.2564
24592SOL     OW78137   1.870   3.825   1.090  0.5471  0.0493 -0.0766
24592SOL    HW178138   1.880   3.921   1.094  0.9016  0.0432 -0.8085
24592SOL    HW278139   1.912   3.794   1.170  1.0009  0.4649 -0.1475
24593SOL     OW78140   0.011   4.543  10.084 -0.4395 -0.5407  0.0929
24593SOL    HW178141  -0.022   4.471  10.138  0.4081 -0.3878  0.8410
24593SOL    HW278142  -0.034   4.533  10.000 -1.6661 -0.8901  0.7673
24594SOL     OW78143   1.368   0.464   4.978  0.4131  0.4579 -0.2625
24594SOL    HW178144   1.330   0.547   4.951 -0.1951  0.0982 -0.5538
24594SOL    HW278145   1.383   0.473   5.072 -0.5144  0.5747 -0.1147
24595SOL     OW78146   0.684   5.829   7.434  0.1854 -0.1292 -0.1559
24595SOL    HW178147   0.764   5.852   7.388  0.0857  0.1687 -0.1809
24595SOL    HW278148   0.682   5.733   7.433 -0.7412 -0.1382 -2.3897
24596SOL     OW78149  10.611   0.507   3.092  0.4177  0.2798 -0.1000
24596SOL    HW178150  10.611   0.454   3.171  3.7733 -0.5473 -0.4926
24596SOL    HW278151  10.644   0.592   3.120 -0.8035  0.8097 -0.2205
24597SOL     OW78152   6.061   8.699   6.991 -0.0039 -0.6596  0.1134
24597SOL    HW178153   6.040   8.792   6.996 -0.3581 -0.7145 -0.3404
24597SOL    HW278154   5.992   8.656   7.042 -1.8003 -0.9487 -2.4103
24598SOL     OW78155   0.914   8.697   7.769 -0.0086 -1.1044  0.7048
24598SOL    HW178156   0.896   8.607   7.742  0.4913 -1.2001  0.6756
24598SOL    HW278157   1.005   8.696   7.799  0.0021 -0.6116  0.7109
24599SOL     OW78158   0.373   1.784   1.221  0.3814 -0.6831 -0.2382
24599SOL    HW178159   0.378   1.854   1.286  0.0258  0.3084 -1.2345
24599SOL    HW278160   0.333   1.711   1.268 -0.1472  0.1009  0.5788
24600SOL     OW78161   3.658   7.608  10.391 -0.1635  0.2980  0.2374
24600SOL    HW178162   3.727   7.636  10.451 -2.0205  4.4801  0.8240
24600SOL    HW278163   3.607   7.544  10.440  0.1290  1.3478  2.0017
24601SOL     OW78164   8.579   1.453   9.913 -0.3881  0.5039 -0.2959
24601SOL    HW178165   8.531   1.530   9.881 -1.1717 -0.1574 -0.7415
24601SOL    HW278166   8.572   1.390   9.842 -1.8296 -0.8644  0.9923
24602SOL     OW78167   3.097   9.138   1.325 -0.0574 -0.1891 -0.1267
24602SOL    HW178168   3.054   9.157   1.242  0.5509 -1.5410 -0.7910
24602SOL    HW278169   3.085   9.043   1.337  0.6193 -0.1629  0.8834
24603SOL     OW78170   3.562   2.254   3.937  0.2337  0.0318 -0.1387
24603SOL    HW178171   3.598   2.172   3.905 -0.2755  0.1647 -1.0633
24603SOL    HW278172   3.528   2.232   4.024  1.7065 -0.3026  0.3824
24604SOL     OW78173   5.037   3.578   8.331 -0.4605  0.0546  0.1210
24604SOL    HW178174   5.010   3.497   8.376 -0.4148  0.3715  0.7319
24604SOL    HW278175   5.072   3.548   8.247 -1.1006 -0.5033  0.0417
24605SOL     OW78176   9.794  10.615   3.013  0.8389 -0.6303  0.6597
24605SOL    HW178177   9.745  10.608   2.931  0.3576 -1.0949  0.9803
24605SOL    HW278178   9.806  10.525   3.042  0.5679 -0.4483  1.3559
24606SOL     OW78179   1.211   0.995   7.796  0.7470 -0.6174  0.0881
24606SOL    HW178180   1.178   1.085   7.801  0.5469 -0.5710 -1.4989
24606SOL    HW278181   1.132   0.941   7.790  0.7626 -1.1401  3.0567
24607SOL     OW78182   4.335   4.427   1.712  0.0917 -0.3148  0.7755
24607SOL    HW178183   4.331   4.331   1.711 -0.5194 -0.2976  1.1005
24607SOL    HW278184   4.246   4.454   1.736  0.2262  0.3369  0.5384
24608SOL     OW78185  10.326  10.256   0.997  0.2614 -0.0824  0.7687
24608SOL    HW178186  10.361  10.341   1.024  3.5531 -1.6610  2.1249
24608SOL    HW278187  10.262  10.233   1.065 -1.2765  1.6092 -0.0655
24609SOL     OW78188   9.569   6.440   8.423 -0.0049 -0.2490 -0.4787
24609SOL    HW178189   9.494   6.487   8.387 -0.0597 -0.4123 -0.5750
24609SOL    HW278190   9.625   6.509   8.459 -1.5050 -0.2775  2.1418
24610SOL     OW78191   5.423   6.584  10.460 -0.4417  0.4219  0.2768
24610SOL    HW178192   5.386   6.655  10.513  0.6942  0.7654  0.6313
24610SOL    HW278193   5.472   6.628  10.390  1.9785  0.0806  1.6489
24611SOL     OW78194   7.655   3.520   3.350  0.0981 -0.8408  0.0092
24611SOL    HW178195   7.678   3.429   3.369  0.2801 -0.8831 -0.4017
24611SOL    HW278196   7.638   3.559   3.435 -1.9228 -1.7753  0.0995
24612SOL     OW78197   2.034   5.760   2.589  0.1109 -0.1386 -0.0446
24612SOL    HW178198   2.080   5.756   2.673 -0.4863  0.2164  0.3061
24612SOL    HW278199   1.994   5.673   2.580  3.4179 -1.6688 -1.8838
24613SOL     OW78200   8.411   5.814   1.821  0.0200 -0.0385  0.2247
24613SOL    HW178201   8.438   5.897   1.861  1.0588 -0.7414  1.0766
24613SOL    HW278202   8.474   5.750   1.855 -0.0103 -0.9704 -1.3581
24614SOL     OW78203   6.357  10.125   7.319 -0.2705 -0.6276 -0.0817
24614SOL    HW178204   6.273  10.127   7.366  0.1611 -3.0224  0.9166
24614SOL    HW278205   6.412  10.188   7.366  0.2995 -3.2338  3.1368
24615SOL     OW78206   1.658   1.604   4.684  0.1286  0.1721  0.2958
24615SOL    HW178207   1.573   1.578   4.647  0.0229  0.7044  0.1459
24615SOL    HW278208   1.717   1.608   4.608  0.5393 -1.1388  0.5299
24616SOL     OW78209   6.788   3.803   4.319 -0.2618 -0.4686  0.2053
24616SOL    HW178210   6.751   3.818   4.406  1.0831  1.1463  0.5454
24616SOL    HW278211   6.793   3.708   4.312 -0.9232 -0.6459  1.6543
24617SOL     OW78212   7.534   9.697   9.094  0.6996  0.0027 -0.1911
24617SOL    HW178213   7.478   9.770   9.121  0.9581 -0.0779  0.5975
24617SOL    HW278214   7.474   9.633   9.056 -0.1164 -1.0790  2.6967
24618SOL     OW78215   8.502   8.165   2.966  0.2120 -0.2743  0.0328
24618SOL    HW178216   8.537   8.247   2.932  0.5762 -0.1763  0.6241
24618SOL    HW278217   8.562   8.098   2.934  0.0034 -0.2915 -0.3217
24619SOL     OW78218   4.536   4.206  10.887 -0.0301  0.0334 -0.4511
24619SOL    HW178219   4.593   4.137  10.921 -0.8713 -1.6184 -2.2277
24619SOL    HW278220   4.581   4.238  10.808 -0.0510  0.9723 -0.1001
24620SOL     OW78221   4.637   9.985   4.304 -0.1375  0.4578 -0.5377
24620SOL    HW178222   4.693   9.970   4.380  2.2304  1.3137 -1.9842
24620SOL    HW278223   4.565  10.038   4.337  0.9890  1.0722  1.0468
24621SOL     OW78224   1.689   1.464   3.152  0.2815  0.0679 -0.4618
24621SOL    HW178225   1.680   1.379   3.109  0.0151  0.2290 -0.7273
24621SOL    HW278226   1.607   1.475   3.201 -0.2218  0.7229 -1.4218
24622SOL     OW78227   7.814   6.388   3.772  0.5616 -0.3745 -0.0886
24622SOL    HW178228   7.739   6.412   3.826 -0.3685  0.4133 -1.6562
24622SOL    HW278229   7.777   6.370   3.686  2.0466 -1.1124 -0.6145
24623SOL     OW78230   3.491   2.622   9.263 -0.3289 -0.1122  0.0971
24623SOL    HW178231   3.587   2.622   9.257 -0.3460  0.4213 -0.3131
24623SOL    HW278232   3.465   2.703   9.219 -0.9547 -0.1128  0.4608
24624SOL     OW78233   5.798   8.834  10.415 -0.6649 -0.4854  0.3774
24624SOL    HW178234   5.781   8.896  10.486  1.1795 -0.7084  1.0890
24624SOL    HW278235   5.843   8.761  10.457 -0.5019 -1.1320 -0.8618
24625SOL     OW78236   1.260   9.695   2.692  0.1072  0.0829 -0.2876
24625SOL    HW178237   1.320   9.744   2.636  1.5233 -0.8512  0.3890
24625SOL    HW278238   1.316   9.649   2.754 -1.3828  0.6355  1.5742
24626SOL     OW78239   1.286   6.696   1.552 -0.3077 -0.1865 -0.4918
24626SOL    HW178240   1.354   6.662   1.494  0.1366 -2.2186  1.0852
24626SOL    HW278241   1.205   6.684   1.504  0.2478  0.4698 -1.6326
24627SOL     OW78242   7.991   6.760   4.594 -0.0931  0.0277 -0.2125
24627SOL    HW178243   7.915   6.814   4.572  0.6094  0.6783 -1.1629
24627SOL    HW278244   8.060   6.824   4.612  0.2499 -0.5541  0.5351
24628SOL     OW78245   9.530   1.853   0.424 -1.1690  0.1213  0.2341
24628SOL    HW178246   9.605   1.905   0.396 -1.9788  1.2182  0.0716
24628SOL    HW278247   9.544   1.841   0.518 -0.4987 -0.1844  0.1035
24629SOL     OW78248   2.942   7.061   3.914  0.2617  0.0163 -0.4854
24629SOL    HW178249   2.943   7.140   3.968 -4.4288  1.1292 -1.5912
24629SOL    HW278250   2.944   7.093   3.824  1.6548 -1.4213 -1.0114
24630SOL     OW78251   7.948  10.522   0.958  0.1856  0.2613 -0.2451
24630SOL    HW178252   7.921  10.538   1.048 -0.8357  0.2838 -0.5397
24630SOL    HW278253   8.017  10.456   0.964 -1.2828 -1.2617  0.4131
24631SOL     OW78254   8.800   2.751   6.516  0.1445  0.1073 -0.5432
24631SOL    HW178255   8.758   2.799   6.587  1.3214 -0.1761  0.3671
24631SOL    HW278256   8.828   2.820   6.455 -0.1225  0.4117 -0.3273
24632SOL     OW78257  11.096   7.728  10.428  0.0650  0.1235 -0.1864
24632SOL    HW178258  11.188   7.755  10.423  0.2068  0.0735  1.5218
24632SOL    HW278259  11.055   7.770  10.353  0.8435  2.8973  0.8196
24633SOL     OW78260   6.240   0.034   6.205 -0.1825 -0.2028 -0.6043
24633SOL    HW178261   6.170   0.015   6.268 -0.1918 -1.2873 -0.9344
24633SOL    HW278262   6.299   0.092   6.254 -0.5083 -0.5209  0.1981
24634SOL     OW78263   2.419   2.046   3.302  0.3985  0.3832  0.3665
24634SOL    HW178264   2.339   2.050   3.353  1.2216  2.1765  1.6506
24634SOL    HW278265   2.399   2.094   3.222 -0.7226 -1.9484 -0.8509
24635SOL     OW78266   9.069   5.867  11.112 -0.3933  0.3650 -0.5391
24635SOL    HW178267   9.107   5.780  11.124 -1.5475 -0.0886  0.0219
24635SOL    HW278268   9.110   5.920  11.180 -2.3496 -0.6835  1.6358
24636SOL     OW78269   7.362   3.117   2.659 -0.6542 -0.8703  0.3088
24636SOL    HW178270   7.397   3.065   2.731  1.5284  0.3005  0.2020
24636SOL    HW278271   7.358   3.057   2.585 -0.3452 -1.4299  0.7399
24637SOL     OW78272   5.334   9.289   8.037 -0.2101 -0.3859  0.8219
24637SOL    HW178273   5.249   9.280   8.080  1.0319 -1.5755  3.1736
24637SOL    HW278274   5.339   9.213   7.980 -1.9253  1.2762 -1.7946
24638SOL     OW78275   0.813   8.600   2.394  0.4734 -0.4414  0.4379
24638SOL    HW178276   0.886   8.631   2.341 -0.7529  1.6941 -0.1379
24638SOL    HW278277   0.769   8.535   2.340  0.1314  0.6011 -0.5767
24639SOL     OW78278   2.390   1.359   7.959 -0.0526  0.8500 -0.3491
24639SOL    HW178279   2.429   1.443   7.981 -0.6061  1.3113 -1.1029
24639SOL    HW278280   2.388   1.311   8.042  0.0949  1.6429  0.1199
24640SOL     OW78281   4.814   9.846   3.061 -0.4554  0.1678 -0.0293
24640SOL    HW178282   4.865   9.806   3.132 -0.3056  1.1006  0.4031
24640SOL    HW278283   4.879   9.873   2.997 -0.6398 -1.3355 -0.8972
24641SOL     OW78284   2.282  10.354   8.611  0.0563 -0.3402 -0.1401
24641SOL    HW178285   2.261  10.297   8.537  0.4078 -1.5844  0.6837
24641SOL    HW278286   2.204  10.351   8.666  0.7616 -1.6453  0.8688
24642SOL     OW78287   9.755   5.114   9.482 -0.4273  0.4077  0.1013
24642SOL    HW178288   9.722   5.135   9.395 -1.4510 -0.4074  0.2653
24642SOL    HW278289   9.688   5.150   9.542  1.0890  2.4715  0.6561
24643SOL     OW78290   7.556   1.209   3.047  0.0207 -0.5933  0.4095
24643SOL    HW178291   7.526   1.265   3.118 -0.4433 -0.8404  0.4097
24643SOL    HW278292   7.524   1.122   3.070 -0.2591 -0.6496 -0.1764
24644SOL     OW78293   2.865   6.972   2.919  0.0295  0.6753 -0.3063
24644SOL    HW178294   2.839   6.957   2.828  1.9659 -1.4529 -0.5998
24644SOL    HW278295   2.960   6.968   2.918  0.0767 -0.5512  1.9828
24645SOL     OW78296   2.967   1.099   1.342  0.1167  0.4712 -0.0700
24645SOL    HW178297   2.934   1.036   1.406  0.5455 -1.3223 -1.5219
24645SOL    HW278298   3.062   1.095   1.351  0.1477  3.0195  1.6876
24646SOL     OW78299   9.769   4.207   7.000 -0.4825 -0.1768  0.1422
24646SOL    HW178300   9.728   4.289   7.027 -3.4285 -0.4259 -2.9235
24646SOL    HW278301   9.696   4.148   6.983  1.4454 -2.6236 -0.2691
24647SOL     OW78302   7.884   4.906   1.942 -0.1377 -0.2160  0.5977
24647SOL    HW178303   7.794   4.937   1.928 -0.5368 -1.3124  0.6441
24647SOL    HW278304   7.920   4.965   2.008 -0.6225  0.5912  0.1647
24648SOL     OW78305   4.109   0.429   4.883 -0.4641 -0.6247  0.2328
24648SOL    HW178306   4.094   0.521   4.905  0.2883 -0.4323 -0.0244
24648SOL    HW278307   4.034   0.383   4.921 -1.3713  0.2073 -0.5051
24649SOL     OW78308   8.770   2.697   9.998 -0.2804 -0.0314 -0.0385
24649SOL    HW178309   8.718   2.639  10.053 -0.2572  1.6502  1.9208
24649SOL    HW278310   8.852   2.708  10.046  0.4095  0.2324 -1.2412
24650SOL     OW78311   4.886   8.280   3.532 -0.2750 -0.3373  0.6541
24650SOL    HW178312   4.902   8.342   3.461  0.5936 -0.4887  0.7171
24650SOL    HW278313   4.898   8.194   3.493  0.1924 -0.4229  0.9768
24651SOL     OW78314   8.241   9.762   6.717  0.1874  0.7175  0.1389
24651SOL    HW178315   8.153   9.798   6.730 -0.9486 -0.5198 -3.1581
24651SOL    HW278316   8.233   9.670   6.743  1.4329  1.2404  2.6994
24652SOL     OW78317   4.835   1.490   3.667 -0.0830 -0.1507  0.2144
24652SOL    HW178318   4.881   1.441   3.736 -0.2682 -2.0160 -0.9168
24652SOL    HW278319   4.888   1.569   3.655  1.1554 -0.8171  1.0258
24653SOL     OW78320  10.423   4.705   7.297  0.0754 -0.1319 -0.4033
24653SOL    HW178321  10.421   4.754   7.215  0.0568 -0.9712 -0.9103
24653SOL    HW278322  10.419   4.773   7.365  2.1018  0.6978 -1.0538
24654SOL     OW78323   2.294   4.953  10.672 -0.0815 -0.2094 -0.0709
24654SOL    HW178324   2.217   4.997  10.637  0.6993 -0.0554 -1.6698
24654SOL    HW278325   2.320   4.891  10.604 -0.8957 -2.9464  1.9433
24655SOL     OW78326   4.510  10.158   9.457 -0.5927 -0.3952 -0.3552
24655SOL    HW178327   4.576  10.175   9.390 -0.6765 -1.1517 -0.6420
24655SOL    HW278328   4.537  10.213   9.531 -1.6900  2.1384 -1.7083
24656SOL     OW78329   9.734   5.664   4.562 -0.0968 -0.1405  0.5204
24656SOL    HW178330   9.648   5.679   4.601 -0.5975  2.0726 -1.1949
24656SOL    HW278331   9.719   5.599   4.494 -0.2239 -0.3878  0.7823
24657SOL     OW78332   6.296   4.694  10.693  0.2559  0.2428 -0.0316
24657SOL    HW178333   6.390   4.680  10.689  0.2696 -0.5072  1.8523
24657SOL    HW278334   6.286   4.789  10.702  0.7944  0.3507 -0.5002
24658SOL     OW78335   4.843   5.272   3.051  0.3108  0.3281  0.6484
24658SOL    HW178336   4.769   5.318   3.012  0.9509  0.8396  0.0165
24658SOL    HW278337   4.853   5.313   3.137  0.7374  1.2497  0.1757
24659SOL     OW78338   3.287   8.031   5.456  0.1405  0.3366 -0.3280
24659SOL    HW178339   3.252   7.944   5.440  0.3778  0.3669 -1.0284
24659SOL    HW278340   3.211   8.089   5.451  0.2858  0.4312 -2.0869
24660SOL     OW78341   8.779   6.060   5.400  0.3247  0.4142  0.2548
24660SOL    HW178342   8.822   6.066   5.314  1.2975  2.1304  0.8154
24660SOL    HW278343   8.850   6.036   5.460 -0.6805 -2.6819  0.4099
24661SOL     OW78344  10.250   1.328   7.360  0.2807 -0.1968 -0.1648
24661SOL    HW178345  10.197   1.251   7.383  0.0697 -0.4011 -1.2789
24661SOL    HW278346  10.337   1.307   7.394  0.7212 -1.8235 -2.0432
24662SOL     OW78347   2.246   5.386   3.730 -0.1779 -0.2711 -0.0791
24662SOL    HW178348   2.316   5.348   3.677 -1.7817 -1.5035 -1.4107
24662SOL    HW278349   2.208   5.454   3.675  2.2269  3.1231  2.0318
24663SOL     OW78350   1.770   7.609   7.960  0.4196 -0.0813 -0.2907
24663SOL    HW178351   1.835   7.552   7.919  1.6669  1.8781 -1.1892
24663SOL    HW278352   1.695   7.607   7.900  0.3896 -0.8698 -0.2357
24664SOL     OW78353   8.609   6.201   1.118 -0.7799 -0.0020  0.2495
24664SOL    HW178354   8.663   6.253   1.058 -1.7050 -1.0949 -1.6367
24664SOL    HW278355   8.666   6.128   1.144 -0.6636 -0.0223 -0.0553
24665SOL     OW78356   7.807  10.910   9.386  0.0573 -0.1607  0.3014
24665SOL    HW178357   7.798  10.992   9.337  2.7158 -0.1801 -0.3593
24665SOL    HW278358   7.896  10.880   9.367 -1.0559 -3.6324 -0.1144
24666SOL     OW78359   8.767   2.357   9.035 -0.7515  0.1484 -0.0921
24666SOL    HW178360   8.859   2.340   9.016 -0.9979 -0.1658 -1.0732
24666SOL    HW278361   8.728   2.270   9.045 -0.8205  0.2860  1.0218
24667SOL     OW78362   9.292   3.847  10.353 -0.5424  0.2581  0.2846
24667SOL    HW178363   9.267   3.905  10.281  2.4420  1.4468  0.0444
24667SOL    HW278364   9.270   3.897  10.432 -0.4721  0.5504  0.1218
24668SOL     OW78365   2.945  10.067   4.621 -0.2546 -0.2118 -0.2059
24668SOL    HW178366   2.964  10.125   4.695 -0.4509 -0.2238 -0.1456
24668SOL    HW278367   2.870  10.107   4.578 -2.6217 -2.1535  1.7981
24669SOL     OW78368   8.208   1.243   0.616 -0.0535 -0.1550 -0.0152
24669SOL    HW178369   8.227   1.324   0.663 -0.2331  0.0311 -0.2568
24669SOL    HW278370   8.181   1.181   0.684 -0.0839  0.0423  0.1527
24670SOL     OW78371   1.898   1.119   6.203  0.2841 -0.1028 -0.5927
24670SOL    HW178372   1.909   1.206   6.166  0.5795 -0.3305 -1.0526
24670SOL    HW278373   1.907   1.132   6.298  1.2625  0.2361 -0.7184
24671SOL     OW78374   1.759   0.969   1.582 -0.6222  0.4786  0.2421
24671SOL    HW178375   1.712   1.039   1.628 -0.7443 -0.5626  1.7691
24671SOL    HW278376   1.795   0.915   1.652  0.0284 -0.6205 -0.9153
24672SOL     OW78377   2.890   8.919   4.349 -0.3986  0.0081 -0.4019
24672SOL    HW178378   2.923   8.833   4.325 -2.6994 -1.4395  1.1605
24672SOL    HW278379   2.889   8.918   4.445 -2.0240  1.0804 -0.3651
24673SOL     OW78380   0.478   7.698   6.820  0.9150  0.4930  0.0599
24673SOL    HW178381   0.440   7.766   6.764 -0.1053 -1.3691 -1.6381
24673SOL    HW278382   0.564   7.682   6.782  0.4991 -0.2839 -0.5792
24674SOL     OW78383   5.674   8.595   9.063 -0.4068  0.5899  0.1255
24674SOL    HW178384   5.650   8.602   8.971  0.0549 -0.7078 -0.1205
24674SOL    HW278385   5.600   8.632   9.110 -0.5390  1.5052 -0.7686
24675SOL     OW78386   5.476   4.566   9.409 -0.1202 -0.1056 -0.2245
24675SOL    HW178387   5.506   4.478   9.432  0.3368  0.5812  1.9873
24675SOL    HW278388   5.461   4.562   9.314  0.8570 -2.2657 -0.3405
24676SOL     OW78389   8.270   1.302   5.582 -0.1139 -0.2342 -0.3105
24676SOL    HW178390   8.195   1.304   5.523 -0.2588  0.4410 -0.1005
24676SOL    HW278391   8.329   1.369   5.549 -0.7689  1.0559  1.0633
24677SOL     OW78392   2.164   8.470  10.404 -0.1486 -0.1646 -0.1749
24677SOL    HW178393   2.100   8.538  10.426 -0.3186 -0.8098  1.5518
24677SOL    HW278394   2.133   8.393  10.451  1.8202 -0.5243  0.6521
24678SOL     OW78395  11.019   7.511   4.859  0.2308  0.2071 -0.0894
24678SOL    HW178396  10.963   7.491   4.784 -2.2624  2.8967  0.8931
24678SOL    HW278397  11.077   7.580   4.827  0.8232 -0.3239 -0.1813
24679SOL     OW78398   3.587  10.823  10.346 -0.1342  0.0202 -0.2303
24679SOL    HW178399   3.568  10.814  10.440  0.4365  1.6146  0.0678
24679SOL    HW278400   3.501  10.830  10.305 -0.3777 -0.2795  0.2167
24680SOL     OW78401   5.443   2.244   5.848  0.1198  0.2017 -0.3713
24680SOL    HW178402   5.468   2.156   5.876 -2.1452  0.1602  1.9523
24680SOL    HW278403   5.448   2.297   5.928 -0.1482  1.8055 -1.3629
24681SOL     OW78404   6.202  10.616   2.112  0.0997 -0.2301 -0.3063
24681SOL    HW178405   6.197  10.710   2.100  1.9726 -0.0941 -0.3124
24681SOL    HW278406   6.151  10.579   2.041 -2.0864  0.7706  0.6591
24682SOL     OW78407   1.900   3.057  10.509  0.4151 -0.2665  0.6079
24682SOL    HW178408   1.909   3.014  10.424 -0.5607  1.7442 -0.5936
24682SOL    HW278409   1.988   3.055  10.547  0.7870 -1.5354 -0.2774
24683SOL     OW78410   0.794   1.682   6.818 -0.1385 -0.2528 -0.6413
24683SOL    HW178411   0.888   1.666   6.814 -0.0238  0.4969 -1.2008
24683SOL    HW278412   0.768   1.651   6.905  0.7127  0.0090 -0.2832
24684SOL     OW78413   9.967   7.367   1.970 -0.3568 -0.1763 -0.7324
24684SOL    HW178414   9.930   7.413   2.045 -0.2418 -1.7962  0.3672
24684SOL    HW278415   9.927   7.409   1.894 -1.4903  0.6365  0.2722
24685SOL     OW78416   7.188   3.013   7.241  0.4584 -0.5913  0.3843
24685SOL    HW178417   7.123   2.985   7.177 -0.7409 -1.1552  1.7754
24685SOL    HW278418   7.166   3.105   7.259  0.3165 -0.6497  0.5176
24686SOL     OW78419   5.808   6.214   8.954 -0.5352 -0.1624 -0.1357
24686SOL    HW178420   5.817   6.237   8.862 -1.3036  0.1478 -0.1439
24686SOL    HW278421   5.891   6.239   8.994 -0.1620 -0.3933 -0.7595
24687SOL     OW78422   8.922  10.428   7.384 -0.1579  0.3754  0.4744
24687SOL    HW178423   8.926  10.508   7.332 -0.9294  1.4200  1.9588
24687SOL    HW278424   8.830  10.419   7.408  0.1584 -0.0962  1.5987
24688SOL     OW78425   4.766   5.468   7.735  0.0641  0.6545 -0.0529
24688SOL    HW178426   4.712   5.425   7.668 -0.1057 -0.9516  1.0566
24688SOL    HW278427   4.848   5.419   7.736 -0.2969  0.0300  1.5508
24689SOL     OW78428   9.821   1.352   2.209 -0.6435  0.1734 -0.2061
24689SOL    HW178429   9.849   1.278   2.264 -0.7329  1.9419  2.4365
24689SOL    HW278430   9.902   1.387   2.173 -0.6496 -1.5082 -2.0234
24690SOL     OW78431   6.870   5.274   0.448  0.6123  0.6891 -0.3842
24690SOL    HW178432   6.836   5.206   0.506 -0.1558  1.9908  0.7651
24690SOL    HW278433   6.793   5.309   0.404  0.8638  1.4527 -0.2353
24691SOL     OW78434   2.717   4.331   3.686 -0.5951  0.6531  0.1827
24691SOL    HW178435   2.652   4.280   3.733 -0.1418  1.1772  1.4371
24691SOL    HW278436   2.681   4.420   3.685 -0.6129  0.6434 -0.5083
24692SOL     OW78437   1.569   7.395   4.302  0.1004 -0.1199  0.2021
24692SOL    HW178438   1.595   7.467   4.245 -0.7965  0.1697  0.1297
24692SOL    HW278439   1.623   7.322   4.274 -0.2439  0.0377 -0.9788
24693SOL     OW78440  11.082   9.637   2.104 -0.1807  0.2192 -0.1664
24693SOL    HW178441  11.095   9.542   2.106 -1.0974  0.0190 -1.8387
24693SOL    HW278442  11.168   9.672   2.079  0.1474 -0.1698  0.3977
24694SOL     OW78443   7.366   7.310   2.194 -0.1132 -0.0095  0.2112
24694SOL    HW178444   7.290   7.275   2.146 -0.8943  0.2108  1.2546
24694SOL    HW278445   7.389   7.240   2.256  0.2399  0.1154  0.2228
24695SOL     OW78446   4.046   3.996   3.565 -0.4820 -0.1155  0.0113
24695SOL    HW178447   4.040   3.903   3.543 -0.2299 -0.4108  1.1341
24695SOL    HW278448   4.105   4.000   3.640 -1.2806  0.8388  0.6229
24696SOL     OW78449   1.300   4.914   0.920 -0.4201  0.0784  0.0643
24696SOL    HW178450   1.365   4.972   0.882  0.5560 -1.3816 -0.5969
24696SOL    HW278451   1.323   4.827   0.888 -2.6358 -0.5268 -0.1037
24697SOL     OW78452   5.490   4.817   5.271 -0.2971  0.2981 -0.1837
24697SOL    HW178453   5.540   4.897   5.261 -0.2192  0.1091 -1.4493
24697SOL    HW278454   5.529   4.756   5.208 -1.2442 -0.2817 -0.2296
24698SOL     OW78455   9.645   3.492   2.484  0.0062 -0.0660 -0.5537
24698SOL    HW178456   9.552   3.475   2.471  0.1010  0.7470 -2.7761
24698SOL    HW278457   9.661   3.575   2.439  1.9144 -0.5214 -0.8114
24699SOL     OW78458   7.580   1.883   1.119 -0.1681  0.1630  0.0461
24699SOL    HW178459   7.661   1.885   1.170  0.0697 -1.0902 -0.2347
24699SOL    HW278460   7.609   1.876   1.028 -0.5846 -0.4419 -0.0470
24700SOL     OW78461   4.425   3.863   4.754  0.0830  0.8025 -0.0326
24700SOL    HW178462   4.486   3.872   4.827 -0.3807  0.7567  0.3672
24700SOL    HW278463   4.466   3.911   4.682  0.7994  0.3879  0.0934
24701SOL     OW78464   4.050  10.561   6.884  0.2183  0.0634 -0.0795
24701SOL    HW178465   4.080  10.560   6.793  0.5764  0.2066  0.0343
24701SOL    HW278466   3.964  10.603   6.881 -0.0166 -0.4380 -0.4218
24702SOL     OW78467   7.916   0.490   5.108  0.2901 -0.2042 -0.2504
24702SOL    HW178468   7.980   0.451   5.049 -0.0893  0.2221 -0.9590
24702SOL    HW278469   7.831   0.466   5.070  0.0059 -1.2370  0.9803
24703SOL     OW78470   3.987   9.472   3.672  0.0634 -0.4561 -0.2530
24703SOL    HW178471   3.955   9.402   3.729 -0.2127 -0.3188 -0.2372
24703SOL    HW278472   3.975   9.552   3.724  3.3832 -0.6783  1.0553
24704SOL     OW78473   6.475   6.529   9.417 -0.5081  0.3474 -0.7573
24704SOL    HW178474   6.379   6.528   9.421 -0.5296  1.1068 -0.9477
24704SOL    HW278475   6.501   6.446   9.456 -1.2552 -0.0340 -1.0473
24705SOL     OW78476   5.412   8.697   6.444 -0.6106 -0.0076  0.6836
24705SOL    HW178477   5.411   8.698   6.540 -1.7278  0.8774  0.6934
24705SOL    HW278478   5.494   8.740   6.420 -0.6453  0.3963  1.2562
24706SOL     OW78479   4.998   8.497   0.221 -0.4081 -0.1051 -0.7399
24706SOL    HW178480   4.946   8.450   0.156  0.7121 -0.9636 -1.0649
24706SOL    HW278481   4.968   8.464   0.306 -0.6224 -0.3431 -0.9083
24707SOL     OW78482   3.015   4.414   4.670 -0.4139  0.7913  0.3078
24707SOL    HW178483   3.096   4.408   4.621  1.7425 -1.0566  3.6873
24707SOL    HW278484   3.024   4.493   4.723 -0.1562 -0.1180  1.6635
24708SOL     OW78485   8.102   5.299  10.650  0.4612 -0.4140 -0.0797
24708SOL    HW178486   8.066   5.387  10.639 -0.0831 -0.7098 -0.7961
24708SOL    HW278487   8.197   5.312  10.649  0.4659 -0.0233 -2.3821
24709SOL     OW78488   6.982   4.818  10.079  0.3734 -0.6673  0.0933
24709SOL    HW178489   7.063   4.809  10.029 -0.0836  4.0353 -2.0280
24709SOL    HW278490   7.004   4.880  10.149 -0.6735 -2.0722  1.7726
24710SOL     OW78491   2.939   0.973   8.676  0.1368 -0.0504 -0.3956
24710SOL    HW178492   2.948   1.012   8.763  1.1110  0.4811 -0.7240
24710SOL    HW278493   2.991   1.030   8.618 -0.8537 -0.1330 -1.4095
24711SOL     OW78494   3.185   9.782   6.366  0.4164 -0.6459  0.0252
24711SOL    HW178495   3.207   9.692   6.386  0.9297 -0.5219  0.0258
24711SOL    HW278496   3.203   9.830   6.447  0.0883 -0.5483  0.0442
24712SOL     OW78497  10.954   8.775   5.008 -0.7099  0.3688 -0.1972
24712SOL    HW178498  11.013   8.745   5.077  0.0021  0.7598 -0.6282
24712SOL    HW278499  10.946   8.869   5.023 -0.6593  0.4324 -0.5682
24713SOL     OW78500   0.926   5.604   2.484  0.0683  0.3008 -0.0474
24713SOL    HW178501   0.999   5.552   2.518  0.8795  1.8173  0.6469
24713SOL    HW278502   0.936   5.601   2.389  1.2926  0.8146  0.0487
24714SOL     OW78503   2.358   0.238  10.662 -0.0284  0.0561 -0.0770
24714SOL    HW178504   2.394   0.164  10.613  1.8347  2.2160 -2.1587
24714SOL    HW278505   2.421   0.253  10.733  0.3228  0.4737 -0.4731
24715SOL     OW78506   5.509   7.346   8.981 -1.1924  0.1140 -0.3562
24715SOL    HW178507   5.478   7.350   8.891 -1.3356  0.2270 -0.3027
24715SOL    HW278508   5.480   7.260   9.012  1.0432 -1.0126 -1.2066
24716SOL     OW78509   0.305   7.494   2.738  0.1380 -0.1396  0.4614
24716SOL    HW178510   0.256   7.482   2.820  0.1387  3.0134  1.0241
24716SOL    HW278511   0.237   7.498   2.671 -0.4533  3.0714  1.1050
24717SOL     OW78512  10.833  10.478   9.840  0.7390  0.3980 -0.3470
24717SOL    HW178513  10.842  10.442   9.751 -1.2971  0.0718 -0.4779
24717SOL    HW278514  10.749  10.525   9.838  2.2227  3.3339  0.4647
24718SOL     OW78515   9.698  10.566   9.660  0.1215  0.2518  0.0364
24718SOL    HW178516   9.613  10.567   9.705 -0.8739 -0.4917 -1.7243
24718SOL    HW278517   9.742  10.646   9.689 -0.3878 -0.2311  2.3823
24719SOL     OW78518   0.154   7.517   0.910 -0.4837 -0.2613 -0.2082
24719SOL    HW178519   0.088   7.469   0.860 -1.1586  0.2734  0.1547
24719SOL    HW278520   0.173   7.595   0.857 -3.3859  1.8855  1.6199
24720SOL     OW78521   9.482   9.735   2.522 -0.3383 -0.2497  0.1653
24720SOL    HW178522   9.388   9.751   2.531 -0.4946 -0.6209 -0.7396
24720SOL    HW278523   9.496   9.722   2.429  0.5513 -0.6004  0.3356
24721SOL     OW78524   0.634   9.056   9.072  0.2473  0.4840  0.3772
24721SOL    HW178525   0.547   9.049   9.032  0.3068  1.3563  0.0680
24721SOL    HW278526   0.663   9.144   9.049  1.5451 -0.0630 -0.1995
24722SOL     OW78527   5.048  10.706   2.350 -0.3916 -0.6271 -0.7075
24722SOL    HW178528   4.993  10.764   2.297  0.2690  2.3885  1.6205
24722SOL    HW278529   4.998  10.694   2.431  1.4150  0.5854  0.6694
24723SOL     OW78530   8.223   1.540   3.582  0.4235  0.2712 -0.2244
24723SOL    HW178531   8.202   1.628   3.550  1.0128  0.7565  0.7080
24723SOL    HW278532   8.318   1.533   3.575  0.2644 -0.8481 -1.6675
24724SOL     OW78533   5.094   0.022   9.407  0.6533  0.2094  0.2347
24724SOL    HW178534   5.129  -0.048   9.461 -0.2986 -0.7276 -0.3144
24724SOL    HW278535   5.056   0.084   9.469  0.1897 -0.5107  0.6832
24725SOL     OW78536   9.569   9.156   1.181 -0.0081  0.1946 -0.2351
24725SOL    HW178537   9.615   9.104   1.115  0.4348  2.3812 -1.7274
24725SOL    HW278538   9.636   9.173   1.248 -0.3125 -1.5661  0.5716
24726SOL     OW78539   6.869   6.480   6.021 -0.0053  0.6302 -0.2159
24726SOL    HW178540   6.939   6.437   5.972  0.0644  0.7372 -0.2094
24726SOL    HW278541   6.841   6.552   5.966 -1.1058 -0.2674 -0.8787
24727SOL     OW78542  10.458  10.546   1.252  0.4469 -0.1010 -0.0384
24727SOL    HW178543  10.397  10.566   1.324  1.8453  0.8076  0.9661
24727SOL    HW278544  10.411  10.573   1.173 -1.1994 -1.2691  0.4751
24728SOL     OW78545   8.873  10.538   0.434  0.1907  0.3041  0.3602
24728SOL    HW178546   8.916  10.587   0.364 -0.2058 -0.3280 -0.3400
24728SOL    HW278547   8.780  10.548   0.416  0.1094 -1.0026 -0.0122
24729SOL     OW78548   0.975   8.254   2.525 -0.1304 -0.0494  0.4482
24729SOL    HW178549   1.054   8.262   2.579  0.8553  1.7565 -1.1699
24729SOL    HW278550   0.937   8.341   2.524 -1.0225 -0.4273 -0.4758
24730SOL     OW78551   7.885   5.889   0.313 -0.2064  0.3044 -0.3733
24730SOL    HW178552   7.976   5.884   0.283  0.2191  0.7837  0.7798
24730SOL    HW278553   7.890   5.938   0.395 -1.5824  0.8530 -0.5899
24731SOL     OW78554  10.933   2.017  10.053 -0.2311  0.6908  0.0880
24731SOL    HW178555  10.850   2.041  10.095  0.0642  1.8479  0.0446
24731SOL    HW278556  10.920   1.927  10.024 -1.8390  1.1728 -0.7973
24732SOL     OW78557   8.314   5.187   5.621  0.1043 -0.4151  0.0776
24732SOL    HW178558   8.284   5.114   5.567  1.8318 -0.7522 -0.4970
24732SOL    HW278559   8.244   5.200   5.685 -1.1769 -1.1872 -1.1087
24733SOL     OW78560   3.775   8.739   6.644  0.3933 -0.4695 -0.2556
24733SOL    HW178561   3.779   8.666   6.706  2.5924  0.5138  0.8771
24733SOL    HW278562   3.794   8.817   6.697 -1.2790  0.8819 -1.5344
24734SOL     OW78563   5.320   3.215   0.873  0.1996 -0.4061  0.4003
24734SOL    HW178564   5.260   3.266   0.820  0.0201 -0.7186  0.3020
24734SOL    HW278565   5.307   3.124   0.845  0.7448 -0.4706  0.3464
24735SOL     OW78566   5.619   3.687   0.071 -0.0641 -0.0994  0.6852
24735SOL    HW178567   5.713   3.675   0.062 -0.1882 -0.4671 -0.1972
24735SOL    HW278568   5.589   3.713  -0.016 -0.6769  0.7425  1.1353
24736SOL     OW78569   6.288   0.765   9.075 -0.2802 -0.1023 -0.6206
24736SOL    HW178570   6.237   0.704   9.022 -0.5721  1.2409 -1.9575
24736SOL    HW278571   6.291   0.725   9.161 -1.2156 -1.5610 -1.2258
24737SOL     OW78572   3.299   5.938   3.558  0.2446 -0.1622  0.3518
24737SOL    HW178573   3.392   5.930   3.577 -0.1037  0.9730  2.9194
24737SOL    HW278574   3.256   5.882   3.622 -0.8799 -0.3777 -0.5563
24738SOL     OW78575   0.885   8.620   8.502 -0.0456  0.1072 -0.1129
24738SOL    HW178576   0.862   8.527   8.510 -0.2752  0.1085 -0.7190
24738SOL    HW278577   0.980   8.621   8.496 -0.0506 -0.0982 -0.2275
24739SOL     OW78578   1.961   8.432   0.284  0.4983  0.0767 -0.6654
24739SOL    HW178579   1.925   8.520   0.276 -0.5671 -0.1564  1.0649
24739SOL    HW278580   2.041   8.443   0.335 -0.5381 -0.0940  1.0879
24740SOL     OW78581   6.182   2.852   7.731  0.0018 -0.1737 -0.1729
24740SOL    HW178582   6.176   2.944   7.760 -1.0403 -0.2801 -0.0122
24740SOL    HW278583   6.271   2.843   7.698 -0.3018  1.2931 -1.5208
24741SOL     OW78584   0.524   9.445   5.622 -0.5437 -0.2436 -0.9866
24741SOL    HW178585   0.619   9.438   5.616 -0.3010  0.6099  0.9168
24741SOL    HW278586   0.494   9.458   5.532  1.2802  1.0378 -1.4555
24742SOL     OW78587   0.443   1.437   1.012  0.0927  0.0713  0.3136
24742SOL    HW178588   0.498   1.363   1.039  0.1880  0.5957  1.6758
24742SOL    HW278589   0.381   1.400   0.950 -0.2567 -1.3033  1.4274
24743SOL     OW78590  11.006   7.249   3.987  0.1274  0.5668 -0.1177
24743SOL    HW178591  10.941   7.260   3.918 -1.5138 -0.9093  1.1027
24743SOL    HW278592  11.037   7.158   3.976 -0.8428 -0.0140  1.5985
24744SOL     OW78593  10.068  10.946   2.970 -0.5586 -0.3166  0.3980
24744SOL    HW178594   9.996  10.973   3.028 -0.6801 -0.7899  0.4780
24744SOL    HW278595  10.144  10.993   3.003 -0.4345 -1.2502  1.5180
24745SOL     OW78596   1.343   6.554   9.974 -0.0725  0.2198 -0.2676
24745SOL    HW178597   1.352   6.488   9.905  0.0279 -0.4883  0.4116
24745SOL    HW278598   1.339   6.504  10.055  3.1432  1.1031  0.6103
24746SOL     OW78599   0.162   1.238  10.681  0.6884  0.3059  0.8030
24746SOL    HW178600   0.097   1.270  10.619 -0.0977 -0.4498  1.2131
24746SOL    HW278601   0.213   1.173  10.632 -0.8856 -1.3992  1.2964
24747SOL     OW78602   3.418   9.216   9.183 -0.4366  0.2026 -0.0105
24747SOL    HW178603   3.512   9.204   9.178 -0.4337  0.0748  0.3621
24747SOL    HW278604   3.389   9.220   9.091 -0.2556 -1.1500 -0.1423
24748SOL     OW78605  10.752   0.513  10.177 -0.1327 -0.8426  0.4519
24748SOL    HW178606  10.769   0.535  10.086  1.6619  1.7987  1.3053
24748SOL    HW278607  10.660   0.536  10.191 -0.4401 -1.3362 -0.6535
24749SOL     OW78608   8.788   1.145   2.655 -0.1229 -0.4865 -0.5714
24749SOL    HW178609   8.694   1.148   2.637 -0.7441 -0.5071  2.2015
24749SOL    HW278610   8.797   1.076   2.722  1.8174 -0.2492 -0.5412
24750SOL     OW78611   7.882  10.030   6.577 -0.4691 -0.2100  0.1839
24750SOL    HW178612   7.856  10.114   6.615  3.5432  1.0282  0.6150
24750SOL    HW278613   7.834  10.025   6.494 -1.9643  1.7130  0.8533
24751SOL     OW78614  10.960   5.866  10.113 -0.4040 -0.3569 -0.1286
24751SOL    HW178615  10.955   5.790  10.170 -1.8226  0.5030  0.9691
24751SOL    HW278616  11.029   5.920  10.151  1.0218 -1.3060 -1.2518
24752SOL     OW78617   3.069  10.106   4.922 -0.3265 -0.2283 -0.0041
24752SOL    HW178618   3.040  10.104   5.013 -2.0625  1.9151 -0.4337
24752SOL    HW278619   3.052  10.196   4.893 -1.5274 -1.2680 -2.9676
24753SOL     OW78620  10.315  10.255  10.388 -0.3174  0.1849 -0.1607
24753SOL    HW178621  10.318  10.327  10.325  1.5833  1.7584  1.5771
24753SOL    HW278622  10.310  10.298  10.474 -1.4444 -1.8384  0.8648
24754SOL     OW78623  10.610   5.554   0.117 -0.1943  0.0642 -0.2935
24754SOL    HW178624  10.689   5.601   0.089 -0.0166  0.0825  0.2204
24754SOL    HW278625  10.552   5.558   0.041  1.0838 -1.7761 -1.4832
24755SOL     OW78626   3.521   6.814   4.882 -0.1819  0.4494  0.1233
24755SOL    HW178627   3.473   6.833   4.801 -1.9923  0.6161  1.1792
24755SOL    HW278628   3.470   6.857   4.950  0.5910 -0.7587  1.5086
24756SOL     OW78629   0.345   6.316  10.968 -0.3569 -0.1316  0.4649
24756SOL    HW178630   0.384   6.259  10.901  0.1214 -0.7558  1.2593
24756SOL    HW278631   0.255   6.285  10.976 -1.0484  1.2344 -1.2895
24757SOL     OW78632   3.000   5.573  10.505 -0.2135 -0.4110  0.0464
24757SOL    HW178633   3.051   5.501  10.542 -1.8870 -1.1995  0.9324
24757SOL    HW278634   3.060   5.648  10.506  0.8479 -1.2295  1.2462
24758SOL     OW78635   5.841   2.292  10.575 -0.0385 -0.3979 -0.2299
24758SOL    HW178636   5.893   2.235  10.632 -0.3407  1.0172  1.5565
24758SOL    HW278637   5.900   2.365  10.555 -0.7794  0.4256  0.5046
24759SOL     OW78638   1.913   7.243  10.965 -0.1358 -0.1975  0.1564
24759SOL    HW178639   1.847   7.284  11.021  1.2600  1.9117  0.3799
24759SOL    HW278640   1.942   7.166  11.014 -1.1175 -0.1124  0.9001
24760SOL     OW78641   2.497   8.830  10.761  0.2099  0.3926 -0.1148
24760SOL    HW178642   2.528   8.740  10.760  0.4599  0.4830 -0.5779
24760SOL    HW278643   2.552   8.875  10.697  1.3957  1.3047  1.4401
24761SOL     OW78644   3.203   3.987   6.169 -0.4187  0.1354 -0.0158
24761SOL    HW178645   3.186   3.906   6.122  0.6517  1.4732 -2.9765
24761SOL    HW278646   3.149   4.052   6.124  0.6765  1.5172  0.5878
24762SOL     OW78647   3.038   1.038   6.523 -0.2612 -0.1081 -0.2975
24762SOL    HW178648   3.103   1.010   6.460  1.5450  2.7260  0.0901
24762SOL    HW278649   3.075   1.013   6.608 -1.4028 -1.5561 -0.1986
24763SOL     OW78650   6.372   5.294   2.099 -0.2380 -0.1348  0.4073
24763SOL    HW178651   6.390   5.357   2.168 -3.0468  0.9921  0.2497
24763SOL    HW278652   6.453   5.243   2.090  1.5232  2.2551  1.7631
24764SOL     OW78653   3.292   5.324   9.873  0.4511  0.5107  0.3829
24764SOL    HW178654   3.303   5.361   9.961  0.7083 -0.0581  0.5953
24764SOL    HW278655   3.220   5.375   9.835 -0.4666  0.0007  1.3558
24765SOL     OW78656   8.947   5.462   4.678  0.1985  0.1015 -0.3929
24765SOL    HW178657   8.901   5.531   4.630  0.0690  0.0298 -0.3730
24765SOL    HW278658   9.025   5.444   4.626  0.7976  1.0186  0.1485
24766SOL     OW78659  10.391  10.947   2.740  0.1199  0.0613  0.6271
24766SOL    HW178660  10.444  10.981   2.667  0.9381  1.4291  1.7900
24766SOL    HW278661  10.316  11.006   2.743  1.8167  2.3808  3.0063
24767SOL     OW78662   7.430   3.080   7.862 -0.0158 -0.0225  0.2239
24767SOL    HW178663   7.482   3.141   7.915 -0.7270 -1.1053  2.2669
24767SOL    HW278664   7.373   3.137   7.810 -0.3055  1.0829  1.7058
24768SOL     OW78665  10.571   7.642   8.617 -0.1985  0.6716  0.1751
24768SOL    HW178666  10.507   7.706   8.586 -0.0035  0.1867 -1.3134
24768SOL    HW278667  10.591   7.669   8.707 -3.3291  0.1773  1.1499
24769SOL     OW78668   4.253   2.345   8.853 -0.3967  0.2361  0.6396
24769SOL    HW178669   4.341   2.307   8.848 -0.9551 -1.0712  0.2695
24769SOL    HW278670   4.242   2.366   8.945 -0.1744 -0.8368  0.9300
24770SOL     OW78671  10.403   5.654   8.309 -0.3288 -0.2249 -0.1733
24770SOL    HW178672  10.496   5.651   8.285 -0.1338  1.5598  0.2238
24770SOL    HW278673  10.398   5.719   8.379 -2.1814  1.6298 -1.8855
24771SOL     OW78674   3.499   6.545   5.564  0.1269 -0.1434 -0.1370
24771SOL    HW178675   3.583   6.534   5.520 -0.5657  0.2826 -1.6200
24771SOL    HW278676   3.444   6.592   5.501 -0.9557  0.3806  1.1383
24772SOL     OW78677   6.488   8.897   0.285 -0.3348  0.1431  0.0295
24772SOL    HW178678   6.578   8.907   0.318 -0.3839 -1.5320  0.8032
24772SOL    HW278679   6.499   8.877   0.192  0.2705 -2.0574  0.5140
24773SOL     OW78680   0.435   8.108   1.631  0.3741  0.2421 -0.5459
24773SOL    HW178681   0.494   8.148   1.694  0.7207 -0.0185 -0.7070
24773SOL    HW278682   0.483   8.107   1.549  0.9371 -1.8104 -0.2462
24774SOL     OW78683   0.831   8.107   5.035 -0.2131 -0.1391 -0.3991
24774SOL    HW178684   0.805   8.026   5.078  1.7252 -0.1006  0.9501
24774SOL    HW278685   0.847   8.081   4.944  3.1240 -2.0079  0.5720
24775SOL     OW78686   7.841   4.431   4.490 -0.1154 -0.4841 -0.3844
24775SOL    HW178687   7.876   4.400   4.573 -1.0694  0.4393  0.3926
24775SOL    HW278688   7.917   4.435   4.432  0.5849 -1.0321  0.4748
24776SOL     OW78689   2.564  10.892   7.920 -0.2662 -0.0040  0.0499
24776SOL    HW178690   2.560  10.965   7.981  4.7826  2.2237 -1.7791
24776SOL    HW278691   2.496  10.911   7.855  1.1026  3.4656 -0.5566
24777SOL     OW78692   0.498   6.026   4.384  0.1153 -0.3304  0.6486
24777SOL    HW178693   0.538   6.110   4.407 -1.6694  0.7829 -0.0176
24777SOL    HW278694   0.546   5.997   4.307  1.0393 -0.1593  1.1402
24778SOL     OW78695  10.356  10.805   9.435 -0.4066 -0.0811  0.2663
24778SOL    HW178696  10.333  10.897   9.445 -1.9393 -0.5790  1.5947
24778SOL    HW278697  10.398  10.801   9.349  1.3695  2.1518  0.9209
24779SOL     OW78698   7.036   4.216   4.512 -0.1732 -0.2029 -0.2710
24779SOL    HW178699   7.000   4.257   4.434 -1.8552  0.3770  0.7517
24779SOL    HW278700   6.961   4.176   4.556  0.8289 -1.0771  0.7165
24780SOL     OW78701   2.409   6.258   0.236 -0.0646  0.4782  0.0584
24780SOL    HW178702   2.486   6.314   0.226 -2.1877  3.6840  0.1951
24780SOL    HW278703   2.362   6.267   0.153 -0.2498 -1.6355 -0.1338
24781SOL     OW78704   2.129   4.178   5.129  0.3810 -0.2188 -0.5265
24781SOL    HW178705   2.145   4.180   5.034  0.2760  0.4174 -0.5366
24781SOL    HW278706   2.215   4.193   5.168  0.2717  0.4585 -0.5381
24782SOL     OW78707   9.501   5.368   8.867 -0.1170 -0.0640  0.6597
24782SOL    HW178708   9.541   5.404   8.946  2.4586  1.5195 -1.2093
24782SOL    HW278709   9.441   5.437   8.838 -1.7755 -1.0294  1.6329
24783SOL     OW78710   2.231   5.611   2.395  0.1608 -0.6727 -0.2487
24783SOL    HW178711   2.199   5.669   2.464 -1.8097 -2.9678  0.8948
24783SOL    HW278712   2.312   5.652   2.365 -1.8485  3.4961 -0.6712
24784SOL     OW78713   4.672   3.530   9.474  0.0137 -0.6651 -0.7368
24784SOL    HW178714   4.726   3.452   9.470  1.8424  0.5684 -1.1085
24784SOL    HW278715   4.696   3.572   9.557 -0.3142 -0.0627 -0.9408
24785SOL     OW78716   2.918   3.279   3.025  0.4106  0.3819  0.2507
24785SOL    HW178717   2.871   3.301   2.944 -0.5030 -0.3354  0.5601
24785SOL    HW278718   2.853   3.290   3.094  0.6007 -0.9005  0.6584
24786SOL     OW78719   1.970   0.435   2.678  0.4322 -0.1685 -0.8567
24786SOL    HW178720   2.061   0.437   2.649  0.2822 -0.5429 -1.3783
24786SOL    HW278721   1.943   0.527   2.679  1.1165  0.0378  0.3294
24787SOL     OW78722   4.871   8.453  10.112  0.0295  0.2046  0.0603
24787SOL    HW178723   4.847   8.430  10.022  0.5117 -0.7140  0.1599
24787SOL    HW278724   4.966   8.442  10.115  0.0813  0.7426  0.5492
24788SOL     OW78725   0.169   5.609   3.935 -0.1264 -0.1918 -0.0859
24788SOL    HW178726   0.167   5.700   3.964  1.5963 -0.2170  0.1852
24788SOL    HW278727   0.128   5.611   3.848 -1.7857  0.5075  0.6725
24789SOL     OW78728  10.285   1.955  10.328  0.9107 -0.2818  0.4182
24789SOL    HW178729  10.275   2.014  10.254 -0.8455 -0.4766  0.4680
24789SOL    HW278730  10.222   1.985  10.392  1.5894 -0.8321  1.3732
24790SOL     OW78731   7.966  10.199   7.396  0.7006  0.5035  0.3804
24790SOL    HW178732   8.010  10.229   7.316  2.0114 -0.2504  0.7711
24790SOL    HW278733   7.878  10.235   7.390  1.1161  1.4143 -0.8503
24791SOL     OW78734  10.634   8.628   8.365  0.2029 -0.1559 -0.5987
24791SOL    HW178735  10.714   8.599   8.320 -0.0186 -1.4056 -0.2190
24791SOL    HW278736  10.586   8.547   8.383 -0.6158  0.4875  0.1879
24792SOL     OW78737   6.401   8.114   9.302  0.3036  0.2631  0.0729
24792SOL    HW178738   6.428   8.031   9.265  0.5588  0.2952  0.1867
24792SOL    HW278739   6.363   8.091   9.387  1.6131  0.3863  0.7167
24793SOL     OW78740   7.086   1.374   3.455 -0.1293  0.2642 -0.2810
24793SOL    HW178741   7.003   1.393   3.498  0.1000  0.6698  0.0029
24793SOL    HW278742   7.148   1.436   3.495  0.5569 -0.7880  0.3307
24794SOL     OW78743   4.271   6.538   3.800  0.2547 -0.1582  0.0689
24794SOL    HW178744   4.308   6.619   3.766 -0.9490  0.0700 -0.7423
24794SOL    HW278745   4.263   6.480   3.724 -0.2730 -0.4916  0.3656
24795SOL     OW78746   4.500   5.016   2.759 -0.0127 -0.0718  0.6894
24795SOL    HW178747   4.411   5.026   2.791 -0.2134  0.4968 -0.0285
24795SOL    HW278748   4.552   4.998   2.838 -0.7135 -0.1324  1.1430
24796SOL     OW78749   2.800   3.042   9.730  0.0821 -0.4728  0.1943
24796SOL    HW178750   2.857   3.118   9.737  1.0065 -1.2091  0.9961
24796SOL    HW278751   2.859   2.967   9.734 -0.6462 -1.2582 -2.0927
24797SOL     OW78752   2.848   0.344   4.487 -0.5532 -0.2526 -0.4112
24797SOL    HW178753   2.848   0.304   4.574 -1.6076 -1.2939 -0.8708
24797SOL    HW278754   2.808   0.430   4.500  1.1253  0.4601  0.4593
24798SOL     OW78755   6.797   6.436   6.273  0.1398  0.3982 -0.2479
24798SOL    HW178756   6.817   6.460   6.182 -0.3777  0.2644 -0.4003
24798SOL    HW278757   6.712   6.476   6.290  0.0591  0.1015  0.0526
24799SOL     OW78758   0.805   8.233   0.058 -0.0251  0.0567  0.4925
24799SOL    HW178759   0.799   8.140   0.080  0.2015 -0.6799 -2.2542
24799SOL    HW278760   0.898   8.253   0.065 -0.0870  0.1347  1.1941
24800SOL     OW78761  10.444   6.008   1.129  0.8524  0.1899 -0.3572
24800SOL    HW178762  10.410   5.978   1.044 -0.6003  2.0553 -0.5050
24800SOL    HW278763  10.452   5.929   1.181 -2.3343 -0.5907 -0.8621
24801SOL     OW78764   7.817  10.307   6.678 -0.5317 -0.1283 -0.3147
24801SOL    HW178765   7.724  10.307   6.698 -0.1985 -1.0750  1.4543
24801SOL    HW278766   7.825  10.363   6.601 -2.2899  1.7608  0.7699
24802SOL     OW78767   9.741   6.210   3.883 -0.2602  0.1403  0.1112
24802SOL    HW178768   9.821   6.187   3.931 -1.1411 -2.1898  0.6354
24802SOL    HW278769   9.712   6.292   3.922  0.2953 -0.5150  2.0461
24803SOL     OW78770  10.738  10.802  10.123 -0.5054  0.1855  0.1482
24803SOL    HW178771  10.652  10.783  10.086 -0.2429  0.5865 -0.7002
24803SOL    HW278772  10.788  10.722  10.108 -0.7093 -0.0266  0.5869
24804SOL     OW78773   4.962   7.392   0.764  0.1749 -0.0697 -0.1499
24804SOL    HW178774   5.025   7.320   0.775 -0.8331 -1.1877 -1.3493
24804SOL    HW278775   4.971   7.416   0.671  1.0586  1.9381  0.4054
24805SOL     OW78776   1.507   1.594   7.655  0.1092 -0.1533 -0.2137
24805SOL    HW178777   1.515   1.677   7.702  1.5998 -0.2012 -0.3416
24805SOL    HW278778   1.501   1.618   7.563  1.9515 -0.1925 -0.3824
24806SOL     OW78779   5.728   1.156   7.633  0.0161 -0.1387 -0.1589
24806SOL    HW178780   5.688   1.132   7.549 -1.9816 -3.7100  1.5984
24806SOL    HW278781   5.818   1.124   7.627 -0.0855 -0.2898 -0.9553
24807SOL     OW78782   8.090   8.004   3.182  0.3784  0.5355  0.0954
24807SOL    HW178783   8.048   7.971   3.261 -0.8845  2.1923  0.1509
24807SOL    HW278784   8.166   8.053   3.213  1.3190 -0.8633  0.1004
24808SOL     OW78785   8.625   5.347   9.902 -0.2893 -0.7568 -0.0826
24808SOL    HW178786   8.591   5.313   9.985  1.6717  1.1894  1.6395
24808SOL    HW278787   8.688   5.281   9.874 -1.2414 -1.6128 -0.2534
24809SOL     OW78788   8.499   7.142   0.717 -0.8052 -0.6448 -0.3880
24809SOL    HW178789   8.559   7.184   0.655 -1.2174 -1.0352 -1.0597
24809SOL    HW278790   8.554   7.121   0.792 -0.7755  2.0075  0.4444
24810SOL     OW78791  11.022   6.108   8.640  0.3937  0.7751 -0.0942
24810SOL    HW178792  11.047   6.132   8.729  0.0582 -0.6365  0.4128
24810SOL    HW278793  11.103   6.117   8.590  0.4104  2.3410  0.1584
24811SOL     OW78794   5.120   2.553   0.148  0.1717  0.0929 -0.5942
24811SOL    HW178795   5.149   2.575   0.236 -0.7271  0.9652 -0.4973
24811SOL    HW278796   5.041   2.500   0.161 -0.8357  1.4568 -0.8415
24812SOL     OW78797   7.957   4.673   7.200  0.0958  0.1511  0.1082
24812SOL    HW178798   7.962   4.738   7.130  1.5105 -0.6925 -0.6201
24812SOL    HW278799   8.037   4.688   7.251  0.6816 -1.3020 -0.3535
24813SOL     OW78800   7.806   8.870   2.182  0.4809 -0.0462 -0.0565
24813SOL    HW178801   7.808   8.895   2.090  2.4837 -1.0880 -0.3377
24813SOL    HW278802   7.823   8.952   2.229  3.2163 -0.0817 -0.8162
24814SOL     OW78803   2.735   7.138   5.298 -0.7200  0.2995  0.0667
24814SOL    HW178804   2.736   7.231   5.320 -4.1640  0.7949 -1.2664
24814SOL    HW278805   2.692   7.096   5.373 -0.2689 -0.0505  0.1339
24815SOL     OW78806   0.636   4.548   7.248  0.0662  0.0336 -0.6183
24815SOL    HW178807   0.634   4.542   7.153  0.1075 -2.8942 -0.5154
24815SOL    HW278808   0.566   4.490   7.278  0.5598  0.2878  1.1360
24816SOL     OW78809   6.039  10.422   6.404 -0.4578 -0.0842 -0.3842
24816SOL    HW178810   6.039  10.426   6.308 -1.0568  0.7664 -0.3638
24816SOL    HW278811   6.130  10.440   6.429  0.0841 -1.9989 -0.8221
24817SOL     OW78812   4.275   7.702   6.712 -0.0767 -0.2012 -0.1198
24817SOL    HW178813   4.191   7.664   6.686 -0.2916  0.2354 -0.0789
24817SOL    HW278814   4.305   7.648   6.785  0.2109 -1.0339 -0.8315
24818SOL     OW78815   1.330   8.636   8.932  0.0131  0.5135 -0.2760
24818SOL    HW178816   1.379   8.718   8.943 -0.0007  0.4798  0.0463
24818SOL    HW278817   1.293   8.618   9.018  1.2848 -0.6390  0.0695
24819SOL     OW78818   9.330   0.732   1.939  0.2774  0.4440 -0.2727
24819SOL    HW178819   9.415   0.689   1.934  0.8313  1.3482  0.8153
24819SOL    HW278820   9.328   0.772   2.026 -0.8438  1.2983 -0.6519
24820SOL     OW78821   7.492  11.105   5.199  0.4006  0.2486 -0.0097
24820SOL    HW178822   7.415  11.160   5.187  0.4363  0.4151  0.5188
24820SOL    HW278823   7.456  11.018   5.219  0.3502  0.3329  0.2668
24821SOL     OW78824  10.587   6.207   5.437 -0.2431 -0.3924  0.1715
24821SOL    HW178825  10.625   6.287   5.402 -0.3184 -0.5553 -0.2834
24821SOL    HW278826  10.493   6.219   5.428 -0.5088  0.9433  3.2612
24822SOL     OW78827   2.963   3.012   7.184  0.5329  0.2860 -0.0501
24822SOL    HW178828   2.870   3.036   7.189  0.8780  1.3896  1.9502
24822SOL    HW278829   2.963   2.928   7.138 -1.2761  1.0726 -1.6348
24823SOL     OW78830   4.590   9.388   7.346  0.5336 -0.1064  0.5711
24823SOL    HW178831   4.666   9.391   7.404 -0.5111  0.5216  1.9955
24823SOL    HW278832   4.565   9.296   7.343 -0.3097 -0.0039  2.4677
24824SOL     OW78833   0.204   2.915   2.675 -0.1399  0.0659  0.2531
24824SOL    HW178834   0.131   2.858   2.650  0.2164 -0.8059  1.1180
24824SOL    HW278835   0.180   2.949   2.761 -0.1112  0.8233 -0.0333
24825SOL     OW78836  10.458   6.430   7.808 -0.3077  0.2200  0.1014
24825SOL    HW178837  10.507   6.369   7.752 -0.9354 -1.6615  1.4826
24825SOL    HW278838  10.380   6.381   7.835  0.2639  0.7356  3.0899
24826SOL     OW78839   4.079   6.475   8.102 -0.2506 -0.5117  0.4981
24826SOL    HW178840   3.987   6.448   8.097 -0.0608 -1.5753  1.8967
24826SOL    HW278841   4.084   6.530   8.181  0.1444  0.3235 -0.0978
24827SOL     OW78842  11.020   1.323   0.927  0.4244 -0.0743  0.1447
24827SOL    HW178843  11.070   1.404   0.918  1.0414 -0.3342  1.0859
24827SOL    HW278844  10.934   1.350   0.958  0.2255  0.3114 -0.7140
24828SOL     OW78845   4.194   7.971   4.176  0.0335 -0.0729 -0.0344
24828SOL    HW178846   4.125   7.957   4.111  0.0900  1.5568 -0.4889
24828SOL    HW278847   4.194   8.066   4.191  2.7467  0.1319 -0.7250
24829SOL     OW78848   1.253   5.982   2.678 -0.2160  0.1437  0.2107
24829SOL    HW178849   1.224   5.966   2.589 -1.1170  2.8817 -0.0732
24829SOL    HW278850   1.215   5.910   2.729  0.1281 -1.3344 -1.5247
24830SOL     OW78851   8.981   7.854   4.157 -0.0092 -0.2560 -0.2568
24830SOL    HW178852   9.035   7.776   4.145  1.8744  0.8475  0.6952
24830SOL    HW278853   8.958   7.880   4.068 -1.6203 -2.4592 -0.5823
24831SOL     OW78854   6.306   9.518   2.788  0.0464  0.2562  0.0592
24831SOL    HW178855   6.321   9.611   2.807 -0.6990  0.1924  1.0772
24831SOL    HW278856   6.371   9.496   2.722 -0.0056  1.5958 -0.4704
24832SOL     OW78857   5.791   7.426   2.059  0.3055  0.2095  0.1691
24832SOL    HW178858   5.800   7.420   2.154 -1.0774 -0.1526  0.2997
24832SOL    HW278859   5.696   7.427   2.044  0.4783 -0.8796 -1.2553
24833SOL     OW78860  10.966   9.013   5.559  0.0491  0.4272  0.6632
24833SOL    HW178861  10.973   8.950   5.487  1.4649  3.2507 -1.9243
24833SOL    HW278862  10.879   8.998   5.595 -0.8398 -0.9955 -1.8149
24834SOL     OW78863   8.468   1.769   5.948  0.1834  0.0422  0.2208
24834SOL    HW178864   8.439   1.708   6.016 -0.3364 -1.0972 -0.9812
24834SOL    HW278865   8.524   1.831   5.995 -1.5587  0.3671  2.0144
24835SOL     OW78866  10.075   0.089   7.362 -0.0219 -0.2041  0.4288
24835SOL    HW178867  10.020   0.037   7.303 -0.0615  1.4196 -1.0464
24835SOL    HW278868  10.165   0.068   7.338 -0.0369  0.2206 -0.0064
24836SOL     OW78869   6.622   0.424  10.516 -0.7186 -0.4462 -0.2415
24836SOL    HW178870   6.543   0.435  10.568  0.1691  1.4517  0.7799
24836SOL    HW278871   6.681   0.372  10.571 -0.8430 -0.9720 -0.5879
24837SOL     OW78872   7.535  10.865   0.841  0.0735 -0.2513  0.1961
24837SOL    HW178873   7.556  10.903   0.755  0.7962  1.1807  0.9570
24837SOL    HW278874   7.532  10.941   0.900 -0.3021 -1.2164  1.4562
24838SOL     OW78875   4.379  10.081   4.539 -0.5076 -0.4792  0.1943
24838SOL    HW178876   4.474  10.088   4.533 -0.5666 -0.1922 -0.4325
24838SOL    HW278877   4.349  10.171   4.543 -0.8237 -0.5342 -0.7727
24839SOL     OW78878   1.855   6.420   7.568  0.0655 -0.1218  0.7480
24839SOL    HW178879   1.795   6.358   7.527  0.5700  0.8176 -1.6454
24839SOL    HW278880   1.907   6.367   7.628 -0.2892 -1.8183 -0.3573
24840SOL     OW78881   9.028   2.159   5.507  0.2989  0.2888 -0.2519
24840SOL    HW178882   9.073   2.077   5.526 -0.0836  0.6018  2.2890
24840SOL    HW278883   8.980   2.180   5.587 -0.0327  2.7332 -1.0004
24841SOL     OW78884   3.987   5.465   5.012  0.2267 -0.8430 -0.2961
24841SOL    HW178885   4.048   5.404   4.971  1.6672  1.0763 -1.1877
24841SOL    HW278886   4.034   5.549   5.011 -2.0699  0.5107 -0.1453
24842SOL     OW78887   2.639   6.429   4.725  0.0066  0.1588  0.1788
24842SOL    HW178888   2.658   6.352   4.778  0.5475 -0.1093 -0.3838
24842SOL    HW278889   2.595   6.489   4.784  0.0039 -0.3936  0.7498
24843SOL     OW78890   3.043   8.022   3.797 -0.1547 -0.2454 -0.4854
24843SOL    HW178891   2.999   8.079   3.734  0.1460 -0.5748 -0.9985
24843SOL    HW278892   2.986   8.022   3.874 -0.1172  0.8179 -0.4439
24844SOL     OW78893  10.158   7.660   7.420  0.0667  0.1137 -0.4550
24844SOL    HW178894  10.129   7.592   7.480  1.2693 -1.1542 -1.2731
24844SOL    HW278895  10.220   7.617   7.362  0.9360  1.9322 -0.9481
24845SOL     OW78896   8.577   7.902   1.272 -0.2634  0.1322 -0.3413
24845SOL    HW178897   8.592   7.995   1.254 -1.5836  0.8576  1.9779
24845SOL    HW278898   8.577   7.895   1.367  1.0063 -2.4958 -0.4339
24846SOL     OW78899   5.365   8.931   5.642 -0.5331 -0.1010 -0.2988
24846SOL    HW178900   5.414   8.856   5.676 -0.5377  0.1976  0.3933
24846SOL    HW278901   5.431   8.984   5.597 -0.4717 -0.3596 -0.5146
24847SOL     OW78902   3.286   1.336   7.067 -0.0460  0.5427 -0.0160
24847SOL    HW178903   3.373   1.348   7.106  0.4158  1.1524 -1.1512
24847SOL    HW278904   3.302   1.278   6.992 -0.9855 -0.9894  0.9285
24848SOL     OW78905   6.031   0.726   3.459  0.2425  0.0790 -0.3947
24848SOL    HW178906   6.108   0.751   3.510  0.1003 -1.0278  0.3837
24848SOL    HW278907   5.998   0.809   3.424  0.9714  0.7309  0.4224
24849SOL     OW78908   4.385   0.285   8.203  0.6136 -0.1392  0.2452
24849SOL    HW178909   4.340   0.215   8.155  0.2624 -0.2122  0.6754
24849SOL    HW278910   4.324   0.359   8.201  0.7455 -0.0288  0.2802
24850SOL     OW78911  10.165   3.624   8.909  0.0064  0.3888  0.0459
24850SOL    HW178912  10.222   3.688   8.951 -0.4823  0.6518  0.3153
24850SOL    HW278913  10.076   3.655   8.928 -0.2811  1.7471 -2.9856
24851SOL     OW78914   0.523   9.851   1.924  0.5076 -0.2147  0.2005
24851SOL    HW178915   0.582   9.810   1.987  1.2235  0.4485 -0.0276
24851SOL    HW278916   0.522   9.944   1.948  0.9491  0.0845 -0.8636
24852SOL     OW78917  10.107   5.109  10.992  0.2705  0.1720 -0.1371
24852SOL    HW178918  10.020   5.127  10.955  0.2001 -1.9144 -1.1490
24852SOL    HW278919  10.107   5.154  11.076 -1.9478 -0.0613  0.0553
24853SOL     OW78920  10.957   0.051   6.594  0.6743 -0.7627 -0.4582
24853SOL    HW178921  10.968   0.002   6.676 -1.2217  0.0797  0.3556
24853SOL    HW278922  10.885   0.008   6.549 -1.1095  1.2505  0.3302
24854SOL     OW78923   2.716   7.642   0.415 -0.6008  0.0098 -0.0829
24854SOL    HW178924   2.751   7.555   0.398  0.3990  0.1952  0.8952
24854SOL    HW278925   2.720   7.686   0.330 -0.4675 -0.6829 -0.4394
24855SOL     OW78926   0.919   9.429   6.899 -0.0189  0.2626 -0.4332
24855SOL    HW178927   0.876   9.401   6.980  0.7314  0.1560 -0.0629
24855SOL    HW278928   0.847   9.451   6.840 -0.5915 -0.4519 -0.0194
24856SOL     OW78929   5.167   8.235   4.963  0.2682  0.0306  0.4973
24856SOL    HW178930   5.190   8.145   4.986 -0.6920 -0.4002 -0.1687
24856SOL    HW278931   5.248   8.271   4.927  0.3372 -0.9944 -0.4479
24857SOL     OW78932   7.861   9.108   7.883  0.0138 -0.4092 -0.4606
24857SOL    HW178933   7.950   9.135   7.863 -0.4711  3.0963  1.4100
24857SOL    HW278934   7.806   9.164   7.829 -1.1181 -1.5520 -0.5570
24858SOL     OW78935   0.766   0.386   7.191 -0.6241 -0.4932 -0.7879
24858SOL    HW178936   0.710   0.309   7.196 -0.5024 -0.6495 -1.6932
24858SOL    HW278937   0.744   0.426   7.107  0.1457 -0.1870 -0.8489
24859SOL     OW78938   3.781  10.803   7.412 -0.6075 -0.3539 -0.3581
24859SOL    HW178939   3.734  10.868   7.465  2.8596  1.2694  1.0027
24859SOL    HW278940   3.792  10.845   7.327 -0.3822 -0.1273 -0.2174
24860SOL     OW78941   9.595   3.083   5.340 -0.1823  0.2540  0.5294
24860SOL    HW178942   9.607   2.988   5.330  0.4897  0.3914 -0.1063
24860SOL    HW278943   9.676   3.121   5.306 -0.8013  1.0940 -0.0768
24861SOL     OW78944   8.234   7.269   0.930  0.1383  0.5546  0.2327
24861SOL    HW178945   8.277   7.215   0.996  2.0006 -0.0015 -1.3506
24861SOL    HW278946   8.140   7.258   0.947  0.5373 -1.0616  1.5929
24862SOL     OW78947   8.641  11.104   9.869 -0.1998 -0.0979 -0.0716
24862SOL    HW178948   8.668  11.019   9.902 -2.3048 -0.3628  1.1419
24862SOL    HW278949   8.553  11.090   9.833 -0.5604  1.5392  0.0854
24863SOL     OW78950   5.918   7.034  10.764 -0.0160 -0.1881 -0.1238
24863SOL    HW178951   5.953   7.105  10.710  1.1329 -0.2252  0.5476
24863SOL    HW278952   5.900   7.075  10.849 -0.7301 -0.3851 -0.1738
24864SOL     OW78953  10.707   3.275   8.100  0.1713 -0.2300  0.1077
24864SOL    HW178954  10.614   3.296   8.107 -0.1537 -0.8782 -1.7318
24864SOL    HW278955  10.725   3.276   8.007  1.6978 -1.4361  0.3411
24865SOL     OW78956   5.676   2.876   5.242  0.6745  0.5325  0.0651
24865SOL    HW178957   5.741   2.850   5.177 -1.7444 -3.9230 -1.0187
24865SOL    HW278958   5.722   2.871   5.326  2.1159 -1.0942 -0.7560
24866SOL     OW78959   2.133   3.233  10.254 -0.0511 -0.3838 -0.1796
24866SOL    HW178960   2.078   3.207  10.180 -1.9870 -1.4298  1.5414
24866SOL    HW278961   2.192   3.159  10.267 -0.9234 -0.9841  0.4250
24867SOL     OW78962   4.763   0.804   7.666 -0.4003 -0.3081  0.1474
24867SOL    HW178963   4.681   0.813   7.617  0.8113  0.2087 -1.8962
24867SOL    HW278964   4.832   0.814   7.600  1.3679  1.2286  2.0855
24868SOL     OW78965   7.960   6.349   8.348  0.5704 -0.1527 -0.5128
24868SOL    HW178966   7.981   6.261   8.379 -0.4406 -1.1711 -2.5652
24868SOL    HW278967   7.998   6.354   8.260 -0.6918  0.8973 -1.0413
24869SOL     OW78968   6.972  10.770   3.202  0.3117  0.0486  0.2986
24869SOL    HW178969   7.029  10.845   3.220 -0.0493  0.3641  0.1192
24869SOL    HW278970   6.931  10.790   3.119 -1.9961  1.0043  1.5927
24870SOL     OW78971   9.716   9.503   0.949  0.0679 -0.3463  0.2517
24870SOL    HW178972   9.701   9.565   0.878  0.0033  1.2422  1.6005
24870SOL    HW278973   9.639   9.446   0.948  0.0932 -0.3660 -0.9676
24871SOL     OW78974   3.005   6.487   8.780 -0.0676 -0.0814  0.9252
24871SOL    HW178975   2.919   6.501   8.820 -0.3725  1.0497 -0.0683
24871SOL    HW278976   2.985   6.445   8.697  0.4625 -1.1835  1.3471
24872SOL     OW78977   4.396   9.622   6.902  0.0630  0.2411  0.7550
24872SOL    HW178978   4.357   9.535   6.895 -0.7963  0.7406 -1.0211
24872SOL    HW278979   4.477   9.616   6.852 -0.5692  0.7651 -0.3512
24873SOL     OW78980   0.368   2.131   8.872  0.3626  0.0426  0.6698
24873SOL    HW178981   0.280   2.159   8.897 -0.4954 -1.8301 -0.0453
24873SOL    HW278982   0.384   2.053   8.925  0.7244 -0.8397 -0.7087
24874SOL     OW78983   3.334  10.197  11.069 -0.0006 -0.1902  0.5410
24874SOL    HW178984   3.269  10.209  11.000 -0.3185 -0.6403  0.7562
24874SOL    HW278985   3.417  10.191  11.023  0.2421  2.7731  0.3784
24875SOL     OW78986   9.869   7.152   2.092  0.6961 -0.6080  0.4250
24875SOL    HW178987   9.796   7.132   2.033  0.0898 -1.1599  1.3301
24875SOL    HW278988   9.899   7.238   2.064  0.3497 -0.8056 -0.6092
24876SOL     OW78989   5.694   4.253   2.923 -0.1931 -0.3975 -0.3608
24876SOL    HW178990   5.669   4.305   2.847  1.6206  0.5617 -0.3690
24876SOL    HW278991   5.788   4.236   2.911  0.2789  0.2411  1.9014
24877SOL     OW78992   5.942   0.483   4.862 -0.0368  0.9439  0.2387
24877SOL    HW178993   5.908   0.408   4.910 -1.0911  0.8845 -0.5671
24877SOL    HW278994   6.032   0.458   4.840 -0.4961 -0.2641 -0.3633
24878SOL     OW78995   9.099   4.582   9.745  0.2286  0.6565 -0.5499
24878SOL    HW178996   9.186   4.566   9.782 -0.3991 -0.5900  0.4546
24878SOL    HW278997   9.043   4.600   9.821 -0.6632  0.1199 -1.0602
24879SOL     OW78998   7.978   8.821   7.497 -0.8635  0.4564  0.7658
24879SOL    HW178999   8.030   8.812   7.577 -0.7239 -0.8782  0.5371
24879SOL    HW279000   8.036   8.863   7.434  0.1213 -1.4033  0.3760
24880SOL     OW79001  10.398   6.111   6.284 -0.1593  0.1864  0.7372
24880SOL    HW179002  10.389   6.016   6.288  0.2059  0.0669 -0.7301
24880SOL    HW279003  10.484   6.129   6.323  0.1033 -0.1704  0.3385
24881SOL     OW79004   2.389   8.512   4.320 -0.3441  0.6504  0.5318
24881SOL    HW179005   2.393   8.601   4.356 -0.2704  1.2313 -0.8567
24881SOL    HW279006   2.301   8.505   4.283 -0.1984  0.3036  0.2471
24882SOL     OW79007  10.747   2.339   5.920 -0.0810 -0.3919  0.1802
24882SOL    HW179008  10.653   2.349   5.938 -0.2721 -0.5683 -0.6875
24882SOL    HW279009  10.754   2.342   5.825  0.9704  1.0226  0.2693
24883SOL     OW79010   0.303   9.281   6.316 -0.3346 -0.5875 -0.0628
24883SOL    HW179011   0.328   9.288   6.224 -1.8617  0.3381 -0.4506
24883SOL    HW279012   0.224   9.334   6.323  0.4569  0.4147  2.0711
24884SOL     OW79013   1.689   5.510   0.655  0.2146  0.3345  0.3512
24884SOL    HW179014   1.633   5.456   0.711  1.2150 -0.8036  0.2982
24884SOL    HW279015   1.640   5.592   0.644 -0.6068  0.0731  1.7721
24885SOL     OW79016   5.995   8.928   1.037 -0.4947 -0.3780 -0.1251
24885SOL    HW179017   5.993   8.928   1.132 -2.8238  0.2657 -0.1207
24885SOL    HW279018   6.053   8.856   1.014  0.4309 -0.2795  1.7679
24886SOL     OW79019   5.527   1.767   3.999  0.1763 -0.6031  0.2108
24886SOL    HW179020   5.487   1.683   3.978 -0.7139 -0.2874  0.6002
24886SOL    HW279021   5.509   1.780   4.092  1.6846 -0.7088  0.5438
24887SOL     OW79022   3.862   0.268   2.906  0.0500 -0.5967  0.6833
24887SOL    HW179023   3.897   0.195   2.855 -3.6307 -0.7807 -1.9930
24887SOL    HW279024   3.828   0.226   2.986 -2.6047 -2.1478 -1.0921
24888SOL     OW79025  10.065   4.085   6.023  0.0210 -0.1668  0.2453
24888SOL    HW179026   9.989   4.072   5.967 -0.3518  1.2456  0.3799
24888SOL    HW279027  10.110   4.161   5.985  1.1237 -0.7216  0.4178
24889SOL     OW79028   5.245   0.376   8.373  0.0802  0.5044 -0.0101
24889SOL    HW179029   5.180   0.428   8.421 -1.2366 -2.3094  1.5418
24889SOL    HW279030   5.329   0.410   8.401 -0.7152  1.6995  1.0353
24890SOL     OW79031   8.093   3.360   2.791  0.2011 -0.0304  0.3179
24890SOL    HW179032   8.112   3.452   2.772  0.4256  0.0499  0.9052
24890SOL    HW279033   8.023   3.364   2.856 -1.4809 -0.3138 -1.4080
24891SOL     OW79034   9.316   6.909   8.907  0.0250  1.0792 -0.2262
24891SOL    HW179035   9.333   6.863   8.988 -0.4965  0.4273 -0.4763
24891SOL    HW279036   9.377   6.870   8.844 -0.7494  0.3742 -0.5558
24892SOL     OW79037   2.200   3.009   3.910  0.0703 -0.6612 -0.1894
24892SOL    HW179038   2.140   3.062   3.857 -2.0102 -0.8983  1.7421
24892SOL    HW279039   2.262   3.071   3.947 -1.1808  0.1845  0.5474
24893SOL     OW79040   2.038   3.612   8.709  0.1296 -0.1911 -0.2778
24893SOL    HW179041   2.132   3.622   8.694  0.2716 -1.8743 -0.6213
24893SOL    HW279042   2.029   3.599   8.803  0.0936  1.1746 -0.0646
24894SOL     OW79043   9.589   9.111   8.209 -0.0187  0.6302  0.0641
24894SOL    HW179044   9.674   9.099   8.166 -0.5820  1.3463 -1.3046
24894SOL    HW279045   9.540   9.032   8.188 -0.0836  0.7109 -0.0844
24895SOL     OW79046   6.001   9.708   6.964  0.8495  0.4138  0.1986
24895SOL    HW179047   5.934   9.703   6.896  1.7516 -0.2574 -0.6710
24895SOL    HW279048   6.077   9.745   6.920  0.7790  2.1596  1.4251
24896SOL     OW79049   5.994   8.478   6.329 -0.1947 -0.5457  0.0198
24896SOL    HW179050   6.068   8.478   6.269 -0.5387 -1.8928 -0.4354
24896SOL    HW279051   6.025   8.431   6.407 -0.6161 -1.2817 -0.2490
24897SOL     OW79052   2.758   0.094   9.478  0.2498  0.0105 -0.1663
24897SOL    HW179053   2.741   0.168   9.420  0.3007  0.2235  0.0915
24897SOL    HW279054   2.847   0.065   9.455 -0.2352 -0.7685 -1.1434
24898SOL     OW79055   5.988   4.884   6.985  0.0167  0.3139  0.1897
24898SOL    HW179056   5.984   4.825   6.910 -2.2374  0.2958  0.2344
24898SOL    HW279057   5.905   4.869   7.031  1.0806  0.7572  2.3628
24899SOL     OW79058   6.829   9.784   6.731  0.4834 -0.0975  0.6017
24899SOL    HW179059   6.777   9.771   6.652  1.9320  1.4387 -0.6956
24899SOL    HW279060   6.765   9.801   6.799 -0.8391 -2.0389 -0.0764
24900SOL     OW79061   1.396   7.441   3.620 -0.1788  0.1254 -0.2813
24900SOL    HW179062   1.478   7.488   3.601 -0.0930 -0.0711 -0.3967
24900SOL    HW279063   1.357   7.490   3.693 -0.0708  0.3541 -0.3770
24901SOL     OW79064  10.177   9.094   6.625 -0.5556 -0.6238 -0.1787
24901SOL    HW179065  10.171   9.018   6.567  0.9608 -1.1415  0.2823
24901SOL    HW279066  10.259   9.138   6.599 -0.5786 -0.0718  0.6334
24902SOL     OW79067   4.915   8.476   9.420  0.1743 -0.2064  0.1988
24902SOL    HW179068   4.980   8.541   9.393 -1.0935  0.9960 -0.0736
24902SOL    HW279069   4.834   8.504   9.377 -0.7722 -1.0384  1.3854
24903SOL     OW79070   9.407   4.957   5.196 -0.3162 -0.2594  0.8966
24903SOL    HW179071   9.353   5.010   5.138  1.4851 -0.8989 -1.5313
24903SOL    HW279072   9.477   5.017   5.225  1.1845 -0.9559 -1.0926
24904SOL     OW79073   2.338   5.835   0.421 -0.4999 -0.4201 -0.2879
24904SOL    HW179074   2.356   5.929   0.428  2.5756 -0.9282  0.1929
24904SOL    HW279075   2.243   5.829   0.415 -0.8736  2.6572  0.7326
24905SOL     OW79076   4.071   2.316   7.518 -0.1889  0.0434  0.4944
24905SOL    HW179077   4.104   2.296   7.430  0.6287  1.4906  0.4338
24905SOL    HW279078   4.136   2.279   7.577 -0.9427 -1.2784  0.5177
24906SOL     OW79079   1.454   7.288   2.921 -0.1970 -0.2763  0.2531
24906SOL    HW179080   1.536   7.270   2.874  0.4041  0.7594  0.8514
24906SOL    HW279081   1.480   7.346   2.993 -1.3114 -0.7387  1.0519
24907SOL     OW79082   4.756  10.098  10.438  0.3181 -0.4890 -0.2185
24907SOL    HW179083   4.819  10.169  10.429  0.7347 -0.8981 -0.5387
24907SOL    HW279084   4.788  10.046  10.511 -0.8428  0.5226  1.0784
24908SOL     OW79085   4.292   6.401   8.488  0.1421  0.0297  0.4941
24908SOL    HW179086   4.323   6.490   8.507 -1.9214  1.5823 -2.4655
24908SOL    HW279087   4.318   6.386   8.397 -0.8751 -1.7816  0.4494
24909SOL     OW79088   6.043   8.026   7.955  0.1714  0.4407 -0.3163
24909SOL    HW179089   6.075   8.031   8.045 -1.9026 -1.0294  0.5930
24909SOL    HW279090   5.948   8.033   7.963 -0.5148 -4.0390 -1.8583
24910SOL     OW79091   6.266   2.084   8.526 -0.3745 -0.1788  0.3590
24910SOL    HW179092   6.334   2.148   8.549 -0.7453 -0.3784  2.2019
24910SOL    HW279093   6.224   2.120   8.448  1.3812  0.2855 -0.4147
24911SOL     OW79094   6.691   6.261   4.889 -0.1218 -0.3601  0.3128
24911SOL    HW179095   6.719   6.210   4.965 -0.2764  0.3423  0.8558
24911SOL    HW279096   6.712   6.352   4.913 -1.4715  0.0191  0.1117
24912SOL     OW79097   9.217   9.757   2.571  0.4725 -0.1201  0.1402
24912SOL    HW179098   9.142   9.806   2.539  0.8635  0.7665  0.5505
24912SOL    HW279099   9.191   9.665   2.565 -0.2998  0.1414 -0.5599
24913SOL     OW79100   0.218   6.652   2.400  0.3885  0.3005  0.2472
24913SOL    HW179101   0.290   6.652   2.463  0.7394  0.3760 -0.1512
24913SOL    HW279102   0.142   6.623   2.451  0.8684 -0.5887  0.4680
24914SOL     OW79103   2.060   9.059   5.566 -0.1124  0.4867 -0.4661
24914SOL    HW179104   2.060   9.126   5.635 -4.3508  0.3790 -0.1428
24914SOL    HW279105   2.040   9.108   5.486  1.3245  0.1294 -1.0749
24915SOL     OW79106   9.142   2.400   8.629 -0.1815  0.0826 -0.4818
24915SOL    HW179107   9.082   2.474   8.621 -1.5561 -1.0449 -1.1946
24915SOL    HW279108   9.223   2.438   8.663 -1.1554  1.7356  0.1314
24916SOL     OW79109   3.948  10.692   1.023 -0.3589  0.5360  0.4883
24916SOL    HW179110   3.905  10.644   1.093  0.0724  0.9708  1.0623
24916SOL    HW279111   3.964  10.627   0.955  0.1290 -0.1208  1.2119
24917SOL     OW79112   8.449   7.579   7.915  0.0756  0.0025 -0.3807
24917SOL    HW179113   8.397   7.504   7.942 -0.2652 -0.2785 -1.7158
24917SOL    HW279114   8.521   7.542   7.865  0.0368  0.5383 -0.8515
24918SOL     OW79115   0.119   4.911   4.008 -0.0631 -0.2558 -0.1192
24918SOL    HW179116   0.118   4.823   3.969 -0.6336 -0.5271  0.4707
24918SOL    HW279117   0.208   4.923   4.040 -0.1280 -0.8633  0.3094
24919SOL     OW79118   3.073   8.765   9.633 -0.2849  0.4660  0.0060
24919SOL    HW179119   3.041   8.846   9.595  1.1937  2.1887  2.1830
24919SOL    HW279120   3.122   8.723   9.562  0.4553  2.3963 -0.6823
24920SOL     OW79121   4.088   9.277   5.119  0.3247  0.3383  0.1253
24920SOL    HW179122   4.048   9.208   5.171  1.1930 -0.9541 -0.8572
24920SOL    HW279123   4.155   9.315   5.176 -1.3340  1.6578  1.3184
24921SOL     OW79124   0.514   9.955   7.602  0.6693  0.3725  0.0980
24921SOL    HW179125   0.538   9.895   7.672 -0.4755  0.4040  0.5514
24921SOL    HW279126   0.563   9.925   7.526  1.0934 -0.3403  0.6419
24922SOL     OW79127   8.076  10.336   4.582 -0.4599 -0.1996 -0.0105
24922SOL    HW179128   8.048  10.427   4.579  2.3412  0.7328 -0.9716
24922SOL    HW279129   8.120  10.327   4.667  1.3905  0.1036 -0.8940
24923SOL     OW79130   8.257   4.962   4.406  0.1374 -0.2427 -0.8657
24923SOL    HW179131   8.299   5.044   4.379 -0.7381  0.4295 -0.2313
24923SOL    HW279132   8.276   4.955   4.499  1.0893 -1.3124 -1.1201
24924SOL     OW79133   4.902   6.021   4.161 -0.0999 -0.1960  0.2420
24924SOL    HW179134   4.831   6.035   4.097 -1.8469 -0.6998  1.9776
24924SOL    HW279135   4.874   6.070   4.239  1.5650 -0.2888  0.9336
24925SOL     OW79136   1.982   8.090   3.802  0.5232  0.4561 -0.0247
24925SOL    HW179137   1.979   7.994   3.791 -0.5851  0.6584 -2.0831
24925SOL    HW279138   2.065   8.106   3.847 -0.2978 -1.5994  2.5451
24926SOL     OW79139   0.808  10.833   1.827  0.0773  0.4824  0.0572
24926SOL    HW179140   0.903  10.825   1.839 -0.2275 -0.8779  1.9392
24926SOL    HW279141   0.778  10.743   1.813 -1.3268  0.3385  3.2238
24927SOL     OW79142   0.013   9.043   0.483 -0.5213  0.0639 -0.2519
24927SOL    HW179143  -0.055   9.010   0.542 -1.4289 -2.1832 -2.3600
24927SOL    HW279144   0.087   8.984   0.497 -0.5177 -0.0852 -0.8956
24928SOL     OW79145   0.114   8.579   8.674  0.4620  0.0079  0.1467
24928SOL    HW179146   0.128   8.550   8.584  2.6997  0.4223  0.3103
24928SOL    HW279147   0.021   8.603   8.677 -0.0951 -1.7321 -1.5216
24929SOL     OW79148   8.301   1.114   7.913 -0.1817  0.4031  0.0372
24929SOL    HW179149   8.235   1.175   7.945 -0.1804  1.2032 -1.3926
24929SOL    HW279150   8.379   1.132   7.966 -1.2042 -0.9106  2.0929
24930SOL     OW79151   2.019   5.697   9.990  0.0384  0.3036 -0.1749
24930SOL    HW179152   2.114   5.707   9.996  0.0315  0.0817  0.3636
24930SOL    HW279153   1.993   5.756   9.919  0.8364 -1.3832 -1.9320
24931SOL     OW79154   0.977   3.818   6.039  0.1468  0.0323 -0.3028
24931SOL    HW179155   1.026   3.881   5.987 -0.8572  1.0682 -0.0428
24931SOL    HW279156   0.889   3.856   6.046 -0.0571 -0.6289  1.1856
24932SOL     OW79157   6.985   6.077  10.880  0.5503 -0.3497 -0.2967
24932SOL    HW179158   6.941   6.148  10.927 -0.0094  0.0988 -1.4699
24932SOL    HW279159   7.017   6.118  10.799  0.6304 -1.3306 -0.7725
24933SOL     OW79160   0.852   0.037   7.667 -0.5850 -1.0834 -0.7417
24933SOL    HW179161   0.843   0.129   7.645  0.6569 -0.0552  2.4204
24933SOL    HW279162   0.922   0.005   7.609  1.1609  0.8740  0.1471
24934SOL     OW79163   9.868   5.269   0.564  0.2013  0.4385 -0.5925
24934SOL    HW179164   9.885   5.362   0.580  0.7793  0.3243 -0.5403
24934SOL    HW279165   9.934   5.223   0.616 -1.9786 -0.1146  1.9327
24935SOL     OW79166   7.161   8.658   5.638  0.3372 -0.3423  0.2894
24935SOL    HW179167   7.121   8.735   5.679  0.0571 -0.9889  1.2496
24935SOL    HW279168   7.105   8.639   5.563  0.2055  0.1732  0.2497
24936SOL     OW79169   9.072   3.756   3.221  0.6751  0.1887 -0.0222
24936SOL    HW179170   9.131   3.699   3.270 -1.3129 -0.1988  2.1224
24936SOL    HW279171   9.129   3.817   3.175  2.9351 -3.1493 -2.1514
24937SOL     OW79172   3.523   4.169   0.247  0.9563 -0.6753  0.3132
24937SOL    HW179173   3.597   4.181   0.306  3.1178 -3.6298 -1.4927
24937SOL    HW279174   3.563   4.159   0.161 -1.8953  1.2709 -1.4198
24938SOL     OW79175   0.873   0.188   2.766 -0.2734 -0.2148 -0.0952
24938SOL    HW179176   0.847   0.189   2.673 -0.8495 -0.0316  0.0626
24938SOL    HW279177   0.872   0.280   2.792 -0.3212 -0.2832  0.1474
24939SOL     OW79178   7.394  10.475   9.719 -0.1055 -0.3480 -0.6684
24939SOL    HW179179   7.378  10.442   9.807 -0.4204 -0.7540 -0.8706
24939SOL    HW279180   7.339  10.552   9.711  0.8207  0.3835 -0.1051
24940SOL     OW79181   0.351   4.048   2.235 -0.1865  0.5508  0.3016
24940SOL    HW179182   0.326   4.090   2.317  1.0119 -0.2318  1.0964
24940SOL    HW279183   0.307   4.099   2.168 -1.3553  1.0878  1.4332
24941SOL     OW79184   8.416   4.755   0.143  0.3444  0.3166  0.1526
24941SOL    HW179185   8.425   4.721   0.054  1.9416 -1.0469  0.7779
24941SOL    HW279186   8.328   4.792   0.145  0.1789  0.1724 -1.9119
24942SOL     OW79187   6.660   3.894   7.405 -0.0588 -0.0074  0.1964
24942SOL    HW179188   6.691   3.812   7.443  1.8957  1.0614  1.0486
24942SOL    HW279189   6.616   3.868   7.324 -1.4528 -2.0585  1.5151
24943SOL     OW79190   3.887   5.725   4.130  0.3579 -0.3788 -0.1980
24943SOL    HW179191   3.982   5.714   4.124  0.2481 -1.7473  0.0983
24943SOL    HW279192   3.852   5.671   4.058 -0.1990 -0.2136 -0.0594
24944SOL     OW79193   5.723   7.835   9.275  0.0745 -0.3636  0.5146
24944SOL    HW179194   5.699   7.745   9.297  0.5631 -0.8070 -0.6895
24944SOL    HW279195   5.738   7.877   9.360 -2.4454 -0.7287  1.2176
24945SOL     OW79196   0.622   9.707   6.166  0.3226 -0.1306  0.1857
24945SOL    HW179197   0.639   9.639   6.231 -0.0729 -0.5817 -0.1788
24945SOL    HW279198   0.700   9.706   6.109  0.5185  0.0368  0.4465
24946SOL     OW79199   1.339   9.594   6.866 -0.2064  0.3966  0.0265
24946SOL    HW179200   1.262   9.578   6.919 -1.0343  1.3171 -0.8515
24946SOL    HW279201   1.408   9.614   6.930 -0.6629 -0.4676  0.8178
24947SOL     OW79202   3.122   8.336   0.948 -0.0212  0.1825  0.1197
24947SOL    HW179203   3.193   8.362   0.888 -0.8846  0.7990 -0.6649
24947SOL    HW279204   3.115   8.241   0.937  0.3782  0.1816 -0.1462
24948SOL     OW79205   6.926   3.615   1.273 -0.0408  0.4298 -0.2459
24948SOL    HW179206   6.953   3.614   1.181 -1.5443  1.1173 -0.7214
24948SOL    HW279207   6.943   3.704   1.302  3.0529 -0.4215  1.0390
24949SOL     OW79208   0.410   4.774   6.589 -0.3248  0.6596  0.2094
24949SOL    HW179209   0.333   4.762   6.535  1.2160  0.1740 -2.0234
24949SOL    HW279210   0.418   4.868   6.600 -2.3294  0.6576  2.2503
24950SOL     OW79211   4.807   9.530   0.012  0.4468 -0.2287  0.3285
24950SOL    HW179212   4.744   9.486  -0.045  2.0500 -1.5362 -0.5451
24950SOL    HW279213   4.757   9.557   0.088 -1.1877 -1.0530 -0.4134
24951SOL     OW79214   5.085   7.167   2.044 -0.1980  0.2837 -0.2511
24951SOL    HW179215   5.120   7.195   1.960  0.3473 -0.1699 -0.1843
24951SOL    HW279216   5.030   7.092   2.024  2.0838 -1.6015  0.0356
24952SOL     OW79217   2.978   3.878   5.569  0.3941 -0.5504  0.4616
24952SOL    HW179218   2.909   3.916   5.514 -2.1858 -1.3408  2.9166
24952SOL    HW279219   3.052   3.866   5.509 -2.0275 -0.9768 -2.7303
24953SOL     OW79220   9.171   0.207  11.053  0.2184  0.5462  0.4412
24953SOL    HW179221   9.214   0.270  11.111 -1.4341  2.2124 -0.0147
24953SOL    HW279222   9.100   0.171  11.106  0.7527 -0.4784  0.4831
24954SOL     OW79223   6.207   4.452   7.790 -0.5302  0.0812  0.3225
24954SOL    HW179224   6.301   4.434   7.782 -0.3693  0.3750  1.3506
24954SOL    HW279225   6.189   4.517   7.722 -0.0702 -0.2458 -0.1198
24955SOL     OW79226   4.238   3.610   3.377 -0.2480  0.6350 -0.5895
24955SOL    HW179227   4.208   3.678   3.318  0.9266  2.9767  1.2971
24955SOL    HW279228   4.334   3.614   3.371 -0.1492 -1.2546 -0.8083
24956SOL     OW79229  10.144   5.522   1.568  0.1067  0.1962  0.4321
24956SOL    HW179230  10.116   5.440   1.609  1.5790 -0.6097 -0.0853
24956SOL    HW279231  10.093   5.590   1.612  0.0109 -0.8437  1.9913
24957SOL     OW79232   5.606   7.860   6.319 -0.3050 -0.3678 -0.4897
24957SOL    HW179233   5.562   7.779   6.296  0.4671 -0.6482 -1.0227
24957SOL    HW279234   5.645   7.843   6.404 -0.5830 -0.3708 -0.3605
24958SOL     OW79235   7.071   7.228   7.548  0.0474  0.5325  0.2301
24958SOL    HW179236   7.131   7.230   7.622  1.3791 -1.0195 -0.7313
24958SOL    HW279237   7.023   7.311   7.553  0.5001  0.7219  2.4524
24959SOL     OW79238   3.940   6.288   7.226 -0.6827  0.2630 -0.2980
24959SOL    HW179239   3.974   6.328   7.306  3.0089 -0.2012 -1.4351
24959SOL    HW279240   3.967   6.196   7.232 -1.9018 -0.1935 -1.3233
24960SOL     OW79241  10.281   7.948   0.286 -0.2529 -0.0296 -0.0007
24960SOL    HW179242  10.235   8.030   0.267 -0.1407  0.8524  3.0271
24960SOL    HW279243  10.306   7.955   0.378  1.5814 -2.6279 -0.1855
24961SOL     OW79244   4.807   0.264   4.731 -0.3579  0.2362 -0.0708
24961SOL    HW179245   4.888   0.222   4.760  0.4634  0.5550 -1.7534
24961SOL    HW279246   4.825   0.358   4.737 -0.4592  0.3081 -0.7681
24962SOL     OW79247   4.753   6.410   2.231 -0.3423  0.0813 -0.8616
24962SOL    HW179248   4.672   6.359   2.235 -0.2794 -0.1231 -1.9360
24962SOL    HW279249   4.790   6.390   2.145  0.8755  0.1411 -0.3826
24963SOL     OW79250   1.656   5.510   3.207  0.5342 -0.3197  0.2116
24963SOL    HW179251   1.581   5.468   3.166  1.4277 -1.3934 -0.3772
24963SOL    HW279252   1.675   5.457   3.284 -0.4639  1.0588  1.4709
24964SOL     OW79253   8.539   4.096   2.053 -0.9600 -0.3430  0.2728
24964SOL    HW179254   8.615   4.133   2.099 -1.4651  0.5982  0.3720
24964SOL    HW279255   8.577   4.034   1.990 -0.0897  0.3756  0.0738
24965SOL     OW79256   9.202   2.691   1.717  0.3830 -0.2861 -0.1398
24965SOL    HW179257   9.125   2.637   1.697 -1.7420 -0.1561  5.7735
24965SOL    HW279258   9.270   2.627   1.740  0.8080 -0.3706 -1.5480
24966SOL     OW79259   0.320   9.970   1.471 -0.0844  0.1262 -0.0306
24966SOL    HW179260   0.303   9.913   1.546 -1.1222 -1.0507 -1.1077
24966SOL    HW279261   0.348   9.911   1.401  1.0144  1.2088 -0.5498
24967SOL     OW79262   0.469  10.841   0.979 -0.4034 -0.4964 -0.1505
24967SOL    HW179263   0.542  10.898   1.007  0.2066  0.3795 -3.1271
24967SOL    HW279264   0.455  10.783   1.053  2.8578 -0.2223  0.8790
24968SOL     OW79265   8.980   5.881   3.464  0.0537  0.0334  0.0928
24968SOL    HW179266   8.891   5.903   3.437 -0.1615 -0.5681  0.3011
24968SOL    HW279267   9.007   5.811   3.404  0.4062  0.2516 -0.0065
24969SOL     OW79268   6.922   6.466   2.146 -0.2292  0.8967 -0.7110
24969SOL    HW179269   6.860   6.469   2.073  0.0920 -0.0237 -1.0357
24969SOL    HW279270   7.001   6.506   2.111 -0.8319  2.7193 -0.0762
24970SOL     OW79271   7.974   1.363   0.871 -0.0968  0.8421  0.2218
24970SOL    HW179272   8.008   1.452   0.868  0.4217  0.6181 -0.9178
24970SOL    HW279273   8.053   1.308   0.874 -0.4095  0.4007  0.5389
24971SOL     OW79274  10.098   7.319   9.286 -0.2037 -0.2077 -0.0072
24971SOL    HW179275  10.077   7.268   9.364 -0.3704 -0.2590 -0.0861
24971SOL    HW279276  10.145   7.258   9.229 -0.2032 -0.2099 -0.0045
24972SOL     OW79277   2.285   9.160   6.715 -0.0557  0.0368  0.1581
24972SOL    HW179278   2.230   9.141   6.638  0.0059 -1.3405  0.4303
24972SOL    HW279279   2.351   9.090   6.715  1.9513  1.8232 -0.3484
24973SOL     OW79280   2.989   6.874   6.283  0.2775  0.5059  0.3748
24973SOL    HW179281   2.914   6.900   6.337  0.5311  1.5896  0.2351
24973SOL    HW279282   2.957   6.800   6.232 -1.3159  2.0761 -1.0200
24974SOL     OW79283   7.433   2.749   4.103 -0.0603 -0.5566 -0.5290
24974SOL    HW179284   7.394   2.753   4.190 -0.1839 -1.0986 -0.5562
24974SOL    HW279285   7.365   2.710   4.048  0.2222 -0.7482 -0.7464
24975SOL     OW79286   4.049   8.066   9.900 -0.5209 -0.0734 -0.0325
24975SOL    HW179287   3.974   8.011   9.923 -0.1689 -0.2925  0.6628
24975SOL    HW279288   4.029   8.152   9.937  0.5546 -0.7176  2.2931
24976SOL     OW79289   9.691   4.628   7.795 -0.5934 -0.2098  0.2238
24976SOL    HW179290   9.752   4.579   7.850  0.2779  1.1660  0.5255
24976SOL    HW279291   9.692   4.717   7.831 -1.9017  0.1206 -0.4878
24977SOL     OW79292   0.515  10.543   1.123  0.6970 -0.0791  0.1801
24977SOL    HW179293   0.478  10.470   1.074  0.1457 -0.2418  0.8282
24977SOL    HW279294   0.592  10.569   1.073 -0.5637  0.6074 -1.5001
24978SOL     OW79295   6.195   4.997   8.846 -0.3282  0.3651  0.0403
24978SOL    HW179296   6.289   5.011   8.845 -0.1225 -0.9614 -0.5236
24978SOL    HW279297   6.158   5.086   8.847  0.9072  0.9002 -0.0056
24979SOL     OW79298   1.199   4.329  10.847  0.2606 -0.0189 -0.1254
24979SOL    HW179299   1.139   4.267  10.889  2.3096 -0.8501  1.7900
24979SOL    HW279300   1.209   4.400  10.910  0.4543  0.6561 -0.8981
24980SOL     OW79301   7.016   9.936   8.468  0.2161 -0.1705 -0.2697
24980SOL    HW179302   7.110   9.953   8.465  0.2443 -0.1406  0.5765
24980SOL    HW279303   6.977  10.022   8.484  0.1290 -0.3609  0.5699
24981SOL     OW79304   2.520   8.102   2.625 -0.3098  0.3066 -0.0793
24981SOL    HW179305   2.481   8.101   2.538  0.1230 -2.8139 -0.3284
24981SOL    HW279306   2.448   8.077   2.684 -0.2015  0.7705  0.2557
24982SOL     OW79307   9.547   5.330   7.934 -0.2428  0.1754 -0.5579
24982SOL    HW179308   9.551   5.403   7.996  1.3372 -1.1688  1.0111
24982SOL    HW279309   9.609   5.266   7.968 -0.7843 -1.4646 -2.4817
24983SOL     OW79310   2.259   2.959   3.079  0.2469  0.0234  0.2787
24983SOL    HW179311   2.355   2.951   3.077  0.2618  0.0087  0.9182
24983SOL    HW279312   2.236   2.946   3.171 -0.4103 -0.3798  0.0579
24984SOL     OW79313   1.881   6.316   3.217  0.1539  0.4814 -0.2038
24984SOL    HW179314   1.854   6.383   3.280  1.0923  0.2699  0.4342
24984SOL    HW279315   1.879   6.235   3.267  0.0801  0.1807 -0.6873
24985SOL     OW79316   2.951   3.247   4.162  0.3191  0.3646  0.0253
24985SOL    HW179317   2.982   3.322   4.111  0.4577 -1.2460 -2.4286
24985SOL    HW279318   2.910   3.189   4.098 -2.9530 -0.1327  2.3248
24986SOL     OW79319  10.604  11.054   7.003 -0.2385  0.2825  0.6603
24986SOL    HW179320  10.559  11.134   7.029 -1.5353 -0.2964  0.2761
24986SOL    HW279321  10.600  11.054   6.907 -0.1348 -0.1722  0.6504
24987SOL     OW79322  10.742   2.331   1.488 -0.3345 -0.4687 -0.1330
24987SOL    HW179323  10.747   2.343   1.583 -0.3071  0.6131 -0.2622
24987SOL    HW279324  10.705   2.243   1.477 -0.0790 -0.7130  0.8721
24988SOL     OW79325   8.410   4.019   3.580  0.0420 -0.0838  0.4497
24988SOL    HW179326   8.427   4.089   3.643  0.6262 -1.4774  1.9136
24988SOL    HW279327   8.495   3.977   3.568  0.2446  0.8986 -2.3105
24989SOL     OW79328   5.424   8.568  10.004  0.3401 -0.5369  0.2377
24989SOL    HW179329   5.472   8.546  10.084 -1.6607 -0.2313  1.6106
24989SOL    HW279330   5.407   8.483   9.963 -0.7383 -0.9856  1.4980
24990SOL     OW79331   7.254   6.851   5.109 -0.0024  0.2660 -0.1484
24990SOL    HW179332   7.262   6.858   5.204 -0.0669  1.7254 -0.2244
24990SOL    HW279333   7.338   6.816   5.080  0.6321  1.3521  0.3265
24991SOL     OW79334   2.705  10.579   0.250  0.6983  0.0068 -0.5393
24991SOL    HW179335   2.714  10.557   0.343  0.5891  0.4673 -0.4203
24991SOL    HW279336   2.696  10.494   0.207  0.1780 -0.1858 -0.0669
24992SOL     OW79337   0.620   8.295   7.788 -0.3340 -0.0982 -0.1141
24992SOL    HW179338   0.525   8.279   7.791 -0.1604 -1.2188 -0.3920
24992SOL    HW279339   0.644   8.274   7.698  0.2267 -0.0650  0.0288
24993SOL     OW79340   6.978   9.553   2.482  0.0616  0.2606 -0.1458
24993SOL    HW179341   6.989   9.640   2.444  1.4386  0.0367 -0.3286
24993SOL    HW279342   7.037   9.497   2.431 -1.6432 -1.0411 -0.7944
24994SOL     OW79343   5.095   7.477   3.014  0.1575  0.1498  0.0894
24994SOL    HW179344   5.007   7.510   3.029  0.4532  0.8818  0.2367
24994SOL    HW279345   5.150   7.529   3.072  0.9206  0.8838 -1.2648
24995SOL     OW79346  10.047   6.188   1.596 -0.0457  0.2784 -0.4887
24995SOL    HW179347  10.069   6.159   1.684 -0.2841  0.3559 -0.4058
24995SOL    HW279348  10.121   6.157   1.542  0.8792  1.5870 -0.0178
24996SOL     OW79349   2.451  10.508   5.851 -0.2361 -0.6119  0.0234
24996SOL    HW179350   2.443  10.602   5.839 -1.4607 -0.8594 -1.2728
24996SOL    HW279351   2.530  10.484   5.803  0.1062 -0.2613  0.3971
24997SOL     OW79352   4.534   8.869   3.328  0.3263 -0.5237 -0.0605
24997SOL    HW179353   4.455   8.823   3.301  1.6423 -1.3614 -2.8898
24997SOL    HW279354   4.590   8.800   3.364  0.3458 -0.1919  0.5585
24998SOL     OW79355   0.806   8.247   3.889 -0.1515  0.2456  0.6125
24998SOL    HW179356   0.723   8.250   3.937 -0.4176  0.7964  0.1278
24998SOL    HW279357   0.786   8.198   3.809 -0.4617  1.8874 -0.3436
24999SOL     OW79358   3.403   9.207   8.294  0.0414  0.0402  0.0357
24999SOL    HW179359   3.472   9.274   8.296  0.2461  0.0504 -3.2505
24999SOL    HW279360   3.451   9.125   8.285 -0.3309 -0.0634 -1.0274
25000SOL     OW79361   6.933   8.357   6.175  0.3144 -0.3818  0.1943
25000SOL    HW179362   6.854   8.409   6.165  0.2438 -0.4805  0.2417
25000SOL    HW279363   6.994   8.415   6.222  0.6756  0.1020 -0.8503
25001SOL     OW79364   1.364   2.646   1.829  0.9193 -0.2649 -0.1033
25001SOL    HW179365   1.300   2.603   1.772  0.9141 -2.0632  1.1780
25001SOL    HW279366   1.338   2.621   1.918  5.0164 -3.7186  0.4453
25002SOL     OW79367  10.487   8.094   3.484  0.9336  0.1234 -0.1325
25002SOL    HW179368  10.521   8.062   3.400  1.5221 -0.5846  0.3678
25002SOL    HW279369  10.439   8.174   3.461  0.8788 -0.1934 -1.1764
25003SOL     OW79370   2.056   9.242   5.762 -0.2299 -0.0182 -0.1599
25003SOL    HW179371   2.134   9.236   5.816  0.0326 -1.6256 -0.6355
25003SOL    HW279372   2.014   9.323   5.788  0.6685 -0.0059  1.3700
25004SOL     OW79373   2.369   4.691   4.617 -0.4932 -0.0116  0.0861
25004SOL    HW179374   2.411   4.776   4.611  1.8654 -1.1296 -0.4366
25004SOL    HW279375   2.371   4.669   4.710 -0.5452  0.2336  0.1438
25005SOL     OW79376   9.513   3.911   1.793 -0.1342 -0.3811 -0.0462
25005SOL    HW179377   9.548   3.860   1.720  0.5458  1.8345 -1.3674
25005SOL    HW279378   9.430   3.946   1.761 -0.0746  0.2095  0.4215
25006SOL     OW79379   6.550   0.806   2.635  0.3389 -0.3061  0.4441
25006SOL    HW179380   6.602   0.868   2.687 -3.5086  1.7690  2.2322
25006SOL    HW279381   6.522   0.740   2.698 -1.9326  0.5646  0.4222
25007SOL     OW79382   7.961   5.247   9.145  0.3695 -0.8390  0.1998
25007SOL    HW179383   8.000   5.186   9.083  0.5935  0.4436 -0.9555
25007SOL    HW279384   7.869   5.252   9.120  0.3273 -0.7780  0.3630
25008SOL     OW79385   4.210   2.220   6.650 -0.5144  0.5399 -0.2540
25008SOL    HW179386   4.200   2.311   6.678  2.3457  1.1052 -0.7185
25008SOL    HW279387   4.282   2.186   6.704 -0.1663 -0.7892 -1.4939
25009SOL     OW79388   2.898   8.621   8.638 -0.0228  0.5869 -0.0094
25009SOL    HW179389   2.804   8.604   8.634  0.1668 -0.2289 -1.8010
25009SOL    HW279390   2.907   8.691   8.703 -1.9337  1.1058 -0.2474
25010SOL     OW79391  10.717   9.757   2.969  0.9993 -0.2280 -0.0582
25010SOL    HW179392  10.779   9.799   3.029  0.4495  0.2466  0.1903
25010SOL    HW279393  10.644   9.819   2.963  0.4338 -0.8940 -0.1508
25011SOL     OW79394   0.792   2.980   9.728  0.1516  0.7585 -0.5258
25011SOL    HW179395   0.752   3.029   9.800 -2.6760 -1.3914 -0.4878
25011SOL    HW279396   0.878   2.955   9.762 -1.1365 -0.2956  2.2339
25012SOL     OW79397   5.675  10.895   8.106  0.4398 -0.0941  1.2868
25012SOL    HW179398   5.678  10.853   8.192  2.6373  1.6167  2.1377
25012SOL    HW279399   5.713  10.982   8.120 -2.0347  1.4871 -0.7866
25013SOL     OW79400   6.113   4.420   5.606  0.1707  0.3396  0.3698
25013SOL    HW179401   6.064   4.481   5.661  0.3313 -1.0642  2.1611
25013SOL    HW279402   6.046   4.371   5.559  0.0459  2.3318 -1.7138
25014SOL     OW79403  10.374   7.388   2.670  0.0103  0.6075 -0.5987
25014SOL    HW179404  10.281   7.364   2.668  0.1467 -0.4731  2.2493
25014SOL    HW279405  10.420   7.304   2.668  0.8617  1.0494 -0.1074
25015SOL     OW79406   5.545  10.322   3.904 -0.0463  0.1225 -0.4562
25015SOL    HW179407   5.498  10.402   3.882 -0.5082  0.0847  0.3351
25015SOL    HW279408   5.516  10.258   3.840  1.2193  0.8675 -1.8459
25016SOL     OW79409   5.409   1.260   9.802 -0.5273 -0.0569 -0.1926
25016SOL    HW179410   5.369   1.208   9.732  0.4198 -0.7078 -0.2679
25016SOL    HW279411   5.384   1.350   9.782 -0.3886 -0.2479 -1.2836
25017SOL     OW79412   3.937   6.607   5.611  0.8962 -0.2084 -0.0395
25017SOL    HW179413   3.867   6.601   5.677  0.2455 -0.9434 -0.7749
25017SOL    HW279414   3.895   6.648   5.536  1.2911 -0.5433 -0.4433
25018SOL     OW79415   6.744   0.919   2.339 -0.2055  0.5621  0.1852
25018SOL    HW179416   6.716   0.968   2.416  0.2011  0.5648  0.3356
25018SOL    HW279417   6.832   0.889   2.361 -0.7795 -1.0046  0.4683
25019SOL     OW79418   5.810   9.859   9.556 -0.1214 -0.2589  0.0365
25019SOL    HW179419   5.895   9.887   9.521  0.2880  0.1408  1.2941
25019SOL    HW279420   5.755   9.848   9.479  0.6452  0.9330 -0.7132
25020SOL     OW79421   0.729   4.814   0.029  0.3636  0.4288 -0.4193
25020SOL    HW179422   0.712   4.747   0.095  0.1380  0.5370 -0.3671
25020SOL    HW279423   0.753   4.764  -0.049 -3.2096  0.0470 -1.4725
25021SOL     OW79424   8.719   4.543   7.102 -0.4079  0.7586 -0.3940
25021SOL    HW179425   8.636   4.562   7.146 -0.4634 -1.0112  0.3601
25021SOL    HW279426   8.722   4.604   7.029 -1.8564  1.5968  0.1982
25022SOL     OW79427   3.682   8.354   0.464 -0.5724  0.2485  0.2322
25022SOL    HW179428   3.726   8.398   0.392 -0.8626 -0.9674 -0.7177
25022SOL    HW279429   3.623   8.421   0.499  0.0909  1.0748 -0.1806
25023SOL     OW79430   5.045   7.729   5.100  0.2574  0.8806  0.3759
25023SOL    HW179431   5.141   7.724   5.104  0.2913  0.9839 -0.3213
25023SOL    HW279432   5.025   7.817   5.133  0.3318  0.4878  1.5168
25024SOL     OW79433   5.549   7.113   5.613 -0.0959  0.0428 -0.0753
25024SOL    HW179434   5.589   7.194   5.645  2.1377 -1.6113  1.6117
25024SOL    HW279435   5.480   7.094   5.677  2.2348 -1.5373  2.1932
25025SOL     OW79436   1.345   2.288   3.241  0.1874  0.4377  0.5494
25025SOL    HW179437   1.384   2.271   3.155 -0.5611 -2.5095  0.6822
25025SOL    HW279438   1.253   2.306   3.223  0.2541  0.9523  0.6906
25026SOL     OW79439   0.418   3.693   3.388  0.2062  0.1021  0.0403
25026SOL    HW179440   0.380   3.761   3.334  0.3726  0.5162  0.4343
25026SOL    HW279441   0.370   3.613   3.365 -0.3519  0.4572 -0.0378
25027SOL     OW79442   8.308  10.126   6.161  0.3802  0.5345 -0.5688
25027SOL    HW179443   8.263  10.140   6.078 -0.8414  1.0401  0.1510
25027SOL    HW279444   8.316  10.030   6.168  0.8885  0.5024 -1.4483
25028SOL     OW79445   9.047   3.326   0.914  0.0265 -0.4895 -0.5441
25028SOL    HW179446   9.019   3.411   0.880 -0.6959  0.2461  1.7053
25028SOL    HW279447   8.991   3.263   0.868  0.8209  0.1599 -2.5067
25029SOL     OW79448   5.198   8.120  10.946 -0.4998  0.3081  0.4332
25029SOL    HW179449   5.210   8.045  10.888  1.7950  0.8286  0.1536
25029SOL    HW279450   5.103   8.125  10.958 -1.2272  0.5333 -3.7602
25030SOL     OW79451   5.592   6.794   5.659  0.3984  0.0604  0.0670
25030SOL    HW179452   5.572   6.887   5.643  0.6366 -0.2292 -2.2451
25030SOL    HW279453   5.548   6.748   5.587  0.7444 -1.5827  0.8783
25031SOL     OW79454   2.194   0.708   7.058  0.0689 -0.1099 -0.7955
25031SOL    HW179455   2.265   0.697   7.121  0.7735  1.6459 -1.2224
25031SOL    HW279456   2.175   0.620   7.027  0.7563 -0.8211  0.7192
25032SOL     OW79457   0.529   4.722   4.157 -0.4599  0.1344  0.0363
25032SOL    HW179458   0.579   4.802   4.171 -2.9468  1.4221  2.3257
25032SOL    HW279459   0.578   4.655   4.206 -0.3310  1.0939  1.2658
25033SOL     OW79460   1.347   7.529   4.865  0.2420 -0.2256 -0.0702
25033SOL    HW179461   1.341   7.613   4.821  1.2546 -0.5939 -0.9574
25033SOL    HW279462   1.429   7.534   4.915 -0.6455  0.0053  1.4096
25034SOL     OW79463   5.414   8.665   8.918 -0.0532 -0.1606 -0.2891
25034SOL    HW179464   5.422   8.710   9.002 -0.0471 -0.4203 -0.1515
25034SOL    HW279465   5.348   8.717   8.870 -0.2715 -0.1800 -0.0146
25035SOL     OW79466   6.263   2.452   7.611 -0.0065 -0.5145  0.0335
25035SOL    HW179467   6.241   2.365   7.579 -1.5482 -0.1361 -0.0140
25035SOL    HW279468   6.208   2.511   7.559  0.2940  0.4107  0.7408
25036SOL     OW79469   0.918   6.467   3.462 -0.0204 -0.3003  0.2598
25036SOL    HW179470   0.910   6.513   3.546  1.5126  0.7950 -0.1489
25036SOL    HW279471   0.932   6.376   3.487  0.1018 -0.0395  1.1945
25037SOL     OW79472  10.510   4.913   3.860 -0.2151 -0.4265 -0.1396
25037SOL    HW179473  10.567   4.920   3.936  1.2857 -4.2287 -0.6642
25037SOL    HW279474  10.568   4.929   3.785 -0.8478 -0.1358 -0.5718
25038SOL     OW79475   3.146   6.962   9.405  0.2373  1.0302 -0.0385
25038SOL    HW179476   3.171   6.910   9.329 -0.4746  1.1605 -0.3684
25038SOL    HW279477   3.091   6.904   9.457  0.6598  0.9666  0.3455
25039SOL     OW79478  11.010   3.649   8.215 -0.7765  0.6606  0.0640
25039SOL    HW179479  10.974   3.731   8.181 -2.0083 -0.3552 -1.1952
25039SOL    HW279480  11.033   3.598   8.137 -1.2524 -0.7100  0.7832
25040SOL     OW79481   8.137   6.079  10.589 -0.2379  0.4105 -0.4202
25040SOL    HW179482   8.170   6.167  10.572 -1.6237  1.3652  1.4653
25040SOL    HW279483   8.130   6.073  10.684 -0.3041 -1.7141 -0.4974
25041SOL     OW79484   0.080   1.991   2.679 -0.2348  0.3319 -0.4506
25041SOL    HW179485   0.006   1.937   2.708 -1.5787  0.4690 -3.2679
25041SOL    HW279486   0.149   1.928   2.660 -0.0776  0.0738  0.8877
25042SOL     OW79487   1.253   5.751   5.606  0.0873  0.2306 -0.2702
25042SOL    HW179488   1.239   5.657   5.601 -1.9206  0.3979  1.2666
25042SOL    HW279489   1.188   5.788   5.547 -3.0388  0.7935  3.1796
25043SOL     OW79490   6.940   8.425   4.925  0.8655 -0.5572  0.4424
25043SOL    HW179491   6.976   8.457   4.842  1.3281 -1.4122  0.2955
25043SOL    HW279492   6.850   8.400   4.905 -0.0585  2.0477  0.9222
25044SOL     OW79493   6.841   7.954   8.176  0.1819  0.3568  0.1120
25044SOL    HW179494   6.810   8.043   8.163  0.1700  0.2462 -0.6840
25044SOL    HW279495   6.876   7.928   8.091  1.7675  0.1965  0.7679
25045SOL     OW79496   3.073  10.261   3.631 -0.4171  0.2109 -0.1147
25045SOL    HW179497   3.080  10.354   3.649  0.0301  0.4089 -1.2577
25045SOL    HW279498   2.987  10.236   3.666  0.5118  0.4595  2.5663
25046SOL     OW79499   5.958   9.968   3.868 -0.1029 -0.1565  0.5453
25046SOL    HW179500   6.013  10.030   3.917 -0.9368  0.5319  0.6327
25046SOL    HW279501   5.952  10.006   3.780 -1.1728  0.2763  0.7813
25047SOL     OW79502   1.733   9.348   8.010  0.3584  0.0091 -0.2996
25047SOL    HW179503   1.762   9.369   7.921  3.8901  1.0824  0.9228
25047SOL    HW279504   1.676   9.421   8.034  0.9803  0.7551 -1.0102
25048SOL     OW79505   3.350   1.722   7.955  0.3789  0.4462  0.8050
25048SOL    HW179506   3.323   1.753   8.042  1.6239 -0.7499  1.6529
25048SOL    HW279507   3.409   1.649   7.972  1.1355  0.5593 -1.0481
25049SOL     OW79508  10.171  10.076   9.664  0.4545  0.5815 -0.0166
25049SOL    HW179509  10.167  10.011   9.593 -0.6912 -0.3258  0.8357
25049SOL    HW279510  10.152  10.160   9.621 -1.8558 -0.1501 -0.6008
25050SOL     OW79511   3.320   9.625   3.174  0.1139  0.1061 -0.1687
25050SOL    HW179512   3.309   9.720   3.168  1.1333  0.1673 -1.4801
25050SOL    HW279513   3.341   9.609   3.266 -1.7178  0.9420  0.4357
25051SOL     OW79514   8.305   1.882   9.488  0.3704  0.2589  0.6140
25051SOL    HW179515   8.345   1.937   9.556  1.0570 -0.0465  0.4661
25051SOL    HW279516   8.355   1.902   9.409 -1.1002  1.4029 -0.0688
25052SOL     OW79517   6.254  10.882   2.005 -0.1649  0.4347 -0.6721
25052SOL    HW179518   6.264  10.953   2.067 -0.9249  0.6087 -0.7395
25052SOL    HW279519   6.341  10.872   1.965  0.4558  0.0030  0.7405
25053SOL     OW79520   4.640   7.025   9.251  0.2926  0.1841 -0.3603
25053SOL    HW179521   4.666   6.937   9.226 -1.5436 -0.3653 -0.5100
25053SOL    HW279522   4.684   7.082   9.189  1.5517 -0.6083 -0.2217
25054SOL     OW79523   5.847   6.822   9.133  0.1900  0.5697 -0.4733
25054SOL    HW179524   5.929   6.858   9.098 -0.4652  3.0692  0.3847
25054SOL    HW279525   5.799   6.794   9.055  1.7697 -0.9005 -1.0021
25055SOL     OW79526   6.302  10.527  10.434 -0.2235  0.1937 -0.0979
25055SOL    HW179527   6.240  10.454  10.427 -0.2438  0.0455  1.3773
25055SOL    HW279528   6.312  10.541  10.528  1.4794  0.6528 -0.3233
25056SOL     OW79529   8.948   5.693   0.861 -0.4809 -0.2249 -0.4879
25056SOL    HW179530   9.035   5.657   0.844 -0.5026 -0.6013  0.1722
25056SOL    HW279531   8.958   5.742   0.942 -1.1224 -1.1356  0.1588
25057SOL     OW79532   5.335   4.125   0.271 -0.4962 -0.2647  0.1353
25057SOL    HW179533   5.335   4.158   0.360  2.5072  1.2415 -0.3137
25057SOL    HW279534   5.413   4.070   0.265 -0.9136 -0.7587 -1.4476
25058SOL     OW79535   8.572   5.351   3.549  0.2603 -0.6879  0.0423
25058SOL    HW179536   8.645   5.412   3.537 -0.5558  0.5403  1.0301
25058SOL    HW279537   8.495   5.407   3.547 -0.5343 -1.7391  0.7775
25059SOL     OW79538   4.505   4.304   0.302 -0.2607 -0.3061 -0.8120
25059SOL    HW179539   4.517   4.248   0.225 -1.6200 -1.3172 -0.3400
25059SOL    HW279540   4.588   4.297   0.349  0.5448  0.2367 -2.1117
25060SOL     OW79541   7.147   8.729   9.849 -0.2361  0.4350 -0.3383
25060SOL    HW179542   7.085   8.791   9.810  1.4006  0.8926 -2.3782
25060SOL    HW279543   7.233   8.767   9.833  0.6455 -0.2495  2.3023
25061SOL     OW79544   6.930   2.776   5.034 -0.2967 -0.5886  0.1774
25061SOL    HW179545   6.998   2.793   4.970 -0.4485 -1.9154 -0.3690
25061SOL    HW279546   6.971   2.717   5.098 -0.9666 -1.5861 -0.2805
25062SOL     OW79547   4.976   5.722   3.333  0.2869 -0.0543 -0.1807
25062SOL    HW179548   5.011   5.802   3.295 -0.0783 -0.2327 -0.9076
25062SOL    HW279549   4.881   5.730   3.323  0.3066 -1.2032 -1.5760
25063SOL     OW79550   8.895   5.406   3.265 -0.2140  0.3889  0.4526
25063SOL    HW179551   8.927   5.335   3.320  2.3418  0.8591 -0.2764
25063SOL    HW279552   8.894   5.483   3.321 -0.9900  0.2097  0.7014
25064SOL     OW79553   9.956   4.775   0.301 -0.5279  0.6351  0.0828
25064SOL    HW179554   9.887   4.708   0.300  0.4191 -0.3816 -0.6749
25064SOL    HW279555   9.971   4.792   0.393  0.4310 -1.5644  0.3993
25065SOL     OW79556   4.743   3.078   6.365 -0.3076 -0.0413  0.5958
25065SOL    HW179557   4.815   3.090   6.427  0.6675 -0.5779 -0.3905
25065SOL    HW279558   4.713   2.989   6.379  0.6619 -0.5550 -0.4278
25066SOL     OW79559   7.734   2.976   2.084  0.4688  0.5206  0.0637
25066SOL    HW179560   7.654   3.025   2.068 -0.4685 -1.0607 -0.3514
25066SOL    HW279561   7.739   2.913   2.012  0.7484 -1.0347  1.3766
25067SOL     OW79562   0.898   1.626   8.287 -0.7187  0.6373 -0.0388
25067SOL    HW179563   0.831   1.560   8.306  0.0247  0.1083  0.8176
25067SOL    HW279564   0.942   1.640   8.371  0.5387  0.6445 -0.6877
25068SOL     OW79565   1.781   2.322   7.774 -0.4738 -0.0429  0.2860
25068SOL    HW179566   1.756   2.361   7.690 -0.2645 -0.1018  0.1951
25068SOL    HW279567   1.874   2.304   7.765 -0.4907 -0.2238  0.4629
25069SOL     OW79568  10.956   7.089   1.364  0.3098  0.0376  0.1863
25069SOL    HW179569  10.989   7.006   1.399  0.5119  0.5715  1.2982
25069SOL    HW279570  10.977   7.085   1.271  3.4452  0.2788  0.7763
25070SOL     OW79571   7.951   9.499   3.586 -0.6807  0.3921 -0.0995
25070SOL    HW179572   7.977   9.472   3.497 -1.5479  1.2339 -0.6211
25070SOL    HW279573   8.006   9.446   3.643  0.0374 -0.0311 -1.1412
25071SOL     OW79574   4.057   4.142  10.959  0.1102  0.3826 -0.1213
25071SOL    HW179575   3.996   4.210  10.931  0.6649  1.1391  0.4682
25071SOL    HW279576   4.133   4.154  10.902  0.2591  0.3351  0.0684
25072SOL     OW79577  10.817   2.407   9.279 -0.2996  0.6513  0.1196
25072SOL    HW179578  10.752   2.340   9.297  0.3648 -0.4894 -1.4708
25072SOL    HW279579  10.872   2.409   9.357  0.8655 -2.1287 -0.5169
25073SOL     OW79580   1.592   5.990   2.199 -0.3991  0.0594  0.2120
25073SOL    HW179581   1.500   5.971   2.214 -0.2373  0.5035  1.9761
25073SOL    HW279582   1.615   6.054   2.267  1.1308  0.2042 -0.3927
25074SOL     OW79583   5.987   9.246   5.605 -0.3171 -0.2389 -0.0679
25074SOL    HW179584   5.985   9.172   5.666  0.1425 -0.2956 -0.1159
25074SOL    HW279585   5.927   9.310   5.643 -3.9415 -2.1281 -2.0072
25075SOL     OW79586   4.249   4.907   7.662 -0.4534  0.5757 -0.3056
25075SOL    HW179587   4.318   4.973   7.675 -0.3207  0.5176 -0.7173
25075SOL    HW279588   4.177   4.954   7.620 -0.1846  0.3631 -1.0187
25076SOL     OW79589   0.392   1.825   6.856 -0.1267  0.2294  0.1855
25076SOL    HW179590   0.412   1.849   6.946 -1.7455 -1.0331  0.9254
25076SOL    HW279591   0.369   1.908   6.814 -0.9135  0.6458  1.3852
25077SOL     OW79592   6.970   2.669   2.573  0.0614 -0.2327 -0.1901
25077SOL    HW179593   6.945   2.577   2.559 -1.0542 -0.3023  1.8559
25077SOL    HW279594   6.921   2.717   2.506 -0.3473 -1.0165 -0.4723
25078SOL     OW79595   6.991   8.747   8.054 -0.6488 -0.4737  1.1864
25078SOL    HW179596   7.061   8.803   8.088  0.1136  0.1557 -1.2356
25078SOL    HW279597   6.951   8.798   7.983 -0.8058 -2.4489 -0.2145
25079SOL     OW79598   5.355   3.222  10.925  0.1693  0.2975 -0.0146
25079SOL    HW179599   5.386   3.132  10.918 -1.6871 -0.3207 -0.9677
25079SOL    HW279600   5.292   3.231  10.853 -0.9585  1.8091  1.0975
25080SOL     OW79601   4.561   3.097   1.236  0.5965 -0.3689 -0.5055
25080SOL    HW179602   4.569   3.145   1.318  1.5695 -0.3938 -0.5711
25080SOL    HW279603   4.469   3.107   1.211  1.0079  2.5871 -1.2134
25081SOL     OW79604  10.285   2.086   4.678 -0.2743  0.1165 -0.0515
25081SOL    HW179605  10.204   2.135   4.692 -0.8889 -0.6427 -0.9051
25081SOL    HW279606  10.260   1.994   4.686  1.0678 -0.1400  2.6607
25082SOL     OW79607   2.999   3.685   5.756  0.3653  0.2367  0.4870
25082SOL    HW179608   2.974   3.755   5.696  0.5935 -0.4811 -0.4668
25082SOL    HW279609   3.094   3.689   5.760  0.5443 -1.2466 -1.1509
25083SOL     OW79610   4.890   5.168   7.176 -0.0934  0.1867 -0.0429
25083SOL    HW179611   4.907   5.087   7.223 -1.0396 -0.3999 -0.6765
25083SOL    HW279612   4.973   5.215   7.178  0.9385 -1.4985 -1.0001
25084SOL     OW79613   3.324   8.377   5.834  0.3854 -0.3172 -0.4172
25084SOL    HW179614   3.246   8.426   5.858  1.1219  1.1481 -0.9066
25084SOL    HW279615   3.381   8.384   5.911  0.4072 -0.5960 -0.4078
25085SOL     OW79616   4.010   1.265   6.929  0.0069  0.1225 -0.1353
25085SOL    HW179617   3.980   1.345   6.885 -1.2575  0.0373  0.5460
25085SOL    HW279618   3.954   1.257   7.006  1.5037 -0.2889  0.9625
25086SOL     OW79619   7.214   9.392   9.645 -0.2819  0.1947 -0.5051
25086SOL    HW179620   7.246   9.389   9.735 -0.5549  0.2419 -0.4064
25086SOL    HW279621   7.126   9.354   9.649 -0.3185  0.2532 -0.7392
25087SOL     OW79622  10.152   0.679   4.914 -0.4730  0.0530 -0.3146
25087SOL    HW179623  10.220   0.671   4.847 -0.0663 -0.1751  0.1169
25087SOL    HW279624  10.201   0.694   4.995 -0.8780 -1.2617  0.1952
25088SOL     OW79625   5.161   3.409   3.576 -0.1460 -0.7195  0.3891
25088SOL    HW179626   5.209   3.360   3.509 -0.5647 -0.9339  0.2427
25088SOL    HW279627   5.091   3.454   3.527  0.3782  0.2231  0.4798
25089SOL     OW79628   7.131   7.122   7.916  0.2945  0.5329  0.2931
25089SOL    HW179629   7.099   7.085   7.998 -0.9288  2.7538  0.8931
25089SOL    HW279630   7.053   7.154   7.871  0.9250 -0.7009 -1.8365
25090SOL     OW79631   1.044   6.695   4.343 -0.0581  0.0014 -0.7461
25090SOL    HW179632   1.033   6.788   4.323 -1.2849  0.1185  0.3593
25090SOL    HW279633   1.134   6.675   4.316  0.1797  1.4680 -1.1118
25091SOL     OW79634   7.166   0.400   5.090 -0.1383  0.3191 -0.2180
25091SOL    HW179635   7.086   0.440   5.123 -1.3190 -1.1748 -1.1222
25091SOL    HW279636   7.175   0.432   5.000 -0.3762 -0.3791 -0.5044
25092SOL     OW79637   8.902   3.635   0.524 -0.2214  0.4491  0.0971
25092SOL    HW179638   8.847   3.583   0.466 -0.2420 -0.9816  1.3474
25092SOL    HW279639   8.990   3.628   0.487 -0.3099 -0.0440 -0.0200
25093SOL     OW79640   0.175   1.107   8.442  0.1315  0.0646  0.3176
25093SOL    HW179641   0.111   1.166   8.482 -0.4924  0.2110 -0.8491
25093SOL    HW279642   0.229   1.077   8.515 -2.1672 -1.2203  1.5899
25094SOL     OW79643   2.549   6.765   1.169 -0.5986  0.1030 -0.8309
25094SOL    HW179644   2.463   6.794   1.200 -1.2917 -0.1156 -2.4291
25094SOL    HW279645   2.542   6.669   1.166 -0.4081  0.0992 -1.2379
25095SOL     OW79646   0.563   2.810   5.767 -0.3896 -0.1322  0.1667
25095SOL    HW179647   0.604   2.865   5.701  0.1201  0.6224  1.0816
25095SOL    HW279648   0.472   2.804   5.739  0.4343 -2.6740 -2.4566
25096SOL     OW79649   8.057   1.230   5.179  0.3710  0.1511  0.4493
25096SOL    HW179650   7.992   1.161   5.191  0.1548  0.2218 -0.2741
25096SOL    HW279651   8.095   1.212   5.094 -0.0475  1.2160  0.0197
25097SOL     OW79652   3.670   3.886   5.746  0.2635  0.4931  0.3192
25097SOL    HW179653   3.619   3.955   5.701  0.5168 -0.3026 -1.2706
25097SOL    HW279654   3.743   3.933   5.786 -1.4976  1.6205  2.3905
25098SOL     OW79655  10.405   7.966   6.572 -0.6480 -0.7631 -0.0094
25098SOL    HW179656  10.445   8.035   6.519 -2.2450 -0.7727 -1.3216
25098SOL    HW279657  10.375   7.901   6.509 -1.9126 -1.1729  0.9543
25099SOL     OW79658   2.201   5.899   5.887  0.0661  0.5806 -0.5056
25099SOL    HW179659   2.257   5.906   5.964 -0.2163 -0.5029 -0.1897
25099SOL    HW279660   2.143   5.826   5.906 -0.0164  0.3065 -1.7496
25100SOL     OW79661  10.564   1.257   6.201  0.3783  0.4661  0.4003
25100SOL    HW179662  10.639   1.315   6.193 -0.5438  1.4257 -1.8869
25100SOL    HW279663  10.577   1.191   6.133 -0.5582  0.3183  0.3478
25101SOL     OW79664   3.788   9.006   9.835 -0.3976  0.6229  0.5440
25101SOL    HW179665   3.694   9.009   9.850 -0.3310 -0.6027  1.2851
25101SOL    HW279666   3.826   8.985   9.920  0.6364  1.9547  0.4622
25102SOL     OW79667   2.863  10.736   5.625  0.1272 -0.0274 -0.7454
25102SOL    HW179668   2.868  10.659   5.681  1.3140 -0.0511 -0.8445
25102SOL    HW279669   2.935  10.724   5.563 -0.4542  0.5581 -1.5486
25103SOL     OW79670   5.763   3.702  10.083  0.4368 -0.2251  0.0524
25103SOL    HW179671   5.718   3.786  10.073  1.4264  0.6582  2.3880
25103SOL    HW279672   5.832   3.704  10.016  0.4935  0.8562  0.1281
25104SOL     OW79673   4.756   8.565   6.108  0.3745  0.2239  0.1028
25104SOL    HW179674   4.829   8.563   6.171  0.1542 -0.7812  0.3291
25104SOL    HW279675   4.763   8.483   6.060 -1.6773 -0.7771  1.3684
25105SOL     OW79676   1.665  10.719   8.684  0.2789 -0.0999 -0.0214
25105SOL    HW179677   1.613  10.799   8.675  0.3247 -0.1147 -0.4387
25105SOL    HW279678   1.729  10.725   8.613 -1.4249 -1.8279 -1.8087
25106SOL     OW79679   0.855   2.624   3.151  0.2189 -0.0243  0.1432
25106SOL    HW179680   0.892   2.596   3.067  1.3224  1.9776 -0.0683
25106SOL    HW279681   0.837   2.541   3.197  1.2464 -1.1205 -1.3267
25107SOL     OW79682   6.633   6.061   2.045 -0.2813 -0.1529 -0.5310
25107SOL    HW179683   6.549   6.043   2.003  0.3833 -0.5602 -1.7485
25107SOL    HW279684   6.676   5.975   2.049 -1.1633 -0.5798  3.0371
25108SOL     OW79685   8.993   5.598  10.377  0.9163 -0.2398 -0.0569
25108SOL    HW179686   8.921   5.539  10.356 -1.5355  1.5528  2.5336
25108SOL    HW279687   9.009   5.647  10.297 -0.7287 -0.7500 -0.7384
25109SOL     OW79688  10.699  10.515   7.762  0.3467 -0.0689 -0.4536
25109SOL    HW179689  10.623  10.460   7.780  0.2419  0.3507  0.4123
25109SOL    HW279690  10.679  10.598   7.805 -0.0687  1.1256 -2.7941
25110SOL     OW79691   1.674   7.722   3.247 -0.2609  0.5130 -0.1318
25110SOL    HW179692   1.668   7.678   3.331 -1.2123 -2.3981 -1.5809
25110SOL    HW279693   1.598   7.780   3.245 -0.8721 -0.2343  0.5873
25111SOL     OW79694   9.563   6.967   9.929 -0.3272  0.4402 -0.0445
25111SOL    HW179695   9.504   6.971  10.004 -0.7832 -2.9759 -0.0879
25111SOL    HW279696   9.646   6.935   9.966  0.7733  2.6919 -0.4106
25112SOL     OW79697  10.028   3.332   2.745 -0.5502  0.1699 -0.3796
25112SOL    HW179698   9.971   3.325   2.668 -0.2865  0.5818 -0.6213
25112SOL    HW279699  10.065   3.421   2.739 -0.9614  0.4099  0.5294
25113SOL     OW79700   3.161   3.203   4.604 -0.2735 -0.0289  0.4112
25113SOL    HW179701   3.150   3.282   4.657  0.3149 -0.7174  1.5829
25113SOL    HW279702   3.081   3.199   4.552  0.1542  1.9376 -0.5128
25114SOL     OW79703   9.112   8.445   9.212  0.0969 -0.2846 -0.7103
25114SOL    HW179704   9.172   8.513   9.242  1.0078 -1.3167 -0.1191
25114SOL    HW279705   9.099   8.464   9.119  1.6064 -0.2147 -0.9260
25115SOL     OW79706   2.250   0.099   4.798 -0.3769  0.2582  0.1428
25115SOL    HW179707   2.256   0.004   4.786 -2.3453  0.1523 -0.4060
25115SOL    HW279708   2.282   0.136   4.716 -0.5859  0.0291 -0.0429
25116SOL     OW79709  10.571   5.061  11.099 -0.0367 -0.0690 -0.4027
25116SOL    HW179710  10.596   5.063  11.192 -0.6409 -1.9422 -0.1599
25116SOL    HW279711  10.644   5.104  11.054  1.2458 -0.9584  0.7421
25117SOL     OW79712   0.919   1.359   7.988  0.7695 -0.3531  0.4671
25117SOL    HW179713   0.890   1.278   8.030  0.8760 -0.3785  0.4944
25117SOL    HW279714   0.849   1.421   8.004  0.6533 -0.4608  0.3823
25118SOL     OW79715   7.225   2.070   3.460  0.1408  0.0178 -0.2943
25118SOL    HW179716   7.172   2.074   3.380 -0.0461 -1.7498 -0.2926
25118SOL    HW279717   7.309   2.107   3.434  0.9730 -2.8447 -2.1417
25119SOL     OW79718   7.355   0.048   5.630  0.1000  0.6153  0.0070
25119SOL    HW179719   7.389  -0.037   5.600  0.0238  0.3716  0.6011
25119SOL    HW279720   7.401   0.112   5.576 -0.5035  0.1621 -1.0804
25120SOL     OW79721   4.155   0.905   2.612  0.7900 -0.3562  0.4870
25120SOL    HW179722   4.219   0.933   2.678  0.3208 -1.2193  1.3489
25120SOL    HW279723   4.083   0.868   2.663 -0.3753  0.4979 -0.4609
25121SOL     OW79724   8.701   0.460   1.974  0.0900  0.0106  0.0599
25121SOL    HW179725   8.765   0.437   1.907  0.4913  0.3654  0.3151
25121SOL    HW279726   8.684   0.553   1.960  0.7071  0.2609  0.8810
25122SOL     OW79727   4.949   4.365   6.343 -0.1846  0.0645 -0.2156
25122SOL    HW179728   4.879   4.318   6.388 -0.1004 -1.0404 -1.1952
25122SOL    HW279729   5.030   4.332   6.383 -0.1735  0.4079  0.0485
25123SOL     OW79730   2.919   0.037   5.872 -0.0015  0.1789  0.0127
25123SOL    HW179731   2.940   0.018   5.781 -1.8397 -0.0202 -0.4114
25123SOL    HW279732   2.867  -0.038   5.900 -0.1256  0.6199  0.9869
25124SOL     OW79733   6.840   9.329   8.009  0.0024 -0.5139  0.3133
25124SOL    HW179734   6.847   9.417   8.045  0.3593  0.1549 -1.3273
25124SOL    HW279735   6.773   9.286   8.063 -0.8623  1.0632  0.5371
25125SOL     OW79736   3.282   0.377  10.871 -0.1027 -0.1554  0.0328
25125SOL    HW179737   3.337   0.326  10.931  0.7260  0.1112 -0.4732
25125SOL    HW279738   3.337   0.451  10.846 -1.2550  0.9465  0.6766
25126SOL     OW79739   5.883   5.201   9.823  0.2853  0.3388  0.1088
25126SOL    HW179740   5.862   5.289   9.853 -1.0587  0.0852 -0.0136
25126SOL    HW279741   5.821   5.184   9.752  0.2070 -0.8762  0.4393
25127SOL     OW79742   0.488   8.835   7.237 -0.4665 -0.0784  0.0494
25127SOL    HW179743   0.432   8.776   7.288  2.8292 -2.1599  1.5660
25127SOL    HW279744   0.475   8.921   7.279 -0.7998 -0.9589  1.8657
25128SOL     OW79745   8.348   4.745   8.078 -0.0015  0.6978  0.3450
25128SOL    HW179746   8.299   4.667   8.106  0.3185  0.4161  0.1402
25128SOL    HW279747   8.298   4.819   8.112  0.8616  0.3600  2.4839
25129SOL     OW79748   4.066   5.680   7.807  0.3068 -0.2497  0.1426
25129SOL    HW179749   4.091   5.603   7.755  2.3892  1.6773 -1.9525
25129SOL    HW279750   4.131   5.746   7.783 -1.6847  2.3339  1.4724
25130SOL     OW79751   4.902   7.465   9.550 -0.1311  0.5186  0.0140
25130SOL    HW179752   4.812   7.486   9.573 -0.4517  0.9577 -1.4876
25130SOL    HW279753   4.955   7.531   9.595 -0.6160  0.6444  0.4025
25131SOL     OW79754   4.089   2.688   3.556  0.4787 -0.0465  0.3455
25131SOL    HW179755   4.050   2.644   3.631 -0.8683  0.3487 -0.0958
25131SOL    HW279756   4.183   2.688   3.574  0.2592 -0.7498  1.5890
25132SOL     OW79757   5.470  10.930   5.122  0.2061  0.5069  0.1238
25132SOL    HW179758   5.482  10.857   5.061 -0.3712  1.6820 -1.4708
25132SOL    HW279759   5.483  10.891   5.209  0.1611 -1.4256 -0.6786
25133SOL     OW79760   6.012   6.024   3.902  0.6668  0.0796 -0.1229
25133SOL    HW179761   5.975   6.078   3.832 -1.0454 -0.2478  0.4757
25133SOL    HW279762   5.940   6.013   3.964  1.7423 -0.7710  1.0258
25134SOL     OW79763   4.791   2.882   3.570  0.2664  0.7994  0.0446
25134SOL    HW179764   4.710   2.831   3.566  1.9149 -2.0534 -0.0527
25134SOL    HW279765   4.774   2.950   3.635 -1.3653 -1.4333  2.1236
25135SOL     OW79766   4.280   7.528   1.065  0.3390 -0.7518  0.4781
25135SOL    HW179767   4.263   7.575   1.146 -0.1859  0.4982 -0.3230
25135SOL    HW279768   4.349   7.578   1.021  0.7014 -1.4779  0.2048
25136SOL     OW79769   4.332   9.936   6.503  0.4031 -0.2961  0.7663
25136SOL    HW179770   4.276   9.897   6.436 -1.7422  1.7516  1.2157
25136SOL    HW279771   4.394   9.990   6.454 -0.2711  0.1161  0.3425
25137SOL     OW79772   6.958   9.280   9.766  0.4598  0.0969  0.4748
25137SOL    HW179773   6.979   9.203   9.820  0.1719  0.3962  1.0304
25137SOL    HW279774   6.874   9.259   9.726  0.6676 -0.1212  0.1458
25138SOL     OW79775  10.090   9.714   0.220  0.2491 -0.4425 -0.2214
25138SOL    HW179776  10.174   9.674   0.199  1.2550 -0.7593  3.7135
25138SOL    HW279777  10.107   9.808   0.219  0.2531 -0.4446 -0.7564
25139SOL     OW79778   8.396   1.338   6.870 -0.0001 -0.3945  0.5443
25139SOL    HW179779   8.350   1.345   6.954 -0.4220  1.1173  0.2261
25139SOL    HW279780   8.488   1.334   6.893  0.1055  2.7159  1.0861
25140SOL     OW79781   2.513   6.908  10.546 -0.1644 -0.1985  0.2376
25140SOL    HW179782   2.582   6.859  10.502 -1.4739 -2.0388  0.1288
25140SOL    HW279783   2.486   6.852  10.619 -0.7991  0.9881  0.9508
25141SOL     OW79784   3.017   9.662   1.421  0.5752 -0.1039 -0.5373
25141SOL    HW179785   3.008   9.702   1.507  1.1740 -1.6703  0.2853
25141SOL    HW279786   2.961   9.585   1.424  0.2667  0.0532 -1.7124
25142SOL     OW79787   2.830  10.740   9.401 -0.2170 -0.3176 -0.0483
25142SOL    HW179788   2.915  10.754   9.442 -0.8407  1.8940  0.6609
25142SOL    HW279789   2.841  10.770   9.311  0.0135 -1.0132 -0.2545
25143SOL     OW79790   1.187   9.844   4.625 -0.1440 -0.4258  0.4349
25143SOL    HW179791   1.179   9.832   4.530  3.0776 -0.2880  0.0290
25143SOL    HW279792   1.137   9.923   4.643 -0.4522 -0.2000 -1.2138
25144SOL     OW79793   0.292   1.201   8.996 -0.1657 -0.1135  0.4676
25144SOL    HW179794   0.382   1.197   9.030 -0.8939  1.1833  2.7379
25144SOL    HW279795   0.283   1.291   8.965 -1.3051  0.4745  2.3351
25145SOL     OW79796   0.042   0.287   6.955  0.0183  0.1739 -0.0995
25145SOL    HW179797  -0.019   0.360   6.954  0.8699  1.2009  3.7018
25145SOL    HW279798   0.013   0.232   7.029  2.1158 -0.7083  0.1585
25146SOL     OW79799   7.667   1.386   0.568  0.0881  0.0414 -0.1091
25146SOL    HW179800   7.621   1.439   0.504 -0.6505  0.0618  0.4207
25146SOL    HW279801   7.600   1.364   0.634  0.4706 -1.1795 -0.0920
25147SOL     OW79802   4.989   0.567   7.633  0.2683 -0.8335 -0.8074
25147SOL    HW179803   4.915   0.594   7.579 -1.8859  0.6840  2.6133
25147SOL    HW279804   4.964   0.482   7.669 -0.0765 -0.1434  0.6652
25148SOL     OW79805   3.209   6.306   3.733  0.0503 -0.8429  0.0007
25148SOL    HW179806   3.302   6.322   3.748 -0.0095 -0.3309 -0.1603
25148SOL    HW279807   3.168   6.319   3.819  0.0031 -0.1139 -0.1276
25149SOL     OW79808   3.212  10.596   7.288  0.3739  0.6640 -0.2275
25149SOL    HW179809   3.139  10.534   7.282  0.9890 -0.0470 -0.5474
25149SOL    HW279810   3.287  10.548   7.253  0.8953  1.5531 -0.3630
25150SOL     OW79811   7.095   2.259   4.948 -0.2241  0.9376  0.2216
25150SOL    HW179812   7.095   2.323   5.019 -0.6402  0.4064  0.7044
25150SOL    HW279813   7.090   2.174   4.992  0.4095  0.5607 -0.4085
25151SOL     OW79814   6.542   4.363   1.566  0.0041 -0.0324  0.2832
25151SOL    HW179815   6.512   4.298   1.629 -0.0738  0.4783  0.7863
25151SOL    HW279816   6.496   4.443   1.591 -1.0886 -0.1351 -1.2733
25152SOL     OW79817   1.169   9.742   3.839  0.1181  0.0208 -0.2689
25152SOL    HW179818   1.145   9.815   3.782 -1.5784 -0.5825 -0.3885
25152SOL    HW279819   1.217   9.782   3.911 -2.8345  1.6778  0.9613
25153SOL     OW79820   9.578   7.640  10.172 -0.1562 -0.0937  0.3921
25153SOL    HW179821   9.484   7.647  10.185  0.0521  0.5507  1.7423
25153SOL    HW279822   9.615   7.707  10.229  1.0279  1.3968 -1.9552
25154SOL     OW79823   0.069   9.917   1.309  0.6205 -0.5450  0.3924
25154SOL    HW179824   0.117   9.923   1.391 -1.4648  0.9411  1.5958
25154SOL    HW279825   0.004   9.849   1.324 -0.6421  0.6519  0.4928
25155SOL     OW79826   8.891   4.886   3.559 -0.1112 -0.1850  0.2166
25155SOL    HW179827   8.856   4.966   3.520  0.9853  0.0299 -0.3839
25155SOL    HW279828   8.965   4.863   3.503  1.2192 -0.1432  1.8745
25156SOL     OW79829   4.593   6.559   5.510  0.1120 -0.4315 -0.1041
25156SOL    HW179830   4.688   6.574   5.514  0.1093 -0.2946 -0.5746
25156SOL    HW279831   4.583   6.467   5.534  0.4884 -0.8342 -1.3862
25157SOL     OW79832   9.533  10.575   8.957 -0.0176 -0.1126 -0.5970
25157SOL    HW179833   9.588  10.523   9.015 -0.0677  0.5216  0.0221
25157SOL    HW279834   9.562  10.665   8.970 -0.4957  0.1107 -1.0481
25158SOL     OW79835   4.927   9.405   1.723 -0.2227  0.1594  0.3601
25158SOL    HW179836   4.911   9.449   1.640 -0.5116  0.8193  0.7617
25158SOL    HW279837   5.022   9.412   1.736  0.1464 -1.7486 -0.8994
25159SOL     OW79838   5.936   9.588   2.636  0.1735 -0.2677  0.1357
25159SOL    HW179839   5.976   9.513   2.679 -1.5313 -0.7525  0.9853
25159SOL    HW279840   6.009   9.639   2.604  1.5601 -0.3623  2.8181
25160SOL     OW79841   5.752   1.980   9.216 -0.1048 -0.0944 -0.1338
25160SOL    HW179842   5.670   2.028   9.206 -0.2578 -0.1397  0.7668
25160SOL    HW279843   5.745   1.938   9.302  0.2898 -1.2139 -0.6251
25161SOL     OW79844  10.574   6.357   1.999  0.2185  0.1378 -0.1860
25161SOL    HW179845  10.610   6.357   1.911 -0.3109  0.3668 -0.4050
25161SOL    HW279846  10.495   6.303   1.993  0.8491 -0.9120  0.4340
25162SOL     OW79847   9.968   8.699   9.612  0.1335  0.3235 -0.3568
25162SOL    HW179848   9.965   8.618   9.562 -1.0975 -0.4139  0.8398
25162SOL    HW279849   9.877   8.717   9.635  0.7074  0.0104  2.5127
25163SOL     OW79850   9.129   4.596   9.078 -0.3930 -0.2587 -0.3043
25163SOL    HW179851   9.146   4.589   8.984 -1.1744 -1.1446 -0.3945
25163SOL    HW279852   9.051   4.542   9.092  0.0105 -0.5463  0.9353
25164SOL     OW79853   5.025   2.535   1.228  0.1557 -0.6782  0.2313
25164SOL    HW179854   4.976   2.555   1.148  0.7203 -2.4078 -0.6073
25164SOL    HW279855   4.964   2.484   1.282  0.5897 -1.7709 -0.2763
25165SOL     OW79856   5.235   5.268   1.323 -0.9480 -0.2883 -0.4931
25165SOL    HW179857   5.300   5.221   1.270 -2.7813 -1.7627 -1.5601
25165SOL    HW279858   5.282   5.343   1.358  1.5248 -1.6846 -0.6055
25166SOL     OW79859   3.971   9.940   1.224 -0.1380 -0.4704  0.2301
25166SOL    HW179860   3.980   9.935   1.319  1.0953  0.9153  0.2273
25166SOL    HW279861   4.050   9.986   1.195 -0.0364 -1.6721 -1.5640
25167SOL     OW79862   6.798   6.926   8.683 -0.5372 -0.0514 -0.1160
25167SOL    HW179863   6.738   6.852   8.671 -0.0152 -1.0278  2.5721
25167SOL    HW279864   6.743   7.003   8.669 -1.2661 -0.8691 -2.2958
25168SOL     OW79865   5.160   4.121   7.658  0.3684 -0.5449  0.1976
25168SOL    HW179866   5.127   4.038   7.623  1.1435 -0.2340 -1.3784
25168SOL    HW279867   5.082   4.172   7.679 -0.1168 -1.3023  0.2515
25169SOL     OW79868   3.593   7.151   7.488  0.5355 -0.4534  0.0017
25169SOL    HW179869   3.575   7.063   7.455  1.2474 -0.4637 -0.3787
25169SOL    HW279870   3.543   7.157   7.569  0.2965 -1.1256 -0.0894
25170SOL     OW79871   7.585   8.780   6.759  0.2399  0.1268 -0.2966
25170SOL    HW179872   7.623   8.850   6.812  2.6907 -1.2506 -0.1184
25170SOL    HW279873   7.512   8.822   6.714  1.3542  2.6996  0.1065
25171SOL     OW79874   0.462   0.454   5.507  0.2541 -0.0342  0.1107
25171SOL    HW179875   0.459   0.515   5.581 -0.6846 -0.1202  0.1555
25171SOL    HW279876   0.495   0.372   5.545  0.2035  0.0545  0.3509
25172SOL     OW79877  10.158   6.491   3.972 -0.4398  0.1740  0.2085
25172SOL    HW179878  10.179   6.584   3.973  1.2245 -0.0597 -2.5653
25172SOL    HW279879  10.213   6.453   4.040 -0.0687  1.0525  0.4102
25173SOL     OW79880   9.340  10.484   2.412 -0.2685 -0.1547  0.4646
25173SOL    HW179881   9.266  10.541   2.392 -0.2961 -0.3288  0.0619
25173SOL    HW279882   9.397  10.491   2.335  2.0184  2.8730  2.2115
25174SOL     OW79883   4.293   1.312   2.285  0.3620 -0.5253  0.2044
25174SOL    HW179884   4.258   1.254   2.354  0.8619  0.3666  1.2384
25174SOL    HW279885   4.340   1.380   2.333  0.6289  0.1882 -1.0367
25175SOL     OW79886   0.466  10.605   4.148  0.1627  0.2779  0.2204
25175SOL    HW179887   0.516  10.646   4.219  0.1571 -1.5222  1.3362
25175SOL    HW279888   0.376  10.601   4.182  0.0564 -0.0998 -0.1025
25176SOL     OW79889   3.690  10.046   5.811  0.1746 -0.0616 -0.0310
25176SOL    HW179890   3.775  10.004   5.824  0.8261  1.3828  0.5544
25176SOL    HW279891   3.704  10.137   5.834 -1.4631  0.2842 -0.2579
25177SOL     OW79892  10.448   9.136   9.675 -0.5929 -0.2195  0.3544
25177SOL    HW179893  10.395   9.215   9.681  0.8117  0.8476 -0.5623
25177SOL    HW279894  10.526   9.163   9.627  0.1314 -2.0687  0.3983
25178SOL     OW79895   4.284   6.912   2.090  0.6795  0.7083 -0.2060
25178SOL    HW179896   4.246   6.987   2.135 -1.4222 -0.9245  0.9226
25178SOL    HW279897   4.220   6.890   2.022  1.1366 -0.1990 -0.3548
25179SOL     OW79898   0.268   8.795   5.341  0.0358 -0.4853 -0.2313
25179SOL    HW179899   0.300   8.746   5.417 -0.9030  0.2306  0.6556
25179SOL    HW279900   0.289   8.887   5.361 -0.3520 -0.2743 -0.7668
25180SOL     OW79901   6.575   7.019   1.313  0.1090 -0.1068  0.0647
25180SOL    HW179902   6.553   7.006   1.220 -0.5783 -0.9257  0.3332
25180SOL    HW279903   6.637   7.093   1.312 -0.2694  0.2230 -0.9975
25181SOL     OW79904   9.997  10.577   1.459 -0.1417 -0.0561 -0.0379
25181SOL    HW179905   9.950  10.509   1.410 -1.2955  0.1088  0.8013
25181SOL    HW279906   9.949  10.657   1.440  0.8858  0.4559 -0.5822
25182SOL     OW79907   2.142   8.553   4.182  0.1698  0.6901 -0.1825
25182SOL    HW179908   2.172   8.622   4.123 -0.3288 -0.2644 -1.6004
25182SOL    HW279909   2.055   8.530   4.151 -0.5716  0.8991  1.6212
25183SOL     OW79910   7.444   0.582  10.550  0.7909 -0.5189  0.2278
25183SOL    HW179911   7.352   0.557  10.538  1.1423 -1.0878 -1.5813
25183SOL    HW279912   7.441   0.677  10.563 -0.0703 -0.5818  0.5854
25184SOL     OW79913  10.154   5.896   4.982 -0.0911 -0.1440 -0.0681
25184SOL    HW179914  10.108   5.812   4.984  0.1258 -0.2678 -0.2516
25184SOL    HW279915  10.189   5.901   4.893 -1.7769  1.0434 -0.7236
25185SOL     OW79916   9.866   5.827   2.297 -0.2521 -0.9108 -0.1087
25185SOL    HW179917   9.904   5.741   2.319 -0.3038 -0.6457  1.0925
25185SOL    HW279918   9.865   5.874   2.380 -1.2437 -0.1325 -0.5481
25186SOL     OW79919  11.118   9.323   0.014 -0.4340 -0.1124 -0.4582
25186SOL    HW179920  11.132   9.280   0.098 -0.0002 -0.2738 -0.6126
25186SOL    HW279921  11.162   9.407   0.022  0.8321 -0.6975 -1.0093
25187SOL     OW79922   5.010   9.424   2.223  0.0939  0.0294 -0.6481
25187SOL    HW179923   4.916   9.420   2.244 -0.2475  2.9659 -1.1795
25187SOL    HW279924   5.053   9.426   2.308 -0.5288  1.0813 -0.3346
25188SOL     OW79925   2.466   1.520   0.976 -0.5204  0.0892 -0.5748
25188SOL    HW179926   2.456   1.594   0.915  0.1894  0.8302  0.1835
25188SOL    HW279927   2.377   1.498   1.002 -0.8317 -0.1355 -1.7386
25189SOL     OW79928   9.410   4.186   8.784 -0.4394 -0.5649 -0.8298
25189SOL    HW179929   9.461   4.134   8.846 -1.7744 -0.4696  0.4085
25189SOL    HW279930   9.441   4.276   8.797  0.8148 -0.8193 -1.8987
25190SOL     OW79931   5.381   6.136   7.183  0.2644  0.5634 -0.8594
25190SOL    HW179932   5.434   6.097   7.253  0.8980  0.7124 -1.2444
25190SOL    HW279933   5.421   6.222   7.169 -0.5374  0.9743 -0.6632
25191SOL     OW79934   7.009   5.892   8.489 -0.7333  0.7872 -0.2584
25191SOL    HW179935   7.059   5.826   8.441  0.9250  1.7069  0.1394
25191SOL    HW279936   6.955   5.934   8.422 -0.8469 -0.0847 -0.7316
25192SOL     OW79937   0.162   0.255   2.911  0.5882  0.1195 -0.4199
25192SOL    HW179938   0.255   0.273   2.925  0.5498 -0.3149  0.4215
25192SOL    HW279939   0.119   0.289   2.989  0.2254 -1.2222 -0.0198
25193SOL     OW79940  10.567   7.044   1.745 -0.8969 -0.3065 -0.8484
25193SOL    HW179941  10.553   7.024   1.838 -1.7668  0.2391 -0.8539
25193SOL    HW279942  10.662   7.037   1.734 -0.4473  1.9882  0.6604
25194SOL     OW79943   5.148  10.297   4.296 -0.5068 -0.2304 -0.5925
25194SOL    HW179944   5.201  10.367   4.257 -1.1643  0.5368 -0.1420
25194SOL    HW279945   5.058  10.318   4.270 -0.9889  0.3943  1.4512
25195SOL     OW79946  10.222   4.329   2.001  0.1939  0.5102  0.5578
25195SOL    HW179947  10.298   4.323   2.059  1.7413  2.8434 -1.0596
25195SOL    HW279948  10.259   4.340   1.913 -1.9697  1.6488 -0.2977
25196SOL     OW79949   4.140   2.834   4.785 -0.2240  0.1877 -0.3957
25196SOL    HW179950   4.101   2.796   4.706  0.5907 -1.3598 -0.0885
25196SOL    HW279951   4.217   2.881   4.753  0.4704 -0.9684 -0.5026
25197SOL     OW79952   4.966   8.428   0.486 -0.4128  0.0754  0.1086
25197SOL    HW179953   4.937   8.414   0.576 -0.2144  2.1052  0.5478
25197SOL    HW279954   5.061   8.422   0.489 -0.3721  0.6638  0.1586
25198SOL     OW79955   6.702  10.766   1.635 -0.0876  0.4344  0.3005
25198SOL    HW179956   6.791  10.789   1.662 -0.5272  0.9456  1.3646
25198SOL    HW279957   6.703  10.670   1.629  0.5745  0.4467  0.1205
25199SOL     OW79958   6.599  10.088  10.253 -0.2187  0.4129 -0.3021
25199SOL    HW179959   6.510  10.122  10.257 -0.5290 -0.5228  2.1458
25199SOL    HW279960   6.598  10.009  10.306  2.1658  0.5785  0.1312
25200SOL     OW79961   9.374   9.014   4.840 -0.2615  0.1821 -0.1015
25200SOL    HW179962   9.444   8.971   4.792 -0.7246 -0.2525 -0.4030
25200SOL    HW279963   9.297   8.960   4.823 -0.6025  0.4706  0.4846
25201SOL     OW79964   8.902   1.510   4.442 -0.3797 -0.5244  0.6222
25201SOL    HW179965   8.913   1.430   4.494 -0.0314 -0.6132  0.4107
25201SOL    HW279966   8.869   1.574   4.504 -1.1412 -0.9684  0.6864
25202SOL     OW79967   2.167   8.354   7.220  0.0552 -0.3268 -0.5159
25202SOL    HW179968   2.099   8.325   7.159  1.1173 -0.7842 -1.4909
25202SOL    HW279969   2.249   8.320   7.185  0.6087 -1.5927  1.7423
25203SOL     OW79970   3.924   6.422   8.840  0.6518  0.3587  0.2037
25203SOL    HW179971   4.000   6.445   8.786  0.3962  0.8102  0.0309
25203SOL    HW279972   3.882   6.350   8.792 -0.1002  1.3704 -0.7018
25204SOL     OW79973   8.372   2.316   2.336 -0.1561 -0.0447 -0.6491
25204SOL    HW179974   8.384   2.406   2.306 -0.5345 -0.1052 -0.9822
25204SOL    HW279975   8.350   2.267   2.257  2.0545 -0.8358 -0.8539
25205SOL     OW79976   8.661   4.432   4.980 -0.0335  0.1973 -0.8596
25205SOL    HW179977   8.582   4.470   5.018  0.2176 -0.4326  0.3823
25205SOL    HW279978   8.638   4.411   4.890 -1.8333 -1.5063 -0.0626
25206SOL     OW79979   4.172   2.199   2.230 -0.0935 -0.1240  0.4445
25206SOL    HW179980   4.180   2.133   2.299  3.8477 -0.0338  0.3315
25206SOL    HW279981   4.244   2.178   2.170 -2.5027  0.6347 -2.9939
25207SOL     OW79982   2.874   9.951   1.544 -0.1994  0.3719  0.0581
25207SOL    HW179983   2.809   9.967   1.613 -1.1424  0.9898 -0.9461
25207SOL    HW279984   2.822   9.943   1.464  0.9736  0.8047 -0.7606
25208SOL     OW79985   5.853   2.758   6.915  0.1880 -0.5671 -0.0300
25208SOL    HW179986   5.846   2.831   6.853 -0.4323 -0.9825 -0.4590
25208SOL    HW279987   5.938   2.719   6.897  1.2558  0.9731  1.2610
25209SOL     OW79988   0.322   3.362   0.564 -0.2393  0.9165  0.7429
25209SOL    HW179989   0.235   3.393   0.540  0.1535  1.7171  0.3181
25209SOL    HW279990   0.339   3.289   0.505  0.1454  1.9829 -0.5164
25210SOL     OW79991   3.051   6.170   8.215 -0.2984 -0.6561  0.1322
25210SOL    HW179992   2.967   6.139   8.248 -0.1763 -0.8539  0.2629
25210SOL    HW279993   3.111   6.158   8.289 -0.5365  1.1927  0.6725
25211SOL     OW79994   1.305   2.042   5.190 -0.3035 -0.2117 -0.1836
25211SOL    HW179995   1.270   2.097   5.261 -0.8717 -0.2823 -0.4036
25211SOL    HW279996   1.319   2.103   5.118  0.8574 -0.0324  0.1801
25212SOL     OW79997   7.933   9.860   3.314  0.1686 -0.1014 -0.4103
25212SOL    HW179998   7.904   9.832   3.226 -1.1433  0.4603 -0.1799
25212SOL    HW279999   8.007   9.803   3.333 -1.0353 -1.9340 -0.8830
25213SOL     OW80000   8.575   2.916  10.770 -0.1968 -0.1378 -0.4201
25213SOL    HW180001   8.583   2.976  10.844  0.9488  1.2473 -1.6252
25213SOL    HW280002   8.523   2.843  10.805  0.3983  0.4036  1.7671
25214SOL     OW80003  10.681   3.220   2.431  0.0989  0.1996 -0.3820
25214SOL    HW180004  10.739   3.243   2.503 -0.4732  0.9689 -0.1543
25214SOL    HW280005  10.638   3.139   2.460  1.3297 -0.6117 -0.7289
25215SOL     OW80006   3.900   1.859   2.845  0.2995  0.3128  0.5363
25215SOL    HW180007   3.819   1.817   2.876 -0.3716  2.1735  1.4501
25215SOL    HW280008   3.969   1.798   2.871 -0.6282 -0.2793  1.7441
25216SOL     OW80009   2.931   7.145   9.984 -0.0816  0.0055  0.1923
25216SOL    HW180010   3.024   7.165  10.000 -0.4559  2.4797 -0.1813
25216SOL    HW280011   2.896   7.122  10.069  0.7836 -0.5219  0.4172
25217SOL     OW80012   0.885   3.708   5.631 -0.3331 -0.2360 -0.0328
25217SOL    HW180013   0.967   3.684   5.588  0.0359  0.3666  0.3127
25217SOL    HW280014   0.898   3.687   5.723 -0.7236 -0.5171 -0.0355
25218SOL     OW80015   6.370   6.170   5.793 -0.0981 -0.6307 -0.1156
25218SOL    HW180016   6.434   6.099   5.792  1.7079  0.9282  0.0037
25218SOL    HW280017   6.421   6.249   5.810 -2.0165  0.7517 -0.3958
25219SOL     OW80018  10.609   5.911   0.446 -0.9808 -0.3765  0.9914
25219SOL    HW180019  10.592   5.998   0.482  1.8549 -0.4394  2.8529
25219SOL    HW280020  10.666   5.927   0.371 -2.1246 -0.5722  0.0543
25220SOL     OW80021   0.816   7.518   3.465 -0.0404 -0.2395 -0.1305
25220SOL    HW180022   0.832   7.603   3.507  1.2970 -1.0954  1.1781
25220SOL    HW280023   0.774   7.540   3.382  2.6809  1.8801 -1.0891
25221SOL     OW80024   7.424   7.350   3.373  0.0621  0.7155  0.1662
25221SOL    HW180025   7.499   7.410   3.366 -0.7520  1.7326  0.0004
25221SOL    HW280026   7.351   7.406   3.398 -0.3875 -0.4729  1.6743
25222SOL     OW80027   7.027  10.499   7.928 -0.1010 -0.1637 -0.0172
25222SOL    HW180028   6.932  10.496   7.921 -0.2798 -1.3634  2.1900
25222SOL    HW280029   7.057  10.447   7.853 -1.2785 -1.4095  0.3242
25223SOL     OW80030   4.754   1.914   7.108  0.2380 -0.3391  0.2374
25223SOL    HW180031   4.798   1.899   7.024 -1.5317 -2.1428 -0.4494
25223SOL    HW280032   4.763   1.831   7.156 -5.5117 -2.5635 -1.5767
25224SOL     OW80033   8.336   7.177   0.246  0.5627  0.5702 -0.7212
25224SOL    HW180034   8.422   7.149   0.278  0.4293  0.9260 -0.0258
25224SOL    HW280035   8.337   7.272   0.255 -0.1374  0.5279 -0.0770
25225SOL     OW80036   1.396   9.357   5.108 -0.3942 -0.4481  0.7416
25225SOL    HW180037   1.366   9.298   5.038  0.5451  1.0303 -0.9820
25225SOL    HW280038   1.339   9.433   5.101  0.0746 -0.0472  1.2453
25226SOL     OW80039  10.600   0.188   0.634  0.1459  0.2214  0.4117
25226SOL    HW180040  10.565   0.102   0.659 -0.2077  0.0713 -0.5516
25226SOL    HW280041  10.615   0.233   0.717  0.9747 -1.0160  0.9602
25227SOL     OW80042  10.056   2.126   1.772  0.2318 -0.5215  0.2291
25227SOL    HW180043  10.092   2.039   1.787  1.3440  0.0287  0.9090
25227SOL    HW280044  10.109   2.183   1.828  0.0399  0.7027 -0.8080
25228SOL     OW80045   2.277   8.518   8.548  0.1579 -0.6064  0.0642
25228SOL    HW180046   2.304   8.609   8.544  0.2709 -0.5675  1.2744
25228SOL    HW280047   2.270   8.499   8.641  0.5070 -1.9428 -0.1489
25229SOL     OW80048   2.187   8.427  11.066  0.1651  0.2406 -0.1014
25229SOL    HW180049   2.123   8.384  11.009  0.4850  1.7450 -1.6793
25229SOL    HW280050   2.172   8.389  11.153 -0.7458 -1.6868 -1.0548
25230SOL     OW80051   8.665   7.031   3.401 -0.0337 -0.4006 -0.5455
25230SOL    HW180052   8.649   7.102   3.340 -0.3116 -0.0443 -0.0698
25230SOL    HW280053   8.752   6.997   3.377 -1.3225 -2.2482 -3.0459
25231SOL     OW80054   5.095   1.836   0.497  0.4734  0.2620  0.4821
25231SOL    HW180055   5.181   1.877   0.490  0.4741  0.4119  1.2770
25231SOL    HW280056   5.090   1.807   0.587  0.8709 -2.3987 -0.2658
25232SOL     OW80057  10.646   1.052   6.002 -0.1429 -0.0536  0.0703
25232SOL    HW180058  10.736   1.057   6.034 -0.2818 -0.3393  0.5115
25232SOL    HW280059  10.618   0.962   6.021 -0.3409 -0.1302 -0.5538
25233SOL     OW80060   4.099  10.629   2.356 -0.5961 -0.1584 -0.0512
25233SOL    HW180061   4.010  10.616   2.325 -0.0735 -3.2616 -0.6666
25233SOL    HW280062   4.152  10.573   2.299  1.8752  2.0980 -0.1404
25234SOL     OW80063   8.495  10.235   6.308 -0.1542  0.3682  0.0524
25234SOL    HW180064   8.427  10.216   6.243 -0.5415 -1.4159  0.9346
25234SOL    HW280065   8.539  10.313   6.274 -1.0534  0.1265 -1.7823
25235SOL     OW80066   5.761   2.660   7.981  0.3892  0.4333 -0.0852
25235SOL    HW180067   5.785   2.672   7.889 -1.8267  1.3739 -0.6276
25235SOL    HW280068   5.842   2.674   8.030  1.5377  0.2670 -1.8639
25236SOL     OW80069   8.127  10.224   8.640 -0.5511  0.0338 -0.3063
25236SOL    HW180070   8.177  10.163   8.586 -1.1195  0.1999 -1.0344
25236SOL    HW280071   8.116  10.302   8.586  0.8109  1.1055  0.8886
25237SOL     OW80072   4.315   4.300   7.843  0.1393 -0.7437  0.0046
25237SOL    HW180073   4.350   4.389   7.846  0.3336 -0.8059 -0.3660
25237SOL    HW280074   4.244   4.304   7.779 -1.5027 -0.2862  1.7430
25238SOL     OW80075   7.403   6.629   1.738 -0.3915 -0.0766  0.1832
25238SOL    HW180076   7.342   6.595   1.672 -1.3685 -0.7102  1.3728
25238SOL    HW280077   7.401   6.564   1.808  1.6890 -0.1230  0.2739
25239SOL     OW80078   7.569   2.307   4.986  0.0400 -0.4604 -0.2157
25239SOL    HW180079   7.500   2.316   5.052 -0.5058  0.6990 -0.9072
25239SOL    HW280080   7.649   2.335   5.031 -0.1804 -0.4806  0.1938
25240SOL     OW80081   6.442   8.393   8.965 -0.4943 -0.3176 -0.5440
25240SOL    HW180082   6.481   8.464   8.915 -1.9841 -0.8765 -2.6261
25240SOL    HW280083   6.503   8.319   8.954  0.8785  0.4385  1.3441
25241SOL     OW80084   1.735   3.647   5.602  0.8377  0.0115  0.1536
25241SOL    HW180085   1.770   3.732   5.573 -0.0854  0.9188  1.5522
25241SOL    HW280086   1.749   3.589   5.527  1.4984  1.3965 -0.8556
25242SOL     OW80087   4.168   6.933   9.093  0.1207 -0.5339  0.1310
25242SOL    HW180088   4.224   6.982   9.152 -0.0859  0.5874 -0.5791
25242SOL    HW280089   4.144   6.995   9.024 -0.3081 -1.5708 -0.6956
25243SOL     OW80090   4.542   9.019   5.776  0.0983 -0.7594  0.3809
25243SOL    HW180091   4.620   9.025   5.832  1.0089 -2.4111 -0.6422
25243SOL    HW280092   4.573   9.048   5.690 -0.6893 -0.4813  0.1843
25244SOL     OW80093   8.828   3.686   6.268  0.2997  0.1539  0.2845
25244SOL    HW180094   8.821   3.627   6.193  1.4090 -0.7309  0.8382
25244SOL    HW280095   8.814   3.629   6.344  2.2027  0.4047  0.8737
25245SOL     OW80096   9.068   7.542  10.109 -0.0741  0.2151 -0.6541
25245SOL    HW180097   9.043   7.563  10.018  0.2244 -0.1422 -0.8192
25245SOL    HW280098   8.992   7.495  10.144 -1.3486  2.7067  0.1613
25246SOL     OW80099   9.801   2.834   7.549  0.1227  0.1411 -0.0473
25246SOL    HW180100   9.785   2.741   7.570  2.6784 -0.2376  0.5468
25246SOL    HW280101   9.892   2.849   7.574 -0.3075  2.9333  0.1708
25247SOL     OW80102   1.650   3.957   8.340 -0.3939  0.3430 -0.0885
25247SOL    HW180103   1.712   4.017   8.381 -0.3524 -0.3701  0.9163
25247SOL    HW280104   1.703   3.881   8.316 -0.5308  0.5104 -0.9430
25248SOL     OW80105   2.584   8.869   2.035 -0.1705  0.3939 -0.2711
25248SOL    HW180106   2.564   8.959   2.062 -0.2369  0.2388  0.2076
25248SOL    HW280107   2.500   8.834   2.004 -0.4886  0.0048  0.9848
25249SOL     OW80108   1.889  10.454   0.103 -0.2542  0.1075  0.6642
25249SOL    HW180109   1.834  10.388   0.061  0.8755  0.0727 -0.8215
25249SOL    HW280110   1.864  10.450   0.195 -1.7453 -0.8610  0.2584
25250SOL     OW80111   9.380   9.476   1.934  0.0302  0.3866 -0.1092
25250SOL    HW180112   9.439   9.550   1.918  0.4180 -0.1913 -1.4825
25250SOL    HW280113   9.332   9.466   1.852 -0.4540 -0.5056  0.2745
25251SOL     OW80114   4.235   2.554   1.594 -0.4299 -0.1447  0.4204
25251SOL    HW180115   4.318   2.593   1.622 -0.7990  0.0701  1.2519
25251SOL    HW280116   4.183   2.629   1.564  0.1713 -0.4369 -1.4472
25252SOL     OW80117   9.563   9.875   8.443 -0.0803  0.2829 -0.2810
25252SOL    HW180118   9.593   9.858   8.532 -2.2893 -1.4871  0.2055
25252SOL    HW280119   9.522   9.962   8.448  0.4490  0.5050  0.2485
25253SOL     OW80120   8.488  10.631   4.040 -0.7207 -0.1818  0.5185
25253SOL    HW180121   8.421  10.697   4.023  0.1524  0.7178  0.4301
25253SOL    HW280122   8.441  10.548   4.043 -1.9222  0.4983  1.1349
25254SOL     OW80123   6.175  10.156   6.508  0.1891 -0.1698 -0.4481
25254SOL    HW180124   6.228  10.139   6.431  0.9923 -0.6909  0.2018
25254SOL    HW280125   6.109  10.218   6.479  1.4081  0.8223 -1.1702
25255SOL     OW80126   0.063   4.166   9.803 -0.2652 -0.1666 -0.0315
25255SOL    HW180127  -0.009   4.171   9.741 -1.5731 -1.4290  1.2989
25255SOL    HW280128   0.071   4.254   9.839  0.1851  0.4554 -1.5919
25256SOL     OW80129   3.151   5.392   8.595  0.1934  0.2319 -0.0266
25256SOL    HW180130   3.132   5.333   8.668 -0.4559  1.5023  0.8789
25256SOL    HW280131   3.080   5.376   8.533 -0.7224  0.9390  0.7990
25257SOL     OW80132   3.514   0.762   4.951  0.6073  0.1153  0.1799
25257SOL    HW180133   3.505   0.848   4.910 -1.3167 -0.5420 -0.8967
25257SOL    HW280134   3.532   0.702   4.879 -0.0739 -0.6560  0.6281
25258SOL     OW80135   7.185   0.612   8.595 -0.0242 -0.0354 -0.2124
25258SOL    HW180136   7.249   0.674   8.559 -0.3149  0.4616  0.1202
25258SOL    HW280137   7.113   0.614   8.532  1.0781 -2.0711 -1.6575
25259SOL     OW80138  10.310  10.020   1.323  0.3599  0.0145  0.3529
25259SOL    HW180139  10.263   9.979   1.396 -0.2378 -1.7059 -0.9208
25259SOL    HW280140  10.242  10.066   1.273  0.6128  0.4448  0.4056
25260SOL     OW80141  10.507   4.184   7.538  0.2471 -0.8071  0.3845
25260SOL    HW180142  10.429   4.146   7.498 -0.5435 -2.0716  2.9077
25260SOL    HW280143  10.475   4.236   7.611  1.7087 -0.2890  0.6994
25261SOL     OW80144   9.295   7.629  10.222  0.0827  0.4526 -0.1945
25261SOL    HW180145   9.271   7.718  10.247 -0.9162  0.4077 -0.9199
25261SOL    HW280146   9.212   7.588  10.198  0.4215 -0.9273  0.8689
25262SOL     OW80147   6.279  10.222   9.567  0.1388 -0.0462  0.0273
25262SOL    HW180148   6.329  10.299   9.539 -1.0641  2.2072  3.4791
25262SOL    HW280149   6.188  10.245   9.551 -0.4429  0.4952  3.4031
25263SOL     OW80150   9.085   3.771   2.345  0.0701  0.1869  0.3860
25263SOL    HW180151   9.015   3.734   2.291  0.7105 -1.1229  0.4234
25263SOL    HW280152   9.145   3.812   2.283  0.4912 -0.7780  0.1533
25264SOL     OW80153   3.421   2.527   7.914 -0.2260  0.0025 -0.1247
25264SOL    HW180154   3.329   2.556   7.909 -0.7001 -1.2994  0.4448
25264SOL    HW280155   3.472   2.607   7.903 -1.4229  0.7045 -0.8295
25265SOL     OW80156   2.401   5.758   1.006  0.0815 -0.0954  0.6166
25265SOL    HW180157   2.360   5.685   1.052  0.7680 -0.3826  0.7844
25265SOL    HW280158   2.407   5.729   0.915 -0.8172  0.2731  0.4268
25266SOL     OW80159   9.331   0.986   2.411  0.3018 -0.3656  0.0455
25266SOL    HW180160   9.426   0.993   2.427  0.0919  1.5506  0.7214
25266SOL    HW280161   9.306   0.903   2.451  1.4313 -0.0899  1.3945
25267SOL     OW80162   0.437   2.529   5.124 -0.1897  0.1197 -0.2748
25267SOL    HW180163   0.494   2.567   5.057  0.7185  1.1009  0.9971
25267SOL    HW280164   0.376   2.599   5.146 -1.1973 -0.5650 -0.8429
25268SOL     OW80165   0.476   6.165  10.761  0.0515 -0.1958  0.2298
25268SOL    HW180166   0.524   6.084  10.746 -0.7238 -0.2848 -2.2500
25268SOL    HW280167   0.523   6.230  10.708  0.3341  0.8774  1.7415
25269SOL     OW80168   3.141   9.773   0.706 -0.5146  0.1572  0.2653
25269SOL    HW180169   3.121   9.864   0.726 -1.3717  0.1727 -0.6142
25269SOL    HW280170   3.067   9.724   0.741 -0.5188 -0.1121 -0.1154
25270SOL     OW80171  10.195   0.655   1.304  0.2390  0.6675  0.1721
25270SOL    HW180172  10.184   0.682   1.395 -2.2514  1.7659 -0.3675
25270SOL    HW280173  10.177   0.561   1.304  1.6549  0.3864  1.0023
25271SOL     OW80174  10.840   6.559   1.586 -0.3986  0.3519 -0.5492
25271SOL    HW180175  10.870   6.474   1.617 -0.6472  0.6500  0.5552
25271SOL    HW280176  10.792   6.596   1.660  1.3184  2.2622 -0.3003
25272SOL     OW80177   1.861   2.948   4.930 -0.0183 -0.1218  0.2076
25272SOL    HW180178   1.861   2.963   4.835  1.4423 -0.3638  0.1426
25272SOL    HW280179   1.931   2.885   4.944 -0.5172 -0.4320  1.4113
25273SOL     OW80180   1.163   2.944   8.221  0.0758 -0.1008  0.5657
25273SOL    HW180181   1.082   2.943   8.271 -0.3352 -1.4113 -0.0651
25273SOL    HW280182   1.232   2.948   8.287 -0.4837  1.5291  1.0870
25274SOL     OW80183   8.702   5.122   0.778 -0.4592  0.0219 -0.2058
25274SOL    HW180184   8.610   5.148   0.791 -0.2557  0.6113  0.0794
25274SOL    HW280185   8.696   5.042   0.726 -1.1419 -0.0085 -0.1013
25275SOL     OW80186   5.685   4.220  11.049  0.2254 -0.0224  0.3940
25275SOL    HW180187   5.623   4.287  11.018 -1.4320 -0.7147  1.9838
25275SOL    HW280188   5.739   4.200  10.973 -1.2925  0.8823 -0.9972
25276SOL     OW80189   6.934   0.244   2.100  0.0242  0.2930  0.3219
25276SOL    HW180190   6.852   0.212   2.063  0.8539  0.5292 -1.8465
25276SOL    HW280191   6.914   0.258   2.193 -2.0095 -0.8329  0.1169
25277SOL     OW80192   8.922   6.125   9.552 -0.3466  0.0224  0.0557
25277SOL    HW180193   9.004   6.076   9.550 -1.5525 -2.1132 -0.3257
25277SOL    HW280194   8.947   6.215   9.532  2.0459 -0.3076  1.2338
25278SOL     OW80195   7.626   6.676   4.408 -0.2513  0.0007  0.6891
25278SOL    HW180196   7.585   6.636   4.484 -1.1106 -0.8423 -0.1937
25278SOL    HW280197   7.553   6.700   4.351  0.3101  1.6480  0.5986
25279SOL     OW80198   0.337   9.268   5.207 -0.4451 -0.6450 -0.0774
25279SOL    HW180199   0.313   9.199   5.270 -1.4898  0.3174  0.6272
25279SOL    HW280200   0.359   9.221   5.127  0.4820 -1.8887  0.8551
25280SOL     OW80201   4.229   0.890   3.630 -0.1474  0.0481 -0.3776
25280SOL    HW180202   4.136   0.882   3.610 -0.2012 -0.9366  0.1838
25280SOL    HW280203   4.259   0.799   3.637  0.3619  0.3312  1.6548
25281SOL     OW80204   6.291   6.434   4.274 -0.2234  0.7501 -0.3247
25281SOL    HW180205   6.317   6.526   4.277  1.2131  0.3663  1.8722
25281SOL    HW280206   6.247   6.419   4.358 -1.5311 -0.3002 -1.1681
25282SOL     OW80207   0.001   2.552   5.865  0.1572 -0.0088  0.6967
25282SOL    HW180208  -0.001   2.636   5.820 -0.0963 -0.3417  0.0705
25282SOL    HW280209  -0.070   2.557   5.929 -1.1913 -0.4651 -0.6905
25283SOL     OW80210   2.839   5.751  10.665  0.0720  0.4105  0.7379
25283SOL    HW180211   2.901   5.713  10.603 -0.5059  1.1754 -0.3536
25283SOL    HW280212   2.755   5.745  10.621 -0.5028  0.1376  1.8499
25284SOL     OW80213  10.815   7.197   9.676 -0.4494  0.2094  0.0697
25284SOL    HW180214  10.852   7.262   9.617 -1.8131  0.6162 -0.3768
25284SOL    HW280215  10.847   7.113   9.643  1.1471  0.6065  0.5188
25285SOL     OW80216  10.593   0.267   7.661  0.0155 -0.1263 -0.2766
25285SOL    HW180217  10.614   0.229   7.576  2.8866  0.2259  0.1751
25285SOL    HW280218  10.507   0.231   7.683  0.7184 -3.0062 -1.7493
25286SOL     OW80219  10.787   3.171  10.410 -0.3347  0.3250 -0.8034
25286SOL    HW180220  10.869   3.189  10.365  0.3105 -0.1256  0.1755
25286SOL    HW280221  10.739   3.254  10.406  0.4886  0.8120 -0.7068
25287SOL     OW80222  10.798   7.919   9.648  0.0056 -1.0504 -0.2518
25287SOL    HW180223  10.764   7.886   9.731 -2.0156 -0.5616 -0.8309
25287SOL    HW280224  10.803   8.014   9.660  2.1065 -1.1748  0.1149
25288SOL     OW80225   6.267   2.658   2.584  0.3116  0.2136 -0.5921
25288SOL    HW180226   6.342   2.713   2.563  0.9418 -0.9038 -1.3443
25288SOL    HW280227   6.286   2.624   2.672  1.0771 -0.6587 -1.0732
25289SOL     OW80228   5.628   1.399   9.910 -0.0041  0.0234  0.1871
25289SOL    HW180229   5.702   1.351   9.946  0.7350  0.8564 -0.1773
25289SOL    HW280230   5.591   1.340   9.843 -0.5131 -0.9389  1.2851
25290SOL     OW80231   3.845  10.468   4.542  0.0671 -0.1584  0.4689
25290SOL    HW180232   3.844  10.515   4.459 -0.6729 -0.6049  0.2195
25290SOL    HW280233   3.819  10.378   4.519 -1.8494  0.1052  1.4106
25291SOL     OW80234   1.347   0.374   3.142 -0.1317 -0.0689 -0.0739
25291SOL    HW180235   1.300   0.453   3.169 -0.1878 -0.7064  1.8913
25291SOL    HW280236   1.439   0.399   3.143 -0.2521  0.5072 -1.4945
25292SOL     OW80237   9.858   0.850   6.880 -0.0139 -0.2940 -0.2013
25292SOL    HW180238   9.927   0.875   6.941  1.2704 -0.4002 -1.5620
25292SOL    HW280239   9.782   0.903   6.907  0.4057 -0.5804  1.6547
25293SOL     OW80240   8.036   7.617   9.745 -0.6068  0.1540  0.0430
25293SOL    HW180241   8.014   7.618   9.838  0.7184 -0.9697  0.4066
25293SOL    HW280242   8.001   7.533   9.713  2.0042 -1.1816  0.4074
25294SOL     OW80243   9.581  11.019   0.330 -0.2280 -0.5934  0.5063
25294SOL    HW180244   9.491  10.992   0.311 -0.2846 -1.4707  1.9062
25294SOL    HW280245   9.635  10.946   0.299 -0.0313 -0.3336  0.2295
25295SOL     OW80246   2.480   2.425   3.753  0.4685  0.0067 -0.5961
25295SOL    HW180247   2.403   2.448   3.804 -0.6352  0.8694 -2.5248
25295SOL    HW280248   2.470   2.332   3.734  0.2916 -0.0521 -0.2165
25296SOL     OW80249   9.673   6.336   3.519 -0.3268  0.2903 -0.1058
25296SOL    HW180250   9.754   6.320   3.470 -0.6172 -0.6925 -0.2931
25296SOL    HW280251   9.684   6.424   3.556  1.3388 -0.2966  0.8870
25297SOL     OW80252   1.492   5.829   7.685  0.2283 -0.1060 -0.1663
25297SOL    HW180253   1.471   5.806   7.595  1.3121  1.6117 -0.9114
25297SOL    HW280254   1.458   5.918   7.695 -1.5022 -0.9066  1.7355
25298SOL     OW80255   5.838   2.695   7.174 -0.1288  0.2679 -0.1727
25298SOL    HW180256   5.877   2.743   7.101 -0.2497  0.9709  0.2135
25298SOL    HW280257   5.885   2.728   7.251  0.3702 -0.8576  0.0220
25299SOL     OW80258   3.176   8.119  10.307 -0.0098  0.7530  0.3223
25299SOL    HW180259   3.146   8.208  10.326  1.4416  0.8714  2.4557
25299SOL    HW280260   3.231   8.096  10.382  2.1036 -0.8202 -1.5528
25300SOL     OW80261  10.892  10.233   2.699 -0.3448 -0.2344 -0.3061
25300SOL    HW180262  10.902  10.138   2.695  0.4568 -0.1310 -0.8544
25300SOL    HW280263  10.802  10.245   2.730 -0.6512 -1.1709 -0.7702
25301SOL     OW80264   8.471   0.873   7.800 -0.1214  0.8152  0.3806
25301SOL    HW180265   8.401   0.930   7.832 -1.6502 -0.0807 -1.2306
25301SOL    HW280266   8.483   0.898   7.708  2.9547  2.1440  1.0188
25302SOL     OW80267   6.531   3.615   8.790 -0.0121  0.4392  0.0367
25302SOL    HW180268   6.512   3.699   8.747 -0.4694  0.5633  0.4839
25302SOL    HW280269   6.452   3.594   8.839  0.7395  0.6373  1.3855
25303SOL     OW80270  10.872   5.936   7.625 -0.0164  0.0345  0.3045
25303SOL    HW180271  10.833   5.967   7.707 -0.9672 -1.7297  0.5492
25303SOL    HW280272  10.904   6.016   7.583 -0.5556  1.1131  1.8370
25304SOL     OW80273   1.611   8.263   3.491  0.3871  0.1311  0.4150
25304SOL    HW180274   1.606   8.305   3.577  0.1681  1.1519 -0.0849
25304SOL    HW280275   1.524   8.225   3.478  1.0747 -1.9814  1.5865
25305SOL     OW80276   4.261   7.361   7.571  0.0596 -0.4382  0.3890
25305SOL    HW180277   4.243   7.455   7.566  0.4665 -0.3928 -0.4999
25305SOL    HW280278   4.330   7.353   7.637  0.4633 -0.0384  0.0240
25306SOL     OW80279  11.015   3.611  10.110  0.0893  0.4141  0.4124
25306SOL    HW180280  11.084   3.645  10.053  0.6444  1.7188  1.7937
25306SOL    HW280281  10.983   3.688  10.157 -2.1370 -0.2010  0.0230
25307SOL     OW80282  10.993   1.019   2.116  0.0361 -0.2478 -0.3126
25307SOL    HW180283  11.064   1.016   2.180 -0.1047 -1.1123 -0.1740
25307SOL    HW280284  10.967   1.111   2.113 -0.4619 -0.2817  1.4499
25308SOL     OW80285   1.136   9.689   5.940 -0.1353 -0.2008 -0.9407
25308SOL    HW180286   1.198   9.669   5.870  2.0883  1.1415  0.5257
25308SOL    HW280287   1.154   9.779   5.964 -1.6491 -0.2463  0.5910
25309SOL     OW80288   3.110  11.080   9.545 -0.1666  0.1828  0.0002
25309SOL    HW180289   3.097  11.056   9.453 -0.9210 -1.9123  0.6026
25309SOL    HW280290   3.032  11.048   9.590  0.8653 -0.2117  1.6027
25310SOL     OW80291   8.654   3.042   7.546 -0.1756 -0.7970 -0.4795
25310SOL    HW180292   8.594   3.081   7.482  1.4519  1.0955 -0.9618
25310SOL    HW280293   8.631   3.084   7.629  1.7945  1.7132 -1.0561
25311SOL     OW80294   2.353   0.612   5.302  0.0407 -0.1843 -0.1590
25311SOL    HW180295   2.350   0.680   5.369  2.1627 -0.4920  0.3281
25311SOL    HW280296   2.310   0.651   5.226 -1.5660  0.5199  1.0480
25312SOL     OW80297   0.706   0.676   5.445  0.0113  0.0604  0.3986
25312SOL    HW180298   0.704   0.735   5.370  0.2520  0.5060  0.7348
25312SOL    HW280299   0.648   0.716   5.509 -2.4364 -1.7391 -0.5357
25313SOL     OW80300   7.898   0.872   6.020  0.1563  0.6557 -0.6793
25313SOL    HW180301   7.947   0.953   6.032 -0.0771  0.8297 -0.8832
25313SOL    HW280302   7.922   0.842   5.932 -0.3180  0.8982 -0.9006
25314SOL     OW80303   8.073  10.315   7.159 -0.4156 -0.3452 -0.4063
25314SOL    HW180304   8.014  10.379   7.120 -0.4563 -0.7413 -1.0176
25314SOL    HW280305   8.159  10.336   7.123 -0.4396 -0.6642 -0.6632
25315SOL     OW80306   0.028   6.134   4.574 -0.6255  0.1449  0.3801
25315SOL    HW180307  -0.053   6.107   4.531 -0.1580  0.6033 -0.8125
25315SOL    HW280308   0.096   6.115   4.510  0.1696  0.1667  1.2093
25316SOL     OW80309   4.890   6.368   8.643 -0.0497 -0.6058  0.4037
25316SOL    HW180310   4.870   6.437   8.706  0.5430 -0.5086  0.4871
25316SOL    HW280311   4.814   6.310   8.647 -0.0515 -0.5605  1.1517
25317SOL     OW80312  10.219   3.094   4.282  0.1614 -0.3625 -0.2379
25317SOL    HW180313  10.177   3.178   4.300 -0.3660 -0.2924 -1.6476
25317SOL    HW280314  10.160   3.029   4.322  0.6050 -0.0689  0.9072
25318SOL     OW80315   5.325   7.676   6.640 -0.8447 -0.3004 -0.0819
25318SOL    HW180316   5.377   7.628   6.705 -0.1838 -1.5405 -1.4748
25318SOL    HW280317   5.324   7.766   6.673 -0.2972 -0.8276  1.4947
25319SOL     OW80318   6.973   9.600   1.115 -0.5361  0.8791 -0.2500
25319SOL    HW180319   6.980   9.515   1.071  2.2915  0.9823 -0.2265
25319SOL    HW280320   6.883   9.627   1.101 -1.0659 -1.3502 -1.7222
25320SOL     OW80321   6.462   4.734   3.934 -0.0243  0.0634  0.3835
25320SOL    HW180322   6.417   4.801   3.984 -1.0226 -0.4569  0.2134
25320SOL    HW280323   6.409   4.655   3.947  0.6722 -0.4933 -0.0750
25321SOL     OW80324   3.442   7.866   7.284  0.1421  0.1286 -0.0755
25321SOL    HW180325   3.437   7.778   7.323 -2.6611  0.6630  0.9720
25321SOL    HW280326   3.452   7.925   7.359  1.0022  0.7967 -0.7000
25322SOL     OW80327   3.341   4.196   4.341 -0.2141  0.3387  0.1268
25322SOL    HW180328   3.411   4.256   4.316  0.3255 -0.7135 -1.0065
25322SOL    HW280329   3.376   4.149   4.417  0.0866  0.2025 -0.0958
25323SOL     OW80330   6.357   1.263   1.822  0.3065 -0.0988  0.6524
25323SOL    HW180331   6.379   1.333   1.761  1.1574 -1.0749 -0.2266
25323SOL    HW280332   6.276   1.291   1.863 -0.7359  0.2733 -1.4994
25324SOL     OW80333   8.284   4.972   1.487 -0.6033 -0.5518 -0.0433
25324SOL    HW180334   8.297   5.042   1.552  1.1276 -0.2209 -0.6941
25324SOL    HW280335   8.189   4.968   1.476 -0.7909  1.3908  0.3698
25325SOL     OW80336   9.093   8.310  10.714 -0.1395 -0.0078 -0.2592
25325SOL    HW180337   9.062   8.240  10.655  0.0109  0.0618 -0.4228
25325SOL    HW280338   9.174   8.276  10.750  0.0921  0.2084 -0.5739
25326SOL     OW80339   6.509   5.600   4.230  0.2256  0.4686  0.4892
25326SOL    HW180340   6.516   5.588   4.325  0.4721  1.5903  0.6289
25326SOL    HW280341   6.500   5.695   4.219  0.3192  0.3586 -0.6182
25327SOL     OW80342   0.308  10.105   3.852 -0.6225  0.5481 -0.9113
25327SOL    HW180343   0.403  10.093   3.852 -0.5848 -0.6804  3.0473
25327SOL    HW280344   0.282  10.086   3.762  2.7209 -0.4260 -1.8415
25328SOL     OW80345   2.783   2.507   6.955 -0.2770  0.1253 -0.5790
25328SOL    HW180346   2.770   2.600   6.971 -0.1446  0.4466 -2.1004
25328SOL    HW280347   2.708   2.481   6.902  0.4779 -0.2183 -1.5225
25329SOL     OW80348   0.449   2.829   2.581  0.0331  0.4140  0.3919
25329SOL    HW180349   0.377   2.883   2.612  1.5171  1.2464  2.6429
25329SOL    HW280350   0.526   2.862   2.628  1.7498 -0.9768 -1.2630
25330SOL     OW80351   0.166   6.231   2.729 -0.6156  0.6370  0.0800
25330SOL    HW180352   0.218   6.309   2.713 -1.3813  0.8949 -1.2841
25330SOL    HW280353   0.208   6.163   2.677  0.1583  0.0537  1.4071
25331SOL     OW80354   5.653   6.155   4.740 -0.5841 -0.2656 -0.1594
25331SOL    HW180355   5.638   6.076   4.688  0.3964  0.1126 -1.0658
25331SOL    HW280356   5.575   6.163   4.795 -1.9333 -0.4307 -1.9409
25332SOL     OW80357   4.304   7.698   9.687 -0.5062 -0.4842 -0.4313
25332SOL    HW180358   4.280   7.789   9.666 -0.4018 -0.2636  0.3476
25332SOL    HW280359   4.307   7.654   9.603  0.6379  0.5291 -0.9455
25333SOL     OW80360   2.041   7.256   9.994 -0.0424  0.1516 -0.6839
25333SOL    HW180361   2.106   7.187  10.012 -0.0681  0.5323  1.0035
25333SOL    HW280362   1.982   7.254  10.069 -0.5462  1.4614 -1.0184
25334SOL     OW80363   3.345   2.475   5.502  0.0725  0.0433 -0.7314
25334SOL    HW180364   3.269   2.529   5.523  0.0951 -0.1974 -0.0012
25334SOL    HW280365   3.369   2.502   5.413 -0.7370  0.2674 -0.8997
25335SOL     OW80366  10.834   6.085   5.043  0.0754 -0.0388  0.2655
25335SOL    HW180367  10.837   6.117   5.133 -0.1452  1.0719 -0.1127
25335SOL    HW280368  10.886   6.148   4.993  0.5531 -0.8802 -0.3238
25336SOL     OW80369   8.352   2.057   7.590 -0.3597  0.2126 -0.4240
25336SOL    HW180370   8.282   2.008   7.548 -1.3179  1.9926 -1.0105
25336SOL    HW280371   8.420   2.065   7.523 -0.2529 -0.1950 -0.3659
25337SOL     OW80372   9.111   0.868   3.529  0.1718  0.1759  0.2422
25337SOL    HW180373   9.107   0.944   3.471 -1.4727  0.2807  0.4663
25337SOL    HW280374   9.141   0.905   3.613  2.9488 -0.0400 -0.5498
25338SOL     OW80375   8.363   2.044   5.434  0.0557  0.2451 -0.8861
25338SOL    HW180376   8.340   2.136   5.432  0.2995  0.3079 -3.1022
25338SOL    HW280377   8.400   2.030   5.522  2.6571  2.9250 -1.3970
25339SOL     OW80378  10.732   1.435   2.157 -0.0645 -0.4589 -0.0758
25339SOL    HW180379  10.795   1.421   2.228  0.5058 -0.2004 -0.5219
25339SOL    HW280380  10.786   1.448   2.079 -0.6147  1.4628 -0.1869
25340SOL     OW80381   7.890   6.483   4.663 -0.3229  0.1029 -0.1797
25340SOL    HW180382   7.868   6.441   4.580  0.6963 -1.5114  0.3168
25340SOL    HW280383   7.899   6.576   4.642 -1.2450 -0.0989 -1.6132
25341SOL     OW80384   1.149   0.741   8.131  0.1895  0.0231 -0.1290
25341SOL    HW180385   1.218   0.795   8.091  0.5602 -0.1638  0.2481
25341SOL    HW280386   1.095   0.713   8.057  0.2928  0.4879 -0.3862
25342SOL     OW80387   9.034   0.996   0.121  0.4266 -0.0017  0.1127
25342SOL    HW180388   9.031   1.042   0.038  1.9848  0.3177  0.2016
25342SOL    HW280389   8.972   1.043   0.178  0.0104  0.3079 -0.5861
25343SOL     OW80390   9.170  11.111   5.133 -1.0167  0.3956 -0.2283
25343SOL    HW180391   9.145  11.203   5.140 -1.4043  0.3125 -0.4623
25343SOL    HW280392   9.160  11.090   5.040  2.1084  0.9455 -0.8003
25344SOL     OW80393   8.918   8.393   9.379  0.1842  0.1472 -0.2108
25344SOL    HW180394   8.846   8.425   9.325 -0.2211 -0.9363 -0.3376
25344SOL    HW280395   8.997   8.419   9.332 -0.1645 -0.9547 -1.4579
25345SOL     OW80396   7.654   7.160   2.736  0.4486  0.0685  0.1112
25345SOL    HW180397   7.604   7.079   2.726  0.7837 -0.0767 -0.4032
25345SOL    HW280398   7.682   7.159   2.828 -1.3943  0.6865  0.7221
25346SOL     OW80399   7.879   2.289   8.513  0.3023  0.2912 -0.1965
25346SOL    HW180400   7.961   2.338   8.508 -0.8529  2.3368 -0.5366
25346SOL    HW280401   7.823   2.330   8.447 -1.0707 -0.8833  0.1906
25347SOL     OW80402   6.497   3.503   1.268 -0.2289 -0.0860 -0.5590
25347SOL    HW180403   6.560   3.443   1.309 -1.9183 -1.3752  0.2780
25347SOL    HW280404   6.455   3.449   1.200 -2.5094 -0.2608  0.8923
25348SOL     OW80405   0.643   6.711   1.506  0.4939 -0.3342 -0.1592
25348SOL    HW180406   0.557   6.753   1.503  0.3768 -0.5703 -0.1875
25348SOL    HW280407   0.691   6.760   1.573 -0.3765 -1.5052  1.4086
25349SOL     OW80408   2.891   8.558  10.111  0.4346  0.2411  0.4984
25349SOL    HW180409   2.886   8.629  10.047  1.8200 -1.8412 -2.0767
25349SOL    HW280410   2.802   8.524  10.115  0.2672  0.5816 -0.1127
25350SOL     OW80411   3.376   6.114   9.467  0.3460 -0.1667  0.2871
25350SOL    HW180412   3.391   6.028   9.427  1.5019  0.0506  0.2312
25350SOL    HW280413   3.313   6.157   9.409  0.2462 -0.7220 -0.0272
25351SOL     OW80414   7.804   5.036   6.341 -0.1847  0.0815  0.3663
25351SOL    HW180415   7.727   5.024   6.395 -0.2444  0.9404  0.4816
25351SOL    HW280416   7.816   5.130   6.336 -0.0550  0.0215 -0.9336
25352SOL     OW80417   1.286   0.701   5.243  0.5655  0.8166 -0.0577
25352SOL    HW180418   1.366   0.753   5.258  1.4806 -0.0462 -1.6887
25352SOL    HW280419   1.316   0.610   5.245 -0.6872  0.3952  0.9006
25353SOL     OW80420   4.191   0.698   8.689  0.4509 -0.1569  0.1695
25353SOL    HW180421   4.163   0.733   8.774  1.0469  1.4556 -0.2637
25353SOL    HW280422   4.252   0.627   8.711 -2.1115 -2.2632  1.0946
25354SOL     OW80423   2.566  10.186   3.952  0.0335  0.7284 -0.2285
25354SOL    HW180424   2.480  10.156   3.983  0.4834  0.4430  0.7862
25354SOL    HW280425   2.574  10.274   3.987  0.7808  0.2019  0.9827
25355SOL     OW80426   9.396   4.822   5.485 -0.4683  0.0591 -0.6991
25355SOL    HW180427   9.395   4.893   5.420 -1.3108  1.6132  0.9313
25355SOL    HW280428   9.489   4.801   5.495 -0.2040  0.8870 -1.2554
25356SOL     OW80429   7.207   2.751   6.342 -1.0971 -0.1331 -0.4663
25356SOL    HW180430   7.144   2.680   6.355 -2.2528  0.4278 -2.5596
25356SOL    HW280431   7.155   2.831   6.353 -0.1281  0.4046  0.4219
25357SOL     OW80432   4.605   2.534   1.968  0.1169  0.6792 -0.4395
25357SOL    HW180433   4.514   2.523   1.995  0.6416  0.1922  1.3408
25357SOL    HW280434   4.625   2.454   1.920  0.1116 -0.1490  0.8593
25358SOL     OW80435   8.382   2.005   1.781  0.1708  0.5450  0.2615
25358SOL    HW180436   8.461   2.060   1.787  0.3961  0.1203  1.7893
25358SOL    HW280437   8.410   1.920   1.815  0.1793 -1.0070 -3.2215
25359SOL     OW80438   7.442   4.557  11.046 -0.2463 -0.6571 -0.6437
25359SOL    HW180439   7.520   4.506  11.023 -0.1589 -0.8507  0.0818
25359SOL    HW280440   7.368   4.500  11.022 -0.1517 -1.5485  1.0287
25360SOL     OW80441   0.749   3.434   4.552  0.9322  0.0955 -0.2956
25360SOL    HW180442   0.772   3.449   4.644  0.6723 -0.3067 -0.1609
25360SOL    HW280443   0.705   3.349   4.552  1.3418 -0.1270 -0.8612
25361SOL     OW80444  10.060   0.426   4.929  0.4850  0.1124  0.1533
25361SOL    HW180445  10.098   0.513   4.927 -1.7121  1.1367 -1.8039
25361SOL    HW280446  10.108   0.377   4.862  0.3101  0.4956 -0.2567
25362SOL     OW80447   1.883   7.441   4.523 -0.1052  0.3011  0.2053
25362SOL    HW180448   1.856   7.489   4.445  1.3944  0.0996 -0.4610
25362SOL    HW280449   1.906   7.354   4.491  1.6607  0.5727  0.6657
25363SOL     OW80450  10.484   9.295   8.429 -0.3267 -0.6704  0.5940
25363SOL    HW180451  10.476   9.342   8.511  4.0633  1.0523  0.3585
25363SOL    HW280452  10.529   9.214   8.452 -0.2846 -0.8054  0.0487
25364SOL     OW80453   8.802   3.793   8.827  0.0096  0.0416 -0.5670
25364SOL    HW180454   8.739   3.786   8.755  0.0481  0.3358 -0.6287
25364SOL    HW280455   8.885   3.813   8.785  0.3451 -1.2294 -0.5612
25365SOL     OW80456   9.977  10.207   6.801  0.1377  0.4215  0.0836
25365SOL    HW180457   9.965  10.298   6.828 -0.0883  0.3210  0.3269
25365SOL    HW280458   9.993  10.160   6.883 -0.8654  0.0637  0.0822
25366SOL     OW80459   1.761   3.681   8.301  0.2338 -0.5484  0.3889
25366SOL    HW180460   1.817   3.653   8.373  0.4841 -0.9352  0.0430
25366SOL    HW280461   1.702   3.607   8.286  0.1896 -0.4742  0.1888
25367SOL     OW80462   0.328  10.423   4.343  0.4152  0.0819  0.2169
25367SOL    HW180463   0.367  10.373   4.414  1.7609 -0.4953 -0.8891
25367SOL    HW280464   0.249  10.374   4.320  0.8930 -0.6788  0.1756
25368SOL     OW80465   2.465   6.369   9.220 -0.4778 -0.2654  0.3315
25368SOL    HW180466   2.504   6.456   9.226 -0.8722  0.0836 -1.5242
25368SOL    HW280467   2.371   6.386   9.209 -0.9565 -1.0381  2.6383
25369SOL     OW80468   3.847   4.472  10.530  0.3725 -0.2216  0.0687
25369SOL    HW180469   3.899   4.523  10.592  0.5443  0.6760 -0.7809
25369SOL    HW280470   3.764   4.457  10.574 -0.3264  2.2843 -0.2641
25370SOL     OW80471   7.381  10.672   2.542  0.3876 -0.1828  0.1706
25370SOL    HW180472   7.408  10.594   2.494 -0.7291 -0.6488  0.2806
25370SOL    HW280473   7.426  10.744   2.498  1.9068 -0.9344  0.4366
25371SOL     OW80474   8.922   2.327   3.768 -0.7131  0.6094  0.3388
25371SOL    HW180475   9.002   2.302   3.814  0.2588  1.7212 -0.6801
25371SOL    HW280476   8.852   2.288   3.819  0.4634 -0.2404  1.3675
25372SOL     OW80477   3.982   1.115   7.416  0.0995 -0.2148  0.2657
25372SOL    HW180478   3.950   1.159   7.495  0.8277 -0.4103  0.6788
25372SOL    HW280479   3.992   1.185   7.352 -1.5195 -0.1951 -0.0148
25373SOL     OW80480   9.312   4.836  11.072  0.0756 -0.7494  0.3826
25373SOL    HW180481   9.307   4.758  11.127  1.0976 -0.1506  1.3869
25373SOL    HW280482   9.260   4.901  11.118 -0.5085 -0.7295 -0.2857
25374SOL     OW80483   8.281  10.747   6.632  0.4945  0.3246 -0.4834
25374SOL    HW180484   8.330  10.825   6.659  0.2420  0.3021  0.0433
25374SOL    HW280485   8.237  10.774   6.552 -1.3146  1.4385  0.8142
25375SOL     OW80486  10.951   4.312   1.828 -0.4985 -0.4071 -0.0260
25375SOL    HW180487  11.011   4.384   1.847  0.5565 -1.6358  1.5072
25375SOL    HW280488  10.900   4.302   1.908 -0.1729 -1.7784  0.0277
25376SOL     OW80489   1.665   9.790   5.006 -0.3251  0.4984  0.0193
25376SOL    HW180490   1.651   9.885   5.015  1.1414  0.9358 -1.8054
25376SOL    HW280491   1.582   9.757   4.970 -0.4628  1.2673 -0.3919
25377SOL     OW80492   0.150   6.350   7.552 -0.1560  0.4946 -0.4745
25377SOL    HW180493   0.187   6.265   7.577  1.3249  0.9223 -1.1293
25377SOL    HW280494   0.074   6.360   7.610  0.8568 -0.3320  1.0738
25378SOL     OW80495   6.732   2.748  10.805 -0.6802  0.7502 -0.3876
25378SOL    HW180496   6.752   2.819  10.866  0.6366 -0.7321  1.0042
25378SOL    HW280497   6.762   2.780  10.720 -1.9375  2.5965 -0.1956
25379SOL     OW80498   9.823   9.031  10.463  0.1588  0.0528 -0.1262
25379SOL    HW180499   9.868   9.076  10.535 -0.2868 -0.5178  0.5163
25379SOL    HW280500   9.891   9.020  10.396  1.6021 -2.5017  1.5609
25380SOL     OW80501   1.952   4.458   9.044 -0.4803  0.3684 -0.0579
25380SOL    HW180502   1.913   4.370   9.048 -0.1616  0.2248 -0.1386
25380SOL    HW280503   1.888   4.510   8.996 -0.1510 -0.0944 -1.0165
25381SOL     OW80504   3.127   4.852   8.272 -0.7236  0.1529 -0.2987
25381SOL    HW180505   3.173   4.801   8.206 -1.0808  0.1246 -0.5247
25381SOL    HW280506   3.196   4.900   8.317 -0.4457 -0.0892 -0.4650
25382SOL     OW80507  10.114   3.970   6.723  0.6219  0.2380 -0.4676
25382SOL    HW180508  10.052   4.038   6.749  1.1872  0.3354  0.6629
25382SOL    HW280509  10.110   3.905   6.793  0.9732 -0.3147 -0.9466
25383SOL     OW80510   3.452   6.069   1.713  0.2223  0.4417  0.1685
25383SOL    HW180511   3.373   6.020   1.690 -0.7345  1.8118  0.3998
25383SOL    HW280512   3.463   6.131   1.641  1.3174  0.0341 -0.0380
25384SOL     OW80513   9.002   4.134   4.202  0.4425 -0.6924 -0.0436
25384SOL    HW180514   8.988   4.120   4.108 -0.3692 -0.4696  0.0376
25384SOL    HW280515   9.065   4.066   4.227  0.3594 -1.0053 -0.6668
25385SOL     OW80516  11.036   8.840   9.183  0.2549  0.2468  0.3727
25385SOL    HW180517  11.059   8.808   9.271 -1.8587 -2.1532  0.1670
25385SOL    HW280518  11.039   8.762   9.128 -3.5385  0.5848 -0.5578
25386SOL     OW80519   6.974   9.281   8.661  0.0183 -0.2688 -0.0612
25386SOL    HW180520   6.944   9.192   8.641 -0.2100 -0.6890  1.9110
25386SOL    HW280521   6.900   9.337   8.637 -0.1390 -0.6846 -0.5678
25387SOL     OW80522   4.068   2.475   6.713  0.1235  0.2352 -0.0401
25387SOL    HW180523   4.023   2.481   6.630 -0.7677  1.6530  0.5091
25387SOL    HW280524   4.000   2.486   6.779  0.6682 -1.7188  0.9310
25388SOL     OW80525   2.850   1.703   5.523  0.1524  0.5460 -0.2924
25388SOL    HW180526   2.795   1.627   5.541  2.1568 -1.0398 -0.5037
25388SOL    HW280527   2.853   1.707   5.427  1.0697  0.0707 -0.2941
25389SOL     OW80528   9.892   8.404   2.227  0.0973 -0.4609 -0.2046
25389SOL    HW180529   9.943   8.465   2.174 -0.7775 -0.1233 -0.6817
25389SOL    HW280530   9.835   8.359   2.164 -1.8084  0.7880  0.5354
25390SOL     OW80531   6.750   4.634  10.644  0.4262  0.1412  0.0945
25390SOL    HW180532   6.677   4.617  10.704  1.9084 -0.4216  1.8234
25390SOL    HW280533   6.728   4.583  10.565 -0.8111 -0.3929  0.7531
25391SOL     OW80534   8.415   2.910   6.507  0.2137 -0.6673  0.1244
25391SOL    HW180535   8.327   2.878   6.529  0.3519 -0.5189  0.9415
25391SOL    HW280536   8.443   2.855   6.434 -1.7014  1.1986 -2.1610
25392SOL     OW80537   2.545   3.144   2.230 -0.4322  0.5488  0.0493
25392SOL    HW180538   2.636   3.123   2.249  0.1539  0.4887 -2.5038
25392SOL    HW280539   2.505   3.060   2.207 -0.4508  0.8907 -1.2475
25393SOL     OW80540   0.075   3.675   9.121  0.1100 -0.4440 -0.1824
25393SOL    HW180541   0.064   3.688   9.026 -1.9899 -1.1669 -0.0906
25393SOL    HW280542  -0.010   3.700   9.158  0.4025 -1.6045  1.3532
25394SOL     OW80543  10.658  10.807  10.459  0.4126 -0.3244  0.2280
25394SOL    HW180544  10.750  10.782  10.454  0.6888  0.4772  1.1000
25394SOL    HW280545  10.654  10.891  10.412  0.2048 -0.1592  0.5424
25395SOL     OW80546   8.795   3.811   2.583  0.0741 -0.4687 -0.5899
25395SOL    HW180547   8.854   3.749   2.540  0.8179 -1.0737  1.2121
25395SOL    HW280548   8.849   3.887   2.601  0.1593 -0.7626  0.4686
25396SOL     OW80549   8.379   8.873   6.815 -0.2377 -0.7906  0.1766
25396SOL    HW180550   8.396   8.938   6.746 -2.2723 -1.3266 -0.9171
25396SOL    HW280551   8.450   8.886   6.878  1.0968  0.4561 -1.4780
25397SOL     OW80552   9.153   9.691   5.240 -0.0222 -0.5830  0.0593
25397SOL    HW180553   9.098   9.724   5.311  0.4691 -0.0175  0.1840
25397SOL    HW280554   9.107   9.716   5.160  0.2868  0.3357  0.1542
25398SOL     OW80555   1.191   6.378   4.081  0.1446  0.6080  0.1465
25398SOL    HW180556   1.279   6.393   4.048  0.4864 -1.1247  0.1564
25398SOL    HW280557   1.204   6.337   4.166 -0.7271  3.4159  1.7685
25399SOL     OW80558   9.055   9.764   1.101 -0.0982 -0.0644 -0.9120
25399SOL    HW180559   9.148   9.745   1.090  0.0952  0.7186 -0.6939
25399SOL    HW280560   9.017   9.749   1.015 -0.0270 -1.7364 -0.6784
25400SOL     OW80561   3.312   1.419   3.766 -0.1687  0.1707  0.1795
25400SOL    HW180562   3.266   1.500   3.787  0.4252  0.8610 -1.0706
25400SOL    HW280563   3.258   1.376   3.700 -0.6669 -0.6595  1.0953
25401SOL     OW80564   4.870   6.272   6.709 -0.0849 -0.1658 -0.0321
25401SOL    HW180565   4.890   6.241   6.797  0.9178 -0.5757 -0.3890
25401SOL    HW280566   4.952   6.309   6.677 -0.4029 -0.1364 -0.8453
25402SOL     OW80567   3.011   8.311   5.150 -0.4691 -0.8978 -0.5081
25402SOL    HW180568   2.962   8.240   5.107 -0.9976 -1.1264  0.4379
25402SOL    HW280569   2.951   8.385   5.149 -0.5040 -0.9196 -0.1254
25403SOL     OW80570   9.174   6.394   8.629  0.3824  0.2309 -0.4587
25403SOL    HW180571   9.115   6.369   8.700  0.5969  0.0261 -0.3510
25403SOL    HW280572   9.211   6.311   8.599  2.5223  0.5404  1.1406
25404SOL     OW80573   3.236   6.229   9.685  0.5152  0.0516 -0.5848
25404SOL    HW180574   3.188   6.146   9.684  0.3292  0.0941  0.9956
25404SOL    HW280575   3.313   6.214   9.631  0.3959 -1.1108 -0.4600
25405SOL     OW80576   7.901   1.124   2.732  0.3391 -0.3542 -0.0051
25405SOL    HW180577   7.833   1.057   2.726 -0.4096  0.4285 -0.4618
25405SOL    HW280578   7.877   1.176   2.808 -0.4028  0.7980 -0.9975
25406SOL     OW80579   5.708   5.956   8.780  0.8884  0.2022  0.1037
25406SOL    HW180580   5.703   6.052   8.779  1.2311  0.2206 -0.7046
25406SOL    HW280581   5.619   5.927   8.761  1.1582  0.3867 -1.5444
25407SOL     OW80582  10.060   8.125   9.646  0.0487 -0.6134 -0.4189
25407SOL    HW180583  10.111   8.079   9.712  0.6128 -0.1332 -0.5160
25407SOL    HW280584  10.115   8.123   9.568 -0.4418 -0.8282 -0.7649
25408SOL     OW80585   5.269   9.139   3.383 -0.1727 -0.2634  0.2271
25408SOL    HW180586   5.292   9.221   3.339  3.5345 -2.1796 -1.9498
25408SOL    HW280587   5.176   9.128   3.367 -0.3154  2.4292 -1.3825
25409SOL     OW80588   3.757   4.997   1.494 -0.2809  0.5673  0.2158
25409SOL    HW180589   3.797   4.920   1.456  0.0754 -0.0655  1.8014
25409SOL    HW280590   3.754   5.061   1.422 -0.0614 -0.7062 -0.9572
25410SOL     OW80591   3.162   5.759   0.929  0.5256 -0.2077 -0.1322
25410SOL    HW180592   3.069   5.774   0.913  0.3515 -1.3739 -0.2916
25410SOL    HW280593   3.197   5.846   0.951 -1.5612 -0.3793  5.2491
25411SOL     OW80594   1.965  10.648   4.003 -0.2815 -0.2234 -0.4246
25411SOL    HW180595   1.978  10.663   3.910  0.9641  2.6212  0.0999
25411SOL    HW280596   1.883  10.693   4.024  0.8341  1.5882  0.2733
25412SOL     OW80597   4.191   7.319   1.230 -0.1263 -0.4691  0.5137
25412SOL    HW180598   4.125   7.367   1.280 -0.8182  0.3244 -1.0951
25412SOL    HW280599   4.235   7.385   1.178  2.4372 -0.8926  2.0044
25413SOL     OW80600   8.545   7.438   8.689  0.2896  0.0057 -0.4867
25413SOL    HW180601   8.634   7.455   8.657  0.7341 -2.6679 -0.9638
25413SOL    HW280602   8.557   7.368   8.754 -1.3405  0.6509  0.5473
25414SOL     OW80603   7.592   6.964   9.999 -0.1713 -0.0707  0.5770
25414SOL    HW180604   7.511   6.916  10.016 -0.1145  0.0253  1.1382
25414SOL    HW280605   7.580   7.047  10.045 -0.1984  0.3871 -0.2409
25415SOL     OW80606   9.512   4.262   0.217  0.2709  0.4318 -0.1083
25415SOL    HW180607   9.440   4.284   0.277  1.4252  1.8801  0.8163
25415SOL    HW280608   9.591   4.284   0.265  1.2904  0.3513 -1.6805
25416SOL     OW80609  10.235  11.039   4.118 -0.4673 -0.3435  0.4609
25416SOL    HW180610  10.241  11.133   4.099 -1.5249 -0.4374 -0.4791
25416SOL    HW280611  10.188  11.034   4.201 -1.3554 -0.0467 -0.0072
25417SOL     OW80612   6.374   1.090   7.039 -0.5567 -0.6005  0.1148
25417SOL    HW180613   6.397   1.004   7.003  0.1661 -2.1849  3.8011
25417SOL    HW280614   6.455   1.122   7.078 -1.2956  0.7864  0.5898
25418SOL     OW80615   0.697   0.747   2.530 -0.0203 -0.3343 -0.0266
25418SOL    HW180616   0.786   0.764   2.560  0.7308 -2.9781 -0.5858
25418SOL    HW280617   0.693   0.787   2.443  0.9421 -1.0244 -0.4005
25419SOL     OW80618   2.051  11.023  10.566  0.2001  0.0438  0.5373
25419SOL    HW180619   2.064  11.117  10.578  0.1131 -0.0762  1.6409
25419SOL    HW280620   2.081  10.983  10.648 -0.8766 -0.7965  0.5454
25420SOL     OW80621   2.649   5.314   9.777  0.6999 -0.2934  0.1615
25420SOL    HW180622   2.662   5.376   9.849 -1.9057 -0.9381  1.2977
25420SOL    HW280623   2.609   5.366   9.708 -1.9467 -0.6793  1.2959
25421SOL     OW80624  10.719   0.887   9.344  0.6465  0.1750 -0.3035
25421SOL    HW180625  10.714   0.894   9.249 -0.5022 -1.1569 -0.3553
25421SOL    HW280626  10.661   0.956   9.376  0.6191  0.2796 -0.5732
25422SOL     OW80627   1.859   9.859   8.685 -0.3254  0.2241 -0.0689
25422SOL    HW180628   1.888   9.850   8.776 -0.9152  1.9178  0.3108
25422SOL    HW280629   1.825   9.772   8.662  0.1906 -0.3354  1.1736
25423SOL     OW80630   2.617   3.315   0.418  0.1579 -0.0708 -0.1784
25423SOL    HW180631   2.644   3.314   0.327  2.4298 -1.7943  0.4290
25423SOL    HW280632   2.691   3.354   0.465 -0.9782  0.8178  0.9635
25424SOL     OW80633   1.357  10.723   4.595  0.5336  0.2868  0.1777
25424SOL    HW180634   1.303  10.744   4.519 -0.7462  0.9860  1.2421
25424SOL    HW280635   1.427  10.667   4.560 -0.5779 -0.2224 -1.3429
25425SOL     OW80636   4.766   6.764   3.870  0.1026 -0.0837  0.1855
25425SOL    HW180637   4.824   6.703   3.916 -2.2863 -3.5409 -0.9212
25425SOL    HW280638   4.790   6.754   3.778 -2.8676 -2.7122 -0.4819
25426SOL     OW80639   6.057  10.701   4.572 -0.2222  0.1889 -0.0221
25426SOL    HW180640   6.014  10.616   4.569 -0.2579  0.2164 -0.2626
25426SOL    HW280641   5.986  10.764   4.563 -0.4507  0.3074  1.9957
25427SOL     OW80642   9.865  10.792   0.142  0.5859 -0.3824  0.0351
25427SOL    HW180643   9.900  10.871   0.102 -0.7524  0.7153  0.9284
25427SOL    HW280644   9.782  10.819   0.180 -0.2465 -2.3936 -0.2228
25428SOL     OW80645   1.035  10.290   1.942 -0.5971 -0.2632 -0.2156
25428SOL    HW180646   1.054  10.293   1.848  1.7709 -2.3682  0.0836
25428SOL    HW280647   1.037  10.382   1.969 -1.2837  0.3856 -2.1700
25429SOL     OW80648   3.717   6.613   9.786  0.1017 -0.4261 -0.2905
25429SOL    HW180649   3.643   6.671   9.767  0.3497  0.4069  1.1286
25429SOL    HW280650   3.771   6.616   9.707 -1.2254 -0.8431 -1.2485
25430SOL     OW80651   6.085  10.054   2.977  0.6378  0.9312 -0.1756
25430SOL    HW180652   6.153  10.082   2.915 -0.5294  1.6906 -1.1737
25430SOL    HW280653   6.072   9.961   2.957  2.2388  0.4332  0.9058
25431SOL     OW80654   5.720   3.565   2.749  0.1402  0.0338  0.3020
25431SOL    HW180655   5.646   3.610   2.790  0.4832 -0.4224  1.4617
25431SOL    HW280656   5.784   3.553   2.820  0.8912 -0.5079 -0.4353
25432SOL     OW80657   6.179   5.191   7.604 -0.2623 -0.5440 -0.0746
25432SOL    HW180658   6.211   5.126   7.667 -1.2562 -0.3730  0.6217
25432SOL    HW280659   6.176   5.144   7.520  2.7816 -0.2918 -0.4390
25433SOL     OW80660   1.892   3.311   1.710 -0.1190 -0.2685 -0.5660
25433SOL    HW180661   1.870   3.218   1.704  1.5340 -0.6963 -0.2616
25433SOL    HW280662   1.840   3.343   1.784 -0.3566 -1.0538 -0.3851
25434SOL     OW80663   9.872   7.166   1.207 -0.3241 -0.1171  0.2586
25434SOL    HW180664   9.777   7.152   1.201 -0.2527 -0.0908 -1.8026
25434SOL    HW280665   9.896   7.202   1.121  1.7941 -1.5951  0.1537
25435SOL     OW80666   7.239   2.103   4.401 -0.5731 -0.9176  0.0970
25435SOL    HW180667   7.203   2.022   4.439 -1.0493 -0.8401 -0.1785
25435SOL    HW280668   7.163   2.157   4.384 -0.2229 -0.2225  0.6776
25436SOL     OW80669   9.161   4.784   8.812 -0.3058 -0.4296  0.1990
25436SOL    HW180670   9.078   4.805   8.855  0.8177  0.0244  2.2923
25436SOL    HW280671   9.137   4.732   8.736 -2.5942  0.9775 -0.1186
25437SOL     OW80672   2.115   0.406   4.333 -0.1324  0.6029 -0.1920
25437SOL    HW180673   2.041   0.444   4.285 -0.2722  0.6187  0.0303
25437SOL    HW280674   2.073   0.354   4.402  0.0677  1.2480  0.4299
25438SOL     OW80675   7.114   4.752  10.349  0.0269 -0.1703 -0.4775
25438SOL    HW180676   7.142   4.826  10.403  0.4184 -1.9298  1.8782
25438SOL    HW280677   7.195   4.710  10.322 -0.1501 -2.0717  1.6981
25439SOL     OW80678   4.178   8.919   0.113 -0.1418 -0.2499  0.3425
25439SOL    HW180679   4.272   8.936   0.117 -0.2490  0.4416  0.0567
25439SOL    HW280680   4.139   8.991   0.164 -0.6449  0.7229 -1.3483
25440SOL     OW80681   3.037   2.897   3.093  0.0383 -0.1442  0.1524
25440SOL    HW180682   2.983   2.820   3.113 -1.7788  1.3534  1.3101
25440SOL    HW280683   3.100   2.900   3.166 -0.1625 -0.2825  0.3341
25441SOL     OW80684   6.445   3.588  10.023  0.0106  0.0832  0.3664
25441SOL    HW180685   6.498   3.668  10.018 -1.3333  0.9308 -1.0486
25441SOL    HW280686   6.507   3.520  10.049  1.3813  1.4012  0.6957
25442SOL     OW80687   3.325   8.683   6.459  0.5314 -0.3543  0.8543
25442SOL    HW180688   3.295   8.739   6.387  0.5093 -0.1796  0.9995
25442SOL    HW280689   3.309   8.594   6.428 -1.6607 -0.2764  1.5401
25443SOL     OW80690   2.218   1.731   5.682  0.0897  0.2675 -0.4736
25443SOL    HW180691   2.271   1.782   5.744 -1.5478  0.1267  1.0895
25443SOL    HW280692   2.213   1.787   5.605  2.9514  0.0513 -0.9489
25444SOL     OW80693   7.507   6.752   5.051 -0.1404  0.5107  0.0696
25444SOL    HW180694   7.543   6.669   5.084 -1.5271 -0.3729 -0.5713
25444SOL    HW280695   7.577   6.815   5.067  0.7536 -0.6593  1.0749
25445SOL     OW80696   1.597   4.013   3.564 -0.2833  0.2029 -0.0912
25445SOL    HW180697   1.643   4.019   3.480  0.6166 -0.7716  0.3197
25445SOL    HW280698   1.609   4.098   3.605  2.0118 -0.3223  0.4307
25446SOL     OW80699   4.290   8.978   8.380 -0.1218 -0.3783 -0.4052
25446SOL    HW180700   4.278   9.073   8.388 -0.6504 -0.3535 -1.4050
25446SOL    HW280701   4.231   8.942   8.446 -0.5223 -0.0365 -0.5729
25447SOL     OW80702   3.590  10.888   5.674  0.1821  0.2456  0.6069
25447SOL    HW180703   3.578  10.935   5.757 -0.2825  0.9190  0.1715
25447SOL    HW280704   3.603  10.957   5.610  2.0909 -0.3084  0.3300
25448SOL     OW80705   9.942  10.322  10.823  0.3055 -0.0275  0.9893
25448SOL    HW180706  10.008  10.360  10.766  0.1142  0.4165  1.0579
25448SOL    HW280707   9.909  10.397  10.874 -2.1056  0.2860 -0.8725
25449SOL     OW80708   8.929   5.881   5.176 -0.0951 -0.3624  0.1712
25449SOL    HW180709   9.024   5.876   5.188 -0.3204 -2.0578  1.6355
25449SOL    HW280710   8.893   5.818   5.239 -2.2701  1.1268  0.5300
25450SOL     OW80711   8.838   5.639   6.166  0.3663  0.4349 -0.1453
25450SOL    HW180712   8.893   5.573   6.124 -0.1339  0.5465 -0.9815
25450SOL    HW280713   8.748   5.610   6.148  0.0933 -0.2451  1.9509
25451SOL     OW80714  11.006   9.016   3.584 -0.3007 -0.1665 -0.0891
25451SOL    HW180715  11.007   8.996   3.490 -0.1195  1.4836 -0.4848
25451SOL    HW280716  10.918   8.992   3.613 -1.6374  2.5139 -1.5113
25452SOL     OW80717   3.805   9.148   6.281  0.0022 -0.1191  0.3296
25452SOL    HW180718   3.888   9.100   6.287  1.3995  2.1311 -0.1391
25452SOL    HW280719   3.748   9.103   6.344  2.0472 -0.7822  1.8274
25453SOL     OW80720   9.028   4.044   7.201  0.3651  0.2928  0.3902
25453SOL    HW180721   9.058   4.117   7.148  0.1213  0.4627  0.4846
25453SOL    HW280722   8.985   3.985   7.139 -1.4804  1.3109  0.6232
25454SOL     OW80723   0.984   6.515   8.825  0.0289  0.1226 -0.4190
25454SOL    HW180724   0.981   6.565   8.906 -0.3300 -1.0268  0.2985
25454SOL    HW280725   0.985   6.424   8.853 -0.2439 -0.2970 -1.7125
25455SOL     OW80726   7.394   6.087   3.261 -0.5029 -0.2744 -0.4401
25455SOL    HW180727   7.422   6.008   3.308 -2.1504  0.0102  1.1628
25455SOL    HW280728   7.468   6.147   3.269 -0.4681 -0.4781  1.3117
25456SOL     OW80729   6.915   7.556   8.079  0.1203 -1.0000  0.0337
25456SOL    HW180730   6.958   7.642   8.076  0.3136 -1.1261 -1.8260
25456SOL    HW280731   6.933   7.517   7.994 -3.1481 -1.3149 -0.6494
25457SOL     OW80732   8.751   5.033   4.201  0.4496  0.0955  0.3161
25457SOL    HW180733   8.696   5.101   4.240  0.9333  2.0571 -2.1325
25457SOL    HW280734   8.798   4.995   4.275 -0.0364  2.2700  1.8604
25458SOL     OW80735   8.420   9.002   5.049  0.2647  0.6362  0.0103
25458SOL    HW180736   8.359   9.066   5.085  1.2039  0.8508  1.2935
25458SOL    HW280737   8.449   8.951   5.125  0.1237 -0.8283 -0.8728
25459SOL     OW80738   0.972   4.466   9.206 -0.8674  0.1360  0.2358
25459SOL    HW180739   0.939   4.500   9.289  0.1132  0.7948  0.3852
25459SOL    HW280740   0.934   4.524   9.139  1.1779  1.9720  0.5210
25460SOL     OW80741   7.548   0.579   3.466 -0.2367  0.9074 -0.0758
25460SOL    HW180742   7.617   0.550   3.407 -0.9743 -0.0976 -0.4699
25460SOL    HW280743   7.486   0.626   3.410 -1.5367 -1.0624 -0.3691
25461SOL     OW80744   2.081   0.259   1.756 -0.1635  0.2658  0.0397
25461SOL    HW180745   2.054   0.194   1.821  0.0490 -0.1678 -0.3010
25461SOL    HW280746   2.170   0.283   1.783 -0.4734  0.8768  0.5241
25462SOL     OW80747  11.050   4.272   2.342  0.4564 -0.3826 -0.4404
25462SOL    HW180748  11.085   4.261   2.430  1.6480  1.5768 -0.6051
25462SOL    HW280749  10.967   4.319   2.355  1.3722  1.3081 -0.3842
25463SOL     OW80750   1.835  10.045   3.561  0.1734 -0.1889  0.6088
25463SOL    HW180751   1.798  10.055   3.474 -0.1356 -1.3994  0.5883
25463SOL    HW280752   1.911   9.987   3.549  2.0452  2.0818  0.6799
25464SOL     OW80753   1.628   2.970   9.823 -0.6572  0.4994  0.5784
25464SOL    HW180754   1.632   3.058   9.786 -0.4259  0.1382 -0.2581
25464SOL    HW280755   1.574   2.980   9.902 -0.9906  1.3034  0.2548
25465SOL     OW80756   3.989   3.527   7.400  0.2651  0.0669 -0.2802
25465SOL    HW180757   3.962   3.614   7.430  0.4448  0.5967 -1.5847
25465SOL    HW280758   4.060   3.503   7.458  0.4125  0.9322 -0.0868
25466SOL     OW80759   6.216   0.269   8.904  0.0788  0.6541 -0.3269
25466SOL    HW180760   6.145   0.305   8.957  0.1542  0.8294 -0.3480
25466SOL    HW280761   6.245   0.191   8.952  0.1226  0.7934 -0.1320
25467SOL     OW80762   9.344   6.928   1.098  0.5575 -0.4241 -0.6076
25467SOL    HW180763   9.364   6.851   1.151  0.5593  0.3064  0.4986
25467SOL    HW280764   9.261   6.960   1.133  0.2005 -0.3205 -1.5302
25468SOL     OW80765   0.779   9.191   0.560  0.0162 -0.1762  0.1933
25468SOL    HW180766   0.700   9.201   0.613 -0.9202  0.5303 -1.2423
25468SOL    HW280767   0.801   9.098   0.566  0.6480  0.0738  2.6993
25469SOL     OW80768  10.546   3.187   7.593 -0.3316  0.2082 -0.1025
25469SOL    HW180769  10.492   3.125   7.545 -0.2297  0.4849 -0.5729
25469SOL    HW280770  10.614   3.213   7.532 -0.0359  0.3481  0.2802
25470SOL     OW80771   9.338   0.901   1.133 -0.2884 -0.1991 -0.2368
25470SOL    HW180772   9.333   0.982   1.082  0.2120 -0.3215 -0.4977
25470SOL    HW280773   9.397   0.845   1.082 -0.4350 -0.6345  0.0658
25471SOL     OW80774   0.348   5.420   9.538 -0.6704  0.4569 -0.0604
25471SOL    HW180775   0.254   5.432   9.552 -0.8401 -0.7570 -0.0623
25471SOL    HW280776   0.355   5.392   9.447 -0.1814  1.6622 -0.4207
25472SOL     OW80777   4.912   1.880   4.318 -0.7548  0.4103 -0.3435
25472SOL    HW180778   4.985   1.934   4.347  0.1708  1.8548 -4.6041
25472SOL    HW280779   4.835   1.921   4.355  0.2039  2.6157 -0.6402
25473SOL     OW80780   5.236   2.347   1.231 -0.2613 -0.3092  0.4626
25473SOL    HW180781   5.150   2.365   1.269 -1.4872 -1.5487 -1.5565
25473SOL    HW280782   5.283   2.431   1.237 -2.7224  1.2974 -1.1428
25474SOL     OW80783  10.304   3.135   9.066 -0.2256  0.0453 -0.6505
25474SOL    HW180784  10.348   3.060   9.025  0.8447  1.0743 -1.4505
25474SOL    HW280785  10.334   3.211   9.016 -1.2068  1.0349  0.2037
25475SOL     OW80786   9.041   3.774   8.639  0.2260  0.4874  0.0425
25475SOL    HW180787   9.073   3.853   8.681 -0.7914  0.4744  0.8681
25475SOL    HW280788   9.019   3.801   8.550 -0.5445  1.2525  0.4541
25476SOL     OW80789   3.232  10.063   0.821  0.2074  0.5283  0.0011
25476SOL    HW180790   3.304  10.023   0.772 -0.4424 -1.0126  0.2177
25476SOL    HW280791   3.263  10.065   0.911  0.4566  1.0533 -0.0938
25477SOL     OW80792   5.497   9.932   6.562  0.3647 -0.0231  0.6072
25477SOL    HW180793   5.467   9.890   6.481 -0.1149  1.6033 -0.1088
25477SOL    HW280794   5.436  10.004   6.576  0.7117  0.0039  2.1902
25478SOL     OW80795   6.857   8.832   6.946 -0.2781  0.7300  0.7281
25478SOL    HW180796   6.865   8.781   7.027 -0.0043  1.2017  1.0037
25478SOL    HW280797   6.946   8.862   6.927 -0.2237  0.0667 -0.1211
25479SOL     OW80798   0.415   1.752   8.404  0.2201  0.0018  0.1084
25479SOL    HW180799   0.409   1.687   8.474 -0.6638  0.4808  0.5001
25479SOL    HW280800   0.362   1.716   8.333 -0.0235  0.1546  0.2124
25480SOL     OW80801   3.439   0.591   9.944  0.4091 -0.0430 -0.2145
25480SOL    HW180802   3.389   0.612  10.022  1.0193 -1.1835  0.5086
25480SOL    HW280803   3.374   0.591   9.873 -0.4441 -0.5514  0.5458
25481SOL     OW80804   3.006   7.816   0.760 -0.4287  1.1006  0.8502
25481SOL    HW180805   2.933   7.879   0.763 -1.8775 -0.3782 -0.8020
25481SOL    HW280806   2.977   7.744   0.816 -0.7488  0.0526 -0.6022
25482SOL     OW80807  10.217   2.617   9.340  0.4667 -0.1370 -0.2790
25482SOL    HW180808  10.254   2.586   9.258  1.6314 -1.6121  0.7522
25482SOL    HW280809  10.123   2.602   9.330  0.7272 -1.5699 -0.8515
25483SOL     OW80810   0.058   7.209  10.571 -0.2314  0.2920  0.7959
25483SOL    HW180811  -0.037   7.218  10.574 -0.6765 -2.1433 -1.5529
25483SOL    HW280812   0.086   7.268  10.501 -0.3415 -0.4605  0.0927
25484SOL     OW80813  10.664   1.085   5.065 -0.0469 -0.3723 -0.3488
25484SOL    HW180814  10.636   0.994   5.074  1.5975 -0.8734  0.0193
25484SOL    HW280815  10.757   1.079   5.043 -0.4678  1.1512 -3.0398
25485SOL     OW80816   7.068   5.652   1.540 -0.3501  0.4748 -0.2774
25485SOL    HW180817   7.112   5.624   1.459  0.3779 -0.3114  0.3807
25485SOL    HW280818   7.133   5.705   1.585 -0.2494 -0.2574  0.4537
25486SOL     OW80819   9.169   7.835   0.765 -0.0991  0.2137  0.4613
25486SOL    HW180820   9.259   7.840   0.796  0.5086  1.3327 -1.3892
25486SOL    HW280821   9.171   7.776   0.690 -0.5079  1.6966 -0.7758
25487SOL     OW80822   5.368   2.757   3.801 -0.1703 -0.3855  0.5421
25487SOL    HW180823   5.373   2.847   3.769  0.5321  0.0586  1.8133
25487SOL    HW280824   5.390   2.702   3.725 -0.0507  0.5444 -0.1046
25488SOL     OW80825   6.489   6.261   4.240  0.3385  0.2306  0.2200
25488SOL    HW180826   6.508   6.248   4.333  1.7673 -0.2717 -0.1080
25488SOL    HW280827   6.415   6.321   4.238  0.0517 -0.0479  1.6851
25489SOL     OW80828   3.149  10.686   4.388 -0.3508 -0.2794  0.8159
25489SOL    HW180829   3.191  10.631   4.322  1.1509 -1.2252  2.4812
25489SOL    HW280830   3.073  10.636   4.416 -1.4436  0.4732 -0.6946
25490SOL     OW80831   5.015   8.586   7.350 -0.3209 -0.2096 -0.7006
25490SOL    HW180832   5.045   8.496   7.363  0.6469 -0.2562 -2.8223
25490SOL    HW280833   4.949   8.580   7.281 -2.8530  0.3473  1.5281
25491SOL     OW80834   9.832   0.220   9.964 -0.1647  0.1410  0.0097
25491SOL    HW180835   9.901   0.199   9.901 -0.0373 -0.9524  0.4743
25491SOL    HW280836   9.875   0.209  10.050 -1.3290 -2.4451  0.3754
25492SOL     OW80837   2.140   6.930   9.130 -0.0950  0.0017  0.1870
25492SOL    HW180838   2.191   7.001   9.168  0.0119 -0.4658  0.9227
25492SOL    HW280839   2.063   6.923   9.186 -0.5223  0.0907 -0.3795
25493SOL     OW80840   9.677   7.758   7.590  0.4930 -0.4601  0.3603
25493SOL    HW180841   9.736   7.802   7.652 -0.1551  2.0568 -0.6974
25493SOL    HW280842   9.733   7.737   7.515  0.3597  0.7810 -0.1137
25494SOL     OW80843  10.313  10.834  10.278 -0.1381  0.2055  0.5264
25494SOL    HW180844  10.344  10.865  10.363  0.4015 -2.3136  1.3353
25494SOL    HW280845  10.225  10.802  10.294 -0.7840  1.4737 -0.3378
25495SOL     OW80846   4.111   4.815   2.540 -0.2187  0.3077  0.4585
25495SOL    HW180847   4.204   4.837   2.529  0.1314 -1.8162 -1.6091
25495SOL    HW280848   4.074   4.822   2.452 -1.9304  0.5999  1.1582
25496SOL     OW80849   2.472   0.295   2.010 -0.3681  0.5891  0.0445
25496SOL    HW180850   2.433   0.251   1.935 -0.0486  0.6655 -0.1711
25496SOL    HW280851   2.486   0.226   2.074 -0.6520  0.5248  0.0363
25497SOL     OW80852   6.472   0.782   1.542 -0.4980  0.0397 -0.3394
25497SOL    HW180853   6.382   0.795   1.513  0.1120 -1.1733 -3.1276
25497SOL    HW280854   6.524   0.785   1.462  1.9036  0.0818  1.1070
25498SOL     OW80855   7.774   9.527   8.005  0.3425  0.2728  0.5574
25498SOL    HW180856   7.771   9.438   8.039 -0.1251  0.6902  1.6585
25498SOL    HW280857   7.809   9.518   7.916 -0.4309 -1.0919  0.3588
25499SOL     OW80858   7.571  10.739   4.040 -0.2986 -0.3545  0.0136
25499SOL    HW180859   7.582  10.820   3.989 -1.7776 -0.3854 -0.4217
25499SOL    HW280860   7.530  10.768   4.122 -0.3922 -0.6111  0.0580
25500SOL     OW80861   3.897   5.213  10.991 -0.1469 -0.0719  0.6591
25500SOL    HW180862   3.813   5.214  11.036 -0.9821  0.7946 -0.8546
25500SOL    HW280863   3.927   5.122  10.998 -1.3199 -0.4413  1.0204
25501SOL     OW80864   6.185   1.096   6.213 -0.2445 -0.1613 -0.2344
25501SOL    HW180865   6.226   1.046   6.283  0.6187  0.1597 -0.4987
25501SOL    HW280866   6.252   1.160   6.186 -0.5823 -0.2238 -1.2836
25502SOL     OW80867   4.736   6.816   8.929 -0.7736  0.3365  0.2256
25502SOL    HW180868   4.738   6.911   8.912 -0.8566  0.5422  1.2923
25502SOL    HW280869   4.722   6.809   9.024  0.8169 -0.7321  0.4203
25503SOL     OW80870   9.818  10.845   4.724  0.3470 -0.6378 -0.3990
25503SOL    HW180871   9.909  10.817   4.711  0.3577 -0.7436 -0.1000
25503SOL    HW280872   9.792  10.881   4.639  0.2343 -1.8336 -0.8954
25504SOL     OW80873  10.329   8.503   4.504  0.0701 -0.1295  0.1292
25504SOL    HW180874  10.394   8.473   4.568 -0.7925  1.4850  1.8548
25504SOL    HW280875  10.297   8.423   4.463  1.0863 -1.1774  1.3131
25505SOL     OW80876   5.883   3.289   4.153  0.6686  0.0956  0.4116
25505SOL    HW180877   5.944   3.300   4.226  2.0048  0.8388 -0.7677
25505SOL    HW280878   5.935   3.248   4.084 -0.5569 -0.5521 -0.1578
25506SOL     OW80879   5.322   8.838   9.719  0.1565 -0.2568 -0.2625
25506SOL    HW180880   5.266   8.842   9.641  0.1930  0.3692 -0.2572
25506SOL    HW280881   5.395   8.895   9.699  1.7961 -2.4819 -1.0386
25507SOL     OW80882   3.404   2.763  10.765 -0.0586 -0.4381 -0.3573
25507SOL    HW180883   3.398   2.720  10.850  2.1793  2.3367  1.3685
25507SOL    HW280884   3.469   2.711  10.717  0.1923 -0.8549  0.4147
25508SOL     OW80885   6.791  10.366   9.936  0.3749 -0.2339 -0.4969
25508SOL    HW180886   6.706  10.357   9.979  0.1464 -3.1160 -1.3521
25508SOL    HW280887   6.773  10.353   9.843  1.7959 -1.4082 -0.6437
25509SOL     OW80888   8.452   8.159   7.274 -0.1448 -0.2358  0.4616
25509SOL    HW180889   8.382   8.111   7.230 -1.2875  0.3828  1.5468
25509SOL    HW280890   8.418   8.248   7.282  0.7218  0.0449  1.1249
25510SOL     OW80891   0.423   7.108   9.032  0.4554 -0.2484 -0.1442
25510SOL    HW180892   0.351   7.171   9.022 -0.7198 -1.8174 -2.6358
25510SOL    HW280893   0.502   7.161   9.029 -0.4516  1.1479 -2.7487
25511SOL     OW80894   8.305   8.503   8.141 -0.0606  0.2853  0.0777
25511SOL    HW180895   8.278   8.500   8.233  1.1974 -0.2854  0.4410
25511SOL    HW280896   8.223   8.493   8.092 -0.7779  0.8989  1.1259
25512SOL     OW80897   0.908   0.443   1.214  0.4743 -0.2191  0.2178
25512SOL    HW180898   0.975   0.509   1.234  0.0556  0.1664  0.3597
25512SOL    HW280899   0.849   0.446   1.290  0.4102 -0.7027  0.1857
25513SOL     OW80900   6.395  10.922   3.015 -0.3482  0.3344 -0.1914
25513SOL    HW180901   6.473  10.929   3.069  1.2372 -1.4184 -2.0716
25513SOL    HW280902   6.366  10.831   3.026 -0.1349  0.0077 -2.0068
25514SOL     OW80903   7.505   3.633   6.082 -0.4610 -0.6244  0.5663
25514SOL    HW180904   7.505   3.543   6.115 -0.5612 -1.3390 -1.2645
25514SOL    HW280905   7.432   3.675   6.128 -2.4536 -2.3961 -0.7611
25515SOL     OW80906   4.481   7.934   5.637 -0.3708 -0.0765  0.3016
25515SOL    HW180907   4.447   7.845   5.625 -1.6218  0.0784  2.2097
25515SOL    HW280908   4.548   7.925   5.705 -0.8669  0.4889  0.8838
25516SOL     OW80909   0.694   0.403   2.171  0.1073 -0.1203  0.3255
25516SOL    HW180910   0.619   0.401   2.230  1.2661 -0.3781  1.8558
25516SOL    HW280911   0.727   0.492   2.177  0.2167 -0.1402  0.0337
25517SOL     OW80912   9.680   3.626   3.149 -0.4120  0.0250 -0.0234
25517SOL    HW180913   9.630   3.706   3.135 -0.6231 -0.0573  0.2501
25517SOL    HW280914   9.755   3.634   3.090 -0.1560  0.6579  0.3762
25518SOL     OW80915   5.200   7.077   2.950 -0.2013  0.1421 -0.4385
25518SOL    HW180916   5.176   7.162   2.913 -0.1295 -0.0942 -1.0379
25518SOL    HW280917   5.170   7.014   2.885 -1.1389 -0.3496  0.4521
25519SOL     OW80918   9.691   8.836   4.558  0.6798  0.3037  0.1891
25519SOL    HW180919   9.751   8.762   4.558  0.9757  0.4659 -2.1254
25519SOL    HW280920   9.626   8.814   4.491  0.4306  1.8539 -0.1120
25520SOL     OW80921   3.177   3.746   3.101 -0.7298  0.2563  0.5615
25520SOL    HW180922   3.111   3.813   3.083 -0.8875  0.0877  0.5039
25520SOL    HW280923   3.142   3.667   3.060 -1.1024 -0.1315  1.5957
25521SOL     OW80924   4.557   8.868  10.065  0.0010 -0.1751 -0.0862
25521SOL    HW180925   4.578   8.806   9.995 -0.8115 -0.2579 -0.2693
25521SOL    HW280926   4.625   8.855  10.130  0.8308 -0.0315 -0.9033
25522SOL     OW80927   5.047  10.952   6.239 -0.2833  0.6764 -0.2873
25522SOL    HW180928   5.002  10.975   6.158 -0.3448 -0.3872 -0.5785
25522SOL    HW280929   5.030  11.025   6.299  0.1790  1.7147 -1.3868
25523SOL     OW80930   0.285   5.350   7.936 -0.0097 -0.2618 -0.9568
25523SOL    HW180931   0.302   5.407   8.011 -0.9893  0.0371 -0.9434
25523SOL    HW280932   0.261   5.410   7.865  0.7603 -0.5488 -1.4818
25524SOL     OW80933   7.126   3.581   7.339 -0.0946 -0.6069 -0.2889
25524SOL    HW180934   7.089   3.657   7.293 -0.2211 -1.3012 -1.3763
25524SOL    HW280935   7.050   3.537   7.377 -0.1383 -0.7378 -0.5231
25525SOL     OW80936   3.679   8.353   0.799 -0.6098  0.2959  0.1534
25525SOL    HW180937   3.583   8.344   0.800 -0.9029  2.7723  0.3084
25525SOL    HW280938   3.695   8.439   0.760  1.6404 -0.5250 -0.9018
25526SOL     OW80939   9.896   0.918   4.370 -0.2559  0.1928  0.2327
25526SOL    HW180940   9.872   0.915   4.463  1.8779 -0.0830  0.8384
25526SOL    HW280941   9.921   1.009   4.355  1.3740 -0.1669  0.5321
25527SOL     OW80942   9.139   2.666   1.280  0.1241  0.4165  0.1857
25527SOL    HW180943   9.172   2.576   1.281 -0.5000  0.1926  1.1327
25527SOL    HW280944   9.069   2.665   1.214 -0.6294 -0.0723  0.9744
25528SOL     OW80945   3.478   0.886   2.853  0.0535 -0.5026 -0.2084
25528SOL    HW180946   3.550   0.880   2.792  0.2808  1.9094 -0.2739
25528SOL    HW280947   3.519   0.906   2.937 -0.3647 -2.2468  0.4584
25529SOL     OW80948   7.776   2.824   1.844  0.3117  0.1030  0.4865
25529SOL    HW180949   7.830   2.903   1.838  1.1681 -0.4282  1.0659
25529SOL    HW280950   7.837   2.752   1.829 -0.5623 -0.4471 -0.5635
25530SOL     OW80951   3.801   6.193   0.920  0.4597  0.0781  0.0192
25530SOL    HW180952   3.871   6.188   0.854  0.2445  1.2515 -0.3314
25530SOL    HW280953   3.720   6.185   0.869  0.3127 -1.7474  0.4775
25531SOL     OW80954   9.977   5.185   7.954 -0.2193  0.3627 -0.1378
25531SOL    HW180955   9.894   5.149   7.984 -1.8791  1.7700 -2.6354
25531SOL    HW280956   9.986   5.268   8.000 -0.6684  0.6197 -0.5087
25532SOL     OW80957   5.376   6.396   4.556  0.5395  0.3541 -0.2853
25532SOL    HW180958   5.466   6.420   4.579  0.2527  1.3640 -0.1742
25532SOL    HW280959   5.329   6.479   4.552 -0.4150 -0.1683 -0.2550
25533SOL     OW80960   9.729   9.374   0.188 -0.3489 -0.2537  0.1472
25533SOL    HW180961   9.693   9.424   0.115 -3.6837 -0.4727  1.4390
25533SOL    HW280962   9.697   9.419   0.266  0.7338 -1.6023  1.4477
25534SOL     OW80963  10.823   1.408   4.640  0.0129  0.1138  0.7183
25534SOL    HW180964  10.785   1.462   4.710  1.1367  1.6689  0.1706
25534SOL    HW280965  10.863   1.471   4.580 -2.1314 -1.0415 -2.1436
25535SOL     OW80966   2.803   9.871   0.694 -0.3496 -0.3620  0.3524
25535SOL    HW180967   2.728   9.925   0.721 -0.6277 -0.7313  0.3159
25535SOL    HW280968   2.830   9.909   0.610 -0.8083 -0.5390  0.1237
25536SOL     OW80969   4.816   3.506  10.056  0.1993 -0.0335 -0.4049
25536SOL    HW180970   4.738   3.511  10.001  0.2129  0.0801 -0.4145
25536SOL    HW280971   4.835   3.413  10.062 -0.4260 -0.1240  0.3028
25537SOL     OW80972   8.760   1.064  10.012 -0.2542 -0.4433  0.0537
25537SOL    HW180973   8.676   1.104   9.994  0.3160  0.4995 -0.5946
25537SOL    HW280974   8.754   1.034  10.103 -0.7533  0.9810  0.5070
25538SOL     OW80975   4.215   3.242   7.591  0.0587 -0.1376 -0.3411
25538SOL    HW180976   4.285   3.301   7.619  0.7475 -1.7131  1.4806
25538SOL    HW280977   4.134   3.283   7.620  0.3839  0.6419 -0.5097
25539SOL     OW80978   4.778   9.794   1.613 -0.4281  0.1014  0.0274
25539SOL    HW180979   4.855   9.839   1.649 -0.3694  0.7565 -0.8924
25539SOL    HW280980   4.813   9.731   1.550 -0.6437  0.4617 -0.4567
25540SOL     OW80981   9.278   6.286   9.128  0.6552 -0.1429  0.2618
25540SOL    HW180982   9.342   6.353   9.103  0.1759  0.2175 -0.0178
25540SOL    HW280983   9.326   6.204   9.126  0.5997 -0.1699 -2.0478
25541SOL     OW80984   0.052   5.761  10.626  0.0244  0.1256  0.2400
25541SOL    HW180985   0.004   5.843  10.637 -0.0013 -0.0336  1.5496
25541SOL    HW280986   0.136   5.776  10.668 -0.3592 -0.8143  1.4215
25542SOL     OW80987   6.039   5.424   5.984 -0.2202  0.0278  0.2673
25542SOL    HW180988   6.079   5.339   6.001  1.5764  0.6019 -0.8661
25542SOL    HW280989   5.945   5.408   5.994  0.0061 -2.2700 -0.6740
25543SOL     OW80990   5.429   9.720   3.495 -0.0711 -0.2459  0.5518
25543SOL    HW180991   5.409   9.627   3.482  0.6157 -0.2050 -1.0868
25543SOL    HW280992   5.511   9.720   3.544  0.8433 -0.5839 -0.8828
25544SOL     OW80993   6.181   2.994   4.190 -0.2964 -0.3343  0.6005
25544SOL    HW180994   6.123   2.929   4.229  0.0228  0.1739  1.9568
25544SOL    HW280995   6.267   2.979   4.230 -0.1462  0.7264  0.7267
25545SOL     OW80996  10.486   2.470   4.167 -0.2632 -0.0546  0.0308
25545SOL    HW180997  10.488   2.415   4.246  1.7137  0.7640  0.6012
25545SOL    HW280998  10.552   2.431   4.109  0.4806  1.1261  0.0539
25546SOL     OW80999   3.243   6.168   4.126  0.0501 -0.1246 -0.6390
25546SOL    HW181000   3.322   6.178   4.179 -1.0183  1.1395  0.8136
25546SOL    HW281001   3.174   6.148   4.189 -1.0803  0.3499 -1.6824
25547SOL     OW81002   5.653   6.902   2.866  0.2700 -0.0160 -0.3226
25547SOL    HW181003   5.701   6.970   2.912 -0.0478  1.6782 -2.3724
25547SOL    HW281004   5.598   6.861   2.934 -0.4481  2.5787  0.7699
25548SOL     OW81005   4.906   7.076   3.268 -0.3459 -0.0271 -0.6114
25548SOL    HW181006   4.977   7.117   3.318  1.1102 -0.1605 -2.4699
25548SOL    HW281007   4.935   7.080   3.177 -3.5703  1.6760 -1.7592
25549SOL     OW81008   7.245   7.730   4.508  0.2335  0.2226 -0.2157
25549SOL    HW181009   7.246   7.670   4.582 -1.5098 -0.5660 -0.7665
25549SOL    HW281010   7.286   7.681   4.437  0.3692  0.3232 -0.2050
25550SOL     OW81011   9.232   8.100   5.037  0.0672 -0.0520 -0.4510
25550SOL    HW181012   9.209   8.012   5.066 -0.0334  0.4662  1.1232
25550SOL    HW281013   9.257   8.089   4.945  3.0623 -2.2557  0.4923
25551SOL     OW81014   7.187   1.942   1.558 -0.6524 -0.2606  1.2390
25551SOL    HW181015   7.109   1.955   1.612 -1.2243  0.5613  0.2420
25551SOL    HW281016   7.259   1.977   1.610 -1.3462  1.5422  1.0299
25552SOL     OW81017  10.318  11.108   2.297 -0.3522 -0.0172  0.1205
25552SOL    HW181018  10.298  11.051   2.223  1.0781  0.0468 -0.3608
25552SOL    HW281019  10.386  11.167   2.263 -0.6485  0.9056  1.0898
25553SOL     OW81020   4.366   0.150   1.931 -0.4255  0.2261 -0.1896
25553SOL    HW181021   4.388   0.063   1.897 -1.6824 -0.7913  1.4677
25553SOL    HW281022   4.275   0.164   1.907 -0.0303  1.4479 -1.0932
25554SOL     OW81023  10.012   7.016   7.616  0.3308 -0.0545  0.2430
25554SOL    HW181024  10.094   6.987   7.656  0.6377  1.7010  0.9868
25554SOL    HW281025  10.005   6.964   7.536  1.2608 -1.4782  1.0433
25555SOL     OW81026   2.145   1.625   5.165  0.0416 -0.4931 -0.3640
25555SOL    HW181027   2.120   1.705   5.118  1.1705 -0.0592 -0.2623
25555SOL    HW281028   2.175   1.565   5.097  1.2851 -0.0134 -0.2683
25556SOL     OW81029  10.874   3.083  10.682  0.0111 -0.1530  0.8052
25556SOL    HW181030  10.955   3.081  10.630 -1.0506 -0.6082 -0.9079
25556SOL    HW281031  10.903   3.109  10.770  2.1634 -1.3289  0.5270
25557SOL     OW81032   4.106   4.571   8.064  0.6310  0.3708  0.0547
25557SOL    HW181033   4.032   4.631   8.076  0.5541  0.9320 -2.5773
25557SOL    HW281034   4.068   4.484   8.073 -0.1999  0.6712 -0.4149
25558SOL     OW81035   5.581   4.852   9.950 -0.3986 -0.0532  0.2712
25558SOL    HW181036   5.505   4.847   9.892 -1.4242 -0.0982  1.5745
25558SOL    HW281037   5.583   4.943   9.979  1.2628  0.4764 -1.2613
25559SOL     OW81038   2.468   4.043   2.236 -0.3264  0.4057  0.4723
25559SOL    HW181039   2.471   4.072   2.145  1.1143  1.1667  0.7497
25559SOL    HW281040   2.473   3.947   2.230 -0.0332  0.4570 -0.2436
25560SOL     OW81041   3.166   4.618   8.896  0.7545  0.8258 -0.0776
25560SOL    HW181042   3.079   4.638   8.932  0.8433  0.8726  0.1073
25560SOL    HW281043   3.169   4.667   8.814  1.0480  1.7342  0.4633
25561SOL     OW81044   3.107   9.078   3.448  0.1825  0.4207 -0.4840
25561SOL    HW181045   3.159   9.138   3.395  1.1034 -1.0095 -1.2464
25561SOL    HW281046   3.017   9.107   3.435  0.6305  1.9393 -0.4239
25562SOL     OW81047  11.112   8.423   4.563  0.2099  0.6247  0.0900
25562SOL    HW181048  11.096   8.402   4.655  0.4350  0.1577  0.0263
25562SOL    HW281049  11.025   8.439   4.527 -0.1287 -1.4400 -0.1405
25563SOL     OW81050   5.290  10.561   3.481 -0.2862  0.0309  0.1374
25563SOL    HW181051   5.278  10.468   3.499 -0.0980  0.3453  2.0879
25563SOL    HW281052   5.382  10.578   3.503 -0.4193  0.7544  0.1509
25564SOL     OW81053   7.916   5.737   1.838 -0.2428 -0.3794  0.0030
25564SOL    HW181054   7.860   5.726   1.761  0.3935 -0.2506 -0.4923
25564SOL    HW281055   7.964   5.654   1.845  1.4297  0.4079 -1.1829
25565SOL     OW81056   8.732  10.937   5.980 -0.6341  1.2721  0.0027
25565SOL    HW181057   8.667  10.912   5.915 -0.5067  1.4697 -0.2028
25565SOL    HW281058   8.683  10.949   6.061 -0.5643 -0.6661  0.3713
25566SOL     OW81059   2.620   5.697   0.679 -0.8185  0.0728 -0.3031
25566SOL    HW181060   2.636   5.624   0.738 -2.5581  0.3828  0.6304
25566SOL    HW281061   2.525   5.701   0.670 -0.6668  0.7931 -2.1985
25567SOL     OW81062   0.988   1.570   1.105  0.1717 -0.0937  0.1516
25567SOL    HW181063   0.904   1.600   1.141  1.2634  0.2721  2.5688
25567SOL    HW281064   1.011   1.636   1.040 -0.6625  0.6610  0.5998
25568SOL     OW81065   4.748   9.586   0.461 -0.7256  0.0332 -0.5838
25568SOL    HW181066   4.706   9.631   0.388 -1.7188  0.9170  0.4840
25568SOL    HW281067   4.698   9.505   0.470  1.6349 -1.8794 -3.0925
25569SOL     OW81068  10.235   2.984   1.180 -0.1339  0.7973  0.2886
25569SOL    HW181069  10.189   2.902   1.198  1.2789 -0.0252  0.3315
25569SOL    HW281070  10.255   3.019   1.267  0.8918  0.2186  0.2962
25570SOL     OW81071   8.794   7.704   6.079 -0.2871 -0.5010 -0.0546
25570SOL    HW181072   8.758   7.715   5.991  0.3822  0.0461 -0.2594
25570SOL    HW281073   8.760   7.619   6.107  0.9708 -1.5464 -1.5484
25571SOL     OW81074   0.245   5.989   4.451 -0.3709  0.2038 -0.0229
25571SOL    HW181075   0.338   6.001   4.430 -0.2316 -0.9580 -0.1523
25571SOL    HW281076   0.224   5.902   4.418 -0.6804 -0.9008  2.8199
25572SOL     OW81077   3.144   0.387   9.588 -0.1322 -0.5637 -0.2743
25572SOL    HW181078   3.106   0.365   9.503 -0.0978 -1.5794 -0.0403
25572SOL    HW281079   3.094   0.462   9.617  1.0473  0.9711 -1.9879
25573SOL     OW81080   7.350   9.695   8.762 -0.2703 -0.1629  0.5326
25573SOL    HW181081   7.356   9.790   8.752 -0.8734 -0.2385 -0.6928
25573SOL    HW281082   7.333   9.663   8.674  0.8673 -1.4999  0.7699
25574SOL     OW81083   8.079   0.336   4.945 -0.1601  0.2185  0.2151
25574SOL    HW181084   8.059   0.315   4.854  0.6695  2.2091 -0.4722
25574SOL    HW281085   8.172   0.360   4.945  0.3160 -1.3544  1.9163
25575SOL     OW81086   8.309   0.222  10.519 -0.0990  0.5718 -0.3212
25575SOL    HW181087   8.353   0.227  10.434  1.3709  1.5339  0.4549
25575SOL    HW281088   8.287   0.129  10.529  0.7354  0.2567 -1.2362
25576SOL     OW81089   8.475   2.793   8.955  0.0663 -0.2760 -0.3166
25576SOL    HW181090   8.523   2.718   8.920 -0.3988 -2.1248  2.6534
25576SOL    HW281091   8.530   2.826   9.026 -0.4363  1.2852 -0.6044
25577SOL     OW81092   0.123  10.279   0.237  0.5122 -0.0421  0.1307
25577SOL    HW181093   0.084  10.236   0.313 -0.0654 -1.5167 -0.9474
25577SOL    HW281094   0.214  10.292   0.261  0.3583 -0.5547  1.0393
25578SOL     OW81095   9.860  10.244   8.589  0.1571 -0.1541  0.2535
25578SOL    HW181096   9.811  10.265   8.510 -0.6159  3.0511  1.4311
25578SOL    HW281097   9.941  10.204   8.558  0.5116  2.2662 -2.2869
25579SOL     OW81098   2.804   4.423   4.443 -0.2286 -0.1584  0.1307
25579SOL    HW181099   2.729   4.481   4.461 -0.3333 -0.5562  1.0378
25579SOL    HW281100   2.873   4.455   4.502 -0.7599 -1.8547  1.7864
25580SOL     OW81101   6.508   6.329   9.830 -0.3226  0.1837 -0.0669
25580SOL    HW181102   6.424   6.336   9.785 -1.1717  1.2643  1.5725
25580SOL    HW281103   6.573   6.329   9.760 -1.5754  1.6138 -1.3012
25581SOL     OW81104   7.549   0.002   9.575 -0.9198  0.3893  0.0172
25581SOL    HW181105   7.533   0.096   9.580 -2.0959  0.2015  0.0352
25581SOL    HW281106   7.643  -0.006   9.563 -1.0164  1.6507 -2.1084
25582SOL     OW81107   3.048  10.273   7.696  0.1756  0.2384  0.1089
25582SOL    HW181108   3.129  10.243   7.737 -0.4782 -2.6339 -0.5015
25582SOL    HW281109   3.075  10.308   7.611  0.8301 -0.1578  0.1532
25583SOL     OW81110   0.351   2.919  10.909  0.4398 -0.3221  0.1103
25583SOL    HW181111   0.376   2.987  10.847 -0.2516 -0.2531 -0.1060
25583SOL    HW281112   0.262   2.943  10.936  0.7040 -0.3853  1.0819
25584SOL     OW81113   5.196   1.953   5.973  0.4300 -0.2242  0.1887
25584SOL    HW181114   5.140   2.020   5.934  0.2857 -0.2987  0.2633
25584SOL    HW281115   5.137   1.880   5.989  0.4856 -0.1950  0.5396
25585SOL     OW81116   7.037   7.356   9.608  0.4288  0.1096  0.2328
25585SOL    HW181117   6.972   7.424   9.627  0.9177  0.7936 -0.4767
25585SOL    HW281118   7.083   7.389   9.531  1.9191 -0.1562  0.9811
25586SOL     OW81119   4.078   0.433   3.797 -0.3399  0.5400 -0.0851
25586SOL    HW181120   4.168   0.464   3.810  0.6071 -1.2022 -1.8722
25586SOL    HW281121   4.073   0.351   3.847  0.3142 -1.2535 -2.7628
25587SOL     OW81122   8.891   7.807   7.184 -0.1784 -0.1449 -0.0838
25587SOL    HW181123   8.907   7.714   7.174  1.0311 -0.0768  0.9875
25587SOL    HW281124   8.960   7.838   7.243 -1.6083  1.0871  1.0356
25588SOL     OW81125   8.897   1.246   0.663  0.1447 -0.1416 -0.1310
25588SOL    HW181126   8.918   1.336   0.690 -0.3418  0.1971 -0.8457
25588SOL    HW281127   8.818   1.255   0.609  0.2120 -0.9771 -0.3852
25589SOL     OW81128   9.549   8.803   4.793  0.1580  0.0451 -0.0609
25589SOL    HW181129   9.526   8.712   4.810 -3.6667  0.5609 -1.6094
25589SOL    HW281130   9.586   8.801   4.704  1.9770 -0.1529  0.6495
25590SOL     OW81131   7.011   0.313   4.027  0.2369 -0.9799  0.5486
25590SOL    HW181132   6.966   0.288   3.947 -0.0880 -0.5944  0.6098
25590SOL    HW281133   6.971   0.258   4.095  1.6174 -2.4841  0.2117
25591SOL     OW81134   4.404   6.346   9.743  0.5689  0.4700  0.5833
25591SOL    HW181135   4.345   6.346   9.818  1.5726 -0.1212  1.3940
25591SOL    HW281136   4.346   6.335   9.667 -0.3412 -0.4899  1.3801
25592SOL     OW81137   3.328   6.932   7.920 -0.2655  0.6669 -0.3390
25592SOL    HW181138   3.352   6.989   7.847  0.3388 -0.0393 -0.7053
25592SOL    HW281139   3.317   6.845   7.880 -3.6786  0.9124 -0.2476
25593SOL     OW81140   7.478   8.226   3.250  0.0705  0.5898  0.2869
25593SOL    HW181141   7.432   8.298   3.208 -0.1116 -0.2048 -0.9219
25593SOL    HW281142   7.408   8.170   3.285  0.2192  1.3291  1.8598
25594SOL     OW81143   1.035  11.117   5.391  0.2860 -0.0787 -0.0478
25594SOL    HW181144   1.097  11.085   5.326  0.0961 -0.4146 -0.0672
25594SOL    HW281145   1.053  11.211   5.398 -0.0196  0.0580 -0.9465
25595SOL     OW81146   5.545   6.671   9.851  0.4875 -0.1518 -0.0727
25595SOL    HW181147   5.513   6.749   9.896 -0.5969  0.6985 -2.1706
25595SOL    HW281148   5.513   6.598   9.904  0.4238  0.8021  1.2350
25596SOL     OW81149   6.220   4.185   4.269  0.0574  0.3984 -0.1252
25596SOL    HW181150   6.128   4.186   4.296 -0.3006 -1.9583 -1.0306
25596SOL    HW281151   6.218   4.181   4.174  1.1925  2.4363 -0.2926
25597SOL     OW81152   3.500   3.307   4.048 -0.6515  0.0151  0.4707
25597SOL    HW181153   3.451   3.381   4.010 -0.5740  0.3401  1.0042
25597SOL    HW281154   3.432   3.244   4.073 -0.6603 -0.6675 -1.1491
25598SOL     OW81155   0.224   7.026   5.483 -0.3293 -0.1271  0.0542
25598SOL    HW181156   0.201   7.061   5.397  1.9982 -0.3565 -0.7194
25598SOL    HW281157   0.286   7.089   5.519  0.6897 -1.3116  0.4377
25599SOL     OW81158   2.462   7.130   0.506 -0.2580 -0.3119  0.8073
25599SOL    HW181159   2.375   7.131   0.466  0.2333 -0.4099 -0.2777
25599SOL    HW281160   2.464   7.048   0.556 -1.8892  1.0687  3.4105
25600SOL     OW81161   4.626   9.758   0.836 -0.2082 -0.1610  0.1187
25600SOL    HW181162   4.583   9.686   0.882 -0.5641 -1.1784 -1.7112
25600SOL    HW281163   4.696   9.716   0.786  0.1776  0.8956 -0.2546
25601SOL     OW81164   7.370   5.160   6.039  0.3904 -0.1830 -0.1708
25601SOL    HW181165   7.286   5.124   6.065  0.9287 -1.5507 -0.2357
25601SOL    HW281166   7.366   5.166   5.944 -0.3213  1.5850 -0.0576
25602SOL     OW81167   7.751   1.131   7.753 -0.8273 -0.3252 -0.0509
25602SOL    HW181168   7.822   1.080   7.715  0.2025  1.2388 -0.3260
25602SOL    HW281169   7.753   1.110   7.846 -2.3181 -2.9539 -0.5349
25603SOL     OW81170   1.886   6.153  10.074  0.1767 -0.1030  0.3743
25603SOL    HW181171   1.903   6.199   9.992 -0.2397 -1.0788 -0.2813
25603SOL    HW281172   1.973   6.140  10.113  0.2622  1.6752  0.8422
25604SOL     OW81173   3.448   7.617   8.167 -0.6480  0.4112  0.1246
25604SOL    HW181174   3.502   7.598   8.090  1.1407 -1.7961  1.7969
25604SOL    HW281175   3.511   7.646   8.233 -1.8901  0.3281  1.3718
25605SOL     OW81176   5.899   9.823   7.206 -0.5141  0.1693 -0.4445
25605SOL    HW181177   5.867   9.909   7.180 -1.0441 -0.5652 -2.3952
25605SOL    HW281178   5.947   9.791   7.130  0.5936 -0.8350  0.6324
25606SOL     OW81179   5.794   4.070   0.327  0.5192  0.8547 -0.4232
25606SOL    HW181180   5.731   4.000   0.307 -0.3303  1.7173 -0.8452
25606SOL    HW281181   5.767   4.143   0.271  2.2755  1.0534 -1.0649
25607SOL     OW81182   4.272   0.897   6.173 -0.1357  0.0673  0.4982
25607SOL    HW181183   4.209   0.876   6.103  0.5355 -1.0189  0.2037
25607SOL    HW281184   4.221   0.889   6.254 -0.4070 -0.7278  0.2571
25608SOL     OW81185   7.993   4.475   7.519  0.4639 -0.3891  0.4736
25608SOL    HW181186   8.085   4.499   7.507  0.5673 -0.9455  0.0842
25608SOL    HW281187   7.969   4.431   7.437  0.5278 -2.3430  1.4362
25609SOL     OW81188   6.964   6.877   5.422  0.1962 -0.1686  0.3522
25609SOL    HW181189   6.976   6.970   5.440 -0.0753  0.0061 -0.3498
25609SOL    HW281190   6.966   6.870   5.326  0.3860 -0.9075  0.4002
25610SOL     OW81191   9.730   8.492   9.603  0.3133  0.4415  0.2365
25610SOL    HW181192   9.806   8.493   9.545  0.3559 -0.1993  0.2720
25610SOL    HW281193   9.706   8.399   9.609 -1.2283  0.7245 -0.7759
25611SOL     OW81194   8.223  10.468   3.621 -0.6097  0.2398 -0.4177
25611SOL    HW181195   8.145  10.502   3.665 -0.4900 -0.2759  0.1980
25611SOL    HW281196   8.192  10.397   3.566 -0.8035  1.0666 -1.4257
25612SOL     OW81197  10.428   2.630   3.948 -0.1262  0.4474  0.4105
25612SOL    HW181198  10.450   2.719   3.974 -0.1768  0.3866  0.6678
25612SOL    HW281199  10.454   2.576   4.023 -0.1592  0.2542  0.2849
25613SOL     OW81200   4.822   9.278   5.177  0.6984  0.3640  0.4850
25613SOL    HW181201   4.917   9.287   5.182  0.6258  0.3300  2.3504
25613SOL    HW281202   4.798   9.229   5.256 -0.8562  0.2234 -0.0416
25614SOL     OW81203   9.800   7.894   6.362  0.2009 -0.5872 -0.0766
25614SOL    HW181204   9.801   7.845   6.445  1.7698 -1.5092 -0.6040
25614SOL    HW281205   9.755   7.975   6.383 -2.2133 -2.0577  0.9413
25615SOL     OW81206   5.330   2.351   3.586 -0.0008 -0.0509 -0.0375
25615SOL    HW181207   5.268   2.320   3.520  1.0804  0.5765 -1.3994
25615SOL    HW281208   5.378   2.272   3.612 -0.5434 -0.3311  0.1317
25616SOL     OW81209  10.385   6.647   4.157 -0.2314 -0.4066 -0.3047
25616SOL    HW181210  10.341   6.701   4.092 -0.4333  0.1074  0.2584
25616SOL    HW281211  10.315   6.598   4.200  0.0581 -2.4264 -1.9393
25617SOL     OW81212   3.775  10.359   7.770 -0.0719 -0.6008  0.0538
25617SOL    HW181213   3.755  10.266   7.769  0.7702 -0.8510 -2.6581
25617SOL    HW281214   3.709  10.398   7.712  0.5606  0.2357 -0.1170
25618SOL     OW81215   1.097   6.934   5.862  0.3904 -0.5503 -0.0151
25618SOL    HW181216   1.171   6.882   5.830  0.0180  0.1717 -2.2416
25618SOL    HW281217   1.123   7.025   5.844 -0.7956 -0.2587 -0.2935
25619SOL     OW81218   0.585   8.193   6.695 -0.5461  0.0307  0.3444
25619SOL    HW181219   0.585   8.191   6.599  1.0772 -0.5935  0.3259
25619SOL    HW281220   0.596   8.285   6.717  0.3259  0.0396 -0.0962
25620SOL     OW81221   8.850   3.001   7.980 -0.3528 -0.0325 -0.1216
25620SOL    HW181222   8.928   2.973   7.933  0.0637 -1.2929  1.2524
25620SOL    HW281223   8.845   2.943   8.056 -1.3322  1.5271  1.0766
25621SOL     OW81224   1.387   6.661   6.358 -0.1001 -0.1676  0.0398
25621SOL    HW181225   1.453   6.639   6.292 -1.1324 -0.4362 -0.9220
25621SOL    HW281226   1.327   6.721   6.314 -0.7223 -0.2234  0.7846
25622SOL     OW81227   1.314   9.206   6.284 -0.4567 -0.7062 -0.0154
25622SOL    HW181228   1.224   9.229   6.259  0.3100  2.1890 -0.4875
25622SOL    HW281229   1.327   9.252   6.367  0.4902 -1.4150  0.2397
25623SOL     OW81230   1.904   4.609   7.979  1.1608  0.4736 -0.0802
25623SOL    HW181231   1.829   4.563   8.017  0.9429  0.1383 -0.9028
25623SOL    HW281232   1.867   4.690   7.944  0.7765 -0.6000 -2.3053
25624SOL     OW81233   2.720   9.727   8.989  0.0416  0.1312 -0.0046
25624SOL    HW181234   2.647   9.668   9.003  1.2882 -1.6234 -0.4673
25624SOL    HW281235   2.703   9.767   8.904  0.8440 -2.3055 -1.4139
25625SOL     OW81236   0.877   2.710   6.194  0.6522 -0.4163  0.2219
25625SOL    HW181237   0.902   2.646   6.261  1.0656 -0.5287 -0.0330
25625SOL    HW281238   0.784   2.696   6.181  0.3424  0.3332  1.5411
25626SOL     OW81239   1.170  10.929   5.008 -1.0044  0.0540 -0.1787
25626SOL    HW181240   1.169  10.847   5.058 -2.0118  0.3074  0.2414
25626SOL    HW281241   1.176  10.901   4.917 -0.6163 -0.4572 -0.0050
25627SOL     OW81242   3.571   7.867   2.412 -0.1280  0.1957 -0.2109
25627SOL    HW181243   3.532   7.895   2.495  1.0288  0.7645  0.1661
25627SOL    HW281244   3.566   7.945   2.356 -0.6099 -0.0914 -0.5800
25628SOL     OW81245   6.541   9.563  10.965  0.1617 -0.0422  0.3731
25628SOL    HW181246   6.623   9.607  10.988  0.2014  0.1709 -0.1663
25628SOL    HW281247   6.547   9.550  10.870 -0.9124  0.9875  0.1402
25629SOL     OW81248   1.257   5.361   8.565 -0.3110 -0.9031  0.1691
25629SOL    HW181249   1.249   5.268   8.542 -0.2853 -0.9917  0.5141
25629SOL    HW281250   1.303   5.400   8.491 -0.3260 -1.1640  0.0202
25630SOL     OW81251   0.253   4.926   7.501  0.1607 -0.0553  0.5981
25630SOL    HW181252   0.161   4.925   7.526 -0.0936 -1.3348 -0.3244
25630SOL    HW281253   0.292   4.993   7.558 -0.8699 -1.0754  2.6171
25631SOL     OW81254   4.922   2.556   4.960  0.0367 -0.0995 -0.1582
25631SOL    HW181255   4.969   2.637   4.980 -1.2583  0.3961  0.9735
25631SOL    HW281256   4.869   2.539   5.038 -0.9057 -1.1768 -1.0065
25632SOL     OW81257   3.454   9.058  10.159  0.7727 -0.0557  0.4720
25632SOL    HW181258   3.413   9.008  10.230  1.2051 -0.0114  0.7521
25632SOL    HW281259   3.408   9.142  10.159 -0.1277 -0.5244 -0.1588
25633SOL     OW81260   3.386   4.866   2.299  0.0606  0.4230 -0.0866
25633SOL    HW181261   3.431   4.908   2.373  0.1478  1.0832 -0.5100
25633SOL    HW281262   3.430   4.901   2.221 -1.6881  1.7248 -0.5522
25634SOL     OW81263   2.403   5.700   8.338 -0.5467 -0.0891  0.2038
25634SOL    HW181264   2.410   5.656   8.423 -0.5490  0.3087  0.4100
25634SOL    HW281265   2.338   5.769   8.352 -0.1408  0.3317  0.0308
25635SOL     OW81266   1.287   6.332   7.936  0.0792 -0.0012 -0.3322
25635SOL    HW181267   1.344   6.329   8.013 -0.4003 -0.0501  0.0257
25635SOL    HW281268   1.202   6.357   7.971 -0.5838 -1.8172 -0.5839
25636SOL     OW81269   2.398   7.628   3.873 -0.6453 -0.2332  0.8176
25636SOL    HW181270   2.484   7.620   3.833 -0.9487  1.2563 -0.2719
25636SOL    HW281271   2.369   7.717   3.849 -0.8015  0.8907  4.5394
25637SOL     OW81272   0.815   0.224   4.476  0.0252 -0.1309 -0.4977
25637SOL    HW181273   0.835   0.240   4.568  0.7931  0.4287 -0.7539
25637SOL    HW281274   0.898   0.201   4.436  0.1756  1.9611 -1.5214
25638SOL     OW81275   6.604   2.124   5.891  0.1092  0.4394 -0.0551
25638SOL    HW181276   6.624   2.126   5.985  2.6329 -0.1983 -0.4830
25638SOL    HW281277   6.564   2.209   5.873 -1.6689  0.0694  1.7855
25639SOL     OW81278   4.064  10.436   6.437  0.0447 -0.7851 -0.0161
25639SOL    HW181279   4.090  10.344   6.433 -1.0131 -1.0969 -0.1970
25639SOL    HW281280   3.978  10.438   6.395 -0.7648 -0.0422  1.5799
25640SOL     OW81281  10.233   7.202   6.877 -0.5638 -0.2150  0.5655
25640SOL    HW181282  10.282   7.274   6.916  0.5785 -0.5113 -0.2708
25640SOL    HW281283  10.236   7.132   6.943 -0.8100  0.1314  0.9552
25641SOL     OW81284   9.661   8.047   7.676 -0.6127 -0.6163 -0.1364
25641SOL    HW181285   9.591   7.982   7.680 -1.1257 -0.1201 -0.7305
25641SOL    HW281286   9.616   8.129   7.655  0.1726 -0.3398 -0.7782
25642SOL     OW81287  10.038   6.953   2.174 -0.1555  0.1839  0.2352
25642SOL    HW181288  10.107   7.019   2.166  0.1417  0.0476  1.5431
25642SOL    HW281289   9.959   6.998   2.144  0.4097  0.4560 -0.9388
25643SOL     OW81290   2.546  10.090   2.065  0.2920 -0.2615 -0.2036
25643SOL    HW181291   2.494  10.067   1.988 -1.4203  0.2860  0.7400
25643SOL    HW281292   2.636  10.070   2.040 -0.2370 -0.2604 -2.2744
25644SOL     OW81293  10.228   2.758  10.353  0.5893  0.8041 -0.3675
25644SOL    HW181294  10.216   2.749  10.447  1.4512 -1.0398 -0.4093
25644SOL    HW281295  10.161   2.822  10.327 -1.0379 -0.1837  1.1691
25645SOL     OW81296  10.530   4.577   4.540  0.3293 -0.3269 -0.2451
25645SOL    HW181297  10.549   4.605   4.629 -0.0227  0.0293 -0.2784
25645SOL    HW281298  10.521   4.482   4.546 -2.3543 -0.1235  0.6349
25646SOL     OW81299   8.638   5.954   2.482  0.3593 -0.1491 -0.1560
25646SOL    HW181300   8.715   6.003   2.451  1.3621 -1.0417  0.8464
25646SOL    HW281301   8.663   5.921   2.568 -0.7785 -1.3152 -0.2428
25647SOL     OW81302   5.466  10.852  10.676  0.4230  1.2437  0.0977
25647SOL    HW181303   5.477  10.759  10.657 -0.1990  0.9147  1.2799
25647SOL    HW281304   5.424  10.887  10.597  1.0181  0.6126 -0.5169
25648SOL     OW81305   0.049   2.710   9.771 -0.3081  1.1370  0.6286
25648SOL    HW181306  -0.040   2.745   9.781 -0.5008  0.8938 -0.1268
25648SOL    HW281307   0.041   2.619   9.800 -0.7569  0.5718 -1.1090
25649SOL     OW81308   8.542   6.771   0.022  0.3760  0.3558  0.2725
25649SOL    HW181309   8.598   6.778   0.099 -1.8944  2.1247  1.9132
25649SOL    HW281310   8.565   6.847  -0.031  0.5077  0.2868  0.2300
25650SOL     OW81311   2.400   4.318   5.165 -0.1481  0.3795 -0.5218
25650SOL    HW181312   2.466   4.386   5.173 -0.2500  0.4062  0.1517
25650SOL    HW281313   2.383   4.290   5.255  0.2128 -0.8470 -0.8264
25651SOL     OW81314   8.627   2.865   2.678 -0.1183  0.8871 -0.3081
25651SOL    HW181315   8.664   2.953   2.682  1.0350  0.3852  2.3351
25651SOL    HW281316   8.573   2.858   2.756 -1.0989 -0.4093 -1.0614
25652SOL     OW81317   4.315   8.316   0.554  0.3908 -0.3958 -0.3691
25652SOL    HW181318   4.295   8.376   0.625 -0.4215  1.2987 -1.9473
25652SOL    HW281319   4.231   8.273   0.535  0.8103 -1.5526  0.2705
25653SOL     OW81320   0.257   1.658   0.175 -0.1014 -0.3795 -0.4509
25653SOL    HW181321   0.288   1.726   0.234  0.5436 -0.1647 -1.0265
25653SOL    HW281322   0.210   1.704   0.106  0.7270 -0.4607 -1.0883
25654SOL     OW81323   1.077   5.698   0.583 -0.1135  0.0898  0.1787
25654SOL    HW181324   1.155   5.647   0.603 -0.5885 -0.6997  0.0810
25654SOL    HW281325   1.093   5.735   0.496 -0.4919 -1.4001 -0.5631
25655SOL     OW81326   3.399   7.103   0.179  0.4162 -0.1694  0.6734
25655SOL    HW181327   3.430   7.041   0.113 -0.4433  0.3447 -0.2358
25655SOL    HW281328   3.316   7.066   0.209  0.7246 -0.3166  1.3692
25656SOL     OW81329   7.269   8.098   9.209  0.3624  0.1388 -0.3922
25656SOL    HW181330   7.183   8.131   9.186 -0.3091 -1.8692 -0.9602
25656SOL    HW281331   7.329   8.169   9.186 -1.0875  1.4703 -0.2149
25657SOL     OW81332   6.112   9.688   7.709 -0.2721  0.3773  0.1827
25657SOL    HW181333   6.020   9.701   7.731 -0.4426 -0.1617 -0.2007
25657SOL    HW281334   6.139   9.771   7.670 -1.3517 -0.3367 -2.2445
25658SOL     OW81335   0.534   6.814   7.272 -0.3221 -0.3473 -0.0244
25658SOL    HW181336   0.462   6.829   7.212  0.7214 -1.7118 -1.7088
25658SOL    HW281337   0.556   6.721   7.261 -0.4401 -0.8182  2.9045
25659SOL     OW81338   2.147   9.297   4.570  0.2436 -0.0681 -0.3669
25659SOL    HW181339   2.224   9.287   4.514 -0.7518  0.1636 -1.8367
25659SOL    HW281340   2.086   9.229   4.539 -0.8886  1.0091 -0.5803
25660SOL     OW81341   4.072   6.599  10.602  0.3094  0.3792  0.0970
25660SOL    HW181342   4.125   6.679  10.596  0.8734 -0.0891 -2.0831
25660SOL    HW281343   3.988   6.629  10.635  0.2838  2.0269 -1.3168
25661SOL     OW81344   5.554   2.683   2.445  0.4180  0.5534 -0.4713
25661SOL    HW181345   5.599   2.659   2.364  1.4680 -0.3965  0.3498
25661SOL    HW281346   5.622   2.724   2.498  0.2089 -0.4582  0.6116
25662SOL     OW81347  10.437  10.889   7.475 -0.4141 -0.8324 -0.3871
25662SOL    HW181348  10.378  10.838   7.531 -1.1102  0.0035 -0.3440
25662SOL    HW281349  10.484  10.823   7.424 -0.0382 -1.6031  0.8891
25663SOL     OW81350   9.159   3.107   6.860  0.0881 -0.0845 -0.0668
25663SOL    HW181351   9.238   3.154   6.833 -0.5631  2.3733  1.9044
25663SOL    HW281352   9.187   3.050   6.931  0.1956  0.5663  0.4278
25664SOL     OW81353   5.464   4.005   0.515  0.0988  0.3826 -0.6220
25664SOL    HW181354   5.526   4.068   0.551 -0.0831 -0.3366  1.0652
25664SOL    HW281355   5.383   4.021   0.563 -0.0487 -0.8835 -0.4179
25665SOL     OW81356   3.390   2.847   8.096  0.2305  0.2631  0.1422
25665SOL    HW181357   3.404   2.787   8.169  1.4530 -0.4548 -0.6561
25665SOL    HW281358   3.419   2.799   8.019  2.3195  2.2199 -0.4049
25666SOL     OW81359   7.825  10.492   4.905  0.3392  0.3473 -0.3403
25666SOL    HW181360   7.870  10.574   4.924 -0.9661  0.5657  2.1828
25666SOL    HW281361   7.861  10.430   4.969  0.0205 -0.5767 -1.0327
25667SOL     OW81362  10.685   4.890   7.531 -0.2019 -0.1166  0.4954
25667SOL    HW181363  10.770   4.847   7.531 -0.1019  0.0631  1.3338
25667SOL    HW281364  10.663   4.900   7.624 -0.7256  0.6500  0.2979
25668SOL     OW81365   4.822   4.687   9.989 -0.2768 -0.4103 -0.5941
25668SOL    HW181366   4.842   4.609   9.936  1.0588  0.2454 -1.1007
25668SOL    HW281367   4.901   4.702  10.041 -0.5723  0.5260 -0.3953
25669SOL     OW81368   6.971   9.345   1.477  0.4454  0.0690  0.2985
25669SOL    HW181369   6.944   9.255   1.496 -0.1507 -0.5702 -3.0385
25669SOL    HW281370   7.066   9.340   1.468  0.3248 -0.4765 -0.8280
25670SOL     OW81371   4.717   0.042   2.257  0.2989 -0.2079 -0.3341
25670SOL    HW181372   4.658   0.064   2.329  0.3747 -0.9304 -0.0481
25670SOL    HW281373   4.663  -0.008   2.196  0.2956  0.2049 -0.6746
25671SOL     OW81374   5.465   5.649   5.900  0.2430 -0.1979 -0.3534
25671SOL    HW181375   5.466   5.606   5.815  2.3212  0.4897 -0.7591
25671SOL    HW281376   5.472   5.742   5.879 -0.0219  0.0312  0.5470
25672SOL     OW81377   1.182   1.874   7.779  0.3434 -0.7117  0.1583
25672SOL    HW181378   1.127   1.857   7.702 -0.7528  0.3121  0.6749
25672SOL    HW281379   1.219   1.961   7.763 -0.6495 -0.0713  1.1787
25673SOL     OW81380   7.184   0.365   1.456  0.4384 -0.0480  0.2450
25673SOL    HW181381   7.158   0.331   1.542 -1.3823  0.1780 -0.1816
25673SOL    HW281382   7.132   0.444   1.444  1.6277  0.6608 -0.5421
25674SOL     OW81383   3.430   0.734   3.122  0.1987  0.1825 -0.3777
25674SOL    HW181384   3.478   0.817   3.132  0.5947 -0.2324  1.4665
25674SOL    HW281385   3.344   0.752   3.160 -0.1910  0.1304 -1.2214
25675SOL     OW81386   2.168   3.865   8.559 -0.0025  0.3931  0.1771
25675SOL    HW181387   2.125   3.915   8.629 -0.7498  1.1589 -0.7831
25675SOL    HW281388   2.253   3.907   8.549  0.3295 -0.0652  0.9721
25676SOL     OW81389   5.907   1.592   4.719  0.3748  0.0436  0.5335
25676SOL    HW181390   5.914   1.680   4.681  0.4834  0.5974  1.7979
25676SOL    HW281391   5.917   1.533   4.644 -0.7025  1.1104 -0.4822
25677SOL     OW81392   8.276  11.066  10.473  0.5037 -0.0988  0.1668
25677SOL    HW181393   8.276  11.005  10.547 -3.4171 -1.5899 -0.7706
25677SOL    HW281394   8.319  11.018  10.403 -1.0579 -1.2285 -0.0840
25678SOL     OW81395   9.632  10.340   4.260 -0.1395 -0.9759 -0.0110
25678SOL    HW181396   9.600  10.260   4.220 -0.2568 -0.8592 -0.1545
25678SOL    HW281397   9.727  10.334   4.255 -0.1191 -1.4858  0.7343
25679SOL     OW81398   8.684   1.183   1.725  0.5600  0.3421 -0.1817
25679SOL    HW181399   8.630   1.112   1.760 -0.8938  1.9298  1.0291
25679SOL    HW281400   8.768   1.173   1.769  0.1617 -0.2739  0.4626
25680SOL     OW81401   5.923   9.717   8.077 -0.0278  0.0179 -0.2970
25680SOL    HW181402   5.949   9.763   8.157  0.4679 -0.2296 -0.3165
25680SOL    HW281403   5.872   9.643   8.107 -2.1849  1.4147 -0.3165
25681SOL     OW81404   5.936   7.891   4.508  0.2977 -0.1101  0.2808
25681SOL    HW181405   5.982   7.900   4.425 -0.1150  2.7358  0.2783
25681SOL    HW281406   5.855   7.846   4.485 -0.3684  1.7017 -1.1406
25682SOL     OW81407   9.053   0.715   9.449  0.3769  0.3059 -0.2349
25682SOL    HW181408   9.023   0.736   9.537  2.3344 -2.0101  1.0985
25682SOL    HW281409   8.982   0.743   9.392 -2.5956 -1.3152  2.3604
25683SOL     OW81410   6.776   6.163   7.367 -0.5233  0.7039  0.2064
25683SOL    HW181411   6.836   6.134   7.299 -0.2603  1.4531  0.1020
25683SOL    HW281412   6.813   6.128   7.448 -0.8404 -0.1935 -0.0278
25684SOL     OW81413   4.952  10.819   9.645 -0.3842 -0.6002  0.0736
25684SOL    HW181414   4.899  10.743   9.621  0.8887 -1.1921 -1.0263
25684SOL    HW281415   4.888  10.888   9.662 -1.5457 -0.9257 -2.4227
25685SOL     OW81416   5.508   9.609   1.647 -0.1621  0.0882  0.4463
25685SOL    HW181417   5.467   9.613   1.561  1.1007  0.6070 -0.1661
25685SOL    HW281418   5.447   9.654   1.705 -1.2140 -0.6105 -0.0834
25686SOL     OW81419   9.593   3.353   8.416 -0.2765 -0.2450 -0.1621
25686SOL    HW181420   9.564   3.423   8.474  1.3731 -0.1952  0.6580
25686SOL    HW281421   9.567   3.382   8.328  0.1616  1.3095  0.1823
25687SOL     OW81422   4.970   8.797   3.449  0.1402  0.6931 -0.2215
25687SOL    HW181423   5.019   8.753   3.518  0.8188  0.8290 -0.6098
25687SOL    HW281424   4.884   8.754   3.450  0.8868 -0.8758 -0.8035
25688SOL     OW81425   8.983   1.353   8.813 -0.0922 -0.1985  0.1608
25688SOL    HW181426   8.967   1.263   8.839  1.5937 -0.5182  0.2192
25688SOL    HW281427   9.065   1.350   8.763 -0.9315  1.0460 -1.4075
25689SOL     OW81428   4.570   5.537   9.201  0.3043 -0.6179  0.4906
25689SOL    HW181429   4.540   5.617   9.244  0.1855 -0.3128 -0.1505
25689SOL    HW281430   4.520   5.467   9.243  0.0028 -0.2976  0.6716
25690SOL     OW81431   4.774   8.421   9.848  0.1089 -0.0165 -0.1395
25690SOL    HW181432   4.711   8.349   9.856  0.6304 -0.4924 -0.1769
25690SOL    HW281433   4.813   8.409   9.761 -1.2973  1.5815 -1.0275
25691SOL     OW81434  11.085   4.863   3.373  0.3120 -0.0743 -0.4112
25691SOL    HW181435  11.092   4.924   3.300  0.1112 -1.8610 -2.0078
25691SOL    HW281436  11.021   4.904   3.432 -2.9312 -0.4366 -3.3268
25692SOL     OW81437   1.205   7.615   8.054 -0.6562 -0.2076  0.6405
25692SOL    HW181438   1.211   7.599   7.960 -1.2239  0.9406  0.3858
25692SOL    HW281439   1.119   7.656   8.065 -1.4573 -2.0839  1.9340
25693SOL     OW81440   7.368   4.139   9.460  0.0184  0.1056  0.0156
25693SOL    HW181441   7.378   4.048   9.486 -0.9964  0.3925  1.5010
25693SOL    HW281442   7.284   4.143   9.416 -0.5207  0.5291  1.0448
25694SOL     OW81443   3.424   1.020   5.579  0.0157 -0.0072 -0.0324
25694SOL    HW181444   3.402   1.106   5.544  2.7473  0.6148 -0.4364
25694SOL    HW281445   3.469   0.975   5.507  0.2699 -1.0575  0.7574
25695SOL     OW81446   8.478   7.421   7.527 -0.1082  0.2756  0.2927
25695SOL    HW181447   8.551   7.422   7.465 -0.2773  0.9372  0.0956
25695SOL    HW281448   8.519   7.422   7.613  0.1260  2.2848  0.1885
25696SOL     OW81449  11.039   1.450   5.739  0.3010  0.0176 -0.5775
25696SOL    HW181450  11.027   1.375   5.798 -0.5796  0.5607 -0.0291
25696SOL    HW281451  11.124   1.485   5.762 -0.6029  1.0667  1.4182
25697SOL     OW81452   1.616   7.737   7.062  0.2012  0.9888  0.2347
25697SOL    HW181453   1.623   7.731   7.157 -0.3567 -0.4379  0.2120
25697SOL    HW281454   1.650   7.653   7.030  1.1931  1.7812 -0.8931
25698SOL     OW81455   1.863   4.509   0.459 -0.4754  0.5113 -0.0959
25698SOL    HW181456   1.935   4.515   0.397  0.8034 -4.1751  0.5226
25698SOL    HW281457   1.785   4.528   0.406  0.8775  1.2075 -1.9570
25699SOL     OW81458   7.119   4.064   9.916 -0.3941 -0.0702 -0.1223
25699SOL    HW181459   7.051   4.132   9.907  0.8538  1.3685  0.7030
25699SOL    HW281460   7.182   4.084   9.847 -1.5538 -2.4397 -2.0030
25700SOL     OW81461   6.039   3.742  10.771 -0.0651 -0.2149  0.4066
25700SOL    HW181462   5.973   3.737  10.840 -1.5758 -0.1427 -0.9700
25700SOL    HW281463   6.013   3.674  10.708  0.3458  0.7502 -0.8534
25701SOL     OW81464  10.777   1.089   3.163  0.0407 -0.2270  0.1411
25701SOL    HW181465  10.858   1.077   3.213  0.7076  0.7570 -0.6677
25701SOL    HW281466  10.767   1.008   3.114  0.1896 -0.6019  0.7153
25702SOL     OW81467   7.373   8.275   4.818 -0.1627 -0.3587 -0.8048
25702SOL    HW181468   7.393   8.360   4.778  0.0819  0.5016  1.0698
25702SOL    HW281469   7.290   8.249   4.778 -0.3985  0.8949 -1.1763
25703SOL     OW81470   5.746   0.025   5.060  0.0646 -0.2304  0.1087
25703SOL    HW181471   5.694  -0.013   5.131  1.0127  1.8930  2.0895
25703SOL    HW281472   5.819  -0.036   5.048 -1.2236 -1.6882 -0.5917
25704SOL     OW81473  10.007   5.681   9.741  0.2625  0.2087 -0.2893
25704SOL    HW181474  10.091   5.656   9.704  0.7603 -0.7811  1.3967
25704SOL    HW281475   9.969   5.599   9.774 -0.2761  0.9582  1.0635
25705SOL     OW81476   0.827   5.809   6.519 -0.0559  0.2878  0.2381
25705SOL    HW181477   0.740   5.842   6.543 -1.1434 -1.9796 -0.2793
25705SOL    HW281478   0.871   5.797   6.603 -0.5599  0.6375  0.5651
25706SOL     OW81479   1.563   0.030   4.094 -0.7436  0.1379 -0.1831
25706SOL    HW181480   1.484   0.083   4.090 -0.8302  0.2120  1.7555
25706SOL    HW281481   1.634   0.090   4.069 -0.8799  1.1316  1.6550
25707SOL     OW81482   7.985   4.472   3.032  0.5988 -0.4291 -0.6295
25707SOL    HW181483   7.949   4.409   3.095  0.5854  0.0887 -0.1146
25707SOL    HW281484   7.983   4.425   2.948  0.8694 -1.2220 -0.2040
25708SOL     OW81485  10.494   8.852   4.807  0.2456 -0.6437 -0.2884
25708SOL    HW181486  10.566   8.907   4.836 -0.4703  0.4607 -0.5564
25708SOL    HW281487  10.460   8.812   4.887  1.4566 -1.5861 -0.2125
25709SOL     OW81488   5.286   4.668   5.686 -0.0853 -0.0054  0.2192
25709SOL    HW181489   5.334   4.663   5.603 -1.1480  0.4123 -0.4401
25709SOL    HW281490   5.278   4.577   5.715  1.2325 -0.0764  0.4457
25710SOL     OW81491   7.012   6.123   5.703  0.0010  0.2187 -0.2827
25710SOL    HW181492   7.088   6.166   5.663  1.0574 -1.1625  0.1836
25710SOL    HW281493   7.030   6.030   5.696 -2.3108 -0.2282 -1.4146
25711SOL     OW81494   9.811   0.554   1.817  0.4519 -0.2693  0.4309
25711SOL    HW181495   9.804   0.649   1.832  0.6667 -0.0316 -0.8793
25711SOL    HW281496   9.738   0.534   1.758 -1.8169 -1.5881  3.4190
25712SOL     OW81497  10.642   0.271   0.012  0.0273 -0.0352  0.1698
25712SOL    HW181498  10.672   0.197   0.065 -1.1051 -0.4488  0.2748
25712SOL    HW281499  10.701   0.342   0.034 -0.9249  0.0901  2.7378
25713SOL     OW81500   6.929  11.054   2.679  0.2783  0.0324 -0.2751
25713SOL    HW181501   6.925  11.141   2.640 -0.5458  0.7519  1.3372
25713SOL    HW281502   6.860  11.054   2.745  1.3284 -1.2846  0.8700
25714SOL     OW81503   4.505   3.151   9.991 -0.0547 -0.2257  0.0014
25714SOL    HW181504   4.515   3.098   9.912 -0.3454 -0.0844 -0.1334
25714SOL    HW281505   4.531   3.240   9.964  0.3391 -0.2791  0.2005
25715SOL     OW81506   4.062   6.032   5.790 -0.6212 -0.1410  0.0547
25715SOL    HW181507   4.002   6.069   5.855 -2.2601 -2.5365  0.0944
25715SOL    HW281508   4.129   5.987   5.842 -0.2161  0.4650  0.0522
25716SOL     OW81509   9.866  11.023   2.410 -0.4679 -0.0960  0.3143
25716SOL    HW181510   9.869  10.982   2.324 -0.7128 -1.2739  0.8321
25716SOL    HW281511   9.791  11.082   2.407 -0.8886 -0.6386 -0.0836
25717SOL     OW81512   5.879  11.056   4.253  0.4221 -0.3930  0.2934
25717SOL    HW181513   5.837  10.975   4.224  0.3647  0.5244 -2.4864
25717SOL    HW281514   5.808  11.106   4.294 -0.3257 -0.4609 -0.8585
25718SOL     OW81515   6.070   7.806   9.454  0.6327 -0.4005  0.1335
25718SOL    HW181516   6.080   7.711   9.449 -1.3811 -0.5780 -2.1584
25718SOL    HW281517   6.093   7.838   9.367 -1.3990  0.8645 -0.0219
25719SOL     OW81518   7.181   0.654   2.137 -0.0941  0.2807 -0.3266
25719SOL    HW181519   7.255   0.619   2.186 -1.3548 -1.5577  0.3695
25719SOL    HW281520   7.110   0.660   2.201 -1.1217  0.0238 -1.4010
25720SOL     OW81521   0.077   5.933   4.109 -0.0363  0.2052  0.6241
25720SOL    HW181522   0.100   6.012   4.157 -0.5326  1.7618 -1.5475
25720SOL    HW281523  -0.019   5.936   4.103 -0.0042 -0.0893 -0.1916
25721SOL     OW81524   1.551   5.544   3.796  1.0965 -0.7889 -0.0215
25721SOL    HW181525   1.557   5.616   3.859 -0.6790 -1.8069  1.3925
25721SOL    HW281526   1.614   5.568   3.727  1.8822  1.1889  1.2818
25722SOL     OW81527   0.290   4.633   8.447  0.2223  0.1054 -0.1048
25722SOL    HW181528   0.333   4.718   8.458  0.6060  0.0366 -0.9778
25722SOL    HW281529   0.288   4.596   8.535  0.6569  0.7336  0.1786
25723SOL     OW81530   2.318   0.395   8.480  0.0536 -0.0778  0.2584
25723SOL    HW181531   2.403   0.393   8.523 -0.2380  0.6677  0.9103
25723SOL    HW281532   2.255   0.382   8.551 -0.4151  0.7049  0.0000
25724SOL     OW81533   4.412   5.983   0.892  0.5552  0.9332  0.3220
25724SOL    HW181534   4.476   5.935   0.839 -0.5670 -1.2990  0.8763
25724SOL    HW281535   4.464   6.026   0.959  1.6232  0.5853 -0.2514
25725SOL     OW81536  10.744   6.323   6.772  0.2463 -0.6999 -0.7173
25725SOL    HW181537  10.674   6.336   6.707 -1.1732  0.4855  0.9513
25725SOL    HW281538  10.698   6.303   6.853  1.9151 -1.0469  0.1875
25726SOL     OW81539   5.908   5.088  11.039 -0.1591 -0.4678  0.4680
25726SOL    HW181540   5.976   5.044  10.988 -1.0090  0.1153 -1.2434
25726SOL    HW281541   5.832   5.031  11.033 -0.7118  0.3144 -0.1959
25727SOL     OW81542   9.727   1.373  10.511  0.2912  0.0446 -0.1540
25727SOL    HW181543   9.698   1.315  10.582 -0.4372  0.0815 -0.4150
25727SOL    HW281544   9.660   1.364  10.444 -0.1623  1.6697  0.0471
25728SOL     OW81545   0.954  10.790  10.594 -0.0449  0.6797  0.0382
25728SOL    HW181546   0.984  10.758  10.509 -0.9657  0.8304 -0.3565
25728SOL    HW281547   0.986  10.726  10.657 -0.9067 -0.4245 -0.6160
25729SOL     OW81548   4.782   5.776  10.027  0.1374  0.3027 -0.8384
25729SOL    HW181549   4.714   5.840  10.005  0.9919  0.8719 -1.9107
25729SOL    HW281550   4.800   5.790  10.119  1.2656  2.5718 -1.3440
25730SOL     OW81551   4.209   8.669   1.754  0.7691 -0.4659  0.5717
25730SOL    HW181552   4.128   8.721   1.752  0.6015 -0.7135 -1.2513
25730SOL    HW281553   4.238   8.673   1.845  0.6276  2.6053  0.5679
25731SOL     OW81554   2.596   9.005   4.260 -0.0139 -0.1905  0.6817
25731SOL    HW181555   2.655   8.992   4.334  2.0954 -0.1342 -0.8908
25731SOL    HW281556   2.597   8.922   4.212  0.1828  0.3628 -0.3061
25732SOL     OW81557   7.613   9.020   7.219 -0.5246 -0.5843  0.3894
25732SOL    HW181558   7.552   8.967   7.167 -0.1008 -1.4192  0.7219
25732SOL    HW281559   7.634   8.966   7.295  0.2091 -0.0929  0.5559
25733SOL     OW81560   0.639   1.000   7.842  0.0480  0.0855 -0.1299
25733SOL    HW181561   0.571   1.056   7.803  0.0424  0.1991  0.0402
25733SOL    HW281562   0.706   0.993   7.774  0.4365  0.9761  0.1362
25734SOL     OW81563   5.228  10.005   3.844 -0.2034 -0.3646 -0.7785
25734SOL    HW181564   5.186   9.925   3.812 -1.8793  0.4218 -0.6693
25734SOL    HW281565   5.156  10.068   3.851  0.7801  0.6358  0.8126
25735SOL     OW81566   4.297   9.443   8.968  0.0217  0.1033  0.7765
25735SOL    HW181567   4.365   9.505   8.995  0.5312  0.8727 -1.9081
25735SOL    HW281568   4.243   9.492   8.906 -2.2418 -0.8969  1.8466
25736SOL     OW81569   4.153  10.549   4.563  0.6914 -0.3270 -0.2883
25736SOL    HW181570   4.077  10.491   4.556  0.2071  0.4247 -1.4757
25736SOL    HW281571   4.116  10.634   4.587  1.2168 -0.0731 -0.3750
25737SOL     OW81572   9.363   1.890   9.330  0.5986 -0.3895  0.1411
25737SOL    HW181573   9.302   1.872   9.402  1.0613 -0.3724  0.5429
25737SOL    HW281574   9.359   1.985   9.318 -1.6209 -0.6352 -1.7823
25738SOL     OW81575   9.590   3.224   0.503  0.0512  0.3321  0.1510
25738SOL    HW181576   9.538   3.301   0.482 -0.5450 -0.0787  0.0822
25738SOL    HW281577   9.532   3.169   0.555  0.1183 -0.5113 -0.6374
25739SOL     OW81578   5.664   6.615   7.532  0.4642 -0.6413 -0.4335
25739SOL    HW181579   5.637   6.523   7.537 -1.3178 -0.5041 -3.8492
25739SOL    HW281580   5.633   6.654   7.613 -0.3021 -2.7301  0.3445
25740SOL     OW81581   1.403   6.309   6.781  0.4863 -0.4227  0.0692
25740SOL    HW181582   1.372   6.325   6.692 -0.2292 -0.5119  0.3007
25740SOL    HW281583   1.497   6.327   6.777 -0.0452  2.8781  0.0646
25741SOL     OW81584   5.879   6.371  10.632  0.4659 -0.0428  0.0230
25741SOL    HW181585   5.836   6.456  10.644 -0.6518 -0.4675 -0.8367
25741SOL    HW281586   5.952   6.390  10.573 -1.0886 -0.0095 -2.0038
25742SOL     OW81587   5.300   1.907   3.905 -0.1153 -0.7343  0.3846
25742SOL    HW181588   5.373   1.849   3.926 -0.9592 -2.7855 -1.8876
25742SOL    HW281589   5.341   1.985   3.867  0.9410 -0.9023  1.1290
25743SOL     OW81590   9.299   4.253   2.765 -0.2894 -0.0848 -0.0614
25743SOL    HW181591   9.329   4.301   2.688  0.1605 -0.3388 -0.0506
25743SOL    HW281592   9.242   4.315   2.811  1.4389  0.9914  0.7321
25744SOL     OW81593   7.638   9.278   1.663  0.2774 -0.1899 -0.2309
25744SOL    HW181594   7.588   9.318   1.734 -1.4663 -2.0393 -0.3093
25744SOL    HW281595   7.719   9.328   1.659 -0.6199  1.5269  1.4137
25745SOL     OW81596   3.205   6.819  10.426 -0.6561  0.5276 -0.1825
25745SOL    HW181597   3.121   6.839  10.383 -1.0835  0.7225  0.7268
25745SOL    HW281598   3.194   6.851  10.515 -0.6028 -1.8370  0.7428
25746SOL     OW81599   0.116   2.432   3.487  0.1697 -0.1958 -0.0129
25746SOL    HW181600   0.127   2.346   3.445 -0.1945 -0.7206  0.9430
25746SOL    HW281601   0.056   2.479   3.429 -1.3334 -1.3706  0.5150
25747SOL     OW81602   1.082   2.231   2.464  0.2074 -0.2091  0.7255
25747SOL    HW181603   1.047   2.250   2.377 -0.6929  0.6062  1.2548
25747SOL    HW281604   1.111   2.139   2.458  3.5234  0.7845 -1.5094
25748SOL     OW81605   0.822   2.118   6.706 -0.1430  0.0731  0.0364
25748SOL    HW181606   0.752   2.059   6.734 -0.0441 -0.4132 -0.7122
25748SOL    HW281607   0.803   2.201   6.751 -0.7009 -0.3111  0.5222
25749SOL     OW81608   2.775  10.620  10.714  0.5247  0.4647  0.1934
25749SOL    HW181609   2.820  10.666  10.643  1.0330  0.1853  0.3245
25749SOL    HW281610   2.844  10.605  10.779  0.8050 -1.9437 -0.5516
25750SOL     OW81611   7.665  10.332   8.071  0.2056  0.6578 -0.5280
25750SOL    HW181612   7.656  10.237   8.064  1.9729  0.4649 -0.5098
25750SOL    HW281613   7.759  10.348   8.069 -0.0616  2.4321 -0.6751
25751SOL     OW81614   3.102   8.618   8.936 -0.0102 -0.5151 -0.1233
25751SOL    HW181615   3.195   8.604   8.953 -0.1949 -2.0865 -0.2065
25751SOL    HW281616   3.092   8.600   8.843 -0.5798 -1.5511  0.1264
25752SOL     OW81617  10.224   6.360   6.416  0.0105 -0.2271  0.0910
25752SOL    HW181618  10.176   6.439   6.390 -0.4160 -0.1760  1.0040
25752SOL    HW281619  10.304   6.362   6.363  0.2226  1.0726  0.4238
25753SOL     OW81620   2.197   7.980   3.421  0.5404 -0.1484 -0.3647
25753SOL    HW181621   2.126   8.026   3.465  1.7665  2.3062 -0.7761
25753SOL    HW281622   2.163   7.893   3.404 -3.1066  1.4236 -2.2449
25754SOL     OW81623   8.867   5.091   2.055  0.9244  0.1810  0.0141
25754SOL    HW181624   8.943   5.121   2.104  0.5830  1.5976 -0.2612
25754SOL    HW281625   8.892   5.100   1.963  0.5643  0.3259 -0.0746
25755SOL     OW81626   5.935  10.345   5.068  0.1445  0.1996 -0.0801
25755SOL    HW181627   5.879  10.416   5.036 -0.8726  0.7959  2.7960
25755SOL    HW281628   5.904  10.268   5.019 -1.2784  1.0371 -0.5825
25756SOL     OW81629   4.253   9.678   9.669  0.5491 -0.3550 -0.7004
25756SOL    HW181630   4.205   9.656   9.589  0.8447  1.1467 -1.3201
25756SOL    HW281631   4.336   9.632   9.660  0.7599  0.1626 -1.4852
25757SOL     OW81632   2.635   9.337   5.349  0.0589  0.3221  0.2410
25757SOL    HW181633   2.541   9.355   5.345  0.5411  2.9752 -2.4134
25757SOL    HW281634   2.671   9.405   5.405  0.7254  1.5401 -1.5735
25758SOL     OW81635   7.669   9.501  10.282  0.0571  0.5554 -0.2016
25758SOL    HW181636   7.668   9.471  10.373 -1.3609  0.5648 -0.1910
25758SOL    HW281637   7.610   9.576  10.280 -0.8852 -0.1628 -1.3400
25759SOL     OW81638   1.132   9.087   1.517 -0.1093 -0.3028  0.0219
25759SOL    HW181639   1.135   9.130   1.603 -0.4282 -0.6866  0.2295
25759SOL    HW281640   1.038   9.082   1.497  0.0045  1.9361 -1.4537
25760SOL     OW81641   7.020   5.178   5.807 -0.1982  0.9193 -0.6205
25760SOL    HW181642   7.114   5.160   5.798 -0.3823 -0.4259 -0.1733
25760SOL    HW281643   7.004   5.173   5.901 -0.7809  0.7629 -0.7246
25761SOL     OW81644   4.541   4.436   4.108 -0.3000 -0.1090  0.4433
25761SOL    HW181645   4.491   4.515   4.127 -0.3671 -0.5501  2.1975
25761SOL    HW281646   4.543   4.387   4.190  3.0892 -0.1046  0.5031
25762SOL     OW81647   4.548   1.997   9.590  0.2416  0.3409  0.4326
25762SOL    HW181648   4.606   2.011   9.665  0.9296  0.0415 -0.0250
25762SOL    HW281649   4.533   1.902   9.589  1.5212  0.1032 -0.6954
25763SOL     OW81650  10.856   6.945   3.181 -0.5825 -0.5001 -0.0366
25763SOL    HW181651  10.789   7.013   3.175 -0.4752 -0.5137 -1.9913
25763SOL    HW281652  10.843   6.892   3.102  3.8386  1.5321 -2.4746
25764SOL     OW81653  11.035   2.342   7.370 -0.1752  0.3457  0.0578
25764SOL    HW181654  11.062   2.264   7.418  0.9702  0.9418  0.4137
25764SOL    HW281655  10.950   2.320   7.334 -0.8209 -0.3258  1.8970
25765SOL     OW81656   8.635   4.464   2.006  0.1677  0.0717  0.7909
25765SOL    HW181657   8.560   4.405   2.011  0.3606 -0.1914  0.6002
25765SOL    HW281658   8.653   4.488   2.097  1.1837 -1.5552  1.0612
25766SOL     OW81659   9.809   0.480   7.571  0.1774 -0.1770  0.9059
25766SOL    HW181660   9.825   0.417   7.502 -2.1508 -1.1827  1.1980
25766SOL    HW281661   9.862   0.450   7.645  0.1623 -0.9912  0.5901
25767SOL     OW81662   7.244   6.049   8.896 -0.7183  0.1391 -0.0746
25767SOL    HW181663   7.228   6.032   8.803  0.1753  0.7248 -0.3495
25767SOL    HW281664   7.286   6.135   8.898  2.3127 -1.2527  0.5593
25768SOL     OW81665   6.972   6.361   3.706  0.1880  0.5956  0.4846
25768SOL    HW181666   6.948   6.404   3.624 -0.4138 -1.1472 -0.2856
25768SOL    HW281667   7.000   6.433   3.763  1.3786  1.7758 -1.4824
25769SOL     OW81668   9.196   6.655   1.097 -0.2745  0.5663 -0.2722
25769SOL    HW181669   9.275   6.623   1.141  0.7821  4.4915  1.1695
25769SOL    HW281670   9.129   6.591   1.119  2.2919 -2.6650 -1.0987
25770SOL     OW81671   2.243   0.234   7.628  0.1479 -0.0226  0.0364
25770SOL    HW181672   2.267   0.258   7.538 -2.3739  1.0731 -0.4188
25770SOL    HW281673   2.269   0.310   7.680 -2.6940  1.5019 -0.5692
25771SOL     OW81674   8.745   2.650   0.876 -0.0857  0.8830  0.0988
25771SOL    HW181675   8.650   2.660   0.869 -0.4028 -0.7799  1.2682
25771SOL    HW281676   8.757   2.592   0.952  1.8380  0.6329 -0.3483
25772SOL     OW81677   0.263   0.393   4.605 -0.5050  0.1509  0.3890
25772SOL    HW181678   0.351   0.374   4.639 -0.2101  0.7154 -0.0440
25772SOL    HW281679   0.254   0.335   4.529 -1.1758 -1.1326  1.4074
25773SOL     OW81680   1.094   6.083   5.318  0.3520  0.1541  0.1703
25773SOL    HW181681   1.123   6.119   5.235  1.1388  0.2655  0.4934
25773SOL    HW281682   1.109   6.152   5.382  0.1063 -0.0657  0.4710
25774SOL     OW81683   9.829   9.597   4.731  0.3387 -0.3229 -0.1058
25774SOL    HW181684   9.917   9.561   4.717  0.7771  0.9722 -0.7654
25774SOL    HW281685   9.839   9.691   4.719 -1.0743 -0.1161  0.1964
25775SOL     OW81686   2.675   1.389   3.402 -0.4510  0.4766  0.2438
25775SOL    HW181687   2.732   1.417   3.473  0.4853  0.9849 -0.6724
25775SOL    HW281688   2.629   1.313   3.436  2.2266 -1.2049  0.3906
25776SOL     OW81689  10.899   1.783   5.051 -0.3352 -0.7027 -0.6732
25776SOL    HW181690  10.879   1.866   5.010 -1.1504  0.4640  1.8524
25776SOL    HW281691  10.818   1.732   5.042 -2.3780  1.3156  3.2342
25777SOL     OW81692   8.364   9.467  10.733  0.0666  0.1287  0.0192
25777SOL    HW181693   8.439   9.494  10.679  0.2440  1.1178  0.7309
25777SOL    HW281694   8.385   9.500  10.820 -0.5593 -0.8062  0.5349
25778SOL     OW81695   7.708  10.459   0.149  0.2697  0.1731  0.3118
25778SOL    HW181696   7.702  10.432   0.057  0.5060  0.1634  0.2983
25778SOL    HW281697   7.618  10.484   0.172  0.1686 -0.0141  0.1365
25779SOL     OW81698   5.027   1.841   7.966  0.0942 -0.2292 -0.1321
25779SOL    HW181699   4.994   1.856   7.878 -0.7100  0.8093  0.3275
25779SOL    HW281700   5.121   1.860   7.961 -0.0710  0.4652 -0.6141
25780SOL     OW81701   6.382   2.156   3.185 -0.7965  0.5085 -0.2327
25780SOL    HW181702   6.381   2.106   3.267 -0.9556  1.4188  0.3380
25780SOL    HW281703   6.294   2.146   3.150 -0.6776 -0.0297 -0.3930
25781SOL     OW81704   9.589   4.379   5.026 -0.6260 -0.5208 -1.1079
25781SOL    HW181705   9.672   4.334   5.042 -0.7324 -1.1724 -2.2768
25781SOL    HW281706   9.525   4.332   5.080 -0.3580 -0.4331 -0.7106
25782SOL     OW81707   7.199  10.570   2.733  0.7076  0.2961  0.5758
25782SOL    HW181708   7.217  10.476   2.736  1.4696  0.4485  1.0492
25782SOL    HW281709   7.244  10.600   2.654 -0.6936  0.0455 -0.3574
25783SOL     OW81710   3.147   0.785   3.575  0.0873  0.3350  0.5226
25783SOL    HW181711   3.160   0.743   3.490 -0.8702  1.8217 -0.4097
25783SOL    HW281712   3.231   0.828   3.594 -0.0030  0.8559 -0.1989
25784SOL     OW81713   0.367   5.134   0.457  0.2010  0.3305 -0.2498
25784SOL    HW181714   0.347   5.089   0.540  1.3370  1.0378  0.4398
25784SOL    HW281715   0.364   5.065   0.391 -0.8375 -0.2296  0.3562
25785SOL     OW81716   0.897   6.877  10.896 -0.1379 -0.2683 -0.3022
25785SOL    HW181717   0.870   6.895  10.986  0.1676  0.3564 -0.3248
25785SOL    HW281718   0.963   6.944  10.878  0.1701 -0.7033 -0.8204
25786SOL     OW81719   8.903   5.087   4.691 -0.1595 -0.3567 -0.3210
25786SOL    HW181720   8.907   5.182   4.699  0.2985 -0.3024 -1.1077
25786SOL    HW281721   8.818   5.063   4.728  0.6315  0.1152  1.9482
25787SOL     OW81722   9.028   9.374   8.934  0.5846  0.3823 -0.0843
25787SOL    HW181723   9.096   9.309   8.921  1.5000  1.3831 -0.4496
25787SOL    HW281724   9.070   9.444   8.984  0.2809  1.6809 -1.5495
25788SOL     OW81725   8.907  10.245   0.917  0.4847 -0.1219 -0.1493
25788SOL    HW181726   8.861  10.188   0.979  2.1620 -1.6437 -0.2274
25788SOL    HW281727   8.931  10.187   0.845  2.8833  0.4649  0.0962
25789SOL     OW81728   9.340   1.889   3.836  0.4012  0.2544 -0.2611
25789SOL    HW181729   9.363   1.981   3.850  0.3466  0.1038  0.9044
25789SOL    HW281730   9.309   1.886   3.746  1.4981  1.1619 -0.7032
25790SOL     OW81731   3.007   4.063   6.735 -0.2745 -0.5644  0.4151
25790SOL    HW181732   2.938   4.098   6.679  0.5649 -1.0059 -0.9758
25790SOL    HW281733   3.056   4.140   6.764  2.2076 -0.3778 -3.4764
25791SOL     OW81734  10.882   8.137   1.339 -0.8473 -0.0967  0.3806
25791SOL    HW181735  10.937   8.190   1.282 -2.2019 -0.4518 -1.3614
25791SOL    HW281736  10.915   8.153   1.427  0.9664  0.9251 -0.4358
25792SOL     OW81737   1.330   2.416   5.835  0.1284  0.4784 -0.1629
25792SOL    HW181738   1.395   2.436   5.767 -0.7778  0.2694 -1.1101
25792SOL    HW281739   1.364   2.337   5.878  0.7282  0.6302 -0.3499
25793SOL     OW81740   9.199   2.745   4.676 -0.4971 -0.3906  0.7550
25793SOL    HW181741   9.151   2.820   4.711  0.6042  1.0741 -0.7078
25793SOL    HW281742   9.144   2.713   4.604 -1.2491 -1.4104  1.7445
25794SOL     OW81743   1.796   8.206  10.149  0.2550  0.1461 -0.6852
25794SOL    HW181744   1.814   8.220  10.056  0.4441  1.1604 -0.5084
25794SOL    HW281745   1.856   8.136  10.174  1.6804  1.2441 -0.8713
25795SOL     OW81746   1.583   0.780   7.833 -0.2475  0.2644  0.6689
25795SOL    HW181747   1.507   0.723   7.819 -0.1833  0.0482  1.1671
25795SOL    HW281748   1.658   0.721   7.823 -0.2103 -0.0355  2.4342
25796SOL     OW81749   4.812   1.517   0.869  0.0184 -0.0564  0.2131
25796SOL    HW181750   4.890   1.474   0.904  0.5267  1.8181  1.5485
25796SOL    HW281751   4.774   1.453   0.809  2.4748 -1.0994 -0.3471
25797SOL     OW81752   7.429   0.961   1.698  0.2398  0.9374 -0.5977
25797SOL    HW181753   7.387   0.889   1.652 -2.3406  2.1617 -0.3440
25797SOL    HW281754   7.384   1.040   1.666  2.3663  2.3891 -0.2526
25798SOL     OW81755   7.148   6.121   1.037  0.3697 -0.2784  0.1736
25798SOL    HW181756   7.118   6.048   1.092 -0.7525  0.4647  0.5945
25798SOL    HW281757   7.102   6.197   1.072  1.7434  0.6954 -0.0715
25799SOL     OW81758   1.167   4.747   6.119 -0.9258 -0.1331 -0.2278
25799SOL    HW181759   1.211   4.831   6.105 -0.8172  0.0595  1.1261
25799SOL    HW281760   1.075   4.770   6.130 -0.9725 -0.2450 -0.3898
25800SOL     OW81761   7.982   3.187   5.816 -0.3256 -0.2055 -0.4585
25800SOL    HW181762   7.973   3.119   5.882  0.7351  0.0787  0.0048
25800SOL    HW281763   7.943   3.265   5.856  2.2304  0.5514  0.8045
25801SOL     OW81764   9.661   1.345   3.941 -0.2534 -0.2509 -0.3868
25801SOL    HW181765   9.662   1.359   4.035 -1.4174 -1.3293 -0.1886
25801SOL    HW281766   9.684   1.253   3.930 -0.3827 -0.2022 -1.1472
25802SOL     OW81767   5.615   0.439   1.632  0.2339  0.3118  0.0582
25802SOL    HW181768   5.650   0.428   1.721  0.5478 -0.0997 -0.1146
25802SOL    HW281769   5.652   0.366   1.583 -1.7644 -0.8449  0.1444
25803SOL     OW81770  10.527   8.268   4.080  0.1160 -0.0622  0.0640
25803SOL    HW181771  10.487   8.356   4.080  0.5781  0.2517  3.1484
25803SOL    HW281772  10.603   8.276   4.138  1.2869 -2.0903 -1.0703
25804SOL     OW81773   4.066   2.275   5.789  0.3855 -0.1178 -0.3519
25804SOL    HW181774   4.129   2.347   5.781 -0.6598  0.9683  0.7850
25804SOL    HW281775   4.024   2.269   5.704  0.8414  0.2740 -0.6053
25805SOL     OW81776   9.870   9.445   1.435 -0.1136 -0.0170 -0.9230
25805SOL    HW181777   9.929   9.421   1.505 -2.1069 -0.4037  0.7206
25805SOL    HW281778   9.923   9.498   1.375  1.6837  0.2144  0.7955
25806SOL     OW81779   5.199   7.017  10.106 -0.9197 -0.5849  0.8318
25806SOL    HW181780   5.109   6.990  10.124 -0.7035 -1.0041  1.3126
25806SOL    HW281781   5.199   7.112  10.122 -1.8769 -0.1084 -1.6588
25807SOL     OW81782   7.689   1.605   2.536  0.3067  0.4292 -0.2267
25807SOL    HW181783   7.761   1.665   2.514  0.4805  0.3844  0.2111
25807SOL    HW281784   7.703   1.529   2.480 -0.2336  1.0210 -1.1885
25808SOL     OW81785   0.030  10.590  10.114 -0.9968  0.2387 -0.2236
25808SOL    HW181786   0.074  10.674  10.121  0.6632 -0.5882 -0.2765
25808SOL    HW281787   0.063  10.539  10.188 -2.0081 -0.3587 -0.1698
25809SOL     OW81788   8.615   7.735   3.180 -0.2035 -0.0160  0.4040
25809SOL    HW181789   8.672   7.661   3.203 -0.9143 -0.1645  1.7948
25809SOL    HW281790   8.671   7.812   3.186  0.3399 -0.3476 -0.2637
25810SOL     OW81791   6.715   8.942   1.240  0.2954 -0.4054  0.6065
25810SOL    HW181792   6.802   8.923   1.204  0.6184  0.3706  0.9519
25810SOL    HW281793   6.659   8.873   1.205  0.5366  0.4291 -1.5601
25811SOL     OW81794   5.169   1.736   9.078  0.1304 -0.7565  0.5109
25811SOL    HW181795   5.220   1.799   9.028 -0.6266  0.2283  0.9258
25811SOL    HW281796   5.103   1.703   9.017 -0.9270  0.6004  0.8575
25812SOL     OW81797  10.818   2.282   6.847 -0.2610 -0.2702  0.3344
25812SOL    HW181798  10.824   2.372   6.880 -1.4127 -0.1773  0.3312
25812SOL    HW281799  10.909   2.251   6.847  0.2330  1.0724 -0.2035
25813SOL     OW81800   5.546   6.217   5.234 -0.3657 -0.1034 -0.0118
25813SOL    HW181801   5.545   6.209   5.329 -0.3003  1.0803  0.0983
25813SOL    HW281802   5.628   6.176   5.207  0.1334  0.5303  0.5370
25814SOL     OW81803   4.365   9.304   6.074 -0.4084  0.6573 -0.1253
25814SOL    HW181804   4.269   9.305   6.082 -0.3396 -1.1140  2.0661
25814SOL    HW281805   4.390   9.216   6.102  2.0865  2.3986  4.2130
25815SOL     OW81806   4.489   5.337   6.633  0.7311  0.1116 -0.0947
25815SOL    HW181807   4.463   5.382   6.553  2.7245  0.8284 -0.4016
25815SOL    HW281808   4.480   5.404   6.702  2.3025  0.5891 -0.3159
25816SOL     OW81809   2.685   7.830   0.207  0.2991 -0.2899  0.1669
25816SOL    HW181810   2.609   7.884   0.230 -0.3210 -0.6344 -0.9523
25816SOL    HW281811   2.746   7.891   0.166 -0.3746 -0.3837 -1.0378
25817SOL     OW81812   4.726   3.533   8.515  0.0342  0.1528  0.3125
25817SOL    HW181813   4.729   3.442   8.545 -2.4470 -0.1287 -0.0698
25817SOL    HW281814   4.705   3.583   8.594 -1.2567  0.0292  0.0786
25818SOL     OW81815   9.760   4.588   2.342 -0.4656  0.9169  0.0679
25818SOL    HW181816   9.753   4.667   2.288 -0.7688  1.1393  0.4305
25818SOL    HW281817   9.768   4.620   2.432  0.0284  0.5481  0.1653
25819SOL     OW81818   4.359   4.415   3.564 -0.3483  0.4389  0.2749
25819SOL    HW181819   4.313   4.493   3.531  0.5700  0.4813 -0.9941
25819SOL    HW281820   4.331   4.344   3.506  1.0920  0.4569 -0.4872
25820SOL     OW81821   5.083   0.832   7.951  0.6238 -0.7238 -0.4064
25820SOL    HW181822   5.086   0.909   8.010  2.1565 -1.7820  1.0176
25820SOL    HW281823   5.169   0.832   7.909  0.6232 -1.6401 -0.4183
25821SOL     OW81824   9.732   9.525   5.412  0.1035 -0.1528 -0.1183
25821SOL    HW181825   9.649   9.572   5.420  0.0001 -0.6111  1.7634
25821SOL    HW281826   9.756   9.535   5.319 -0.5243  2.5364 -0.0711
25822SOL     OW81827   6.101   7.095   7.612 -0.1664  0.4080 -0.4301
25822SOL    HW181828   6.007   7.108   7.625 -0.1044 -0.0501  0.6524
25822SOL    HW281829   6.112   7.000   7.615  0.7474  0.4483  3.3327
25823SOL     OW81830   3.649   3.100   6.970  0.2306 -0.2994  0.4482
25823SOL    HW181831   3.593   3.080   7.045  0.2434 -1.3919  0.1830
25823SOL    HW281832   3.716   3.158   7.005 -0.1326 -0.2842  1.1381
25824SOL     OW81833   6.314  11.103   9.425  0.1649 -0.3096  0.6149
25824SOL    HW181834   6.340  11.194   9.416 -0.0790 -0.3235 -0.3607
25824SOL    HW281835   6.302  11.072   9.335  1.1981 -1.5846  0.8766
25825SOL     OW81836   5.296   5.382   0.102 -0.4480 -0.3083 -0.5258
25825SOL    HW181837   5.390   5.399   0.102 -0.1243 -1.9347 -0.2315
25825SOL    HW281838   5.262   5.435   0.030  0.8063 -0.3282 -1.1551
25826SOL     OW81839   8.289   1.751   5.622  0.0468  0.2537 -0.1776
25826SOL    HW181840   8.213   1.716   5.668  0.9112 -1.0131  0.3338
25826SOL    HW281841   8.303   1.691   5.549  1.0058  0.0290  0.1763
25827SOL     OW81842   0.757   9.591   5.803 -0.0338  0.2888  0.4814
25827SOL    HW181843   0.756   9.497   5.820 -0.5658  0.3257  0.6886
25827SOL    HW281844   0.795   9.600   5.716  2.0051  0.0395  1.3070
25828SOL     OW81845   8.203   6.381   5.057 -0.4287 -0.2792  0.6904
25828SOL    HW181846   8.118   6.383   5.012  0.5665  1.2095 -1.2260
25828SOL    HW281847   8.192   6.314   5.124 -2.4438 -1.6636 -0.8953
25829SOL     OW81848   7.390   1.411  10.486  0.9665  0.1127 -0.5151
25829SOL    HW181849   7.411   1.486  10.541  0.9181  0.8457 -1.4730
25829SOL    HW281850   7.304   1.382  10.517  1.4363 -0.2020  0.5334
25830SOL     OW81851   0.006   0.200   7.206  0.1168  0.5367 -1.0839
25830SOL    HW181852  -0.016   0.107   7.217  0.4861  0.5638 -0.0489
25830SOL    HW281853   0.023   0.231   7.294  1.6163  1.1913 -1.5732
25831SOL     OW81854   0.968   8.384  10.120 -0.7752  0.4947  0.1017
25831SOL    HW181855   0.894   8.435  10.155  0.3354  1.3436  1.2781
25831SOL    HW281856   1.026   8.449  10.081  1.2572  0.3603  2.6923
25832SOL     OW81857   5.833   3.342  10.770  0.1132  0.4661 -0.6206
25832SOL    HW181858   5.870   3.256  10.794 -0.0864  0.8578  1.2819
25832SOL    HW281859   5.741   3.336  10.793  0.2611  1.4415  0.3126
25833SOL     OW81860   8.299   8.657   1.937  0.0679 -0.3239 -0.2576
25833SOL    HW181861   8.255   8.608   1.867 -0.5096 -0.6238  0.3021
25833SOL    HW281862   8.295   8.748   1.908  2.4943 -0.6940 -2.0354
25834SOL     OW81863   4.353  10.895   1.581 -0.9075 -0.1814  0.4737
25834SOL    HW181864   4.363  10.829   1.513  0.7897  0.8758 -0.3802
25834SOL    HW281865   4.265  10.930   1.568 -1.3355 -1.3587  0.1151
25835SOL     OW81866   3.850   6.574   8.445 -0.0987  0.6664 -0.3799
25835SOL    HW181867   3.923   6.579   8.384  0.6484 -0.6934  0.3538
25835SOL    HW281868   3.822   6.483   8.442 -0.2652  0.6397  1.0265
25836SOL     OW81869   0.040   8.719   5.183  0.0147 -0.5398  0.2479
25836SOL    HW181870   0.078   8.786   5.127  1.9531 -1.3070  0.5451
25836SOL    HW281871   0.116   8.678   5.226 -1.0776 -2.8588  0.1230
25837SOL     OW81872   9.221   6.811   2.792  0.5611  0.2678 -0.3989
25837SOL    HW181873   9.181   6.884   2.745  1.2675  0.4181 -0.7827
25837SOL    HW281874   9.301   6.791   2.743  1.1069  0.1570  0.4990
25838SOL     OW81875   3.170   5.765   2.342 -0.1267 -0.0034  0.5616
25838SOL    HW181876   3.202   5.839   2.394  1.2845 -1.1756  1.4196
25838SOL    HW281877   3.248   5.731   2.298 -0.3690 -2.1237  1.6597
25839SOL     OW81878   3.724   4.442   7.738 -0.5764  0.2944  0.0418
25839SOL    HW181879   3.689   4.434   7.649 -3.7609 -0.3535  1.2103
25839SOL    HW281880   3.747   4.535   7.746  0.2866  0.2584 -1.5768
25840SOL     OW81881   0.724   1.844   7.095  0.7591  1.2767 -0.2618
25840SOL    HW181882   0.701   1.751   7.086 -1.6003  1.7188  0.5823
25840SOL    HW281883   0.797   1.856   7.034 -0.3715 -0.6062 -2.1283
25841SOL     OW81884  10.431  10.809   8.512 -0.6172  0.3582  0.4128
25841SOL    HW181885  10.448  10.716   8.498  3.9681  0.8548  1.1075
25841SOL    HW281886  10.359  10.812   8.575 -1.7538 -2.6008 -0.5973
25842SOL     OW81887   6.448   4.232   0.997 -0.1156  0.3507  0.1047
25842SOL    HW181888   6.454   4.292   1.071 -0.6615 -0.7050  1.0486
25842SOL    HW281889   6.426   4.147   1.037  1.0903 -0.5950 -1.1223
25843SOL     OW81890   7.065   1.628   9.432  0.3349  0.4144  0.0124
25843SOL    HW181891   7.002   1.699   9.441  0.9576  0.9353  0.2842
25843SOL    HW281892   7.067   1.586   9.518 -0.0291  0.0620 -0.1458
25844SOL     OW81893   0.889  10.979   5.176  0.2433 -0.1323 -0.4290
25844SOL    HW181894   0.919  10.888   5.167  0.3071 -0.0805 -0.7600
25844SOL    HW281895   0.933  11.011   5.254  0.2055 -0.3948 -0.2975
25845SOL     OW81896  10.842   0.731   8.009  0.3900  0.3835 -0.3560
25845SOL    HW181897  10.816   0.789   7.938 -1.7930 -1.8609 -1.5511
25845SOL    HW281898  10.765   0.730   8.067  0.5735 -0.8747 -0.1072
25846SOL     OW81899   5.524   8.627   1.109  0.5046 -0.2409  0.0074
25846SOL    HW181900   5.450   8.598   1.057  0.5579  1.1254 -0.8743
25846SOL    HW281901   5.491   8.629   1.199 -1.1221  1.9998 -0.5494
25847SOL     OW81902   3.594   4.001   9.497  0.3493 -0.4656 -0.0011
25847SOL    HW181903   3.588   4.085   9.453  0.0087 -0.0073  0.8973
25847SOL    HW281904   3.657   4.014   9.567 -0.8168 -0.5156  1.0871
25848SOL     OW81905   4.812   5.873   7.650 -0.3237 -0.1153  0.4296
25848SOL    HW181906   4.845   5.941   7.710  3.7103  0.2199 -1.8355
25848SOL    HW281907   4.774   5.922   7.577 -1.8438 -0.4601  0.9579
25849SOL     OW81908   5.800   3.813   5.020 -0.2575  0.3697 -0.6948
25849SOL    HW181909   5.876   3.846   5.068 -1.4956  0.1488  1.5621
25849SOL    HW281910   5.743   3.776   5.088 -2.3767  0.4966 -2.2980
25850SOL     OW81911   9.626   6.617   6.602 -0.2968 -0.3661  0.0894
25850SOL    HW181912   9.595   6.674   6.531 -0.3899 -0.9223 -0.3234
25850SOL    HW281913   9.588   6.532   6.582  0.5697 -0.7861  0.2118
25851SOL     OW81914  10.518   0.900  10.815  0.0839  0.2620  0.2977
25851SOL    HW181915  10.461   0.935  10.746  0.2816  0.4029  0.2037
25851SOL    HW281916  10.490   0.946  10.895  1.5725  2.0700 -0.1339
25852SOL     OW81917   7.777   3.480   2.104 -0.0188  0.3350  0.2021
25852SOL    HW181918   7.799   3.476   2.197 -0.8771  1.5434  0.4813
25852SOL    HW281919   7.704   3.419   2.094 -0.3027  0.6293  0.4492
25853SOL     OW81920   5.587   3.696   3.569 -0.0120 -0.1007 -0.7014
25853SOL    HW181921   5.671   3.724   3.532 -0.2537  0.1894 -1.0317
25853SOL    HW281922   5.539   3.778   3.582  0.3958 -0.1008  1.0646
25854SOL     OW81923   8.967   9.242   1.765  0.0804 -0.1768  0.2666
25854SOL    HW181924   8.880   9.212   1.737  0.9749 -1.3112 -1.4968
25854SOL    HW281925   8.953   9.332   1.794 -1.8232 -0.6222  0.8463
25855SOL     OW81926   8.442  11.094   0.885 -0.2957  0.0588  0.2806
25855SOL    HW181927   8.383  11.067   0.815  0.8612  1.5989 -1.3707
25855SOL    HW281928   8.437  11.190   0.884  1.0681  0.1621  1.1449
25856SOL     OW81929   2.664   4.771  10.908  0.2652 -0.0880 -0.5059
25856SOL    HW181930   2.668   4.837  10.978 -0.7570  1.1780 -1.6027
25856SOL    HW281931   2.667   4.688  10.955 -1.3173  0.6997  1.1467
25857SOL     OW81932   6.364   6.823   0.088 -0.2946  0.3441 -0.0719
25857SOL    HW181933   6.312   6.878   0.147  0.3297  1.5127 -0.5760
25857SOL    HW281934   6.452   6.824   0.126  0.1255  1.1537 -1.0295
25858SOL     OW81935   7.211   4.426   8.769 -0.1260  0.0022  0.1498
25858SOL    HW181936   7.296   4.430   8.813 -0.8205  0.6029  1.5207
25858SOL    HW281937   7.231   4.397   8.680  1.4268 -0.5815  0.6494
25859SOL     OW81938  10.872  10.008   6.511 -0.2934  0.0614 -0.0940
25859SOL    HW181939  10.821  10.070   6.458  0.4547  0.8731  0.1047
25859SOL    HW281940  10.942   9.978   6.453 -0.0773  0.1643  0.1107
25860SOL     OW81941   8.526   1.013   8.951  0.0297  0.0801  0.0921
25860SOL    HW181942   8.457   1.068   8.989 -0.3879 -1.6515  1.9898
25860SOL    HW281943   8.495   0.992   8.863 -0.0836  2.3088 -0.4572
25861SOL     OW81944   5.395   9.605  10.363  0.3528 -0.7512  0.0310
25861SOL    HW181945   5.303   9.588  10.344  0.5195 -0.3477 -1.2429
25861SOL    HW281946   5.427   9.523  10.400 -0.1667 -1.3995 -0.9043
25862SOL     OW81947   1.724   9.810  10.516  0.4425 -0.2017 -0.1251
25862SOL    HW181948   1.781   9.826  10.592  0.9794  1.2874 -0.7928
25862SOL    HW281949   1.636   9.812  10.552  0.7435 -2.4172  0.9050
25863SOL     OW81950   5.595   6.076   7.337  0.4448  0.1860  0.4200
25863SOL    HW181951   5.619   5.994   7.379 -0.2661 -1.7386 -2.6760
25863SOL    HW281952   5.660   6.088   7.268 -1.2437  0.5285 -1.1843
25864SOL     OW81953   6.002   2.077   9.202 -0.0533  0.4754 -0.2318
25864SOL    HW181954   5.920   2.032   9.217  0.3665  0.0570  0.8340
25864SOL    HW281955   5.977   2.158   9.156 -0.7538 -1.0618 -2.7445
25865SOL     OW81956   7.289   7.255   9.145  0.1790  0.4363  0.3740
25865SOL    HW181957   7.292   7.199   9.223  2.4516 -1.3553 -0.8588
25865SOL    HW281958   7.210   7.229   9.099 -0.8703  1.0890  1.7358
25866SOL     OW81959   7.553   3.714   5.784 -0.4964  0.1899  0.0106
25866SOL    HW181960   7.479   3.674   5.737 -0.6433  1.7241 -1.1571
25866SOL    HW281961   7.533   3.699   5.876 -2.0525  0.1880 -0.2899
25867SOL     OW81962   4.046   0.528   9.015  0.0843  0.0495  0.3113
25867SOL    HW181963   3.957   0.534   8.979 -0.0264  3.2944  0.7695
25867SOL    HW281964   4.074   0.620   9.025  2.8364 -0.8245  1.8097
25868SOL     OW81965   8.740   5.382   6.307  0.5626  0.1014 -0.1658
25868SOL    HW181966   8.713   5.409   6.219 -0.1631 -0.1281 -0.0257
25868SOL    HW281967   8.751   5.287   6.301 -1.9716 -0.3180  0.5648
25869SOL     OW81968   1.060   7.102   3.852 -0.4837 -0.2980 -0.0771
25869SOL    HW181969   1.087   7.020   3.893 -1.1297 -0.1103  0.7404
25869SOL    HW281970   0.976   7.082   3.811  1.7889 -1.6188 -4.8744
25870SOL     OW81971   9.710   4.511  10.698  0.3534 -0.1870  0.1367
25870SOL    HW181972   9.651   4.534  10.770 -0.6481 -0.4146 -0.5840
25870SOL    HW281973   9.671   4.553  10.621  0.5080 -1.2553 -0.5445
25871SOL     OW81974  11.117   3.198   6.442 -0.3623 -0.3856 -0.4841
25871SOL    HW181975  11.056   3.162   6.506 -2.4233  1.4173 -1.2889
25871SOL    HW281976  11.118   3.134   6.371  0.0450 -1.2275  0.2550
25872SOL     OW81977   1.540   9.863   0.655  0.4796 -0.3774  0.0426
25872SOL    HW181978   1.563   9.933   0.716  0.2663 -1.2139  1.1251
25872SOL    HW281979   1.531   9.785   0.711  3.1882 -1.8602 -1.3563
25873SOL     OW81980   7.042   0.979   3.996  0.0913 -0.4045 -0.8191
25873SOL    HW181981   7.086   0.925   3.930 -0.9781  0.2841 -2.1495
25873SOL    HW281982   6.966   0.927   4.023  1.1650 -1.2075  0.8171
25874SOL     OW81983   5.629   9.751   4.806 -0.5173  0.4912  0.0917
25874SOL    HW181984   5.625   9.773   4.899  1.8141 -1.5494  0.8005
25874SOL    HW281985   5.723   9.738   4.789 -1.0419 -0.9652 -2.0828
25875SOL     OW81986   8.164  10.785   0.673 -0.1603  0.4033 -0.3316
25875SOL    HW181987   8.194  10.875   0.683  0.4069  0.1128  0.6914
25875SOL    HW281988   8.069  10.791   0.678 -0.1660  1.0314 -1.0533
25876SOL     OW81989  10.774   8.648   3.930 -0.3122  0.4931 -0.3123
25876SOL    HW181990  10.724   8.629   4.010 -1.0468 -0.6263 -0.9993
25876SOL    HW281991  10.850   8.698   3.960 -0.8777  0.6091  1.0057
25877SOL     OW81992   0.356   9.837   0.025  0.2483  0.4075  0.2753
25877SOL    HW181993   0.430   9.789  -0.011  0.2977  1.6153 -1.3317
25877SOL    HW281994   0.352   9.918  -0.026 -1.4258  0.9303  1.1467
25878SOL     OW81995   2.919   8.444   7.107 -0.3365  0.2063  0.4556
25878SOL    HW181996   3.010   8.451   7.077 -0.3000  2.0892  0.9026
25878SOL    HW281997   2.880   8.528   7.083 -1.2151  0.4641  2.6465
25879SOL     OW81998   4.578   5.894   9.056 -0.1403 -0.5945 -0.1551
25879SOL    HW181999   4.577   5.893   9.151  0.3351  0.0033 -0.1336
25879SOL    HW282000   4.652   5.951   9.034 -1.5267  1.0186 -0.8675
25880SOL     OW82001   8.191   3.376   0.787 -0.0075 -0.0352  0.3220
25880SOL    HW182002   8.099   3.404   0.784  0.3440  1.1032 -0.2805
25880SOL    HW282003   8.192   3.306   0.852 -1.1987  0.3246  0.7647
25881SOL     OW82004   4.756   9.480   9.309 -0.2528 -0.0395  0.9726
25881SOL    HW182005   4.828   9.462   9.369  1.3520 -0.1064 -0.8746
25881SOL    HW282006   4.782   9.439   9.227 -2.4406 -0.0931  0.2296
25882SOL     OW82007   3.453   6.405   1.537  0.7781  0.5187  0.3634
25882SOL    HW182008   3.439   6.445   1.622  0.9224  0.3693  0.4574
25882SOL    HW282009   3.377   6.349   1.523  0.1387  1.5013 -0.1585
25883SOL     OW82010   2.926   6.586   8.007 -0.1087 -0.3708  0.2264
25883SOL    HW182011   2.944   6.678   7.989 -1.2256 -0.4499 -1.5584
25883SOL    HW282012   3.012   6.545   8.015  0.4147  0.5800 -0.4053
25884SOL     OW82013   8.188   7.515   2.511  0.0286  0.2455  0.1555
25884SOL    HW182014   8.221   7.452   2.575  0.1543  0.8312  0.6774
25884SOL    HW282015   8.132   7.464   2.453  0.0199 -0.3149  0.6550
25885SOL     OW82016   8.434   0.215  10.277 -0.4414 -0.0443  0.2947
25885SOL    HW182017   8.488   0.289  10.251  0.9831 -0.3588  2.0809
25885SOL    HW282018   8.487   0.138  10.254 -1.4759 -0.4949 -0.6576
25886SOL     OW82019   3.571   8.164   0.287 -0.2580 -0.4362  0.5859
25886SOL    HW182020   3.642   8.133   0.232  0.2984  2.0556 -0.2580
25886SOL    HW282021   3.612   8.227   0.346 -1.6588  0.8312  0.2917
25887SOL     OW82022   8.044   9.156   1.456 -0.4132 -0.4402  0.0663
25887SOL    HW182023   8.040   9.245   1.420 -0.8786 -0.5833 -0.2394
25887SOL    HW282024   8.042   9.170   1.551  0.1202 -0.0976  0.0305
25888SOL     OW82025   9.503   2.889  10.856 -0.0864  0.2810 -0.1199
25888SOL    HW182026   9.439   2.887  10.785  0.8451 -0.4399 -0.9649
25888SOL    HW282027   9.510   2.798  10.884 -0.0013  0.4758  0.4991
25889SOL     OW82028   6.658   2.064   5.483 -0.4428 -0.7609  0.1040
25889SOL    HW182029   6.656   1.978   5.527  0.5319 -1.3111 -0.8774
25889SOL    HW282030   6.594   2.056   5.412  0.1636 -0.9338 -0.4283
25890SOL     OW82031   2.006   6.491   3.839  0.8156 -0.1628  0.2481
25890SOL    HW182032   2.091   6.519   3.807  0.7147  1.0857  1.0189
25890SOL    HW282033   1.943   6.525   3.775  0.8864 -1.3033 -0.4596
25891SOL     OW82034   3.032   5.234   7.256 -0.1450 -0.2264  0.8248
25891SOL    HW182035   3.103   5.251   7.194 -1.5164  0.7144 -0.5545
25891SOL    HW282036   3.075   5.191   7.330  1.5235 -1.5732 -0.8348
25892SOL     OW82037   0.983   4.772   6.722  0.3303  0.3448  0.1211
25892SOL    HW182038   0.980   4.721   6.641  1.1388  0.3940  0.0512
25892SOL    HW282039   1.076   4.790   6.736  0.0883  1.5388  0.3094
25893SOL     OW82040   4.410   1.553   7.500  0.1133  0.1815  0.3663
25893SOL    HW182041   4.412   1.621   7.568 -1.5701  1.6576 -0.9445
25893SOL    HW282042   4.368   1.596   7.425  2.4015 -1.1964 -1.8438
25894SOL     OW82043   0.751   5.525   5.309  0.1672 -0.0765  0.2754
25894SOL    HW182044   0.838   5.556   5.283  0.7364 -1.0700  0.9079
25894SOL    HW282045   0.719   5.593   5.369  1.5260 -0.7835  1.8974
25895SOL     OW82046   7.314   0.743   8.379 -0.1746  0.4036 -0.1172
25895SOL    HW182047   7.241   0.793   8.343 -1.0706  0.1690  1.2809
25895SOL    HW282048   7.376   0.810   8.409 -0.9163  0.6942  0.8420
25896SOL     OW82049   3.220   4.791   3.709 -0.4868  0.4289 -0.0757
25896SOL    HW182050   3.267   4.780   3.792 -1.3905 -0.5602  0.3400
25896SOL    HW282051   3.155   4.720   3.709 -2.2085  1.9302 -0.4475
25897SOL     OW82052   4.610   0.795   6.996 -0.0607 -0.4481 -0.0138
25897SOL    HW182053   4.667   0.748   6.935  0.9966 -0.1621  0.7285
25897SOL    HW282054   4.669   0.828   7.063 -1.0984 -0.0470  0.7237
25898SOL     OW82055   0.796   2.388   4.693 -0.0700  0.2266 -0.1933
25898SOL    HW182056   0.853   2.463   4.709 -0.3471  0.1057  1.5257
25898SOL    HW282057   0.839   2.315   4.736 -0.6228 -0.2472 -0.4356
25899SOL     OW82058   7.934   5.027   6.076 -0.5712  0.5011 -0.1456
25899SOL    HW182059   7.901   5.018   6.166 -0.3409  0.8113 -0.0308
25899SOL    HW282060   7.955   5.120   6.067  0.3084  0.3056 -0.2031
25900SOL     OW82061   5.795   7.868   3.400  0.1888  0.1410 -0.0740
25900SOL    HW182062   5.846   7.921   3.339  0.3242  0.5464  0.3911
25900SOL    HW282063   5.816   7.778   3.376 -0.7662  0.2643 -1.4921
25901SOL     OW82064   6.568   0.610   6.134 -0.1474  0.3057  0.3240
25901SOL    HW182065   6.491   0.562   6.104  0.8190 -0.4934 -1.0033
25901SOL    HW282066   6.594   0.663   6.059  0.3978  0.8313  0.8737
25902SOL     OW82067   1.553   3.314   4.261 -0.7053 -0.0579 -0.1296
25902SOL    HW182068   1.634   3.364   4.259 -0.0513 -1.0156  1.1884
25902SOL    HW282069   1.539   3.294   4.353 -1.1536 -1.9344 -0.5554
25903SOL     OW82070   4.326  10.176   6.643 -0.1260 -0.1504  0.7914
25903SOL    HW182071   4.247  10.194   6.694 -1.1718  1.8044 -1.3427
25903SOL    HW282072   4.313  10.088   6.608 -1.8012  0.4538 -0.2080
25904SOL     OW82073   1.904   6.793   3.402  0.1966 -0.3699 -0.4487
25904SOL    HW182074   1.891   6.802   3.308  0.8095  0.9293 -0.4407
25904SOL    HW282075   1.988   6.837   3.418  1.0097 -2.1403  0.4619
25905SOL     OW82076   5.223   6.803  10.357  0.0127  0.4190  0.7040
25905SOL    HW182077   5.180   6.732  10.310  1.0386 -0.7782  1.5067
25905SOL    HW282078   5.316   6.783  10.352  0.3741  1.9858  0.5465
25906SOL     OW82079   4.142   9.224   7.075  0.5631 -0.7259 -0.0351
25906SOL    HW182080   4.119   9.146   7.024  0.0020 -0.0121 -0.9027
25906SOL    HW282081   4.229   9.206   7.108  0.2885 -1.8860  0.0901
25907SOL     OW82082   3.510   8.609   0.445  0.3036  0.9046 -0.4036
25907SOL    HW182083   3.475   8.698   0.437 -0.9409  0.4175 -0.6076
25907SOL    HW282084   3.496   8.570   0.359 -0.1042  0.1842 -0.0184
25908SOL     OW82085   4.439   4.705  10.322 -0.1948  0.3023  0.2890
25908SOL    HW182086   4.481   4.783  10.358 -1.9239  2.0847 -1.3270
25908SOL    HW282087   4.458   4.708  10.228 -1.2930 -0.5553  0.0158
25909SOL     OW82088   4.963   6.344   4.415  0.5930  0.5590  0.0537
25909SOL    HW182089   5.033   6.333   4.350  0.8657  0.1065  0.4180
25909SOL    HW282090   4.929   6.432   4.399  0.1597  0.1943 -1.1941
25910SOL     OW82091   6.070   2.983   8.785 -0.1994 -0.4927 -0.3763
25910SOL    HW182092   6.003   2.969   8.852  0.1171 -2.3566 -0.3795
25910SOL    HW282093   6.026   3.037   8.719 -2.0558 -2.3134 -0.7731
25911SOL     OW82094   8.079   1.436   7.092  0.7224  0.3479 -0.6486
25911SOL    HW182095   8.164   1.423   7.136  0.9939 -0.2242 -1.3279
25911SOL    HW282096   8.016   1.440   7.164  1.1981 -0.2618 -0.1809
25912SOL     OW82097   0.737   7.423   4.407  0.3524 -0.9644 -0.2694
25912SOL    HW182098   0.707   7.506   4.443 -0.2218 -2.0111  1.7979
25912SOL    HW282099   0.704   7.422   4.317 -0.2408  0.7085 -0.0968
25913SOL     OW82100   6.967   9.627   2.019  0.0214 -0.1844 -0.3595
25913SOL    HW182101   6.919   9.594   2.095 -1.4838  0.1607 -1.1293
25913SOL    HW282102   6.918   9.703   1.991  2.8180  2.2185  0.7374
25914SOL     OW82103  10.914  10.876   2.786 -0.1107 -0.0913  0.0567
25914SOL    HW182104  10.877  10.890   2.873  0.7884 -0.0967  0.4564
25914SOL    HW282105  10.949  10.961   2.760 -0.3854 -0.0868 -0.3039
25915SOL     OW82106  10.545  10.100   4.429  0.1275  0.3314 -0.3050
25915SOL    HW182107  10.493  10.047   4.369 -0.1069 -0.5536  0.6453
25915SOL    HW282108  10.587  10.165   4.374 -0.1755 -0.3808 -1.4018
25916SOL     OW82109   5.144   9.249   5.123 -0.6909 -0.0035 -0.0755
25916SOL    HW182110   5.129   9.284   5.211 -0.5506  0.6063 -0.2884
25916SOL    HW282111   5.232   9.279   5.100 -1.2679  1.0456 -0.9768
25917SOL     OW82112   7.402   8.838  10.346  0.3058  0.0925  0.0140
25917SOL    HW182113   7.331   8.890  10.385 -0.3712 -0.7574 -0.0555
25917SOL    HW282114   7.382   8.748  10.370 -0.4751 -0.5667 -2.7350
25918SOL     OW82115   5.720   8.766   9.962 -0.0562 -0.2582  0.2213
25918SOL    HW182116   5.764   8.813  10.033  0.0068 -0.5786  0.3976
25918SOL    HW282117   5.642   8.817   9.944 -0.4468 -0.5635  1.0128
25919SOL     OW82118   0.478   2.915   1.444  0.3195  0.1911 -0.2650
25919SOL    HW182119   0.549   2.862   1.407  0.1031  1.8504 -3.3905
25919SOL    HW282120   0.516   2.953   1.524  1.4821 -2.1357  0.3872
25920SOL     OW82121   4.100   7.303   7.877 -0.4106 -0.0039  0.0359
25920SOL    HW182122   4.018   7.256   7.860  0.2494 -0.7346 -1.3114
25920SOL    HW282123   4.169   7.238   7.864  0.4162  0.6968  0.7349
25921SOL     OW82124   0.193   8.045  10.702  0.0781 -0.2228  0.0718
25921SOL    HW182125   0.105   8.074  10.724  0.2551  0.7745 -0.4750
25921SOL    HW282126   0.202   7.960  10.746 -1.1801 -0.3896  0.0484
25922SOL     OW82127   2.070   7.589   4.618  0.2467 -0.3826 -0.1688
25922SOL    HW182128   2.154   7.583   4.574  0.6361  0.2669  0.4664
25922SOL    HW282129   2.010   7.537   4.564  1.1703 -1.2990 -0.3267
25923SOL     OW82130   4.955   9.963   0.945 -0.2863 -0.2576  0.3058
25923SOL    HW182131   4.959   9.868   0.949 -0.4514 -0.3137 -0.5934
25923SOL    HW282132   5.043   9.992   0.969  0.5119 -0.7545 -1.7816
25924SOL     OW82133   9.343   5.962   7.720 -0.0984  0.0385  0.1015
25924SOL    HW182134   9.338   5.912   7.801  3.0136  1.2578  1.2256
25924SOL    HW282135   9.406   5.913   7.666 -1.0738 -0.0175 -1.0175
25925SOL     OW82136   6.760   9.651   1.789 -0.2465 -0.1828  0.0560
25925SOL    HW182137   6.856   9.644   1.782  0.3262  4.1260  0.7097
25925SOL    HW282138   6.731   9.669   1.700  0.0657  1.7003  0.2905
25926SOL     OW82139   0.568  10.344   3.202 -0.3900  0.4588 -0.0494
25926SOL    HW182140   0.595  10.436   3.203 -1.3702  0.7681  1.1793
25926SOL    HW282141   0.570  10.319   3.110 -0.8363  1.9330 -0.4877
25927SOL     OW82142   3.945   4.080   4.765 -0.6103 -0.4308 -0.0350
25927SOL    HW182143   3.880   4.017   4.734 -0.3729 -0.4928 -0.4103
25927SOL    HW282144   3.912   4.108   4.851 -2.3670  1.3013 -1.2095
25928SOL     OW82145   6.274   4.663   1.314  0.2751 -0.2250 -0.3206
25928SOL    HW182146   6.329   4.727   1.270  0.9624 -0.8138 -0.3466
25928SOL    HW282147   6.192   4.709   1.332  0.2314  0.2378 -1.5817
25929SOL     OW82148   8.487   9.066   3.710 -0.3290 -0.2804 -0.3519
25929SOL    HW182149   8.562   9.069   3.651  0.5615 -0.7940  0.7189
25929SOL    HW282150   8.486   8.976   3.743  0.1440  0.3676  1.5702
25930SOL     OW82151   2.878   9.475   3.363  0.3420  0.0605  0.6458
25930SOL    HW182152   2.960   9.503   3.404  1.0697  1.2736 -1.4706
25930SOL    HW282153   2.874   9.381   3.379  1.9949  0.0338  1.0857
25931SOL     OW82154   8.387   4.438   4.590 -0.1657  0.5465  0.1527
25931SOL    HW182155   8.323   4.476   4.650 -1.6730 -0.8209 -0.5207
25931SOL    HW282156   8.376   4.487   4.509 -0.2405  0.4468  0.1012
25932SOL     OW82157   2.131   4.501   8.073 -0.2391  0.1127 -0.1691
25932SOL    HW182158   2.053   4.517   8.019  0.2061  0.0583 -0.8474
25932SOL    HW282159   2.167   4.588   8.090 -0.7633  0.1819  0.6424
25933SOL     OW82160   0.601   1.946   8.890 -0.1948 -0.0056 -0.6063
25933SOL    HW182161   0.640   1.899   8.964 -2.2528 -0.3073  0.3522
25933SOL    HW282162   0.627   2.037   8.903 -1.0992  0.0557  0.8991
25934SOL     OW82163   9.757   4.922   3.817  0.0886  0.1788  0.5216
25934SOL    HW182164   9.718   4.995   3.770 -1.1862 -0.5859  0.3335
25934SOL    HW282165   9.849   4.945   3.826  0.1003  0.9513 -1.1829
25935SOL     OW82166   2.393   6.611   7.477  0.3300 -0.3128 -0.1747
25935SOL    HW182167   2.469   6.586   7.529  1.0052 -1.4751 -1.6559
25935SOL    HW282168   2.349   6.529   7.457 -0.0579  0.1339 -1.2005
25936SOL     OW82169   1.760   2.056   5.151  0.1412  0.3778  0.4519
25936SOL    HW182170   1.803   2.100   5.077 -0.8938  1.5103  0.4889
25936SOL    HW282171   1.686   2.009   5.112  0.1496  0.1962  0.6542
25937SOL     OW82172   1.350   3.133   2.906 -0.7881 -0.3487 -0.6761
25937SOL    HW182173   1.355   3.142   3.001 -0.7369 -1.5957 -0.5422
25937SOL    HW282174   1.287   3.063   2.892 -1.3995  0.3714 -1.6024
25938SOL     OW82175   1.673   1.795   0.860 -0.3550  0.4521  0.3417
25938SOL    HW182176   1.625   1.729   0.810 -0.1899  0.2025  0.5162
25938SOL    HW282177   1.605   1.851   0.897 -0.4700  1.0948 -0.7737
25939SOL     OW82178  10.418   1.501   4.513  0.0984 -0.4476  0.5567
25939SOL    HW182179  10.502   1.457   4.525  0.0123 -1.4451 -1.9036
25939SOL    HW282180  10.358   1.455   4.572  0.9263 -0.8665  1.0842
25940SOL     OW82181   7.817   3.171  10.837 -0.3213 -0.2999 -0.2873
25940SOL    HW182182   7.729   3.202  10.857 -0.1171  0.2100 -0.1696
25940SOL    HW282183   7.872   3.209  10.905 -0.0240 -0.7056 -0.2984
25941SOL     OW82184   7.445   1.451   6.790  0.4176 -0.0394 -0.3954
25941SOL    HW182185   7.442   1.359   6.814  0.7143 -1.0124 -3.6309
25941SOL    HW282186   7.536   1.477   6.805  0.3637 -0.2693  0.3947
25942SOL     OW82187  10.888   1.736   1.786 -0.8608  0.1605 -0.1261
25942SOL    HW182188  10.948   1.794   1.832  1.2143 -1.1814 -0.9737
25942SOL    HW282189  10.928   1.723   1.700 -1.3029 -2.3047 -0.0466
25943SOL     OW82190   3.936   7.173   5.919  0.5029  0.3351  0.1489
25943SOL    HW182191   3.910   7.214   5.837  0.1268  3.1141  1.5532
25943SOL    HW282192   3.859   7.179   5.975  0.9766 -0.8633  0.9858
25944SOL     OW82193   6.646   9.975   1.832 -0.6507  0.5624  0.4623
25944SOL    HW182194   6.687  10.029   1.766 -1.3390  0.9577  0.3517
25944SOL    HW282195   6.719   9.944   1.886  0.0118 -0.4000 -0.9227
25945SOL     OW82196   6.338   4.621   7.044  0.1998 -0.1815  0.4608
25945SOL    HW182197   6.418   4.569   7.050 -0.3356 -1.3726 -1.7661
25945SOL    HW282198   6.333   4.648   6.952  0.3508  3.7828  1.4242
25946SOL     OW82199   0.959   2.677   8.797 -0.1586  0.5723 -0.2860
25946SOL    HW182200   1.030   2.740   8.787  0.2468  0.6764  2.5026
25946SOL    HW282201   0.895   2.720   8.854 -1.4186 -0.3611 -0.9261
25947SOL     OW82202   9.863   5.995   2.090  0.2233 -0.5301 -0.0555
25947SOL    HW182203   9.915   6.073   2.109  3.1949 -1.7127 -2.4359
25947SOL    HW282204   9.865   5.945   2.172 -0.0050  0.9476  0.8905
25948SOL     OW82205   7.739   1.286   0.989 -0.0875 -0.1615 -0.5386
25948SOL    HW182206   7.817   1.329   0.957 -0.3641  0.2239 -0.6930
25948SOL    HW282207   7.745   1.294   1.085  0.5928 -1.0663 -0.4913
25949SOL     OW82208   4.582   4.520   5.368  0.3217  0.3997  0.1226
25949SOL    HW182209   4.535   4.564   5.297  1.2039  4.7148  1.8528
25949SOL    HW282210   4.674   4.530   5.345  0.5693 -0.4878  0.6978
25950SOL     OW82211   8.814   5.442  10.677 -0.0944 -0.3458 -0.5485
25950SOL    HW182212   8.803   5.455  10.771  0.0013  0.7467 -0.6759
25950SOL    HW282213   8.740   5.488  10.638  0.5701  0.3081 -1.0624
25951SOL     OW82214   3.000   7.910   2.433 -0.2589  0.5906  0.0443
25951SOL    HW182215   2.941   7.954   2.373 -0.9387 -2.0076 -1.3359
25951SOL    HW282216   2.974   7.942   2.520 -1.9780  1.4079 -0.7248
25952SOL     OW82217   2.704   2.252   5.257 -0.1256  0.9467  0.3463
25952SOL    HW182218   2.644   2.186   5.292  0.3519  1.1075  1.5025
25952SOL    HW282219   2.685   2.331   5.307  0.1625  1.3529 -0.1738
25953SOL     OW82220   7.499   4.075   0.166 -0.5467  0.0282  0.2481
25953SOL    HW182221   7.492   4.087   0.072 -1.0335 -0.9851  0.1416
25953SOL    HW282222   7.419   4.115   0.201 -0.6532 -0.1234  0.1777
25954SOL     OW82223   5.533   1.547   0.391  0.0007  0.7681  0.0360
25954SOL    HW182224   5.448   1.504   0.402 -0.2657  0.6451 -2.1186
25954SOL    HW282225   5.594   1.475   0.375  0.0564  1.0131 -0.8634
25955SOL     OW82226   3.377   0.270   3.139  0.5054 -0.1007  0.9803
25955SOL    HW182227   3.445   0.338   3.130 -1.0722  1.3250 -1.0433
25955SOL    HW282228   3.294   0.318   3.133 -0.6868 -2.0903  0.6540
25956SOL     OW82229   6.041   9.349   3.714 -0.1705 -0.0115 -0.2543
25956SOL    HW182230   6.135   9.356   3.731 -0.3392  1.0110  0.2936
25956SOL    HW282231   6.031   9.375   3.622  0.0273  0.3408 -0.1762
25957SOL     OW82232   8.538   2.754   3.740 -0.0351 -0.3897  0.2477
25957SOL    HW182233   8.558   2.848   3.738  1.2936 -0.6188  1.1135
25957SOL    HW282234   8.446   2.749   3.714 -0.2868  1.2008  0.6761
25958SOL     OW82235  10.407   6.194   4.036  0.2525  0.6016 -0.3896
25958SOL    HW182236  10.339   6.166   4.097  1.0592 -0.9711 -0.1760
25958SOL    HW282237  10.366   6.187   3.950  0.2069 -0.6482 -0.2901
25959SOL     OW82238   1.557   8.471   7.935 -0.1013  0.4772  0.1155
25959SOL    HW182239   1.582   8.421   7.857 -2.1382 -1.7589  0.8063
25959SOL    HW282240   1.626   8.453   7.998 -0.2264 -0.5902 -0.0307
25960SOL     OW82241   3.920  11.080   6.468 -0.1872  0.7129 -0.0888
25960SOL    HW182242   3.985  11.063   6.400 -0.9446 -3.0757 -0.0886
25960SOL    HW282243   3.839  11.097   6.420 -0.1187  0.9782 -0.1111
25961SOL     OW82244   9.010   5.706   9.704  0.4968  0.1057  0.6579
25961SOL    HW182245   8.918   5.732   9.695  1.1245  2.2950  0.1199
25961SOL    HW282246   9.042   5.700   9.614  1.3190  1.0554  0.8777
25962SOL     OW82247   9.110   3.094   0.582  0.0214  0.4720 -0.1972
25962SOL    HW182248   9.097   3.104   0.677 -2.0472  1.6698 -0.5537
25962SOL    HW282249   9.107   3.183   0.547  0.0345 -0.0092 -1.4750
25963SOL     OW82250   9.093  10.983   5.345  0.0287 -0.5913  0.5241
25963SOL    HW182251   9.130  11.033   5.272  2.0018 -0.6592  1.4112
25963SOL    HW282252   9.165  10.974   5.407 -1.2278 -1.6602  1.9135
25964SOL     OW82253   7.173   8.903   6.604  0.0743 -0.2495  0.1497
25964SOL    HW182254   7.133   8.987   6.582 -1.9652 -0.9623  0.8174
25964SOL    HW282255   7.197   8.864   6.519  0.5013  0.7374 -0.1923
25965SOL     OW82256   2.045   2.533   4.430 -0.2893  0.4194  0.0980
25965SOL    HW182257   1.956   2.566   4.419  0.4878  3.4941  1.8782
25965SOL    HW282258   2.037   2.462   4.493 -1.6989 -0.9970 -1.5890
25966SOL     OW82259  10.135   4.262   3.432  0.4254  0.2194  0.2016
25966SOL    HW182260  10.227   4.240   3.416  0.3705 -0.1455  0.3714
25966SOL    HW282261  10.088   4.225   3.358  0.4749  0.9103 -0.1858
25967SOL     OW82262   7.153   8.017   4.420 -0.4821  0.0218  0.6562
25967SOL    HW182263   7.212   8.062   4.481 -0.3923  1.6669 -0.6027
25967SOL    HW282264   7.208   7.952   4.376  0.6452  1.9886 -0.9935
25968SOL     OW82265   9.423  10.535   7.654 -0.0507  0.1271  0.4144
25968SOL    HW182266   9.467  10.618   7.675 -0.3844  0.3442  0.2643
25968SOL    HW282267   9.361  10.521   7.725 -0.4317  0.3256  0.1292
25969SOL     OW82268   5.852   4.101   9.304 -0.2068 -0.5334  0.3832
25969SOL    HW182269   5.887   4.021   9.344  0.5796 -0.8956 -0.9642
25969SOL    HW282270   5.831   4.158   9.378  2.4062 -0.6614  1.3253
25970SOL     OW82271   8.480   2.836   8.655  0.3249 -0.0891 -0.0138
25970SOL    HW182272   8.396   2.861   8.615  1.0270  0.1829 -1.3528
25970SOL    HW282273   8.477   2.875   8.742  0.0574  1.9891 -0.9123
25971SOL     OW82274   7.842   4.551  10.370 -0.3681  0.1440 -0.6944
25971SOL    HW182275   7.936   4.565  10.368 -0.5921  2.0425 -0.0448
25971SOL    HW282276   7.815   4.577  10.458 -1.5330 -0.1906 -0.9215
25972SOL     OW82277   7.346  10.920   4.609 -0.1342 -0.3176  0.8424
25972SOL    HW182278   7.328  10.838   4.656  0.1820  0.3226  2.1271
25972SOL    HW282279   7.436  10.942   4.632  0.1012 -0.1036 -0.2688
25973SOL     OW82280   8.759   7.859   0.701  0.1930 -0.0475  0.1235
25973SOL    HW182281   8.850   7.886   0.713  0.9451 -2.1552 -0.3935
25973SOL    HW282282   8.728   7.838   0.789 -0.1161  1.5008  0.4137
25974SOL     OW82283   2.877   4.026   4.524  1.0570 -0.0599 -0.0539
25974SOL    HW182284   2.865   4.079   4.445 -2.6150 -0.0058  0.3721
25974SOL    HW282285   2.891   4.090   4.594  0.0323  0.1906 -0.0596
25975SOL     OW82286   5.371   4.769   7.880 -0.3459  0.2046 -0.0760
25975SOL    HW182287   5.390   4.790   7.788  1.5494 -1.4186 -0.1238
25975SOL    HW282288   5.290   4.718   7.877 -2.3521  3.1502 -0.4066
25976SOL     OW82289   8.008  10.457   5.966 -0.2208 -0.4896 -0.4887
25976SOL    HW182290   8.102  10.453   5.950  0.2790  1.0595  1.7180
25976SOL    HW282291   7.977  10.368   5.948  2.0813 -1.6997  1.0261
25977SOL     OW82292   9.630   4.250   4.492  0.2107  0.2002  0.0347
25977SOL    HW182293   9.660   4.269   4.403 -0.0323  0.2114 -0.0458
25977SOL    HW282294   9.691   4.184   4.524  0.0478 -0.1151 -0.2908
25978SOL     OW82295   6.443  10.091  10.658  0.3954 -0.0398  0.4555
25978SOL    HW182296   6.396  10.105  10.576 -0.1481 -3.9065 -0.0658
25978SOL    HW282297   6.376  10.095  10.725  0.8336  3.0785  0.8636
25979SOL     OW82298   9.829   2.438  10.672 -0.5045 -0.2582 -0.0376
25979SOL    HW182299   9.747   2.466  10.630 -0.0119 -0.3915 -1.1057
25979SOL    HW282300   9.800   2.382  10.744 -1.4676  1.6935  1.2125
25980SOL     OW82301   7.008  10.954   8.330  0.9076 -0.1355  0.0400
25980SOL    HW182302   6.971  10.887   8.272  2.5443 -0.2953 -0.8832
25980SOL    HW282303   6.932  11.000   8.365 -0.2278 -1.8913  0.0050
25981SOL     OW82304   0.201   1.694   5.759  0.5480 -0.0727  0.4700
25981SOL    HW182305   0.259   1.669   5.830  1.1490  0.9238  0.3381
25981SOL    HW282306   0.122   1.725   5.802  1.6403  2.4333  0.8239
25982SOL     OW82307   0.016   7.238   1.518 -0.1681 -0.0716 -0.1094
25982SOL    HW182308   0.093   7.188   1.489  1.0595  1.2633  0.7026
25982SOL    HW282309  -0.053   7.213   1.457  0.8199 -1.5546 -0.6807
25983SOL     OW82310   8.410   1.464  10.587  0.2291 -0.0603 -0.2521
25983SOL    HW182311   8.452   1.397  10.533 -0.0713 -0.7283  0.3336
25983SOL    HW282312   8.477   1.533  10.594  1.1372 -0.9776  0.4216
25984SOL     OW82313   0.747   9.926   3.387 -0.1885  0.5269  0.4010
25984SOL    HW182314   0.813   9.964   3.329  0.7989  2.1490  2.4271
25984SOL    HW282315   0.712  10.001   3.435 -3.7055 -0.2717 -0.6830
25985SOL     OW82316   9.404   0.248   2.435  0.0564 -0.0572 -0.0244
25985SOL    HW182317   9.433   0.171   2.484 -0.6593 -0.6131 -0.4528
25985SOL    HW282318   9.358   0.301   2.500 -3.2259 -2.0253 -0.5144
25986SOL     OW82319   9.752   1.033   1.710 -0.0358  0.2511  0.1881
25986SOL    HW182320   9.819   1.033   1.641  1.1243 -0.1528  1.2793
25986SOL    HW282321   9.766   1.116   1.756 -0.9791  0.6385 -0.1961
25987SOL     OW82322   3.344   6.557   9.308 -0.0407 -0.5032 -0.8101
25987SOL    HW182323   3.413   6.557   9.374 -0.0196  0.2393 -0.8226
25987SOL    HW282324   3.342   6.467   9.275 -0.2965 -0.9766  0.4482
25988SOL     OW82325   2.439   7.863   8.290  0.3340  0.2671  0.1841
25988SOL    HW182326   2.489   7.883   8.211 -0.0895  1.1436  0.1235
25988SOL    HW282327   2.396   7.780   8.272  1.4709 -0.3204  0.0938
25989SOL     OW82328  10.459   1.343   3.313  0.6802  0.0745 -0.3567
25989SOL    HW182329  10.433   1.428   3.278  2.3221  1.0838  0.7351
25989SOL    HW282330  10.441   1.349   3.407  0.4434 -0.9401 -0.3315
25990SOL     OW82331   4.432   4.592   0.140 -0.0183  0.0588  0.3918
25990SOL    HW182332   4.490   4.658   0.180  0.0762  0.7938 -0.8942
25990SOL    HW282333   4.487   4.515   0.128  1.3745  1.3837 -2.6588
25991SOL     OW82334   0.287   4.223   2.015  0.2997  0.9012 -0.0562
25991SOL    HW182335   0.193   4.235   2.023  0.4446  1.8844  0.4009
25991SOL    HW282336   0.303   4.210   1.921 -0.1505  2.1449 -0.3174
25992SOL     OW82337   3.187   9.141   2.618 -0.4004  0.4691 -0.1055
25992SOL    HW182338   3.126   9.079   2.579 -0.1639  1.1937 -1.6862
25992SOL    HW282339   3.136   9.185   2.686 -0.2157 -2.3018  2.0364
25993SOL     OW82340   8.336   0.867   6.691 -0.3129 -0.1112  0.4186
25993SOL    HW182341   8.380   0.847   6.773 -0.8438 -1.2820  0.4417
25993SOL    HW282342   8.385   0.818   6.625  0.1153  0.8249  0.0162
25994SOL     OW82343   7.948   8.266   7.765  0.3149  0.3262  0.2527
25994SOL    HW182344   7.909   8.336   7.712  0.2940  0.6215  0.6464
25994SOL    HW282345   8.037   8.257   7.732 -0.3964 -1.0898 -1.3695
25995SOL     OW82346   0.020   3.786   8.879 -0.0460  0.0999 -0.1514
25995SOL    HW182347  -0.060   3.817   8.836  0.7108  1.5510 -0.5963
25995SOL    HW282348   0.068   3.740   8.811 -0.2721 -0.3428 -0.0141
25996SOL     OW82349   8.042   2.963   7.073  0.5501  0.2954 -0.5581
25996SOL    HW182350   8.033   2.926   6.985 -0.8433 -1.3091  0.1927
25996SOL    HW282351   8.061   2.888   7.129 -0.5033  0.9709  0.7721
25997SOL     OW82352   0.186   9.002  10.500 -0.0515 -0.0308  0.2201
25997SOL    HW182353   0.251   8.932  10.488  0.6399  0.3142  1.7617
25997SOL    HW282354   0.207   9.040  10.585 -1.2503  1.1980 -0.0019
25998SOL     OW82355   5.773   5.405   8.812 -0.1816  0.4119 -0.2000
25998SOL    HW182356   5.809   5.435   8.896  0.2652 -0.6314 -0.0134
25998SOL    HW282357   5.700   5.464   8.795  1.8545  2.9479 -0.8422
25999SOL     OW82358   3.146  10.221   6.110 -0.2253 -0.7534 -0.4533
25999SOL    HW182359   3.115  10.230   6.200 -0.2043 -0.5451 -0.4685
25999SOL    HW282360   3.241  10.216   6.118 -0.1349  0.5176 -0.5658
26000SOL     OW82361   5.270   4.889   0.629  0.5471 -0.3332 -0.3948
26000SOL    HW182362   5.352   4.937   0.638  0.5083 -0.2938 -0.2457
26000SOL    HW282363   5.225   4.931   0.557  0.4840 -0.1020 -0.2215
26001SOL     OW82364   6.854  10.911   5.577  0.2395 -0.5118 -0.8746
26001SOL    HW182365   6.850  10.822   5.543  0.5543 -0.6423 -0.5738
26001SOL    HW282366   6.852  10.900   5.672 -1.0192 -0.1315 -0.8408
26002SOL     OW82367   3.804   5.612   9.553 -0.0764  0.3689  0.4897
26002SOL    HW182368   3.753   5.630   9.632 -0.9610  1.5166 -0.3094
26002SOL    HW282369   3.892   5.592   9.585 -0.4092  0.8459  1.7553
26003SOL     OW82370   5.145   7.181   6.837 -0.3839 -0.3788  0.3142
26003SOL    HW182371   5.163   7.226   6.754 -1.8126  0.1500  0.2698
26003SOL    HW282372   5.114   7.094   6.811 -1.8056  0.1315  0.2331
26004SOL     OW82373   8.154   8.990   8.644 -0.4423 -0.6347 -0.3277
26004SOL    HW182374   8.066   8.972   8.678 -0.3474 -1.9033 -0.6872
26004SOL    HW282375   8.194   9.047   8.710 -1.6998  0.4043 -0.4134
26005SOL     OW82376   7.975  11.044   1.893  0.3525 -0.4989 -0.2236
26005SOL    HW182377   7.900  11.066   1.948  1.1235 -0.2987  0.7721
26005SOL    HW282378   7.960  11.094   1.812 -1.1772 -1.3931 -0.5318
26006SOL     OW82379   6.288   5.863  10.093 -0.3498 -0.3302 -0.2864
26006SOL    HW182380   6.313   5.910  10.174  0.3455 -0.1902 -0.5708
26006SOL    HW282381   6.369   5.821  10.065 -0.4282  0.1570 -1.2671
26007SOL     OW82382   5.233   4.092   7.268  0.0989 -0.2931 -0.0248
26007SOL    HW182383   5.289   4.120   7.196  0.2289  2.6055  1.0642
26007SOL    HW282384   5.273   4.012   7.301  2.6169  0.7540 -0.3732
26008SOL     OW82385   8.832   6.874  10.238  0.1363  0.1565 -0.0358
26008SOL    HW182386   8.798   6.922  10.314 -0.4183 -0.5455  0.1706
26008SOL    HW282387   8.897   6.933  10.200  0.8607  0.2873  1.3294
26009SOL     OW82388   9.266   9.562   5.749  0.0830 -0.1115 -0.5881
26009SOL    HW182389   9.252   9.487   5.690 -1.0030  0.4363 -1.0467
26009SOL    HW282390   9.326   9.528   5.816  0.2053 -1.1707 -1.2052
26010SOL     OW82391   0.846   6.980   8.893  0.7179 -0.8571 -0.7696
26010SOL    HW182392   0.819   6.985   8.801  2.1623  2.5985 -1.1281
26010SOL    HW282393   0.938   7.005   8.893  1.2368 -2.4039  1.5200
26011SOL     OW82394   9.690   9.485   1.647  0.7729  0.2062 -0.1367
26011SOL    HW182395   9.764   9.501   1.706  0.1476 -0.0884  0.7541
26011SOL    HW282396   9.730   9.449   1.568  1.9736  3.5628 -1.2226
26012SOL     OW82397   8.923   7.335   2.314 -0.5876  0.4997 -0.2134
26012SOL    HW182398   8.894   7.285   2.391 -1.1927 -0.1809 -0.8727
26012SOL    HW282399   8.999   7.384   2.345 -1.0457  0.5279  0.9283
26013SOL     OW82400   0.355  10.316   1.099  0.5450 -0.3112 -0.2505
26013SOL    HW182401   0.276  10.267   1.122  0.2833 -0.0551 -0.6149
26013SOL    HW282402   0.365  10.380   1.169  1.0659 -1.0770  0.4040
26014SOL     OW82403   0.486   4.517   6.509 -0.5774 -0.0203  0.0798
26014SOL    HW182404   0.462   4.455   6.578  0.8772  0.0397  0.6760
26014SOL    HW282405   0.449   4.600   6.538 -0.9140 -0.2231  0.2348
26015SOL     OW82406   5.535   8.262   6.671  0.4450  0.6978  0.2981
26015SOL    HW182407   5.448   8.234   6.642  0.5265  1.8606 -1.1912
26015SOL    HW282408   5.596   8.211   6.619  0.5910  2.5135 -1.4692
26016SOL     OW82409   2.367   7.903   4.530 -0.2281 -0.2561  0.1736
26016SOL    HW182410   2.417   7.855   4.464  0.8817  1.2231 -0.1077
26016SOL    HW282411   2.381   7.995   4.509 -2.4145  0.2286  0.6090
26017SOL     OW82412   2.429  10.194   7.362  0.0456  1.0350  0.4645
26017SOL    HW182413   2.476  10.248   7.299  1.4524 -0.9657 -0.2840
26017SOL    HW282414   2.386  10.127   7.309  0.0102  0.2038  1.5141
26018SOL     OW82415   1.831   4.994   2.492  0.6641  0.2397  0.5725
26018SOL    HW182416   1.860   5.077   2.453  1.7627 -0.0396  0.7674
26018SOL    HW282417   1.826   5.013   2.586 -2.0711  0.9412  0.3848
26019SOL     OW82418   9.921   5.992   5.098  0.1308 -0.5670 -0.1234
26019SOL    HW182419   9.936   5.951   5.183 -0.0564  3.0977  1.8832
26019SOL    HW282420  10.008   5.992   5.056  0.5658 -0.9990  0.7555
26020SOL     OW82421  10.147  10.322   9.550 -0.4082  0.1755 -0.6239
26020SOL    HW182422  10.157  10.405   9.504  0.7543  1.6533  2.0155
26020SOL    HW282423  10.058  10.293   9.531 -1.2254  2.6066 -0.7855
26021SOL     OW82424   9.204   1.931  11.001 -0.4483 -0.1471 -0.5133
26021SOL    HW182425   9.196   1.850  10.950  2.0652 -1.0299  0.3742
26021SOL    HW282426   9.289   1.967  10.976 -0.6556  1.1792  0.5993
26022SOL     OW82427   3.545   1.947   5.686 -0.1473 -0.0882  0.0862
26022SOL    HW182428   3.640   1.953   5.696 -0.2631  0.5377  0.9978
26022SOL    HW282429   3.531   1.929   5.593  0.8627 -0.2478 -0.0444
26023SOL     OW82430   5.749   5.503   8.437  0.5151 -0.2664 -0.6262
26023SOL    HW182431   5.826   5.528   8.487  0.4931  1.2468 -1.2904
26023SOL    HW282432   5.752   5.407   8.433  3.0536 -0.2209 -1.6785
26024SOL     OW82433   9.065  10.946   1.352 -0.0169 -0.4369  0.4697
26024SOL    HW182434   8.990  10.968   1.297 -0.4567 -1.7989  0.5031
26024SOL    HW282435   9.126  11.019   1.338 -1.5767  1.0468  0.9540
26025SOL     OW82436   7.909   6.840   5.510 -0.4758 -0.3965  0.1530
26025SOL    HW182437   7.998   6.816   5.536 -0.9330  0.2977  2.6815
26025SOL    HW282438   7.869   6.758   5.481  0.2708 -1.2021  1.3236
26026SOL     OW82439   4.071   9.010   7.301 -0.2054 -0.3943 -0.0397
26026SOL    HW182440   4.072   9.054   7.217  0.0279 -0.8230 -0.2679
26026SOL    HW282441   3.979   8.994   7.320 -0.2535 -0.3612 -0.2518
26027SOL     OW82442   4.686   2.236  10.547 -0.0429  0.3378 -1.0696
26027SOL    HW182443   4.768   2.234  10.597  0.4456  0.3025 -1.8582
26027SOL    HW282444   4.669   2.144  10.526  0.1856  0.4275 -1.6569
26028SOL     OW82445   6.746  10.819   8.175  0.3734  0.2974  0.0951
26028SOL    HW182446   6.813  10.756   8.202 -1.0736 -0.5948  1.8023
26028SOL    HW282447   6.705  10.779   8.098  0.3852 -0.1700  0.3303
26029SOL     OW82448   1.970   6.907   9.775  0.5623 -0.4772  0.0911
26029SOL    HW182449   1.907   6.860   9.721  0.2240  0.7046 -0.5725
26029SOL    HW282450   2.055   6.870   9.751  0.2002 -1.5930  0.4859
26030SOL     OW82451   0.835   0.396   8.035  0.7681  0.1108 -0.2000
26030SOL    HW182452   0.752   0.349   8.041  1.3836 -0.8066  2.4428
26030SOL    HW282453   0.820   0.462   7.967 -0.6132 -2.8489 -3.0757
26031SOL     OW82454   6.743   7.807   7.720  0.1851  0.4958  0.2192
26031SOL    HW182455   6.698   7.891   7.733 -0.2182  0.4339 -0.6641
26031SOL    HW282456   6.676   7.741   7.739 -0.3771  0.4031 -1.7883
26032SOL     OW82457   5.464   2.246  10.002 -0.0321  0.0032 -0.1786
26032SOL    HW182458   5.515   2.255  10.082 -1.4296  0.9588  0.6486
26032SOL    HW282459   5.465   2.333   9.962 -0.5975 -0.0808 -0.3979
26033SOL     OW82460   8.076   5.927   7.274 -0.1368 -0.5336  0.2710
26033SOL    HW182461   8.149   5.962   7.325  0.0050 -0.4649  0.0200
26033SOL    HW282462   8.057   5.842   7.315 -0.3886 -0.2327  0.7875
26034SOL     OW82463   8.558   4.880   4.747 -0.2136 -0.3686 -0.6568
26034SOL    HW182464   8.597   4.949   4.801  0.1636  0.0407 -1.4292
26034SOL    HW282465   8.624   4.811   4.746  0.5276  0.3148 -1.9449
26035SOL     OW82466   9.561   5.519   8.129  0.0549  0.2777  0.3463
26035SOL    HW182467   9.593   5.604   8.099 -0.1221  0.6313  1.1325
26035SOL    HW282468   9.567   5.523   8.224 -0.0352 -0.5628  0.3940
26036SOL     OW82469   8.974   1.971   0.503 -0.4975 -0.1229 -0.3924
26036SOL    HW182470   9.052   2.006   0.461 -0.1219 -0.6933 -0.1750
26036SOL    HW282471   8.911   2.044   0.500  0.1123  0.4171 -0.3570
26037SOL     OW82472   7.958   7.904   3.978 -0.6610 -0.4277 -0.2640
26037SOL    HW182473   7.992   7.967   3.914  0.5694 -2.3800 -1.6388
26037SOL    HW282474   8.032   7.886   4.036 -1.1511 -0.2685  0.4240
26038SOL     OW82475   2.704   7.788   7.008  0.4395 -0.1963 -0.3951
26038SOL    HW182476   2.613   7.771   7.032 -0.7944  1.1735 -3.4917
26038SOL    HW282477   2.721   7.877   7.039  0.9217 -0.6360  0.6255
26039SOL     OW82478   4.275  10.714   7.541  0.9290  0.3181 -0.0406
26039SOL    HW182479   4.301  10.621   7.541 -0.1685 -0.0005  0.7189
26039SOL    HW282480   4.217  10.722   7.465  3.8744  1.2733 -2.4035
26040SOL     OW82481  10.735   5.280   0.097  0.0125 -0.0853 -0.2193
26040SOL    HW182482  10.682   5.358   0.078  1.1720  0.1190 -3.0492
26040SOL    HW282483  10.823   5.313   0.110  0.2951 -0.8141 -0.2444
26041SOL     OW82484   4.871   6.040   3.186 -0.2524  0.0271 -0.3890
26041SOL    HW182485   4.910   6.037   3.273  0.8372  2.1484 -0.7500
26041SOL    HW282486   4.934   5.996   3.129 -0.6524 -0.7502 -0.2590
26042SOL     OW82487   3.133   2.616   4.116 -0.3339  0.3927  0.3152
26042SOL    HW182488   3.211   2.571   4.148 -0.7870 -0.5550  0.1215
26042SOL    HW282489   3.062   2.582   4.172 -0.9919 -0.6137 -1.0734
26043SOL     OW82490   5.869   3.988  10.282 -0.2277  0.4374 -0.0423
26043SOL    HW182491   5.946   3.966  10.230  0.2277  0.5469  0.5710
26043SOL    HW282492   5.795   3.977  10.222  0.2378  0.0321 -0.5476
26044SOL     OW82493   4.529  11.026  10.447  0.3904 -0.1750 -0.2031
26044SOL    HW182494   4.558  11.101  10.499 -0.9607  1.4403 -1.6207
26044SOL    HW282495   4.504  10.960  10.511 -0.5941  1.4798  1.2191
26045SOL     OW82496   6.922   6.140   1.803 -0.4707  0.1607 -0.3100
26045SOL    HW182497   6.851   6.157   1.865 -0.2980  1.0188 -0.3425
26045SOL    HW282498   6.936   6.224   1.759 -0.3541 -0.3431 -1.2649
26046SOL     OW82499   0.690   6.743   9.500 -0.0432 -0.1005  0.1903
26046SOL    HW182500   0.722   6.784   9.581  1.9435 -0.7923 -0.1755
26046SOL    HW282501   0.729   6.795   9.430  0.5851 -1.1773 -0.2868
26047SOL     OW82502   5.684   1.764   5.860 -0.2357  0.5095 -0.2235
26047SOL    HW182503   5.591   1.753   5.839 -0.1719  0.9199 -0.7549
26047SOL    HW282504   5.729   1.749   5.776  0.1304  0.8953 -0.1005
26048SOL     OW82505   1.838   6.037   0.323  0.1452  0.2849 -0.0198
26048SOL    HW182506   1.837   6.022   0.228  1.7419  1.1756 -0.2148
26048SOL    HW282507   1.768   6.101   0.337  0.6128  0.9897 -0.7799
26049SOL     OW82508  10.906   1.258   7.644  0.0942  0.1805 -0.5304
26049SOL    HW182509  10.928   1.181   7.591 -2.8116 -2.0138  1.1319
26049SOL    HW282510  10.832   1.298   7.599 -0.6180 -0.0895  0.3621
26050SOL     OW82511   8.415   6.255   5.341 -0.4096  0.2278  0.5320
26050SOL    HW182512   8.474   6.222   5.274 -0.0037  0.5153  0.7499
26050SOL    HW282513   8.420   6.190   5.412 -0.0884  0.4337  0.6975
26051SOL     OW82514   4.933  10.199   1.235  0.5847 -0.4925 -0.0442
26051SOL    HW182515   4.954  10.122   1.181 -0.5267  0.0005 -1.2194
26051SOL    HW282516   5.016  10.247   1.240  0.8999 -0.9460 -0.6713
26052SOL     OW82517   6.161   8.240   6.328  0.4459 -0.7413 -0.1181
26052SOL    HW182518   6.186   8.310   6.267  0.1532 -0.3389  0.2199
26052SOL    HW282519   6.094   8.191   6.281  0.4370 -0.6153 -0.2398
26053SOL     OW82520   2.429  10.033  10.948  0.0825 -0.0672  0.0645
26053SOL    HW182521   2.403   9.990  10.867 -0.9970 -0.4513  0.5846
26053SOL    HW282522   2.352  10.083  10.975  0.5461  0.3502  0.6643
26054SOL     OW82523   3.529   5.280  10.096  0.4856 -0.0746  0.6598
26054SOL    HW182524   3.516   5.202  10.042 -1.4906  0.9778 -0.5053
26054SOL    HW282525   3.527   5.247  10.186 -0.0053 -1.4196  0.1836
26055SOL     OW82526   1.380   5.712   8.533  0.6033  0.2777 -0.4361
26055SOL    HW182527   1.443   5.753   8.593  0.5337 -0.8314  0.4282
26055SOL    HW282528   1.328   5.655   8.589  2.5911 -3.3242 -1.8945
26056SOL     OW82529   5.728   2.976   2.805  0.1352  0.4687  0.0716
26056SOL    HW182530   5.772   3.061   2.815  0.1689  0.4191  0.3719
26056SOL    HW282531   5.664   2.974   2.877  1.0673 -0.3299  0.9062
26057SOL     OW82532   2.647   4.250   5.564  0.7863  0.1069  0.4725
26057SOL    HW182533   2.575   4.217   5.619 -0.3564 -1.0491 -1.5868
26057SOL    HW282534   2.617   4.336   5.535  0.2221 -0.3422 -0.3230
26058SOL     OW82535   5.042   4.635   8.893 -0.7033  1.3217  0.5586
26058SOL    HW182536   5.022   4.710   8.837 -2.1910 -0.7359 -1.8749
26058SOL    HW282537   4.959   4.588   8.902  0.1301  0.0281  2.1590
26059SOL     OW82538   5.969   8.158  10.962 -0.1662 -0.0627 -0.3072
26059SOL    HW182539   5.930   8.086  10.913  1.4278 -1.3931  0.2776
26059SOL    HW282540   5.916   8.234  10.940 -1.7279 -1.3534 -1.1779
26060SOL     OW82541   9.330  10.106   0.643  0.1814 -0.5497  0.2211
26060SOL    HW182542   9.381  10.122   0.722 -0.2306  1.0529  0.1885
26060SOL    HW282543   9.384  10.046   0.591  1.5464  0.2832  0.6444
26061SOL     OW82544   1.477   8.484   2.403 -0.2133  0.3217  0.4702
26061SOL    HW182545   1.539   8.531   2.460 -1.8410 -0.1608  2.7568
26061SOL    HW282546   1.425   8.554   2.362 -1.2157  0.6640  2.2151
26062SOL     OW82547   0.718   0.640   7.923  0.1178 -0.6656 -0.8672
26062SOL    HW182548   0.668   0.649   8.004  1.7578  2.9333 -0.0534
26062SOL    HW282549   0.654   0.656   7.853 -0.3549  1.9288  0.0509
26063SOL     OW82550   7.000   9.582   3.747  0.6587 -0.3941  0.4222
26063SOL    HW182551   7.031   9.614   3.832 -0.7164 -0.0861  0.8281
26063SOL    HW282552   7.027   9.649   3.685  0.4864  0.0383  0.8107
26064SOL     OW82553   3.192   0.887   8.795  0.2550 -0.3075 -0.3022
26064SOL    HW182554   3.173   0.866   8.703  1.3321 -0.5120 -0.4911
26064SOL    HW282555   3.262   0.952   8.790 -1.2149  1.3952  0.3431
26065SOL     OW82556   9.726   3.643   9.589  0.1828  0.1953 -0.1544
26065SOL    HW182557   9.672   3.619   9.664  0.0732  0.3880 -0.1702
26065SOL    HW282558   9.743   3.737   9.600 -0.1445  0.3072 -0.5605
26066SOL     OW82559   3.777   7.350   7.391 -0.0671  0.0577 -0.0816
26066SOL    HW182560   3.711   7.281   7.399 -0.0394 -0.0005 -0.3518
26066SOL    HW282561   3.858   7.308   7.417  0.4919 -0.8605 -2.9464
26067SOL     OW82562   2.352   1.776  10.886 -0.3529  0.1253  0.0528
26067SOL    HW182563   2.278   1.783  10.826 -1.0466  1.2258  0.9836
26067SOL    HW282564   2.313   1.744  10.968  0.6483 -1.8252 -0.1705
26068SOL     OW82565   1.346   4.980   9.128  0.2211 -0.5595  0.3844
26068SOL    HW182566   1.324   4.913   9.063 -1.0090  1.0843 -0.9872
26068SOL    HW282567   1.436   4.959   9.154  0.5690 -1.6253 -1.4477
26069SOL     OW82568   3.554   3.738   2.206  0.7962  0.3256  0.3480
26069SOL    HW182569   3.591   3.654   2.180  0.9865 -0.9032  3.9465
26069SOL    HW282570   3.631   3.793   2.225  0.8038 -0.1764  1.9664
26070SOL     OW82571   0.648   1.416   3.676  0.2063  0.4073 -0.4392
26070SOL    HW182572   0.692   1.496   3.704  0.6869  0.0144 -0.0733
26070SOL    HW282573   0.706   1.378   3.610  1.0157 -0.7111  0.8595
26071SOL     OW82574   4.061   7.322   9.683  0.0381 -0.3021  0.4898
26071SOL    HW182575   4.058   7.245   9.627 -1.0117 -0.8193  1.2390
26071SOL    HW282576   4.031   7.394   9.627 -2.1703 -1.0163  0.6746
26072SOL     OW82577  10.700   8.571   4.390 -0.0610  0.3077  0.0576
26072SOL    HW182578  10.706   8.648   4.333 -1.2843  0.8691  0.6482
26072SOL    HW282579  10.681   8.606   4.477 -2.0000 -0.6833  0.0923
26073SOL     OW82580   7.401   1.496   2.160 -0.0232 -0.1974 -0.1413
26073SOL    HW182581   7.361   1.569   2.208 -0.4025 -1.6967  2.0021
26073SOL    HW282582   7.336   1.426   2.166  0.1051 -0.5958 -2.6111
26074SOL     OW82583   8.690   8.204   3.770 -0.0763 -0.3848 -0.5675
26074SOL    HW182584   8.765   8.145   3.772  0.0023 -0.3302  2.1132
26074SOL    HW282585   8.645   8.189   3.853 -1.0325  2.0939 -0.5354
26075SOL     OW82586   6.295   6.263   8.886  0.5000 -0.4875 -0.0661
26075SOL    HW182587   6.300   6.201   8.813 -0.5120  0.0298 -0.5859
26075SOL    HW282588   6.385   6.295   8.896  0.5632 -0.1748 -1.4338
26076SOL     OW82589   6.810   4.635   1.439 -0.1717  0.2333 -0.1237
26076SOL    HW182590   6.768   4.578   1.375 -1.6833  0.4025  0.6644
26076SOL    HW282591   6.743   4.648   1.507  1.6307 -0.6379  1.9407
26077SOL     OW82592   7.805   2.029   6.118  1.1195  0.7613 -0.6780
26077SOL    HW182593   7.870   1.989   6.175  1.0781 -0.6159 -1.5500
26077SOL    HW282594   7.739   1.960   6.106 -0.4148  2.0407  0.0135
26078SOL     OW82595   5.134   6.067   5.519  1.0795 -0.2598  0.2388
26078SOL    HW182596   5.186   6.147   5.529  0.2483  0.2197  0.8293
26078SOL    HW282597   5.094   6.052   5.605 -0.8081  0.1457 -0.5020
26079SOL     OW82598   4.210   2.688   2.110  0.0440  0.2698  0.3440
26079SOL    HW182599   4.188   2.671   2.018  0.1055  1.6018  0.0530
26079SOL    HW282600   4.160   2.624   2.159  0.2006 -0.6295 -0.6321
26080SOL     OW82601   0.750   4.961   4.450  0.5083 -0.2447 -0.5811
26080SOL    HW182602   0.811   5.012   4.503  0.6335 -0.6486 -0.3296
26080SOL    HW282603   0.692   4.919   4.513 -0.4771  0.6746 -0.8488
26081SOL     OW82604   7.453   7.392  10.427 -0.2115  0.2382 -0.5819
26081SOL    HW182605   7.366   7.376  10.391 -0.4839 -0.8444  0.4935
26081SOL    HW282606   7.488   7.463  10.373 -2.4837  2.0285  0.0995
26082SOL     OW82607   0.036   4.123   2.119  0.0182 -0.2450 -0.6098
26082SOL    HW182608  -0.019   4.049   2.144 -0.7397  0.0959 -1.2026
26082SOL    HW282609   0.025   4.186   2.190 -1.4958  0.3904 -1.3540
26083SOL     OW82610   9.659  10.020   6.729  0.5111 -0.3001 -0.6172
26083SOL    HW182611   9.677  10.111   6.753 -0.7318 -0.3350  0.6243
26083SOL    HW282612   9.679   9.971   6.809 -1.0400 -0.7989 -0.4990
26084SOL     OW82613   0.957   0.751   4.533  0.6657  0.1263 -0.2169
26084SOL    HW182614   1.036   0.801   4.513  0.4583  0.6662  0.2962
26084SOL    HW282615   0.989   0.670   4.574  0.9294  0.5920  0.5058
26085SOL     OW82616   4.113   3.198   3.797 -0.1494  0.2403 -0.1678
26085SOL    HW182617   4.165   3.274   3.824  0.5256  0.7142 -2.5449
26085SOL    HW282618   4.176   3.126   3.793 -0.1633  0.2467 -0.6544
26086SOL     OW82619   2.322   4.428   0.569  0.0828  1.0824 -0.1289
26086SOL    HW182620   2.284   4.470   0.646 -1.8548  0.7809 -0.8546
26086SOL    HW282621   2.370   4.498   0.524  0.8852  1.3517  1.1071
26087SOL     OW82622   8.921   8.670   0.877 -0.1208 -0.0134 -0.0384
26087SOL    HW182623   8.974   8.748   0.856  2.3432 -1.8192 -0.9464
26087SOL    HW282624   8.832   8.694   0.850  0.5061  2.5177 -0.1385
26088SOL     OW82625  11.048   5.096   2.905 -0.4077 -0.0339  0.2545
26088SOL    HW182626  11.098   5.153   2.846  0.6334 -1.2237 -0.0637
26088SOL    HW282627  10.984   5.054   2.848 -0.7027  0.2673  0.3579
26089SOL     OW82628   5.689   7.877   4.409  0.2673  0.1364  0.2496
26089SOL    HW182629   5.691   7.968   4.379  1.2033  0.1769  0.4026
26089SOL    HW282630   5.708   7.825   4.330 -1.9833 -0.0643 -0.2333
26090SOL     OW82631   5.046   6.958  10.481 -0.3703  0.4662 -0.6081
26090SOL    HW182632   5.055   7.053  10.476 -0.3436  0.4260 -1.5857
26090SOL    HW282633   5.118   6.924  10.427 -0.0128 -0.1300  0.2195
26091SOL     OW82634   5.260   4.075   0.716  0.4172  0.0079 -0.5090
26091SOL    HW182635   5.315   4.106   0.787 -0.6008  1.8977 -0.4924
26091SOL    HW282636   5.182   4.042   0.758 -0.3884  1.5579 -0.7227
26092SOL     OW82637   0.615  10.708   5.287 -0.0398 -0.5012 -0.5510
26092SOL    HW182638   0.610  10.649   5.362 -0.4717 -0.0602 -0.2273
26092SOL    HW282639   0.649  10.790   5.324 -0.8664 -0.0789 -0.7096
26093SOL     OW82640   9.768   1.677   4.265 -0.1436 -0.3435 -0.1822
26093SOL    HW182641   9.858   1.701   4.286  0.0983 -1.6271  0.3619
26093SOL    HW282642   9.744   1.736   4.193  1.3162 -0.3185 -0.6966
26094SOL     OW82643   8.845   6.256   3.848 -0.0109 -0.5418  0.0915
26094SOL    HW182644   8.798   6.175   3.825  0.3397 -0.4918 -0.8321
26094SOL    HW282645   8.917   6.227   3.904 -0.3764 -0.7651  0.4542
26095SOL     OW82646  10.442   9.344  10.243 -0.4057  0.1915 -0.3231
26095SOL    HW182647  10.366   9.374  10.293 -0.3380  2.6603 -1.5885
26095SOL    HW282648  10.443   9.398  10.164  1.8027 -0.8237 -1.0832
26096SOL     OW82649   9.159   2.626   2.061 -0.2030  0.9095  0.6553
26096SOL    HW182650   9.105   2.623   2.140 -0.9731 -1.3105  0.1332
26096SOL    HW282651   9.182   2.534   2.044  1.2426  1.4905 -0.8360
26097SOL     OW82652   0.915   1.206   6.044  0.0502  0.0278  0.4033
26097SOL    HW182653   0.827   1.217   6.081  0.0496  1.4897  0.0222
26097SOL    HW282654   0.932   1.288   5.998  1.1403 -0.7000 -0.5518
26098SOL     OW82655   5.407  10.196   7.911 -0.1879  0.8414  0.2479
26098SOL    HW182656   5.387  10.276   7.863  0.5380  1.0566  0.2885
26098SOL    HW282657   5.463  10.146   7.852  1.1450  1.3423  1.0316
26099SOL     OW82658   1.393   3.503   9.599  0.2726  0.2511  0.5975
26099SOL    HW182659   1.479   3.481   9.562  0.0189  0.5762 -0.2182
26099SOL    HW282660   1.334   3.438   9.561  0.0834  0.3032  0.8008
26100SOL     OW82661   9.654   5.355   7.170  0.2175 -0.6319 -0.0381
26100SOL    HW182662   9.613   5.337   7.254  0.2646  0.9432  0.3432
26100SOL    HW282663   9.583   5.348   7.106  0.1089 -1.4590  0.1547
26101SOL     OW82664   5.199   3.724   8.601  0.5811 -0.2209 -0.3967
26101SOL    HW182665   5.213   3.636   8.566 -2.3249 -0.1048 -2.1492
26101SOL    HW282666   5.159   3.709   8.687  0.6086 -0.6276 -0.4527
26102SOL     OW82667   8.092   8.063   3.789 -0.3428  0.7651 -0.0579
26102SOL    HW182668   8.160   8.059   3.721 -0.2610 -0.5311  0.0630
26102SOL    HW282669   8.070   8.156   3.796 -0.3537  0.9302 -1.8546
26103SOL     OW82670   2.752   0.535   4.204  0.0270 -0.3603 -0.1722
26103SOL    HW182671   2.667   0.555   4.245 -0.4962 -0.5207 -1.1368
26103SOL    HW282672   2.762   0.441   4.215  1.2131 -0.0440  1.9916
26104SOL     OW82673   9.442   9.138   5.986 -0.6247 -0.0727 -0.2678
26104SOL    HW182674   9.402   9.183   5.911 -0.7987 -0.4892 -0.4300
26104SOL    HW282675   9.433   9.045   5.965  0.4436 -0.1698 -0.3074
26105SOL     OW82676   6.796   5.769   4.357 -0.1072  0.1999 -0.4940
26105SOL    HW182677   6.830   5.727   4.279 -1.6270  0.3194 -1.2489
26105SOL    HW282678   6.868   5.823   4.389  0.9269 -0.7946 -1.1079
26106SOL     OW82679   8.877  10.915   8.441  0.0738 -0.8870 -0.2221
26106SOL    HW182680   8.813  10.888   8.375 -1.5360  0.7589  0.5559
26106SOL    HW282681   8.921  10.834   8.467  1.2113 -1.5051 -3.6740
26107SOL     OW82682   0.678   9.823   6.977  0.1778  0.3329  0.1603
26107SOL    HW182683   0.694   9.729   6.974  0.5080  0.3287  1.4462
26107SOL    HW282684   0.756   9.862   6.937 -0.5858  0.0518 -1.7223
26108SOL     OW82685   8.808   4.656   7.434  0.0272  0.3915 -0.0736
26108SOL    HW182686   8.898   4.674   7.410  0.0384  1.7799  0.8869
26108SOL    HW282687   8.766   4.743   7.437 -1.0819 -0.1425  0.4352
26109SOL     OW82688   2.649   9.799   5.715 -0.6361  0.1236  0.1667
26109SOL    HW182689   2.713   9.870   5.704 -0.8088  0.3469  0.5833
26109SOL    HW282690   2.673   9.757   5.798 -1.0672  0.2515  0.3571
26110SOL     OW82691  10.366   4.148   1.120  0.3589  0.1595  0.4784
26110SOL    HW182692  10.434   4.208   1.089  1.1918 -0.5716  0.8459
26110SOL    HW282693  10.358   4.166   1.213 -1.1508  1.3811  0.1573
26111SOL     OW82694   4.219   8.866   2.243 -0.3849 -0.5778  0.2805
26111SOL    HW182695   4.259   8.946   2.278 -1.1786 -0.2280  0.4338
26111SOL    HW282696   4.223   8.877   2.148  0.8753 -1.0647  0.2720
26112SOL     OW82697   7.234   7.150   5.155  0.3091 -0.2065  0.1142
26112SOL    HW182698   7.205   7.059   5.157 -0.5757  0.0660  0.0762
26112SOL    HW282699   7.154   7.201   5.167  0.5178  0.6118 -1.6262
26113SOL     OW82700  10.011  10.500   6.172  0.5069  0.6855 -0.1628
26113SOL    HW182701  10.034  10.444   6.097  0.2765 -0.4401  0.5776
26113SOL    HW282702  10.024  10.589   6.140 -1.6148  0.3470 -2.2463
26114SOL     OW82703   5.621   3.727   7.676  0.1388  0.0045  0.2250
26114SOL    HW182704   5.538   3.681   7.667 -0.2287  0.7659 -0.3950
26114SOL    HW282705   5.684   3.659   7.701 -0.4358 -0.7848 -0.4320
26115SOL     OW82706   3.527  10.728   1.727  0.1121 -0.2260 -0.1411
26115SOL    HW182707   3.447  10.694   1.766  0.3885 -0.0190  0.6317
26115SOL    HW282708   3.560  10.656   1.673 -0.2133 -0.5662  0.1093
26116SOL     OW82709   7.868   8.162   8.114 -0.2524 -0.2054 -0.1322
26116SOL    HW182710   7.864   8.151   8.209  0.1845 -1.0146 -0.2005
26116SOL    HW282711   7.842   8.253   8.100 -1.4067 -0.3844  0.6735
26117SOL     OW82712   7.857   6.888   7.531  0.0068 -0.0673 -0.4452
26117SOL    HW182713   7.785   6.851   7.583 -0.4608 -1.0721 -1.7514
26117SOL    HW282714   7.825   6.885   7.441  1.7478 -0.6931 -1.0767
26118SOL     OW82715   0.372   8.034  10.449 -0.0172 -0.2925 -0.6239
26118SOL    HW182716   0.450   8.075  10.412 -0.2109 -0.3667 -1.1198
26118SOL    HW282717   0.404   7.984  10.524  0.0651  1.8046  0.8238
26119SOL     OW82718   2.919   4.578   1.128 -0.4319 -0.1108  0.5792
26119SOL    HW182719   2.844   4.618   1.173 -1.7883 -0.1397 -1.5317
26119SOL    HW282720   2.922   4.622   1.043  2.3643  0.3139  0.8038
26120SOL     OW82721   5.500   0.791   6.410 -0.3594  0.0831  0.0928
26120SOL    HW182722   5.538   0.706   6.430  2.2779  0.5794 -2.2221
26120SOL    HW282723   5.565   0.854   6.442 -0.4266  1.0758 -1.6232
26121SOL     OW82724   7.997   9.521   7.205 -0.3226  0.5669 -0.3311
26121SOL    HW182725   7.978   9.599   7.153  1.8271  0.5786 -1.2139
26121SOL    HW282726   8.019   9.453   7.141 -2.9905 -1.0987  0.3681
26122SOL     OW82727   5.029   5.984   9.041 -0.1742 -0.1084 -0.0873
26122SOL    HW182728   5.048   5.921   8.972  2.2940  0.8952 -0.4237
26122SOL    HW282729   5.096   5.967   9.108  0.3710  1.8952 -0.0590
26123SOL     OW82730   3.211   8.525   1.738 -0.6656 -0.0282 -0.1870
26123SOL    HW182731   3.136   8.542   1.794 -0.6269  0.1911 -0.1984
26123SOL    HW282732   3.180   8.541   1.650 -1.2277 -2.1010 -0.4115
26124SOL     OW82733   1.862   7.687   1.571 -0.5800  0.3772 -0.2007
26124SOL    HW182734   1.767   7.689   1.580 -0.4303  1.1834  1.7569
26124SOL    HW282735   1.892   7.765   1.618  0.9635  1.2593 -2.4972
26125SOL     OW82736   0.168   7.529   5.944 -0.9925 -0.1211  0.4014
26125SOL    HW182737   0.215   7.519   6.027 -0.4976  1.3546  0.3322
26125SOL    HW282738   0.237   7.548   5.880 -1.5018  0.2244 -0.0544
26126SOL     OW82739   9.332   9.761   2.289  0.4889  0.0061 -0.3789
26126SOL    HW182740   9.251   9.756   2.340  0.9970 -0.4084  0.4243
26126SOL    HW282741   9.330   9.847   2.248 -0.7632 -0.3309 -1.0822
26127SOL     OW82742  10.053   8.826   3.171 -0.0731  0.7689  0.0469
26127SOL    HW182743  10.088   8.871   3.247 -2.6336  0.1148  1.7576
26127SOL    HW282744   9.990   8.888   3.133 -2.6442 -0.6474  1.6533
26128SOL     OW82745   1.440  10.876   1.352 -0.1712  0.1792 -0.0747
26128SOL    HW182746   1.400  10.897   1.436 -1.7661  0.2083 -0.8054
26128SOL    HW282747   1.525  10.921   1.354  0.1853 -0.4659  1.8050
26129SOL     OW82748   2.726   9.224   6.469  0.4418  0.1804  0.2041
26129SOL    HW182749   2.770   9.249   6.551 -1.4521 -1.1734  1.7333
26129SOL    HW282750   2.685   9.305   6.438 -0.4789  0.3341  1.7144
26130SOL     OW82751   5.661   8.330   9.012 -0.0109 -0.2947 -0.0306
26130SOL    HW182752   5.678   8.418   9.045 -2.4753  0.8792 -1.5905
26130SOL    HW282753   5.565   8.323   9.011  0.1072 -2.5714 -1.0046
26131SOL     OW82754   7.244   0.780   6.055 -0.1431  0.1786 -0.1548
26131SOL    HW182755   7.288   0.697   6.038  0.1037  0.8377 -3.4360
26131SOL    HW282756   7.153   0.765   6.028 -0.2648  0.7718 -0.0930
26132SOL     OW82757   7.630  10.179  10.155  0.1276 -0.0318 -0.1152
26132SOL    HW182758   7.534  10.183  10.153  0.1023  0.2648  1.0095
26132SOL    HW282759   7.655  10.151  10.067 -0.9195  1.5217 -0.9668
26133SOL     OW82760   7.789   7.389   3.268  0.1339 -0.4501  0.2985
26133SOL    HW182761   7.721   7.439   3.222 -1.3801 -1.6401  1.1542
26133SOL    HW282762   7.797   7.308   3.217  0.3053 -0.6763  0.6856
26134SOL     OW82763   8.730   8.592   6.475 -0.7184 -0.0638  0.4815
26134SOL    HW182764   8.670   8.518   6.479 -0.2862 -0.4193  0.4664
26134SOL    HW282765   8.688   8.661   6.527 -1.2689 -0.2101  0.2293
26135SOL     OW82766   3.100   6.726   2.527  0.6377  0.1079 -0.1846
26135SOL    HW182767   3.073   6.662   2.593  0.0803 -1.0338 -1.4641
26135SOL    HW282768   3.115   6.807   2.576  2.3288 -1.2189  1.6643
26136SOL     OW82769   2.830   8.854   1.453  0.1214 -0.1113  0.0597
26136SOL    HW182770   2.820   8.946   1.429 -0.8632  0.0022  0.8527
26136SOL    HW282771   2.786   8.806   1.382  0.1764  0.0465 -0.0812
26137SOL     OW82772   3.923   6.942   8.513 -0.1422  0.4131 -0.0807
26137SOL    HW182773   3.904   6.859   8.557 -2.9676  1.0540  0.0805
26137SOL    HW282774   3.847   6.998   8.532  0.9589  2.5290 -1.4505
26138SOL     OW82775   2.328   3.863   5.207 -0.6648  0.1394 -0.2144
26138SOL    HW182776   2.283   3.827   5.283  0.3286 -0.1092  0.2630
26138SOL    HW282777   2.279   3.829   5.132 -1.1309 -0.3109  0.2892
26139SOL     OW82778   9.647   2.698   3.439  0.0833  0.0999 -0.0671
26139SOL    HW182779   9.710   2.732   3.376  0.0272 -1.6466 -1.1301
26139SOL    HW282780   9.566   2.744   3.419  0.7055  1.5002  0.5306
26140SOL     OW82781  10.317   6.010   0.039 -0.3470  0.4572 -0.5621
26140SOL    HW182782  10.245   5.984   0.096 -0.9607  3.1398  0.0305
26140SOL    HW282783  10.335   5.933  -0.014 -2.5217 -0.8231  0.4275
26141SOL     OW82784   3.432   0.699   8.800 -0.5862 -0.0927 -0.1317
26141SOL    HW182785   3.467   0.702   8.711 -1.0832 -3.4839 -0.5762
26141SOL    HW282786   3.352   0.751   8.797  0.3327  1.3074 -1.1588
26142SOL     OW82787   9.822  10.593   4.148  0.1732  0.1932 -0.3177
26142SOL    HW182788   9.734  10.630   4.142 -0.3328 -0.2383  2.7475
26142SOL    HW282789   9.878  10.659   4.109 -1.1921  2.0404  0.6897
26143SOL     OW82790   6.308   8.654   3.623 -0.4845 -0.2349 -0.5776
26143SOL    HW182791   6.318   8.744   3.595 -1.6481 -0.6188 -2.3933
26143SOL    HW282792   6.250   8.659   3.700  0.5196  0.6338  0.1473
26144SOL     OW82793   2.295   3.664   9.255  0.0748  0.2343  0.6150
26144SOL    HW182794   2.221   3.723   9.242 -0.7329 -1.0838 -1.1667
26144SOL    HW282795   2.363   3.698   9.196  0.1179  0.2192  0.6555
26145SOL     OW82796   3.373   8.968   2.927 -0.0650  0.0905  0.3410
26145SOL    HW182797   3.342   9.058   2.940  0.0259  0.4803 -1.7992
26145SOL    HW282798   3.320   8.935   2.855  1.4568 -0.7671 -0.4347
26146SOL     OW82799   5.598   5.049   8.426  0.3552 -0.1176 -0.5465
26146SOL    HW182800   5.518   5.030   8.474  0.5651 -0.1382 -0.2028
26146SOL    HW282801   5.569   5.071   8.338 -0.1063  0.8395 -0.1608
26147SOL     OW82802   2.600   3.713   5.446 -0.1781 -0.4949  0.0397
26147SOL    HW182803   2.584   3.803   5.472  0.0372 -0.5141  0.2463
26147SOL    HW282804   2.664   3.719   5.375 -1.2009 -0.4089 -0.8977
26148SOL     OW82805   4.137   9.458   2.385  0.1673 -0.4231  0.2883
26148SOL    HW182806   4.064   9.437   2.443  0.5864 -0.6560  0.7340
26148SOL    HW282807   4.113   9.542   2.346  0.1240 -0.0051  1.1937
26149SOL     OW82808   2.157   8.853   1.859  0.0771  0.1672 -0.4348
26149SOL    HW182809   2.179   8.899   1.777 -0.4782 -0.7977 -1.1522
26149SOL    HW282810   2.120   8.770   1.830 -0.8260  0.1175  0.8013
26150SOL     OW82811   6.499   3.514   4.854 -0.2764 -0.0266  0.0003
26150SOL    HW182812   6.473   3.451   4.788  0.5816 -1.3549  0.8875
26150SOL    HW282813   6.541   3.585   4.805 -1.6653  0.0997 -1.0481
26151SOL     OW82814   9.192  10.411  10.333 -0.1245 -0.0373  0.3594
26151SOL    HW182815   9.213  10.487  10.388  1.0734 -0.1877  0.1300
26151SOL    HW282816   9.242  10.340  10.371  0.9777 -0.0724 -1.1100
26152SOL     OW82817   5.947   2.207   5.456  0.5992  0.4868  0.2731
26152SOL    HW182818   5.970   2.222   5.548 -0.4628  1.6961  0.3675
26152SOL    HW282819   6.007   2.138   5.427 -0.4305 -1.4804  2.4703
26153SOL     OW82820   5.183  11.056   4.560  0.2350 -0.3295  0.2749
26153SOL    HW182821   5.096  11.018   4.547  0.0257  0.2045  0.1117
26153SOL    HW282822   5.241  11.000   4.507 -0.3958  0.9561 -1.8966
26154SOL     OW82823   4.835   2.832   7.739  0.3163 -0.1809  0.3587
26154SOL    HW182824   4.747   2.867   7.728  0.4795 -0.2886 -1.7897
26154SOL    HW282825   4.889   2.885   7.679  1.5503 -0.7024  0.9694
26155SOL     OW82826   9.866   6.637  10.247 -0.3296  0.3892 -0.2047
26155SOL    HW182827   9.952   6.673  10.226  0.0922 -0.1975  0.4763
26155SOL    HW282828   9.878   6.592  10.330 -1.1539 -0.2199 -0.3966
26156SOL     OW82829   5.456   2.142   6.694 -0.6972  0.3252 -0.0697
26156SOL    HW182830   5.378   2.163   6.744  0.7356 -1.9755  3.5178
26156SOL    HW282831   5.429   2.072   6.635 -0.9996 -2.5160  3.1303
26157SOL     OW82832   6.924   0.386   4.651  0.3497  0.4411  0.0198
26157SOL    HW182833   6.948   0.323   4.583 -1.3776  1.0198 -1.1978
26157SOL    HW282834   6.855   0.440   4.611 -1.7613 -0.0660  2.6808
26158SOL     OW82835   2.179   6.190   1.488  0.3838 -0.1479 -0.1337
26158SOL    HW182836   2.217   6.118   1.539 -0.1235 -1.2168 -1.2248
26158SOL    HW282837   2.247   6.211   1.423 -0.5521 -1.6807 -1.7195
26159SOL     OW82838   7.208   3.742   2.848  0.5412  0.3510 -0.2851
26159SOL    HW182839   7.151   3.721   2.774  0.6725  0.3261 -0.3794
26159SOL    HW282840   7.212   3.662   2.899  0.7979  0.2362 -0.4827
26160SOL     OW82841   1.696   4.226   7.852 -0.8183 -0.3796 -0.6095
26160SOL    HW182842   1.786   4.249   7.831 -0.9286  0.5204 -0.1577
26160SOL    HW282843   1.702   4.159   7.919 -0.4845 -1.4279 -1.6604
26161SOL     OW82844   2.074   8.686   6.200  0.1454 -0.0394  0.4283
26161SOL    HW182845   2.146   8.668   6.139  1.1351  0.9696  1.2654
26161SOL    HW282846   1.997   8.695   6.144  0.7202 -0.8129 -0.5142
26162SOL     OW82847   9.941   0.573   6.199  0.3289  0.6064  0.5368
26162SOL    HW182848   9.854   0.533   6.203 -0.2400  1.7019 -0.2205
26162SOL    HW282849   9.962   0.574   6.105  0.6143  1.4494  0.5997
26163SOL     OW82850   6.301   0.206   3.002  0.1930 -0.6130 -0.1229
26163SOL    HW182851   6.355   0.184   3.077 -0.1042  0.9743  0.5938
26163SOL    HW282852   6.261   0.290   3.024  0.9692  0.4903 -2.4974
26164SOL     OW82853   9.230   8.688   3.182  0.2251 -0.1528  0.3566
26164SOL    HW182854   9.197   8.612   3.231  0.8248 -1.3934 -1.0900
26164SOL    HW282855   9.305   8.655   3.134 -1.1858  0.5934 -2.5436
26165SOL     OW82856   0.812   6.622   0.130 -0.2657 -0.0535 -0.0798
26165SOL    HW182857   0.819   6.597   0.222 -0.0146 -1.6413 -0.4986
26165SOL    HW282858   0.893   6.590   0.091 -0.3225  0.7055 -0.8468
26166SOL     OW82859   1.577   0.432   0.625  0.4127 -0.3090 -0.0398
26166SOL    HW182860   1.530   0.496   0.678 -0.5334 -1.3376  0.3988
26166SOL    HW282861   1.557   0.457   0.535  1.0689  0.7345  0.0795
26167SOL     OW82862  10.958   6.293   7.025 -0.5212 -0.3337 -0.0346
26167SOL    HW182863  10.933   6.382   7.050  0.8900 -0.0747  0.5010
26167SOL    HW282864  10.878   6.242   7.040 -0.3332  0.1506  3.3068
26168SOL     OW82865  11.045   5.875   2.154 -0.5235  0.1507 -0.0934
26168SOL    HW182866  11.102   5.930   2.207  0.1219  0.0513 -0.6763
26168SOL    HW282867  11.105   5.818   2.105 -1.1737 -2.1681  1.6247
26169SOL     OW82868   1.317   8.869   4.085 -0.2748 -0.4239  0.8243
26169SOL    HW182869   1.365   8.952   4.082 -0.3290 -0.4025  0.3590
26169SOL    HW282870   1.237   8.886   4.034 -0.6186 -0.5579  1.3136
26170SOL     OW82871   4.366   8.211   2.680  0.0608 -0.7392 -0.5177
26170SOL    HW182872   4.437   8.208   2.615  0.9224  0.3881  0.3450
26170SOL    HW282873   4.351   8.304   2.696 -1.0129 -0.9824 -0.0154
26171SOL     OW82874   2.615   8.538   7.241 -0.3921 -0.2819 -0.3783
26171SOL    HW182875   2.592   8.460   7.192 -1.2869 -0.0747 -0.2979
26171SOL    HW282876   2.658   8.506   7.320  2.6057 -0.6028 -1.9709
26172SOL     OW82877   3.398   8.668   1.074  0.0684 -0.5140  0.0339
26172SOL    HW182878   3.366   8.694   0.988 -0.4726  0.4737  0.5151
26172SOL    HW282879   3.320   8.646   1.124  0.4518 -2.0788 -0.0229
26173SOL     OW82880  11.000   1.414   3.227 -0.3245  0.4948 -0.2358
26173SOL    HW182881  11.000   1.360   3.148  1.2307 -0.3221  0.2740
26173SOL    HW282882  11.033   1.499   3.198  1.6352 -0.2171 -0.2842
26174SOL     OW82883   6.677   0.182   7.397 -0.2142 -0.1620 -1.1474
26174SOL    HW182884   6.732   0.148   7.326  1.1141  1.1487 -0.7938
26174SOL    HW282885   6.738   0.198   7.469 -0.8383  2.2783 -1.0671
26175SOL     OW82886   4.802   2.596   7.283 -0.1290 -0.3518  0.3268
26175SOL    HW182887   4.855   2.516   7.283 -0.8990 -0.8832  1.2655
26175SOL    HW282888   4.760   2.597   7.369  0.9090  1.7944  0.8798
26176SOL     OW82889   6.600   6.826   6.260 -0.2799 -0.4061  0.0421
26176SOL    HW182890   6.632   6.867   6.180  1.8436 -1.5761  0.2356
26176SOL    HW282891   6.522   6.877   6.283  0.0905  1.0827 -1.7688
26177SOL     OW82892  11.097   6.682   5.296  0.1949  0.0324  0.1360
26177SOL    HW182893  11.185   6.665   5.328 -0.4650 -1.5051  1.2568
26177SOL    HW282894  11.061   6.746   5.357  0.2601  0.0743  0.1310
26178SOL     OW82895   5.790  10.654   4.419  0.4519 -0.3627  0.1304
26178SOL    HW182896   5.727  10.669   4.490 -0.1255  2.1876 -0.8338
26178SOL    HW282897   5.758  10.706   4.346  0.9831 -2.9509 -2.1322
26179SOL     OW82898   1.688  10.220   6.087  0.1840  0.4636  0.0101
26179SOL    HW182899   1.732  10.269   6.019  1.5061 -0.9643 -0.2262
26179SOL    HW282900   1.758  10.175   6.134 -0.5915  1.9543  2.8260
26180SOL     OW82901   8.199   1.129   0.901  0.1485  0.7323  0.0679
26180SOL    HW182902   8.191   1.122   0.996 -1.6423 -0.1031 -0.1117
26180SOL    HW282903   8.197   1.039   0.870  0.3453  1.0179 -0.8013
26181SOL     OW82904   0.597   2.401   1.043  0.9910 -0.1602 -0.5837
26181SOL    HW182905   0.652   2.356   1.107 -0.2765 -1.0357 -0.0944
26181SOL    HW282906   0.562   2.476   1.091 -0.2729 -1.0329 -0.0949
26182SOL     OW82907   3.916  10.970   8.991  0.3738  0.3569 -0.1471
26182SOL    HW182908   3.830  10.931   9.010  0.2413  1.5603  2.1159
26182SOL    HW282909   3.927  10.960   8.897 -2.0040 -0.3228 -0.4205
26183SOL     OW82910   1.322   6.745   4.567 -0.2040 -0.2918 -0.3641
26183SOL    HW182911   1.366   6.809   4.511 -0.3409 -0.9055 -1.1851
26183SOL    HW282912   1.283   6.797   4.638  0.1628  0.4647 -0.7134
26184SOL     OW82913   0.729   0.396   3.127  0.3895  0.0564 -0.4409
26184SOL    HW182914   0.781   0.360   3.199  1.1212  0.7716 -0.5974
26184SOL    HW282915   0.650   0.343   3.126  0.6911 -0.4310  0.4271
26185SOL     OW82916   9.394   3.871   3.669 -0.2648  0.4899 -0.4469
26185SOL    HW182917   9.449   3.826   3.733 -0.5184 -0.6971 -1.0290
26185SOL    HW282918   9.305   3.845   3.692 -0.4590  1.0707 -0.5246
26186SOL     OW82919   7.285  10.428   4.695  0.0509 -0.4236  0.0364
26186SOL    HW182920   7.301  10.376   4.616 -0.0612 -1.2653  0.5573
26186SOL    HW282921   7.337  10.384   4.763 -0.8324 -0.4415  0.7061
26187SOL     OW82922   2.319   5.401   5.282 -0.1051  0.3515 -0.3219
26187SOL    HW182923   2.238   5.424   5.236  0.3162  1.1277 -0.7059
26187SOL    HW282924   2.377   5.368   5.213  0.5223  1.5059 -0.3765
26188SOL     OW82925   3.929   1.504   6.824 -0.0429  0.0040 -0.0025
26188SOL    HW182926   3.846   1.522   6.780 -0.0354  0.2562  0.0840
26188SOL    HW282927   3.977   1.587   6.818  0.5034 -0.3499 -0.7076
26189SOL     OW82928   8.948   5.267   8.934  0.7012  0.2776 -0.5483
26189SOL    HW182929   8.990   5.247   8.851 -1.4196  0.9344 -1.8513
26189SOL    HW282930   8.928   5.360   8.929 -0.9694 -0.0188 -0.0648
26190SOL     OW82931   1.697   4.466   3.913 -0.0276  0.1257 -0.2181
26190SOL    HW182932   1.696   4.409   3.989  0.3623  0.0727 -0.2504
26190SOL    HW282933   1.786   4.459   3.879 -0.1000  0.4172 -0.4738
26191SOL     OW82934   9.487   8.430   8.018  0.5178  0.2375  0.8322
26191SOL    HW182935   9.499   8.369   7.946 -0.7915  0.1815  0.6447
26191SOL    HW282936   9.434   8.383   8.082 -2.8773  1.9605 -0.4638
26192SOL     OW82937   2.593   7.411   1.994  0.2173  0.3012  0.2918
26192SOL    HW182938   2.518   7.425   1.937  0.3076  1.1229  0.3553
26192SOL    HW282939   2.560   7.433   2.082 -0.8447 -3.9272  1.1428
26193SOL     OW82940   8.542   4.804   3.494  0.0998 -0.3057 -0.2204
26193SOL    HW182941   8.516   4.713   3.511 -1.9961  0.2740 -0.0950
26193SOL    HW282942   8.562   4.840   3.580 -1.5522  0.0458  0.0351
26194SOL     OW82943   8.124   3.062   0.902 -0.0427 -0.7217 -0.3527
26194SOL    HW182944   8.056   3.038   0.965 -0.0009 -0.5224 -0.2297
26194SOL    HW282945   8.094   3.024   0.819 -0.6654 -0.0395 -0.4525
26195SOL     OW82946   4.204   7.848   9.305 -1.0010 -1.3449 -0.2604
26195SOL    HW182947   4.143   7.912   9.341 -1.1648 -1.5521 -0.1674
26195SOL    HW282948   4.221   7.878   9.216  1.7616  0.8829  0.8827
26196SOL     OW82949   3.751   4.935   7.502  0.2852 -0.4751  0.3265
26196SOL    HW182950   3.839   4.923   7.537  0.5345  0.4301  0.0372
26196SOL    HW282951   3.694   4.891   7.565  0.9405 -1.0671  0.5164
26197SOL     OW82952   3.111   0.526   3.666 -0.3591  0.3113  0.2892
26197SOL    HW182953   3.119   0.616   3.634  0.9954  0.1872  0.2221
26197SOL    HW282954   3.170   0.522   3.742  0.5591 -0.8270 -0.4382
26198SOL     OW82955   4.437   5.496   1.717 -0.4610  0.0064  0.5419
26198SOL    HW182956   4.367   5.469   1.656 -0.7107  0.0076  0.8276
26198SOL    HW282957   4.394   5.555   1.778  0.3630  2.2809 -0.9239
26199SOL     OW82958   7.279  10.162   1.595 -0.2052  0.3200 -0.3745
26199SOL    HW182959   7.260  10.213   1.673 -2.2824 -0.9661  0.0230
26199SOL    HW282960   7.245  10.215   1.523 -0.9229  0.2236 -0.1154
26200SOL     OW82961   0.192  11.038   7.846  0.2992  0.4048 -0.0363
26200SOL    HW182962   0.184  10.975   7.917 -2.0517 -0.7812 -1.2259
26200SOL    HW282963   0.260  11.002   7.789  2.7389  1.7385  1.8318
26201SOL     OW82964   0.405   4.349   6.876 -0.0159 -0.5661 -0.0536
26201SOL    HW182965   0.392   4.268   6.827  1.5728  0.1423 -1.8167
26201SOL    HW282966   0.326   4.400   6.859  0.6787 -0.1353 -2.4860
26202SOL     OW82967   1.989   4.505   9.759  0.1634 -0.1642 -0.3377
26202SOL    HW182968   1.982   4.465   9.672 -0.0241 -0.5191 -0.1616
26202SOL    HW282969   1.901   4.498   9.796  0.0801  0.5945 -0.3782
26203SOL     OW82970   1.889  10.542   0.387 -0.3493 -0.0587  0.4048
26203SOL    HW182971   1.948  10.615   0.409  0.2503 -0.1354 -0.8167
26203SOL    HW282972   1.806  10.584   0.366  0.1699  0.3862 -0.9289
26204SOL     OW82973  10.802   3.445   9.226 -0.3472  0.0696 -0.2833
26204SOL    HW182974  10.888   3.446   9.184 -0.3156 -1.1440 -0.2718
26204SOL    HW282975  10.791   3.355   9.257 -1.2944  0.4021  0.4041
26205SOL     OW82976   1.836   6.525   7.303  0.3995 -0.1471  0.8925
26205SOL    HW182977   1.887   6.516   7.384  0.4145 -1.9939  0.7113
26205SOL    HW282978   1.804   6.615   7.305  1.4951  0.2454  2.3020
26206SOL     OW82979   1.082   4.639   2.000  0.3367 -0.3911 -0.0667
26206SOL    HW182980   1.067   4.609   2.090 -1.3105  1.9653  0.5452
26206SOL    HW282981   1.061   4.563   1.946 -0.1723 -1.4121  1.4832
26207SOL     OW82982   0.202   2.947   5.878 -0.2716 -0.5644  0.0779
26207SOL    HW182983   0.197   2.979   5.968 -0.7920  1.0649 -0.5044
26207SOL    HW282984   0.275   2.996   5.839 -0.8361 -0.3412 -0.7240
26208SOL     OW82985   9.074   9.770   4.367 -0.2733  0.2266  0.1267
26208SOL    HW182986   9.139   9.706   4.397 -0.2860  1.3806  2.8868
26208SOL    HW282987   8.990   9.725   4.372 -0.1383  0.0425  0.7814
26209SOL     OW82988   7.891   9.385   1.649 -0.0339  0.0443  0.1568
26209SOL    HW182989   7.942   9.313   1.686 -1.7335 -1.3641 -0.0972
26209SOL    HW282990   7.935   9.406   1.567 -0.1961 -1.6124 -0.3978
26210SOL     OW82991   1.650   1.295   2.413  0.6195 -0.4379 -0.0379
26210SOL    HW182992   1.580   1.246   2.454 -0.0335 -0.1023 -0.7383
26210SOL    HW282993   1.655   1.376   2.464  0.2415 -0.2948 -0.2299
26211SOL     OW82994   0.094   9.223   1.916  0.2449  0.0896 -0.0049
26211SOL    HW182995   0.027   9.213   1.983  0.1075  0.7168 -0.0463
26211SOL    HW282996   0.085   9.313   1.886  0.5004 -0.0945 -0.6577
26212SOL     OW82997   7.119   0.038   3.707  0.5079 -0.4940 -0.0851
26212SOL    HW182998   7.068  -0.019   3.649  1.7226 -0.2346 -1.4446
26212SOL    HW282999   7.053   0.095   3.748 -0.4290 -1.0664 -0.7601
26213SOL     OW83000   8.220   4.991   8.144  0.5585  0.0408 -0.4897
26213SOL    HW183001   8.265   5.046   8.080  2.2058  0.2087  0.7449
26213SOL    HW283002   8.234   5.035   8.228  1.2984 -1.8256  0.4446
26214SOL     OW83003   6.079  10.743   4.135  0.2583 -0.2860 -0.1246
26214SOL    HW183004   6.024  10.818   4.111  1.3016  0.4686 -0.2277
26214SOL    HW283005   6.086  10.692   4.054 -0.4844 -0.5153 -0.0465
26215SOL     OW83006   8.329   2.407   9.674  0.0995 -0.2251  0.4318
26215SOL    HW183007   8.408   2.462   9.670 -0.8312  1.0593 -1.1546
26215SOL    HW283008   8.259   2.463   9.643 -1.3225 -1.6311  0.9766
26216SOL     OW83009   7.294   8.175   7.846 -0.2258 -0.3285  0.2646
26216SOL    HW183010   7.336   8.252   7.808 -1.6322  0.1552 -0.3683
26216SOL    HW283011   7.309   8.183   7.940  0.0085  0.4934  0.1624
26217SOL     OW83012   2.722   3.393   3.166  1.2957 -0.7813 -0.2925
26217SOL    HW183013   2.720   3.462   3.100 -1.0599 -0.6254 -0.1271
26217SOL    HW283014   2.768   3.433   3.240  2.2121 -0.2869 -1.1021
26218SOL     OW83015   7.023  10.279   9.638 -0.2560 -0.2958 -0.3799
26218SOL    HW183016   7.042  10.271   9.732 -2.0967  2.8181  0.3981
26218SOL    HW283017   6.928  10.294   9.634 -0.0019  1.1706 -2.5496
26219SOL     OW83018   0.986   5.424   0.052 -0.2701 -0.3205 -0.0877
26219SOL    HW183019   1.016   5.352   0.109 -1.4137 -1.4125 -0.8141
26219SOL    HW283020   0.977   5.499   0.111  1.5095 -0.5723  0.5953
26220SOL     OW83021   7.678   7.773  10.345 -0.7305 -0.5573  0.5532
26220SOL    HW183022   7.605   7.822  10.383  0.4144  0.0681  2.0661
26220SOL    HW283023   7.748   7.837  10.336 -1.0413 -0.5186 -3.2661
26221SOL     OW83024   4.548   6.102   9.601  0.1937  0.4733  0.2437
26221SOL    HW183025   4.511   6.165   9.662  0.4578  0.0702  0.8342
26221SOL    HW283026   4.643   6.108   9.615  0.3848  1.5254 -1.2804
26222SOL     OW83027   5.818   2.862   3.185 -0.3241  0.6796 -0.2004
26222SOL    HW183028   5.741   2.807   3.200 -1.0524  1.9701  0.9325
26222SOL    HW283029   5.889   2.817   3.233  0.1884 -1.5494 -2.7857
26223SOL     OW83030   8.772   9.624   5.851  0.2211  0.0432  0.3790
26223SOL    HW183031   8.804   9.588   5.934  1.0008  0.9673  0.4949
26223SOL    HW283032   8.851   9.641   5.800 -0.1596  0.9782  0.0802
26224SOL     OW83033   9.709   2.156   0.955  0.2217 -0.4904 -0.0756
26224SOL    HW183034   9.773   2.225   0.973 -1.5119  1.4002 -0.7850
26224SOL    HW283035   9.749   2.102   0.887  1.1484  0.5346 -0.3677
26225SOL     OW83036  10.693   7.719   6.501 -0.1388  0.6057  0.5561
26225SOL    HW183037  10.756   7.665   6.548 -1.0977  0.1141  1.2988
26225SOL    HW283038  10.608   7.683   6.524 -0.6880  0.9959 -0.7644
26226SOL     OW83039   0.954   2.016   4.011 -0.3966  0.7443  0.3740
26226SOL    HW183040   0.928   2.108   4.004 -2.9086  0.1230  0.6298
26226SOL    HW283041   0.872   1.969   4.020  0.8955 -1.4409  1.4208
26227SOL     OW83042   5.452  10.362   6.059 -0.0090  0.4799  0.1973
26227SOL    HW183043   5.479  10.342   6.149 -2.7939  0.1891  1.0838
26227SOL    HW283044   5.393  10.438   6.069  0.4121  1.0662 -1.5274
26228SOL     OW83045   2.929   8.654   1.105 -0.0677  0.5604  0.1073
26228SOL    HW183046   2.850   8.679   1.154  0.8033  0.9125  1.3801
26228SOL    HW283047   2.939   8.724   1.040  0.7267  2.0770  1.7588
26229SOL     OW83048   3.551   5.609   3.498 -0.1357 -0.3444 -0.2571
26229SOL    HW183049   3.459   5.621   3.476  0.5915  2.0112 -2.5407
26229SOL    HW283050   3.591   5.575   3.418  1.0246 -1.3720  0.7096
26230SOL     OW83051   4.982   5.271   1.226  0.1619 -0.4744  0.5429
26230SOL    HW183052   5.065   5.282   1.272 -1.2094  0.6691  2.9831
26230SOL    HW283053   4.916   5.279   1.295 -2.0652  0.8539 -1.5917
26231SOL     OW83054   1.862  10.396  10.867 -0.3632  0.2085  0.2376
26231SOL    HW183055   1.816  10.344  10.932 -0.7280 -0.0998 -0.2691
26231SOL    HW283056   1.954  10.394  10.896 -0.2314 -1.3672 -0.1977
26232SOL     OW83057   0.787   9.832   2.640  0.2671 -0.3843  0.3393
26232SOL    HW183058   0.724   9.763   2.659 -0.0864 -0.8267 -2.1289
26232SOL    HW283059   0.734   9.908   2.615  0.6839 -0.3221 -0.3805
26233SOL     OW83060   4.093   7.127   3.460 -0.4675  0.1963  0.7157
26233SOL    HW183061   4.133   7.204   3.420 -0.7994 -0.8856 -1.9293
26233SOL    HW283062   4.001   7.133   3.438 -0.3458 -1.3877 -0.3772
26234SOL     OW83063   5.753   5.451  10.653 -0.1253 -0.7535  0.1312
26234SOL    HW183064   5.803   5.457  10.572  1.8832 -1.3943  1.2662
26234SOL    HW283065   5.760   5.359  10.679  0.0423 -0.3773  1.4894
26235SOL     OW83066   4.094   0.485   1.201 -0.0720 -0.1246  0.1768
26235SOL    HW183067   4.041   0.546   1.252 -1.5813 -1.0108 -0.2549
26235SOL    HW283068   4.072   0.504   1.110  2.0351  0.9445 -0.1686
26236SOL     OW83069   9.781   8.389   6.194  0.4874 -0.4084 -0.1145
26236SOL    HW183070   9.790   8.408   6.288 -1.1144 -1.5799  0.3252
26236SOL    HW283071   9.687   8.399   6.177  0.3457 -2.6623 -0.9844
26237SOL     OW83072   9.281   4.077   2.319 -0.5775 -0.2695 -0.0388
26237SOL    HW183073   9.333   4.011   2.364  1.0801  0.8834 -0.1488
26237SOL    HW283074   9.265   4.144   2.385 -0.1955  0.3073 -0.5212
26238SOL     OW83075   8.690   9.536   0.178 -0.2189 -0.1550 -0.0368
26238SOL    HW183076   8.765   9.526   0.238 -0.4519  2.4394  0.8142
26238SOL    HW283077   8.620   9.570   0.234 -1.3553 -0.4306 -1.2577
26239SOL     OW83078   6.747  10.784   0.344  0.0420  0.0812  0.3710
26239SOL    HW183079   6.833  10.786   0.386  0.1693 -1.1267  0.2168
26239SOL    HW283080   6.745  10.862   0.289  1.4617 -0.3947 -0.3984
26240SOL     OW83081   5.551   8.877   7.080  0.2189  0.0072 -0.0995
26240SOL    HW183082   5.567   8.888   7.174  0.4548  0.2016 -0.1614
26240SOL    HW283083   5.467   8.919   7.064 -0.1732 -0.6660  0.1577
26241SOL     OW83084   5.054   8.415   2.151 -0.1914  0.6140  0.0808
26241SOL    HW183085   5.103   8.488   2.190  0.1213  0.5597 -0.2149
26241SOL    HW283086   5.072   8.420   2.058  1.6925 -1.2238  0.2876
26242SOL     OW83087   7.595   1.202   8.421 -0.2979  0.2939  0.2967
26242SOL    HW183088   7.679   1.203   8.376 -0.6173  0.3409 -0.2958
26242SOL    HW283089   7.557   1.117   8.400 -1.0287  0.8326 -0.5998
26243SOL     OW83090   8.271  10.370   7.909  0.5932 -0.5410 -0.0754
26243SOL    HW183091   8.243  10.281   7.885  0.5389 -0.0538 -1.9352
26243SOL    HW283092   8.238  10.381   7.998 -2.0029 -1.3414 -0.8341
26244SOL     OW83093   4.052   0.182   8.925  0.7470 -0.5000  0.5617
26244SOL    HW183094   4.034   0.153   8.836  1.0174 -1.2756  0.7558
26244SOL    HW283095   4.115   0.254   8.914  1.1259 -0.8892  0.1520
26245SOL     OW83096   7.233   0.279   8.955  0.1642  0.0129  0.0487
26245SOL    HW183097   7.260   0.338   8.885 -1.0930  0.2909 -0.2184
26245SOL    HW283098   7.291   0.301   9.028  0.9265  0.3020 -0.6275
26246SOL     OW83099   4.140   2.987   7.987  0.6569  0.0059  0.4755
26246SOL    HW183100   4.232   2.979   7.962  0.6421  0.0434  0.4090
26246SOL    HW283101   4.133   2.938   8.069  0.5199 -0.8660 -0.0402
26247SOL     OW83102   6.353   5.795   1.833  0.5893  0.4758 -0.1883
26247SOL    HW183103   6.266   5.781   1.797 -0.4009  1.9318  1.4671
26247SOL    HW283104   6.412   5.746   1.775 -1.2946 -0.4433 -1.4098
26248SOL     OW83105   8.350   1.298   8.345  0.0960 -0.3299  0.2081
26248SOL    HW183106   8.293   1.286   8.421 -1.2930 -0.5768 -0.8155
26248SOL    HW283107   8.410   1.368   8.370 -2.2496  1.7035  0.5134
26249SOL     OW83108   0.917   1.956   7.271  0.0869 -0.4179  0.6843
26249SOL    HW183109   0.853   1.892   7.239 -0.0972  0.2179 -0.2710
26249SOL    HW283110   0.895   1.969   7.363 -1.4567  0.1162  0.2721
26250SOL     OW83111   3.247   2.343   6.885  0.2408 -0.7030  0.1471
26250SOL    HW183112   3.161   2.343   6.927 -0.0770 -0.1415 -0.4723
26250SOL    HW283113   3.306   2.309   6.951 -0.4296 -0.9203  0.6492
26251SOL     OW83114   8.317   2.425   5.329  0.4302 -0.4847  0.4281
26251SOL    HW183115   8.354   2.440   5.242 -0.9521  0.3620 -0.0362
26251SOL    HW283116   8.369   2.353   5.365  0.9974 -0.8701 -1.1113
26252SOL     OW83117   4.643   1.052   2.278  0.1965  0.0114 -0.0306
26252SOL    HW183118   4.638   1.102   2.359  1.9321  0.1912  0.0158
26252SOL    HW283119   4.591   0.974   2.294 -1.2240  1.0170  0.4729
26253SOL     OW83120   8.762   1.442   9.632 -0.0760  0.0492 -0.2866
26253SOL    HW183121   8.793   1.365   9.680  0.7641 -0.2512 -1.2614
26253SOL    HW283122   8.818   1.513   9.663 -1.0883  0.3822  0.8816
26254SOL     OW83123   8.676   1.985   8.321 -0.1754 -0.0678 -0.0381
26254SOL    HW183124   8.679   2.072   8.361 -1.3757 -0.8269  1.8168
26254SOL    HW283125   8.675   1.924   8.395 -1.6795 -1.5843 -1.2234
26255SOL     OW83126   4.367   0.529   4.776 -0.2997 -0.4320 -0.0762
26255SOL    HW183127   4.441   0.547   4.718 -0.4264 -1.2475 -0.5040
26255SOL    HW283128   4.356   0.610   4.826  0.4796 -0.0831 -0.4469
26256SOL     OW83129   8.523   3.465   7.432 -0.6633  0.3869 -0.1657
26256SOL    HW183130   8.547   3.477   7.340 -1.5171  0.6077 -0.3730
26256SOL    HW283131   8.473   3.383   7.433  1.7997 -1.2166  0.6022
26257SOL     OW83132   1.869   2.182   1.008  0.1512  0.5888 -0.3956
26257SOL    HW183133   1.886   2.146   0.921  1.1784  0.8497 -0.3187
26257SOL    HW283134   1.857   2.105   1.064 -3.1851  0.4017 -1.2098
26258SOL     OW83135  11.040   3.391   1.334  0.4777  0.2085  0.2464
26258SOL    HW183136  10.955   3.372   1.295  0.4910  0.0306  0.3032
26258SOL    HW283137  11.059   3.316   1.390 -0.5334  1.3886  2.3004
26259SOL     OW83138   9.419   9.847   0.102  0.6739 -0.2833  0.3028
26259SOL    HW183139   9.501   9.843   0.150  1.3921 -1.8671 -0.9579
26259SOL    HW283140   9.434   9.794   0.024 -1.2886  0.0525 -0.3686
26260SOL     OW83141   9.479   3.041   2.595  0.1032  0.5139 -0.6752
26260SOL    HW183142   9.401   2.993   2.569  0.7845 -0.3498 -1.1638
26260SOL    HW283143   9.516   3.074   2.514  0.3750  0.7188 -0.4717
26261SOL     OW83144   0.078   1.225   1.741  0.2305  0.2590 -0.4183
26261SOL    HW183145   0.117   1.249   1.825 -0.9663  2.2105 -0.3552
26261SOL    HW283146   0.152   1.207   1.684  1.0950  0.1561  0.7104
26262SOL     OW83147   3.232   3.490   6.485  0.1594 -0.4145  0.3582
26262SOL    HW183148   3.238   3.396   6.503 -1.9699 -0.6026  0.3972
26262SOL    HW283149   3.138   3.506   6.473  0.4654  1.7302  0.4165
26263SOL     OW83150   6.516   6.306   3.927 -0.2937 -0.0985 -0.9874
26263SOL    HW183151   6.503   6.257   4.009  0.9175  1.9163  0.4881
26263SOL    HW283152   6.596   6.268   3.889  0.2464  0.2304 -0.2080
26264SOL     OW83153   2.955   9.725   3.105  0.2050 -0.8797  0.2276
26264SOL    HW183154   2.897   9.724   3.182 -0.6963  1.0965 -0.3568
26264SOL    HW283155   3.028   9.780   3.131  0.2762 -0.8267 -0.0861
26265SOL     OW83156   4.670   3.930   9.014  0.3548 -0.5460  0.2833
26265SOL    HW183157   4.618   3.996   8.967 -1.2632 -2.2058 -0.3826
26265SOL    HW283158   4.673   3.963   9.104 -0.4730  0.4053 -0.0081
26266SOL     OW83159   9.089  11.007   6.709 -0.2453 -0.1822  0.3150
26266SOL    HW183160   9.087  11.045   6.797 -0.9248  0.6395 -0.0472
26266SOL    HW283161   9.143  11.066   6.658 -0.5404 -0.1993 -0.0229
26267SOL     OW83162   2.646   1.688   6.141 -0.4049 -0.0701 -0.0117
26267SOL    HW183163   2.600   1.667   6.222 -0.5809  1.7670  0.4108
26267SOL    HW283164   2.722   1.739   6.170 -1.6192  2.5187 -1.0612
26268SOL     OW83165  10.416   7.071   9.969  0.4121  0.1194  0.1036
26268SOL    HW183166  10.460   7.073   9.884  0.7381 -1.3044  0.1993
26268SOL    HW283167  10.484   7.044  10.031 -0.0811  0.0364  0.6200
26269SOL     OW83168   2.117   3.385   3.434  0.2580 -0.4630 -0.5385
26269SOL    HW183169   2.083   3.412   3.349  0.8420 -0.7909 -0.8859
26269SOL    HW283170   2.071   3.303   3.453  1.0398 -1.0612 -1.1454
26270SOL     OW83171   4.663   4.215   3.545  0.7305  0.0215 -0.2134
26270SOL    HW183172   4.683   4.270   3.469  0.9778 -0.6180 -0.6210
26270SOL    HW283173   4.571   4.235   3.565  1.0796  1.2744  0.2430
26271SOL     OW83174   8.568   4.816   0.385 -0.3594 -0.1762  0.3379
26271SOL    HW183175   8.519   4.760   0.326 -1.5150  0.8653  0.2945
26271SOL    HW283176   8.623   4.869   0.328 -0.3330 -0.2450  0.2984
26272SOL     OW83177   9.867   9.300   7.968  0.0694 -0.2878  0.2307
26272SOL    HW183178   9.885   9.327   7.878  0.5988  3.1238  1.2183
26272SOL    HW283179   9.952   9.308   8.013 -0.3098 -1.3231  1.1714
26273SOL     OW83180   3.936   8.600   4.112 -0.7990 -0.1499 -0.8416
26273SOL    HW183181   3.949   8.512   4.149  0.7154  1.1199  1.9927
26273SOL    HW283182   3.849   8.626   4.143 -0.6730 -0.1455 -0.4809
26274SOL     OW83183   8.364   3.573   0.813 -0.4550  0.8653  0.1722
26274SOL    HW183184   8.327   3.599   0.897 -2.0207  0.9298 -0.5036
26274SOL    HW283185   8.323   3.489   0.794 -1.3639  1.5961 -1.2547
26275SOL     OW83186   2.277   8.018   2.707  0.0207 -0.5558 -0.7327
26275SOL    HW183187   2.246   8.019   2.617 -2.1532 -1.6404 -0.0657
26275SOL    HW283188   2.223   8.084   2.752  0.3472 -0.7638 -0.0160
26276SOL     OW83189   5.698  10.420   9.536 -0.0915 -0.1108 -0.2402
26276SOL    HW183190   5.680  10.328   9.514  0.2136 -0.6752  1.7294
26276SOL    HW283191   5.612  10.461   9.539 -0.1970 -0.1523 -1.7000
26277SOL     OW83192   0.077  10.174   2.053 -0.2165 -0.9080  0.2484
26277SOL    HW183193   0.018  10.111   2.094  0.9256 -1.1039  1.6815
26277SOL    HW283194   0.140  10.196   2.122  1.1399 -0.4078 -1.0941
26278SOL     OW83195   7.518   8.256   5.954  0.1100 -0.5425  0.1526
26278SOL    HW183196   7.501   8.190   6.021  0.5188  0.2658  1.0754
26278SOL    HW283197   7.593   8.306   5.988  0.2482 -0.0374 -0.8479
26279SOL     OW83198   0.068   7.983   6.150 -0.7352 -0.0656  0.3020
26279SOL    HW183199   0.094   7.898   6.185 -0.5511 -0.2848 -0.3506
26279SOL    HW283200   0.063   7.969   6.055 -2.7322  0.0928  0.3446
26280SOL     OW83201   8.581   0.711   7.508  0.2437 -0.5347 -0.0282
26280SOL    HW183202   8.547   0.623   7.527  0.2403 -0.9280 -1.7059
26280SOL    HW283203   8.521   0.746   7.442  2.7549 -1.1241 -2.8449
26281SOL     OW83204   5.229   6.781   6.927 -0.6340 -0.1871 -0.5917
26281SOL    HW183205   5.314   6.801   6.888 -0.5585  1.1157  0.1573
26281SOL    HW283206   5.172   6.851   6.895 -0.3926  1.4104  2.0892
26282SOL     OW83207   6.435   2.837   1.928 -0.6120 -0.1126  0.1910
26282SOL    HW183208   6.411   2.797   2.011  1.3382 -3.0754 -0.5440
26282SOL    HW283209   6.524   2.807   1.911 -0.5457  1.2635 -2.4844
26283SOL     OW83210   6.319   7.061   8.938 -0.3586  0.1322 -0.3465
26283SOL    HW183211   6.356   7.146   8.914  3.0896 -1.0960 -0.0284
26283SOL    HW283212   6.374   6.998   8.891 -2.7267 -1.9813 -0.5038
26284SOL     OW83213  10.354  10.113   4.807  0.2276 -0.3340  0.5349
26284SOL    HW183214  10.344  10.192   4.754  0.8438  0.5093  1.6452
26284SOL    HW283215  10.399  10.051   4.749  3.4239  1.5024  0.8540
26285SOL     OW83216   8.401   2.508   6.841 -0.3516 -0.0592  0.6348
26285SOL    HW183217   8.353   2.582   6.805  0.0100 -1.1957 -2.4961
26285SOL    HW283218   8.477   2.498   6.784 -0.0688 -2.4266  1.3018
26286SOL     OW83219   9.687   8.289   1.597  0.2221  0.1335  0.7394
26286SOL    HW183220   9.739   8.211   1.613  1.1119  0.1955 -1.5183
26286SOL    HW283221   9.752   8.357   1.578 -0.6121  0.6964 -0.1671
26287SOL     OW83222   6.497   4.998   3.679  0.2405  0.1872 -1.1155
26287SOL    HW183223   6.535   5.084   3.662  1.4457  0.2263  1.3943
26287SOL    HW283224   6.428   5.014   3.743  3.0744 -0.9711  2.5781
26288SOL     OW83225   3.830   3.306   2.801 -0.1582 -0.5583 -0.0381
26288SOL    HW183226   3.876   3.324   2.883 -0.5234 -0.5984  0.1783
26288SOL    HW283227   3.895   3.322   2.733  0.0015 -0.0143  0.2322
26289SOL     OW83228   0.269   3.715  10.857 -0.0102  0.0876 -0.1463
26289SOL    HW183229   0.291   3.622  10.871  0.9406  0.5005  1.3276
26289SOL    HW283230   0.252   3.749  10.944 -0.5903  1.2654 -0.7010
26290SOL     OW83231   3.048   6.811   7.546 -0.1829 -0.4546 -0.3226
26290SOL    HW183232   3.137   6.845   7.536 -0.0127 -0.5958  0.6623
26290SOL    HW283233   2.995   6.889   7.564 -0.6594 -0.0541 -2.9731
26291SOL     OW83234   7.843   2.282  10.194  0.2148  0.1897 -0.0856
26291SOL    HW183235   7.835   2.329  10.277  2.2033  1.3201 -0.4686
26291SOL    HW283236   7.776   2.322  10.137 -0.0703  0.5340  0.4806
26292SOL     OW83237  10.610   3.207   0.690  0.0757 -0.3770 -0.3584
26292SOL    HW183238  10.642   3.153   0.761  0.0349  0.6853  0.4986
26292SOL    HW283239  10.551   3.270   0.732 -0.0262  0.2116 -1.3394
26293SOL     OW83240   5.196   3.666   0.862  0.4845 -0.4560  0.4288
26293SOL    HW183241   5.239   3.703   0.940  1.5643 -0.8367  0.0418
26293SOL    HW283242   5.243   3.705   0.788 -1.4607  1.0166 -0.1026
26294SOL     OW83243   9.990   6.152   7.708 -0.2744 -0.0270  0.1593
26294SOL    HW183244   9.964   6.100   7.784  0.3141  0.8456  0.9845
26294SOL    HW283245  10.070   6.196   7.736  0.0338  0.1843 -1.0314
26295SOL     OW83246   9.832   7.610   5.918 -0.4581 -0.2146 -0.0075
26295SOL    HW183247   9.914   7.597   5.965 -0.4549  0.5950  0.2135
26295SOL    HW283248   9.808   7.522   5.888 -0.9583 -0.9447  2.3183
26296SOL     OW83249   4.152   0.606   2.749 -0.0611 -0.6426  0.6664
26296SOL    HW183250   4.162   0.602   2.654  0.6586 -1.4808  0.7690
26296SOL    HW283251   4.057   0.613   2.763 -0.0855  1.2543 -0.1463
26297SOL     OW83252   0.176   2.442   7.413  0.3713  0.2639 -0.0510
26297SOL    HW183253   0.200   2.355   7.446 -1.3240  0.0732  0.7860
26297SOL    HW283254   0.087   2.432   7.381  0.5751  1.4361 -1.0724
26298SOL     OW83255   1.632   1.490   1.193 -0.5507 -0.1590 -0.2961
26298SOL    HW183256   1.540   1.464   1.205 -1.0692  0.9373 -1.6343
26298SOL    HW283257   1.662   1.438   1.118 -0.2068 -0.2037 -0.1282
26299SOL     OW83258   4.981   3.848   5.507 -0.2257  0.2500  0.5383
26299SOL    HW183259   4.898   3.869   5.549  0.6672  0.8982  2.0513
26299SOL    HW283260   4.996   3.921   5.446 -1.0616 -0.2119 -0.2521
26300SOL     OW83261   4.176   7.893   0.213 -0.1470  0.0204 -0.3658
26300SOL    HW183262   4.269   7.914   0.207 -0.2374  0.3758 -0.5728
26300SOL    HW283263   4.135   7.947   0.144 -0.3297 -1.1731 -1.2244
26301SOL     OW83264   9.968   0.878  11.064  0.1072 -0.2169 -0.0097
26301SOL    HW183265   9.961   0.905  10.972 -2.3359 -1.5475 -0.2955
26301SOL    HW283266   9.989   0.959  11.111 -3.4525  1.6158 -1.2137
26302SOL     OW83267   5.756   6.953   3.387 -0.0856  0.4080 -0.1564
26302SOL    HW183268   5.728   7.034   3.429 -1.5505 -0.1052 -0.1058
26302SOL    HW283269   5.715   6.954   3.301 -1.1310 -0.8298  0.2948
26303SOL     OW83270   5.401   7.593  10.386  0.0697 -0.0504  0.5187
26303SOL    HW183271   5.317   7.623  10.420 -0.3320  0.3524 -0.7729
26303SOL    HW283272   5.383   7.567  10.296  1.8355  2.7968 -0.7991
26304SOL     OW83273   5.336   1.091   2.853  0.0330  0.3892  0.2441
26304SOL    HW183274   5.272   1.029   2.887  0.5865 -0.0138  0.5571
26304SOL    HW283275   5.289   1.138   2.783 -0.5363 -0.0326  0.3373
26305SOL     OW83276   8.891   7.167   6.083 -0.2846 -0.0450 -0.0672
26305SOL    HW183277   8.954   7.095   6.077  0.3830  0.6073 -1.3366
26305SOL    HW283278   8.831   7.152   6.010 -0.0501  0.7565 -0.4344
26306SOL     OW83279   3.138   2.184   9.540 -0.5635  0.4520 -0.3810
26306SOL    HW183280   3.165   2.098   9.506  3.9791  1.4707 -0.0602
26306SOL    HW283281   3.164   2.182   9.633  2.3066  2.9029 -0.9714
26307SOL     OW83282  10.433   7.497   2.904 -0.2349 -0.3161 -0.2237
26307SOL    HW183283  10.393   7.478   2.819 -2.3167 -0.5929  0.7655
26307SOL    HW283284  10.505   7.434   2.911 -0.9189 -1.2474 -1.1874
26308SOL     OW83285   4.810   1.539  10.851  0.0975 -0.0598  0.3973
26308SOL    HW183286   4.825   1.594  10.774  0.7330 -0.3870  0.2764
26308SOL    HW283287   4.781   1.599  10.919  0.1425  0.3259  0.0780
26309SOL     OW83288   5.698   0.967   6.498 -0.4386 -0.4956  0.5563
26309SOL    HW183289   5.761   0.944   6.566  0.9995 -0.7250 -0.7968
26309SOL    HW283290   5.752   0.992   6.422 -1.8995 -2.6011 -1.3065
26310SOL     OW83291   2.075   8.838   0.144 -0.2036 -0.1088  0.0926
26310SOL    HW183292   2.054   8.914   0.198 -0.0625  0.1876 -0.2671
26310SOL    HW283293   2.148   8.795   0.188 -1.0102 -0.6886  0.9182
26311SOL     OW83294   8.542   5.537   9.721  0.0332  0.7808  0.0076
26311SOL    HW183295   8.454   5.563   9.748 -0.5547 -1.4202  0.3813
26311SOL    HW283296   8.566   5.466   9.780  1.4280  0.2829 -1.0831
26312SOL     OW83297   4.160   4.500   8.790  0.1948  0.2476 -0.2452
26312SOL    HW183298   4.089   4.482   8.729 -0.2961 -0.1793  0.4445
26312SOL    HW283299   4.239   4.475   8.742 -0.1958 -0.2554 -0.6423
26313SOL     OW83300   3.900   5.757  10.052 -0.3162  0.2046  0.4640
26313SOL    HW183301   3.935   5.846  10.054 -0.4966  0.2746  0.5124
26313SOL    HW283302   3.834   5.759   9.982 -0.1630  0.0511  0.3155
26314SOL     OW83303   8.380   8.332   1.575 -0.5759  0.1886  0.1326
26314SOL    HW183304   8.450   8.355   1.514 -1.5046  0.4397 -0.8828
26314SOL    HW283305   8.411   8.253   1.619  0.2133  0.1340 -0.4983
26315SOL     OW83306   9.714   9.007  10.864 -0.2047  0.2791  0.5150
26315SOL    HW183307   9.759   9.077  10.910  3.2472  0.5466 -2.8364
26315SOL    HW283308   9.639   9.050  10.822  0.2879  1.3303  0.6945
26316SOL     OW83309   4.617  10.268   0.880  0.1678  0.4809 -0.4257
26316SOL    HW183310   4.683  10.285   0.812  0.0868  0.0230 -0.6208
26316SOL    HW283311   4.635  10.179   0.909  0.6560  0.9170  0.6699
26317SOL     OW83312   2.131   0.856   4.248  0.1797 -0.0349  0.2662
26317SOL    HW183313   2.130   0.816   4.162  0.2766  0.5523 -0.0158
26317SOL    HW283314   2.171   0.791   4.305 -0.9033 -0.8790  0.1026
26318SOL     OW83315   5.664   6.273  10.818  0.3998 -0.1180 -0.3335
26318SOL    HW183316   5.575   6.297  10.795  0.7822  1.3166 -0.4624
26318SOL    HW283317   5.710   6.357  10.824  1.8031 -0.8373 -0.5622
26319SOL     OW83318   1.513   8.136   6.491 -0.2773  0.1835  0.1156
26319SOL    HW183319   1.594   8.114   6.538  0.1146 -1.0034 -1.0631
26319SOL    HW283320   1.448   8.077   6.528  0.0623 -0.8473 -0.8827
26320SOL     OW83321   0.934   4.494   9.928  0.0687 -0.7211  0.6015
26320SOL    HW183322   1.029   4.494   9.941  0.6332 -0.0814 -2.5547
26320SOL    HW283323   0.904   4.579   9.958  0.9259 -0.0244 -0.4411
26321SOL     OW83324   8.389   1.234   7.693  0.4224  0.0284  0.0729
26321SOL    HW183325   8.309   1.197   7.657  0.1398  1.2508 -0.5993
26321SOL    HW283326   8.377   1.230   7.788 -0.0469 -0.6053 -0.0118
26322SOL     OW83327   2.777   6.916   8.664  0.2426 -0.5634  0.3621
26322SOL    HW183328   2.841   6.906   8.594 -0.2571 -0.1923 -0.1540
26322SOL    HW283329   2.692   6.920   8.620 -0.1308 -0.8773  1.0227
26323SOL     OW83330   9.655   3.837   4.086  0.0695  0.0565  0.2539
26323SOL    HW183331   9.632   3.827   3.993  1.2184 -1.9967  0.1351
26323SOL    HW283332   9.745   3.805   4.092 -0.7070 -2.0283  2.4113
26324SOL     OW83333   1.841   3.452  10.174 -0.2562  0.3278  0.1226
26324SOL    HW183334   1.813   3.468  10.084 -0.4446  0.8965  0.2810
26324SOL    HW283335   1.782   3.384  10.206 -0.5373  0.5097 -0.0071
26325SOL     OW83336   4.943   2.663   3.628  0.0052  0.1095  0.5018
26325SOL    HW183337   4.899   2.744   3.603 -1.1534 -0.6631 -0.0333
26325SOL    HW283338   4.875   2.609   3.667  0.1088 -1.6205 -1.4888
26326SOL     OW83339   7.378   6.146  10.992  0.2890  0.3054 -0.0113
26326SOL    HW183340   7.313   6.077  10.999 -0.0671  0.6517  0.1402
26326SOL    HW283341   7.365   6.183  10.905  1.6605 -0.9732 -0.7999
26327SOL     OW83342   3.269   7.874   6.695 -1.1704  0.8561 -0.3762
26327SOL    HW183343   3.195   7.856   6.752 -2.0069  0.1634 -1.6300
26327SOL    HW283344   3.238   7.941   6.635 -0.3968  1.3857 -0.2009
26328SOL     OW83345   5.533   6.658   7.776 -0.1162  0.0951  0.2469
26328SOL    HW183346   5.457   6.601   7.788  1.5608 -2.4115 -0.4143
26328SOL    HW283347   5.502   6.744   7.804 -2.4166 -1.3107  2.4840
26329SOL     OW83348   7.171   5.155   7.078 -0.2522 -0.5674  0.7565
26329SOL    HW183349   7.093   5.120   7.121 -2.4683  1.4147 -1.3076
26329SOL    HW283350   7.188   5.238   7.123  0.7238 -1.0217  1.2357
26330SOL     OW83351   2.221   7.038   9.994  0.2299  0.4501  0.2853
26330SOL    HW183352   2.169   6.961   9.969 -0.9434  1.4576 -0.5541
26330SOL    HW283353   2.312   7.011   9.982 -0.1043 -1.0991  0.9413
26331SOL     OW83354   2.855   6.673   1.682 -0.3024 -0.7708 -0.2160
26331SOL    HW183355   2.785   6.737   1.676  1.0022  0.6563 -0.9086
26331SOL    HW283356   2.920   6.702   1.618  1.1538 -1.7403  0.7420
26332SOL     OW83357   7.983   9.353   4.109 -0.2382 -0.6705  0.0330
26332SOL    HW183358   7.998   9.441   4.142 -2.8735 -1.6559  4.8063
26332SOL    HW283359   8.071   9.319   4.093  0.9608  2.1488 -0.0121
26333SOL     OW83360   2.372   7.786   4.803  0.2827 -0.1490  0.1922
26333SOL    HW183361   2.310   7.791   4.731 -0.1295 -0.6164  0.5025
26333SOL    HW283362   2.455   7.818   4.767  0.0380 -0.2196 -0.4359
26334SOL     OW83363   4.014   1.850   4.602  0.7026  0.1111 -0.2921
26334SOL    HW183364   4.050   1.762   4.604  0.2729 -0.0926  2.0477
26334SOL    HW283365   3.995   1.870   4.694 -1.5161  1.6844 -0.9903
26335SOL     OW83366  10.126   2.021   8.852 -0.9206 -0.2384 -0.3168
26335SOL    HW183367  10.072   2.000   8.928 -0.9010  0.1826 -0.1865
26335SOL    HW283368  10.203   1.965   8.861 -0.9726 -0.2730 -0.0940
26336SOL     OW83369  10.059   6.158   6.391  0.0438 -0.3672  0.0687
26336SOL    HW183370  10.047   6.169   6.296 -1.3066  2.6226  0.4808
26336SOL    HW283371  10.101   6.239   6.419  0.8564 -1.4065  1.9973
26337SOL     OW83372   9.537   3.265   3.448  0.3161  0.0909  0.1804
26337SOL    HW183373   9.601   3.319   3.495  0.5330  1.8493 -1.9672
26337SOL    HW283374   9.538   3.298   3.358 -4.4190  1.0754  0.1868
26338SOL     OW83375   7.063   6.501   7.386 -0.3357  0.2840  0.2122
26338SOL    HW183376   7.148   6.462   7.368 -1.3243 -1.4341 -0.9657
26338SOL    HW283377   7.075   6.595   7.369  0.9974 -0.1089 -1.1568
26339SOL     OW83378   0.473   0.388   6.452 -1.1555 -0.0906 -0.2811
26339SOL    HW183379   0.560   0.410   6.486 -1.2746 -0.2395  0.1196
26339SOL    HW283380   0.416   0.458   6.484 -1.4207 -0.6479  0.5034
26340SOL     OW83381   7.640  10.109   9.885  0.1084  0.3207 -0.3956
26340SOL    HW183382   7.607  10.051   9.816  0.4060 -0.3393  0.0069
26340SOL    HW283383   7.700  10.168   9.840 -0.3657  0.4662 -0.8476
26341SOL     OW83384   1.759   7.949   0.997  0.2163  0.4532  0.6798
26341SOL    HW183385   1.705   7.997   1.060  0.2192  0.9645  0.2996
26341SOL    HW283386   1.718   7.863   0.991 -0.3077  0.6986  0.7101
26342SOL     OW83387   5.390   7.766   3.263  0.0432 -0.1732 -0.3814
26342SOL    HW183388   5.470   7.785   3.214 -0.6002  0.7528 -1.1266
26342SOL    HW283389   5.340   7.848   3.259 -0.4323 -0.3767  1.0561
26343SOL     OW83390  10.479   9.830   1.291  0.5973 -0.2870  0.4970
26343SOL    HW183391  10.558   9.876   1.262  0.7523 -0.1411  1.1337
26343SOL    HW283392  10.410   9.896   1.287  0.6359 -0.2428  0.5502
26344SOL     OW83393   9.508   4.778   0.737 -0.4212  0.2611  0.4319
26344SOL    HW183394   9.483   4.689   0.763 -0.4726 -0.0742 -0.7004
26344SOL    HW283395   9.524   4.772   0.642  1.1847  1.0884  0.6110
26345SOL     OW83396   1.706   1.132   4.878 -0.2313  0.0445 -0.0626
26345SOL    HW183397   1.726   1.079   4.802  2.1112 -1.6404  1.5964
26345SOL    HW283398   1.749   1.216   4.861 -1.1305  0.3001 -1.2418
26346SOL     OW83399   6.362   1.682   8.657 -0.6538  0.2288  0.6783
26346SOL    HW183400   6.354   1.719   8.569 -1.8603 -1.9912 -0.2231
26346SOL    HW283401   6.448   1.640   8.658 -0.8041 -0.0956  0.3865
26347SOL     OW83402   8.427   9.320   8.017  0.1035 -0.3626  0.1386
26347SOL    HW183403   8.427   9.230   8.050  2.7897 -0.3215  0.4362
26347SOL    HW283404   8.517   9.349   8.025 -0.4695  2.0058 -1.0168
26348SOL     OW83405   8.403   4.411   0.671  0.1422 -0.5853 -0.8880
26348SOL    HW183406   8.458   4.400   0.594  2.1675  1.1471  0.2308
26348SOL    HW283407   8.346   4.485   0.650  1.1128  0.2826 -0.5416
26349SOL     OW83408   7.872   5.503   9.202 -0.4467 -0.2581  0.2004
26349SOL    HW183409   7.942   5.439   9.214  0.2284  0.7738  2.4873
26349SOL    HW283410   7.916   5.582   9.170 -0.9772 -0.3773 -0.8363
26350SOL     OW83411   6.189   0.443   6.539  0.4282 -0.4571 -0.5432
26350SOL    HW183412   6.203   0.353   6.511 -1.2833 -0.8721 -0.2296
26350SOL    HW283413   6.259   0.493   6.499  0.3297 -1.6432 -2.2733
26351SOL     OW83414   1.694  10.994   7.028 -0.0164 -0.4565 -0.1193
26351SOL    HW183415   1.722  11.057   7.095  0.4050  0.5600 -1.2145
26351SOL    HW283416   1.727  11.030   6.946 -0.0676 -1.9492 -0.8287
26352SOL     OW83417   5.787   6.815   1.062  0.3998  0.2155  0.4663
26352SOL    HW183418   5.863   6.792   1.116  1.0424  1.1022 -0.0336
26352SOL    HW283419   5.737   6.875   1.117  1.2093  1.3539 -0.0163
26353SOL     OW83420   2.958   6.147   0.215  0.1606  0.7460 -0.6237
26353SOL    HW183421   2.897   6.093   0.265 -0.6185 -0.1059 -2.4225
26353SOL    HW283422   2.906   6.185   0.144  0.8197  3.4360  0.2062
26354SOL     OW83423   2.841   0.880   5.222  0.1204 -0.0564  0.1887
26354SOL    HW183424   2.858   0.860   5.130  0.9442  1.3519  0.0042
26354SOL    HW283425   2.857   0.797   5.268 -0.1037 -0.7205 -0.9045
26355SOL     OW83426   7.235   7.263   0.911 -0.0729  0.3667  0.0979
26355SOL    HW183427   7.222   7.171   0.888 -1.0988  0.8540 -1.4206
26355SOL    HW283428   7.147   7.300   0.914  0.3594  1.4450  0.0359
26356SOL     OW83429   2.740   5.109   5.975 -0.1447 -0.4117  0.2962
26356SOL    HW183430   2.722   5.086   5.884 -0.8133 -0.0097  0.3198
26356SOL    HW283431   2.655   5.134   6.011  0.4295  1.6688  0.3757
26357SOL     OW83432   8.587   2.594   2.725  0.3619  0.2025 -0.0947
26357SOL    HW183433   8.505   2.587   2.677 -0.1332  2.9550  0.2080
26357SOL    HW283434   8.629   2.672   2.689  3.0648 -1.3009 -0.4919
26358SOL     OW83435   5.507   4.724   6.955 -0.2968 -0.1540  0.8473
26358SOL    HW183436   5.598   4.753   6.964 -0.3168  0.1637  0.1006
26358SOL    HW283437   5.464   4.795   6.908 -1.2675  0.3265  2.3810
26359SOL     OW83438   4.553  10.867   3.801 -0.2032  0.8379  0.1417
26359SOL    HW183439   4.497  10.827   3.735  0.3896  0.6980 -0.2714
26359SOL    HW283440   4.579  10.951   3.763 -1.4630  1.6797  1.0087
26360SOL     OW83441   0.189   6.199   9.155  0.3832  0.1478  0.2030
26360SOL    HW183442   0.212   6.240   9.238 -1.8442  2.2230 -0.0853
26360SOL    HW283443   0.262   6.221   9.096  0.4861  1.4513  0.7783
26361SOL     OW83444   6.694   5.416   7.400 -0.7373 -0.4876 -0.0818
26361SOL    HW183445   6.696   5.511   7.387  0.9295 -0.4992 -0.1928
26361SOL    HW283446   6.711   5.380   7.313 -0.1164 -0.8376  0.1727
26362SOL     OW83447   8.229   5.213   8.621  0.7479 -0.3377  0.3738
26362SOL    HW183448   8.283   5.136   8.641 -0.5804 -1.6086 -0.6932
26362SOL    HW283449   8.139   5.181   8.626  0.1819  0.7943 -1.4532
26363SOL     OW83450   1.076   1.191   1.703  0.3154 -0.6012  0.4997
26363SOL    HW183451   1.060   1.164   1.612  1.0438  2.1129 -0.5370
26363SOL    HW283452   0.993   1.227   1.733  0.6751  0.6934  0.0179
26364SOL     OW83453   1.996   5.156   5.889  0.4207  0.1019  0.3542
26364SOL    HW183454   2.028   5.127   5.804  0.2824 -0.9407  0.6442
26364SOL    HW283455   1.918   5.102   5.904 -0.3600  1.2512  0.5167
26365SOL     OW83456   7.781  10.995   6.083 -0.3511  0.8554  0.1102
26365SOL    HW183457   7.862  11.024   6.041 -1.0278  1.6306 -0.7241
26365SOL    HW283458   7.712  11.035   6.030 -1.2566  1.2114  1.5172
26366SOL     OW83459   1.291   6.488   1.916  0.4048 -0.0421  0.0814
26366SOL    HW183460   1.335   6.420   1.969  0.0335 -1.1150 -0.9485
26366SOL    HW283461   1.306   6.461   1.826 -0.7066  0.6556 -0.3226
26367SOL     OW83462   2.316   2.701   5.353  0.3222 -0.0378  0.9182
26367SOL    HW183463   2.243   2.754   5.384  0.4432  0.3226  0.5790
26367SOL    HW283464   2.392   2.758   5.360  0.3436  0.0695 -0.1095
26368SOL     OW83465   9.962   6.377   1.188 -0.3250 -0.3063  0.1402
26368SOL    HW183466  10.002   6.319   1.124  0.8323 -0.1567  0.6966
26368SOL    HW283467   9.970   6.464   1.149  0.0852 -0.2545  0.3287
26369SOL     OW83468   1.716   7.765   2.989 -0.2935  0.4881 -0.1138
26369SOL    HW183469   1.670   7.694   2.943  0.8456 -0.2387 -0.1532
26369SOL    HW283470   1.715   7.739   3.081 -0.6372  0.8574 -0.0112
26370SOL     OW83471   8.228   0.503   6.525  0.2851  0.3093  0.4676
26370SOL    HW183472   8.138   0.499   6.560 -0.0109  2.6203  0.1008
26370SOL    HW283473   8.216   0.504   6.430  0.6481  1.1641  0.4248
26371SOL     OW83474   9.610   1.662   3.668  0.8247  0.7178  0.4053
26371SOL    HW183475   9.618   1.714   3.747  0.0806  1.6960 -0.1494
26371SOL    HW283476   9.584   1.724   3.600 -0.3939 -0.4091 -0.2070
26372SOL     OW83477   6.692   5.095   1.422  0.3124 -0.1704  0.7906
26372SOL    HW183478   6.747   5.076   1.346 -0.5306  3.4747 -0.9938
26372SOL    HW283479   6.754   5.114   1.492  1.2257 -0.4295  0.0788
26373SOL     OW83480   0.062   8.334   3.735  0.5720 -0.2834  0.3496
26373SOL    HW183481  -0.014   8.290   3.694  0.0839  0.2619  0.6517
26373SOL    HW283482   0.104   8.380   3.662 -0.5651  1.0702  0.4882
26374SOL     OW83483   5.251   7.946   4.115 -0.2344 -0.3004 -0.3808
26374SOL    HW183484   5.293   7.957   4.029  0.3834 -1.6290 -0.2682
26374SOL    HW283485   5.158   7.939   4.096 -0.4356  2.2729 -0.6744
26375SOL     OW83486   2.545   6.493   6.117  0.2762 -0.6764  0.2010
26375SOL    HW183487   2.453   6.504   6.144 -0.2069 -3.3119 -0.0920
26375SOL    HW283488   2.593   6.554   6.172 -1.4225 -0.8842  2.0406
26376SOL     OW83489   3.928   6.446   3.533  0.5052 -0.2499  0.3562
26376SOL    HW183490   3.875   6.431   3.611 -0.4315 -0.4062 -0.2852
26376SOL    HW283491   3.907   6.372   3.475  0.0564  0.6272 -0.6259
26377SOL     OW83492   3.542   8.262   5.710  0.1127  0.8759  0.4231
26377SOL    HW183493   3.448   8.280   5.703  0.3046  1.8176  0.1306
26377SOL    HW283494   3.583   8.348   5.714  1.3671  0.8447 -4.6599
26378SOL     OW83495   9.007   5.211   8.665 -0.6803  0.1397  0.3725
26378SOL    HW183496   9.084   5.228   8.611  1.1673 -3.6929  1.4780
26378SOL    HW283497   8.943   5.174   8.605 -0.5870  0.6500 -0.0476
26379SOL     OW83498   6.568  10.202   7.548  0.1125  0.1712  0.3682
26379SOL    HW183499   6.490  10.197   7.603 -0.2103 -1.1063 -0.1792
26379SOL    HW283500   6.559  10.286   7.502 -0.6079  0.3305  0.7871
26380SOL     OW83501   0.974  10.542   6.975 -0.1223  0.5177 -0.3665
26380SOL    HW183502   0.895  10.561   7.027 -0.3561 -2.1029  0.3666
26380SOL    HW283503   0.943  10.542   6.885 -1.1701 -1.1187 -0.0501
26381SOL     OW83504   2.240  10.364   4.836 -0.1049  0.0930 -0.1642
26381SOL    HW183505   2.145  10.365   4.836 -0.1135 -0.4917 -0.4782
26381SOL    HW283506   2.264  10.421   4.763 -0.2069  0.4434  0.0725
26382SOL     OW83507   8.342   8.087   3.593  0.2144 -0.1071 -0.0129
26382SOL    HW183508   8.387   8.005   3.614 -0.6628 -0.2747  1.3900
26382SOL    HW283509   8.345   8.093   3.498  0.1658 -1.8614 -0.1565
26383SOL     OW83510   0.736   4.052   8.886 -0.6225 -0.0004  0.0423
26383SOL    HW183511   0.710   4.084   8.800 -0.2695  0.1020 -0.0272
26383SOL    HW283512   0.660   4.002   8.917 -0.4936 -0.6197 -0.6146
26384SOL     OW83513   5.796  10.151   8.878  0.3453 -0.4011 -0.5727
26384SOL    HW183514   5.756  10.110   8.801 -0.8730  1.9067 -1.2474
26384SOL    HW283515   5.739  10.126   8.951 -1.2712  1.2211 -1.2148
26385SOL     OW83516   6.835   8.822  10.739  0.0410  0.3353 -0.3741
26385SOL    HW183517   6.856   8.815  10.646  0.1980  0.5516 -0.3568
26385SOL    HW283518   6.739   8.830  10.742  0.1507  2.4150 -0.6666
26386SOL     OW83519   7.192   9.629   2.317  0.4117 -0.1751  0.0554
26386SOL    HW183520   7.139   9.583   2.252 -0.1484 -1.4700  1.3654
26386SOL    HW283521   7.144   9.710   2.334  0.1664 -0.1798 -0.5695
26387SOL     OW83522  10.661   4.794   7.056  0.1253  0.1716 -0.2517
26387SOL    HW183523  10.659   4.700   7.076 -0.8889  0.0531 -0.8342
26387SOL    HW283524  10.591   4.831   7.109 -1.9520  0.0058 -2.6523
26388SOL     OW83525   0.262   2.038   0.783 -0.0777 -0.1414 -0.2368
26388SOL    HW183526   0.314   1.989   0.848  0.1106 -0.3056 -0.5070
26388SOL    HW283527   0.311   2.119   0.770 -0.3098  0.0548  0.0980
26389SOL     OW83528   9.857   7.977   7.203 -0.1076  0.3746 -0.2963
26389SOL    HW183529   9.909   8.050   7.168  0.9118 -0.0516  0.2727
26389SOL    HW283530   9.859   7.990   7.298  0.4138 -0.5933 -0.1625
26390SOL     OW83531   8.090   0.695   5.140 -0.5994  0.2475 -0.1859
26390SOL    HW183532   8.153   0.665   5.206  0.3230  0.0940 -1.1032
26390SOL    HW283533   8.011   0.644   5.157  0.2949 -1.3280 -0.4668
26391SOL     OW83534   3.570   3.316  11.030 -0.4641  0.2087  0.3605
26391SOL    HW183535   3.653   3.341  11.070  0.6891 -1.0391 -1.1180
26391SOL    HW283536   3.527   3.263  11.097 -0.0149  0.7528  1.0973
26392SOL     OW83537   4.106  10.244   8.819  0.3837  0.8496 -0.2277
26392SOL    HW183538   4.146  10.213   8.900  2.4355 -1.1505 -1.8470
26392SOL    HW283539   4.149  10.328   8.801  0.6731  0.8060  0.2588
26393SOL     OW83540   9.668   6.161   5.684 -0.0861  0.7311  0.1478
26393SOL    HW183541   9.705   6.242   5.650  0.1519 -0.2852 -2.1785
26393SOL    HW283542   9.728   6.134   5.754  1.7756  0.8115 -1.3546
26394SOL     OW83543  10.471   5.941   7.059  0.4794 -0.6572  0.4777
26394SOL    HW183544  10.424   5.969   7.137  0.2473 -0.6122  0.3237
26394SOL    HW283545  10.547   6.000   7.054 -1.0673  1.3681 -0.9678
26395SOL     OW83546   2.956   6.665   3.405  0.0571 -0.2398 -0.3113
26395SOL    HW183547   2.873   6.643   3.363 -0.0637  0.4095 -0.4160
26395SOL    HW283548   2.931   6.697   3.492  0.2496 -0.6995 -0.0775
26396SOL     OW83549   5.941   1.227   5.336 -0.4638 -0.4249 -0.0150
26396SOL    HW183550   6.017   1.247   5.281  0.6127 -0.4762  1.4093
26396SOL    HW283551   5.940   1.132   5.343  1.3662 -0.3661  2.5956
26397SOL     OW83552   0.102   3.209   8.612 -0.5628 -0.3628 -0.4947
26397SOL    HW183553   0.112   3.212   8.516 -0.0909  3.6338 -0.4918
26397SOL    HW283554   0.187   3.180   8.643 -0.7545 -1.8251 -1.2432
26398SOL     OW83555   4.745   8.439   1.098 -0.6608 -0.4724 -0.9829
26398SOL    HW183556   4.811   8.502   1.127  0.2544 -1.5847 -0.5771
26398SOL    HW283557   4.759   8.431   1.004 -1.6091  0.8463 -1.2571
26399SOL     OW83558   6.666   7.583   2.349 -1.0443  0.5291  1.2239
26399SOL    HW183559   6.739   7.641   2.370 -1.8598  1.7777  0.7159
26399SOL    HW283560   6.706   7.511   2.300  0.1322  0.1223  2.7003
26400SOL     OW83561  11.000   1.690   1.253 -0.2439 -0.2356 -0.1966
26400SOL    HW183562  11.063   1.651   1.192  2.7423  0.9045  1.8997
26400SOL    HW283563  11.006   1.784   1.238 -2.7897 -0.1337 -1.0433
26401SOL     OW83564   1.631   5.368   1.758 -0.6061 -0.8359 -0.0798
26401SOL    HW183565   1.622   5.401   1.669 -2.1558 -2.6049 -0.6545
26401SOL    HW283566   1.684   5.434   1.803 -0.1119  0.2998 -2.1791
26402SOL     OW83567   5.529   2.256   2.297  0.2334  0.2411  0.1685
26402SOL    HW183568   5.447   2.289   2.334  1.3538  3.0033  0.3867
26402SOL    HW283569   5.529   2.163   2.321 -2.6271  0.1993  0.4619
26403SOL     OW83570   7.474   9.208   7.404 -0.2484  0.1621  0.0611
26403SOL    HW183571   7.532   9.171   7.337 -0.3560 -0.0493  0.0827
26403SOL    HW283572   7.532   9.226   7.478  0.1276  1.7312 -0.5852
26404SOL     OW83573   0.690   1.088   9.995 -0.0977  0.2679 -0.6589
26404SOL    HW183574   0.687   1.179  10.025 -0.6353  0.5850 -1.6254
26404SOL    HW283575   0.779   1.077   9.960 -0.2009  0.5881 -1.0263
26405SOL     OW83576   0.949   5.516   3.331 -0.2594 -0.0083 -0.4790
26405SOL    HW183577   0.900   5.495   3.411 -1.5088  0.4220 -1.1056
26405SOL    HW283578   1.034   5.474   3.344 -1.4341 -2.4899 -0.1743
26406SOL     OW83579   2.568   2.240   5.751  0.1680  0.6674 -0.1710
26406SOL    HW183580   2.605   2.299   5.817  1.1001 -0.2927  0.1975
26406SOL    HW283581   2.514   2.180   5.801 -0.1601  0.7327 -0.4476
26407SOL     OW83582   2.145   7.816   4.040  0.2430  0.3701 -0.0934
26407SOL    HW183583   2.177   7.895   3.996 -0.6124  0.6286 -0.2877
26407SOL    HW283584   2.100   7.768   3.971  2.3462 -1.2414 -0.4206
26408SOL     OW83585   6.331   1.058   5.925  0.2740 -0.1293 -0.0480
26408SOL    HW183586   6.252   1.082   5.877 -1.0557  1.0112  2.4917
26408SOL    HW283587   6.395   1.124   5.900 -0.3277  0.3281 -0.4124
26409SOL     OW83588   3.454   3.411   4.753 -0.1256 -0.1988  0.2356
26409SOL    HW183589   3.453   3.428   4.659  3.1737  2.6329  0.5059
26409SOL    HW283590   3.521   3.344   4.765 -0.0056 -0.0142  0.6188
26410SOL     OW83591   5.326   9.633   4.409 -0.2766 -0.3805  0.8083
26410SOL    HW183592   5.232   9.619   4.400 -0.2415 -0.5859  0.7539
26410SOL    HW283593   5.335   9.685   4.489 -0.2997 -2.1115  2.0049
26411SOL     OW83594   0.166   4.857   5.382 -0.3421 -0.0765 -0.1818
26411SOL    HW183595   0.192   4.766   5.393 -1.1057 -0.6226 -2.3310
26411SOL    HW283596   0.206   4.903   5.456 -0.9281 -2.3176  1.6145
26412SOL     OW83597   2.375   9.628   0.182  0.2467  0.4001  0.1129
26412SOL    HW183598   2.292   9.631   0.134 -0.1942  2.5903  0.9066
26412SOL    HW283599   2.441   9.617   0.114 -0.6759 -2.3821 -0.4648
26413SOL     OW83600   0.428   2.610   7.806 -1.2909  0.1173 -0.0788
26413SOL    HW183601   0.390   2.566   7.729 -3.8054  1.9542 -0.0274
26413SOL    HW283602   0.519   2.625   7.782 -1.4741 -1.1764 -1.8390
26414SOL     OW83603   2.208  11.060  10.299  0.1503  0.0752  0.0711
26414SOL    HW183604   2.145  11.074  10.369 -0.4714 -0.1182 -0.4417
26414SOL    HW283605   2.285  11.023  10.343 -0.2960 -0.2110  0.6265
26415SOL     OW83606   6.236  10.176   5.994 -0.4497  0.0187 -0.1240
26415SOL    HW183607   6.151  10.218   6.007  0.1919  1.3102  0.0397
26415SOL    HW283608   6.246  10.119   6.070 -0.9222  0.2887  0.1500
26416SOL     OW83609   7.593   8.107   5.715  0.4999  0.2413 -0.5398
26416SOL    HW183610   7.611   8.163   5.790  0.0392 -0.6621  0.2701
26416SOL    HW283611   7.514   8.144   5.675  0.2646  0.2290 -0.0812
26417SOL     OW83612  10.177   2.031  11.009 -0.1722 -0.0671  0.1053
26417SOL    HW183613  10.174   2.112  10.957  2.8125 -0.1033 -0.3040
26417SOL    HW283614  10.132   1.966  10.955  1.0101  0.4017 -1.5214
26418SOL     OW83615   3.848   5.901   7.438 -0.5927 -0.0792 -0.0427
26418SOL    HW183616   3.827   5.891   7.345 -0.3691 -1.4790  0.0330
26418SOL    HW283617   3.931   5.855   7.449 -1.6257 -1.7741  1.2149
26419SOL     OW83618   8.800   5.860  10.587  0.4650 -1.0265 -0.4735
26419SOL    HW183619   8.862   5.829  10.653  0.3608  0.6174  0.4695
26419SOL    HW283620   8.789   5.953  10.607 -1.7402 -1.1059 -1.0565
26420SOL     OW83621   8.460   2.616   0.884 -0.0606  0.1003  0.1821
26420SOL    HW183622   8.430   2.554   0.817  0.9401  2.0898 -2.2622
26420SOL    HW283623   8.394   2.684   0.885  1.1936  1.3977 -0.7729
26421SOL     OW83624   4.323  10.346  10.335 -0.0315  0.3531  0.2339
26421SOL    HW183625   4.327  10.442  10.340 -0.2578  0.3263  1.2048
26421SOL    HW283626   4.380  10.323  10.263  1.2927  1.1439  0.9943
26422SOL     OW83627   7.095   2.706   3.730  0.2063 -0.5237 -0.0622
26422SOL    HW183628   7.168   2.645   3.741  0.0484 -0.8617 -0.7944
26422SOL    HW283629   7.114   2.752   3.649 -0.2984 -0.4907 -0.1699
26423SOL     OW83630   9.626   3.244   1.833 -0.1610 -0.7484 -0.0421
26423SOL    HW183631   9.641   3.161   1.878  0.8515 -0.2037  0.6580
26423SOL    HW283632   9.713   3.272   1.804 -0.4116  0.3096  0.1764
26424SOL     OW83633   8.844   4.737   7.745 -0.1446 -0.1761  0.1635
26424SOL    HW183634   8.870   4.815   7.696  2.3126 -0.2406  1.2558
26424SOL    HW283635   8.836   4.767   7.835  0.1723 -1.0563  0.4942
26425SOL     OW83636   1.183   1.392   3.869 -0.7820  0.1748 -0.4202
26425SOL    HW183637   1.199   1.441   3.950 -1.6425  1.8897 -1.2298
26425SOL    HW283638   1.228   1.443   3.801 -1.7711 -0.1074 -1.3137
26426SOL     OW83639  10.491   1.963   0.918  0.8325  0.3654  0.2037
26426SOL    HW183640  10.557   1.941   0.984  1.3562 -0.7459 -0.6527
26426SOL    HW283641  10.479   1.882   0.869 -0.4359  0.8452 -0.3003
26427SOL     OW83642   2.906   5.700   8.701 -0.1954 -0.3273 -0.0331
26427SOL    HW183643   2.897   5.760   8.775 -1.5994  0.5988 -0.9022
26427SOL    HW283644   2.996   5.667   8.708 -0.3596 -0.4923  2.2142
26428SOL     OW83645   9.168   8.194   5.592  0.6712 -0.3420 -0.3023
26428SOL    HW183646   9.074   8.214   5.592  0.7422  0.0917  1.3483
26428SOL    HW283647   9.173   8.101   5.573 -0.0495 -0.2246 -1.1295
26429SOL     OW83648   1.817  10.206   2.199 -0.0665  0.4279 -0.1416
26429SOL    HW183649   1.822  10.219   2.294  1.7799  0.8092 -0.2647
26429SOL    HW283650   1.900  10.164   2.176  0.0487  1.4616 -1.7477
26430SOL     OW83651   8.884   9.698   0.326  0.5338  0.2837 -0.1693
26430SOL    HW183652   8.830   9.772   0.300  0.5644  1.1712  2.0651
26430SOL    HW283653   8.971   9.720   0.295  0.4693  1.0393  0.1545
26431SOL     OW83654   4.582   4.896   7.172  0.0837  0.0103  0.2304
26431SOL    HW183655   4.616   4.942   7.095  3.3144 -0.7219  1.0630
26431SOL    HW283656   4.643   4.918   7.242 -0.8604 -1.9447  1.7602
26432SOL     OW83657   1.840   4.772   2.349  0.5152  0.5764  0.3309
26432SOL    HW183658   1.843   4.858   2.389 -1.3091  0.5229  0.6811
26432SOL    HW283659   1.766   4.776   2.288  1.8147 -0.0474 -1.3804
26433SOL     OW83660   7.975   1.323  11.108 -0.3289  0.3581 -0.3330
26433SOL    HW183661   8.028   1.391  11.150  0.2134 -0.5773  0.5435
26433SOL    HW283662   7.923   1.285  11.179 -0.8961  0.1023 -0.8779
26434SOL     OW83663   8.304   5.808   5.723 -0.8051 -0.1804 -0.6068
26434SOL    HW183664   8.212   5.833   5.735 -1.7374 -3.3265 -0.4532
26434SOL    HW283665   8.302   5.737   5.660  1.5955 -0.0709 -0.8817
26435SOL     OW83666   4.655   4.766   9.777 -0.1749  0.2558  0.1812
26435SOL    HW183667   4.595   4.692   9.786 -1.9051  1.5459 -0.2085
26435SOL    HW283668   4.711   4.761   9.855 -1.8806 -0.0862  1.4494
26436SOL     OW83669   1.709   3.878   8.898  0.8634  0.0294  0.6045
26436SOL    HW183670   1.722   3.885   8.803 -0.1723 -1.9227  0.2673
26436SOL    HW283671   1.650   3.950   8.919  0.1578 -0.2154 -0.4552
26437SOL     OW83672  10.196   8.912   4.339  0.0652 -0.4687  0.2676
26437SOL    HW183673  10.235   8.959   4.265 -2.5605 -1.1606 -1.7106
26437SOL    HW283674  10.175   8.980   4.403  0.0893  0.5304 -0.7571
26438SOL     OW83675   4.763   0.519   5.842  0.1431 -0.2032 -0.1512
26438SOL    HW183676   4.719   0.552   5.763 -0.7458  0.2414  0.5023
26438SOL    HW283677   4.842   0.475   5.810 -0.3395 -0.2609 -1.3046
26439SOL     OW83678   9.700   3.423   5.176  0.2001 -0.0969 -0.1217
26439SOL    HW183679   9.758   3.452   5.106  2.3352 -3.3903  0.0522
26439SOL    HW283680   9.748   3.351   5.218 -1.6942  0.5840  3.6514
26440SOL     OW83681   0.622   8.846   8.618 -0.9724 -0.1949  0.5197
26440SOL    HW183682   0.588   8.927   8.657 -0.4845  0.7160 -0.8657
26440SOL    HW283683   0.657   8.797   8.692  1.6195  2.2891  1.0905
26441SOL     OW83684   6.731   5.201  10.049  0.4083 -0.0781 -0.1792
26441SOL    HW183685   6.740   5.216  10.144  0.0521  1.4895 -0.3594
26441SOL    HW283686   6.755   5.109  10.037 -2.2428 -1.1864  1.8234
26442SOL     OW83687   7.761   4.196  11.113  0.5041 -0.0432  0.0714
26442SOL    HW183688   7.740   4.107  11.087  1.0842 -0.5428  1.2363
26442SOL    HW283689   7.848   4.213  11.077  1.2566 -0.6927  1.4968
26443SOL     OW83690   5.753   6.557  10.839  0.1276 -0.4357 -0.3809
26443SOL    HW183691   5.767   6.641  10.794 -0.8338  0.3474  0.7284
26443SOL    HW283692   5.818   6.555  10.908 -0.8343  0.1401  0.5727
26444SOL     OW83693   6.499  10.012   6.509 -0.0933 -0.0634  0.0144
26444SOL    HW183694   6.570   9.949   6.521  1.0832  0.8320 -1.8342
26444SOL    HW283695   6.420   9.957   6.502  0.8013 -1.3077 -0.8212
26445SOL     OW83696  10.869   9.921   3.288 -0.3046 -0.6400  0.0808
26445SOL    HW183697  10.948   9.924   3.342 -0.7535 -3.2233  1.0477
26445SOL    HW283698  10.901   9.905   3.200  0.3644  2.1178 -0.2715
26446SOL     OW83699   8.230   6.780   1.343  0.5907  0.4775  0.0087
26446SOL    HW183700   8.175   6.713   1.385  0.1461 -0.1834 -1.5282
26446SOL    HW283701   8.172   6.855   1.333  1.1695  1.2442  1.9885
26447SOL     OW83702   8.911   7.630   8.075 -0.9660  0.1324  0.6001
26447SOL    HW183703   8.955   7.622   8.159  1.7992 -1.4268 -0.8426
26447SOL    HW283704   8.857   7.551   8.069 -0.4919 -0.1946  0.5789
26448SOL     OW83705   0.654   2.527   0.788  0.0665  0.1693 -0.3248
26448SOL    HW183706   0.625   2.471   0.861  0.3488 -0.2440 -0.5304
26448SOL    HW283707   0.573   2.551   0.743  0.0663 -1.7420 -1.4569
26449SOL     OW83708   3.836   8.761   8.057  0.2642  0.0233 -0.3009
26449SOL    HW183709   3.750   8.743   8.019  1.0137 -0.7192 -1.6966
26449SOL    HW283710   3.862   8.845   8.019 -0.1800  0.6724  0.7760
26450SOL     OW83711   2.996   4.989   5.969  0.1465  0.0015 -0.6038
26450SOL    HW183712   3.054   5.032   6.031  1.2158 -2.9752  0.6520
26450SOL    HW283713   2.917   5.043   5.967  0.6850  1.0400  2.2021
26451SOL     OW83714   9.584  11.068   6.867  0.3701  0.4975  0.4581
26451SOL    HW183715   9.544  11.119   6.937  0.3807 -1.3052  1.8323
26451SOL    HW283716   9.512  11.047   6.808  0.2481  1.4593  0.2419
26452SOL     OW83717   4.001   5.715  10.316 -0.3767  0.9438  0.0930
26452SOL    HW183718   3.946   5.699  10.239 -2.4081 -2.2964  1.9726
26452SOL    HW283719   3.939   5.735  10.386  0.9685 -0.5608  1.8127
26453SOL     OW83720   3.609   9.806   2.112 -0.5826  0.4890 -0.3915
26453SOL    HW183721   3.543   9.759   2.164  1.4562 -0.1623  1.7943
26453SOL    HW283722   3.636   9.878   2.169  0.7590  0.5939 -1.1358
26454SOL     OW83723   2.522   1.105   7.833 -0.2474 -0.1714 -0.2085
26454SOL    HW183724   2.454   1.170   7.852  0.6845  1.2589 -1.5096
26454SOL    HW283725   2.475   1.022   7.830 -1.9188  0.7328 -0.8299
26455SOL     OW83726   0.131   7.013   4.918 -0.6692 -0.3306  0.2127
26455SOL    HW183727   0.081   6.955   4.860 -3.1083 -0.1255  1.9421
26455SOL    HW283728   0.078   7.093   4.921  1.2803  1.0330 -0.0636
26456SOL     OW83729   9.127   2.398   5.432 -0.3754  0.6435  0.0399
26456SOL    HW183730   9.147   2.450   5.510  0.8365  0.3152 -0.0308
26456SOL    HW283731   9.098   2.314   5.466 -1.5130  1.0633  0.1432
26457SOL     OW83732   5.373   6.081   1.777 -0.3619 -0.0248  0.1826
26457SOL    HW183733   5.400   6.004   1.726  1.1840 -0.5816  1.7552
26457SOL    HW283734   5.321   6.133   1.715 -0.9679 -2.0233 -1.1039
26458SOL     OW83735   8.391   4.247   4.191  0.0600  0.0943  0.2082
26458SOL    HW183736   8.383   4.292   4.107  1.7282 -1.9137 -1.1246
26458SOL    HW283737   8.315   4.189   4.195  0.2797 -0.2256 -0.2053
26459SOL     OW83738   5.695   9.623   4.534  0.0339  0.3065 -0.5879
26459SOL    HW183739   5.639   9.657   4.604  0.5131 -0.0744 -0.0024
26459SOL    HW283740   5.778   9.669   4.545  1.3826 -2.3030  1.4695
26460SOL     OW83741   7.453   1.196   6.502  0.0580  1.0116  0.3368
26460SOL    HW183742   7.432   1.259   6.571  2.1406  3.5367 -1.1289
26460SOL    HW283743   7.511   1.134   6.544  1.3473  2.5441  0.9369
26461SOL     OW83744   1.948  10.124   6.215  0.0629  0.4558 -0.3361
26461SOL    HW183745   1.986  10.054   6.161 -1.4668 -0.1149 -0.7319
26461SOL    HW283746   1.993  10.203   6.186 -1.7917  0.4743 -3.7700
26462SOL     OW83747  10.420   2.193   0.810 -0.0434  0.8955 -0.3651
26462SOL    HW183748  10.423   2.101   0.834 -0.6196  1.3554  1.6209
26462SOL    HW283749  10.344   2.201   0.752  0.4469  0.0193 -1.1468
26463SOL     OW83750  10.812   3.179   9.336  0.4339  0.0707  0.4774
26463SOL    HW183751  10.828   3.093   9.375  0.3078 -0.3535 -0.3739
26463SOL    HW283752  10.719   3.196   9.355  0.5804  0.2450  1.0625
26464SOL     OW83753   4.329   8.096   2.384  0.4977 -0.6120  0.0941
26464SOL    HW183754   4.402   8.140   2.427  0.7137  0.9234 -1.7130
26464SOL    HW283755   4.252   8.147   2.410  0.3639 -0.8835  0.2327
26465SOL     OW83756   7.509   8.004   0.293  0.1302  0.5503  0.0020
26465SOL    HW183757   7.601   8.013   0.265  0.8825 -0.4523  1.9888
26465SOL    HW283758   7.488   8.088   0.333 -0.8230  1.8458 -2.9067
26466SOL     OW83759  10.463   2.688   2.052  0.5240  0.3604 -0.0149
26466SOL    HW183760  10.523   2.615   2.040 -0.1276 -0.1281 -0.3858
26466SOL    HW283761  10.477   2.744   1.976  0.7654  0.4331  0.0837
26467SOL     OW83762   2.524  10.443   8.565  0.1186  0.0836 -0.2125
26467SOL    HW183763   2.449  10.402   8.609  1.0136 -2.6765 -1.0424
26467SOL    HW283764   2.488  10.478   8.484 -0.3681 -0.8810 -0.4303
26468SOL     OW83765   7.851   8.405   3.545 -0.1002 -0.1690 -0.0543
26468SOL    HW183766   7.785   8.473   3.557  1.6165  1.6895 -0.5468
26468SOL    HW283767   7.820   8.353   3.471  0.4321  2.6102 -2.3766
26469SOL     OW83768   0.212   3.524   4.680  0.0216 -0.4227 -0.8040
26469SOL    HW183769   0.286   3.518   4.741  0.5439  1.5387 -1.1490
26469SOL    HW283770   0.147   3.576   4.727  0.5335  1.3431 -1.9433
26470SOL     OW83771   8.055   7.680   8.533 -0.3436 -0.0883  0.2041
26470SOL    HW183772   7.976   7.645   8.492 -1.8084  0.5135  2.3666
26470SOL    HW283773   8.086   7.609   8.590 -0.1688  0.2080  0.4802
26471SOL     OW83774   7.055   6.768   3.295  0.3278  0.3974 -0.3503
26471SOL    HW183775   7.123   6.705   3.274 -0.5395 -0.1392 -1.6946
26471SOL    HW283776   7.092   6.821   3.365  1.2947 -1.2441  0.4432
26472SOL     OW83777   9.798  10.432   3.930 -0.3046  0.3436 -0.3194
26472SOL    HW183778   9.794  10.471   4.017 -2.2028 -0.1246 -0.1625
26472SOL    HW283779   9.714  10.454   3.890 -1.0677 -2.7006 -0.5786
26473SOL     OW83780   6.950   1.597   7.569 -0.3323 -0.5843 -0.4170
26473SOL    HW183781   6.977   1.550   7.648 -2.4738 -1.0574  0.0795
26473SOL    HW283782   6.862   1.629   7.588  0.0077  1.3175 -1.7664
26474SOL     OW83783   5.098   7.081   5.040 -0.0036  0.0237  0.0398
26474SOL    HW183784   5.104   6.995   5.082  0.6597  0.5021  0.9705
26474SOL    HW283785   5.006   7.106   5.047  0.0689  0.0335  1.1276
26475SOL     OW83786   5.509   6.585   1.219 -0.3355  0.1283  0.3162
26475SOL    HW183787   5.496   6.677   1.197 -1.9298 -0.1228  0.1188
26475SOL    HW283788   5.505   6.583   1.315  2.3548  0.5969  0.5300
26476SOL     OW83789   0.337  10.655   3.642  0.0140  0.1699 -0.3331
26476SOL    HW183790   0.352  10.733   3.589  1.6979 -0.2713 -0.5556
26476SOL    HW283791   0.321  10.689   3.730 -1.1820  0.8321 -0.7795
26477SOL     OW83792   2.157   0.072   5.628  0.9833  0.5656 -0.2793
26477SOL    HW183793   2.094   0.100   5.562 -1.0169 -1.6711  0.5667
26477SOL    HW283794   2.137   0.126   5.705  0.1210 -0.0759 -0.0419
26478SOL     OW83795  10.895   7.097   4.598 -0.0624 -0.0126  0.7688
26478SOL    HW183796  10.818   7.123   4.649 -0.1950  0.2312  0.4532
26478SOL    HW283797  10.863   7.090   4.508  0.1560 -0.4971  0.7291
26479SOL     OW83798   6.618   7.800   8.227  0.3622 -0.1585  0.1746
26479SOL    HW183799   6.558   7.874   8.217  0.9793  0.3479  0.2219
26479SOL    HW283800   6.700   7.829   8.188  0.8045 -0.5840  0.7705
26480SOL     OW83801   9.503   9.340   0.967 -0.1285  0.2027  0.4611
26480SOL    HW183802   9.446   9.297   0.903  0.5814 -0.6050  0.3636
26480SOL    HW283803   9.534   9.269   1.024  2.4273  0.2618 -0.7293
26481SOL     OW83804   0.191   2.648   0.682  0.0301  0.5095 -0.2622
26481SOL    HW183805   0.161   2.566   0.721 -1.1815  1.2227  0.3989
26481SOL    HW283806   0.285   2.651   0.700 -0.2694  0.2162  1.5573
26482SOL     OW83807   6.037   2.710   8.109 -0.7592 -0.2437 -0.7904
26482SOL    HW183808   6.121   2.744   8.081  0.4205 -2.0580  0.2974
26482SOL    HW283809   6.025   2.744   8.198  0.4049 -2.3813  0.2859
26483SOL     OW83810   0.250   4.102   4.548  0.3697  0.7001  0.2617
26483SOL    HW183811   0.244   4.102   4.452 -0.7967 -1.2804  0.2869
26483SOL    HW283812   0.304   4.025   4.568 -1.8684 -0.6980  1.2386
26484SOL     OW83813  10.987  10.368   3.460  0.0386 -0.7212  0.1382
26484SOL    HW183814  10.906  10.401   3.420 -0.3693 -2.2346 -0.3905
26484SOL    HW283815  11.020  10.440   3.513 -1.3151  0.1513 -0.1652
26485SOL     OW83816   6.809   4.699   8.378  0.3991  0.5614 -0.8883
26485SOL    HW183817   6.839   4.613   8.348 -2.7975 -1.9683  2.2360
26485SOL    HW283818   6.862   4.716   8.457 -0.5289  0.2416 -0.1774
26486SOL     OW83819   3.056   0.954   6.789 -0.2150  0.0651 -0.0377
26486SOL    HW183820   3.144   0.939   6.823 -0.6964  0.6120  1.5606
26486SOL    HW283821   3.007   0.988   6.864 -0.8879  3.1927 -1.7147
26487SOL     OW83822   0.171   0.586  10.314 -0.1137 -0.5462 -0.0142
26487SOL    HW183823   0.117   0.524  10.364 -0.9432 -0.9775 -1.3870
26487SOL    HW283824   0.129   0.591  10.228  1.5899 -0.2819 -0.8824
26488SOL     OW83825   9.777   8.559   4.540 -0.2654 -0.7990  0.4622
26488SOL    HW183826   9.703   8.500   4.530  0.1614 -1.7175  2.2482
26488SOL    HW283827   9.826   8.524   4.614  1.9149 -0.1592 -0.5773
26489SOL     OW83828   3.411   9.469  10.334  0.5206  0.2313  0.4633
26489SOL    HW183829   3.407   9.553  10.287 -0.1542 -0.7918 -1.4288
26489SOL    HW283830   3.400   9.403  10.265 -1.9367 -1.3679  2.2077
26490SOL     OW83831   0.366   4.564   2.026  0.7216  0.2418 -0.0045
26490SOL    HW183832   0.378   4.658   2.014 -1.6480  0.4620 -1.3007
26490SOL    HW283833   0.312   4.557   2.105 -0.4268  0.1204 -0.7746
26491SOL     OW83834   0.307   8.941   3.905  0.2933  0.1718 -0.1846
26491SOL    HW183835   0.374   8.873   3.901  0.5135  0.3324  0.6134
26491SOL    HW283836   0.235   8.902   3.955  0.3602  0.4696  0.1487
26492SOL     OW83837   7.720   3.907  11.090  0.1221  0.1039  0.4410
26492SOL    HW183838   7.639   3.878  11.132  1.4721 -1.0736  2.3936
26492SOL    HW283839   7.730   3.848  11.014  0.8636 -2.1538  2.1839
26493SOL     OW83840   4.139   9.224   2.113  0.0170  0.2418  0.1613
26493SOL    HW183841   4.086   9.209   2.035  0.3037  0.2796 -0.0456
26493SOL    HW283842   4.154   9.319   2.115  1.8906  0.0311 -1.0155
26494SOL     OW83843   6.411   2.620   1.302  0.2557  0.1438  0.3278
26494SOL    HW183844   6.353   2.618   1.226 -0.8215 -1.6712  1.1319
26494SOL    HW283845   6.468   2.544   1.290  1.6171  1.1431  0.2292
26495SOL     OW83846   4.375   7.853   6.276  0.1236  0.2774 -0.1519
26495SOL    HW183847   4.412   7.765   6.278 -2.0350 -0.6975  0.2039
26495SOL    HW283848   4.392   7.888   6.363  0.3499 -0.0874 -0.0458
26496SOL     OW83849   5.194   3.177   3.838  0.1187  0.4501  0.0617
26496SOL    HW183850   5.261   3.114   3.864  0.0827  0.5432  0.3938
26496SOL    HW283851   5.186   3.167   3.743 -0.1611 -0.3214  0.1569
26497SOL     OW83852   5.173   9.197   5.517  0.4523  0.2137  0.1967
26497SOL    HW183853   5.252   9.240   5.483  0.1133  1.6947  1.1804
26497SOL    HW283854   5.200   9.160   5.601 -0.3366  2.4961  1.5299
26498SOL     OW83855   7.481   5.206   8.698 -0.4588  0.0432 -0.1636
26498SOL    HW183856   7.510   5.276   8.755 -1.3243  0.0011  0.3488
26498SOL    HW283857   7.473   5.130   8.755 -0.6945 -0.1667 -0.4692
26499SOL     OW83858   2.151   7.710   3.404 -0.2562 -0.0541  0.4591
26499SOL    HW183859   2.215   7.669   3.462 -1.3958 -0.5213  1.4205
26499SOL    HW283860   2.144   7.649   3.330  0.0023 -0.2830  0.6195
26500SOL     OW83861   6.031   2.011   4.869  0.4026  0.3147  0.1425
26500SOL    HW183862   5.975   2.087   4.879  0.6403  0.4115  0.8379
26500SOL    HW283863   6.116   2.040   4.902  0.3387 -0.4260  1.0025
26501SOL     OW83864   5.871   4.916   8.447 -0.4687 -0.9358 -0.3176
26501SOL    HW183865   5.802   4.926   8.513  0.3132 -0.8418  0.5036
26501SOL    HW283866   5.828   4.871   8.374 -1.6145 -0.1116 -0.1828
26502SOL     OW83867   7.711   1.997   8.348  0.4708  0.5773  0.1627
26502SOL    HW183868   7.681   2.074   8.397  0.8900  1.2827 -0.6502
26502SOL    HW283869   7.685   2.015   8.258  1.7760  0.4106 -0.2661
26503SOL     OW83870   7.194   4.763  10.964  0.6893  0.0139 -0.3030
26503SOL    HW183871   7.225   4.831  11.023 -1.3724 -1.3919  2.6715
26503SOL    HW283872   7.140   4.706  11.019 -0.6192 -2.0182 -3.3784
26504SOL     OW83873   1.570   7.998   4.368  0.0998  0.0721  0.2376
26504SOL    HW183874   1.560   8.072   4.308 -0.3641  0.9615  1.3794
26504SOL    HW283875   1.637   8.027   4.430 -0.2061 -0.4142  0.8002
26505SOL     OW83876   5.899  10.523   3.240 -0.3271  0.2395 -0.3828
26505SOL    HW183877   5.969  10.588   3.233  0.1912  0.3891  3.5974
26505SOL    HW283878   5.940  10.441   3.211  0.3986  0.9131 -1.3259
26506SOL     OW83879  10.640   5.438  10.612  0.1269 -0.2689 -0.7383
26506SOL    HW183880  10.725   5.482  10.608  1.0779 -1.7489  1.1788
26506SOL    HW283881  10.576   5.508  10.604  1.5585  1.5765  2.0925
26507SOL     OW83882   8.902   4.098   3.945  0.3207 -0.2432  0.1880
26507SOL    HW183883   8.834   4.095   4.012  2.1752  0.7873  2.2079
26507SOL    HW283884   8.886   4.180   3.898 -0.3672 -0.4717  0.0089
26508SOL     OW83885   8.752   0.499   4.971  0.4151  0.5248  0.1652
26508SOL    HW183886   8.685   0.560   4.938  0.2975  1.2857  1.7277
26508SOL    HW283887   8.830   0.519   4.919  0.4566  2.2285  0.8331
26509SOL     OW83888   2.597   7.536   3.700 -0.0912  0.5264 -0.3944
26509SOL    HW183889   2.597   7.571   3.611  1.3278 -1.0264 -1.0514
26509SOL    HW283890   2.686   7.504   3.713 -0.5891 -0.3162  1.1592
26510SOL     OW83891  10.340   0.657   1.072 -0.4078 -0.5312  0.1024
26510SOL    HW183892  10.294   0.660   1.156 -1.6260 -0.4245 -0.5465
26510SOL    HW283893  10.290   0.716   1.016  0.4328 -0.5535 -0.6806
26511SOL     OW83894   9.268   4.655   0.586 -0.6477 -0.3403  0.4182
26511SOL    HW183895   9.302   4.738   0.551  1.1464 -0.4539  1.7165
26511SOL    HW283896   9.197   4.681   0.645 -1.2734  0.1144 -0.5141
26512SOL     OW83897   7.823   8.048   7.850  0.3590  0.0150 -0.0969
26512SOL    HW183898   7.813   8.104   7.927 -1.9218  0.7198 -0.8448
26512SOL    HW283899   7.857   8.107   7.783  0.7822 -0.2239 -0.0972
26513SOL     OW83900   2.844  10.266  10.983  0.1547  0.1322 -0.0782
26513SOL    HW183901   2.773  10.298  11.039  1.4248  2.8255  0.1278
26513SOL    HW283902   2.801  10.206  10.922 -2.0281  0.5617  0.9410
26514SOL     OW83903   1.930   6.910   3.721  0.4672  0.1620  0.0614
26514SOL    HW183904   1.849   6.888   3.766  0.7863 -0.0211  0.5623
26514SOL    HW283905   1.999   6.875   3.778  0.8941  0.3246 -0.3498
26515SOL     OW83906   6.577   4.243   9.590  0.1505 -0.1027  0.2233
26515SOL    HW183907   6.520   4.308   9.548 -0.5431 -0.8214  0.0265
26515SOL    HW283908   6.633   4.211   9.520 -1.3736 -1.6998 -0.3455
26516SOL     OW83909   4.306   1.172   6.190  0.1777 -0.0540  0.1274
26516SOL    HW183910   4.266   1.221   6.118  0.2083  0.8904  0.7311
26516SOL    HW283911   4.292   1.080   6.168 -0.6504  0.2380 -0.6078
26517SOL     OW83912   8.552   3.181  10.136 -0.4420  0.2821  0.1935
26517SOL    HW183913   8.579   3.102  10.089 -0.3401  0.4658 -0.0556
26517SOL    HW283914   8.456   3.183  10.126 -0.7983 -1.3057  2.5248
26518SOL     OW83915   5.909   3.989   3.718 -0.0928 -0.6747 -0.0223
26518SOL    HW183916   5.910   4.036   3.802 -2.5892  0.6436 -0.6309
26518SOL    HW283917   5.819   3.996   3.688  0.9036 -0.3712 -3.2614
26519SOL     OW83918   1.360   6.107   5.484 -1.1278 -0.0909 -0.2905
26519SOL    HW183919   1.320   6.118   5.570 -0.8823 -0.0190 -0.1835
26519SOL    HW283920   1.410   6.188   5.470 -0.5742 -0.4058 -0.1788
26520SOL     OW83921   1.195   7.399   9.974  0.2182  0.6974  0.4160
26520SOL    HW183922   1.232   7.384  10.061  0.9795  2.3054  0.4137
26520SOL    HW283923   1.144   7.479   9.983  1.6699  1.8521 -0.9492
26521SOL     OW83924   4.183   2.520  10.785  0.4335  0.2928 -0.2679
26521SOL    HW183925   4.168   2.586  10.852 -0.3188 -0.3019  0.1647
26521SOL    HW283926   4.126   2.447  10.809  2.9121 -1.5054  0.5930
26522SOL     OW83927   6.740   0.657   8.489  0.1220  0.1066 -0.2871
26522SOL    HW183928   6.715   0.589   8.551  1.4012 -1.0112 -0.9434
26522SOL    HW283929   6.713   0.739   8.530 -0.1917 -0.7011  1.1608
26523SOL     OW83930   6.634   4.911  10.597 -0.0025  0.4748  0.2453
26523SOL    HW183931   6.654   4.951  10.512  1.3794 -0.7055 -0.0214
26523SOL    HW283932   6.702   4.845  10.609 -2.1937 -1.8557  0.6448
26524SOL     OW83933   7.168   4.816   2.471 -0.5676 -0.1451 -0.6138
26524SOL    HW183934   7.079   4.818   2.506 -0.1412 -0.8544  0.5915
26524SOL    HW283935   7.191   4.723   2.469  0.0782  0.0152 -1.1036
26525SOL     OW83936   5.786   2.504   0.260 -0.3659 -0.3417 -0.2683
26525SOL    HW183937   5.726   2.460   0.199 -0.6055  1.8265 -1.6883
26525SOL    HW283938   5.871   2.463   0.243 -0.8308 -1.2282 -0.5351
26526SOL     OW83939   3.420   4.100   4.602  0.2496  0.4780 -0.2425
26526SOL    HW183940   3.336   4.054   4.614  1.2458 -1.5850 -0.6570
26526SOL    HW283941   3.472   4.075   4.678  2.0792 -2.2039 -2.1586
26527SOL     OW83942   8.251  10.616   9.538  0.1610  0.2113  0.2289
26527SOL    HW183943   8.219  10.532   9.507 -1.6101  0.5229  1.0675
26527SOL    HW283944   8.282  10.600   9.627  0.9758  0.2208 -0.0428
26528SOL     OW83945   1.100   0.548   3.857  0.3044 -0.3048  0.3945
26528SOL    HW183946   1.134   0.595   3.932  0.8688 -1.4941  0.9115
26528SOL    HW283947   1.020   0.506   3.889 -1.1144  1.5685 -0.5082
26529SOL     OW83948   9.239   3.890   5.332 -0.1606 -0.3776 -0.0150
26529SOL    HW183949   9.240   3.973   5.380  0.5429 -1.0980  1.2905
26529SOL    HW283950   9.176   3.835   5.379 -0.3071 -0.7254 -0.6054
26530SOL     OW83951   8.297   7.367   9.816  0.0752 -0.4750 -0.1783
26530SOL    HW183952   8.308   7.428   9.889  1.3854 -1.1593  0.2362
26530SOL    HW283953   8.225   7.310   9.843 -0.8873  0.6046 -0.3909
26531SOL     OW83954   7.726   3.153   0.386  0.0836  0.2352 -0.4526
26531SOL    HW183955   7.786   3.206   0.333  1.6924 -1.5966 -0.5608
26531SOL    HW283956   7.778   3.123   0.460 -0.2398 -2.4068 -1.1736
26532SOL     OW83957   0.354   7.808   4.758 -0.2155 -0.4378  0.4643
26532SOL    HW183958   0.379   7.728   4.804 -3.1084 -2.6840 -1.4341
26532SOL    HW283959   0.295   7.853   4.819  2.1991  0.9008  1.9357
26533SOL     OW83960   3.609   5.833   6.374  0.4108  0.0322 -0.2984
26533SOL    HW183961   3.520   5.798   6.386  0.7773 -0.7549  0.1421
26533SOL    HW283962   3.596   5.909   6.317 -0.9397  1.6554  1.9942
26534SOL     OW83963   1.167   6.794   7.430 -0.0895 -0.2788  0.2755
26534SOL    HW183964   1.202   6.774   7.343 -0.0740 -0.2568  0.2764
26534SOL    HW283965   1.240   6.835   7.476 -0.3584  0.5282  0.0026
26535SOL     OW83966  10.437  10.661   4.550 -0.0381 -0.3575 -0.3041
26535SOL    HW183967  10.458  10.580   4.504  2.0576  0.9656 -1.9083
26535SOL    HW283968  10.420  10.635   4.640  0.4618 -2.5794 -0.8045
26536SOL     OW83969   3.448   1.864   8.999  0.4227 -0.3796 -0.2206
26536SOL    HW183970   3.377   1.826   9.052  1.8387 -1.5898  0.9143
26536SOL    HW283971   3.446   1.957   9.020 -0.8606 -0.3910 -0.2449
26537SOL     OW83972   2.427   7.257  10.886  0.1038  0.3657 -0.4684
26537SOL    HW183973   2.511   7.240  10.928  0.1901  0.5324 -0.5748
26537SOL    HW283974   2.450   7.288  10.798 -0.0716  0.2389 -0.5603
26538SOL     OW83975   5.139   0.579   8.783 -0.1080 -0.7900  0.5373
26538SOL    HW183976   5.063   0.561   8.839  0.8276 -1.3399  1.7079
26538SOL    HW283977   5.110   0.646   8.722 -1.7043 -1.4158  0.5647
26539SOL     OW83978   0.036   9.284   5.998 -0.5568 -0.3093  0.0394
26539SOL    HW183979   0.023   9.236   5.916 -1.0468 -0.8410  0.4205
26539SOL    HW283980   0.021   9.376   5.975  1.1331 -0.2170 -0.8678
26540SOL     OW83981   8.732   9.129  10.193 -0.4599  0.4249 -0.0173
26540SOL    HW183982   8.719   9.097  10.104 -0.9803 -1.5470  0.7220
26540SOL    HW283983   8.644   9.131  10.231  0.0523 -2.5110  1.6098
26541SOL     OW83984   0.974   2.330   3.670 -0.2059 -0.2764 -0.0065
26541SOL    HW183985   0.977   2.396   3.601  0.1023 -0.2301  0.0488
26541SOL    HW283986   1.052   2.277   3.655 -0.0327 -0.1459  0.4242
26542SOL     OW83987   4.266   1.821   2.347 -0.4185 -0.1466 -0.1035
26542SOL    HW183988   4.220   1.793   2.267 -2.6913  0.4257  0.9107
26542SOL    HW283989   4.205   1.882   2.389  0.8890 -0.1126  1.8786
26543SOL     OW83990   8.633   1.378   5.577  0.0150 -0.3844  0.2418
26543SOL    HW183991   8.587   1.406   5.498  1.9258 -1.6474 -1.4268
26543SOL    HW283992   8.714   1.338   5.544  1.1145 -0.5018  2.8856
26544SOL     OW83993   6.680   6.342   5.816  0.0636 -0.1710 -0.0647
26544SOL    HW183994   6.765   6.360   5.857  0.1362  0.7974 -0.6201
26544SOL    HW283995   6.690   6.254   5.779  0.4865 -0.4635  0.7125
26545SOL     OW83996   5.507   4.025  11.115 -0.1659 -0.1083 -0.1251
26545SOL    HW183997   5.582   4.084  11.112 -0.0196 -0.3090 -0.4867
26545SOL    HW283998   5.500   3.999  11.207 -0.2968  0.5531  0.0554
26546SOL     OW83999   5.964   1.637   7.273 -0.2336 -0.1637  0.0158
26546SOL    HW184000   5.944   1.661   7.182 -0.9744  0.0633  0.2276
26546SOL    HW284001   5.898   1.683   7.324 -0.1132 -0.6674  0.6327
26547SOL     OW84002   1.135   4.465   0.174 -0.3314 -0.3161  0.4764
26547SOL    HW184003   1.179   4.549   0.185 -1.5926  0.4877 -0.3046
26547SOL    HW284004   1.185   4.404   0.228  2.1748  0.3341 -0.9754
26548SOL     OW84005   5.979   2.143   2.614  0.2169 -0.6119  0.8231
26548SOL    HW184006   6.013   2.221   2.570  0.2240 -1.4000 -0.6145
26548SOL    HW284007   5.950   2.174   2.700  1.9413  0.6247  1.0067
26549SOL     OW84008   8.766   2.797   8.682 -0.1006 -0.2255  0.2721
26549SOL    HW184009   8.711   2.847   8.621  1.6988 -0.5412 -1.7395
26549SOL    HW284010   8.784   2.858   8.753  0.1106  1.2331 -0.9679
26550SOL     OW84011   7.671  10.392   6.944  0.3147 -0.5700  0.5509
26550SOL    HW184012   7.653  10.483   6.924 -0.6559 -0.5539  1.4004
26550SOL    HW284013   7.592  10.345   6.919 -0.2127 -0.8019  2.4819
26551SOL     OW84014   8.003  11.020  10.522  0.5231 -0.4841  0.1606
26551SOL    HW184015   7.983  10.997  10.432 -0.5123  0.0665  0.2360
26551SOL    HW284016   8.090  11.060  10.518  0.8349 -1.2042 -0.4623
26552SOL     OW84017   1.015   1.420   8.703  0.4012 -0.1519 -0.7677
26552SOL    HW184018   1.096   1.378   8.675  0.3783 -0.3190 -0.5859
26552SOL    HW284019   1.005   1.496   8.645  1.8641  1.1824  0.6270
26553SOL     OW84020   8.346   5.439   9.145  0.5665 -0.2516  0.2530
26553SOL    HW184021   8.352   5.503   9.074  0.5293 -0.3822  0.1315
26553SOL    HW284022   8.407   5.471   9.212  1.1296 -0.5038 -0.1318
26554SOL     OW84023   0.812   2.109   3.691 -0.5193  0.0132  0.4938
26554SOL    HW184024   0.871   2.184   3.693 -0.2962 -0.1060 -0.6471
26554SOL    HW284025   0.731   2.140   3.731  0.0307  0.4324  1.3116
26555SOL     OW84026   0.039   6.795   7.379  0.5738  0.2642 -0.5276
26555SOL    HW184027   0.107   6.770   7.441 -0.1291 -0.8330 -0.1640
26555SOL    HW284028  -0.010   6.714   7.363 -0.3709  0.9292 -1.1140
26556SOL     OW84029   5.167   1.257   2.736  0.1118  0.6646  0.2483
26556SOL    HW184030   5.171   1.328   2.800 -1.3030  0.1817  0.9131
26556SOL    HW284031   5.147   1.300   2.653 -1.1285  1.0439  0.7150
26557SOL     OW84032   0.574   1.136   3.888  0.9176  0.5272 -0.0494
26557SOL    HW184033   0.505   1.202   3.899  0.7932  0.3358  0.3246
26557SOL    HW284034   0.601   1.145   3.796 -0.1277  0.1046 -0.4190
26558SOL     OW84035   5.610   9.771   9.383 -0.0914 -1.0566 -0.6010
26558SOL    HW184036   5.579   9.771   9.474 -0.3825  1.9534 -0.6129
26558SOL    HW284037   5.609   9.678   9.358 -2.7468 -1.7288  1.5260
26559SOL     OW84038   7.606   5.512   4.010 -0.2205  0.7681 -0.2302
26559SOL    HW184039   7.670   5.576   3.981  0.0723  0.2425 -0.7589
26559SOL    HW284040   7.651   5.428   4.004 -0.2940  0.5911  1.3536
26560SOL     OW84041   6.314   0.031   4.254  0.0598 -0.1453  0.1570
26560SOL    HW184042   6.399  -0.005   4.228  0.2446  1.0157 -0.9002
26560SOL    HW284043   6.258   0.016   4.178 -0.0748  1.0654  0.0096
26561SOL     OW84044   8.189   2.628   1.222 -0.5901 -0.0022 -0.2059
26561SOL    HW184045   8.156   2.710   1.257  0.4071  0.7299 -0.9072
26561SOL    HW284046   8.256   2.654   1.158 -0.3566 -1.3506 -0.5531
26562SOL     OW84047  10.320   9.149   7.962  0.5360 -0.1312 -0.5222
26562SOL    HW184048  10.373   9.127   8.038  0.2564 -1.1376 -0.6030
26562SOL    HW284049  10.339   9.241   7.945  0.5053  0.1419  0.8338
26563SOL     OW84050   9.285  10.628   1.392 -0.2915  0.6516 -0.3260
26563SOL    HW184051   9.191  10.644   1.381 -0.7267  0.7811  2.8399
26563SOL    HW284052   9.297  10.537   1.365 -1.1290  0.8576 -1.4984
26564SOL     OW84053   3.869   3.481  10.472  0.7637 -0.1770  0.2891
26564SOL    HW184054   3.932   3.427  10.424 -1.2186 -1.8050 -0.6012
26564SOL    HW284055   3.832   3.539  10.405  1.9339  1.4686  0.9956
26565SOL     OW84056   5.063   6.837   2.314  0.3668  0.0579 -0.0624
26565SOL    HW184057   5.138   6.834   2.372 -1.2173 -2.6118  2.0984
26565SOL    HW284058   5.003   6.900   2.354  0.0191 -0.4369  0.2044
26566SOL     OW84059   2.801   7.196  10.650  0.5357  0.1030  0.1068
26566SOL    HW184060   2.725   7.215  10.596  1.0099  1.0616 -0.2505
26566SOL    HW284061   2.828   7.108  10.625 -2.2559 -1.5815  2.4257
26567SOL     OW84062   0.294   7.899   7.229  0.3894 -0.4653  0.6412
26567SOL    HW184063   0.221   7.863   7.179  1.3875 -0.6838 -0.7105
26567SOL    HW284064   0.308   7.837   7.301 -1.3907  0.1160  1.5373
26568SOL     OW84065   0.742   4.809   3.605 -0.0979 -0.0291 -0.1170
26568SOL    HW184066   0.834   4.823   3.627 -0.3516  1.6859 -0.0298
26568SOL    HW284067   0.717   4.731   3.654  1.2194 -0.3475  0.0853
26569SOL     OW84068   7.602   1.205   5.539  0.1992  0.2096 -0.0120
26569SOL    HW184069   7.623   1.297   5.552  1.8198 -0.3328  1.6632
26569SOL    HW284070   7.676   1.169   5.491  0.5479 -0.6034  1.0922
26570SOL     OW84071   9.709  10.170   7.060 -0.0590 -0.3753  0.0030
26570SOL    HW184072   9.738  10.246   7.110  1.8966 -0.0925 -1.4459
26570SOL    HW284073   9.698  10.202   6.971 -1.0010 -1.4154 -0.2802
26571SOL     OW84074   2.508   7.674   8.739 -0.1089  0.4826 -0.2774
26571SOL    HW184075   2.522   7.654   8.647  0.0268  1.9594 -0.6174
26571SOL    HW284076   2.523   7.769   8.745 -0.3620  0.4577  1.2147
26572SOL     OW84077   3.204   6.938   7.061  0.3935 -0.3768 -0.8949
26572SOL    HW184078   3.151   7.013   7.035  0.3129 -0.6904 -1.6772
26572SOL    HW284079   3.252   6.967   7.138  0.7297  0.6471 -1.4771
26573SOL     OW84080   6.032  10.650   9.931  0.3316 -0.2690  0.2185
26573SOL    HW184081   6.114  10.641   9.882  0.1589  0.8846 -0.3284
26573SOL    HW284082   5.965  10.616   9.872  0.2125  0.4447 -0.0682
26574SOL     OW84083   4.423   4.871   2.473 -0.1659 -0.1776  0.1506
26574SOL    HW184084   4.516   4.846   2.475 -0.3546 -1.0637 -0.7481
26574SOL    HW284085   4.405   4.885   2.380 -0.2774  2.7075  0.5429
26575SOL     OW84086   9.960  10.913   7.447 -0.0950 -0.3259  0.3655
26575SOL    HW184087  10.041  10.884   7.489  0.7030  0.6164 -0.4686
26575SOL    HW284088   9.986  10.938   7.359 -1.0709  1.1164  0.4466
26576SOL     OW84089   2.350   7.603   7.953  0.2376  0.5013  0.2379
26576SOL    HW184090   2.387   7.545   7.887 -0.7508  0.8064 -0.6101
26576SOL    HW284091   2.415   7.673   7.962 -0.0301  0.9681 -1.1426
26577SOL     OW84092   9.008   3.613   8.881 -0.3471 -0.1357  0.7255
26577SOL    HW184093   8.922   3.636   8.847  0.4324  1.6799 -0.1846
26577SOL    HW284094   9.034   3.536   8.831 -0.6009  0.5307 -0.4581
26578SOL     OW84095  10.852   4.778   9.661  0.3516 -0.0466 -0.0536
26578SOL    HW184096  10.940   4.747   9.684  0.7869  1.8985  1.1499
26578SOL    HW284097  10.853   4.782   9.565  1.5663 -0.1529 -0.0653
26579SOL     OW84098   0.654   3.116  10.124 -0.1684 -0.0507 -0.1648
26579SOL    HW184099   0.596   3.166  10.182 -2.0681 -2.5460  0.2538
26579SOL    HW284100   0.697   3.053  10.182 -0.2108 -0.9625 -1.1075
26580SOL     OW84101   2.181   4.590   9.169  0.6678 -0.8679 -0.6559
26580SOL    HW184102   2.105   4.549   9.128 -0.2696 -0.8970  1.0243
26580SOL    HW284103   2.238   4.517   9.193  0.3543 -0.9956 -0.2812
26581SOL     OW84104   2.214   0.083   5.233 -0.0285 -0.7167  0.0746
26581SOL    HW184105   2.264   0.042   5.304 -1.2298 -1.7997  0.3296
26581SOL    HW284106   2.189   0.010   5.176 -1.1211 -0.1682 -0.1664
26582SOL     OW84107  11.057   6.633  10.648 -0.3275  0.1364 -0.1685
26582SOL    HW184108  11.150   6.652  10.666 -0.3986 -0.6576  1.2247
26582SOL    HW284109  11.045   6.656  10.556  1.1170  0.7834 -0.2253
26583SOL     OW84110  10.393   4.841   0.397  0.3806  0.2201 -0.1056
26583SOL    HW184111  10.375   4.935   0.389 -0.3540  0.0569 -0.4458
26583SOL    HW284112  10.320   4.808   0.449  1.2566  0.0267  1.0231
26584SOL     OW84113   4.032   8.015   9.456 -0.3528  0.6603 -0.1218
26584SOL    HW184114   4.095   8.046   9.521  1.6989  0.5109 -1.9356
26584SOL    HW284115   4.004   8.094   9.411 -2.9201  0.9676  1.7528
26585SOL     OW84116   2.929   7.010   7.734  0.2419 -0.7152 -0.3438
26585SOL    HW184117   2.885   7.048   7.810  2.8841 -0.4195  1.1631
26585SOL    HW284118   2.953   7.085   7.680 -0.4741 -0.8216 -0.8200
26586SOL     OW84119   0.697   9.636   5.272 -0.3226  0.5595 -0.4710
26586SOL    HW184120   0.766   9.663   5.211 -0.1916  0.0683 -0.5463
26586SOL    HW284121   0.664   9.718   5.308  1.1432  0.7772  0.4845
26587SOL     OW84122   2.766   2.747   4.803  0.3819 -0.4370 -0.2581
26587SOL    HW184123   2.767   2.670   4.860  0.5378  1.3061  2.2743
26587SOL    HW284124   2.854   2.784   4.811  0.1429  0.3252 -0.9896
26588SOL     OW84125  10.468   5.560   9.490 -0.4417  0.0799  0.7614
26588SOL    HW184126  10.493   5.559   9.398  1.4201  0.8786  1.2075
26588SOL    HW284127  10.508   5.481   9.527 -1.1020 -0.1900  0.9140
26589SOL     OW84128   4.777   7.971   0.152  0.5255 -0.3069  0.2701
26589SOL    HW184129   4.861   8.010   0.172  0.2957  0.0256  0.5878
26589SOL    HW284130   4.786   7.939   0.062  1.8009 -2.4440  1.0939
26590SOL     OW84131   5.878   8.684   3.692 -0.1241 -0.3501  0.3092
26590SOL    HW184132   5.868   8.604   3.640  0.5850 -0.2678  0.0411
26590SOL    HW284133   5.800   8.735   3.672  0.7237  0.2383 -1.6694
26591SOL     OW84134   1.481   7.825   0.367 -0.4855 -0.4214 -0.2909
26591SOL    HW184135   1.455   7.917   0.372 -1.2699 -0.6605  0.2633
26591SOL    HW284136   1.456   7.788   0.451  1.0181 -0.8640 -0.0104
26592SOL     OW84137   3.413   9.274   4.362  0.0131  0.1409 -0.1841
26592SOL    HW184138   3.457   9.208   4.308  0.0858 -0.5752  0.7176
26592SOL    HW284139   3.325   9.238   4.374 -0.0139  0.3177  0.1375
26593SOL     OW84140   7.218   0.111   3.295 -0.5852  0.0742  0.4733
26593SOL    HW184141   7.265   0.182   3.252 -0.3583 -0.0110  0.5757
26593SOL    HW284142   7.168   0.154   3.364  0.1129  0.0599  1.0043
26594SOL     OW84143   7.199   8.885   1.846 -0.2433  0.3135  0.2375
26594SOL    HW184144   7.205   8.966   1.796  0.0740  0.4167  0.4405
26594SOL    HW284145   7.271   8.831   1.814 -0.2502  0.2439  0.3401
26595SOL     OW84146   3.003   1.641   0.871 -0.2217 -0.1162 -0.1353
26595SOL    HW184147   3.087   1.686   0.875  0.4748 -1.0563 -2.5380
26595SOL    HW284148   2.993   1.600   0.957  1.1348  1.0863  0.6306
26596SOL     OW84149   1.765  10.460   9.653 -0.3381  0.5883  0.4154
26596SOL    HW184150   1.854  10.486   9.677 -0.4411  1.3927 -0.0609
26596SOL    HW284151   1.775  10.371   9.617  0.2502  0.6210  0.4857
26597SOL     OW84152  10.420   3.163   7.834 -0.0662  0.3485 -0.0153
26597SOL    HW184153  10.340   3.216   7.825 -0.4931  0.0589  1.6411
26597SOL    HW284154  10.467   3.176   7.751 -0.7440  2.3345 -0.1593
26598SOL     OW84155   9.827   2.668   8.119 -0.2434 -0.3601  0.3260
26598SOL    HW184156   9.864   2.690   8.204 -0.5070 -0.3025  0.4293
26598SOL    HW284157   9.874   2.724   8.057 -0.2252 -0.2161  0.4677
26599SOL     OW84158   9.077   0.511   8.056 -0.0652  0.2530 -0.0485
26599SOL    HW184159   9.057   0.439   7.996  0.0338  0.4911 -0.3714
26599SOL    HW284160   9.042   0.589   8.013  1.2553  0.6385 -0.4921
26600SOL     OW84161   3.898   7.045   5.087  0.5789 -0.4444  0.1831
26600SOL    HW184162   3.807   7.049   5.116  0.6151 -0.3084  0.2807
26600SOL    HW284163   3.941   6.992   5.154 -0.1399 -3.7489 -1.7372
26601SOL     OW84164   4.266   5.440   0.881 -0.2230 -0.2214 -0.0124
26601SOL    HW184165   4.327   5.457   0.809 -0.1046  0.9740  0.3462
26601SOL    HW284166   4.181   5.430   0.839 -0.1306  0.3274 -0.3456
26602SOL     OW84167   4.998   9.346   8.490 -0.2394  0.0071  0.1962
26602SOL    HW184168   5.028   9.436   8.483 -0.6299  0.0487 -1.4339
26602SOL    HW284169   4.938   9.335   8.416 -0.3505 -1.5342  0.4798
26603SOL     OW84170   4.078   3.648   2.884 -0.3456  0.2977  0.5267
26603SOL    HW184171   4.130   3.570   2.900 -0.3350  0.2430  0.2255
26603SOL    HW284172   4.067   3.651   2.789 -0.0067  0.8790  0.5022
26604SOL     OW84173   3.883   6.751   1.547 -0.1768  0.7105  0.2914
26604SOL    HW184174   3.829   6.829   1.535 -2.5992 -0.9327 -0.2818
26604SOL    HW284175   3.945   6.754   1.474  0.2644  2.4258  0.6820
26605SOL     OW84176   5.848   4.358  10.679  0.2702  0.2283  0.2447
26605SOL    HW184177   5.903   4.436  10.674  0.7322 -0.0853  0.3808
26605SOL    HW284178   5.853   4.320  10.591 -0.2926  0.5793  0.0605
26606SOL     OW84179   8.739   4.133   8.650 -0.0364 -0.0075  0.1640
26606SOL    HW184180   8.765   4.156   8.739 -1.3114  2.0296  0.0871
26606SOL    HW284181   8.786   4.196   8.595  0.0362 -0.6580 -0.5244
26607SOL     OW84182   1.819   0.662   5.498  0.6022  0.7872 -0.0335
26607SOL    HW184183   1.878   0.688   5.426  0.8541 -0.4867 -0.3129
26607SOL    HW284184   1.874   0.608   5.555 -0.3103 -0.5838 -0.3918
26608SOL     OW84185   5.820   9.397   1.131 -0.0396  0.0831  0.4252
26608SOL    HW184186   5.775   9.443   1.060  0.5288 -0.2580 -0.1749
26608SOL    HW284187   5.759   9.399   1.204 -0.3701  1.0308  0.1395
26609SOL     OW84188   4.326   4.731  11.021  0.2073  0.0447 -0.3232
26609SOL    HW184189   4.238   4.747  10.988  0.1084  2.1084  0.7936
26609SOL    HW284190   4.313   4.701  11.111  0.6362  1.8477  0.3754
26610SOL     OW84191   7.393   9.540  11.006  0.0113  0.0895 -0.3377
26610SOL    HW184192   7.480   9.537  10.966 -0.4770 -0.0310 -1.4129
26610SOL    HW284193   7.368   9.633  11.003  1.0987  0.5579  2.2404
26611SOL     OW84194   1.089  10.279  10.611  0.7278  0.2183  0.4885
26611SOL    HW184195   1.061  10.192  10.582 -0.2875  0.0508  1.8999
26611SOL    HW284196   1.053  10.338  10.544  3.1384 -0.5210 -1.6301
26612SOL     OW84197   0.953   8.054  10.642  0.5533  0.3429 -0.4095
26612SOL    HW184198   0.925   8.105  10.718  0.1115 -1.3194  0.6201
26612SOL    HW284199   1.001   7.980  10.680  1.2031  0.0102 -1.8282
26613SOL     OW84200   8.648   0.158   6.127  0.0482 -0.0083 -0.1913
26613SOL    HW184201   8.628   0.066   6.145 -0.1063 -0.0822 -0.7385
26613SOL    HW284202   8.603   0.206   6.197 -1.5359 -0.2137 -1.0361
26614SOL     OW84203   9.804   7.104   2.947 -0.3350  0.0973  0.1488
26614SOL    HW184204   9.846   7.145   3.022  0.5164 -0.2802 -0.1129
26614SOL    HW284205   9.750   7.034   2.984 -1.5212  1.1782  0.5702
26615SOL     OW84206   6.434   3.388   2.131 -0.0653 -0.0413 -0.4977
26615SOL    HW184207   6.488   3.309   2.136 -0.9480 -0.6712 -0.7215
26615SOL    HW284208   6.367   3.367   2.066 -0.2075  0.9602 -0.6814
26616SOL     OW84209   1.611   6.281   3.422  0.1550 -0.1580 -0.9824
26616SOL    HW184210   1.553   6.315   3.490 -0.0874 -0.5247 -1.0009
26616SOL    HW284211   1.591   6.187   3.419 -0.1512 -0.0709 -1.8701
26617SOL     OW84212   5.307   9.005   2.276 -0.6048  0.1156 -0.5738
26617SOL    HW184213   5.269   8.917   2.276 -0.7666  0.1840 -1.3047
26617SOL    HW284214   5.255   9.053   2.341 -1.5549  0.1087 -1.3187
26618SOL     OW84215   8.543   5.383   6.519  0.3009  0.0353  0.1665
26618SOL    HW184216   8.556   5.328   6.596 -0.1517 -1.9119 -1.0753
26618SOL    HW284217   8.621   5.370   6.466 -0.0280  0.1992 -0.3694
26619SOL     OW84218   9.109   1.257   7.096 -0.1835  0.0420  0.4134
26619SOL    HW184219   9.177   1.190   7.087 -0.9923 -0.4888 -4.0451
26619SOL    HW284220   9.028   1.207   7.108 -0.3034  0.5491  2.0702
26620SOL     OW84221   1.956   5.213   2.367  0.0211 -0.7605  0.1597
26620SOL    HW184222   2.029   5.275   2.376  0.9961 -1.8385 -0.1125
26620SOL    HW284223   1.992   5.140   2.317 -1.5732 -0.8257 -1.0003
26621SOL     OW84224   6.747   4.874   4.570 -0.2905 -0.2205  0.3896
26621SOL    HW184225   6.761   4.951   4.625  3.3220  1.0108 -1.8293
26621SOL    HW284226   6.775   4.800   4.624 -1.2943  0.3077  1.6836
26622SOL     OW84227   5.500  10.232   3.219 -0.1315  0.4204  0.1629
26622SOL    HW184228   5.410  10.252   3.244  0.4278  2.2086  0.9303
26622SOL    HW284229   5.493  10.196   3.130 -1.7015 -0.9466  0.7851
26623SOL     OW84230   0.274   6.553   1.801 -0.6344 -0.0125  0.2411
26623SOL    HW184231   0.337   6.624   1.789  0.2106 -0.6438  0.8502
26623SOL    HW284232   0.202   6.575   1.742  0.9076 -0.1616 -1.7882
26624SOL     OW84233   8.593  10.269   0.023  0.1564  0.3849  0.1898
26624SOL    HW184234   8.642  10.351   0.032  0.0663  0.2200  3.2822
26624SOL    HW284235   8.658  10.201   0.042  0.5783 -0.5020 -3.6502
26625SOL     OW84236   3.859   3.026   7.951 -0.3284  0.5288  0.9307
26625SOL    HW184237   3.834   3.017   7.859 -1.5854  0.0930  1.2837
26625SOL    HW284238   3.952   3.003   7.954  0.0118  1.6328 -0.3834
26626SOL     OW84239   2.531  10.095   4.287 -0.6440  0.6292  0.3053
26626SOL    HW184240   2.511  10.188   4.292 -0.0906  0.7626  0.1173
26626SOL    HW284241   2.450  10.055   4.255 -1.3651  0.8519  1.7629
26627SOL     OW84242   3.753   8.964   2.411  0.2746 -0.4663 -0.7719
26627SOL    HW184243   3.747   8.893   2.474 -0.2386  0.6538  0.4721
26627SOL    HW284244   3.811   8.930   2.342  0.2315 -1.9791 -0.0920
26628SOL     OW84245  10.514   0.479   1.265 -0.4719 -0.7042  0.0725
26628SOL    HW184246  10.493   0.562   1.222  0.9586 -0.3320  0.0445
26628SOL    HW284247  10.576   0.437   1.206 -1.4495 -1.9729 -0.0772
26629SOL     OW84248   7.472   5.861   1.586 -0.3623 -0.1006 -0.0642
26629SOL    HW184249   7.459   5.787   1.527 -1.1839  0.9714 -1.2550
26629SOL    HW284250   7.567   5.873   1.587 -0.3368 -0.0393 -1.3056
26630SOL     OW84251   8.607   7.644   3.482 -0.0040 -0.3394  0.3236
26630SOL    HW184252   8.672   7.699   3.525 -0.0603 -0.6040  0.7511
26630SOL    HW284253   8.634   7.555   3.501  0.9215 -0.5218 -1.5868
26631SOL     OW84254   3.180   7.669   9.517 -0.0756  0.5621  0.0306
26631SOL    HW184255   3.170   7.583   9.477 -0.6464  0.0584  1.1926
26631SOL    HW284256   3.257   7.707   9.475 -0.1925 -0.2589 -0.9430
26632SOL     OW84257   5.495   3.709   7.185 -0.3017  0.3239  0.1258
26632SOL    HW184258   5.451   3.654   7.250  0.2238 -0.9669 -0.5651
26632SOL    HW284259   5.583   3.671   7.176 -0.3733  0.4229 -1.3540
26633SOL     OW84260   7.549  11.016  10.080 -0.4395  0.4644  0.4803
26633SOL    HW184261   7.567  10.922  10.080 -3.9751 -0.3731  0.8110
26633SOL    HW284262   7.522  11.035  10.170 -1.8017  1.2711 -0.0635
26634SOL     OW84263   4.866   5.990   9.271  0.8639 -0.5482  0.2486
26634SOL    HW184264   4.915   6.033   9.341  1.1733 -2.1443  1.0536
26634SOL    HW284265   4.918   6.007   9.192  1.8236 -0.7738  0.8112
26635SOL     OW84266   9.363   4.910   0.494 -0.6966 -0.3892  0.4717
26635SOL    HW184267   9.292   4.936   0.436 -1.0394 -0.7937  0.7033
26635SOL    HW284268   9.368   4.981   0.559 -0.1214  0.2068 -0.2016
26636SOL     OW84269   0.135   3.814  10.639 -0.1504 -0.3687  0.3006
26636SOL    HW184270   0.184   3.778  10.712  0.3169 -1.1548 -0.3889
26636SOL    HW284271   0.047   3.777  10.648  0.3773 -1.9185 -0.5211
26637SOL     OW84272   7.230  10.244   7.401  0.4563 -0.7644 -0.8143
26637SOL    HW184273   7.298  10.180   7.423  2.0655  0.7846 -1.1067
26637SOL    HW284274   7.168  10.195   7.347 -0.1120 -2.9021  1.5696
26638SOL     OW84275   4.961   1.782   5.657  0.4396 -0.1743 -0.8610
26638SOL    HW184276   4.988   1.749   5.742 -2.3454 -0.0539  0.1668
26638SOL    HW284277   4.978   1.876   5.661 -1.3823  0.1629  0.3793
26639SOL     OW84278   3.825   3.236   3.292  0.0384  0.5249 -0.0428
26639SOL    HW184279   3.883   3.251   3.217 -0.2901  0.7369 -0.2556
26639SOL    HW284280   3.737   3.245   3.256 -0.1747 -1.0999 -0.0010
26640SOL     OW84281   7.528   5.414  10.567  0.0281 -0.3604 -0.5486
26640SOL    HW184282   7.573   5.369  10.496  1.1028  1.3929 -1.0448
26640SOL    HW284283   7.552   5.506  10.556 -2.4448  0.4510  0.1110
26641SOL     OW84284   0.920   0.336   0.452 -0.6033 -0.3260 -0.3429
26641SOL    HW184285   0.884   0.375   0.532 -0.0503  1.7588 -1.0232
26641SOL    HW284286   1.013   0.323   0.471 -0.2744  1.0056 -0.8658
26642SOL     OW84287   3.413   2.525   2.954  0.2892  0.1097 -0.0447
26642SOL    HW184288   3.410   2.614   2.990 -1.3390  0.1721 -0.2809
26642SOL    HW284289   3.346   2.477   3.002 -0.1944 -0.4645 -1.2639
26643SOL     OW84290   7.166  10.543  11.043 -0.0431 -0.2156 -0.1959
26643SOL    HW184291   7.131  10.631  11.028 -1.1399 -0.8161 -1.2922
26643SOL    HW284292   7.240  10.537  10.983 -0.0248 -0.0876 -0.1874
26644SOL     OW84293   2.374   9.788   9.450  0.2517 -0.2807  0.0083
26644SOL    HW184294   2.358   9.746   9.534  1.7256  0.3578  0.6368
26644SOL    HW284295   2.446   9.738   9.411  1.4733  1.0991  0.4018
26645SOL     OW84296   0.272   4.426   9.318  0.2660 -0.2046  0.1227
26645SOL    HW184297   0.257   4.406   9.225  2.0415 -1.6769  0.1149
26645SOL    HW284298   0.353   4.476   9.319  1.3662 -1.9226  1.0118
26646SOL     OW84299   8.044   9.226   7.172 -0.1348  0.6312 -0.6380
26646SOL    HW184300   8.005   9.268   7.249 -1.0891 -1.8607  0.3259
26646SOL    HW284301   7.974   9.225   7.107 -0.7750 -1.0769  0.0176
26647SOL     OW84302   8.534   7.858   6.001 -0.5882  0.2119  0.1447
26647SOL    HW184303   8.525   7.826   6.090  0.6381  0.3302  0.3258
26647SOL    HW284304   8.445   7.882   5.975 -0.8462  0.9055  1.5923
26648SOL     OW84305  11.038   7.162   0.144  0.2094  0.5020 -0.8919
26648SOL    HW184306  11.071   7.159   0.054 -0.4276  0.5049 -1.1261
26648SOL    HW284307  10.947   7.189   0.136 -0.3009 -0.9667 -0.3648
26649SOL     OW84308   0.650   8.866  10.995 -0.0082 -0.0349  0.8289
26649SOL    HW184309   0.731   8.817  11.010  0.7421  1.0211  0.3416
26649SOL    HW284310   0.634   8.856  10.901 -0.4873 -0.2959  0.9373
26650SOL     OW84311   2.714   8.758   9.742  0.5517  0.1658 -0.1521
26650SOL    HW184312   2.747   8.819   9.675  0.2409 -0.2392 -0.6773
26650SOL    HW284313   2.697   8.677   9.694 -0.4226  0.1126  0.2598
26651SOL     OW84314   4.054   5.206   6.911  0.1781  0.0157 -0.0402
26651SOL    HW184315   4.074   5.160   6.830 -0.5670 -0.6485  0.1293
26651SOL    HW284316   4.086   5.295   6.898 -0.7617  0.1751 -1.4171
26652SOL     OW84317   0.757   4.980   2.565 -0.2618 -0.1593  0.0249
26652SOL    HW184318   0.709   5.054   2.526 -0.0975  1.3132  2.3970
26652SOL    HW284319   0.688   4.925   2.603 -0.2498  0.6532  1.2785
26653SOL     OW84320   2.671   0.516   3.479 -0.2464  0.3478 -0.2689
26653SOL    HW184321   2.686   0.609   3.496 -0.4946  0.0544  1.7744
26653SOL    HW284322   2.723   0.470   3.545 -0.4757 -0.9827 -0.9630
26654SOL     OW84323   3.138   0.712   9.473 -0.2582  0.2868 -0.6581
26654SOL    HW184324   3.137   0.778   9.542  0.9976  0.1424 -0.4840
26654SOL    HW284325   3.063   0.656   9.491  0.3023 -0.0055  0.8507
26655SOL     OW84326   2.759   5.107   4.934  0.3984  0.6181  0.3617
26655SOL    HW184327   2.746   5.196   4.967  0.3149  1.2050 -1.1444
26655SOL    HW284328   2.790   5.119   4.844  1.5502 -0.8748  0.5133
26656SOL     OW84329  10.581   5.730   4.884 -0.2818 -0.6057 -0.3102
26656SOL    HW184330  10.643   5.658   4.871 -1.3840 -1.8568  0.9377
26656SOL    HW284331  10.612   5.773   4.964 -0.3181 -0.4631 -0.3735
26657SOL     OW84332   4.981   1.977   1.418 -0.1150  0.1193  0.1795
26657SOL    HW184333   4.973   1.959   1.324  0.5914 -0.5653  0.2451
26657SOL    HW284334   4.900   1.943   1.456  1.0601 -2.8690  0.2761
26658SOL     OW84335   8.659   4.187   7.143  0.2531 -0.6268  0.5928
26658SOL    HW184336   8.654   4.215   7.052 -0.2972  1.0906  1.1027
26658SOL    HW284337   8.586   4.126   7.153  0.9577 -1.6605 -0.3512
26659SOL     OW84338   5.728   4.133   2.569  0.0804 -0.2632  0.1099
26659SOL    HW184339   5.799   4.089   2.616  1.1356  0.2690 -0.9385
26659SOL    HW284340   5.655   4.072   2.574  0.9732 -1.3636  0.2188
26660SOL     OW84341   3.761   5.455   3.396  0.3777 -0.0387  0.6372
26660SOL    HW184342   3.688   5.418   3.447 -0.0756  1.3369  1.0255
26660SOL    HW284343   3.746   5.423   3.307 -0.4717 -0.1224  0.7935
26661SOL     OW84344  10.666   9.630   4.173 -0.2870  0.5881  0.2756
26661SOL    HW184345  10.599   9.661   4.112 -0.3304  0.0518  0.0436
26661SOL    HW284346  10.621   9.566   4.227  0.3805 -0.8592 -0.8314
26662SOL     OW84347  10.668   5.666   8.234  0.5801  0.3397  0.2232
26662SOL    HW184348  10.711   5.621   8.162  0.6494 -0.9975  1.0715
26662SOL    HW284349  10.683   5.759   8.216 -0.4984  0.1056 -2.1257
26663SOL     OW84350   0.349  10.038   9.172  0.3840 -0.2638 -0.0003
26663SOL    HW184351   0.294   9.994   9.108  1.9982  1.1847 -2.5330
26663SOL    HW284352   0.415  10.085   9.120  2.0845  0.6426  2.7346
26664SOL     OW84353   6.547   9.061   6.864  0.2726  0.1166 -0.0361
26664SOL    HW184354   6.554   9.008   6.784  0.7177 -0.1773  0.1919
26664SOL    HW284355   6.511   9.144   6.834 -0.6167 -0.3746 -0.3765
26665SOL     OW84356   0.611   4.434   7.741 -0.1637  0.0595  0.2697
26665SOL    HW184357   0.580   4.524   7.732  1.3589  0.5694 -0.3326
26665SOL    HW284358   0.624   4.404   7.651  0.0200 -0.5185  0.4790
26666SOL     OW84359   2.689   4.124   7.282 -0.2982 -0.0046 -0.0663
26666SOL    HW184360   2.627   4.196   7.297  1.6556  1.9816 -0.9602
26666SOL    HW284361   2.730   4.110   7.368 -0.2362  0.4225 -0.0225
26667SOL     OW84362   7.384   7.388  10.710  0.5615 -0.0925 -0.4928
26667SOL    HW184363   7.440   7.398  10.634  1.6482  1.4512  0.4611
26667SOL    HW284364   7.297   7.414  10.680  1.0212  0.7047 -1.1488
26668SOL     OW84365   9.307   1.068   1.951  0.3444 -0.2156  0.7314
26668SOL    HW184366   9.250   1.137   1.918  0.3551  0.0383  1.2347
26668SOL    HW284367   9.271   0.987   1.915 -1.2252 -0.2305  2.2100
26669SOL     OW84368   9.206   9.424   3.285  0.1042  0.3245 -0.0929
26669SOL    HW184369   9.281   9.437   3.342  0.5614  0.1842 -0.6518
26669SOL    HW284370   9.169   9.511   3.273 -0.6271  0.2147  1.2533
26670SOL     OW84371   6.942  10.572   1.431  0.2843  0.2159 -0.0656
26670SOL    HW184372   6.923  10.665   1.418  0.2178  0.1039 -0.8122
26670SOL    HW284373   6.989  10.568   1.514  1.2098  1.0459 -0.5202
26671SOL     OW84374   8.068   0.236   3.981 -0.1015 -0.2536  0.2160
26671SOL    HW184375   8.068   0.266   3.890 -0.7485  0.2582  0.3854
26671SOL    HW284376   8.160   0.211   3.997  0.0635 -0.1427 -0.5001
26672SOL     OW84377   0.665   6.880   5.981 -0.5239 -0.5974 -0.0122
26672SOL    HW184378   0.670   6.823   5.904 -1.9224  0.0463 -0.6208
26672SOL    HW284379   0.575   6.913   5.981 -0.4362 -0.2385  1.6700
26673SOL     OW84380  10.635   3.643   4.631  0.4842 -0.4450 -0.4993
26673SOL    HW184381  10.653   3.628   4.724  0.7966  0.7999 -0.3450
26673SOL    HW284382  10.716   3.683   4.597  0.1411 -0.2984 -1.1579
26674SOL     OW84383   8.747  11.014   7.716  0.4653 -0.4307  0.0794
26674SOL    HW184384   8.798  11.094   7.697 -0.1559  0.4821  2.0632
26674SOL    HW284385   8.813  10.945   7.722  1.0750  0.0174 -1.0381
26675SOL     OW84386   1.197   0.141   1.352  0.1931  0.1680 -0.2460
26675SOL    HW184387   1.134   0.167   1.284  0.0359  0.4616  0.0059
26675SOL    HW284388   1.176   0.050   1.370 -1.3237  0.7386  1.0630
26676SOL     OW84389   6.908   0.531   6.545  0.7002  0.1757  0.5672
26676SOL    HW184390   6.916   0.559   6.453 -0.3055  1.2774  0.7884
26676SOL    HW284391   6.998   0.532   6.578  0.9914  0.4878 -0.2100
26677SOL     OW84392   0.204   0.170   5.774  0.4820  0.4363 -0.1844
26677SOL    HW184393   0.184   0.263   5.774  0.2887  0.4353  1.8375
26677SOL    HW284394   0.272   0.160   5.841  2.0683 -0.6091 -1.8368
26678SOL     OW84395   9.118   3.076  10.527 -0.5321 -0.4830 -0.5779
26678SOL    HW184396   9.128   2.998  10.472 -0.2445 -0.5554 -0.4228
26678SOL    HW284397   9.048   3.053  10.588 -1.1824 -0.2292 -1.2148
26679SOL     OW84398   8.763   9.288   0.386  0.5291  0.3112  0.3508
26679SOL    HW184399   8.855   9.269   0.369  0.5652 -0.3850  1.2093
26679SOL    HW284400   8.715   9.218   0.342  0.5167 -0.2666  1.2387
26680SOL     OW84401   6.948   2.454   3.157 -0.1863 -0.3102 -0.1979
26680SOL    HW184402   6.909   2.403   3.087  0.7355  0.8168 -1.5846
26680SOL    HW284403   6.874   2.485   3.209 -0.8162 -2.0676  0.0251
26681SOL     OW84404   1.294  10.039   3.093  0.0038  0.1031 -0.1365
26681SOL    HW184405   1.301  10.082   3.008 -0.8375  0.6032  0.0340
26681SOL    HW284406   1.281   9.947   3.072 -2.4403  0.4940 -0.6479
26682SOL     OW84407   0.689   1.229   6.395  0.3667 -0.2173  0.6676
26682SOL    HW184408   0.775   1.271   6.390 -0.8596  2.4058 -0.5263
26682SOL    HW284409   0.659   1.226   6.304 -1.5677  0.7177  1.2294
26683SOL     OW84410   5.677   0.768   7.674  0.1325  0.0924  0.3278
26683SOL    HW184411   5.667   0.843   7.615 -0.7620  1.3575  2.0142
26683SOL    HW284412   5.619   0.701   7.637  0.4710  0.4233 -0.8530
26684SOL     OW84413  10.418   0.708   3.155  0.3178  0.1955  1.0035
26684SOL    HW184414  10.426   0.685   3.247  1.3087  0.3893  0.9764
26684SOL    HW284415  10.507   0.725   3.126 -0.0695  1.0618  0.2423
26685SOL     OW84416  10.343   6.330   3.448  0.4658  0.2502  0.4030
26685SOL    HW184417  10.428   6.306   3.484 -0.8814 -0.6027  3.3999
26685SOL    HW284418  10.303   6.385   3.516 -1.4829  0.4342 -0.7933
26686SOL     OW84419   0.358   6.431   3.548  0.0197  0.0883  0.6264
26686SOL    HW184420   0.430   6.486   3.580 -0.2362 -0.8857  3.1078
26686SOL    HW284421   0.394   6.384   3.473  1.3529  0.9737  0.6790
26687SOL     OW84422   7.864   3.750   9.670 -0.0260  0.3775  0.0716
26687SOL    HW184423   7.870   3.655   9.657  0.3264  0.6037 -1.6070
26687SOL    HW284424   7.953   3.777   9.693 -0.0912  0.3315  0.3838
26688SOL     OW84425   8.231   7.083   8.489  0.0275  0.5105  0.1407
26688SOL    HW184426   8.153   7.028   8.480  2.6460 -3.3274 -2.5393
26688SOL    HW284427   8.245   7.089   8.584 -0.8381 -3.1356  0.6757
26689SOL     OW84428   9.213   1.989   7.393 -0.4538 -0.2244 -0.4077
26689SOL    HW184429   9.206   2.084   7.382 -0.2520 -0.2743 -1.0081
26689SOL    HW284430   9.125   1.957   7.376 -0.8210 -0.0418  1.0279
26690SOL     OW84431   9.212   9.963   5.311 -0.5277  0.1014  0.0337
26690SOL    HW184432   9.281  10.023   5.282 -1.0018  1.3036  1.2562
26690SOL    HW284433   9.243   9.876   5.287  0.8314  0.7312 -0.5583
26691SOL     OW84434   2.292  10.653   7.430 -0.8108 -0.6147 -0.5116
26691SOL    HW184435   2.361  10.696   7.480  0.2862 -0.9757 -1.6614
26691SOL    HW284436   2.244  10.602   7.495  0.7500 -1.3107  0.1521
26692SOL     OW84437   9.983  11.057  10.723  0.0847  0.1707  0.0464
26692SOL    HW184438   9.948  11.139  10.690 -0.9972  0.1017  0.9678
26692SOL    HW284439  10.036  11.022  10.651 -0.7660  0.8780 -0.9388
26693SOL     OW84440  10.062   8.077   9.076 -0.0801  0.0057 -0.0972
26693SOL    HW184441  10.108   8.159   9.093 -0.7127  0.0133  1.7377
26693SOL    HW284442  10.024   8.052   9.160  0.7931 -2.6339 -0.3956
26694SOL     OW84443   7.511   4.519   5.229 -0.3744 -0.4708  0.4930
26694SOL    HW184444   7.445   4.469   5.276 -2.5970 -0.4478 -2.3655
26694SOL    HW284445   7.472   4.605   5.217  0.6948 -0.0712 -0.2241
26695SOL     OW84446   8.395  10.182   8.324  0.0521 -0.2672 -0.3135
26695SOL    HW184447   8.402  10.159   8.417  0.7132  0.7667 -0.0846
26695SOL    HW284448   8.412  10.276   8.322 -1.2382 -0.0356 -1.3403
26696SOL     OW84449   3.244   9.589   7.796  0.1636  0.4801  0.1057
26696SOL    HW184450   3.326   9.639   7.796  0.8359 -0.4852  2.0004
26696SOL    HW284451   3.184   9.643   7.847  0.2826  0.2664  0.4792
26697SOL     OW84452   3.720   8.118   5.533  0.0824 -0.2756 -0.4634
26697SOL    HW184453   3.695   8.095   5.444 -0.3680  1.3863 -0.7882
26697SOL    HW284454   3.652   8.177   5.563  1.0944  0.4884  0.3858
26698SOL     OW84455   4.096   3.174   5.632 -0.4053 -0.0129  0.4697
26698SOL    HW184456   4.025   3.119   5.601 -1.4947  2.1821 -1.2498
26698SOL    HW284457   4.101   3.158   5.726 -1.8445 -1.6650  0.2977
26699SOL     OW84458  10.369   3.358   5.977 -0.0348  0.3446  0.4268
26699SOL    HW184459  10.285   3.340   6.020 -0.2442  0.6166  0.1315
26699SOL    HW284460  10.349   3.360   5.884  0.5020 -0.6907  0.2774
26700SOL     OW84461   1.637   9.495   5.197 -0.1002  0.3808  0.3101
26700SOL    HW184462   1.562   9.439   5.177  0.1849  0.4156 -0.9571
26700SOL    HW284463   1.698   9.481   5.125  0.5567  1.3140  0.6558
26701SOL     OW84464   5.770   6.729   3.128  0.4425  0.0530  0.0269
26701SOL    HW184465   5.823   6.799   3.089  0.7264  0.2812  0.8052
26701SOL    HW284466   5.680   6.761   3.122  0.2413 -0.7211 -2.1257
26702SOL     OW84467   0.690   5.909   2.094  0.6091  0.0654  0.5994
26702SOL    HW184468   0.679   6.002   2.112 -5.4649 -0.8454  4.0066
26702SOL    HW284469   0.631   5.891   2.021  0.9880 -1.2935  0.5885
26703SOL     OW84470   8.878   0.046   6.096  0.0600 -0.3153  0.2486
26703SOL    HW184471   8.800   0.099   6.080  1.0553  0.8546 -1.0807
26703SOL    HW284472   8.856  -0.041   6.061 -0.8537 -0.1942  0.4978
26704SOL     OW84473   1.982   4.897   0.043 -0.2036 -0.7936  0.1617
26704SOL    HW184474   2.020   4.892  -0.045 -1.4035  0.5849 -0.4771
26704SOL    HW284475   1.914   4.830   0.044 -2.0820  0.9996 -0.9919
26705SOL     OW84476   4.504   9.021   0.522 -0.0368  0.3025  0.3040
26705SOL    HW184477   4.517   8.927   0.534 -0.8660  0.4959  3.7520
26705SOL    HW284478   4.593   9.056   0.513  0.2538 -0.7922 -1.7604
26706SOL     OW84479   9.101   5.646   0.233  0.1929  0.3488 -0.5085
26706SOL    HW184480   9.159   5.592   0.178  0.5867 -1.9748  1.9848
26706SOL    HW284481   9.102   5.602   0.318 -3.9744  1.1646  0.1367
26707SOL     OW84482   1.148  10.870   9.276  0.4934  0.1456 -0.1717
26707SOL    HW184483   1.087  10.887   9.348  0.5437 -1.4141  0.2782
26707SOL    HW284484   1.095  10.876   9.197 -0.0484 -0.3006  0.1561
26708SOL     OW84485  10.873  10.438   5.704 -0.2163 -0.5973 -0.4046
26708SOL    HW184486  10.888  10.472   5.616 -0.4645  0.4751 -0.0411
26708SOL    HW284487  10.961  10.416   5.736 -0.0479 -0.2599 -0.6289
26709SOL     OW84488   5.953   5.470   6.530  0.0626 -0.0698  0.2969
26709SOL    HW184489   6.022   5.408   6.551  0.8499  0.2913 -1.0465
26709SOL    HW284490   5.958   5.479   6.434 -0.7336  1.2359  0.3520
26710SOL     OW84491   5.086   0.987   1.914  0.7907  0.3051 -0.1981
26710SOL    HW184492   5.123   0.905   1.881  2.8925  0.9650  0.3067
26710SOL    HW284493   5.089   0.977   2.010 -2.0203 -0.2595 -0.1056
26711SOL     OW84494   3.546   9.921  10.431  0.0850 -0.0537  0.0691
26711SOL    HW184495   3.572   9.871  10.354 -0.1879  1.1737 -0.8498
26711SOL    HW284496   3.593  10.004  10.423  0.7974 -0.2378  1.7419
26712SOL     OW84497   1.748   5.184   8.907 -0.3060 -0.1593  0.6322
26712SOL    HW184498   1.800   5.253   8.868  0.1451  0.0876  1.6363
26712SOL    HW284499   1.706   5.140   8.833 -0.5091  1.1039 -0.0298
26713SOL     OW84500   9.737   8.095   6.132  0.5729  0.0577 -0.2499
26713SOL    HW184501   9.777   8.178   6.158  1.0277 -0.1631 -0.2394
26713SOL    HW284502   9.799   8.028   6.161 -1.1275 -0.4942  2.4897
26714SOL     OW84503   5.158   3.729   0.301 -0.7150 -0.5174 -0.6143
26714SOL    HW184504   5.091   3.690   0.244 -0.5672 -0.8621 -0.5579
26714SOL    HW284505   5.240   3.690   0.271 -0.1578  1.8166 -2.3857
26715SOL     OW84506   6.148   3.538   2.139 -0.5037  0.0230  0.0963
26715SOL    HW184507   6.155   3.551   2.045  1.2370  2.5344  0.4579
26715SOL    HW284508   6.076   3.476   2.150 -1.7229  0.7821 -2.7946
26716SOL     OW84509   6.161   3.886   3.560  0.2244  0.4388  0.1003
26716SOL    HW184510   6.135   3.795   3.571 -0.5242  0.3773 -1.7543
26716SOL    HW284511   6.096   3.936   3.608  0.3435  0.0172  0.7022
26717SOL     OW84512   4.168   5.424   4.129  0.6022  0.3863 -0.0956
26717SOL    HW184513   4.261   5.400   4.122  1.3407  3.1022 -0.6075
26717SOL    HW284514   4.168   5.519   4.129 -2.2671  0.4590 -0.6117
26718SOL     OW84515   7.274   4.150   7.346  0.3992  0.2176 -0.4147
26718SOL    HW184516   7.219   4.211   7.396  0.8468 -0.2159  0.6358
26718SOL    HW284517   7.277   4.187   7.258  0.7831  1.7932  0.2336
26719SOL     OW84518   4.866   3.371   5.672  0.1018  0.3414  0.3924
26719SOL    HW184519   4.841   3.351   5.582  1.4761  1.3943 -0.2583
26719SOL    HW284520   4.960   3.353   5.675  0.1198  0.5569  1.5577
26720SOL     OW84521   3.939   3.679   4.191  0.2002  0.0683 -0.1564
26720SOL    HW184522   3.922   3.687   4.097  0.3431  1.2257 -0.1038
26720SOL    HW284523   3.858   3.642   4.227 -0.2933  0.6907 -0.5967
26721SOL     OW84524   7.244   0.734   4.463  0.4267  0.1288 -0.5071
26721SOL    HW184525   7.280   0.816   4.499  0.5940 -0.1386 -0.0634
26721SOL    HW284526   7.308   0.667   4.487  0.6293 -0.0288 -1.4525
26722SOL     OW84527   8.010   8.457   0.649  0.1510 -0.2102  0.0119
26722SOL    HW184528   8.080   8.447   0.713 -0.0173 -0.8976  0.1033
26722SOL    HW284529   8.053   8.490   0.570  0.5308 -0.3752  0.1506
26723SOL     OW84530   1.909   6.081   9.645 -0.2184  0.2378  0.5912
26723SOL    HW184531   1.836   6.084   9.584  1.8128 -0.6128 -2.1059
26723SOL    HW284532   1.899   6.159   9.699 -1.5273  1.7360 -1.6436
26724SOL     OW84533   8.190   6.341   7.866 -0.0539  0.0044  0.1346
26724SOL    HW184534   8.185   6.246   7.880 -1.3398 -0.0518 -0.5874
26724SOL    HW284535   8.185   6.351   7.771 -0.6771  0.8395  0.2542
26725SOL     OW84536  10.660   8.094   3.879 -0.0502  0.0111  0.0507
26725SOL    HW184537  10.700   8.048   3.953  1.0375  0.8941  0.0444
26725SOL    HW284538  10.574   8.122   3.913 -0.2546 -1.0105  0.4167
26726SOL     OW84539   8.604   6.053   2.984  0.1803  0.1971 -0.3928
26726SOL    HW184540   8.580   5.964   3.009  0.8159  0.1690  0.1573
26726SOL    HW284541   8.553   6.109   3.042 -0.1728  0.1913 -0.6964
26727SOL     OW84542   1.601   7.791   9.546  0.1070  0.0103  0.0972
26727SOL    HW184543   1.659   7.716   9.536  0.4801  0.3536 -0.3362
26727SOL    HW284544   1.605   7.837   9.462  1.7627  1.8640  1.1163
26728SOL     OW84545   3.054   4.323   1.050  0.5634 -0.1623  0.3202
26728SOL    HW184546   3.041   4.409   1.090  1.9312 -0.1384  0.7682
26728SOL    HW284547   3.131   4.334   0.994  0.3701 -0.9356 -0.1126
26729SOL     OW84548  10.853   1.295  10.248 -0.0557 -0.5264 -0.4158
26729SOL    HW184549  10.774   1.304  10.195  1.1860 -0.0200 -2.2742
26729SOL    HW284550  10.873   1.201  10.246 -0.4295 -0.6117 -0.2029
26730SOL     OW84551   0.032   3.435   5.506 -0.5826 -0.0535  0.3619
26730SOL    HW184552  -0.042   3.439   5.567 -1.8490  3.4832 -1.1466
26730SOL    HW284553  -0.002   3.387   5.431 -1.6416  2.0735 -0.5718
26731SOL     OW84554  10.096   4.531   5.004 -0.1133 -0.4295  0.2766
26731SOL    HW184555  10.113   4.453   5.057 -0.5543 -0.0407  1.0120
26731SOL    HW284556  10.179   4.549   4.959  0.0490 -1.1978  0.2533
26732SOL     OW84557   2.817   2.307   7.542 -0.5860 -0.0915  0.6243
26732SOL    HW184558   2.813   2.399   7.568 -0.0275  0.0067  0.3764
26732SOL    HW284559   2.818   2.309   7.446 -1.1836 -0.3838  0.6092
26733SOL     OW84560   7.831   2.910   3.838  0.1912 -0.8876  0.5163
26733SOL    HW184561   7.851   2.858   3.760  0.5271 -0.9156  0.6183
26733SOL    HW284562   7.828   2.847   3.910  2.4999 -0.5852  0.9761
26734SOL     OW84563   0.576   3.376   3.393 -0.1744 -1.2974 -0.0758
26734SOL    HW184564   0.635   3.409   3.325  1.6763  0.7961  2.3451
26734SOL    HW284565   0.490   3.372   3.350  1.0169 -0.7846 -2.6946
26735SOL     OW84566   9.916   9.187   6.433  0.4133 -0.5038 -0.4624
26735SOL    HW184567   9.966   9.178   6.515  0.5887 -1.0152 -0.6209
26735SOL    HW284568   9.837   9.235   6.458  0.6632 -0.2914 -0.0728
26736SOL     OW84569  10.349  10.881   0.405 -0.1318  0.0099 -0.1491
26736SOL    HW184570  10.343  10.955   0.465 -1.0174  0.4050 -0.7091
26736SOL    HW284571  10.443  10.871   0.390  0.3508 -1.6061  3.0988
26737SOL     OW84572   5.586   0.871   5.159 -0.1154 -0.1589 -0.4784
26737SOL    HW184573   5.600   0.915   5.243  0.9059  1.9831 -1.6921
26737SOL    HW284574   5.656   0.806   5.154 -0.5277 -0.7083  0.5398
26738SOL     OW84575   7.251   8.228   7.528  0.0007  0.1252  0.0540
26738SOL    HW184576   7.253   8.177   7.447  3.0432 -0.6573  0.4860
26738SOL    HW284577   7.249   8.162   7.597  0.3023  0.6975  0.6170
26739SOL     OW84578   0.698   9.839   7.415  0.1074 -0.2679 -0.4461
26739SOL    HW184579   0.744   9.777   7.358 -0.5830 -0.0377 -1.2681
26739SOL    HW284580   0.639   9.887   7.356  0.3175  0.8748  0.2482
26740SOL     OW84581   5.865   0.509   8.188  0.4315 -0.3640 -0.2224
26740SOL    HW184582   5.774   0.516   8.217  0.0304  2.3625 -1.7725
26740SOL    HW284583   5.916   0.513   8.268 -0.7701  1.8223  0.5331
26741SOL     OW84584   7.320   0.579   7.437 -0.2951 -0.3612  0.0692
26741SOL    HW184585   7.352   0.569   7.527 -3.0491  0.2915  1.2170
26741SOL    HW284586   7.310   0.489   7.405  1.3016 -0.5897  0.1478
26742SOL     OW84587   4.343   6.717   0.454  0.1269 -0.1603 -0.2573
26742SOL    HW184588   4.413   6.658   0.428 -0.0131 -0.6682  0.4780
26742SOL    HW284589   4.332   6.702   0.548 -0.5248  0.3829 -0.2309
26743SOL     OW84590   0.812   9.389   8.605 -0.6378 -0.0925 -0.2951
26743SOL    HW184591   0.789   9.455   8.671 -0.4370 -1.1168  0.8418
26743SOL    HW284592   0.866   9.437   8.542 -0.2040  0.7696  0.6830
26744SOL     OW84593   0.746   0.935   4.307  0.4254  0.3351  0.3839
26744SOL    HW184594   0.690   0.859   4.323 -0.4692  1.0359  0.6842
26744SOL    HW284595   0.695   0.988   4.246  1.8836 -0.2160 -1.4117
26745SOL     OW84596   9.493   0.931   3.507  0.1433 -0.0641  0.5044
26745SOL    HW184597   9.491   0.842   3.470 -0.7157 -0.7059  2.0082
26745SOL    HW284598   9.483   0.918   3.602  1.5460  1.5527  0.9326
26746SOL     OW84599   4.399   2.899   9.282 -0.4698  0.7164 -0.2138
26746SOL    HW184600   4.397   2.991   9.255 -1.5181  1.1675  1.2361
26746SOL    HW284601   4.340   2.895   9.357  1.5404 -0.5976  1.4336
26747SOL     OW84602   0.036   6.734   7.776 -0.0803 -0.2929 -0.3770
26747SOL    HW184603  -0.053   6.733   7.741 -0.1093 -3.3332 -0.4230
26747SOL    HW284604   0.091   6.756   7.700 -0.6258 -0.3625 -0.7960
26748SOL     OW84605  11.012   9.540   5.590 -0.2995  0.0332 -0.5222
26748SOL    HW184606  10.954   9.474   5.628 -0.3134 -0.5590 -1.5442
26748SOL    HW284607  10.953   9.601   5.545 -0.2997  0.8587  0.5676
26749SOL     OW84608   7.113   2.252   8.756 -0.0420  0.3725  0.3092
26749SOL    HW184609   7.187   2.234   8.814 -0.7381  0.8530  1.3835
26749SOL    HW284610   7.152   2.291   8.678  0.8978 -0.0197  0.5760
26750SOL     OW84611   1.268   9.935   3.980  0.1054  0.6232  0.3300
26750SOL    HW184612   1.241   9.967   4.066 -0.5463  1.4458 -0.1583
26750SOL    HW284613   1.308  10.011   3.938  1.2250 -0.0115  0.2289
26751SOL     OW84614   0.690  10.078   0.577  0.1103 -0.4036 -0.2553
26751SOL    HW184615   0.778  10.052   0.551  0.4682  2.0384 -1.7379
26751SOL    HW284616   0.692  10.174   0.577 -2.2144 -0.2879  0.9208
26752SOL     OW84617   0.616   2.920   4.751  0.7800  0.1793 -0.0572
26752SOL    HW184618   0.607   2.982   4.824 -0.3337 -0.8354  0.7033
26752SOL    HW284619   0.550   2.948   4.688  0.5976  0.0502  0.0760
26753SOL     OW84620   3.017   7.921  10.830 -0.3541 -0.2436  0.2610
26753SOL    HW184621   2.927   7.953  10.823 -0.6800 -1.0700  0.5795
26753SOL    HW284622   3.059   7.981  10.892 -0.2313  1.0913 -1.0614
26754SOL     OW84623  10.394   3.713   2.682 -0.0234  0.0723  0.1626
26754SOL    HW184624  10.459   3.783   2.677  2.1194 -1.6913  1.4513
26754SOL    HW284625  10.413   3.658   2.606 -1.0172  0.3216 -0.2741
26755SOL     OW84626   8.890   0.111   1.990  0.7473 -0.4931  0.1633
26755SOL    HW184627   8.959   0.050   1.965  0.3505 -0.7981 -0.1956
26755SOL    HW284628   8.919   0.195   1.954 -0.0793 -1.0208 -1.8939
26756SOL     OW84629   9.076   0.402   2.198  0.1543 -0.1187 -0.4133
26756SOL    HW184630   9.116   0.451   2.126 -1.1385 -1.0022 -1.7977
26756SOL    HW284631   9.122   0.432   2.277 -0.4420  3.2040 -1.1853
26757SOL     OW84632  10.931   2.565   7.614 -0.2131 -0.0197  0.2674
26757SOL    HW184633  11.011   2.603   7.651 -0.8496  0.9564  0.6496
26757SOL    HW284634  10.936   2.586   7.521  0.8945 -1.6247 -0.0928
26758SOL     OW84635   3.830   1.542   8.388  0.2055  0.4607  0.3841
26758SOL    HW184636   3.761   1.554   8.453  0.3903 -3.0018  1.4323
26758SOL    HW284637   3.912   1.552   8.437  0.3520 -0.4495  0.3565
26759SOL     OW84638   9.571  10.869   2.743  0.1762 -0.0965 -0.0067
26759SOL    HW184639   9.624  10.947   2.730  0.0770  0.2067  1.2372
26759SOL    HW284640   9.623  10.797   2.707  1.2188  0.2671  0.7188
26760SOL     OW84641   7.807   4.771   9.848  0.9952  0.1074  0.2265
26760SOL    HW184642   7.815   4.700   9.912 -0.6164  0.7452  1.1785
26760SOL    HW284643   7.888   4.821   9.858  1.1130 -0.2637  1.1839
26761SOL     OW84644  10.542   4.299   1.048 -0.8263 -0.3709  0.3249
26761SOL    HW184645  10.578   4.256   0.970  1.1820  1.5173  0.1003
26761SOL    HW284646  10.513   4.385   1.017  1.3809  1.0133  1.8231
26762SOL     OW84647   1.677   5.310   5.167 -0.1867 -0.6083 -0.4099
26762SOL    HW184648   1.613   5.308   5.096  0.1371  0.1338 -0.7423
26762SOL    HW284649   1.741   5.243   5.144 -0.7509 -1.2380 -0.1612
26763SOL     OW84650   4.025   8.871   1.751 -0.5242  0.4285 -0.5347
26763SOL    HW184651   4.018   8.909   1.664  1.4506  0.3986 -0.7540
26763SOL    HW284652   3.950   8.906   1.799 -1.2211  1.0312 -2.0107
26764SOL     OW84653   3.374   9.716  10.164  0.1321 -0.0170 -0.2298
26764SOL    HW184654   3.323   9.795  10.180  0.5246  0.2946 -0.5087
26764SOL    HW284655   3.465   9.744  10.172  0.2652 -0.5805  0.3162
26765SOL     OW84656   6.533  10.277   1.710 -0.0232 -0.2772  0.3045
26765SOL    HW184657   6.606  10.229   1.671 -1.6046 -1.1863 -1.7581
26765SOL    HW284658   6.488  10.212   1.764  0.6030  0.2636  1.5188
26766SOL     OW84659   4.632   9.663   3.095  0.2026 -0.4637 -0.6587
26766SOL    HW184660   4.685   9.739   3.070  1.7068 -1.7227 -1.5055
26766SOL    HW284661   4.595   9.631   3.012 -2.0221  0.4463 -0.0644
26767SOL     OW84662   6.128   9.081   8.788  0.0688 -0.0116 -0.2715
26767SOL    HW184663   6.065   9.136   8.834 -0.6991 -0.4810 -0.7205
26767SOL    HW284664   6.080   9.052   8.710  0.7232 -0.6738 -0.4318
26768SOL     OW84665   1.241   6.079   9.700  0.0189 -0.0404  0.6879
26768SOL    HW184666   1.249   6.009   9.765  2.8900  0.5987  1.1505
26768SOL    HW284667   1.253   6.160   9.750 -0.2093  0.6060 -0.2828
26769SOL     OW84668  10.318   5.639  10.093  0.0311 -0.5661  0.2316
26769SOL    HW184669  10.306   5.570  10.159 -0.4945 -1.1752 -0.4917
26769SOL    HW284670  10.413   5.648  10.086  0.1283 -1.7019 -0.1547
26770SOL     OW84671   5.895   2.308   1.955  0.2040  0.1929  0.1406
26770SOL    HW184672   5.896   2.383   1.896  0.1486  0.4387  0.4470
26770SOL    HW284673   5.809   2.268   1.943  0.4291 -0.1346 -0.4084
26771SOL     OW84674  10.311   3.808   3.034 -0.5111 -0.0115 -1.1677
26771SOL    HW184675  10.222   3.784   3.060 -1.4651  2.4058 -1.9043
26771SOL    HW284676  10.315   3.789   2.940 -0.5859  0.6929 -1.3218
26772SOL     OW84677   8.219   6.693   7.761 -0.1210 -0.3964  0.3316
26772SOL    HW184678   8.149   6.636   7.792 -1.4511  1.6321  1.2486
26772SOL    HW284679   8.182   6.737   7.684  0.0198  0.8979  0.9846
26773SOL     OW84680   3.968   5.481   4.352  0.8225  0.0853  0.1523
26773SOL    HW184681   4.054   5.467   4.313  0.5371  1.3021 -0.9720
26773SOL    HW284682   3.984   5.546   4.422  0.9119 -0.1544  0.3561
26774SOL     OW84683   4.651   0.715   2.674 -0.2476 -0.4531 -0.7297
26774SOL    HW184684   4.590   0.771   2.626  0.1808  0.6840 -0.0026
26774SOL    HW284685   4.612   0.628   2.672 -2.3778  0.3940  0.4912
26775SOL     OW84686  10.458  10.990   5.348 -0.3007 -0.5482  0.0329
26775SOL    HW184687  10.486  11.064   5.402  1.0377 -1.5430  0.7534
26775SOL    HW284688  10.403  11.029   5.280  0.3781  1.1011  0.3885
26776SOL     OW84689   5.152   9.685   9.125 -0.0068 -0.0804 -0.1645
26776SOL    HW184690   5.183   9.747   9.058  2.3429 -2.7767 -1.8349
26776SOL    HW284691   5.139   9.603   9.077 -0.6703 -1.5254  2.3092
26777SOL     OW84692   4.911   4.980   1.310  0.5265 -0.0451  0.3617
26777SOL    HW184693   4.920   4.911   1.245 -0.9406  1.3246 -1.3950
26777SOL    HW284694   4.817   5.001   1.310  0.8672  1.6335  1.1863
26778SOL     OW84695   7.763   7.334  10.936 -0.6037 -0.2809 -0.1211
26778SOL    HW184696   7.808   7.367  10.858 -1.3904  0.3752 -0.3143
26778SOL    HW284697   7.687   7.287  10.902 -0.1309 -1.2964  0.2034
26779SOL     OW84698   6.511   9.060   2.175  0.0316 -0.5523 -0.4266
26779SOL    HW184699   6.554   9.099   2.099  0.3807  1.1624  0.6074
26779SOL    HW284700   6.508   9.130   2.240  0.8752 -2.2749  1.6111
26780SOL     OW84701   2.004   7.749   5.752 -0.5839 -0.0383  0.5085
26780SOL    HW184702   1.942   7.715   5.687 -0.3522 -0.5309  0.5357
26780SOL    HW284703   2.080   7.776   5.701 -1.5078  2.2908  0.2752
26781SOL     OW84704  10.705   4.385   8.367  0.2037  0.5632  0.5220
26781SOL    HW184705  10.659   4.302   8.353 -0.8813  0.9805  1.4813
26781SOL    HW284706  10.641   4.441   8.411  0.1078  2.7211 -2.1205
26782SOL     OW84707   0.328   6.421   2.281 -0.3666  0.1185 -0.5042
26782SOL    HW184708   0.287   6.479   2.345  1.4797  1.8819 -0.8141
26782SOL    HW284709   0.292   6.448   2.197  1.1204  1.4956 -0.7478
26783SOL     OW84710   9.394   1.991   8.503 -0.2409  0.8940 -0.0766
26783SOL    HW184711   9.331   1.986   8.431  0.7439  2.2898 -1.0989
26783SOL    HW284712   9.472   1.948   8.469 -0.4729 -0.4736  1.0343
26784SOL     OW84713   9.940   8.945   4.158  0.0229  0.0943 -0.1571
26784SOL    HW184714  10.003   8.936   4.087 -1.1138  0.3188 -1.2208
26784SOL    HW284715   9.971   8.884   4.225  0.0328 -1.6580 -1.6667
26785SOL     OW84716  10.290   5.014   9.887 -0.1113 -0.0726  0.7804
26785SOL    HW184717  10.240   4.981   9.961  1.0405 -1.2305  1.0710
26785SOL    HW284718  10.261   4.961   9.813 -0.6502  0.5173  0.5608
26786SOL     OW84719   8.440   8.347  10.449 -0.0979  0.0735 -0.6683
26786SOL    HW184720   8.356   8.302  10.446 -0.4805  0.6856  0.3061
26786SOL    HW284721   8.417   8.438  10.471  0.9253 -0.1077  1.3008
26787SOL     OW84722   1.783   7.638   6.234 -0.1900 -0.0330 -0.3598
26787SOL    HW184723   1.830   7.642   6.150 -0.0230  0.3071 -0.2514
26787SOL    HW284724   1.852   7.627   6.299 -0.2654  0.3550 -0.2094
26788SOL     OW84725   5.147   3.254   4.556  0.0250  0.1484 -0.1343
26788SOL    HW184726   5.065   3.252   4.508 -1.5334 -1.2073  2.3665
26788SOL    HW284727   5.149   3.340   4.598  0.1368  0.3717 -0.5956
26789SOL     OW84728   7.731   3.807   0.635  0.4919 -0.7850 -0.7253
26789SOL    HW184729   7.777   3.785   0.554  0.5498 -2.1471 -0.3520
26789SOL    HW284730   7.748   3.732   0.693  0.5001  0.1922  0.5661
26790SOL     OW84731   2.622   0.452   9.512  0.3184  0.0654  0.0875
26790SOL    HW184732   2.541   0.462   9.562 -0.4497 -0.4985 -1.0252
26790SOL    HW284733   2.603   0.386   9.447  1.3910  0.5941 -0.8011
26791SOL     OW84734   1.257   4.869   5.403  0.0152 -0.3992 -0.3525
26791SOL    HW184735   1.200   4.929   5.451  0.6331  0.5476 -0.7667
26791SOL    HW284736   1.234   4.884   5.311  1.4525  0.5880 -0.5828
26792SOL     OW84737   6.441   1.140   0.622 -0.3436  0.1416  0.8106
26792SOL    HW184738   6.482   1.152   0.707  0.6595 -2.0168  0.6967
26792SOL    HW284739   6.406   1.051   0.625  0.6612 -0.4005 -1.3771
26793SOL     OW84740   7.331   2.370  10.861  0.1071 -0.0119  0.3501
26793SOL    HW184741   7.331   2.380  10.765  1.5084 -1.6911  0.1240
26793SOL    HW284742   7.270   2.298  10.877  1.5309 -1.2364  0.4726
26794SOL     OW84743   8.325   1.106   4.494 -0.2352  0.5542 -0.0047
26794SOL    HW184744   8.283   1.161   4.428  0.3589 -1.0370 -1.8005
26794SOL    HW284745   8.413   1.091   4.461 -0.6851 -2.2957 -0.1967
26795SOL     OW84746   1.716   4.695   5.316 -0.1940 -0.2718  0.4487
26795SOL    HW184747   1.756   4.612   5.289  0.1631 -0.0429  0.2734
26795SOL    HW284748   1.761   4.761   5.264 -1.2428 -0.0734 -0.2368
26796SOL     OW84749   8.092   9.407   1.015 -0.0893 -0.2631  0.8912
26796SOL    HW184750   8.082   9.460   0.936 -1.9950 -0.7761  0.7495
26796SOL    HW284751   8.129   9.467   1.080 -1.2305  0.9673  0.4437
26797SOL     OW84752   6.251   1.390   6.229 -0.2822 -0.7636 -0.2812
26797SOL    HW184753   6.176   1.391   6.288  0.8330 -0.6953  1.1853
26797SOL    HW284754   6.324   1.422   6.282  0.3515  1.4020 -2.3134
26798SOL     OW84755   3.360   3.683  10.086 -0.4223 -0.0478 -0.2917
26798SOL    HW184756   3.324   3.595  10.073  0.3724 -0.4159 -0.1143
26798SOL    HW284757   3.446   3.680  10.045 -0.0407  0.3858  0.4455
26799SOL     OW84758   0.157   1.020   9.207 -0.0877 -0.5845 -0.0339
26799SOL    HW184759   0.137   1.050   9.118  1.5370 -2.5810 -1.1638
26799SOL    HW284760   0.071   1.007   9.247 -0.9060  3.4732 -0.0675
26800SOL     OW84761   5.248   2.085   4.879  0.1416  0.7526 -0.4465
26800SOL    HW184762   5.249   1.994   4.908  0.1830  1.4893  2.0866
26800SOL    HW284763   5.172   2.124   4.923  1.2258  2.3732  0.0933
26801SOL     OW84764   0.790   7.508   2.943  0.7192  0.4278 -0.3030
26801SOL    HW184765   0.753   7.516   2.855  0.5451  3.2366 -0.0657
26801SOL    HW284766   0.882   7.534   2.932 -0.0923  4.3610  0.7702
26802SOL     OW84767   2.470   3.801  10.865  0.1528 -0.8240  0.4374
26802SOL    HW184768   2.564   3.791  10.850  0.2555  0.7639 -0.1751
26802SOL    HW284769   2.464   3.846  10.949 -0.0011 -0.1986  0.1043
26803SOL     OW84770   2.083   3.736   1.259 -0.6704 -0.0614  0.3579
26803SOL    HW184771   2.161   3.690   1.227 -0.2022  1.8189 -1.4793
26803SOL    HW284772   2.113   3.826   1.273 -1.8063  0.0469  2.7138
26804SOL     OW84773   1.689   3.774   4.458 -0.3911  0.1130 -0.0285
26804SOL    HW184774   1.621   3.720   4.419 -1.3807  0.9160  0.5525
26804SOL    HW284775   1.725   3.824   4.385  1.1489 -1.8946 -0.7433
26805SOL     OW84776   1.571   3.361   3.077 -0.1792 -0.1135  0.4056
26805SOL    HW184777   1.497   3.400   3.123 -1.0273 -0.0245 -0.9599
26805SOL    HW284778   1.564   3.267   3.096  0.7866  0.1344  2.2026
26806SOL     OW84779   3.460   2.975   7.675 -0.2363  0.0806 -0.5260
26806SOL    HW184780   3.520   3.044   7.646  0.0631  0.2988  0.5693
26806SOL    HW284781   3.410   3.015   7.746 -1.8892 -0.0095 -1.5650
26807SOL     OW84782   3.976   0.812   8.502  0.6911 -0.4148  0.0815
26807SOL    HW184783   3.950   0.792   8.413  0.7665  0.9531 -0.2690
26807SOL    HW284784   4.007   0.729   8.537  1.4997 -0.8073 -1.4616
26808SOL     OW84785  10.058   1.854   9.063 -0.2777  0.2321 -0.1460
26808SOL    HW184786  10.001   1.919   9.106  0.2063  0.8708 -0.4613
26808SOL    HW284787  10.052   1.777   9.120  0.9246  1.2860  1.5181
26809SOL     OW84788   2.745   2.896   2.812 -0.0567  0.0093  0.4652
26809SOL    HW184789   2.753   2.830   2.881 -1.9491  0.3979  1.1291
26809SOL    HW284790   2.835   2.924   2.794  1.0552 -3.9075 -1.0700
26810SOL     OW84791   6.931   7.871   6.386  0.0571  0.0550  0.1597
26810SOL    HW184792   6.879   7.835   6.314  1.7753  0.1792 -1.2110
26810SOL    HW284793   6.869   7.923   6.436 -1.0429  0.7047 -1.7638
26811SOL     OW84794   1.074   5.755   2.025  0.3118 -0.4049 -0.7888
26811SOL    HW184795   1.064   5.692   1.953  4.0461 -1.1774 -0.8506
26811SOL    HW284796   1.142   5.815   1.994 -0.1058  1.0675  0.9845
26812SOL     OW84797   6.601   7.086   7.905 -0.7830 -0.2194 -0.8704
26812SOL    HW184798   6.659   7.139   7.850  0.9000  0.8177  1.7008
26812SOL    HW284799   6.649   7.005   7.922 -0.2009  0.4271  0.8468
26813SOL     OW84800   5.802   8.775   5.156 -0.4264 -0.7799  0.2799
26813SOL    HW184801   5.768   8.860   5.131 -0.5502 -1.2853 -1.3960
26813SOL    HW284802   5.764   8.758   5.242 -0.3415  0.8713  0.6685
26814SOL     OW84803   2.125   7.874   3.090 -0.4475  0.0787  0.5434
26814SOL    HW184804   2.045   7.904   3.132 -0.5258 -2.2360  2.2302
26814SOL    HW284805   2.193   7.885   3.156  0.5055  1.2041 -0.5704
26815SOL     OW84806   5.786   9.760   8.576 -0.1776 -0.6574  0.0548
26815SOL    HW184807   5.730   9.837   8.564  1.5122  0.4464 -1.1292
26815SOL    HW284808   5.746   9.693   8.521  0.3687  0.5357 -1.8952
26816SOL     OW84809   0.997   0.829   7.697  0.1226 -0.0030  0.2930
26816SOL    HW184810   0.943   0.904   7.673  0.7747  0.3697 -0.0597
26816SOL    HW284811   0.954   0.791   7.774 -0.3481  0.5822  0.3225
26817SOL     OW84812   7.666   1.604   6.796  0.3886  0.7427 -0.1253
26817SOL    HW184813   7.697   1.694   6.785  1.3489  0.3058 -1.3562
26817SOL    HW284814   7.744   1.551   6.781 -0.4645 -0.3318 -0.8781
26818SOL     OW84815   2.499   5.719   6.553  0.0223 -0.2568 -0.7335
26818SOL    HW184816   2.578   5.665   6.554 -1.0193 -1.8701  0.6483
26818SOL    HW284817   2.482   5.738   6.645 -1.2681 -0.0625 -0.9916
26819SOL     OW84818   1.006   5.244   1.300 -1.1800  0.1717  0.2413
26819SOL    HW184819   1.014   5.325   1.249 -0.1076  0.1808  0.3957
26819SOL    HW284820   1.026   5.175   1.237  0.9836  0.2248  0.7670
26820SOL     OW84821   1.616   2.478   4.526 -0.2628  0.7843  0.3127
26820SOL    HW184822   1.684   2.423   4.564  0.7440  1.4324 -0.5102
26820SOL    HW284823   1.566   2.509   4.602  0.3447  0.2899  0.9300
26821SOL     OW84824   6.604   9.581   7.956 -0.1205 -0.2165  0.3299
26821SOL    HW184825   6.529   9.614   7.907 -0.2407 -0.4952  0.3264
26821SOL    HW284826   6.654   9.530   7.893  1.2176  1.6952 -0.2446
26822SOL     OW84827   4.203   8.445   9.548 -0.1635  0.6050 -0.5569
26822SOL    HW184828   4.197   8.539   9.530 -3.5966  0.7897  0.7505
26822SOL    HW284829   4.261   8.439   9.624 -1.5242  1.9747  0.6671
26823SOL     OW84830   6.461   5.871   7.994 -0.1988 -0.3095 -0.4036
26823SOL    HW184831   6.511   5.952   7.982 -1.0176  0.1579 -0.7649
26823SOL    HW284832   6.527   5.802   7.993  0.7214  0.4674  1.6324
26824SOL     OW84833   1.409  10.338   8.642 -0.0709  0.1114 -0.1446
26824SOL    HW184834   1.425  10.270   8.577 -1.1188 -0.1083 -0.1943
26824SOL    HW284835   1.390  10.290   8.723 -1.2271  0.3156 -0.2781
26825SOL     OW84836   5.684   9.088   8.662 -0.1332  0.1333  0.6560
26825SOL    HW184837   5.751   9.089   8.594  0.7604 -1.0323  1.4841
26825SOL    HW284838   5.627   9.014   8.638 -1.0781  1.0333  0.0292
26826SOL     OW84839  11.065   5.439   5.225  0.1397  0.3901  0.2469
26826SOL    HW184840  10.976   5.456   5.194  0.0434 -0.5246 -0.0193
26826SOL    HW284841  11.097   5.524   5.256 -1.5400  0.3811  2.2199
26827SOL     OW84842   5.089   0.067   6.449  0.3084  0.1501  0.0688
26827SOL    HW184843   5.158   0.025   6.500 -1.7777 -1.6151  1.6214
26827SOL    HW284844   5.064   0.143   6.502 -0.8387 -0.8334  0.9728
26828SOL     OW84845  10.299   6.348   4.664  0.0237  0.0453  0.0207
26828SOL    HW184846  10.245   6.354   4.585  0.9510 -0.0769 -0.6331
26828SOL    HW284847  10.376   6.402   4.645  0.7544 -0.8305  0.4234
26829SOL     OW84848   0.364   8.475   4.702 -0.4797  0.1669 -0.2418
26829SOL    HW184849   0.313   8.523   4.767 -1.6823 -0.5121 -0.6711
26829SOL    HW284850   0.326   8.500   4.618 -0.2088 -0.4623 -0.5568
26830SOL     OW84851   3.110   0.368   3.092 -0.1834  0.1653  0.1378
26830SOL    HW184852   3.028   0.405   3.059 -0.7386 -1.0720  0.0923
26830SOL    HW284853   3.107   0.276   3.068  0.6361 -0.1812  1.2522
26831SOL     OW84854   1.365  11.111   9.488 -0.0940 -0.4976  0.2633
26831SOL    HW184855   1.299  11.047   9.463  0.5575 -1.2694  0.5018
26831SOL    HW284856   1.446  11.081   9.447  0.7168 -1.1017  2.1937
26832SOL     OW84857   1.424   8.680   7.500 -0.4726 -0.2193  0.4907
26832SOL    HW184858   1.331   8.677   7.525 -0.4297  1.5459  0.9822
26832SOL    HW284859   1.467   8.721   7.575  0.5630 -0.1532 -0.1344
26833SOL     OW84860   2.610   1.494   8.072  0.0688  0.1938 -0.6269
26833SOL    HW184861   2.645   1.492   8.161  0.4919 -0.1844 -0.8000
26833SOL    HW284862   2.582   1.585   8.060 -0.0696  0.2287 -0.0793
26834SOL     OW84863   6.899   9.204   2.348 -0.0176  0.2278  0.4767
26834SOL    HW184864   6.807   9.224   2.367 -0.1601 -1.1894  1.4556
26834SOL    HW284865   6.911   9.231   2.257 -1.0529  1.5718  0.7181
26835SOL     OW84866   9.228  10.646   8.113 -0.0970 -0.6896  0.2056
26835SOL    HW184867   9.143  10.624   8.152 -0.6427  0.3441 -0.3559
26835SOL    HW284868   9.284  10.572   8.136 -1.8907 -2.8562 -1.8604
26836SOL     OW84869   2.644   0.863   7.533 -0.1447 -0.4533 -0.1936
26836SOL    HW184870   2.589   0.898   7.463 -1.2892 -1.0232  0.3972
26836SOL    HW284871   2.653   0.770   7.512  0.5136 -0.3902 -0.2210
26837SOL     OW84872   2.796   8.984   5.014 -0.0026  0.3854 -0.4771
26837SOL    HW184873   2.831   8.969   5.101 -0.3438  0.5841 -0.3011
26837SOL    HW284874   2.860   8.946   4.955  0.9040  1.4357 -0.2114
26838SOL     OW84875  10.111   4.771   6.135  0.4651  0.6573 -0.1879
26838SOL    HW184876  10.078   4.682   6.122  0.9112  0.1808  1.6385
26838SOL    HW284877  10.180   4.781   6.069 -0.5407  0.1916 -1.3463
26839SOL     OW84878   8.455   4.477   7.295 -0.4308 -0.2148 -0.5703
26839SOL    HW184879   8.524   4.446   7.354 -1.3563  2.3117  2.0786
26839SOL    HW284880   8.381   4.495   7.353 -2.2253  0.2888 -2.8746
26840SOL     OW84881   5.685   8.059   2.516  0.1743 -0.0387  0.3162
26840SOL    HW184882   5.741   7.982   2.529  0.0389 -0.3876 -1.0425
26840SOL    HW284883   5.663   8.087   2.605  1.1272 -0.9038  0.8537
26841SOL     OW84884  10.989   7.319   5.220 -0.6243  0.7943  0.1201
26841SOL    HW184885  10.931   7.325   5.296  0.4253  1.5771  0.8910
26841SOL    HW284886  10.932   7.338   5.145 -1.7649 -0.4120  0.6457
26842SOL     OW84887   4.696   8.646   0.749  0.3482  0.7728 -0.0251
26842SOL    HW184888   4.645   8.706   0.804  0.5262 -0.0643  1.0589
26842SOL    HW284889   4.704   8.693   0.665 -1.9290  1.0741 -0.1490
26843SOL     OW84890   8.109   8.927  10.694  0.0300  0.0176 -0.1308
26843SOL    HW184891   8.057   8.849  10.714 -0.6700  0.0056 -1.8591
26843SOL    HW284892   8.153   8.948  10.777 -1.8425 -0.6371  1.1119
26844SOL     OW84893   9.820   6.334   8.676  0.5398 -0.5148  0.0755
26844SOL    HW184894   9.851   6.414   8.717  0.1194 -0.3483  0.0810
26844SOL    HW284895   9.726   6.350   8.661  0.1694 -1.4624  1.1964
26845SOL     OW84896   1.727   6.671   2.767 -0.0673  0.4216  0.3799
26845SOL    HW184897   1.795   6.737   2.775  0.1577  0.1273  0.9523
26845SOL    HW284898   1.655   6.704   2.822  0.1340  0.0862  0.8521
26846SOL     OW84899   0.582   9.793   5.660  0.0830  0.0728  0.7528
26846SOL    HW184900   0.616   9.868   5.709  0.0965 -0.0152  0.8812
26846SOL    HW284901   0.653   9.729   5.662  1.7691  1.5570 -2.9109
26847SOL     OW84902   3.411   0.615  10.811 -0.4274 -0.1284 -0.6738
26847SOL    HW184903   3.416   0.699  10.766 -1.7846  0.1771 -0.2901
26847SOL    HW284904   3.446   0.631  10.898  2.5299 -0.7988 -1.6165
26848SOL     OW84905   5.168   1.484   2.915  0.2699  0.0862 -0.3308
26848SOL    HW184906   5.098   1.540   2.882 -0.5776 -1.5836 -1.5619
26848SOL    HW284907   5.136   1.453   3.000 -0.8028 -1.0892 -1.1211
26849SOL     OW84908   8.800   0.647   1.263  0.2490  0.1573  0.5163
26849SOL    HW184909   8.734   0.684   1.205  0.4472  1.6520  1.2029
26849SOL    HW284910   8.858   0.598   1.205 -1.1339 -0.7313 -0.1630
26850SOL     OW84911  10.403   4.560   2.550  0.1265  0.1621 -0.5003
26850SOL    HW184912  10.404   4.492   2.482  2.0774 -0.4815  0.0964
26850SOL    HW284913  10.488   4.551   2.594  0.3728  2.8733 -0.2625
26851SOL     OW84914  10.360   9.971   3.336  0.2125 -0.1152 -0.1351
26851SOL    HW184915  10.434   9.911   3.351  0.8811  0.4719 -0.9981
26851SOL    HW284916  10.360  10.028   3.413  0.2155 -0.5615  0.2027
26852SOL     OW84917  10.755   7.754   2.135  0.2968  0.0404  0.0552
26852SOL    HW184918  10.696   7.710   2.196  0.1939  1.3959  0.9724
26852SOL    HW284919  10.698   7.786   2.065 -0.0148  0.9413  0.7022
26853SOL     OW84920   4.731   0.645   6.733 -0.3461 -1.0533 -0.0980
26853SOL    HW184921   4.726   0.713   6.666  0.6079 -0.9442 -0.0762
26853SOL    HW284922   4.755   0.566   6.684  4.2935 -0.2717  0.3808
26854SOL     OW84923   8.085   4.941   6.692  0.1571  0.5555 -0.0194
26854SOL    HW184924   8.089   5.023   6.642  1.9984  0.8468  0.5127
26854SOL    HW284925   8.056   4.969   6.779  2.5919  1.0163  0.7236
26855SOL     OW84926   5.271  10.432   5.750 -0.1373 -0.5003  0.1846
26855SOL    HW184927   5.215  10.481   5.689  1.4772  2.1801  0.6786
26855SOL    HW284928   5.251  10.469   5.836  1.5381 -0.2406  0.5055
26856SOL     OW84929   7.563   9.646   7.394  0.1139  0.1121  0.2515
26856SOL    HW184930   7.505   9.615   7.463  2.1332 -0.1383  1.9322
26856SOL    HW284931   7.595   9.731   7.426  2.1688 -0.6466  0.3884
26857SOL     OW84932   1.194   1.158   6.104 -0.6898  0.1996 -0.2151
26857SOL    HW184933   1.099   1.158   6.116 -0.7644  0.6171 -0.7671
26857SOL    HW284934   1.223   1.074   6.140 -1.5095 -0.8144 -1.8388
26858SOL     OW84935   1.742   0.081   8.291  0.0575  0.0036  0.0993
26858SOL    HW184936   1.751   0.152   8.228 -0.4862 -0.1539 -0.1581
26858SOL    HW284937   1.746   0.001   8.239 -1.1299 -0.1124  0.1553
26859SOL     OW84938   7.718   2.392   8.276 -0.1124 -0.0601  0.3234
26859SOL    HW184939   7.633   2.350   8.283  0.5063 -1.1371  2.1141
26859SOL    HW284940   7.700   2.475   8.232 -2.0425 -0.3447  0.4819
26860SOL     OW84941   0.293   5.920   4.886  0.3153 -0.5955 -0.1169
26860SOL    HW184942   0.199   5.917   4.870  0.3067  0.0674 -0.2076
26860SOL    HW284943   0.322   6.001   4.845  0.2520  1.4133  3.4049
26861SOL     OW84944   9.602   0.446   2.024 -0.2597 -0.4655  0.3046
26861SOL    HW184945   9.578   0.459   1.932 -0.4508 -0.8575  0.3008
26861SOL    HW284946   9.620   0.535   2.056 -1.7865 -0.1516  0.3370
26862SOL     OW84947   8.761   7.724   0.475  0.1360 -0.0248 -0.4275
26862SOL    HW184948   8.834   7.772   0.436  0.9460 -0.7269  0.1834
26862SOL    HW284949   8.765   7.745   0.569 -0.9107  0.5108 -0.4841
26863SOL     OW84950   8.670   8.207   5.586 -0.0816  0.6650  0.2376
26863SOL    HW184951   8.641   8.122   5.620  0.6488  0.7178  1.0500
26863SOL    HW284952   8.760   8.191   5.557  0.4317  1.3923  1.3752
26864SOL     OW84953   1.766   8.309  11.088 -0.2079 -0.3196 -0.0842
26864SOL    HW184954   1.682   8.268  11.066 -0.2213  0.2720 -1.2058
26864SOL    HW284955   1.821   8.237  11.118 -0.7908 -0.8784 -0.3474
26865SOL     OW84956   5.588   4.476  10.969 -0.0088 -0.1216 -0.5455
26865SOL    HW184957   5.675   4.489  10.931 -0.8865  1.8857 -2.0664
26865SOL    HW284958   5.587   4.531  11.047  0.1757 -0.3934 -0.3493
26866SOL     OW84959  10.701   5.211  10.185  0.1065 -0.3660 -0.1222
26866SOL    HW184960  10.778   5.168  10.149 -0.3850  0.4456 -2.2725
26866SOL    HW284961  10.627   5.170  10.141 -0.4236  1.8951 -1.5077
26867SOL     OW84962   8.540   3.963   4.218  0.5399  0.1305  0.0364
26867SOL    HW184963   8.635   3.954   4.221  0.5783  0.7616  1.3534
26867SOL    HW284964   8.525   4.043   4.168  0.6976  0.1557  0.0296
26868SOL     OW84965   7.429   8.503   8.537  0.0736 -0.1626 -0.1415
26868SOL    HW184966   7.506   8.523   8.484 -0.2938  1.0735 -0.2206
26868SOL    HW284967   7.355   8.508   8.477 -0.3061  0.8953  0.3874
26869SOL     OW84968   8.542  10.193   1.575 -0.4869  0.0190  0.2416
26869SOL    HW184969   8.613  10.161   1.519 -2.2807  0.1861 -2.3080
26869SOL    HW284970   8.548  10.289   1.569  0.0464  0.0684  1.3747
26870SOL     OW84971   9.265   2.902   9.257 -0.0838  0.7347  0.5571
26870SOL    HW184972   9.270   2.998   9.254  4.2851  0.8386  2.5839
26870SOL    HW284973   9.248   2.882   9.349  2.4578 -0.2848  0.8836
26871SOL     OW84974  10.006   1.210   7.865  0.6700  0.0798 -0.0631
26871SOL    HW184975   9.990   1.205   7.959 -0.2927 -1.1433 -0.2680
26871SOL    HW284976   9.922   1.187   7.824  1.5909 -1.4824 -1.1968
26872SOL     OW84977   5.375   4.573   4.815 -0.1755 -0.2330 -0.2796
26872SOL    HW184978   5.426   4.652   4.797 -1.1718  0.3988 -0.3991
26872SOL    HW284979   5.326   4.557   4.734  0.5816 -1.4174 -0.5182
26873SOL     OW84980   7.517   1.044   8.185  0.3482  0.2033  0.5382
26873SOL    HW184981   7.568   0.978   8.232  0.7175  0.0802 -0.0313
26873SOL    HW284982   7.426   1.029   8.212  0.5114 -0.1151  0.9101
26874SOL     OW84983   8.349   5.745   3.911 -0.2109 -0.0625  0.0148
26874SOL    HW184984   8.321   5.828   3.948 -0.6360  0.0464 -0.5381
26874SOL    HW284985   8.428   5.721   3.960  0.2853  0.9789 -0.2499
26875SOL     OW84986   8.524   3.989   7.881  0.0439 -0.2830  0.6591
26875SOL    HW184987   8.594   3.937   7.921 -0.9218 -1.6064  0.6769
26875SOL    HW284988   8.564   4.075   7.867  1.3600 -0.7028  1.6000
26876SOL     OW84989   9.484   3.108   5.819 -0.2302 -0.5092 -0.2390
26876SOL    HW184990   9.544   3.033   5.827  1.2251  0.5620 -0.6629
26876SOL    HW284991   9.510   3.150   5.737  2.0458  2.9504  1.9668
26877SOL     OW84992   2.125   8.519   4.857  0.1923  0.3959 -0.2846
26877SOL    HW184993   2.102   8.609   4.879 -0.4726  0.0643  0.4229
26877SOL    HW284994   2.149   8.479   4.941  0.0134 -0.2195 -0.5230
26878SOL     OW84995   8.530   3.298   0.836 -0.0800 -0.3280 -0.3686
26878SOL    HW184996   8.495   3.318   0.750 -1.2156  2.3262  0.5916
26878SOL    HW284997   8.481   3.221   0.865 -2.4297  0.9711 -0.6438
26879SOL     OW84998   0.951   5.207   9.858 -0.2479 -0.1798 -0.2675
26879SOL    HW184999   0.881   5.161   9.813  0.0506  0.1529 -1.0901
26879SOL    HW285000   1.009   5.137   9.889  0.0404 -0.3869 -1.2376
26880SOL     OW85001   5.867  10.141   2.254 -1.1087  0.3812 -0.0086
26880SOL    HW185002   5.893  10.229   2.278 -1.3800  0.5948 -0.4805
26880SOL    HW285003   5.843  10.099   2.337  0.1115  0.3745  0.3528
26881SOL     OW85004   5.288   5.759   8.346 -0.5217 -0.0073 -0.1854
26881SOL    HW185005   5.355   5.808   8.394  0.0866 -1.4933  0.5543
26881SOL    HW285006   5.235   5.827   8.304  2.0176  1.2576 -1.6589
26882SOL     OW85007   5.979   3.007   0.142  0.2828  0.3499  0.9883
26882SOL    HW185008   5.953   2.915   0.145 -0.1212  0.4337  0.2815
26882SOL    HW285009   5.959   3.040   0.229 -2.9596  0.6372  0.2895
26883SOL     OW85010   8.309  10.820   3.951  0.4516 -0.0433 -0.0308
26883SOL    HW185011   8.305  10.879   4.026 -1.0046 -0.4304  0.2369
26883SOL    HW285012   8.221  10.826   3.912  0.1768 -2.2263  0.1624
26884SOL     OW85013   1.356   2.166  10.424  0.9413 -0.6927 -0.0062
26884SOL    HW185014   1.294   2.168  10.497 -0.0930 -1.6011 -0.8295
26884SOL    HW285015   1.322   2.099  10.366  0.7983  1.1501 -2.1614
26885SOL     OW85016   5.813   7.147   7.636  0.3780 -0.6129 -0.0503
26885SOL    HW185017   5.760   7.180   7.708  0.6656 -0.0101 -0.1030
26885SOL    HW285018   5.752   7.099   7.581 -0.0275 -0.2932  0.1165
26886SOL     OW85019   1.975   6.182   1.295 -0.4278  0.1641  0.0274
26886SOL    HW185020   1.893   6.187   1.345  0.3880  0.6604  1.3434
26886SOL    HW285021   2.044   6.194   1.360  0.6957  0.0804 -1.1166
26887SOL     OW85022   3.123   5.970   9.707  0.1666 -0.2459 -0.7459
26887SOL    HW185023   3.217   5.949   9.710  0.0474 -0.8933 -1.3178
26887SOL    HW285024   3.086   5.925   9.782  0.0628 -1.3394 -1.4378
26888SOL     OW85025   7.391   7.520   1.493 -0.6387  1.0044 -0.3196
26888SOL    HW185026   7.392   7.544   1.401 -0.1621  1.5014 -0.1931
26888SOL    HW285027   7.385   7.424   1.493  0.0164  0.9520 -0.8823
26889SOL     OW85028   0.232   4.581  10.900 -0.0920  0.1572 -0.3046
26889SOL    HW185029   0.223   4.542  10.813  0.4531  0.3203 -0.4434
26889SOL    HW285030   0.284   4.517  10.949 -1.1328 -0.3326  0.1706
26890SOL     OW85031   3.413   8.939   9.111 -0.0144 -0.3926 -0.8495
26890SOL    HW185032   3.335   8.964   9.062 -0.0746  1.4978  0.1302
26890SOL    HW285033   3.389   8.951   9.203  1.9743  2.2823 -0.5512
26891SOL     OW85034   3.353   1.756   0.508 -0.3409  0.4390 -0.4703
26891SOL    HW185035   3.387   1.740   0.596  0.9984  0.2796 -0.9982
26891SOL    HW285036   3.284   1.691   0.496 -0.1616  0.1130  0.2533
26892SOL     OW85037   9.484   8.683  10.489 -0.1744 -0.3985 -0.3315
26892SOL    HW185038   9.468   8.642  10.574 -1.8972  0.0693 -0.3979
26892SOL    HW285039   9.438   8.626  10.426 -1.3229  0.7773 -0.5921
26893SOL     OW85040   1.211   2.769   8.007 -0.0152 -0.5976 -0.0832
26893SOL    HW185041   1.209   2.835   8.075 -0.7588  0.6096 -1.2167
26893SOL    HW285042   1.302   2.739   8.004  0.2334  0.0591  0.7513
26894SOL     OW85043   0.997   1.953   4.665  0.1477 -0.4285  0.2877
26894SOL    HW185044   1.020   2.046   4.669 -2.1578  0.2496 -0.2081
26894SOL    HW285045   1.053   1.912   4.730  1.1278  1.3387  0.6410
26895SOL     OW85046   4.511   6.149   2.670 -0.2896 -0.3496 -0.2942
26895SOL    HW185047   4.544   6.216   2.610  0.6847 -0.2778  0.3008
26895SOL    HW285048   4.510   6.191   2.756 -0.9978 -0.6742 -0.1318
26896SOL     OW85049   4.657   7.271   8.494 -0.1246  0.3145 -0.3789
26896SOL    HW185050   4.610   7.353   8.488  0.4454  0.8302  1.4409
26896SOL    HW285051   4.730   7.280   8.433 -0.2673  1.0098 -0.4487
26897SOL     OW85052   2.246   6.172   6.259  0.2451 -0.2268  0.5639
26897SOL    HW185053   2.225   6.263   6.240  0.3313 -0.1706  0.7339
26897SOL    HW285054   2.280   6.173   6.348  0.0041 -0.4631  0.6608
26898SOL     OW85055   1.617   6.084   1.567 -0.0955 -0.2409 -0.4334
26898SOL    HW185056   1.600   6.137   1.489  1.6471  2.2031  0.7076
26898SOL    HW285057   1.540   6.027   1.576 -3.8653  4.3373  0.0359
26899SOL     OW85058   2.430   5.542   8.120  0.2689 -0.4481 -0.2314
26899SOL    HW185059   2.414   5.598   8.196  2.2650  1.0890 -0.8611
26899SOL    HW285060   2.358   5.561   8.060 -0.7187 -0.8484  0.8093
26900SOL     OW85061  10.105   5.950   1.193  0.2720  0.1357 -0.2928
26900SOL    HW185062  10.145   5.886   1.252  0.1487  0.2940 -0.0329
26900SOL    HW285063  10.095   5.904   1.110  1.6098  0.2972 -0.5722
26901SOL     OW85064   0.519   1.457   1.770  0.2597 -0.1978 -0.0782
26901SOL    HW185065   0.545   1.461   1.862 -0.6492 -0.0383  0.1808
26901SOL    HW285066   0.448   1.521   1.763 -0.4137 -0.9941 -0.6453
26902SOL     OW85067   8.690   1.417   6.844 -0.3370  0.0236 -0.2746
26902SOL    HW185068   8.703   1.512   6.843  0.1340 -0.0298  0.2239
26902SOL    HW285069   8.764   1.383   6.894  0.7346 -0.8188 -2.3337
26903SOL     OW85070   5.047   1.406   8.189  0.0905  0.4966  0.2806
26903SOL    HW185071   5.075   1.473   8.252  2.0657  0.3247 -0.3443
26903SOL    HW285072   5.119   1.402   8.125 -1.0693 -0.5667 -1.0048
26904SOL     OW85073   5.895   7.289   8.183  0.1508 -0.4066 -0.0183
26904SOL    HW185074   5.803   7.315   8.177  0.1879 -0.0647  0.7375
26904SOL    HW285075   5.942   7.353   8.130 -0.1049 -0.9664 -0.9442
26905SOL     OW85076  10.223   4.861   2.406  0.0115  0.5927  0.2734
26905SOL    HW185077  10.261   4.780   2.371 -2.3689  0.8375 -3.5035
26905SOL    HW285078  10.299   4.917   2.423  1.6016 -1.2662 -0.2244
26906SOL     OW85079   6.834   1.157   2.046  0.4221 -0.2191  0.3587
26906SOL    HW185080   6.851   1.154   2.140  5.3031 -0.0611 -0.2674
26906SOL    HW285081   6.900   1.098   2.008  1.5585  2.9619 -3.1706
26907SOL     OW85082   7.845  10.630   7.261  0.0851 -0.1031  0.5606
26907SOL    HW185083   7.929  10.589   7.243  0.2633  0.4809  0.0163
26907SOL    HW285084   7.846  10.650   7.354  0.7842  0.4120  0.4493
26908SOL     OW85085   6.391   0.773   3.947  0.2179 -0.6142  0.6759
26908SOL    HW185086   6.310   0.807   3.985  1.0401 -0.3173  2.2611
26908SOL    HW285087   6.460   0.815   3.997  1.4446  0.5902 -1.8636
26909SOL     OW85088   7.293   3.170  10.272 -0.7812 -0.5109  0.6529
26909SOL    HW185089   7.274   3.175  10.366 -0.1996 -0.6653  0.7856
26909SOL    HW285090   7.378   3.214  10.262 -1.4533  0.6910 -0.0090
26910SOL     OW85091   3.167   8.172   1.510 -0.0451  0.3007  0.0705
26910SOL    HW185092   3.197   8.086   1.538  0.1586  0.2076 -0.4240
26910SOL    HW285093   3.099   8.155   1.444  0.4012  0.5091 -0.4568
26911SOL     OW85094   5.525   4.994   8.789 -0.3113  0.2039  0.1773
26911SOL    HW185095   5.468   5.063   8.754 -1.0215 -0.0257  0.8533
26911SOL    HW285096   5.475   4.956   8.861  0.8651  0.2452  1.0370
26912SOL     OW85097   9.937   8.747   2.613 -0.3306 -0.0197 -0.7957
26912SOL    HW185098   9.930   8.670   2.557  1.4071 -0.0060 -1.0744
26912SOL    HW285099   9.853   8.751   2.658 -0.9603 -1.2806 -1.7892
26913SOL     OW85100   7.285   5.080   5.789 -0.0311 -0.3574  0.6672
26913SOL    HW185101   7.331   5.115   5.713 -0.6400 -0.1175  0.4019
26913SOL    HW285102   7.327   4.996   5.806  0.2478 -0.3164  0.1916
26914SOL     OW85103   2.804   5.031   8.423 -0.1729  0.1838 -0.1127
26914SOL    HW185104   2.780   4.942   8.450 -0.0771  0.7584  1.9684
26914SOL    HW285105   2.763   5.088   8.488  3.9001  1.3814  1.7007
26915SOL     OW85106   8.913   3.985   0.103 -0.5196  0.4489  0.7718
26915SOL    HW185107   8.897   3.896   0.072  1.8461  0.3512 -0.4857
26915SOL    HW285108   8.837   4.007   0.156 -2.2143 -1.4886 -0.6938
26916SOL     OW85109   1.708   6.602   5.131 -0.1759  0.3297  0.0737
26916SOL    HW185110   1.620   6.564   5.130 -0.3108  0.6137  0.8278
26916SOL    HW285111   1.695   6.694   5.153  0.4492 -0.0655  2.4191
26917SOL     OW85112   5.889  10.838   6.149  0.4663 -0.1295 -0.1272
26917SOL    HW185113   5.832  10.761   6.139 -2.1059  1.0986  3.0642
26917SOL    HW285114   5.977  10.802   6.162 -0.3978 -2.4463 -0.2679
26918SOL     OW85115   3.508   3.868   7.966 -0.1177 -0.1335 -0.5765
26918SOL    HW185116   3.597   3.865   7.930  0.6367 -2.1470  1.2423
26918SOL    HW285117   3.513   3.934   8.035  0.4506 -1.3124  0.5560
26919SOL     OW85118   8.276   5.935   6.082 -0.1749  0.1496 -0.9739
26919SOL    HW185119   8.290   6.008   6.022 -0.7705  0.5387 -0.6505
26919SOL    HW285120   8.349   5.940   6.143 -0.4831  0.7920 -0.6469
26920SOL     OW85121   1.348   7.727   2.455 -0.6109 -0.1853  0.1584
26920SOL    HW185122   1.430   7.740   2.504 -2.0151  2.0244  2.1633
26920SOL    HW285123   1.359   7.778   2.375 -0.1544  0.4581  0.6192
26921SOL     OW85124   3.679   8.647   4.228 -0.0533  0.1826 -0.9118
26921SOL    HW185125   3.711   8.585   4.293  0.2810  1.3770  0.1090
26921SOL    HW285126   3.596   8.610   4.198 -0.9230  0.2578  1.2365
26922SOL     OW85127   4.398   2.759   2.635  0.4302  0.2218 -0.1609
26922SOL    HW185128   4.470   2.763   2.571 -0.7308 -2.2464 -1.7736
26922SOL    HW285129   4.334   2.823   2.604 -0.9801 -2.2386 -2.7776
26923SOL     OW85130   1.975   4.434   1.745 -0.0394 -0.2556 -0.7478
26923SOL    HW185131   2.013   4.360   1.697  0.8132 -0.9128  0.8748
26923SOL    HW285132   2.044   4.461   1.806 -1.5450 -0.3517  1.0769
26924SOL     OW85133   9.829   2.041   4.732  0.1096  0.1361 -0.0900
26924SOL    HW185134   9.770   2.113   4.756  0.6958  0.0152  1.9220
26924SOL    HW285135   9.916   2.081   4.729  0.1169  0.0414 -1.7259
26925SOL     OW85136   6.893   3.557   9.776  0.1098  0.3237 -0.2449
26925SOL    HW185137   6.826   3.499   9.815  2.3761 -0.4622  2.8599
26925SOL    HW285138   6.861   3.645   9.794 -1.0347  0.0180 -0.6501
26926SOL     OW85139   7.898   2.811   5.772  0.2005 -0.3162  0.6055
26926SOL    HW185140   7.859   2.808   5.685  1.0963 -2.7888  0.2013
26926SOL    HW285141   7.870   2.729   5.813  1.5412 -0.1921  1.8419
26927SOL     OW85142  10.057   0.252   4.300 -0.0455  0.1492 -0.1739
26927SOL    HW185143  10.147   0.251   4.268 -0.5136 -2.7838 -1.7391
26927SOL    HW285144  10.007   0.203   4.235 -1.9106 -2.4145  2.8318
26928SOL     OW85145   7.623   5.179   5.364 -0.0766  0.1652 -0.2043
26928SOL    HW185146   7.679   5.196   5.440  0.5097  0.5683 -0.7150
26928SOL    HW285147   7.660   5.100   5.324  0.3635  0.6369 -0.7479
26929SOL     OW85148  10.320   3.680   7.496 -0.1897 -0.3253  0.3222
26929SOL    HW185149  10.378   3.605   7.486  1.2960  0.8275 -0.0555
26929SOL    HW285150  10.359   3.732   7.565 -0.2716  0.9012 -0.5213
26930SOL     OW85151   2.532   8.296   8.885 -0.5478 -0.2332  0.1185
26930SOL    HW185152   2.476   8.238   8.937 -1.2316 -0.4597 -0.8521
26930SOL    HW285153   2.496   8.292   8.797  0.1888  0.6696 -0.2417
26931SOL     OW85154   7.847   9.187   2.188 -0.0846  0.8069  0.2195
26931SOL    HW185155   7.829   9.178   2.281  1.6041  2.4113  0.7700
26931SOL    HW285156   7.831   9.280   2.169  1.1761  0.8754 -0.6822
26932SOL     OW85157   2.441   8.485  10.388  0.1611 -0.0843  0.7039
26932SOL    HW185158   2.346   8.481  10.398 -0.0348 -0.9695 -0.9963
26932SOL    HW285159   2.476   8.482  10.477 -1.4205  1.3892  1.4087
26933SOL     OW85160   6.987   7.755   1.780 -0.0134 -0.0543  0.3527
26933SOL    HW185161   7.012   7.719   1.865 -0.3305  1.2196  1.0040
26933SOL    HW285162   7.069   7.758   1.731  0.7612  1.7747  1.6102
26934SOL     OW85163   2.915   6.025   2.571  0.2249 -0.0775 -0.4064
26934SOL    HW185164   2.992   6.079   2.588 -0.8076  0.9276  1.4470
26934SOL    HW285165   2.923   6.000   2.479  2.8550 -0.2126 -0.2152
26935SOL     OW85166   9.644   8.500   8.659 -0.2067 -0.2906  0.8219
26935SOL    HW185167   9.690   8.554   8.723  0.1156  1.1828 -0.5964
26935SOL    HW285168   9.623   8.419   8.707  2.8146 -0.5824  1.8938
26936SOL     OW85169   9.766   6.320   8.098  0.0609  0.2107  0.0102
26936SOL    HW185170   9.735   6.401   8.138 -1.2742  0.4276 -1.3667
26936SOL    HW285171   9.851   6.343   8.059  0.7800  0.3096  1.5531
26937SOL     OW85172   4.319   6.125   4.826  0.2779  0.2622 -0.5365
26937SOL    HW185173   4.413   6.112   4.834  0.3953  0.5144 -1.4207
26937SOL    HW285174   4.306   6.156   4.736 -0.7614 -0.8611 -0.8141
26938SOL     OW85175   0.373   9.696  10.175 -0.4409 -0.1270  0.1226
26938SOL    HW185176   0.333   9.726  10.256  3.4175 -1.5382  2.8312
26938SOL    HW285177   0.410   9.775  10.136 -1.0899  0.3680  0.4916
26939SOL     OW85178  10.432   0.638   1.585  0.1106  0.2836 -0.4361
26939SOL    HW185179  10.504   0.643   1.647 -1.0223  2.6671  0.8505
26939SOL    HW285180  10.462   0.686   1.508 -0.0006  1.1262  0.0325
26940SOL     OW85181   3.866   5.878   9.741 -0.4160 -0.0513  0.4171
26940SOL    HW185182   3.796   5.815   9.760  1.0105 -1.6381  0.6738
26940SOL    HW285183   3.820   5.959   9.720 -2.3973 -1.4817 -1.1958
26941SOL     OW85184   9.709   4.513   8.209  0.1247  0.2167  0.0451
26941SOL    HW185185   9.677   4.424   8.195 -0.2898  0.4774 -0.7314
26941SOL    HW285186   9.687   4.559   8.128 -0.3504  1.2253  0.7325
26942SOL     OW85187   7.358   3.069   0.084 -0.5670 -0.5286 -0.2635
26942SOL    HW185188   7.433   3.016   0.108  0.5066  1.2700  0.5349
26942SOL    HW285189   7.358   3.141   0.146 -2.2136  0.2064 -1.0469
26943SOL     OW85190   8.504   4.587   5.266 -0.9586 -0.4159 -0.2095
26943SOL    HW185191   8.525   4.494   5.266 -1.0855 -0.4472  0.2738
26943SOL    HW285192   8.536   4.619   5.350  1.0111  0.4311 -1.2335
26944SOL     OW85193   5.454   3.680   1.351 -0.0226  0.2528  0.2840
26944SOL    HW185194   5.479   3.623   1.424 -0.3350 -1.3180 -0.7936
26944SOL    HW285195   5.376   3.638   1.313 -0.2897  1.4308 -0.5295
26945SOL     OW85196   1.856  10.396   4.009 -0.1177 -0.2019 -0.7764
26945SOL    HW185197   1.904  10.478   4.021 -0.1370 -0.0258 -1.8662
26945SOL    HW285198   1.898  10.353   3.935  0.9225 -1.9501  0.7316
26946SOL     OW85199  10.178   4.349   8.339 -0.8406 -0.4129  1.2866
26946SOL    HW185200  10.126   4.421   8.304 -0.6234 -0.8210  0.0738
26946SOL    HW285201  10.265   4.360   8.299 -0.5780 -0.8815  1.7147
26947SOL     OW85202   8.979   6.834   0.433  0.4264 -0.1386 -0.0723
26947SOL    HW185203   8.910   6.779   0.471  0.1358  0.6249  0.5307
26947SOL    HW285204   9.040   6.772   0.393 -1.2327 -0.8171 -1.7288
26948SOL     OW85205   4.276   1.778   5.285  0.3420 -0.6107 -0.2553
26948SOL    HW185206   4.204   1.751   5.342 -0.5254  1.5712 -0.2150
26948SOL    HW285207   4.234   1.806   5.204  0.9819  1.7082  0.1505
26949SOL     OW85208   7.608   2.267  10.588  0.1564  0.2972 -0.3132
26949SOL    HW185209   7.658   2.304  10.660 -1.4854 -2.3869  2.4547
26949SOL    HW285210   7.519   2.299  10.601  0.0456  0.7934 -1.9988
26950SOL     OW85211   1.695   9.240   1.243  0.2613  0.5167 -0.2300
26950SOL    HW185212   1.619   9.276   1.197  1.7622  1.3388 -2.2218
26950SOL    HW285213   1.714   9.158   1.197 -0.7586 -0.9116  1.7639
26951SOL     OW85214   4.234   5.622   5.623  0.0510  0.1336 -0.7062
26951SOL    HW185215   4.159   5.680   5.611 -0.6633  0.3908  3.3636
26951SOL    HW285216   4.206   5.539   5.584 -1.8794  0.5718 -0.3881
26952SOL     OW85217   3.852   5.958   5.440  0.1935 -0.3333  0.5634
26952SOL    HW185218   3.923   5.997   5.389  1.0982  0.9824  2.6995
26952SOL    HW285219   3.773   6.001   5.407  0.8722  1.2654  0.9135
26953SOL     OW85220   6.968  10.087   3.689  0.0033 -0.4876 -0.4554
26953SOL    HW185221   6.939  10.141   3.763 -0.8896 -0.0703 -1.0973
26953SOL    HW285222   7.060  10.109   3.678 -0.4078  1.1526 -0.8884
26954SOL     OW85223   5.745   9.417   2.886  0.2255 -0.1308  0.2844
26954SOL    HW185224   5.710   9.328   2.882 -1.3444  0.4611 -0.0762
26954SOL    HW285225   5.679   9.467   2.935  1.0850  0.8330  0.5085
26955SOL     OW85226   2.016   4.101   6.127 -0.1353  0.6553 -0.2765
26955SOL    HW185227   2.089   4.066   6.178  0.3460  0.4366 -1.0968
26955SOL    HW285228   1.967   4.024   6.099  0.0448  0.7197 -0.7864
26956SOL     OW85229  10.021   3.882   4.314 -0.2411  0.4671 -0.2148
26956SOL    HW185230  10.112   3.855   4.302  0.1383  1.0100  1.2437
26956SOL    HW285231  10.023   3.939   4.391 -1.7241  0.9788 -0.5264
26957SOL     OW85232   8.504   3.623   5.829 -0.1247  0.5050  0.8606
26957SOL    HW185233   8.412   3.599   5.833  0.0207 -0.4563 -0.8650
26957SOL    HW285234   8.551   3.543   5.852  0.2952  0.7438  0.8443
26958SOL     OW85235   4.511   4.019   0.364  0.0510  0.2649 -0.5121
26958SOL    HW185236   4.562   4.024   0.283  1.8839  0.7304  0.6265
26958SOL    HW285237   4.480   4.109   0.377 -1.5040 -0.0875 -1.4056
26959SOL     OW85238  10.575   8.588   8.903  1.1582 -0.2374  0.5704
26959SOL    HW185239  10.552   8.548   8.987 -0.3434 -0.9466 -0.1412
26959SOL    HW285240  10.645   8.533   8.868 -0.8175 -2.3115 -0.3524
26960SOL     OW85241  10.427   3.381   6.395 -0.4414 -0.0388  0.1597
26960SOL    HW185242  10.472   3.376   6.479  1.8090  0.9459 -0.9153
26960SOL    HW285243  10.488   3.342   6.333  0.5713  4.2317 -1.9184
26961SOL     OW85244  10.993   6.107   0.119  0.1932  0.3551 -0.1021
26961SOL    HW185245  10.952   6.192   0.137  1.0606  0.5677  0.9699
26961SOL    HW285246  11.086   6.121   0.136  0.3004 -0.9033  0.4365
26962SOL     OW85247   0.380  10.310   8.291 -0.2638  0.1284  0.2313
26962SOL    HW185248   0.446  10.369   8.254 -0.3714  1.1589  1.6163
26962SOL    HW285249   0.332  10.277   8.215  0.6019  0.8509 -0.6585
26963SOL     OW85250   9.867   2.837   3.207 -0.1630  0.0935 -0.2947
26963SOL    HW185251   9.800   2.898   3.237 -0.8920 -1.1269  0.6709
26963SOL    HW285252   9.942   2.854   3.264 -0.3369  0.1351 -0.0776
26964SOL     OW85253   2.453   9.360   4.941 -0.3952 -0.2562 -0.3772
26964SOL    HW185254   2.508   9.287   4.970  0.2619  0.2828 -0.2405
26964SOL    HW285255   2.435   9.341   4.849  1.1275  0.2142 -0.7955
26965SOL     OW85256   0.809  10.506   6.214  0.2388 -0.3222 -0.4299
26965SOL    HW185257   0.897  10.524   6.246 -0.7285  0.3947  2.0417
26965SOL    HW285258   0.762  10.588   6.224 -1.1767 -1.1470 -0.0332
26966SOL     OW85259   9.619   0.136   4.941 -0.9568  0.0265 -0.1093
26966SOL    HW185260   9.554   0.118   4.873 -0.7845 -2.9057  0.3956
26966SOL    HW285261   9.677   0.060   4.941  1.8748  1.9938  0.2513
26967SOL     OW85262  10.749   7.915   1.481 -0.2256  0.3573 -0.1635
26967SOL    HW185263  10.799   7.983   1.436  1.3380 -0.5877  0.0489
26967SOL    HW285264  10.725   7.954   1.565 -1.8256  1.5988 -1.1511
26968SOL     OW85265   0.226   9.269   9.392 -1.0451  0.1954  0.5713
26968SOL    HW185266   0.253   9.270   9.300 -0.2508 -0.0090  0.7871
26968SOL    HW285267   0.191   9.181   9.406 -1.3168  0.2796  0.4215
26969SOL     OW85268   2.483   5.736   5.093 -0.2101 -0.4998  0.5453
26969SOL    HW185269   2.574   5.706   5.090 -0.6998 -2.0106 -1.5752
26969SOL    HW285270   2.489   5.828   5.116  1.8663 -0.5513  0.4294
26970SOL     OW85271   1.021  11.106   3.918  0.3855 -0.1431  0.1394
26970SOL    HW185272   0.945  11.105   3.859  0.9407  0.7254 -0.6208
26970SOL    HW285273   1.090  11.060   3.869  0.8777  0.6630  0.0517
26971SOL     OW85274   0.605   4.191   8.688  0.3793  0.5402 -0.5497
26971SOL    HW185275   0.563   4.206   8.603 -0.6351  0.0208 -0.1678
26971SOL    HW285276   0.647   4.274   8.710 -0.2235  0.9943 -1.0934
26972SOL     OW85277   9.381   6.038   6.820 -0.1456  0.1250  0.0230
26972SOL    HW185278   9.385   6.063   6.912  0.5307 -0.5462  0.1862
26972SOL    HW285279   9.333   5.956   6.820  0.1079 -0.0234 -0.1895
26973SOL     OW85280  10.948   6.626   0.024 -0.2518  0.4685 -1.0167
26973SOL    HW185281  10.929   6.719   0.035 -0.5783  0.4740 -1.5802
26973SOL    HW285282  11.037   6.615   0.058 -0.6653  0.7405  0.2026
26974SOL     OW85283   7.790   9.406   9.760  0.4119  0.1927  0.5514
26974SOL    HW185284   7.828   9.487   9.725 -0.8453  0.5271 -0.0655
26974SOL    HW285285   7.852   9.337   9.734 -0.5499  0.3777 -2.5686
26975SOL     OW85286   7.455   9.660   6.662 -0.0272  0.3252 -0.5990
26975SOL    HW185287   7.492   9.599   6.725 -0.6871  1.0038  0.4794
26975SOL    HW285288   7.530   9.703   6.622  0.4185  1.8363  1.6973
26976SOL     OW85289   6.745   7.472   3.670  0.5243 -0.1455  0.3276
26976SOL    HW185290   6.821   7.463   3.612  0.1106 -0.9277 -0.0988
26976SOL    HW285291   6.670   7.459   3.613  0.0752  0.1441  0.8465
26977SOL     OW85292   9.287   3.268   9.860  0.0557 -0.7770 -0.2382
26977SOL    HW185293   9.242   3.314   9.788 -1.4880  0.6729  1.5238
26977SOL    HW285294   9.227   3.278   9.934  2.5441 -0.2926  1.8220
26978SOL     OW85295   7.164   0.039   8.242 -0.1965 -0.1236  0.5587
26978SOL    HW185296   7.106  -0.030   8.273 -0.6730 -0.7337 -1.5324
26978SOL    HW285297   7.159   0.035   8.147  2.2781  0.6692  0.2995
26979SOL     OW85298   0.738   1.477   9.607  0.6332  0.1784  0.1201
26979SOL    HW185299   0.644   1.469   9.620  0.4594 -0.9244 -1.4703
26979SOL    HW285300   0.758   1.568   9.630 -1.2913  1.2153 -1.9479
26980SOL     OW85301   0.733   0.451   1.890 -0.4098 -0.4634 -0.0577
26980SOL    HW185302   0.682   0.447   1.971 -1.8309  1.2377 -0.7945
26980SOL    HW285303   0.668   0.443   1.820  0.3462  1.2134 -1.0330
26981SOL     OW85304   0.756   9.557   1.608 -0.2766 -0.1100 -0.4299
26981SOL    HW185305   0.783   9.492   1.543  1.9999 -1.8378  2.0143
26981SOL    HW285306   0.817   9.630   1.596  1.7070 -1.4043  1.0878
26982SOL     OW85307   1.185   9.380   1.675  0.0026 -0.4595  0.1504
26982SOL    HW185308   1.161   9.473   1.675  2.6965  0.4211  3.2288
26982SOL    HW285309   1.144   9.344   1.753  1.4501 -1.0216  0.6879
26983SOL     OW85310   1.544   0.109   3.770 -0.2393 -0.0575  0.0675
26983SOL    HW185311   1.545   0.180   3.706  0.6332 -0.7288 -0.6861
26983SOL    HW285312   1.629   0.114   3.813  0.2064 -1.2262 -0.6543
26984SOL     OW85313   2.884   8.407   8.292  0.0711 -0.6250  0.4454
26984SOL    HW185314   2.795   8.414   8.328 -0.4385  0.1228 -0.8573
26984SOL    HW285315   2.923   8.493   8.309 -0.0227 -0.4149 -0.3176
26985SOL     OW85316   8.403   7.020   2.181 -0.6646  0.0848  0.3711
26985SOL    HW185317   8.341   6.971   2.127 -1.0193  0.5133  0.3869
26985SOL    HW285318   8.462   7.062   2.117 -1.0381  0.5304  0.3116
26986SOL     OW85319   0.283   3.187   4.318  0.0387 -0.3769 -0.5489
26986SOL    HW185320   0.307   3.113   4.262  0.5607 -0.5288 -0.1408
26986SOL    HW285321   0.189   3.198   4.306 -0.0071 -0.9861 -0.7592
26987SOL     OW85322   4.645   8.976   6.707  0.0645  0.8337  0.2789
26987SOL    HW185323   4.568   9.032   6.710  0.0717  0.9789 -1.2172
26987SOL    HW285324   4.631   8.921   6.630 -0.3120 -1.8211  2.1506
26988SOL     OW85325   6.641   5.525   1.083 -0.3917 -0.2233 -0.0546
26988SOL    HW185326   6.689   5.450   1.117  0.1249  0.8083  1.6231
26988SOL    HW285327   6.690   5.601   1.114 -1.9684  0.8316 -0.0154
26989SOL     OW85328   7.372   4.029  10.646  0.2147 -0.4870  0.2978
26989SOL    HW185329   7.395   4.002  10.734 -1.8253 -2.5480  0.2945
26989SOL    HW285330   7.373   3.948  10.595  0.0832  0.4608 -1.2863
26990SOL     OW85331  10.657   4.980   1.505 -0.1186  0.2618  0.7641
26990SOL    HW185332  10.679   5.057   1.558 -1.7029  1.9045 -0.8139
26990SOL    HW285333  10.728   4.975   1.441 -0.1615  0.6024  0.6859
26991SOL     OW85334   4.969  10.289  10.467  0.3518  0.1166 -0.1309
26991SOL    HW185335   4.887  10.339  10.460  0.8970  0.8030 -4.0240
26991SOL    HW285336   5.037  10.356  10.465  1.0343 -0.5821 -1.6894
26992SOL     OW85337   6.942   1.427   7.351 -0.1263  0.0083  0.4649
26992SOL    HW185338   7.030   1.415   7.316  0.4409  0.3272  1.7063
26992SOL    HW285339   6.955   1.482   7.428 -1.1624 -1.4176  1.7271
26993SOL     OW85340  10.496   5.599   7.473 -0.8469  0.1137  0.5034
26993SOL    HW185341  10.487   5.566   7.563 -2.7609  3.1578  1.5952
26993SOL    HW285342  10.571   5.658   7.476 -0.1720 -0.6767 -0.2657
26994SOL     OW85343   1.235   1.523   5.009  0.2616  0.0027 -0.3111
26994SOL    HW185344   1.303   1.459   5.030 -0.7797 -0.8025  0.7013
26994SOL    HW285345   1.242   1.588   5.079  2.1617  1.7897 -2.0025
26995SOL     OW85346   0.789   5.846   1.826 -0.0645  0.3345 -0.1948
26995SOL    HW185347   0.772   5.797   1.907 -0.9567 -0.4537 -0.8271
26995SOL    HW285348   0.733   5.923   1.832 -2.7972 -1.3758 -1.4738
26996SOL     OW85349   6.392   1.437   1.597 -0.6045  0.1063 -0.0029
26996SOL    HW185350   6.487   1.425   1.597 -0.7489 -1.2881 -0.2320
26996SOL    HW285351   6.376   1.509   1.537  0.3486  0.8525  0.6099
26997SOL     OW85352   9.327   7.097   1.553 -0.4162  0.1973  0.1063
26997SOL    HW185353   9.294   7.014   1.519 -0.4897 -0.5026  1.7794
26997SOL    HW285354   9.294   7.164   1.492 -0.9744 -0.9191 -0.8459
26998SOL     OW85355   8.305   3.873   1.141  0.3545 -0.1371 -0.1074
26998SOL    HW185356   8.355   3.946   1.105 -1.0590  1.0354  0.2086
26998SOL    HW285357   8.269   3.906   1.223  2.7892 -2.4694  2.0958
26999SOL     OW85358   1.549   4.479   2.149 -0.5395 -0.1391 -0.5889
26999SOL    HW185359   1.493   4.434   2.086  0.9645 -2.4681 -0.3772
26999SOL    HW285360   1.578   4.411   2.209  0.4527  1.4704  0.8621
27000SOL     OW85361   0.600  10.069   6.315  0.1756  0.7077  0.2127
27000SOL    HW185362   0.544  10.028   6.249 -0.9449  1.0987  0.8888
27000SOL    HW285363   0.590  10.014   6.393 -0.1847  1.4085  0.6805
27001SOL     OW85364   3.480   5.373   9.678 -0.0511  0.1554  0.0161
27001SOL    HW185365   3.433   5.379   9.762  0.0673 -1.0050  0.1835
27001SOL    HW285366   3.553   5.433   9.687 -0.1396  0.1728  0.6839
27002SOL     OW85367   5.475   2.321   7.675  0.2629  0.4697  0.2371
27002SOL    HW185368   5.481   2.226   7.687 -2.6200  0.3433  1.3932
27002SOL    HW285369   5.564   2.353   7.691  1.1603 -1.9447  0.4632
27003SOL     OW85370   1.328   6.024   6.660  0.0526  0.1250  0.1818
27003SOL    HW185371   1.368   5.972   6.590  1.0248  1.4980 -0.3168
27003SOL    HW285372   1.400   6.077   6.695 -0.3416 -0.7192  2.4348
27004SOL     OW85373   7.134   8.633  10.167 -0.2848 -0.3406  0.2289
27004SOL    HW185374   7.074   8.561  10.185  0.2112 -0.6194  0.7950
27004SOL    HW285375   7.105   8.668  10.083  0.3771 -2.1380 -0.7771
27005SOL     OW85376   0.108   4.223  10.652 -0.0579  0.0149  0.3559
27005SOL    HW185377   0.032   4.194  10.704  0.7215  0.3071  1.7089
27005SOL    HW285378   0.153   4.142  10.628  0.7862 -0.0522  2.0555
27006SOL     OW85379   7.867   8.548   7.688  0.2692 -0.2747 -0.4400
27006SOL    HW185380   7.870   8.614   7.757 -0.6075  0.7238 -1.3222
27006SOL    HW285381   7.931   8.577   7.623  0.6294 -0.8626 -0.3560
27007SOL     OW85382   0.744   9.381   6.661 -0.1491 -0.0904 -0.2398
27007SOL    HW185383   0.792   9.401   6.580 -0.9057 -0.1181 -0.7056
27007SOL    HW285384   0.740   9.285   6.663  0.7629 -0.1231  0.3713
27008SOL     OW85385   3.809   6.696   7.483  0.0188  0.9323  0.0268
27008SOL    HW185386   3.757   6.616   7.472 -1.0459  1.6345 -0.1179
27008SOL    HW285387   3.891   6.677   7.436 -0.7290  0.3859 -1.0948
27009SOL     OW85388   9.090   1.538   4.033 -0.2646 -0.2206 -0.3201
27009SOL    HW185389   9.155   1.482   4.075 -1.1791 -0.1000  1.3562
27009SOL    HW285390   9.068   1.492   3.952  0.4126 -1.3008  0.0824
27010SOL     OW85391   1.515   0.727   9.441  0.2064  0.3592  0.0682
27010SOL    HW185392   1.477   0.791   9.501  0.9677  1.3721 -0.5185
27010SOL    HW285393   1.609   0.741   9.446  0.2858  0.5111 -1.4134
27011SOL     OW85394   0.734   8.812  10.202  0.3289  0.4849 -0.0539
27011SOL    HW185395   0.693   8.881  10.255 -1.3437  0.4248 -1.1995
27011SOL    HW285396   0.810   8.855  10.163 -0.2275  1.4461 -0.1085
27012SOL     OW85397   0.768   4.549   2.559  0.2072 -0.2266  0.2305
27012SOL    HW185398   0.833   4.614   2.533  2.0463 -2.3283 -0.7005
27012SOL    HW285399   0.747   4.502   2.478 -0.1588 -1.5882  1.0853
27013SOL     OW85400   9.642   0.425   1.367 -0.1044 -0.3184 -0.5336
27013SOL    HW185401   9.659   0.331   1.367 -0.2400 -0.3456 -0.6980
27013SOL    HW285402   9.702   0.461   1.432 -0.4293 -0.5862 -0.0750
27014SOL     OW85403  10.447   4.495   6.978 -0.0244 -0.1678  0.4430
27014SOL    HW185404  10.532   4.452   6.988 -0.3111 -0.7562  0.3873
27014SOL    HW285405  10.449   4.567   7.042  1.8330  1.9772 -1.7968
27015SOL     OW85406   6.214   1.723   5.519 -0.1701  0.2051 -0.2186
27015SOL    HW185407   6.161   1.644   5.535 -1.6934  1.2714  0.1971
27015SOL    HW285408   6.278   1.724   5.590  0.9298 -1.4648 -1.1059
27016SOL     OW85409   3.688   5.128   4.782 -0.5191  0.4631  0.0610
27016SOL    HW185410   3.749   5.201   4.771 -0.4406  0.4309  0.2843
27016SOL    HW285411   3.639   5.125   4.700 -0.0965  0.3767 -0.1886
27017SOL     OW85412   1.854   7.783   8.340  0.1016 -0.6358 -0.3049
27017SOL    HW185413   1.866   7.688   8.343 -1.1967 -0.8186  0.0625
27017SOL    HW285414   1.820   7.805   8.427 -0.7260 -0.0181 -0.7704
27018SOL     OW85415   2.139   1.998   3.296  0.2968 -0.7300 -0.1380
27018SOL    HW185416   2.074   1.929   3.300  0.2400 -0.8442 -2.0193
27018SOL    HW285417   2.093   2.073   3.258  1.7454 -1.6588 -4.3168
27019SOL     OW85418  10.511   4.249   4.890  0.0521  0.1411  0.0492
27019SOL    HW185419  10.601   4.281   4.897  0.7000 -1.5232 -0.4410
27019SOL    HW285420  10.503   4.184   4.960  0.8741 -3.3588 -2.8177
27020SOL     OW85421   9.142   3.857   7.587 -0.5016 -0.3806  0.0561
27020SOL    HW185422   9.135   3.762   7.584 -1.4753 -0.3994  1.7806
27020SOL    HW285423   9.082   3.888   7.519 -0.9878 -0.9738  0.2101
27021SOL     OW85424   9.714   0.764   3.328 -0.5946 -0.6044 -0.3752
27021SOL    HW185425   9.774   0.838   3.335 -0.5685 -0.6550 -0.0240
27021SOL    HW285426   9.664   0.780   3.249  0.8649 -1.2807 -1.4890
27022SOL     OW85427   1.085  10.627   2.462  0.1234  0.7084 -0.4576
27022SOL    HW185428   1.009  10.684   2.452 -0.3469 -0.0220 -1.1912
27022SOL    HW285429   1.100  10.591   2.375  0.2071 -0.5336  0.0407
27023SOL     OW85430  10.790   2.650   0.845 -0.3248  0.0062 -0.0311
27023SOL    HW185431  10.708   2.659   0.894 -1.0935 -0.8765 -1.0983
27023SOL    HW285432  10.771   2.583   0.779  1.5345 -0.8626  0.2617
27024SOL     OW85433   7.537   7.157   6.125  0.0371  0.2867  0.3110
27024SOL    HW185434   7.521   7.071   6.164  0.8039  0.6426  1.4548
27024SOL    HW285435   7.455   7.179   6.080 -0.0340 -1.2027 -0.3276
27025SOL     OW85436   9.433   6.668   5.188  0.0517 -0.1882 -0.3708
27025SOL    HW185437   9.509   6.718   5.160 -0.4827  0.8452 -0.0489
27025SOL    HW285438   9.377   6.665   5.111  0.0349 -0.1775 -0.3592
27026SOL     OW85439   7.933   7.070   3.657  0.1686 -0.0537  0.0708
27026SOL    HW185440   7.948   6.978   3.637 -0.8344 -0.2385  0.0921
27026SOL    HW285441   7.869   7.069   3.728 -0.0242  0.6613 -0.0836
27027SOL     OW85442   9.590   8.336   7.284 -0.1274 -0.1029 -0.0044
27027SOL    HW185443   9.545   8.347   7.200  1.4211 -0.7945 -0.9740
27027SOL    HW285444   9.644   8.415   7.292  0.7415 -0.6412 -0.3481
27028SOL     OW85445   6.044   6.063   5.513 -1.0586 -0.1259  0.1357
27028SOL    HW185446   6.122   6.096   5.467 -1.6522 -0.0381 -0.8443
27028SOL    HW285447   6.070   6.058   5.605  0.1401 -0.2018 -0.1946
27029SOL     OW85448  11.103   1.805   7.584  0.3119 -0.0078 -0.0180
27029SOL    HW185449  11.155   1.727   7.563 -1.0826 -1.2480  0.9839
27029SOL    HW285450  11.023   1.795   7.532 -0.0619  0.5281  0.4444
27030SOL     OW85451   2.775  10.532   2.246  0.1443 -0.9330  0.3677
27030SOL    HW185452   2.802  10.487   2.166  0.8473  1.5548 -0.8969
27030SOL    HW285453   2.813  10.480   2.317  0.8626 -2.3250 -0.9752
27031SOL     OW85454   2.126   3.210   0.982  0.0199  1.1308 -0.1681
27031SOL    HW185455   2.120   3.117   1.004 -2.4928  0.4436 -3.0180
27031SOL    HW285456   2.044   3.248   1.014  0.2881  1.9766 -0.4562
27032SOL     OW85457   2.448   7.584   8.244 -0.0231  0.0165 -0.7665
27032SOL    HW185458   2.382   7.515   8.236  1.2195 -1.3602  0.2673
27032SOL    HW285459   2.516   7.561   8.182  0.4505  0.2620 -0.3476
27033SOL     OW85460  10.274   9.499   8.216  0.0953 -0.4315 -0.2281
27033SOL    HW185461  10.268   9.584   8.262 -0.1870 -0.0339 -0.9892
27033SOL    HW285462  10.365   9.495   8.187 -0.5718  1.0934 -2.9126
27034SOL     OW85463   3.008   7.850   1.080  0.0758  0.3123  0.5607
27034SOL    HW185464   3.060   7.783   1.036 -0.7536 -0.2488  0.4152
27034SOL    HW285465   2.988   7.812   1.166 -0.1931  0.4747  0.5694
27035SOL     OW85466   0.344   0.821   9.177 -1.4838  0.1063  0.2134
27035SOL    HW185467   0.296   0.903   9.188 -2.8362 -0.1708 -2.7102
27035SOL    HW285468   0.281   0.762   9.136  0.6744 -1.0615 -1.6233
27036SOL     OW85469   1.108  10.765   0.175 -0.6524  0.0110 -0.0355
27036SOL    HW185470   1.163  10.721   0.239  2.0223 -1.0272 -2.8160
27036SOL    HW285471   1.146  10.853   0.168  0.8757 -0.7239 -1.9937
27037SOL     OW85472   6.289   9.155   9.908 -0.0803 -0.5643  0.1595
27037SOL    HW185473   6.245   9.143   9.824  0.6165  0.4721 -0.3752
27037SOL    HW285474   6.234   9.217   9.956  0.3195  0.0414 -0.1558
27038SOL     OW85475   7.709   5.038   7.887  0.3996 -0.4192  0.1919
27038SOL    HW185476   7.692   5.027   7.793  0.1460  1.8517 -0.0772
27038SOL    HW285477   7.803   5.024   7.896  0.8076  1.3179 -0.7959
27039SOL     OW85478   7.530   3.890   6.460  0.2637  0.4047  0.0040
27039SOL    HW185479   7.450   3.934   6.430 -0.0402  0.5270  0.9668
27039SOL    HW285480   7.552   3.935   6.542  0.4607 -0.6278  0.5329
27040SOL     OW85481   4.639   4.108  10.048  0.2719  0.0570 -0.0384
27040SOL    HW185482   4.635   4.196  10.011 -0.1985  0.2157  0.3731
27040SOL    HW285483   4.629   4.049   9.973 -0.0384  0.3637 -0.2376
27041SOL     OW85484   3.788   5.100   5.433  0.2210  0.1116  0.4878
27041SOL    HW185485   3.832   5.064   5.510 -0.5776 -0.0954  0.8512
27041SOL    HW285486   3.722   5.159   5.469 -0.7333 -0.6388 -0.0123
27042SOL     OW85487   2.739   4.550   6.703  0.2558  0.1535  0.2439
27042SOL    HW185488   2.758   4.600   6.624 -1.4279 -1.5781 -1.3692
27042SOL    HW285489   2.701   4.614   6.764  2.5731  1.7353  0.1496
27043SOL     OW85490   2.493  11.056   6.744  0.5589 -0.0546  0.6307
27043SOL    HW185491   2.495  11.152   6.738  0.5672 -0.1132 -0.5424
27043SOL    HW285492   2.583  11.032   6.766  0.9914  0.1242 -0.8489
27044SOL     OW85493  10.295   5.500   1.124 -0.4822 -0.0874 -0.0517
27044SOL    HW185494  10.314   5.477   1.215 -1.2944  1.5630  0.5817
27044SOL    HW285495  10.377   5.535   1.089 -0.2521 -0.4318  0.1434
27045SOL     OW85496   1.838   3.208   5.033 -0.0355 -0.1304  0.2625
27045SOL    HW185497   1.928   3.240   5.040  0.1728  0.0538 -2.3337
27045SOL    HW285498   1.847   3.116   5.008 -0.4592  0.3540 -1.9134
27046SOL     OW85499   8.549   2.668   3.224 -0.4171  0.3643 -0.0626
27046SOL    HW185500   8.578   2.583   3.193  1.1579 -0.0333  2.3052
27046SOL    HW285501   8.620   2.728   3.200  0.3269  0.2384  1.6551
27047SOL     OW85502   9.180   6.740   7.336  0.1198 -0.0547 -0.0889
27047SOL    HW185503   9.104   6.743   7.278 -1.6280 -1.0859  2.0176
27047SOL    HW285504   9.252   6.774   7.283 -1.7956  1.0089 -2.1583
27048SOL     OW85505   2.183   6.219   8.329  0.2865  0.6811  0.1526
27048SOL    HW185506   2.160   6.214   8.421 -3.2064  0.7627 -0.5941
27048SOL    HW285507   2.222   6.305   8.318  3.0757 -0.2202  1.8794
27049SOL     OW85508   5.112   0.122   6.169  0.0079 -0.4852 -0.2423
27049SOL    HW185509   5.200   0.121   6.131  0.1152  0.8858 -0.0861
27049SOL    HW285510   5.125   0.092   6.259  0.7020  1.6174  0.4326
27050SOL     OW85511   8.744  10.389   8.901 -0.2542  0.7319 -0.4479
27050SOL    HW185512   8.751  10.344   8.817 -2.0671  0.3300 -0.4380
27050SOL    HW285513   8.661  10.436   8.896 -2.2038 -2.0143  2.3038
27051SOL     OW85514   6.005   2.480   5.370  0.1718 -0.2141  0.2757
27051SOL    HW185515   5.970   2.393   5.387  0.5376 -0.3310  0.4380
27051SOL    HW285516   6.081   2.487   5.428  0.6215 -0.0981 -0.3123
27052SOL     OW85517   1.391   0.532   8.661 -0.5825 -0.3111  0.2066
27052SOL    HW185518   1.418   0.551   8.571  0.7751  0.5903  0.7586
27052SOL    HW285519   1.301   0.565   8.667 -0.6452 -0.2770 -0.7803
27053SOL     OW85520   3.677   3.884   9.919  0.1658  0.4290 -0.1511
27053SOL    HW185521   3.592   3.910   9.883 -0.8725 -1.3654  0.8463
27053SOL    HW285522   3.690   3.941   9.994 -1.0184 -0.3700  0.7061
27054SOL     OW85523   5.683   5.144  10.383 -0.2169 -0.1319 -0.4640
27054SOL    HW185524   5.765   5.187  10.360 -0.2549  0.9697  1.2470
27054SOL    HW285525   5.633   5.211  10.429 -1.6940 -1.0605 -0.6498
27055SOL     OW85526  10.714   6.046   3.925 -0.3362 -0.0553 -0.4721
27055SOL    HW185527  10.777   6.037   3.854 -0.8219  0.9902 -1.0548
27055SOL    HW285528  10.635   6.002   3.893 -0.4003 -0.0166 -0.3677
27056SOL     OW85529   2.274   4.748  10.456 -0.4074 -0.4574  0.0509
27056SOL    HW185530   2.246   4.820  10.399 -0.1776 -1.1126 -0.9139
27056SOL    HW285531   2.237   4.669  10.416  0.4922 -1.0338  0.3113
27057SOL     OW85532  10.626   4.930   5.404  0.2166 -0.4080 -0.1362
27057SOL    HW185533  10.535   4.929   5.376  1.0928  0.7492 -3.5142
27057SOL    HW285534  10.652   5.022   5.401  1.6634 -0.7778  0.0482
27058SOL     OW85535   4.172   8.169   6.566 -0.2795  0.2572 -0.6451
27058SOL    HW185536   4.228   8.092   6.556  1.1780  1.1309  0.3795
27058SOL    HW285537   4.192   8.224   6.490 -0.5671  0.0871 -0.8462
27059SOL     OW85538   0.941   6.261   0.984  0.1851 -0.5324  0.0420
27059SOL    HW185539   0.863   6.309   0.956  0.6123 -0.2991 -0.7839
27059SOL    HW285540   0.928   6.247   1.078  0.1903  1.4881  0.3989
27060SOL     OW85541   8.991   9.443   5.927  0.0114 -0.1818  0.1015
27060SOL    HW185542   8.939   9.461   6.005 -0.9564  0.9878 -0.7856
27060SOL    HW285543   9.014   9.529   5.893  0.4642 -0.6780 -0.8783
27061SOL     OW85544   6.137   0.007   6.462 -0.2427  0.3312 -0.5940
27061SOL    HW185545   6.137   0.064   6.539 -0.4967  0.7040 -0.8649
27061SOL    HW285546   6.223  -0.035   6.463 -1.3848 -2.2646  1.7770
27062SOL     OW85547   7.789   8.859   9.288  0.2940  0.5071 -0.8390
27062SOL    HW185548   7.772   8.916   9.362  1.8953 -1.7331  1.4140
27062SOL    HW285549   7.857   8.799   9.318 -0.8002 -2.1836 -3.1940
27063SOL     OW85550   1.985   9.115   4.791  0.2416 -0.1979 -0.3196
27063SOL    HW185551   1.985   9.138   4.884  0.4829  0.4091 -0.4692
27063SOL    HW285552   1.919   9.045   4.784  2.8635 -3.0646  0.9742
27064SOL     OW85553   4.352   6.492  10.347 -0.1219  0.1637  0.2478
27064SOL    HW185554   4.416   6.528  10.285 -0.5364  0.6447  0.0919
27064SOL    HW285555   4.272   6.482  10.295 -0.0078 -1.0454  0.2737
27065SOL     OW85556  10.959  10.164   2.953  0.0908 -0.0923  0.0874
27065SOL    HW185557  10.968  10.226   3.026 -0.5865  1.6605 -1.2362
27065SOL    HW285558  10.931  10.219   2.880 -0.1244 -1.9461 -1.2634
27066SOL     OW85559   4.793   3.488   2.421 -0.3537 -0.3276 -0.2655
27066SOL    HW185560   4.782   3.400   2.458  0.0756 -0.1339  0.3250
27066SOL    HW285561   4.748   3.484   2.337 -0.9128 -0.9196  0.0553
27067SOL     OW85562   1.607   3.465   8.287 -0.4209 -0.1899  0.2589
27067SOL    HW185563   1.586   3.431   8.375 -1.7518 -0.6546 -0.2090
27067SOL    HW285564   1.620   3.387   8.234 -3.3794 -0.1009 -0.7966
27068SOL     OW85565   6.714   3.193   6.952  0.1926 -0.4248  0.0339
27068SOL    HW185566   6.809   3.187   6.944 -0.0011 -2.7430 -2.1813
27068SOL    HW285567   6.685   3.225   6.866 -1.0467 -0.8086  0.2877
27069SOL     OW85568   2.882   8.106   6.044  0.0057 -0.2079 -0.4887
27069SOL    HW185569   2.800   8.121   5.996 -0.3025  1.5076  0.4616
27069SOL    HW285570   2.905   8.193   6.077  2.1015 -0.7112 -0.5306
27070SOL     OW85571   6.844   0.999   5.938 -0.3537  0.3569 -0.3840
27070SOL    HW185572   6.817   1.059   5.868  0.9634  2.3984  0.7592
27070SOL    HW285573   6.880   1.056   6.006 -0.6696 -1.6258  1.5585
27071SOL     OW85574   7.321   7.769   0.132 -0.4558 -0.1621  0.0573
27071SOL    HW185575   7.358   7.850   0.168 -0.5214 -0.5768  1.0875
27071SOL    HW285576   7.330   7.705   0.203  0.9390 -1.4667 -1.2283
27072SOL     OW85577   7.283   5.392  10.938 -0.3859  0.0594  0.0465
27072SOL    HW185578   7.308   5.481  10.915 -0.5297  0.3339  0.9249
27072SOL    HW285579   7.304   5.340  10.860  1.8437  0.4571  0.3205
27073SOL     OW85580   5.215   0.588   1.547 -0.0806 -0.7078 -0.2437
27073SOL    HW185581   5.139   0.533   1.529 -1.7313  1.3866 -0.1431
27073SOL    HW285582   5.223   0.644   1.469  1.9986 -1.5106 -0.6759
27074SOL     OW85583   1.687   1.433   3.588 -0.0894  0.3789 -0.1742
27074SOL    HW185584   1.747   1.426   3.662  0.9866  1.3210 -0.9335
27074SOL    HW285585   1.606   1.467   3.626  0.3438  0.5500  0.6153
27075SOL     OW85586   3.226   5.402   9.026  0.5842 -0.2770 -0.0046
27075SOL    HW185587   3.175   5.357   8.959 -0.4508 -0.2161  0.7150
27075SOL    HW285588   3.257   5.482   8.983 -1.5878  0.6724  0.0639
27076SOL     OW85589   5.565   5.985   9.896  0.4805 -0.1621  0.3355
27076SOL    HW185590   5.586   6.076   9.876  1.6559 -1.0358 -3.0092
27076SOL    HW285591   5.540   5.947   9.812  0.2981 -3.0225  1.5695
27077SOL     OW85592  10.484   9.240   6.683 -0.4117 -0.7141 -0.2921
27077SOL    HW185593  10.566   9.196   6.663 -0.7132 -0.5479 -2.1239
27077SOL    HW285594  10.459   9.208   6.770  1.4583 -0.9169  0.2000
27078SOL     OW85595   3.310  10.290   4.200  0.7844 -0.1242  0.5186
27078SOL    HW185596   3.236  10.350   4.210  1.1755  0.6201 -0.8350
27078SOL    HW285597   3.285  10.213   4.252 -1.7053 -0.5955 -1.1812
27079SOL     OW85598   0.705   8.470   5.440  0.3853  0.5533 -0.1812
27079SOL    HW185599   0.750   8.405   5.385  1.1644 -0.2500  1.3426
27079SOL    HW285600   0.619   8.433   5.457  0.7802 -0.0228  0.5745
27080SOL     OW85601  10.679   4.114   2.743  0.3613  0.4761 -0.4156
27080SOL    HW185602  10.628   4.123   2.824  0.2866  0.8126 -0.4974
27080SOL    HW285603  10.636   4.043   2.695  0.5919  0.0665 -0.0210
27081SOL     OW85604   0.330   3.909   4.750 -0.6954  0.4521  0.4750
27081SOL    HW185605   0.239   3.893   4.726 -0.9760 -0.0834  1.7988
27081SOL    HW285606   0.372   3.823   4.744  0.0934  0.9177 -1.4612
27082SOL     OW85607   7.288   6.282   1.966 -0.0190 -0.0158  0.1742
27082SOL    HW185608   7.250   6.345   1.905 -0.6985  1.0012  1.6017
27082SOL    HW285609   7.278   6.197   1.921  0.3865  0.7939 -1.5228
27083SOL     OW85610   9.484   5.055   6.894  0.4283 -0.5649 -0.0725
27083SOL    HW185611   9.435   5.036   6.813 -0.6744 -1.7333  0.8217
27083SOL    HW285612   9.572   5.075   6.864  0.0459 -0.9528 -1.5750
27084SOL     OW85613   2.556   5.537  11.000 -0.1907 -0.0180  0.3501
27084SOL    HW185614   2.530   5.590  11.076 -0.7244 -0.3546  0.4092
27084SOL    HW285615   2.509   5.454  11.012 -1.0263  0.2586 -0.8282
27085SOL     OW85616  10.914   8.361   5.925  0.0087 -0.4225  0.1223
27085SOL    HW185617  10.940   8.452   5.936  1.8542 -0.5964 -1.9309
27085SOL    HW285618  10.819   8.363   5.916 -0.0006  1.2576  0.4066
27086SOL     OW85619   8.836   6.414   7.198  0.4572 -0.1094 -0.8000
27086SOL    HW185620   8.804   6.354   7.265 -3.2561  1.0569 -1.2824
27086SOL    HW285621   8.815   6.501   7.232  0.5794  0.6142 -2.4654
27087SOL     OW85622  10.503   6.539   9.110  0.1308 -0.3766 -0.2650
27087SOL    HW185623  10.546   6.609   9.160 -0.6553 -0.9920  1.3273
27087SOL    HW285624  10.419   6.525   9.155  0.2216 -2.2683 -0.6082
27088SOL     OW85625   7.659   9.713   0.726  0.1648  1.2223  0.3405
27088SOL    HW185626   7.607   9.755   0.795  0.0413 -1.0039  1.7277
27088SOL    HW285627   7.596   9.696   0.656 -0.2024  1.5808  0.5764
27089SOL     OW85628   8.031  10.325   9.156  0.0132 -0.1790  0.2135
27089SOL    HW185629   7.976  10.287   9.224  0.7157 -0.1424  0.8106
27089SOL    HW285630   8.104  10.264   9.146  0.4270  0.3070  0.1935
27090SOL     OW85631   1.385  10.121  10.684 -0.5279 -0.3011 -0.2410
27090SOL    HW185632   1.346  10.192  10.634 -0.2218  1.8429  2.3200
27090SOL    HW285633   1.317  10.096  10.747 -0.9973 -3.0792 -1.7275
27091SOL     OW85634   0.318   6.681   0.537  0.0522 -0.2999 -0.4685
27091SOL    HW185635   0.271   6.598   0.553  0.8445 -1.2184 -2.5536
27091SOL    HW285636   0.395   6.655   0.486  1.0330  1.5925 -0.0236
27092SOL     OW85637  10.656   6.349   8.690  0.0418 -0.3244 -0.2305
27092SOL    HW185638  10.709   6.271   8.672  0.6886  0.1361 -0.3407
27092SOL    HW285639  10.707   6.399   8.753 -1.4968 -1.1528  1.7808
27093SOL     OW85640   5.843   1.014   1.938 -0.0179 -0.4811 -0.6392
27093SOL    HW185641   5.921   0.960   1.940 -0.1283 -0.6613  2.2835
27093SOL    HW285642   5.772   0.956   1.965 -0.5049  0.5827  0.4526
27094SOL     OW85643  10.104   4.563   1.109  0.2509 -0.1181  0.5421
27094SOL    HW185644  10.102   4.570   1.014  0.6721 -0.1932  0.5256
27094SOL    HW285645  10.187   4.603   1.134 -0.3298  0.8680  0.9659
27095SOL     OW85646   7.606   4.651   7.844  0.3017  0.1773  0.1135
27095SOL    HW185647   7.560   4.610   7.770  2.3162 -2.5542  0.1860
27095SOL    HW285648   7.698   4.630   7.828  1.0104  1.2843  2.3876
27096SOL     OW85649   9.869   3.326   8.311 -0.2921  0.0544 -0.4155
27096SOL    HW185650   9.783   3.319   8.351 -0.3649  1.1723 -0.3312
27096SOL    HW285651   9.851   3.335   8.217 -0.2319 -0.2827 -0.4617
27097SOL     OW85652   1.952   0.254   8.770 -0.3705 -0.0819 -0.2505
27097SOL    HW185653   1.970   0.348   8.769 -2.9988  0.4816 -0.2717
27097SOL    HW285654   2.002   0.219   8.696  0.7475  1.2503 -0.1657
27098SOL     OW85655   1.309  10.493   4.383 -0.8335 -0.1700  0.4813
27098SOL    HW185656   1.330  10.445   4.303 -1.8240  1.3902 -0.7798
27098SOL    HW285657   1.343  10.581   4.368 -1.0091  0.1485  1.7994
27099SOL     OW85658   8.108   7.915   0.691 -0.4167 -0.7348 -0.2548
27099SOL    HW185659   8.133   7.980   0.625 -0.5866 -0.5167 -0.1040
27099SOL    HW285660   8.034   7.954   0.736 -0.8428 -1.2500 -0.4957
27100SOL     OW85661   5.798   0.227   4.898 -0.0054 -0.3371  0.1344
27100SOL    HW185662   5.775   0.164   4.966 -0.4198 -2.0808 -1.5409
27100SOL    HW285663   5.883   0.196   4.865 -0.2297 -0.0615 -0.7312
27101SOL     OW85664   2.883   3.869   7.615  0.4215 -0.3916 -0.6444
27101SOL    HW185665   2.969   3.848   7.651  0.5935 -0.2996 -0.9953
27101SOL    HW285666   2.834   3.788   7.622  0.5904 -0.4904 -0.5946
27102SOL     OW85667   6.309   7.844   5.636  0.5306 -0.2084 -0.5447
27102SOL    HW185668   6.255   7.893   5.574 -0.0133  0.5640  0.5274
27102SOL    HW285669   6.257   7.767   5.658 -1.0816  1.4790  1.9824
27103SOL     OW85670   5.658   8.394   7.910  0.2962  0.7809  0.5648
27103SOL    HW185671   5.693   8.381   7.998  0.9610 -0.5547  0.1222
27103SOL    HW285672   5.619   8.482   7.913 -0.2835  0.5015  2.3681
27104SOL     OW85673   5.059   2.154   3.281 -0.0061  0.1864  0.1659
27104SOL    HW185674   5.108   2.102   3.344 -0.6293 -3.0855 -1.8479
27104SOL    HW285675   5.118   2.165   3.206 -0.6799  0.3884 -0.3472
27105SOL     OW85676   7.846   6.850   8.200 -0.4692  0.1516  0.3898
27105SOL    HW185677   7.885   6.778   8.149  0.6308  0.6714  0.4745
27105SOL    HW285678   7.825   6.810   8.285 -1.4645 -0.4853 -0.1255
27106SOL     OW85679   3.544   5.737  10.505 -0.8246  0.2647  0.0117
27106SOL    HW185680   3.494   5.797  10.449 -1.9736  0.2136  0.9597
27106SOL    HW285681   3.480   5.701  10.565  0.2049 -0.5041  0.6806
27107SOL     OW85682   2.533  10.718   8.125  0.2137  0.4013 -0.2476
27107SOL    HW185683   2.585  10.717   8.206  0.3748  1.5575 -0.3189
27107SOL    HW285684   2.583  10.773   8.065  1.2062 -2.1502 -1.9293
27108SOL     OW85685   6.450   5.397   4.616 -0.2389  0.0627 -0.8310
27108SOL    HW185686   6.478   5.313   4.581  1.8630 -0.1815  1.1809
27108SOL    HW285687   6.492   5.462   4.560  0.2148 -0.2574 -0.8603
27109SOL     OW85688   3.774   9.095   3.252 -0.1706 -0.2407 -0.2579
27109SOL    HW185689   3.740   9.182   3.271 -1.1891 -0.5571 -0.5829
27109SOL    HW285690   3.869   9.107   3.250 -0.1596  0.3940  1.9576
27110SOL     OW85691   9.873   9.678   8.716  0.7777  0.0836 -0.1138
27110SOL    HW185692   9.896   9.609   8.654  0.4024 -0.0815 -0.0727
27110SOL    HW285693   9.957   9.708   8.751  0.9120 -0.8279  0.3817
27111SOL     OW85694   1.169   4.189   3.136 -0.0704 -0.2155  0.0235
27111SOL    HW185695   1.243   4.151   3.089 -0.0358  0.3581 -0.3912
27111SOL    HW285696   1.106   4.212   3.067  0.8447  2.5751  0.0012
27112SOL     OW85697   8.747   0.065   9.094 -0.0112 -0.3400  0.0618
27112SOL    HW185698   8.751   0.158   9.071  1.4986 -0.8775 -2.3065
27112SOL    HW285699   8.793   0.058   9.178  0.6856  0.9615 -0.1911
27113SOL     OW85700   4.397   9.166   2.738 -0.4170  0.1959 -0.2554
27113SOL    HW185701   4.357   9.135   2.657  0.3648  0.9409 -0.9422
27113SOL    HW285702   4.335   9.230   2.773 -0.4299  0.3937 -0.6366
27114SOL     OW85703   1.311   9.819   7.114 -0.2476  0.1945 -0.6113
27114SOL    HW185704   1.381   9.779   7.166 -0.9867  0.0484  0.2911
27114SOL    HW285705   1.231   9.801   7.163 -0.8178  1.1624 -1.1506
27115SOL     OW85706   0.000   3.562   0.877 -0.3003  0.1827  0.8905
27115SOL    HW185707  -0.072   3.558   0.940 -0.7738 -3.4918  0.3285
27115SOL    HW285708   0.057   3.489   0.901  0.4467 -0.2355 -1.8301
27116SOL     OW85709   7.469   1.361  10.884  0.2548  0.2471  0.2782
27116SOL    HW185710   7.440   1.452  10.888 -0.8656 -0.0720 -0.1579
27116SOL    HW285711   7.563   1.365  10.901 -0.0054  1.3466  1.6701
27117SOL     OW85712   9.624   3.057   4.766 -0.0485 -0.2401  0.5763
27117SOL    HW185713   9.620   3.151   4.749  0.0431 -0.5637 -1.6270
27117SOL    HW285714   9.534   3.027   4.753  0.3383 -0.7610 -1.1611
27118SOL     OW85715  10.863   8.790   6.320 -0.0044 -0.1021 -0.3117
27118SOL    HW185716  10.914   8.828   6.392 -1.5728 -0.7390  1.2098
27118SOL    HW285717  10.916   8.717   6.290 -0.3253 -1.2875  1.8094
27119SOL     OW85718   7.783  10.016   7.685  0.3669  0.2822  0.4320
27119SOL    HW185719   7.723   9.990   7.615  0.1193  2.2353 -0.1483
27119SOL    HW285720   7.845   9.943   7.692 -0.8123 -0.8411 -0.4050
27120SOL     OW85721   7.958   3.971   6.082 -0.1477  0.5672 -0.1144
27120SOL    HW185722   7.882   3.927   6.120 -1.5845  1.8233 -1.3701
27120SOL    HW285723   8.014   3.992   6.157  0.4780 -2.9948  0.5696
27121SOL     OW85724   0.469   2.178   5.652  0.1857 -0.1838 -0.0954
27121SOL    HW185725   0.524   2.257   5.651 -1.0873  0.8873  3.1515
27121SOL    HW285726   0.528   2.108   5.679  0.8558  0.0580 -0.8839
27122SOL     OW85727   3.097   9.575   1.888  0.3879 -0.0163 -0.1815
27122SOL    HW185728   3.107   9.586   1.982  0.4022  1.0921 -0.3002
27122SOL    HW285729   3.117   9.482   1.872  0.2546 -0.2405  0.9128
27123SOL     OW85730   5.939   6.898   9.411 -0.4928  0.7648  0.9070
27123SOL    HW185731   6.018   6.893   9.465  1.0008 -0.5148 -1.2185
27123SOL    HW285732   5.969   6.874   9.323 -2.9466  1.8931 -0.3443
27124SOL     OW85733   5.035   7.584   7.380 -0.5038 -0.5632  0.2205
27124SOL    HW185734   5.019   7.547   7.293 -1.5533 -0.0952  0.2050
27124SOL    HW285735   4.970   7.542   7.436 -0.2778 -0.3564  0.6389
27125SOL     OW85736   6.909   1.677   1.764 -0.1809 -0.1682  0.4764
27125SOL    HW185737   6.985   1.655   1.818 -0.2244 -3.1074 -0.5158
27125SOL    HW285738   6.875   1.593   1.734 -3.3726  1.0753  0.1895
27126SOL     OW85739   0.330   2.896   3.373 -0.1436  0.0722  0.2789
27126SOL    HW185740   0.416   2.891   3.413 -0.1165  0.4518  0.2710
27126SOL    HW285741   0.311   2.806   3.344  0.8114  0.2319 -0.9109
27127SOL     OW85742   7.520  10.063   4.064 -0.0412  0.0145 -0.0746
27127SOL    HW185743   7.612  10.079   4.042 -0.0309  0.3265  0.2022
27127SOL    HW285744   7.481  10.150   4.073  0.0897 -0.0861  1.7080
27128SOL     OW85745   1.498   9.104   8.558 -0.2186 -0.2652  0.2605
27128SOL    HW185746   1.411   9.067   8.569 -0.0073 -1.3240 -1.2585
27128SOL    HW285747   1.542   9.044   8.498  2.5576 -1.3597  3.1286
27129SOL     OW85748   5.947   3.941  11.069 -0.2109 -0.5407 -0.3876
27129SOL    HW185749   5.926   4.002  10.998  0.2696 -0.6289 -0.6108
27129SOL    HW285750   6.030   3.973  11.104 -1.5136  0.8861  1.6824
27130SOL     OW85751   5.944   5.729   2.665 -0.2368 -0.1320  0.1651
27130SOL    HW185752   5.952   5.646   2.617  0.7669 -0.3859  0.7278
27130SOL    HW285753   5.854   5.731   2.696 -0.2652 -1.0283  0.1605
27131SOL     OW85754   3.443   6.412   3.827 -0.1793  0.3611 -0.3387
27131SOL    HW185755   3.523   6.362   3.811  1.6076  2.5186  1.2166
27131SOL    HW285756   3.455   6.449   3.915 -2.4922  1.4795 -0.4137
27132SOL     OW85757   9.522   8.029   6.841  0.0428 -0.1885 -0.0709
27132SOL    HW185758   9.494   8.114   6.808  0.5608  0.2967  0.7097
27132SOL    HW285759   9.614   8.021   6.814  1.3531  1.4073  3.3855
27133SOL     OW85760  10.186   7.348   9.724  0.0369 -0.1175  0.3363
27133SOL    HW185761  10.278   7.366   9.708 -0.2715  2.1242  0.7261
27133SOL    HW285762  10.139   7.422   9.684 -1.7305 -1.9400 -1.1788
27134SOL     OW85763   4.274  10.885   3.978  0.0925 -0.4041  0.1538
27134SOL    HW185764   4.332  10.927   4.042  0.1203  0.1097 -0.2008
27134SOL    HW285765   4.301  10.793   3.978  1.9434  0.0994 -1.0975
27135SOL     OW85766   4.252   4.462   4.305 -0.4161  0.7126 -0.5200
27135SOL    HW185767   4.283   4.551   4.320 -0.2981  0.5374  0.3207
27135SOL    HW285768   4.231   4.459   4.212 -1.5821  1.9867 -0.3198
27136SOL     OW85769   7.094   1.217   9.901 -0.5155 -0.1995 -0.3919
27136SOL    HW185770   7.176   1.180   9.933  0.4864 -0.0234 -2.5723
27136SOL    HW285771   7.035   1.142   9.895 -0.0421 -0.5950 -0.2132
27137SOL     OW85772   8.913   6.658   4.576  0.1395 -0.5516  0.0545
27137SOL    HW185773   8.987   6.712   4.604  0.1495  0.1631 -1.3023
27137SOL    HW285774   8.952   6.572   4.559  0.3102 -0.7111  1.1711
27138SOL     OW85775  11.010   0.898   5.640 -0.0899 -0.2021 -0.2326
27138SOL    HW185776  11.019   0.860   5.553  0.0009  0.0376 -0.3289
27138SOL    HW285777  11.006   0.992   5.625  1.9314 -0.0127  0.1458
27139SOL     OW85778   6.920  10.908   5.126 -0.1877  0.2835  0.5592
27139SOL    HW185779   6.876  10.949   5.051  0.3352 -1.7419 -0.9491
27139SOL    HW285780   7.006  10.948   5.128  0.1018 -0.2303 -0.5121
27140SOL     OW85781  10.741  10.799   7.570  0.6347  0.5110 -0.3316
27140SOL    HW185782  10.683  10.745   7.516  1.5602 -0.3685 -0.4820
27140SOL    HW285783  10.704  10.794   7.658 -0.4322  1.3024 -0.7113
27141SOL     OW85784   9.767   9.091   4.544 -0.1592 -0.4036 -0.0329
27141SOL    HW185785   9.728   9.100   4.457  0.7037  1.8429 -0.2536
27141SOL    HW285786   9.748   9.001   4.570 -3.3176 -0.1475 -1.1266
27142SOL     OW85787  10.161  10.098   6.613 -0.4222 -0.5722 -0.3674
27142SOL    HW185788  10.097  10.132   6.675 -0.1950 -2.1198  0.7781
27142SOL    HW285789  10.238  10.154   6.625  0.1852 -1.7652  1.9691
27143SOL     OW85790   2.759   6.412   0.400  0.3421  0.0223 -0.2479
27143SOL    HW185791   2.747   6.324   0.436 -1.1841  0.2675 -0.0949
27143SOL    HW285792   2.682   6.461   0.429  1.8952  1.8952  1.0315
27144SOL     OW85793   1.547   2.634   1.292 -0.1630  0.6101 -0.7739
27144SOL    HW185794   1.619   2.693   1.271  0.2093  0.6719  0.5591
27144SOL    HW285795   1.581   2.578   1.362 -0.6653 -0.8736 -1.6721
27145SOL     OW85796   0.996   7.716   9.033 -0.2738  0.1861 -0.3853
27145SOL    HW185797   1.009   7.625   9.059  1.3833  0.5424  0.1329
27145SOL    HW285798   1.061   7.732   8.965 -0.5839  0.9691 -0.5128
27146SOL     OW85799   9.745  10.112   3.865 -0.3603 -0.1745 -0.3631
27146SOL    HW185800   9.769  10.182   3.805 -0.7540  0.3136  0.0327
27146SOL    HW285801   9.819  10.051   3.864 -0.6293 -0.5123 -1.8211
27147SOL     OW85802   6.103   0.181   0.079  0.3676 -0.5400 -0.3133
27147SOL    HW185803   6.188   0.149   0.110 -0.6813 -2.5707  0.6279
27147SOL    HW285804   6.077   0.116   0.013 -1.5545 -1.3981  1.2104
27148SOL     OW85805   5.548   8.008   2.841 -0.1588 -0.4130 -0.5477
27148SOL    HW185806   5.548   8.103   2.831  1.4093 -0.0198  2.1025
27148SOL    HW285807   5.639   7.982   2.826 -0.3506 -1.3286 -0.2027
27149SOL     OW85808   8.631   4.695   5.780 -0.0632  0.0683  0.4834
27149SOL    HW185809   8.680   4.645   5.846  0.0611 -0.3452  0.0851
27149SOL    HW285810   8.546   4.650   5.775 -0.4410  0.7100  1.0866
27150SOL     OW85811   4.121   0.897   6.806 -0.3616 -0.1328  0.4847
27150SOL    HW185812   4.042   0.845   6.824  0.3518 -0.8948  1.5991
27150SOL    HW285813   4.173   0.889   6.886  0.2689  1.4288  0.2640
27151SOL     OW85814   0.433   3.102  10.731  0.2217  0.1042  0.7237
27151SOL    HW185815   0.521   3.082  10.762  0.4679 -0.7646 -0.4610
27151SOL    HW285816   0.437   3.194  10.704  0.4096  0.4251  1.8140
27152SOL     OW85817   1.948   8.622   6.879 -0.3062  0.2192 -0.0454
27152SOL    HW185818   1.963   8.626   6.973  0.8272 -0.5752 -0.1849
27152SOL    HW285819   1.873   8.564   6.869  0.3713 -0.7323  0.3020
27153SOL     OW85820  11.010   7.157   2.237  0.5079  0.3183 -0.3241
27153SOL    HW185821  11.098   7.139   2.204  0.1891  0.4525 -1.2847
27153SOL    HW285822  10.960   7.181   2.159 -0.1908  0.9908  0.3146
27154SOL     OW85823   3.321   8.134   0.593  0.7769 -0.2173  0.1041
27154SOL    HW185824   3.315   8.229   0.582  0.0710 -0.1371  1.0172
27154SOL    HW285825   3.257   8.114   0.661  2.0782 -1.1351  1.1191
27155SOL     OW85826  10.080   1.639   7.996 -0.6189  0.3598 -0.0224
27155SOL    HW185827  10.158   1.690   7.973 -0.4126 -0.2130 -0.6021
27155SOL    HW285828  10.041   1.688   8.068  0.1861  0.7387  0.1702
27156SOL     OW85829   7.553   1.457   9.553 -0.2599 -0.5019  0.3963
27156SOL    HW185830   7.498   1.531   9.576 -2.8413 -1.2172 -2.7255
27156SOL    HW285831   7.508   1.381   9.591  0.1531 -0.8505  0.2013
27157SOL     OW85832   8.757   8.959   2.262 -0.4577 -0.0518 -0.3184
27157SOL    HW185833   8.743   9.020   2.335 -1.5087 -1.5063  0.7659
27157SOL    HW285834   8.808   9.008   2.199 -0.1800  1.5293  1.0683
27158SOL     OW85835   7.923   4.706   1.243  0.4135 -0.3405  0.1703
27158SOL    HW185836   7.854   4.708   1.310 -1.3802 -1.4037 -1.5464
27158SOL    HW285837   7.886   4.656   1.171  3.1075 -1.1597 -0.7731
27159SOL     OW85838   9.005   6.390   3.654  0.0242 -0.5350 -0.0652
27159SOL    HW185839   9.037   6.300   3.651 -0.0043 -0.6189  1.4863
27159SOL    HW285840   8.934   6.388   3.719  0.8989  0.8573  1.0033
27160SOL     OW85841   0.712   0.004   3.263 -0.0308 -0.0462 -0.4067
27160SOL    HW185842   0.754  -0.080   3.284 -0.3143 -0.2511 -0.6674
27160SOL    HW285843   0.705   0.005   3.168 -0.0188  0.2835 -0.4077
27161SOL     OW85844   5.041   7.575   6.538 -0.0446 -0.0060  0.3515
27161SOL    HW185845   4.988   7.637   6.588  0.2502 -0.5053  1.3314
27161SOL    HW285846   5.127   7.616   6.532  0.1265 -0.2661  0.9247
27162SOL     OW85847   0.258   5.254   7.515  0.4909  0.3382  0.2693
27162SOL    HW185848   0.229   5.252   7.424  0.6546  0.4788  0.2149
27162SOL    HW285849   0.203   5.321   7.556 -0.6349 -0.7493  0.6346
27163SOL     OW85850   5.175  10.012  10.410  0.7129 -0.1732  0.6220
27163SOL    HW185851   5.106  10.051  10.357  2.3681 -0.2679 -1.7673
27163SOL    HW285852   5.221  10.087  10.449  1.0582  0.0516 -0.2031
27164SOL     OW85853   8.178   9.979   7.785  0.3290 -0.1766 -0.2051
27164SOL    HW185854   8.264   9.942   7.764 -0.0709 -0.7698 -0.8486
27164SOL    HW285855   8.116   9.909   7.764 -0.3382  0.3492 -0.0326
27165SOL     OW85856   8.018   0.214   7.277  0.1952  0.4183 -0.1723
27165SOL    HW185857   8.110   0.194   7.263 -0.0031  0.2094 -1.2336
27165SOL    HW285858   7.982   0.134   7.316  0.5582  0.6892  0.7640
27166SOL     OW85859   2.559   5.672   6.167 -0.1550 -0.4956  0.5524
27166SOL    HW185860   2.540   5.716   6.084  1.1367 -0.1838  0.4045
27166SOL    HW285861   2.585   5.743   6.226  1.0369 -0.9341  0.5850
27167SOL     OW85862  10.029   9.448   8.660  0.1790 -0.3255 -0.5250
27167SOL    HW185863  10.101   9.510   8.659  0.8030 -0.8359  2.6468
27167SOL    HW285864  10.070   9.362   8.666 -0.7106 -0.8198 -1.1143
27168SOL     OW85865   9.166   5.043   5.053  0.3919 -0.2285 -0.1100
27168SOL    HW185866   9.121   4.972   5.097  0.8925 -1.1116 -0.9962
27168SOL    HW285867   9.127   5.046   4.965 -0.6053  1.5195  0.3423
27169SOL     OW85868   0.234   4.477  10.648 -0.2343  0.2236 -0.0553
27169SOL    HW185869   0.172   4.535  10.605  0.4517 -0.2883 -1.8265
27169SOL    HW285870   0.190   4.392  10.650  0.0011  0.0895 -0.4007
27170SOL     OW85871  10.630   8.268  10.319  0.3806  0.1951 -0.6342
27170SOL    HW185872  10.721   8.299  10.320  0.4888 -0.0558  1.5744
27170SOL    HW285873  10.582   8.332  10.372 -0.7149  0.1892 -1.5686
27171SOL     OW85874   3.737   5.898   0.696 -0.2060  0.5843 -0.2371
27171SOL    HW185875   3.758   5.989   0.676 -0.3498  0.3535 -1.5409
27171SOL    HW285876   3.642   5.898   0.711 -0.0657  0.7956  0.6746
27172SOL     OW85877   6.323   5.828   4.604 -0.4550 -0.3571 -0.1970
27172SOL    HW185878   6.377   5.749   4.592 -0.8787 -0.4186 -2.0010
27172SOL    HW285879   6.386   5.899   4.615 -0.0690 -0.9506  1.6832
27173SOL     OW85880   0.345   9.379   1.756  0.7227  0.3153 -0.0722
27173SOL    HW185881   0.274   9.397   1.695  0.9330 -0.5398 -0.5821
27173SOL    HW285882   0.312   9.410   1.841 -0.7849 -1.1845 -0.0515
27174SOL     OW85883   1.562   2.339   5.389 -0.1700  0.0481 -0.2769
27174SOL    HW185884   1.591   2.252   5.415  3.5941  1.4531  0.9119
27174SOL    HW285885   1.602   2.353   5.303 -1.6143  0.3012 -0.9447
27175SOL     OW85886   5.880   9.151   8.388 -0.2319 -0.4069 -0.3405
27175SOL    HW185887   5.937   9.076   8.402  0.3656  0.0316 -0.4076
27175SOL    HW285888   5.876   9.162   8.293  1.9842  1.3665 -0.3053
27176SOL     OW85889   4.419   7.298   0.828  0.0126 -0.2055 -0.0127
27176SOL    HW185890   4.377   7.212   0.822 -0.4514  0.0373 -0.3286
27176SOL    HW285891   4.481   7.300   0.755  0.2697 -0.4005  0.1991
27177SOL     OW85892   7.185   3.141   4.598  0.0014  0.3234  0.0498
27177SOL    HW185893   7.115   3.082   4.570 -1.1207  1.2974  0.7112
27177SOL    HW285894   7.261   3.084   4.610 -1.1375 -1.0542  1.0413
27178SOL     OW85895   7.605   6.768  10.560 -0.3496  0.6715  0.7179
27178SOL    HW185896   7.591   6.709  10.634  0.3460  1.0004  1.1251
27178SOL    HW285897   7.520   6.808  10.544 -0.6547  0.1078  0.9163
27179SOL     OW85898  10.672   6.603  10.768 -0.3578 -0.5671  0.0552
27179SOL    HW185899  10.598   6.551  10.799  0.2339 -1.6944 -0.3712
27179SOL    HW285900  10.748   6.569  10.816 -0.3505  1.9861  2.0910
27180SOL     OW85901  11.068   7.927   6.901 -0.6773  0.0048  0.2288
27180SOL    HW185902  10.973   7.927   6.912 -1.0050 -1.2214 -2.0275
27180SOL    HW285903  11.082   7.949   6.809  1.1719 -0.8492  0.2507
27181SOL     OW85904   6.646   1.873   2.942  0.8802 -0.5022  0.4072
27181SOL    HW185905   6.592   1.828   3.008 -0.9652  2.1347  0.8354
27181SOL    HW285906   6.622   1.831   2.860 -1.5393  0.2340  0.6588
27182SOL     OW85907   5.563   5.632   5.543 -0.0913  0.5480  0.1847
27182SOL    HW185908   5.507   5.562   5.576  0.0740  0.7256  0.8661
27182SOL    HW285909   5.648   5.616   5.584  0.4152  0.1710 -0.9819
27183SOL     OW85910   6.069   3.491   2.719 -0.5563 -0.6125  0.4690
27183SOL    HW185911   6.025   3.520   2.799  0.3415 -0.1404  0.8039
27183SOL    HW285912   6.154   3.460   2.749  0.4091  1.0253 -0.4881
27184SOL     OW85913   9.462  10.788   1.118  0.2178 -0.0600  0.3292
27184SOL    HW185914   9.394  10.747   1.172 -0.6277  0.2465 -0.4710
27184SOL    HW285915   9.414  10.852   1.064  0.9120 -0.7750 -1.2102
27185SOL     OW85916   4.857  10.161   6.288 -0.3420 -0.4239 -0.2481
27185SOL    HW185917   4.766  10.154   6.317 -0.4387 -0.5367 -0.5777
27185SOL    HW285918   4.889  10.241   6.329 -0.6029 -0.3594 -0.1673
27186SOL     OW85919   4.787   9.357   2.006 -0.1097 -0.1410  0.0853
27186SOL    HW185920   4.778   9.407   2.088  0.1455 -0.7079  0.4662
27186SOL    HW285921   4.827   9.419   1.945  0.3378  0.0860  0.5957
27187SOL     OW85922   9.011   9.927   5.514 -0.3526  0.0374  0.1534
27187SOL    HW185923   9.057   9.974   5.444 -2.0136 -0.3542 -1.2673
27187SOL    HW285924   9.071   9.931   5.589  0.5732  2.3442 -0.6203
27188SOL     OW85925   1.241   0.936   6.567  0.0256  0.2553  0.3350
27188SOL    HW185926   1.194   0.855   6.548 -0.8647  1.2455 -1.9336
27188SOL    HW285927   1.333   0.911   6.566 -0.2438 -0.7399 -0.2404
27189SOL     OW85928  10.848   7.369  10.805  0.1965  0.3701  0.0501
27189SOL    HW185929  10.886   7.323  10.730 -0.5051  0.4284 -0.3537
27189SOL    HW285930  10.782   7.427  10.766 -0.8922 -0.3413  0.8024
27190SOL     OW85931   6.653   6.654   2.296 -0.0934  0.0831 -0.6580
27190SOL    HW185932   6.663   6.581   2.235 -0.2655  1.1283 -1.9976
27190SOL    HW285933   6.642   6.613   2.381  1.4094 -1.4144 -1.1272
27191SOL     OW85934   8.389   1.017   0.548 -0.0934 -0.3443 -0.3165
27191SOL    HW185935   8.330   0.942   0.554 -0.4406 -0.2394 -2.1458
27191SOL    HW285936   8.332   1.093   0.540  0.2790 -0.0972 -0.6650
27192SOL     OW85937   5.322   2.894   6.833  0.8418  0.5675 -0.2204
27192SOL    HW185938   5.400   2.851   6.867  1.1915 -1.2613 -3.0209
27192SOL    HW285939   5.353   2.944   6.758 -0.1564  2.9576  0.8613
27193SOL     OW85940   1.326   5.469   5.653 -0.2846 -0.3389 -0.0760
27193SOL    HW185941   1.420   5.480   5.670 -0.3905 -1.7314  1.6682
27193SOL    HW285942   1.321   5.393   5.596 -0.3369 -0.0381 -0.4736
27194SOL     OW85943   2.152  10.928  10.811 -0.0517  0.4648 -0.2915
27194SOL    HW185944   2.194  10.843  10.796  1.3223  0.6329  2.1581
27194SOL    HW285945   2.089  10.912  10.881 -0.0134  1.4110 -0.0310
27195SOL     OW85946   6.376   1.919  10.672  0.5528  0.4047  0.0474
27195SOL    HW185947   6.427   1.976  10.613 -0.4972  0.7823 -0.5175
27195SOL    HW285948   6.392   1.956  10.759  0.9095  0.7676 -0.1648
27196SOL     OW85949   6.659   8.001   7.484  0.4679  0.7646  0.6083
27196SOL    HW185950   6.580   8.033   7.441  0.6048  1.9584  1.1941
27196SOL    HW285951   6.626   7.947   7.556  0.1701  1.3085  0.8903
27197SOL     OW85952   5.311   5.464   9.328  0.0957  0.4653 -0.3462
27197SOL    HW185953   5.352   5.378   9.314 -0.2345  0.0405  1.1229
27197SOL    HW285954   5.221   5.453   9.297 -0.0552  0.1552  0.1909
27198SOL     OW85955  10.519   2.431   2.597  0.0587  0.1842 -0.8117
27198SOL    HW185956  10.463   2.507   2.582  0.4946  0.9847  1.2666
27198SOL    HW285957  10.608   2.467   2.596  0.2852 -0.3425 -0.1403
27199SOL     OW85958   6.579  10.710   9.369 -0.0806  0.4379 -0.2818
27199SOL    HW185959   6.539  10.648   9.308  0.9011 -0.0719 -0.4253
27199SOL    HW285960   6.649  10.660   9.412  0.5752  1.3692 -0.2346
27200SOL     OW85961   7.123   7.321   4.505 -0.2793  0.3243 -0.2478
27200SOL    HW185962   7.064   7.365   4.566 -0.9175  0.9456 -1.2843
27200SOL    HW285963   7.080   7.237   4.488 -0.1322  0.1766  0.0911
27201SOL     OW85964   0.629   1.389   2.038 -0.2855  0.2716  0.7488
27201SOL    HW185965   0.628   1.484   2.051  0.3036  0.2486  1.0347
27201SOL    HW285966   0.723   1.366   2.040 -0.2553 -0.0023 -1.6352
27202SOL     OW85967   2.182  10.938  10.048 -0.5753 -0.0746 -0.0812
27202SOL    HW185968   2.203  10.988  10.127 -2.4778  0.8790 -0.1175
27202SOL    HW285969   2.086  10.942  10.042 -0.5126 -0.5272 -2.1651
27203SOL     OW85970   5.298   9.964   6.983  0.2851 -0.4498 -0.0686
27203SOL    HW185971   5.323   9.962   7.075  0.6058  2.1052 -0.0250
27203SOL    HW285972   5.278   9.873   6.961  0.2936 -1.1355  2.4821
27204SOL     OW85973   7.638   2.016  10.432 -0.1576 -0.3211  0.1961
27204SOL    HW185974   7.666   2.095  10.479  0.8397 -0.6274  0.1482
27204SOL    HW285975   7.583   2.048  10.361  1.8732  0.5535 -1.0777
27205SOL     OW85976   0.379   3.471  10.883  0.1221  0.6994  0.0691
27205SOL    HW185977   0.349   3.392  10.929  1.3744  0.7619  1.0547
27205SOL    HW285978   0.414   3.438  10.800 -0.4651  0.3599 -0.0466
27206SOL     OW85979   0.508   3.914   2.437  0.0110  0.6276 -0.0976
27206SOL    HW185980   0.418   3.895   2.464  0.0037 -1.4975 -1.3287
27206SOL    HW285981   0.499   3.948   2.348  0.4491 -1.6573 -1.0954
27207SOL     OW85982   6.984   4.159   5.293 -0.0582  0.2648 -0.0192
27207SOL    HW185983   6.895   4.186   5.271  0.3051  1.5377  0.0265
27207SOL    HW285984   7.038   4.198   5.224  0.6050  0.5536  0.6593
27208SOL     OW85985  10.910   4.901   3.091 -0.2587 -0.4629  0.1294
27208SOL    HW185986  10.962   4.968   3.134 -0.9340 -0.4980  1.0263
27208SOL    HW285987  10.973   4.833   3.068  0.1480 -0.3582  0.9053
27209SOL     OW85988   3.226   5.571   3.184  0.0820  0.5960 -0.3271
27209SOL    HW185989   3.199   5.639   3.122 -0.1794  0.8782  0.0875
27209SOL    HW285990   3.179   5.493   3.156  0.0447  0.6949 -0.5440
27210SOL     OW85991   1.505   8.422   4.897 -0.3798 -0.1299  0.8010
27210SOL    HW185992   1.445   8.488   4.862  0.2134  0.3027  0.5720
27210SOL    HW285993   1.461   8.387   4.974 -0.6644  0.6001  0.9754
27211SOL     OW85994   3.350   3.098   9.802 -0.0255 -0.1667 -0.2316
27211SOL    HW185995   3.347   3.191   9.780  2.7034  0.5719  1.8771
27211SOL    HW285996   3.287   3.088   9.874  0.6046  0.3731  0.4055
27212SOL     OW85997  10.627   8.856  10.531 -0.2029 -0.0345 -0.9954
27212SOL    HW185998  10.639   8.777  10.479 -2.2899 -2.0279  1.2939
27212SOL    HW285999  10.539   8.887  10.509  0.2781  1.2200 -1.2657
27213SOL     OW86000   2.767   4.327   5.171 -0.1586 -0.0741 -0.1831
27213SOL    HW186001   2.712   4.382   5.115  0.2430  0.1543 -0.3636
27213SOL    HW286002   2.793   4.385   5.242  0.3223  0.0001 -0.4091
27214SOL     OW86003   0.519   7.884   7.058 -0.0215 -0.1389  0.3689
27214SOL    HW186004   0.430   7.876   7.093 -0.4995 -3.1901 -1.2292
27214SOL    HW286005   0.528   7.810   6.999  2.0196  2.5956 -3.1450
27215SOL     OW86006   6.452   9.097   4.799 -0.3011  0.3906 -0.1004
27215SOL    HW186007   6.480   9.098   4.890 -1.6852 -1.4449  0.4076
27215SOL    HW286008   6.510   9.035   4.756 -0.7914 -0.1314 -0.0266
27216SOL     OW86009   1.338   1.883   2.801 -0.1604 -0.2459  0.8420
27216SOL    HW186010   1.350   1.938   2.879 -0.6273 -0.2465  0.9177
27216SOL    HW286011   1.425   1.880   2.760 -0.2695  1.1512  0.4416
27217SOL     OW86012   5.767   7.266   5.432 -0.3116  0.0128 -0.1956
27217SOL    HW186013   5.801   7.182   5.401 -0.3226  0.4510 -1.4695
27217SOL    HW286014   5.676   7.248   5.455  0.3496 -0.8607  1.9386
27218SOL     OW86015   9.284   8.564   8.463 -0.0622 -0.3144 -0.3179
27218SOL    HW186016   9.199   8.605   8.446  0.3547  0.5757 -0.3078
27218SOL    HW286017   9.348   8.630   8.436  0.6289 -1.0583 -0.5225
27219SOL     OW86018   3.218   7.169   3.521  0.4551  0.2044 -0.2693
27219SOL    HW186019   3.182   7.154   3.433  0.3605  0.7433 -0.3219
27219SOL    HW286020   3.313   7.168   3.507  0.4429  1.6578 -0.6227
27220SOL     OW86021   9.154   1.046   3.748  0.0399 -0.1486  0.2896
27220SOL    HW186022   9.230   1.104   3.750 -1.2512  1.7394 -1.2367
27220SOL    HW286023   9.079   1.103   3.769 -1.1567 -1.5341 -0.0382
27221SOL     OW86024   6.254   3.721   1.910  0.2361 -0.4354 -0.4308
27221SOL    HW186025   6.262   3.645   1.852  0.0496 -1.9667  1.4812
27221SOL    HW286026   6.186   3.775   1.868  1.6563 -0.3157 -2.8046
27222SOL     OW86027   7.527   2.317   4.217  0.4844  0.4167 -0.1147
27222SOL    HW186028   7.513   2.224   4.200 -1.9158  0.7016 -0.0079
27222SOL    HW286029   7.611   2.321   4.262  0.9854 -1.6098 -0.7709
27223SOL     OW86030   3.127   5.425   0.738  0.0835  0.5495 -0.2640
27223SOL    HW186031   3.055   5.480   0.709 -0.5450 -0.9829 -1.8347
27223SOL    HW286032   3.150   5.458   0.825 -0.1693  3.2876 -1.1416
27224SOL     OW86033   1.232  10.107   7.670  0.6588 -0.2887  0.7436
27224SOL    HW186034   1.282  10.189   7.677 -1.0214  0.9675 -1.0314
27224SOL    HW286035   1.282  10.054   7.607  0.1439  0.6901 -0.5190
27225SOL     OW86036   5.177   3.838   9.144  0.4177 -0.6915 -0.3461
27225SOL    HW186037   5.187   3.752   9.104  0.6756 -0.9250  0.2154
27225SOL    HW286038   5.111   3.882   9.090  2.4657 -0.0722 -2.5325
27226SOL     OW86039   8.908  10.688   8.818 -0.5072  0.2213  0.6155
27226SOL    HW186040   8.879  10.711   8.907 -1.2187 -1.1500  0.7603
27226SOL    HW286041   8.831  10.650   8.776 -0.4054  1.5730 -0.8843
27227SOL     OW86042   9.375   2.435   5.307 -0.5613 -0.1268 -0.3009
27227SOL    HW186043   9.380   2.524   5.271  0.0266  1.1318  2.5488
27227SOL    HW286044   9.293   2.435   5.357  0.0693 -0.6953  0.7697
27228SOL     OW86045   2.319   2.843   3.722 -0.0856 -0.3940  0.2755
27228SOL    HW186046   2.277   2.901   3.786 -1.6122 -1.1220 -0.0127
27228SOL    HW286047   2.403   2.885   3.703 -1.1026  1.7114  0.1072
27229SOL     OW86048   1.269   8.573   1.933  0.3913  0.1342 -0.5190
27229SOL    HW186049   1.201   8.535   1.989  0.4157  0.7564 -0.0616
27229SOL    HW286050   1.229   8.653   1.898  0.9736  0.6397 -0.0434
27230SOL     OW86051   4.476   9.057   6.132  0.1178  0.1034  0.1194
27230SOL    HW186052   4.428   9.038   6.212 -1.3793  0.2926 -0.6908
27230SOL    HW286053   4.451   8.986   6.072 -0.0290  0.8076 -0.6775
27231SOL     OW86054   1.909   9.779   7.870  0.4289  0.3766 -0.1400
27231SOL    HW186055   1.976   9.710   7.865  0.4579  0.4680 -1.2161
27231SOL    HW286056   1.931   9.828   7.949  0.9656 -0.2777  0.1290
27232SOL     OW86057   8.396   3.739   8.140 -0.7424  1.1760  0.3129
27232SOL    HW186058   8.310   3.755   8.177 -0.1743 -0.6118  2.6874
27232SOL    HW286059   8.457   3.750   8.214  0.8647  0.6983 -0.8670
27233SOL     OW86060   7.975   6.898   4.914 -0.6175  0.0003 -0.7734
27233SOL    HW186061   8.019   6.965   4.967  0.2990 -1.1425 -0.0399
27233SOL    HW286062   8.003   6.917   4.824  1.1592 -0.4975 -0.3567
27234SOL     OW86063   4.183   3.686   0.929 -0.2371 -0.2694 -0.2566
27234SOL    HW186064   4.195   3.673   1.023  0.5146  0.2168 -0.2739
27234SOL    HW286065   4.088   3.684   0.916 -0.4364  1.1131  0.7481
27235SOL     OW86066   2.865   8.101   5.682 -0.2610 -0.3263  0.3528
27235SOL    HW186067   2.814   8.150   5.618  0.5931 -0.5455 -0.5420
27235SOL    HW286068   2.923   8.166   5.722 -0.5428 -0.2500  0.6340
27236SOL     OW86069   5.222   9.539   6.811 -0.0587  0.4965 -1.2026
27236SOL    HW186070   5.288   9.542   6.880 -0.2169 -1.1720 -0.9414
27236SOL    HW286071   5.271   9.520   6.731 -0.0564  0.8452 -1.2868
27237SOL     OW86072   0.618   0.039   0.825  0.2015  0.0389 -0.3919
27237SOL    HW186073   0.671  -0.022   0.774  2.0238  1.2731 -0.0760
27237SOL    HW286074   0.603  -0.006   0.908  0.6734 -0.3846 -0.5320
27238SOL     OW86075  10.124   5.324   3.101  0.2538 -0.3743  0.1267
27238SOL    HW186076  10.079   5.308   3.018  2.4115 -0.3673 -1.1028
27238SOL    HW286077  10.169   5.407   3.089 -0.6225  0.4283  1.9135
27239SOL     OW86078   1.067  11.081  10.566 -0.2023 -0.2308 -0.0540
27239SOL    HW186079   1.157  11.103  10.591 -1.2173  0.0942  3.8569
27239SOL    HW286080   1.067  10.986  10.558  0.4545 -0.2489  0.0672
27240SOL     OW86081   8.462   3.637   6.171 -0.1957  0.3941 -0.2988
27240SOL    HW186082   8.378   3.668   6.135 -0.1751 -0.3515 -1.0371
27240SOL    HW286083   8.512   3.610   6.093 -0.0845 -1.1285  0.2583
27241SOL     OW86084   2.050   4.886   4.666 -0.3308 -0.0063 -0.6834
27241SOL    HW186085   1.957   4.894   4.646 -0.8148 -0.7683  1.0875
27241SOL    HW286086   2.090   4.859   4.583 -1.6628  0.4392 -1.4955
27242SOL     OW86087   5.723   5.202   2.763  0.2074 -0.2976  0.0434
27242SOL    HW186088   5.783   5.251   2.819 -0.9460  0.3966  0.6938
27242SOL    HW286089   5.713   5.256   2.685  2.4476 -1.6312 -1.2943
27243SOL     OW86090   3.249   4.636   5.598  0.1752  0.4871 -0.2885
27243SOL    HW186091   3.185   4.670   5.536  1.3031  1.5679 -0.9108
27243SOL    HW286092   3.276   4.713   5.649  1.0031  0.0597 -0.0659
27244SOL     OW86093   1.816   8.652   6.028 -0.5700  0.7575  0.0831
27244SOL    HW186094   1.882   8.636   5.961 -0.9405 -0.9340  0.0872
27244SOL    HW286095   1.788   8.742   6.012 -0.4502  0.4971 -1.8446
27245SOL     OW86096   3.752   6.412  10.163 -0.3449  0.2568  0.1634
27245SOL    HW186097   3.777   6.490  10.213  2.1342 -0.2899 -0.0715
27245SOL    HW286098   3.718   6.445  10.081  0.1272  1.1189  0.3035
27246SOL     OW86099   6.712   8.977   9.752 -0.1427  0.6916  0.0927
27246SOL    HW186100   6.649   8.999   9.821 -0.3601 -1.0472  0.5068
27246SOL    HW286101   6.678   8.895   9.714  2.4725 -1.0170  1.1847
27247SOL     OW86102   9.984   9.462   4.372  0.6133 -0.3116  0.2827
27247SOL    HW186103  10.017   9.399   4.308 -1.5696 -0.9362 -0.3410
27247SOL    HW286104   9.993   9.418   4.456  1.2007 -0.5214  0.1122
27248SOL     OW86105   7.024   7.025   6.572 -0.3730 -0.0639 -0.1473
27248SOL    HW186106   7.071   7.094   6.619 -1.6747  2.2755 -2.0227
27248SOL    HW286107   6.933   7.033   6.603 -0.8192  0.0713 -1.4438
27249SOL     OW86108  10.976  10.574   2.201  0.1053  0.3492 -0.2755
27249SOL    HW186109  10.920  10.645   2.169 -0.2338  0.4656  0.5435
27249SOL    HW286110  10.948  10.497   2.152 -2.2335 -0.0620  1.5118
27250SOL     OW86111   4.011   7.408  10.963  0.1202  0.1873 -0.0654
27250SOL    HW186112   4.010   7.398  11.058  0.8582 -0.3494 -0.1058
27250SOL    HW286113   4.104   7.402  10.939  0.1294  2.1480 -0.6356
27251SOL     OW86114   1.803   4.136   2.505  0.6460 -0.1633 -0.1170
27251SOL    HW186115   1.849   4.123   2.588  1.6550  1.4799 -0.3819
27251SOL    HW286116   1.854   4.085   2.441  1.2984  0.5259 -0.1555
27252SOL     OW86117   4.894   4.765   7.055 -0.1072 -0.1485 -0.2317
27252SOL    HW186118   4.986   4.745   7.070  0.2032  1.0051 -0.4684
27252SOL    HW286119   4.886   4.768   6.959 -0.0086  1.3011 -0.2158
27253SOL     OW86120  10.306   9.530   7.120  0.2446 -0.0768  0.5020
27253SOL    HW186121  10.229   9.507   7.069  1.3797  0.1025 -1.3987
27253SOL    HW286122  10.289   9.495   7.208 -1.5332 -0.9179 -0.1439
27254SOL     OW86123   6.484   1.239   7.534  0.1795  0.7681  0.5778
27254SOL    HW186124   6.487   1.162   7.591 -0.4749  0.6963  0.5200
27254SOL    HW286125   6.576   1.262   7.520  0.3480  0.8723  1.7799
27255SOL     OW86126   8.913   8.639  10.598 -0.5031 -0.5134  0.5406
27255SOL    HW186127   8.848   8.691  10.645 -1.0244 -0.9436  0.3142
27255SOL    HW286128   8.871   8.553  10.587 -0.3205 -0.4839 -0.5128
27256SOL     OW86129   9.965   4.981   0.901 -0.2022 -0.4491  0.2598
27256SOL    HW186130  10.035   4.942   0.848 -0.3893  0.1040 -0.3963
27256SOL    HW286131   9.885   4.939   0.870 -0.1547 -1.2242  1.1451
27257SOL     OW86132   0.647  10.468   3.542  0.6960 -0.1518 -0.8457
27257SOL    HW186133   0.559  10.485   3.508 -0.4310 -1.0079  1.4242
27257SOL    HW286134   0.657  10.529   3.615  2.3259  0.4744 -1.5570
27258SOL     OW86135  10.904   2.205   3.276 -0.0265  0.5165 -0.1950
27258SOL    HW186136  10.874   2.143   3.209 -0.6850  1.2015 -0.5556
27258SOL    HW286137  10.864   2.175   3.357 -0.1014  0.2985 -0.3124
27259SOL     OW86138   0.844   5.592  10.364  0.2903  0.1176 -0.1294
27259SOL    HW186139   0.852   5.671  10.311 -1.7461  0.7051  0.3666
27259SOL    HW286140   0.935   5.569  10.387  0.9459  2.0190 -0.6712
27260SOL     OW86141   8.555   6.320   7.700  0.3338 -0.0332 -0.6792
27260SOL    HW186142   8.486   6.263   7.735 -0.4687 -0.5077 -2.8405
27260SOL    HW286143   8.513   6.406   7.691  0.5382  0.0923 -0.4045
27261SOL     OW86144   1.515  10.869   0.953  0.1103  0.1632  0.7668
27261SOL    HW186145   1.449  10.937   0.969  0.5135  0.6631  0.3404
27261SOL    HW286146   1.579  10.911   0.895  0.0866 -0.7586  0.0648
27262SOL     OW86147   7.080   9.055   5.122  0.5831 -0.3013  0.3133
27262SOL    HW186148   7.033   9.137   5.138  3.8368  1.5038  1.4294
27262SOL    HW286149   7.052   8.998   5.194 -2.0370 -0.4640 -0.7042
27263SOL     OW86150   9.029   9.529   2.595  0.2781  0.5597 -0.5546
27263SOL    HW186151   8.951   9.579   2.572 -0.2013  0.2504  0.3416
27263SOL    HW286152   9.010   9.440   2.567 -0.2485  0.2117  0.8281
27264SOL     OW86153   8.974   1.674   7.288 -0.0575 -0.7514 -0.5638
27264SOL    HW186154   9.001   1.603   7.229  0.3395  0.2950 -1.7054
27264SOL    HW286155   8.899   1.639   7.335  1.6050 -2.8048  0.7325
27265SOL     OW86156   1.310   0.707   4.602  0.2198 -0.0664  0.5018
27265SOL    HW186157   1.245   0.639   4.589 -1.7778  1.4914  1.7048
27265SOL    HW286158   1.271   0.786   4.563  0.4193  1.3516  2.9403
27266SOL     OW86159   0.503   0.468   9.013 -0.1290 -0.2536  0.4911
27266SOL    HW186160   0.460   0.467   8.927  0.2898  0.9492  0.2462
27266SOL    HW286161   0.436   0.435   9.074 -0.6164 -0.5818 -0.2116
27267SOL     OW86162   6.377   3.953   4.350 -0.2929  0.2019 -0.2519
27267SOL    HW186163   6.432   3.953   4.428 -1.4177  0.4540  0.5722
27267SOL    HW286164   6.350   4.045   4.339 -0.5715  0.0802 -0.6210
27268SOL     OW86165   4.050   5.862   8.903 -0.0952  0.2344  0.1893
27268SOL    HW186166   4.129   5.917   8.901  0.4783 -0.4172  2.3752
27268SOL    HW286167   4.002   5.893   8.980 -1.5216 -0.0235 -0.5718
27269SOL     OW86168  10.742   8.676   9.177  0.0744 -0.0719  0.4018
27269SOL    HW186169  10.743   8.581   9.168  1.0425  0.0151 -0.6151
27269SOL    HW286170  10.778   8.708   9.094  0.6409  1.1502  1.0966
27270SOL     OW86171   5.749   6.439   1.130  0.4927  0.6294 -0.5336
27270SOL    HW186172   5.710   6.523   1.156  1.3646  1.4079 -1.6524
27270SOL    HW286173   5.800   6.412   1.206 -0.1142  0.9103 -0.0196
27271SOL     OW86174  10.899   1.463  11.003 -0.2381 -0.0091  0.2483
27271SOL    HW186175  10.908   1.495  10.914  2.1060  0.7733  0.6995
27271SOL    HW286176  10.853   1.379  10.994 -1.0450  0.5847 -1.5445
27272SOL     OW86177   1.237   4.739   8.977 -0.2987 -0.0743  0.3408
27272SOL    HW186178   1.164   4.789   8.940  1.1200  2.7017  0.9673
27272SOL    HW286179   1.219   4.737   9.071 -0.0954 -0.3083  0.3746
27273SOL     OW86180   0.110   6.779   6.755  0.6141 -0.3391 -0.0826
27273SOL    HW186181   0.023   6.792   6.717 -0.2672 -0.5417  1.7810
27273SOL    HW286182   0.148   6.709   6.703  0.4019  0.9160 -2.0649
27274SOL     OW86183   8.612   9.507   9.657  0.4894 -0.3786  0.4196
27274SOL    HW186184   8.678   9.486   9.723  0.8600 -0.6394 -0.0329
27274SOL    HW286185   8.657   9.496   9.573  0.0812  0.1523  0.1225
27275SOL     OW86186   6.273   2.354   3.510 -0.3336  0.0412  0.0453
27275SOL    HW186187   6.220   2.385   3.584  0.3507 -1.7139  1.3394
27275SOL    HW286188   6.339   2.422   3.498 -0.2103  0.1679  1.3154
27276SOL     OW86189   9.829   9.128   2.605  0.8358  0.0603 -0.0210
27276SOL    HW186190   9.811   9.034   2.609  1.9561 -0.2914 -1.8762
27276SOL    HW286191   9.756   9.169   2.651  0.6148 -1.7305  1.3388
27277SOL     OW86192   0.381   3.808   2.107  0.5192  0.2578  0.7692
27277SOL    HW186193   0.395   3.896   2.142 -0.1493  0.2033  1.1856
27277SOL    HW286194   0.323   3.766   2.170  0.8176 -0.4801  0.5651
27278SOL     OW86195   2.643   3.361   4.986 -0.5610  0.6443 -0.5335
27278SOL    HW186196   2.634   3.283   5.040 -1.6161 -0.9213 -2.8063
27278SOL    HW286197   2.723   3.404   5.018  0.6089 -1.9063  0.1752
27279SOL     OW86198  10.669   5.670   0.864  0.1076 -0.3032  0.8334
27279SOL    HW186199  10.660   5.657   0.769  1.7298 -1.7700  0.8459
27279SOL    HW286200  10.702   5.759   0.872 -0.2491 -0.0822  0.0426
27280SOL     OW86201   0.972   5.209   9.491  0.2828 -0.3883 -0.2256
27280SOL    HW186202   0.900   5.268   9.467  0.8265  0.8519  0.9826
27280SOL    HW286203   1.032   5.265   9.541  1.8350 -1.5185 -0.7547
27281SOL     OW86204   1.636   9.272   4.641  0.2077 -0.3378 -0.0215
27281SOL    HW186205   1.680   9.349   4.677 -1.8775  0.7172  0.4291
27281SOL    HW286206   1.682   9.256   4.558 -0.3124  2.4760 -0.9941
27282SOL     OW86207   3.267   9.557   9.084  0.1804 -0.9193 -0.4296
27282SOL    HW186208   3.322   9.534   9.008  1.0619 -2.3306  0.5912
27282SOL    HW286209   3.330   9.582   9.151 -0.6375  1.4348 -0.4574
27283SOL     OW86210   0.347   1.153  10.871  0.0250 -0.0951 -0.4742
27283SOL    HW186211   0.367   1.239  10.908 -2.7595  0.4408 -0.0199
27283SOL    HW286212   0.294   1.172  10.793  0.9512 -1.3731 -1.4522
27284SOL     OW86213   5.206  10.232   3.302  0.0819  0.4408 -0.2767
27284SOL    HW186214   5.185  10.270   3.217  3.3433 -0.4716 -1.6811
27284SOL    HW286215   5.197  10.137   3.288 -1.4254  0.3413  1.1138
27285SOL     OW86216   1.112   0.090   4.144  0.1240 -0.1732  0.0894
27285SOL    HW186217   1.074   0.046   4.067  1.5170  0.5459 -1.0719
27285SOL    HW286218   1.036   0.112   4.198 -1.0287  0.2583 -1.5972
27286SOL     OW86219   5.386   1.901   0.092 -0.1140 -0.1792 -0.7576
27286SOL    HW186220   5.384   1.930   0.001 -0.0865  0.1849 -0.6443
27286SOL    HW286221   5.315   1.836   0.098  2.9312 -4.0869 -2.2815
27287SOL     OW86222   7.735   2.768   4.064 -0.1298  0.4572 -0.9967
27287SOL    HW186223   7.699   2.683   4.038 -0.0396 -0.1142  0.6711
27287SOL    HW286224   7.659   2.826   4.069 -0.2513  0.3663 -1.6673
27288SOL     OW86225   8.445  10.332   5.332 -0.0991  0.5776 -0.5626
27288SOL    HW186226   8.502  10.400   5.368  0.2614  0.5464 -1.0731
27288SOL    HW286227   8.465  10.330   5.239 -0.0505 -0.2861 -0.5398
27289SOL     OW86228   5.869   6.241   8.639  0.3737  0.0949 -0.6734
27289SOL    HW186229   5.949   6.190   8.626  1.2909  0.8102  1.6293
27289SOL    HW286230   5.897   6.332   8.627 -0.4103  0.2780 -1.1526
27290SOL     OW86231  10.608   0.543   5.624  0.0074 -0.3078 -0.2889
27290SOL    HW186232  10.648   0.555   5.537 -1.1937  0.0687 -0.8143
27290SOL    HW286233  10.592   0.449   5.629 -1.2257 -0.1703 -1.1088
27291SOL     OW86234  10.920   6.908   6.399 -0.2369  0.0576 -0.1367
27291SOL    HW186235  11.002   6.863   6.378 -0.3760 -0.6184  0.7350
27291SOL    HW286236  10.888   6.939   6.314  0.2368 -0.8456 -0.6652
27292SOL     OW86237   6.392   6.011   0.493  0.3710 -0.0183 -0.0169
27292SOL    HW186238   6.345   5.934   0.462 -0.8267  0.5918  0.2458
27292SOL    HW286239   6.444   5.979   0.567  0.7540 -0.7920 -0.6036
27293SOL     OW86240   1.862   1.427   5.095  0.5977  0.5826 -0.5621
27293SOL    HW186241   1.949   1.388   5.091  0.4205  0.2498 -1.6103
27293SOL    HW286242   1.838   1.441   5.003  0.0156  1.7388 -0.2517
27294SOL     OW86243   4.581   7.836   7.665 -0.9135  0.7067 -0.1492
27294SOL    HW186244   4.649   7.898   7.641 -0.7397  0.9967  1.0320
27294SOL    HW286245   4.545   7.806   7.582  1.1716 -0.0617 -0.8467
27295SOL     OW86246  10.980   7.889   6.612  0.2489 -0.8094 -0.1911
27295SOL    HW186247  10.912   7.906   6.546  1.2696  1.8453 -0.6808
27295SOL    HW286248  11.034   7.820   6.574 -0.8977 -1.4234 -0.7623
27296SOL     OW86249  10.524   0.530   0.720 -0.1583  0.6029 -0.2895
27296SOL    HW186250  10.451   0.476   0.690  0.3280  0.3542 -1.0668
27296SOL    HW286251  10.508   0.616   0.681 -0.5176  0.8123  0.3033
27297SOL     OW86252   8.043   9.616   4.112  0.2931 -0.8200  0.6277
27297SOL    HW186253   8.113   9.652   4.166 -0.4350  1.2957  0.2435
27297SOL    HW286254   7.963   9.657   4.144 -0.5831 -1.9290 -0.0295
27298SOL     OW86255   7.861  10.581   1.211  0.4134  0.1452  0.0142
27298SOL    HW186256   7.778  10.614   1.175 -0.9916 -0.4050  2.4695
27298SOL    HW286257   7.909  10.660   1.235  0.7091  0.4778 -1.5685
27299SOL     OW86258   6.150   8.409   4.009  0.3586 -0.2984 -0.3830
27299SOL    HW186259   6.196   8.449   3.935 -0.7749 -1.3688 -1.7269
27299SOL    HW286260   6.172   8.316   4.003  1.7251 -0.1914  1.7778
27300SOL     OW86261   5.572   7.943   4.991  0.3363  0.2415  0.1721
27300SOL    HW186262   5.595   7.854   4.965 -0.2687  0.0040  0.4234
27300SOL    HW286263   5.625   7.999   4.935  0.5660 -0.2766 -0.1364
27301SOL     OW86264   8.754  10.321   5.940 -0.0980  0.1822  0.8814
27301SOL    HW186265   8.734  10.358   6.026  1.1866  1.1894  0.7775
27301SOL    HW286266   8.737  10.392   5.879 -2.0274 -0.8329  0.1168
27302SOL     OW86267   4.272   4.570   4.727 -0.0968  0.9366 -0.9789
27302SOL    HW186268   4.275   4.485   4.683  0.9924  0.9738 -1.0055
27302SOL    HW286269   4.178   4.589   4.737 -0.4924 -1.8409  2.1337
27303SOL     OW86270   8.342   8.836  10.056  0.3754  0.8464  0.0116
27303SOL    HW186271   8.410   8.803  10.115  0.1664  2.3301  1.1222
27303SOL    HW286272   8.385   8.839   9.970  1.0384 -0.2416  0.2837
27304SOL     OW86273   3.514   4.727   5.157  0.6555 -0.4966 -0.2870
27304SOL    HW186274   3.434   4.695   5.199 -0.2992  0.0625 -1.6029
27304SOL    HW286275   3.532   4.810   5.201  0.9943 -1.0227  0.5786
27305SOL     OW86276   0.141   5.070   6.016  0.0469 -0.0556 -1.2092
27305SOL    HW186277   0.212   5.020   6.055  1.0645 -0.4623 -3.4346
27305SOL    HW286278   0.181   5.154   5.991 -1.5380  1.8872  2.1355
27306SOL     OW86279   8.186   9.242   5.839 -0.1213 -0.1489 -0.4336
27306SOL    HW186280   8.244   9.219   5.911  0.0989  0.9427 -0.2435
27306SOL    HW286281   8.150   9.328   5.863 -1.2702 -0.4741 -0.8792
27307SOL     OW86282   8.162   8.864   3.807  0.1574 -0.6869 -0.3462
27307SOL    HW186283   8.104   8.904   3.872  0.6706 -0.1302 -0.2257
27307SOL    HW286284   8.102   8.821   3.745 -0.4009  0.1939 -0.4310
27308SOL     OW86285   8.359   3.293   2.753 -0.3919 -0.3680  0.1556
27308SOL    HW186286   8.412   3.251   2.820 -1.0797 -2.9271 -0.8096
27308SOL    HW286287   8.274   3.306   2.794 -0.7032 -1.5964 -0.0797
27309SOL     OW86288   9.608   3.685   4.913 -0.2177 -0.4559 -0.1833
27309SOL    HW186289   9.562   3.769   4.908  0.3453 -0.1900 -1.5493
27309SOL    HW286290   9.658   3.690   4.994 -0.0894  0.6026 -0.3045
27310SOL     OW86291   4.288  10.567   4.994 -0.1061  0.1546  0.8780
27310SOL    HW186292   4.255  10.513   4.923  0.4322 -1.2671  1.6571
27310SOL    HW286293   4.212  10.613   5.028 -0.7075 -0.6380  0.6191
27311SOL     OW86294   6.704   1.760   0.625 -0.6062 -0.3378  0.5050
27311SOL    HW186295   6.654   1.691   0.581 -1.2681 -0.2673  1.1321
27311SOL    HW286296   6.701   1.834   0.564  1.2336 -1.2360 -0.7881
27312SOL     OW86297   1.452   3.975   6.691  0.2201 -0.7166 -0.3973
27312SOL    HW186298   1.513   3.962   6.764 -0.1177 -0.3998 -0.0564
27312SOL    HW286299   1.506   4.011   6.620 -0.1490  3.2429  1.0773
27313SOL     OW86300   5.833   8.798   3.960 -0.1007 -0.1335  1.2133
27313SOL    HW186301   5.889   8.871   3.935 -0.8185  0.5099  1.4670
27313SOL    HW286302   5.827   8.744   3.881 -0.5382  0.7055  0.6729
27314SOL     OW86303   8.362   2.356  10.917 -0.1531  0.6324  0.3016
27314SOL    HW186304   8.305   2.364  10.840  1.4173 -1.5269 -1.1868
27314SOL    HW286305   8.354   2.265  10.944 -3.2321  1.9119  4.9695
27315SOL     OW86306   7.102   4.730   8.276 -0.3473 -0.0439 -0.0772
27315SOL    HW186307   7.117   4.748   8.183  0.5198 -1.1640 -0.1715
27315SOL    HW286308   7.098   4.635   8.282 -2.1185  0.0470  0.8014
27316SOL     OW86309   4.120   8.542   2.042  0.5768  0.2042  0.0107
27316SOL    HW186310   4.182   8.486   2.088  0.9052  0.9991  0.5666
27316SOL    HW286311   4.156   8.630   2.052 -1.7369  1.0313  2.2833
27317SOL     OW86312   2.471   9.752   9.847  0.5489  0.2389  0.2457
27317SOL    HW186313   2.537   9.684   9.860  1.1168  0.5488 -0.8917
27317SOL    HW286314   2.485   9.782   9.757 -1.2191  0.2188 -0.0831
27318SOL     OW86315   3.924   8.521   4.430  0.0076 -0.4333  0.0415
27318SOL    HW186316   4.018   8.537   4.422 -0.2740  1.8242  0.4358
27318SOL    HW286317   3.917   8.446   4.489  1.5631 -0.7437 -0.1279
27319SOL     OW86318   0.967   0.550   3.370  0.2916 -0.0081 -0.2153
27319SOL    HW186319   0.915   0.471   3.386 -1.6703  1.0198 -1.1220
27319SOL    HW286320   0.985   0.585   3.457  0.4492 -0.9941  0.1597
27320SOL     OW86321   5.139   6.040   1.287  0.0425  0.2276 -0.4745
27320SOL    HW186322   5.195   5.980   1.336  1.4584  1.2743 -0.7520
27320SOL    HW286323   5.094   6.092   1.354 -0.3753 -0.4092 -0.2551
27321SOL     OW86324   0.603   7.881   7.334 -0.2424 -0.2329 -0.0072
27321SOL    HW186325   0.686   7.835   7.320  0.9623  1.3444  1.5605
27321SOL    HW286326   0.564   7.887   7.246  1.2120 -1.1267 -0.7517
27322SOL     OW86327   4.498   0.144   1.411 -0.0627  0.2595  0.4104
27322SOL    HW186328   4.591   0.141   1.431 -0.3775 -0.8675  1.8283
27322SOL    HW286329   4.459   0.193   1.483 -0.7268 -0.4527  0.5488
27323SOL     OW86330   7.725   1.972   3.270 -0.0799  0.0202 -0.0594
27323SOL    HW186331   7.793   1.910   3.245 -2.2093 -1.4193 -2.9372
27323SOL    HW286332   7.668   1.923   3.329 -0.6329 -0.1046 -0.6804
27324SOL     OW86333   7.677   8.761   1.209  0.4944  0.1709  0.0517
27324SOL    HW186334   7.610   8.827   1.225 -0.7677 -1.0314  0.0114
27324SOL    HW286335   7.747   8.807   1.164  0.4220  1.8185  1.5358
27325SOL     OW86336   5.311   3.293   7.224  0.1848 -0.5339 -0.2785
27325SOL    HW186337   5.345   3.217   7.271 -1.7729 -1.7462 -0.6966
27325SOL    HW286338   5.258   3.256   7.154  0.3972  1.2461 -1.4468
27326SOL     OW86339   9.787   5.394   2.804 -0.3634 -0.3220 -0.3010
27326SOL    HW186340   9.706   5.394   2.855 -0.0108  0.5399  0.2973
27326SOL    HW286341   9.791   5.482   2.766  0.6327 -0.1037  0.2678
27327SOL     OW86342   1.769   2.161   3.918  0.4887 -0.0821  0.1530
27327SOL    HW186343   1.715   2.084   3.904 -0.6182  0.8379 -0.8317
27327SOL    HW286344   1.833   2.134   3.984 -0.7427 -1.4039  0.8597
27328SOL     OW86345  10.760   0.845  10.704  0.0389  0.0773  0.0415
27328SOL    HW186346  10.758   0.753  10.677  1.0285 -1.1198  3.5068
27328SOL    HW286347  10.673   0.861  10.741 -0.2128  0.6633 -0.7652
27329SOL     OW86348   8.724   7.723  10.197  0.0857  0.5175  0.1299
27329SOL    HW186349   8.693   7.808  10.164 -0.8807 -0.3986 -1.4130
27329SOL    HW286350   8.791   7.746  10.261 -0.0901  2.4550 -0.3192
27330SOL     OW86351  10.736   2.264   4.825  0.4353 -0.0287 -0.2897
27330SOL    HW186352  10.646   2.289   4.844 -0.2365 -1.8219 -0.8315
27330SOL    HW286353  10.788   2.304   4.894 -1.1375 -1.3043  1.7595
27331SOL     OW86354   7.141   4.517   5.454  0.3107  0.1979  0.0609
27331SOL    HW186355   7.216   4.551   5.504  0.0535 -0.2540  0.7623
27331SOL    HW286356   7.072   4.506   5.519  0.1099 -0.8330 -0.3120
27332SOL     OW86357   2.819   7.785   6.312  0.5800 -0.1510  0.1768
27332SOL    HW186358   2.827   7.700   6.356  0.9359  0.2207  0.8472
27332SOL    HW286359   2.833   7.849   6.381 -0.3067  0.4719 -0.1966
27333SOL     OW86360   0.413   1.957   9.715  0.2245 -0.0308 -0.1613
27333SOL    HW186361   0.326   1.946   9.676  0.1325  1.3895 -0.4196
27333SOL    HW286362   0.470   1.978   9.641  0.7613 -0.7402  0.0367
27334SOL     OW86363   2.969   8.901   2.623 -0.4759  0.0460 -0.3090
27334SOL    HW186364   2.955   8.869   2.534 -2.4591 -0.3764  0.1138
27334SOL    HW286365   2.919   8.983   2.628  1.1946  1.1001 -0.1293
27335SOL     OW86366   5.859   4.374   4.608  0.2085 -0.0405  0.4440
27335SOL    HW186367   5.768   4.398   4.595  0.3888  0.6422  0.3883
27335SOL    HW286368   5.867   4.361   4.703  0.1945  0.5245  0.5273
27336SOL     OW86369   1.313   5.893   9.921 -0.0708 -0.3774  0.3775
27336SOL    HW186370   1.316   5.797   9.919  0.1788 -0.4271  1.9350
27336SOL    HW286371   1.234   5.914   9.971 -1.1568  0.2971 -1.5113
27337SOL     OW86372   1.124   5.232  10.150 -0.2210  0.4706 -0.2815
27337SOL    HW186373   1.049   5.290  10.158  0.5175  1.3482  0.4360
27337SOL    HW286374   1.188   5.282  10.099 -0.1474 -0.3101 -0.9901
27338SOL     OW86375   9.662  11.014   3.163 -0.2241 -0.0142  0.2743
27338SOL    HW186376   9.746  10.997   3.121  0.1431 -0.5882  1.1969
27338SOL    HW286377   9.609  10.937   3.143 -0.9071  0.7918 -1.1562
27339SOL     OW86378   0.663   6.746   5.740 -0.0368  1.0755  0.5201
27339SOL    HW186379   0.734   6.704   5.692 -0.4564  0.2695  0.5763
27339SOL    HW286380   0.612   6.673   5.775 -0.4430  1.6474  1.1378
27340SOL     OW86381   2.279   2.925   5.991 -0.3393  0.5382  0.5024
27340SOL    HW186382   2.291   2.948   6.083  0.5102 -1.2316  0.8763
27340SOL    HW286383   2.365   2.893   5.963 -0.6760  0.7362 -0.8155
27341SOL     OW86384   1.808   3.300   2.873 -0.2646  0.3323  0.2877
27341SOL    HW186385   1.742   3.286   2.941 -1.4243  1.2919 -0.5915
27341SOL    HW286386   1.809   3.218   2.825 -2.5056  0.9861 -1.0476
27342SOL     OW86387   6.103   9.641   9.677 -0.1758 -0.0276  0.0788
27342SOL    HW186388   6.180   9.609   9.723  0.8992  0.2569 -1.4515
27342SOL    HW286389   6.079   9.721   9.722  0.3800 -0.1636  0.6188
27343SOL     OW86390   9.394   4.435   2.570 -0.3140 -0.3041  0.1592
27343SOL    HW186391   9.462   4.387   2.523 -0.8888 -0.3987 -0.6012
27343SOL    HW286392   9.313   4.412   2.524 -0.9878 -0.8875  1.5809
27344SOL     OW86393   9.422   7.062   2.554 -0.3595  0.5356 -0.1759
27344SOL    HW186394   9.430   6.967   2.543 -1.2344  0.4148  0.1666
27344SOL    HW286395   9.468   7.080   2.636 -2.3809  0.0145  1.1554
27345SOL     OW86396   3.887   5.172   9.420 -0.4490 -0.1479 -0.1400
27345SOL    HW186397   3.894   5.193   9.513  0.8140 -0.1471 -0.2213
27345SOL    HW286398   3.906   5.078   9.415  0.2381 -0.0011 -0.4647
27346SOL     OW86399  10.330   2.679   4.618  0.8538  0.0998 -0.3213
27346SOL    HW186400  10.413   2.636   4.600  0.2398 -0.9607 -0.6721
27346SOL    HW286401  10.295   2.701   4.531  1.0812  1.1861 -0.1584
27347SOL     OW86402   6.883   9.904  11.059 -0.4104  0.1558 -0.0848
27347SOL    HW186403   6.923   9.930  10.976 -0.0656  0.9470  0.3185
27347SOL    HW286404   6.957   9.886  11.117 -0.6442 -1.0231 -0.1241
27348SOL     OW86405   5.793   6.537   1.383 -0.0293  0.3433 -0.8048
27348SOL    HW186406   5.793   6.630   1.362 -0.5985  0.3561 -0.7476
27348SOL    HW286407   5.819   6.533   1.475  1.8465  0.3239 -1.2983
27349SOL     OW86408   3.837   6.987  10.771  0.1996 -0.0164 -0.5132
27349SOL    HW186409   3.846   6.961  10.863  0.7919 -0.5945 -0.7232
27349SOL    HW286410   3.880   7.072  10.766 -0.0116  0.1103 -0.2143
27350SOL     OW86411   3.899   2.525   6.957  0.1109  0.0009 -0.4112
27350SOL    HW186412   3.903   2.593   7.025  0.3070  3.2073 -3.3391
27350SOL    HW286413   3.807   2.499   6.954 -0.1977  0.9954  0.0501
27351SOL     OW86414   8.048   6.964   1.306 -0.4083 -0.8408 -0.0268
27351SOL    HW186415   7.997   7.018   1.366  0.7101  0.9197 -0.5737
27351SOL    HW286416   7.998   6.966   1.224 -0.7444 -1.2854  0.1623
27352SOL     OW86417   8.901   8.001   5.962  0.4622 -0.4617 -0.4991
27352SOL    HW186418   8.990   7.969   5.947  1.4766  1.1215  1.5048
27352SOL    HW286419   8.892   8.002   6.058 -0.5659  2.1619 -0.5212
27353SOL     OW86420   1.413   6.273   2.449 -0.3914 -0.2661 -0.0197
27353SOL    HW186421   1.465   6.204   2.489 -0.4326 -0.8204 -0.8969
27353SOL    HW286422   1.473   6.346   2.440 -0.1477 -0.4293  0.2510
27354SOL     OW86423  10.800  10.599   8.532 -0.0286 -0.0995 -0.5690
27354SOL    HW186424  10.892  10.597   8.560  0.4633  0.7119 -1.9676
27354SOL    HW286425  10.767  10.511   8.550  0.6993 -0.1053  0.9229
27355SOL     OW86426   3.408   9.383   4.635  0.1761 -0.0136  0.4350
27355SOL    HW186427   3.423   9.363   4.543  0.9441 -0.3037  0.6125
27355SOL    HW286428   3.457   9.315   4.682 -0.6140 -0.1676  1.0536
27356SOL     OW86429   6.543   8.658   1.092  0.0709 -0.0828  0.2242
27356SOL    HW186430   6.510   8.747   1.076  1.7235  0.7892  1.3279
27356SOL    HW286431   6.493   8.627   1.168 -0.0884  0.1686  0.2215
27357SOL     OW86432   3.811  10.418   7.107 -0.3719 -0.1266 -0.2112
27357SOL    HW186433   3.756  10.391   7.181 -0.4920 -0.3098 -0.3665
27357SOL    HW286434   3.752  10.417   7.032 -0.0180 -0.9067 -0.4916
27358SOL     OW86435   3.913   0.756   5.658 -0.8023 -0.4234 -0.5252
27358SOL    HW186436   3.877   0.764   5.746  0.0551 -0.6866 -0.1437
27358SOL    HW286437   4.008   0.755   5.671 -0.6764 -0.7499 -1.4289
27359SOL     OW86438  10.785   2.681   3.348  0.0292  0.0877  0.3190
27359SOL    HW186439  10.742   2.599   3.324  0.9004 -0.2924 -0.0197
27359SOL    HW286440  10.753   2.701   3.436  0.4946 -1.1198  0.7868
27360SOL     OW86441   5.605   2.673   3.961 -0.5576 -0.2810  0.1442
27360SOL    HW186442   5.579   2.639   4.046 -1.1217 -2.3729 -0.8076
27360SOL    HW286443   5.523   2.696   3.918 -0.2937  0.5139  0.0388
27361SOL     OW86444   4.069   5.106   2.204 -0.1390 -0.3116  0.3668
27361SOL    HW186445   4.136   5.139   2.264 -1.3956  0.5553  1.3800
27361SOL    HW286446   4.115   5.091   2.122  0.9666  1.9794  0.4717
27362SOL     OW86447   4.674   0.324   8.729 -0.3108 -0.5535 -0.8424
27362SOL    HW186448   4.682   0.417   8.710 -0.0302 -0.6078 -0.9883
27362SOL    HW286449   4.757   0.286   8.699 -0.5996 -0.9166 -1.1851
27363SOL     OW86450   2.660   8.674   5.265 -0.1821 -0.1639 -0.1604
27363SOL    HW186451   2.623   8.737   5.326  0.0770  0.2994 -0.4736
27363SOL    HW286452   2.613   8.593   5.282 -1.0263  0.3024 -0.2493
27364SOL     OW86453  10.967   8.023  10.941  0.5666  0.0992  0.2531
27364SOL    HW186454  10.887   7.972  10.929  0.6400 -0.0614  0.4549
27364SOL    HW286455  10.983   8.061  10.854  0.9215 -0.8162 -0.0891
27365SOL     OW86456   0.835   0.375  10.162  0.5083  0.3497  0.4102
27365SOL    HW186457   0.764   0.359  10.223  0.7510 -2.2084  0.1073
27365SOL    HW286458   0.892   0.299  10.171  1.7379  1.0005 -1.3718
27366SOL     OW86459   3.004   5.778   0.122  0.5332 -0.1745  0.4100
27366SOL    HW186460   2.935   5.832   0.160  0.2132 -2.3388  3.2357
27366SOL    HW286461   2.959   5.721   0.060 -0.5494 -2.1886  2.8732
27367SOL     OW86462   0.918   1.846   7.959  0.1509 -0.3037  0.0160
27367SOL    HW186463   0.929   1.869   7.866  0.0942 -2.0213 -0.4524
27367SOL    HW286464   0.999   1.800   7.981  1.2252  2.0976  1.5376
27368SOL     OW86465   9.397   5.533   2.998  0.1940  0.0430 -0.0158
27368SOL    HW186466   9.428   5.601   2.938 -0.5912  0.8712  0.4865
27368SOL    HW286467   9.467   5.523   3.062 -0.3659  1.6444  0.9124
27369SOL     OW86468   4.678  10.307   3.809  0.3687  0.1033  0.2155
27369SOL    HW186469   4.623  10.373   3.850  0.1089  0.4791 -0.6963
27369SOL    HW286470   4.656  10.225   3.852  0.7326  0.6088  1.4058
27370SOL     OW86471   0.008   1.273   9.082  0.2949  0.1158 -0.0023
27370SOL    HW186472  -0.031   1.186   9.095 -0.6078  0.2743 -1.4004
27370SOL    HW286473   0.102   1.258   9.092  0.1476 -0.9927 -0.0728
27371SOL     OW86474   8.802   8.668   7.671  0.1635 -0.0367 -0.3833
27371SOL    HW186475   8.752   8.608   7.726  2.7216 -2.1746 -0.1876
27371SOL    HW286476   8.865   8.708   7.731  2.2249 -1.5142 -1.4513
27372SOL     OW86477   5.591   8.176  10.069  0.2829 -0.1514  0.5259
27372SOL    HW186478   5.669   8.195  10.121  1.1981 -2.7789  0.2760
27372SOL    HW286479   5.526   8.147  10.133 -1.3274  3.8771  0.9877
27373SOL     OW86480   8.313   4.198  10.427 -0.0758  0.3188 -0.4322
27373SOL    HW186481   8.353   4.266  10.372 -1.0964  0.5580 -0.9175
27373SOL    HW286482   8.232   4.175  10.381 -0.7813  0.2633  0.7831
27374SOL     OW86483   2.145  10.188   8.417  0.0890 -0.2133  0.0322
27374SOL    HW186484   2.057  10.218   8.393  0.0555 -0.5045 -0.2099
27374SOL    HW286485   2.135  10.095   8.435  0.6297 -0.5934 -1.4824
27375SOL     OW86486   2.917   4.730   3.737 -0.1391  0.5750 -0.0105
27375SOL    HW186487   2.939   4.822   3.723  1.7322  0.1423 -0.1831
27375SOL    HW286488   2.955   4.684   3.662  0.1671 -0.4912  0.7678
27376SOL     OW86489   8.487   6.864   5.657 -0.6497  0.1534  0.3834
27376SOL    HW186490   8.461   6.868   5.565 -0.1871  0.4482  0.2610
27376SOL    HW286491   8.541   6.785   5.664 -0.2375  0.4190  0.2773
27377SOL     OW86492  10.262   3.944   8.970 -0.0511  0.3204 -0.0445
27377SOL    HW186493  10.222   3.997   8.902  0.3698  1.4751  0.5870
27377SOL    HW286494  10.341   3.908   8.928 -0.6669 -0.3586 -0.6654
27378SOL     OW86495   1.156   0.710   6.384  0.1558 -0.3225 -0.8671
27378SOL    HW186496   1.210   0.636   6.412 -1.6071 -0.8988  1.1937
27378SOL    HW286497   1.130   0.688   6.295  0.5138 -1.6669 -0.6510
27379SOL     OW86498   3.138   1.913   5.391  0.3176  0.0803  0.1920
27379SOL    HW186499   3.099   1.954   5.468  0.7366 -0.7724  0.8594
27379SOL    HW286500   3.215   1.967   5.371  0.3273  0.1732  0.4862
27380SOL     OW86501   0.369   2.533   6.514 -0.5458 -0.2579 -0.3979
27380SOL    HW186502   0.453   2.495   6.486 -1.3873 -0.4662 -2.9414
27380SOL    HW286503   0.358   2.610   6.459 -1.6363  0.2652  0.5129
27381SOL     OW86504   7.193   7.712   8.309 -0.3378  0.3359 -0.3598
27381SOL    HW186505   7.246   7.646   8.264 -0.8545  0.4512 -1.1581
27381SOL    HW286506   7.200   7.790   8.254 -0.9648  0.4879 -0.2325
27382SOL     OW86507   9.267   7.710   7.498 -0.4661 -0.2014  0.9678
27382SOL    HW186508   9.251   7.640   7.562 -1.5336 -0.1913  0.7359
27382SOL    HW286509   9.195   7.772   7.512  0.1797  0.6032  0.8222
27383SOL     OW86510   8.603   9.101   9.828 -0.2256  0.8669  0.4337
27383SOL    HW186511   8.574   9.011   9.814  1.1891  0.6720 -1.9088
27383SOL    HW286512   8.674   9.095   9.892 -0.8044  0.4458  1.0302
27384SOL     OW86513   8.406   4.275   2.624  0.9225  0.1326  0.1226
27384SOL    HW186514   8.343   4.333   2.581  1.1253  0.5125  0.3348
27384SOL    HW286515   8.409   4.306   2.715  0.9467 -0.2822  0.2631
27385SOL     OW86516   7.270   6.167   7.139 -0.6104  0.1382  0.1482
27385SOL    HW186517   7.243   6.198   7.053 -0.8983 -0.9490 -0.1654
27385SOL    HW286518   7.271   6.072   7.131  1.1358  0.0631  0.8096
27386SOL     OW86519   4.202   8.261   3.307 -0.4710 -0.3657 -0.0147
27386SOL    HW186520   4.184   8.245   3.400  0.8680 -0.9497  0.1708
27386SOL    HW286521   4.117   8.283   3.269 -0.5501  3.8941  2.0789
27387SOL     OW86522   8.550   8.257   5.323 -0.5290 -0.4410  0.2293
27387SOL    HW186523   8.623   8.264   5.385  1.9205 -2.2971 -2.1963
27387SOL    HW286524   8.569   8.323   5.256 -0.2886 -1.7977 -1.0930
27388SOL     OW86525   1.645   8.314   2.054 -0.2049  0.7709 -0.2029
27388SOL    HW186526   1.679   8.403   2.044  0.3109  0.6158  0.1198
27388SOL    HW286527   1.604   8.294   1.970 -1.6566  1.8605  0.2187
27389SOL     OW86528   4.893   1.707   4.039 -0.0889  0.7535  0.1565
27389SOL    HW186529   4.954   1.749   3.978 -0.6815 -0.3439 -1.2288
27389SOL    HW286530   4.903   1.757   4.120  1.2595  1.7859 -0.6015
27390SOL     OW86531   4.076   5.981   1.307 -0.4627  0.8396  0.3739
27390SOL    HW186532   4.053   6.071   1.282  0.1920  1.0720  0.5829
27390SOL    HW286533   4.099   5.938   1.225 -2.9892  0.1604 -0.0701
27391SOL     OW86534   8.136   6.050   6.723 -0.1859  0.1088  0.1199
27391SOL    HW186535   8.049   6.045   6.763  0.4021 -0.6607  1.3412
27391SOL    HW286536   8.194   6.073   6.795  0.6140  0.8190 -0.7272
27392SOL     OW86537   9.446   8.885   1.635 -0.8624  0.6143  0.0062
27392SOL    HW186538   9.426   8.792   1.631 -0.5129  0.5088  0.5350
27392SOL    HW286539   9.484   8.906   1.549 -0.8412  0.2474 -0.0726
27393SOL     OW86540  10.003   2.277   7.564  0.4390  0.0994  0.2355
27393SOL    HW186541   9.994   2.326   7.646  2.1687  1.0843 -0.1150
27393SOL    HW286542  10.097   2.264   7.554  0.3762  0.9571 -2.1146
27394SOL     OW86543   5.083   2.392   1.764  0.0568 -0.3221 -0.4952
27394SOL    HW186544   5.101   2.428   1.851  2.2140 -1.5777 -0.3341
27394SOL    HW286545   5.135   2.447   1.705  0.2069 -0.7051 -0.7236
27395SOL     OW86546   8.581   5.189   4.405 -0.4206 -0.4709 -0.3314
27395SOL    HW186547   8.510   5.179   4.468 -0.7281  1.9686 -0.1838
27395SOL    HW286548   8.544   5.161   4.321 -1.4665  0.4385 -0.1899
27396SOL     OW86549   8.126   9.159   9.242  0.4008  0.0809 -0.2601
27396SOL    HW186550   8.220   9.170   9.250  0.2661  0.5224  0.9570
27396SOL    HW286551   8.109   9.069   9.269  0.3425  0.4562  1.0591
27397SOL     OW86552   3.871   4.328   0.869 -0.0091  0.1871  0.3138
27397SOL    HW186553   3.902   4.310   0.957  0.9427  0.0742 -0.0401
27397SOL    HW286554   3.937   4.386   0.831 -1.0633  1.3190  0.1127
27398SOL     OW86555   6.506   2.457   9.944  0.7728  0.1282  0.0936
27398SOL    HW186556   6.563   2.381   9.935 -0.2178 -0.8710  1.6610
27398SOL    HW286557   6.445   2.450   9.871 -1.1967 -2.3857  1.7822
27399SOL     OW86558   2.929   5.198  10.912  0.7322  0.2773  1.0576
27399SOL    HW186559   2.872   5.130  10.949 -0.6418  1.0949  0.5238
27399SOL    HW286560   2.910   5.196  10.818  1.6714  0.5095  0.8529
27400SOL     OW86561   9.214  10.523   9.271 -0.4304  0.3854  0.5544
27400SOL    HW186562   9.220  10.488   9.182 -1.1919 -2.0407  1.3832
27400SOL    HW286563   9.153  10.597   9.263 -0.3812  0.2956 -0.9565
27401SOL     OW86564   3.045  10.166   2.114 -0.4749  0.0772  0.1727
27401SOL    HW186565   3.121  10.192   2.166  0.0364  1.4082 -1.1739
27401SOL    HW286566   3.083  10.130   2.034 -1.2592 -1.6253  0.5250
27402SOL     OW86567   9.233   4.237   8.173  0.2592 -0.4065 -0.6700
27402SOL    HW186568   9.205   4.147   8.161 -2.6240  0.6007 -2.6660
27402SOL    HW286569   9.190   4.266   8.254 -2.4241  0.2813 -2.2185
27403SOL     OW86570   3.751  10.092   0.473  0.6629 -0.0911  0.1897
27403SOL    HW186571   3.842  10.112   0.494  0.5801  0.3987  0.1005
27403SOL    HW286572   3.712  10.066   0.556  0.8238 -0.0714  0.2727
27404SOL     OW86573   0.175   1.627   6.552  0.6412 -0.2805  0.6846
27404SOL    HW186574   0.211   1.614   6.640 -1.5095  0.8466  1.8189
27404SOL    HW286575   0.156   1.539   6.520  1.2934 -0.6956  1.4150
27405SOL     OW86576   9.612   7.192   1.217  0.6368 -0.4740 -0.2254
27405SOL    HW186577   9.620   7.275   1.264 -1.9221 -0.1978 -0.1826
27405SOL    HW286578   9.530   7.199   1.169  1.4797 -2.1141 -2.0567
27406SOL     OW86579   2.906   5.517   4.092 -0.1864  0.4058 -0.3781
27406SOL    HW186580   2.828   5.461   4.092 -1.0496  1.5566 -1.3508
27406SOL    HW286581   2.950   5.496   4.174 -2.4312  0.9474  1.0520
27407SOL     OW86582   4.322   8.695   8.263 -0.5004  0.2270  0.3182
27407SOL    HW186583   4.325   8.731   8.175 -1.4305  0.5737  0.4233
27407SOL    HW286584   4.306   8.771   8.320  2.1606  0.3656  1.0363
27408SOL     OW86585   5.475   3.484   9.115  0.1172 -0.6765  0.1900
27408SOL    HW186586   5.530   3.553   9.152  1.2958 -1.1126 -0.6735
27408SOL    HW286587   5.452   3.430   9.190 -1.9000  1.2972  1.1103
27409SOL     OW86588   1.439   6.138   4.713 -0.1019 -0.5421 -0.0940
27409SOL    HW186589   1.346   6.141   4.689 -0.3589 -0.7166  0.8637
27409SOL    HW286590   1.485   6.148   4.629 -0.9772 -0.2149 -0.5517
27410SOL     OW86591   4.746   3.424   5.979 -0.7737  0.1110  0.6485
27410SOL    HW186592   4.725   3.342   6.023 -1.1833  0.4246  1.0422
27410SOL    HW286593   4.739   3.404   5.886 -0.4476 -0.4102  0.7342
27411SOL     OW86594   1.079   9.659   4.833 -0.3493  0.1617 -0.2488
27411SOL    HW186595   1.141   9.731   4.820  0.0732 -0.1447  0.0665
27411SOL    HW286596   1.078   9.645   4.927 -0.3351 -0.3305 -0.3197
27412SOL     OW86597   4.169   7.912   7.548 -0.3259  0.1942 -0.2758
27412SOL    HW186598   4.184   7.928   7.455  3.5714 -0.9484 -0.0366
27412SOL    HW286599   4.223   7.978   7.592 -1.3193  0.0749  1.1726
27413SOL     OW86600   6.888   4.058   2.882 -0.1931 -0.4736 -0.3088
27413SOL    HW186601   6.963   4.015   2.841  0.8321  1.3240 -0.4118
27413SOL    HW286602   6.818   3.993   2.877  1.5836 -2.5898  0.6703
27414SOL     OW86603  10.581   6.996   3.442 -0.7965 -0.4759 -0.2736
27414SOL    HW186604  10.575   7.085   3.477 -3.2338 -0.4450 -0.5460
27414SOL    HW286605  10.668   6.965   3.467 -0.1477  1.7231  0.4195
27415SOL     OW86606   1.004   0.038   0.449 -0.6576  0.0232  0.0290
27415SOL    HW186607   0.993  -0.036   0.509 -1.3006  1.3766  1.6477
27415SOL    HW286608   1.096   0.064   0.460 -0.3896 -0.5879 -0.6516
27416SOL     OW86609   8.936   3.892   6.972  0.0768 -0.0743 -0.1572
27416SOL    HW186610   8.884   3.913   6.895 -0.0897  0.1873  0.0265
27416SOL    HW286611   8.907   3.804   6.997 -1.3694  0.6576  0.8402
27417SOL     OW86612  10.981   4.466   9.882  0.4939 -0.8018 -0.2086
27417SOL    HW186613  10.905   4.523   9.877  1.1507  0.2023  0.8031
27417SOL    HW286614  10.951   4.390   9.933  0.9913  1.1662  3.3612
27418SOL     OW86615   6.782   1.402   8.098 -0.1300  0.2414 -0.9525
27418SOL    HW186616   6.703   1.366   8.058 -1.5862  0.0455  1.8475
27418SOL    HW286617   6.845   1.330   8.094 -1.5001 -1.1262  0.4111
27419SOL     OW86618   0.254   4.223   6.267  0.9181  0.3367 -0.4193
27419SOL    HW186619   0.298   4.144   6.298 -0.3088  0.3572  1.5076
27419SOL    HW286620   0.278   4.229   6.174  1.0528 -2.2790 -0.6185
27420SOL     OW86621   0.765   6.741   3.424  0.4720 -0.5985 -0.2488
27420SOL    HW186622   0.856   6.720   3.443  0.3535 -1.6012 -0.6980
27420SOL    HW286623   0.749   6.703   3.338 -0.1563  0.2397 -0.5152
27421SOL     OW86624   9.710   5.614   2.165 -0.5640 -0.1675 -0.3366
27421SOL    HW186625   9.635   5.654   2.121 -0.0671  0.0394 -1.0164
27421SOL    HW286626   9.758   5.687   2.203 -0.8063 -0.3169  0.2754
27422SOL     OW86627   0.175   5.940   3.830 -0.0175 -0.7125 -0.0494
27422SOL    HW186628   0.264   5.953   3.864  0.7366 -0.2596 -2.0464
27422SOL    HW286629   0.118   5.963   3.904  1.5018 -0.9331  1.2619
27423SOL     OW86630   7.261   3.834   5.431 -0.1542  0.3762 -0.5009
27423SOL    HW186631   7.299   3.868   5.512 -0.1445 -1.7664  0.4670
27423SOL    HW286632   7.337   3.818   5.374 -0.2599  3.4497 -1.6893
27424SOL     OW86633  10.623   4.499   2.727 -0.5405 -0.3257  0.4533
27424SOL    HW186634  10.617   4.409   2.695  0.7158 -0.3715  0.3097
27424SOL    HW286635  10.709   4.504   2.769 -1.6811  0.0431  2.9175
27425SOL     OW86636   9.796   7.467   2.175 -1.5174 -0.4238  0.3405
27425SOL    HW186637   9.783   7.540   2.235 -1.8335 -0.8055  0.7468
27425SOL    HW286638   9.712   7.421   2.175 -1.5750 -0.3393 -0.5245
27426SOL     OW86639   8.447   1.964   4.368 -0.0788 -0.8754 -0.1342
27426SOL    HW186640   8.490   2.001   4.291 -0.7038 -1.9388 -1.0326
27426SOL    HW286641   8.489   2.006   4.443  0.3951  0.3443 -1.0628
27427SOL     OW86642   1.008   8.337   3.632  0.1459  0.3318  0.3320
27427SOL    HW186643   1.022   8.298   3.718  0.7264  0.9289  0.5185
27427SOL    HW286644   0.915   8.360   3.631 -0.1839 -0.9229  0.2569
27428SOL     OW86645   9.615   0.506   5.705 -0.2513  0.3788  0.3315
27428SOL    HW186646   9.520   0.498   5.707 -0.2315  0.2598  0.8990
27428SOL    HW286647   9.645   0.434   5.650 -0.4156 -0.2901  1.1062
27429SOL     OW86648   1.233   3.287   5.888  0.6855  0.1316  0.0305
27429SOL    HW186649   1.227   3.191   5.885  0.6831  0.1237  0.2477
27429SOL    HW286650   1.193   3.317   5.807  1.5522 -0.0950 -0.5019
27430SOL     OW86651   3.457  10.162   2.844  0.1923  0.6463  0.0168
27430SOL    HW186652   3.536  10.180   2.894  1.8116 -1.2912 -1.6163
27430SOL    HW286653   3.444  10.240   2.790  0.9632  1.0220  0.3634
27431SOL     OW86654   5.900   3.434   1.650 -0.2388 -1.1152 -0.2971
27431SOL    HW186655   5.963   3.426   1.579  1.4327  0.3725  0.9225
27431SOL    HW286656   5.854   3.516   1.632 -0.1487 -0.9816  0.0632
27432SOL     OW86657   4.762   1.171   5.960 -0.4647 -0.2971 -0.2131
27432SOL    HW186658   4.831   1.201   5.901 -0.9284 -0.9248 -1.1044
27432SOL    HW286659   4.692   1.234   5.949 -0.4083 -0.2032 -0.0418
27433SOL     OW86660   8.183  10.312   1.283  0.0758  0.1729  0.0354
27433SOL    HW186661   8.237  10.346   1.212  1.6830 -1.0979  0.5649
27433SOL    HW286662   8.171  10.219   1.262 -0.6184  0.0951  0.7164
27434SOL     OW86663   8.841   3.001   6.431 -0.2144  0.5461  0.3837
27434SOL    HW186664   8.771   3.062   6.456 -0.6955  0.7979 -1.4279
27434SOL    HW286665   8.899   3.053   6.375 -0.1298 -0.4069 -0.4365
27435SOL     OW86666   9.076   4.818   7.068 -0.2710 -0.0401 -0.0800
27435SOL    HW186667   9.116   4.765   6.999  1.4016 -0.0591  0.8396
27435SOL    HW286668   9.085   4.766   7.147 -0.3832  0.7926  0.4998
27436SOL     OW86669   0.257   7.349   1.913  0.1512  0.4056 -0.5862
27436SOL    HW186670   0.328   7.285   1.911 -0.2918 -0.1087 -0.0191
27436SOL    HW286671   0.301   7.433   1.928  0.5393 -0.0882  1.2574
27437SOL     OW86672   1.793   5.587  10.157  0.5813 -0.3805  0.0368
27437SOL    HW186673   1.864   5.631  10.112 -0.0124 -0.1730 -0.7194
27437SOL    HW286674   1.835   5.516  10.205  1.4198  0.3798  0.4529
27438SOL     OW86675  10.506  10.202   2.104  0.2238  0.3784  0.1443
27438SOL    HW186676  10.426  10.167   2.143 -0.8693 -0.2645 -2.4405
27438SOL    HW286677  10.550  10.126   2.067  0.1779  1.1336 -1.5487
27439SOL     OW86678   4.934   4.711   3.069  0.0449 -0.2019  0.1823
27439SOL    HW186679   4.877   4.653   3.019  0.3628  0.2198 -0.6793
27439SOL    HW286680   4.978   4.765   3.003  0.3222  0.4959  0.9225
27440SOL     OW86681   8.439   9.766   5.703 -0.2227 -0.5348  0.2445
27440SOL    HW186682   8.456   9.743   5.795 -0.2108 -0.4065  0.2744
27440SOL    HW286683   8.522   9.746   5.659  0.3582  1.0255  0.5650
27441SOL     OW86684   7.865   1.378   2.118 -0.4096  0.2107 -0.1255
27441SOL    HW186685   7.785   1.338   2.153 -1.8654  2.1068 -1.1337
27441SOL    HW286686   7.840   1.467   2.096  1.5687  0.3893 -1.9787
27442SOL     OW86687   8.931   6.427   9.555 -0.6148 -0.0397  0.0333
27442SOL    HW186688   8.868   6.498   9.560 -0.5218  0.0943 -0.5568
27442SOL    HW286689   8.960   6.413   9.645 -1.4243 -0.0542  0.3014
27443SOL     OW86690   6.225   5.608  10.241  0.4847 -0.0476 -0.1126
27443SOL    HW186691   6.316   5.622  10.214  0.3813  0.5614 -0.1533
27443SOL    HW286692   6.189   5.696  10.252 -0.0139 -0.2849  0.2017
27444SOL     OW86693  11.071   0.334   3.771  0.2054 -0.0931  0.3924
27444SOL    HW186694  11.163   0.353   3.785  0.2829 -0.2105  0.0649
27444SOL    HW286695  11.026   0.418   3.784  0.1018 -0.4298  2.6088
27445SOL     OW86696   4.782   1.406   8.324 -0.5990 -0.5448 -0.4445
27445SOL    HW186697   4.839   1.474   8.360 -0.2366 -2.0808  2.1921
27445SOL    HW286698   4.833   1.366   8.253  0.4605 -0.0945  0.0547
27446SOL     OW86699   1.908   6.861   9.282  0.1308  0.0521  0.6869
27446SOL    HW186700   1.877   6.947   9.311 -0.0540 -0.2144  1.3168
27446SOL    HW286701   1.840   6.830   9.223  0.6998  0.7730 -0.3713
27447SOL     OW86702   8.665  10.887   3.490  0.1679  0.4574 -0.5087
27447SOL    HW186703   8.730  10.909   3.558 -0.7365  0.1142  0.4945
27447SOL    HW286704   8.603  10.829   3.535  0.8011 -1.6780 -2.2330
27448SOL     OW86705   4.923   0.942   1.140 -0.2365  0.5101  0.7873
27448SOL    HW186706   4.922   0.911   1.230  1.3745  1.0697  1.0374
27448SOL    HW286707   5.011   0.978   1.128  0.3103 -1.3183 -1.5905
27449SOL     OW86708   1.563   6.144   8.727 -0.0501 -0.5226  0.6560
27449SOL    HW186709   1.559   6.216   8.664  0.7734 -0.4673  0.6509
27449SOL    HW286710   1.484   6.154   8.781 -0.6084 -0.3931 -0.1718
27450SOL     OW86711   1.490   4.338   4.365 -0.2451 -0.2634  0.0147
27450SOL    HW186712   1.416   4.333   4.304  0.2377  1.2457 -0.7438
27450SOL    HW286713   1.461   4.288   4.442 -2.4133  0.9945  0.0947
27451SOL     OW86714   2.441  10.650   3.451  0.8233  0.1087 -0.5874
27451SOL    HW186715   2.472  10.727   3.499  0.1818 -0.1323  0.2437
27451SOL    HW286716   2.521  10.611   3.415  1.1569  1.1318 -0.9910
27452SOL     OW86717   2.868   9.135   2.529 -0.6792 -0.5477 -0.8541
27452SOL    HW186718   2.803   9.115   2.462  0.5128 -0.3495 -2.1053
27452SOL    HW286719   2.849   9.226   2.554 -0.6944 -0.3846 -1.4383
27453SOL     OW86720   8.441   2.314   4.473  0.6903 -0.4765 -0.2785
27453SOL    HW186721   8.490   2.298   4.554 -1.0633 -1.0425  0.7229
27453SOL    HW286722   8.407   2.403   4.484 -1.3540 -1.3127  0.6614
27454SOL     OW86723   2.375   8.347   1.939 -0.1492  0.2478  0.1005
27454SOL    HW186724   2.290   8.366   1.978 -0.6826  0.7503 -1.2462
27454SOL    HW286725   2.393   8.256   1.964  0.3120  1.0267  2.8246
27455SOL     OW86726   3.048   0.643   5.110 -0.6026  0.0831  0.0290
27455SOL    HW186727   3.026   0.567   5.165  0.2195 -1.0245 -1.1114
27455SOL    HW286728   2.965   0.668   5.069 -0.5921 -1.3420 -0.9383
27456SOL     OW86729   2.335   4.926  10.093  0.0694 -0.0129  0.9069
27456SOL    HW186730   2.343   5.003  10.150 -1.8408  0.5664  0.4918
27456SOL    HW286731   2.412   4.928  10.038  1.2250  0.2605  2.4627
27457SOL     OW86732   5.082   0.095   2.999  0.1576  0.5822 -0.0267
27457SOL    HW186733   4.993   0.113   2.967  0.4570  0.7828 -0.7719
27457SOL    HW286734   5.070   0.074   3.091 -0.8542 -0.9170 -0.4552
27458SOL     OW86735   1.550   8.262  10.890  0.1453  0.8052 -0.3434
27458SOL    HW186736   1.528   8.283  10.799  3.7401  2.2655 -1.0623
27458SOL    HW286737   1.605   8.184  10.884 -0.9164 -0.0762  0.8130
27459SOL     OW86738   8.082   7.179   2.926 -0.2806  0.0514 -0.0783
27459SOL    HW186739   8.137   7.256   2.943 -1.1526  0.7101 -0.1493
27459SOL    HW286740   8.144   7.106   2.920  0.6077  0.8043 -0.3821
27460SOL     OW86741  10.530   1.010   2.990  0.3210  0.6924  0.1616
27460SOL    HW186742  10.478   1.061   3.051 -0.4018 -0.7335  0.7767
27460SOL    HW286743  10.489   1.025   2.905 -1.5131 -0.8436  0.7127
27461SOL     OW86744   6.145   5.959   5.794 -0.2602 -0.3033 -0.1830
27461SOL    HW186745   6.197   5.885   5.764 -0.1843 -0.3773  0.1286
27461SOL    HW286746   6.209   6.022   5.825 -0.2644  0.3054 -1.3346
27462SOL     OW86747   5.860   7.546   4.394 -0.1666  0.7196  0.3696
27462SOL    HW186748   5.953   7.555   4.369 -0.0397 -0.1199  0.5118
27462SOL    HW286749   5.841   7.453   4.379 -1.0439  0.9335  0.1485
27463SOL     OW86750   5.009   1.026   4.180 -0.2893 -0.2878  0.7989
27463SOL    HW186751   4.961   0.946   4.203 -1.0328  0.0946  0.6082
27463SOL    HW286752   5.044   1.058   4.263  0.1510 -0.8937  0.8535
27464SOL     OW86753   2.213  11.011   5.844  0.1776 -0.0013  0.6945
27464SOL    HW186754   2.170  10.926   5.847  0.7162 -0.2599  2.1605
27464SOL    HW286755   2.174  11.055   5.769  0.2839 -1.7298 -0.4325
27465SOL     OW86756   9.369   5.783   6.075 -0.0940 -0.0679  0.2917
27465SOL    HW186757   9.320   5.758   6.154 -0.6312  0.3355  0.0943
27465SOL    HW286758   9.365   5.879   6.075  0.7286 -0.0321  0.2860
27466SOL     OW86759   6.467   1.952   2.120 -0.3668  0.2588 -0.3600
27466SOL    HW186760   6.466   1.934   2.026 -0.2821  1.3150 -0.5812
27466SOL    HW286761   6.549   1.998   2.135 -0.4396  0.2116  0.2065
27467SOL     OW86762   5.435   0.109   5.050  0.4307  0.5028 -0.2183
27467SOL    HW186763   5.525   0.094   5.019  1.0132 -0.2909  1.7121
27467SOL    HW286764   5.394   0.023   5.045  0.0938  0.6602 -0.1475
27468SOL     OW86765   6.597  10.367  10.133  0.2528  0.1205  0.5872
27468SOL    HW186766   6.503  10.380  10.143 -0.2014  0.4371 -2.9105
27468SOL    HW286767   6.614  10.281  10.172 -1.6443 -0.3399  0.4881
27469SOL     OW86768   5.654   1.026   3.521 -0.2052  0.1422 -0.2746
27469SOL    HW186769   5.644   0.998   3.612 -0.7329  0.9488 -0.0787
27469SOL    HW286770   5.637   0.947   3.470 -0.8060 -0.1019  0.2978
27470SOL     OW86771   1.995   4.765   6.712 -0.1012  0.0488 -0.3046
27470SOL    HW186772   2.055   4.803   6.776 -0.8276 -3.5839  2.9003
27470SOL    HW286773   1.939   4.838   6.685  0.4510  1.8936  3.0105
27471SOL     OW86774   7.269   7.603  10.474  0.2249 -0.0670  0.0541
27471SOL    HW186775   7.344   7.646  10.515 -0.6359  0.1959  1.4003
27471SOL    HW286776   7.219   7.675  10.435 -0.1359 -0.0599  0.5202
27472SOL     OW86777  10.523   5.250   2.260 -0.5925  0.3387  0.0977
27472SOL    HW186778  10.593   5.308   2.289 -1.2828  1.6200 -0.7060
27472SOL    HW286779  10.567   5.169   2.234  0.2760 -0.0085  2.4028
27473SOL     OW86780  10.607   9.227   7.203  0.2825 -0.0610 -0.0856
27473SOL    HW186781  10.569   9.189   7.123  1.4187 -1.1924 -0.1306
27473SOL    HW286782  10.701   9.211   7.194  0.4494 -0.0609  1.4098
27474SOL     OW86783   2.751   0.966   2.876  0.0279  0.6907  0.8753
27474SOL    HW186784   2.749   0.882   2.831  0.2765  0.2999  1.5803
27474SOL    HW286785   2.743   1.031   2.806  0.3693  0.0959  0.2734
27475SOL     OW86786   1.703   2.560   3.222  0.3406  0.5239  0.1177
27475SOL    HW186787   1.737   2.542   3.135 -1.6727  0.8329 -0.7905
27475SOL    HW286788   1.748   2.498   3.279  0.6353 -0.6939 -1.3740
27476SOL     OW86789   4.441   6.959   3.984 -0.6459 -0.1434 -0.3481
27476SOL    HW186790   4.461   6.976   3.892  0.0706 -1.3236 -0.4261
27476SOL    HW286791   4.526   6.957   4.027 -1.0186  1.0946  0.4841
27477SOL     OW86792   2.918   5.334   6.231  0.0442  0.1493  0.0998
27477SOL    HW186793   2.983   5.393   6.271 -0.8052  0.8898  0.4251
27477SOL    HW286794   2.882   5.384   6.158  2.1740 -1.4965 -2.2307
27478SOL     OW86795   7.989   2.678   1.840 -0.2835  0.6886 -0.2512
27478SOL    HW186796   8.010   2.638   1.756 -1.0182  1.8314 -1.0170
27478SOL    HW286797   8.074   2.688   1.884 -0.1016 -1.8267  0.0797
27479SOL     OW86798   2.896   8.850   5.602  0.3753  0.4079 -0.8426
27479SOL    HW186799   2.881   8.771   5.550  1.8336  0.0707 -0.7943
27479SOL    HW286800   2.954   8.904   5.549 -0.1186  1.1973 -0.6146
27480SOL     OW86801   5.755   2.498   8.287 -0.0341  0.1323  0.6666
27480SOL    HW186802   5.769   2.556   8.363 -1.1313  1.4491 -0.0916
27480SOL    HW286803   5.663   2.510   8.264  0.3230 -0.0673 -1.0131
27481SOL     OW86804  10.178   0.724   6.133 -0.3934  0.6445 -0.2509
27481SOL    HW186805  10.187   0.629   6.119 -0.2372  0.6133  0.0604
27481SOL    HW286806  10.096   0.733   6.182 -1.2460  0.7999 -1.6445
27482SOL     OW86807   1.318   1.299   4.589  0.1831 -0.9939  0.9978
27482SOL    HW186808   1.277   1.229   4.640 -0.4051 -1.4012  0.0074
27482SOL    HW286809   1.276   1.293   4.503 -0.1278  0.7937  0.9768
27483SOL     OW86810   4.545  10.512   1.652  0.2647 -0.5906  0.1726
27483SOL    HW186811   4.508  10.534   1.567 -0.5722  0.9927  0.9064
27483SOL    HW286812   4.639  10.508   1.637  0.1458 -0.0333 -0.7738
27484SOL     OW86813   0.529   8.546   0.592 -0.2559 -0.0563 -0.1507
27484SOL    HW186814   0.563   8.625   0.550  1.1724 -1.5713 -1.9896
27484SOL    HW286815   0.500   8.576   0.678 -0.3642  2.5747 -1.0171
27485SOL     OW86816   9.800   4.819   1.515  0.7033 -0.4204  0.2006
27485SOL    HW186817   9.725   4.795   1.462  0.4128 -1.0395  0.8787
27485SOL    HW286818   9.876   4.800   1.460  0.3747  0.2354 -0.4987
27486SOL     OW86819   3.555   2.744   2.351  0.0461 -0.3894  0.2966
27486SOL    HW186820   3.612   2.791   2.412 -0.2647 -0.7432  0.8636
27486SOL    HW286821   3.612   2.680   2.309 -0.1763 -1.6284  1.7955
27487SOL     OW86822   7.395   2.077   0.012  0.2915 -0.4127 -0.6384
27487SOL    HW186823   7.418   2.047   0.100 -1.0278 -1.0370 -0.4786
27487SOL    HW286824   7.336   2.151   0.027  2.5011  1.5295 -1.0313
27488SOL     OW86825   7.136   9.652   7.175 -0.0428 -0.0302 -0.7815
27488SOL    HW186826   7.147   9.581   7.111  0.1680 -1.2827  0.5984
27488SOL    HW286827   7.222   9.659   7.217 -0.7258 -0.6713  0.7819
27489SOL     OW86828   3.701   8.271   3.889  0.3677 -0.0474 -0.3892
27489SOL    HW186829   3.692   8.360   3.855 -0.3331 -0.0128 -0.1332
27489SOL    HW286830   3.792   8.247   3.870  0.4609  0.5856 -0.7827
27490SOL     OW86831   6.739  10.647   9.596 -0.1385 -0.4874  0.0621
27490SOL    HW186832   6.813  10.623   9.652  1.6594  0.2130 -1.9235
27490SOL    HW286833   6.724  10.739   9.614 -0.0301 -0.4373 -0.1126
27491SOL     OW86834   6.545   7.084   4.172 -0.4767 -0.3351  0.2148
27491SOL    HW186835   6.615   7.148   4.186 -1.3222  0.8117 -0.6206
27491SOL    HW286836   6.585   7.000   4.195  1.9474 -0.0560 -2.3994
27492SOL     OW86837   8.675   6.123   7.956  0.4889 -0.0089  0.3944
27492SOL    HW186838   8.701   6.032   7.942 -0.0427  0.0576 -1.2171
27492SOL    HW286839   8.701   6.169   7.876  1.8996  1.5550  1.6666
27493SOL     OW86840   2.542   4.532   9.958 -0.0736 -0.0557 -0.3373
27493SOL    HW186841   2.566   4.459  10.016  0.7448  1.0661  0.7934
27493SOL    HW286842   2.539   4.493   9.871  0.8072 -1.3551  0.1706
27494SOL     OW86843   3.094   2.053   2.646  0.1416 -0.4242 -0.0214
27494SOL    HW186844   3.141   1.980   2.606  0.0937 -0.5963  0.2364
27494SOL    HW286845   3.089   2.031   2.739  0.2563 -0.0268  0.0852
27495SOL     OW86846   1.813   8.668   1.256  0.2440  0.2881 -0.0571
27495SOL    HW186847   1.746   8.600   1.249  0.7430 -0.0828 -1.4835
27495SOL    HW286848   1.764   8.748   1.275 -0.6125  0.0233 -1.0724
27496SOL     OW86849   9.265   0.687   3.853 -0.0487 -0.2474 -0.0056
27496SOL    HW186850   9.241   0.597   3.872  0.1177 -0.1790  0.5530
27496SOL    HW286851   9.249   0.734   3.935  0.7380  0.0455 -0.0068
27497SOL     OW86852   9.468   2.677   4.668 -0.2345  0.1607  0.0694
27497SOL    HW186853   9.381   2.686   4.630  0.0740  2.1570 -0.2769
27497SOL    HW286854   9.457   2.704   4.759 -0.1459 -0.4256  0.2537
27498SOL     OW86855   8.300   4.601   1.579 -0.2040 -0.4825  0.3704
27498SOL    HW186856   8.217   4.598   1.628  1.1742  0.9485  2.9571
27498SOL    HW286857   8.310   4.692   1.553  0.4420 -0.7119 -0.2316
27499SOL     OW86858  10.428   2.431   0.928 -0.4265  0.2853  0.3953
27499SOL    HW186859  10.425   2.339   0.902  1.4141  0.0065  1.0542
27499SOL    HW286860  10.359   2.472   0.877  0.3385 -1.0009 -1.7785
27500SOL     OW86861   5.755   1.953   1.322 -0.1636  0.2423  0.0460
27500SOL    HW186862   5.811   1.940   1.399 -0.3149  0.2531  0.1587
27500SOL    HW286863   5.760   2.047   1.304 -0.4174  0.2995  0.2657
27501SOL     OW86864   9.322   8.639   4.598 -0.1741  0.0718  0.0939
27501SOL    HW186865   9.248   8.600   4.643 -0.3917 -2.3931 -2.1257
27501SOL    HW286866   9.399   8.595   4.635  0.1123  1.5873  1.3883
27502SOL     OW86867  10.841   9.439   3.500 -0.1377 -0.0347  0.3897
27502SOL    HW186868  10.774   9.412   3.437  0.2570 -0.7123  0.2541
27502SOL    HW286869  10.868   9.358   3.543  0.8625  0.1713  0.1733
27503SOL     OW86870   9.128   9.327   5.714 -0.1237 -0.2327  0.2091
27503SOL    HW186871   9.079   9.370   5.784 -0.5901 -0.8670  0.2820
27503SOL    HW286872   9.061   9.282   5.662  0.0557  1.2963 -1.4334
27504SOL     OW86873  10.118   3.149   3.344  0.1033  0.2304 -0.3990
27504SOL    HW186874  10.076   3.064   3.336  0.6577 -0.0095 -0.7767
27504SOL    HW286875  10.179   3.154   3.271 -1.0892  1.6388 -1.3816
27505SOL     OW86876   5.888   6.507  10.148 -0.7753 -0.7398 -0.2051
27505SOL    HW186877   5.837   6.454  10.210  0.0848  0.0272  1.1898
27505SOL    HW286878   5.978   6.479  10.161 -0.4935 -0.0171 -0.5626
27506SOL     OW86879   2.533   1.777   3.760 -0.4172 -0.9956  0.6119
27506SOL    HW186880   2.446   1.799   3.793 -0.6565 -0.5757 -0.2595
27506SOL    HW286881   2.530   1.683   3.743 -0.2679 -1.2264  1.8233
27507SOL     OW86882   1.923   3.150  10.056  0.0501  0.6317  0.0281
27507SOL    HW186883   1.902   3.191   9.972 -0.6494  0.3346  0.0492
27507SOL    HW286884   1.858   3.187  10.117 -1.3112 -1.2830 -0.1725
27508SOL     OW86885   7.769   0.054  10.296 -0.1752 -0.8240  0.4639
27508SOL    HW186886   7.813   0.038  10.212  1.7161  1.0206  0.9983
27508SOL    HW286887   7.752  -0.033  10.331  1.0238 -1.6360 -0.8333
27509SOL     OW86888   9.817   6.399   1.973  0.2401  0.4761  0.0275
27509SOL    HW186889   9.725   6.416   1.997 -0.0180  0.0014 -0.5910
27509SOL    HW286890   9.815   6.387   1.878  0.3134 -3.0402  0.3340
27510SOL     OW86891   8.593   8.716   3.580  0.1257  0.1172 -0.3783
27510SOL    HW186892   8.533   8.654   3.538 -0.5855 -0.4169  1.3475
27510SOL    HW286893   8.539   8.760   3.645  1.3902  0.2726  0.5923
27511SOL     OW86894   5.345   4.779   4.020  0.0087 -0.0645  0.2544
27511SOL    HW186895   5.266   4.782   4.073 -0.7467 -1.0372 -0.7567
27511SOL    HW286896   5.337   4.697   3.970  2.8702 -1.5494  1.9704
27512SOL     OW86897   1.065   7.626   9.606  0.1466  0.7453  0.1360
27512SOL    HW186898   0.974   7.596   9.603  0.4459 -0.2362 -3.3784
27512SOL    HW286899   1.065   7.707   9.555  1.2076  0.8203  0.2465
27513SOL     OW86900   9.488   0.386   0.747  0.2979  0.0696  0.1995
27513SOL    HW186901   9.482   0.292   0.730 -0.3170  0.0549  0.4629
27513SOL    HW286902   9.490   0.427   0.661  0.6531 -0.1888  0.0846
27514SOL     OW86903   3.980   0.976   0.494  0.0323  0.8764 -0.5864
27514SOL    HW186904   3.933   1.046   0.451 -0.2269  0.4612 -0.9928
27514SOL    HW286905   4.072   0.992   0.473 -0.0673  0.8411 -1.0617
27515SOL     OW86906   7.116   2.219   2.662 -0.5520  0.0023  0.2813
27515SOL    HW186907   7.178   2.180   2.724 -0.2587  1.4450  0.9113
27515SOL    HW286908   7.090   2.145   2.606  2.5997 -0.5106 -0.7642
27516SOL     OW86909   9.976   0.435   2.725  0.4313  0.2483  1.2465
27516SOL    HW186910   9.946   0.347   2.750  2.9603 -0.4120  2.2650
27516SOL    HW286911  10.051   0.418   2.668 -2.2904  1.7679 -3.3196
27517SOL     OW86912   9.883   4.625   6.501  0.2877  0.2478  0.0622
27517SOL    HW186913   9.945   4.582   6.442 -0.4737  1.6084 -1.8339
27517SOL    HW286914   9.815   4.559   6.515 -0.2384  0.3105 -1.8001
27518SOL     OW86915   0.791   4.306   9.592 -0.0794  0.0630  0.4345
27518SOL    HW186916   0.840   4.225   9.603  0.6738  0.4265 -0.1047
27518SOL    HW286917   0.762   4.329   9.680 -0.4463 -0.8705  0.5700
27519SOL     OW86918   3.559   4.343   9.824 -0.4440 -0.2688  0.3645
27519SOL    HW186919   3.493   4.387   9.878 -1.9734  1.7650 -2.8420
27519SOL    HW286920   3.511   4.316   9.746  2.1973 -0.3063 -1.3564
27520SOL     OW86921   5.142   3.812   3.869 -0.6258 -0.2409 -0.5921
27520SOL    HW186922   5.193   3.771   3.939  0.0866 -0.0407 -0.9863
27520SOL    HW286923   5.085   3.874   3.915 -0.2540 -0.2009 -0.1703
27521SOL     OW86924   9.667   9.869   7.709  0.6470  0.6103 -0.3668
27521SOL    HW186925   9.668   9.951   7.757 -0.5805  0.7957 -0.6406
27521SOL    HW286926   9.575   9.843   7.705  0.6805  0.6447 -2.6486
27522SOL     OW86927   4.414   2.212   8.128  0.0753 -0.0489 -0.1728
27522SOL    HW186928   4.503   2.191   8.157  0.2933  0.5376 -0.3992
27522SOL    HW286929   4.361   2.206   8.207  0.4250  0.1862  0.0850
27523SOL     OW86930  11.037   6.977   5.365  0.0973 -0.2108  0.0436
27523SOL    HW186931  11.112   6.961   5.309  0.2671  0.0677  0.1924
27523SOL    HW286932  10.970   7.011   5.305  0.5203  0.7980  0.1261
27524SOL     OW86933   7.445   7.859  10.444 -0.2057 -0.2551  0.1538
27524SOL    HW186934   7.388   7.877  10.369 -1.5944  2.2721  1.6534
27524SOL    HW286935   7.398   7.898  10.519  1.3923 -2.1084  2.2525
27525SOL     OW86936   4.944   7.605   1.609 -0.2261 -0.5732 -0.5902
27525SOL    HW186937   4.889   7.619   1.532  0.1029 -0.9277 -0.8978
27525SOL    HW286938   4.962   7.692   1.643 -0.3246 -0.4104 -0.9527
27526SOL     OW86939   3.099   3.964   8.669 -0.7724 -0.5195 -0.1985
27526SOL    HW186940   3.170   3.975   8.732  1.7999  1.5116 -3.1248
27526SOL    HW286941   3.027   4.017   8.704  0.8083  1.0853  0.7710
27527SOL     OW86942   5.221   5.693   3.080 -0.3037 -0.3103 -0.1705
27527SOL    HW186943   5.219   5.696   3.176  0.5019  0.0866 -0.1549
27527SOL    HW286944   5.288   5.628   3.059 -0.9420 -0.8794 -0.4739
27528SOL     OW86945   6.736   9.868   2.559  0.2792 -0.0427  0.7717
27528SOL    HW186946   6.663   9.818   2.523 -0.1147  1.4053 -0.5079
27528SOL    HW286947   6.709   9.888   2.649 -0.0381 -1.1538  0.9354
27529SOL     OW86948   6.726   1.232  10.672  0.2890 -0.1283 -0.0553
27529SOL    HW186949   6.794   1.271  10.726  0.9800 -1.5222  0.1062
27529SOL    HW286950   6.645   1.272  10.704  0.9006  0.6751  0.5342
27530SOL     OW86951   8.284   3.300   5.083 -0.1004 -0.2207 -0.5901
27530SOL    HW186952   8.208   3.297   5.141  0.2674 -0.5459 -0.1074
27530SOL    HW286953   8.255   3.259   5.002 -0.3512 -0.6439 -0.2937
27531SOL     OW86954   1.725   0.836   6.199 -0.2451 -0.4508 -0.2828
27531SOL    HW186955   1.723   0.929   6.175 -2.6292 -0.0163  1.2913
27531SOL    HW286956   1.672   0.792   6.132 -1.9236 -0.1263  0.7847
27532SOL     OW86957   0.716   4.208   9.127 -0.0764 -0.2599 -0.6312
27532SOL    HW186958   0.728   4.167   9.041 -2.1937 -0.6794 -0.7761
27532SOL    HW286959   0.789   4.175   9.180  0.8787 -0.5231 -2.0553
27533SOL     OW86960   9.941   0.901   0.813  0.3478 -0.6245  0.5232
27533SOL    HW186961   9.934   0.811   0.845 -1.6163  0.2354  2.7898
27533SOL    HW286962  10.010   0.940   0.867 -0.4862 -0.1522  1.2816
27534SOL     OW86963   2.607   3.606   9.242  0.8067  0.1475  0.1682
27534SOL    HW186964   2.597   3.573   9.331  0.3964 -0.6353 -0.1537
27534SOL    HW286965   2.564   3.540   9.187 -0.2615  1.3526 -0.4952
27535SOL     OW86966   7.933   7.637  10.335  0.5508  0.2584 -0.0274
27535SOL    HW186967   7.839   7.641  10.320  0.4780 -0.2248  0.2878
27535SOL    HW286968   7.957   7.546  10.317  1.3091  0.8069 -2.0888
27536SOL     OW86969   0.271  10.456   1.654  0.3638  0.0977  0.0855
27536SOL    HW186970   0.230  10.427   1.573  1.7937 -1.8071 -0.0193
27536SOL    HW286971   0.203  10.448   1.720 -1.6841  4.1484 -1.1905
27537SOL     OW86972   6.560   4.829   1.963  0.0138  0.3351 -0.3403
27537SOL    HW186973   6.465   4.832   1.958  0.0358  1.1900 -0.5408
27537SOL    HW286974   6.580   4.743   1.998 -0.7787 -0.3359 -1.4796
27538SOL     OW86975   0.674   7.258   9.027  0.6419 -0.1153 -0.3758
27538SOL    HW186976   0.708   7.346   9.042  2.8479 -1.0925  0.6850
27538SOL    HW286977   0.747   7.200   9.048 -0.9925 -2.2435 -0.2845
27539SOL     OW86978   7.754   8.130   3.691  0.0469  0.0060  0.0861
27539SOL    HW186979   7.748   8.147   3.597 -0.3193  2.3694  0.4915
27539SOL    HW286980   7.664   8.123   3.721 -0.0229  2.6448  0.7495
27540SOL     OW86981   5.377  10.738   9.781  0.0038  0.1734 -0.0571
27540SOL    HW186982   5.302  10.742   9.841 -1.2010  0.1004 -1.4850
27540SOL    HW286983   5.360  10.662   9.726  2.1437 -1.0032  0.7885
27541SOL     OW86984   6.948   5.590  10.145 -0.2517 -0.1050  0.5030
27541SOL    HW186985   6.967   5.602  10.052 -0.3122  0.0954  0.5172
27541SOL    HW286986   7.032   5.566  10.184 -0.1237  0.2931  0.4793
27542SOL     OW86987   9.699   1.736   3.029 -0.0206 -0.1501 -0.3496
27542SOL    HW186988   9.678   1.733   2.935 -0.4854 -1.6900 -0.2202
27542SOL    HW286989   9.778   1.682   3.037 -1.0923 -1.6961  0.3808
27543SOL     OW86990   3.494   3.573   3.217  0.5574  0.3938 -0.4127
27543SOL    HW186991   3.519   3.632   3.288 -0.8831  1.5664 -0.8251
27543SOL    HW286992   3.403   3.551   3.235  0.8081 -1.0319 -0.7591
27544SOL     OW86993   7.191  10.339   8.443  0.2592  0.2828  0.1599
27544SOL    HW186994   7.177  10.337   8.349  2.9274  0.5501 -0.3388
27544SOL    HW286995   7.179  10.431   8.468 -2.5978 -0.1258  0.5491
27545SOL     OW86996   5.680   7.747  10.159  0.2676 -0.1284  0.4873
27545SOL    HW186997   5.740   7.678  10.133  0.4398  0.1674  0.0880
27545SOL    HW286998   5.609   7.743  10.095 -0.5502 -0.9871  1.4125
27546SOL     OW86999  10.246   1.060   3.034 -0.5628  0.2764 -0.3224
27546SOL    HW187000  10.197   0.984   3.063 -1.5452  1.2765  0.7099
27546SOL    HW287001  10.218   1.131   3.091 -1.2549  1.9349 -2.5715
27547SOL     OW87002   7.725   0.521   4.473 -0.1142 -0.3819  0.5607
27547SOL    HW187003   7.632   0.535   4.489  0.1388  0.2162  1.6309
27547SOL    HW287004   7.767   0.539   4.558  1.0612  0.2478 -0.1288
27548SOL     OW87005   2.544   0.708   6.091  0.4184 -0.0777  0.3698
27548SOL    HW187006   2.453   0.708   6.121  0.7415  0.2520  1.3942
27548SOL    HW287007   2.538   0.701   5.996 -0.6461 -1.2730  0.5045
27549SOL     OW87008   6.966   0.093   5.719  0.3228  0.1696  0.6660
27549SOL    HW187009   6.881   0.117   5.757  0.5828  1.1665  0.6541
27549SOL    HW287010   6.966  -0.003   5.719 -0.2728  0.1482  1.8319
27550SOL     OW87011   7.283   7.255   2.656 -0.1666  0.6138 -0.2226
27550SOL    HW187012   7.249   7.226   2.571  0.4555 -0.0181 -0.2735
27550SOL    HW287013   7.372   7.285   2.636 -0.0690  0.5906  0.1803
27551SOL     OW87014   8.249  10.552   7.708  0.3752 -0.2133  0.1721
27551SOL    HW187015   8.156  10.572   7.697  0.4780 -0.0656 -0.4374
27551SOL    HW287016   8.250  10.477   7.768 -0.0798  0.5492  1.1575
27552SOL     OW87017   9.265   6.124  10.359 -0.1130  0.5299 -0.2008
27552SOL    HW187018   9.328   6.085  10.419 -0.9811  0.9483  1.0323
27552SOL    HW287019   9.184   6.075  10.375 -0.2476  0.3344 -1.3898
27553SOL     OW87020   5.644   7.452   3.052 -0.6249  0.0166 -0.6010
27553SOL    HW187021   5.578   7.410   3.108  0.3615 -0.2777  0.3797
27553SOL    HW287022   5.593   7.512   2.997 -1.4898  2.1133  2.2140
27554SOL     OW87023   4.488   8.848   3.058  0.0294  0.5696  0.0252
27554SOL    HW187024   4.447   8.762   3.067 -0.7206  1.0328  1.2993
27554SOL    HW287025   4.505   8.875   3.148 -1.4048  2.5258 -0.2456
27555SOL     OW87026  10.213   7.611  10.522 -0.0586  0.0697  0.0645
27555SOL    HW187027  10.244   7.597  10.432  1.1864 -0.8937  0.5995
27555SOL    HW287028  10.265   7.549  10.574  1.1079  2.3519  1.8028
27556SOL     OW87029   9.560   4.603  10.471  0.3956  0.1863  0.0032
27556SOL    HW187030   9.627   4.561  10.416 -0.8422 -1.1461 -0.5635
27556SOL    HW287031   9.492   4.629  10.409 -0.1232  0.4739  0.6884
27557SOL     OW87032  10.516   8.192   9.692  0.2092 -0.3365  0.3884
27557SOL    HW187033  10.569   8.161   9.765  0.9544  0.4116  0.1839
27557SOL    HW287034  10.578   8.202   9.620 -0.2181  0.4398  0.1119
27558SOL     OW87035   8.621   6.062   8.228 -0.5033 -0.2589  0.1751
27558SOL    HW187036   8.638   6.108   8.146 -0.2619 -1.1802 -0.3073
27558SOL    HW287037   8.657   5.975   8.215  1.6377  0.2482  2.0974
27559SOL     OW87038   4.921   4.313  10.089 -0.0304  0.2680 -0.4762
27559SOL    HW187039   5.017   4.311  10.087  0.0310 -1.8757  0.9045
27559SOL    HW287040   4.897   4.243  10.150 -2.4143  2.8697  1.8740
27560SOL     OW87041   8.650   9.829  11.089 -0.1671  0.3947 -0.5313
27560SOL    HW187042   8.639   9.842  11.183  0.6984 -3.1457  0.1837
27560SOL    HW287043   8.566   9.794  11.059  0.8351 -2.7067 -0.0677
27561SOL     OW87044   1.493   3.797  10.153 -0.1555 -0.8312 -0.3304
27561SOL    HW187045   1.557   3.831  10.091 -0.6826  1.8836  0.4932
27561SOL    HW287046   1.409   3.805  10.107 -0.4874  0.7120  0.5013
27562SOL     OW87047   8.676   5.134   7.194  0.4478  0.7119  0.3891
27562SOL    HW187048   8.736   5.071   7.157  2.1480  1.8780  1.0313
27562SOL    HW287049   8.722   5.218   7.188 -0.8694  1.5606  1.4278
27563SOL     OW87050   7.690   9.134   3.160  0.2084 -0.0333 -0.3217
27563SOL    HW187051   7.644   9.103   3.082  0.7253 -0.8067 -0.3336
27563SOL    HW287052   7.734   9.214   3.133 -0.7540  0.4684 -0.4310
27564SOL     OW87053   5.952   2.822   7.373  0.1466  0.8011 -0.0845
27564SOL    HW187054   6.044   2.840   7.396  0.0966 -1.1151  1.9306
27564SOL    HW287055   5.902   2.872   7.438 -0.1258 -0.4873  0.7311
27565SOL     OW87056   9.545  10.549   1.911  0.5101 -0.2646  1.0362
27565SOL    HW187057   9.583  10.600   1.983  0.9238  1.0820 -0.0862
27565SOL    HW287058   9.599  10.570   1.835 -0.2269 -1.2425  0.2005
27566SOL     OW87059   0.515   6.390   9.713  0.7432  0.0545  0.3899
27566SOL    HW187060   0.516   6.485   9.709 -0.1982  0.0252 -1.2577
27566SOL    HW287061   0.587   6.362   9.657  1.2740 -0.2239  1.1848
27567SOL     OW87062   5.059   7.220   9.548 -0.7299  0.1300 -0.0627
27567SOL    HW187063   4.981   7.164   9.552 -0.8730  0.3883  2.2290
27567SOL    HW287064   5.024   7.309   9.544 -0.5042  0.1612 -2.2701
27568SOL     OW87065  10.250   6.907   8.018 -0.5956 -0.2122 -0.1284
27568SOL    HW187066  10.343   6.909   7.994  0.3624 -0.1203  3.1553
27568SOL    HW287067  10.235   6.816   8.043 -1.9595 -0.6546 -2.3181
27569SOL     OW87068  10.627   9.958   4.655  0.0104  0.0618 -0.5353
27569SOL    HW187069  10.637   9.864   4.672 -1.7258  0.1174  1.0843
27569SOL    HW287070  10.582   9.963   4.570 -0.5646 -0.6013 -0.2761
27570SOL     OW87071   5.565   3.323   0.838  0.0753  0.1481 -0.0241
27570SOL    HW187072   5.479   3.281   0.844  0.1901 -0.2488 -1.0374
27570SOL    HW287073   5.556   3.385   0.765  0.3567  0.8270  0.5020
27571SOL     OW87074   2.988   6.670   9.021  0.2524  0.3406 -0.3193
27571SOL    HW187075   2.948   6.756   9.035  1.4773  0.5391  2.5372
27571SOL    HW287076   3.061   6.688   8.962  1.6314  1.6974  1.6820
27572SOL     OW87077   1.050   4.070   4.676  0.5572  0.3053 -0.0642
27572SOL    HW187078   0.957   4.050   4.664  0.4397 -2.0478  3.2555
27572SOL    HW287079   1.094   3.986   4.664  1.8492  0.7457  1.2967
27573SOL     OW87080   1.770   6.190   5.554 -0.6214 -0.2094 -0.1490
27573SOL    HW187081   1.758   6.095   5.560 -0.6997 -0.3536 -1.9296
27573SOL    HW287082   1.854   6.200   5.509  0.5047  0.6308  2.0034
27574SOL     OW87083   9.460   5.613   6.797  0.4317 -0.3182  0.3679
27574SOL    HW187084   9.517   5.667   6.742 -2.5135  0.8841 -1.7716
27574SOL    HW287085   9.407   5.676   6.846 -1.6301 -1.2444 -0.5684
27575SOL     OW87086   9.352  10.806   7.920  0.4105  0.1730  0.1078
27575SOL    HW187087   9.299  10.802   7.840  0.9400 -0.0093 -0.2350
27575SOL    HW287088   9.290  10.786   7.990  0.2518 -1.1233 -0.3848
27576SOL     OW87089   9.998   4.985   9.357 -0.4319  0.2361 -0.7042
27576SOL    HW187090  10.004   4.890   9.359  1.0069  0.2867 -1.2926
27576SOL    HW287091   9.927   5.006   9.417  1.1687 -1.0521  1.7780
27577SOL     OW87092   3.197   9.547   8.717  0.0146 -0.5796 -0.4256
27577SOL    HW187093   3.277   9.524   8.764  1.1175  0.9312 -1.4534
27577SOL    HW287094   3.143   9.592   8.781  0.2734 -1.0216  0.1092
27578SOL     OW87095   6.155   6.624   6.895 -0.5426 -0.3312 -0.1496
27578SOL    HW187096   6.169   6.693   6.830  0.8316 -0.3425  0.1006
27578SOL    HW287097   6.157   6.670   6.980  0.0687 -0.6329  0.0012
27579SOL     OW87098   1.713   8.051   1.897  0.3935 -0.3114  0.2963
27579SOL    HW187099   1.648   8.120   1.886  0.8757  0.0823 -0.1332
27579SOL    HW287100   1.673   7.973   1.858 -0.6833 -0.6152  1.9468
27580SOL     OW87101   0.237   2.849   9.644  0.4336 -0.1329  0.5462
27580SOL    HW187102   0.212   2.850   9.552 -0.5744 -2.3903  0.7184
27580SOL    HW287103   0.159   2.816   9.689  1.0755  0.4520  2.1546
27581SOL     OW87104   9.484   0.991   9.840  0.3836 -0.6760 -0.1265
27581SOL    HW187105   9.506   0.997   9.747  0.1668  1.1454 -0.0812
27581SOL    HW287106   9.428   1.066   9.857  0.7218 -0.7705  1.5753
27582SOL     OW87107   2.591   8.653   6.474  0.1751 -0.4696  0.0211
27582SOL    HW187108   2.532   8.586   6.440  0.8529 -0.6500 -0.8350
27582SOL    HW287109   2.568   8.732   6.425 -0.6076 -0.0671  1.0135
27583SOL     OW87110   5.931   3.971   1.351  0.2103  0.2396  0.1498
27583SOL    HW187111   5.996   3.901   1.361  0.9008  0.8534 -0.0215
27583SOL    HW287112   5.851   3.924   1.325  1.2056 -0.3337 -2.1737
27584SOL     OW87113   9.222   9.821  10.318 -0.2462  0.5631  0.3871
27584SOL    HW187114   9.234   9.824  10.413  0.2509 -1.0706  0.4065
27584SOL    HW287115   9.276   9.747  10.289 -0.1121  1.2479 -1.2196
27585SOL     OW87116   7.199   1.968   8.045  0.2192 -0.2191 -0.0478
27585SOL    HW187117   7.215   1.873   8.044 -0.7355 -0.3869 -0.7033
27585SOL    HW287118   7.220   1.996   7.955  0.2538  0.1491  0.0739
27586SOL     OW87119   9.555   5.816   7.606 -0.2164 -0.1847 -0.5292
27586SOL    HW187120   9.596   5.730   7.613  1.5384  0.7365  1.8554
27586SOL    HW287121   9.615   5.867   7.550 -0.1356  0.0485 -0.2376
27587SOL     OW87122   0.850   9.359   7.324  1.2058 -0.1394  0.3149
27587SOL    HW187123   0.900   9.414   7.384  0.5945 -0.7306  1.4093
27587SOL    HW287124   0.877   9.270   7.346  2.5232 -0.2884 -1.7368
27588SOL     OW87125   3.291   0.448   7.866  0.3320  0.8877 -0.2044
27588SOL    HW187126   3.347   0.390   7.815 -0.3368  0.2556 -0.2397
27588SOL    HW287127   3.321   0.536   7.844  1.4396  0.5633 -0.0654
27589SOL     OW87128   6.422   0.742   7.597 -0.4929  0.0793 -0.2586
27589SOL    HW187129   6.402   0.661   7.644 -2.0354 -0.0043 -0.9964
27589SOL    HW287130   6.507   0.726   7.556 -0.2000 -0.6886  0.6146
27590SOL     OW87131   1.541   6.982   4.110 -0.3455 -0.3867 -0.1802
27590SOL    HW187132   1.591   7.004   4.188 -0.4763 -1.3424  0.1878
27590SOL    HW287133   1.586   7.028   4.038 -0.3461  0.6667  0.4675
27591SOL     OW87134   1.819   4.332   0.826 -0.1380  0.4931 -0.3043
27591SOL    HW187135   1.752   4.300   0.887 -0.6071 -0.0249 -1.0614
27591SOL    HW287136   1.902   4.300   0.862 -0.6296 -2.3784 -1.4061
27592SOL     OW87137   3.801   2.422  10.056 -0.3257  0.0950 -0.2373
27592SOL    HW187138   3.791   2.511  10.090  2.2639  2.1227 -4.0242
27592SOL    HW287139   3.878   2.388  10.102 -0.1579  0.5828 -0.1425
27593SOL     OW87140   4.595   7.772   9.677  0.1129 -0.3427  0.9046
27593SOL    HW187141   4.630   7.682   9.678  2.0117  0.3410  0.8529
27593SOL    HW287142   4.502   7.761   9.658  0.2752 -2.3100  0.9981
27594SOL     OW87143   4.550   6.333   9.227 -0.6176 -0.7107  0.1071
27594SOL    HW187144   4.476   6.392   9.241 -1.8358 -1.9275 -0.8391
27594SOL    HW287145   4.530   6.257   9.282  1.0804 -0.1785  1.5595
27595SOL     OW87146   9.677  10.720   5.192 -0.2442 -0.1916 -0.4867
27595SOL    HW187147   9.733  10.796   5.202  2.1306 -1.8896 -0.0242
27595SOL    HW287148   9.645  10.725   5.102 -0.3090  1.4265 -0.3945
27596SOL     OW87149   4.044   7.288   5.510  0.5233  0.0218 -0.1928
27596SOL    HW187150   4.065   7.380   5.492  0.0220  0.5898  1.9170
27596SOL    HW287151   4.128   7.248   5.533  0.3716  0.6115  1.4615
27597SOL     OW87152   2.214   9.010   8.579 -0.4143 -0.4878 -0.4026
27597SOL    HW187153   2.135   9.032   8.529  0.6365  1.8477 -1.1520
27597SOL    HW287154   2.193   9.035   8.669  0.3275  2.7882 -1.0391
27598SOL     OW87155   0.470   9.277   8.628 -0.6819 -0.5537  0.0232
27598SOL    HW187156   0.380   9.249   8.609 -1.3914  0.3896  1.7648
27598SOL    HW287157   0.482   9.355   8.576 -1.2582 -0.1195  0.5153
27599SOL     OW87158   2.919   4.753   9.743  0.3641  0.6293 -0.2228
27599SOL    HW187159   2.917   4.785   9.833  1.5587  1.1422 -0.3700
27599SOL    HW287160   2.865   4.816   9.694 -1.2504 -0.2816  0.2935
27600SOL     OW87161   0.026   2.625  10.921 -0.0648 -0.1615  0.7160
27600SOL    HW187162   0.006   2.532  10.928 -1.1758 -0.0829 -0.7522
27600SOL    HW287163  -0.032   2.668  10.984 -1.6384 -0.2755 -0.5983
27601SOL     OW87164   6.172   1.910   8.984 -0.1013  0.0286 -0.4380
27601SOL    HW187165   6.243   1.898   8.922 -0.1348  0.3257 -0.5364
27601SOL    HW287166   6.117   1.978   8.945  0.4224  0.9569  0.3876
27602SOL     OW87167   5.264   8.541   8.276 -0.4263  0.7723  0.6773
27602SOL    HW187168   5.273   8.474   8.207 -0.4725  2.2219 -0.7969
27602SOL    HW287169   5.185   8.590   8.251 -0.1398  1.6602  1.4711
27603SOL     OW87170   7.200   3.381   9.953 -0.1007 -0.3441  0.6726
27603SOL    HW187171   7.127   3.321   9.970  0.4212 -2.3335 -3.0879
27603SOL    HW287172   7.165   3.467   9.974 -2.3010 -1.5307  2.3553
27604SOL     OW87173   1.428  10.291   4.210 -0.1410  0.0595  0.4121
27604SOL    HW187174   1.488  10.220   4.232 -1.2728 -1.3400 -0.7701
27604SOL    HW287175   1.478  10.346   4.149  0.0482 -0.9225 -0.3369
27605SOL     OW87176   1.406   3.470   1.732 -0.6337 -0.3593  0.5288
27605SOL    HW187177   1.488   3.509   1.702 -0.1997 -1.0771  0.7469
27605SOL    HW287178   1.388   3.512   1.816 -0.5321 -0.1429  0.4422
27606SOL     OW87179   5.145   9.453   2.459 -0.0842  0.8801  0.2334
27606SOL    HW187180   5.220   9.413   2.503  0.1553 -0.4653 -1.3163
27606SOL    HW287181   5.083   9.472   2.530 -0.4445 -2.7290  1.0911
27607SOL     OW87182  10.484   3.854   9.194 -0.1981  0.0986  0.3439
27607SOL    HW187183  10.536   3.903   9.131 -0.1268 -0.1625  0.1992
27607SOL    HW287184  10.393   3.877   9.173 -0.1819 -0.0909  0.0584
27608SOL     OW87185   7.356   8.128   8.872 -0.0492 -0.2572  0.2820
27608SOL    HW187186   7.262   8.121   8.855 -0.1089  1.3632 -0.2475
27608SOL    HW287187   7.388   8.038   8.868 -1.3874 -0.7216 -0.7386
27609SOL     OW87188  10.637   5.983   2.036 -0.4433  0.2974  0.2859
27609SOL    HW187189  10.553   6.020   2.009 -0.1453 -0.8436 -2.6932
27609SOL    HW287190  10.635   5.984   2.131 -2.8559  2.4099  0.3170
27610SOL     OW87191   8.473   7.715   8.731 -0.6256 -0.3363 -0.2387
27610SOL    HW187192   8.499   7.624   8.720 -0.0207 -0.0021 -1.8337
27610SOL    HW287193   8.533   7.750   8.797 -1.0994 -1.1565  0.6488
27611SOL     OW87194  10.593   8.690   2.264 -0.2793  0.2940  0.0246
27611SOL    HW187195  10.548   8.700   2.348 -1.2805 -0.0865 -0.4615
27611SOL    HW287196  10.585   8.598   2.242 -1.8702  0.7424 -1.4898
27612SOL     OW87197   7.079   7.182  10.538  0.0781  0.0626  0.2058
27612SOL    HW187198   7.099   7.270  10.570 -0.6827  0.2927  0.0580
27612SOL    HW287199   6.987   7.185  10.512 -0.2420 -1.0261  1.0866
27613SOL     OW87200   0.212   0.670   4.970 -0.1796  0.0559  0.1393
27613SOL    HW187201   0.229   0.737   4.904 -0.3868  2.1929  2.1209
27613SOL    HW287202   0.292   0.666   5.022  0.0876 -1.8033 -0.3290
27614SOL     OW87203   3.233   8.129   6.210  0.2033  0.2422  0.0296
27614SOL    HW187204   3.201   8.159   6.295  1.2081 -1.9104  1.2272
27614SOL    HW287205   3.236   8.209   6.157 -4.7555  1.0420  0.4485
27615SOL     OW87206   8.130  10.946   3.776 -0.2188 -0.0966  0.6528
27615SOL    HW187207   8.188  10.999   3.721 -0.1067 -0.1514  0.7178
27615SOL    HW287208   8.067  10.909   3.715 -0.2278  0.0196  0.5911
27616SOL     OW87209   2.183   9.286   1.247 -0.4925 -0.1220 -0.4419
27616SOL    HW187210   2.101   9.306   1.202 -0.8972 -2.2751 -0.7694
27616SOL    HW287211   2.214   9.204   1.207  0.2975 -0.9140  1.6304
27617SOL     OW87212   2.791   1.967   5.103  1.0586  0.1342 -0.5043
27617SOL    HW187213   2.786   2.051   5.149  0.3569 -0.5336  0.7024
27617SOL    HW287214   2.704   1.928   5.116  2.2169 -2.0261  1.4847
27618SOL     OW87215   7.653   0.726   6.402  0.1350  0.1450  0.2167
27618SOL    HW187216   7.624   0.786   6.333  0.6080  0.3828  0.2150
27618SOL    HW287217   7.739   0.695   6.372  1.0881  1.4919  1.4191
27619SOL     OW87218   8.050   8.221   6.822 -0.0238 -0.5389  0.0175
27619SOL    HW187219   8.052   8.135   6.863 -1.3506 -0.6359 -0.0681
27619SOL    HW287220   8.043   8.203   6.728  2.0493 -0.3165 -0.2173
27620SOL     OW87221   9.496   9.064   9.102 -0.1530 -0.1796 -0.0764
27620SOL    HW187222   9.530   9.060   9.191  0.1291  1.8004 -0.0531
27620SOL    HW287223   9.574   9.052   9.046  0.1180  1.2833 -0.0321
27621SOL     OW87224   9.684   2.721   9.861 -0.1134  0.1166 -0.3090
27621SOL    HW187225   9.688   2.660   9.787  1.0458 -0.9923  0.6366
27621SOL    HW287226   9.602   2.769   9.848  0.0654 -0.0369 -2.3151
27622SOL     OW87227   2.113   3.154   2.618  0.2417 -0.1962 -0.5042
27622SOL    HW187228   2.165   3.106   2.554  0.7009 -1.0279  0.4658
27622SOL    HW287229   2.156   3.137   2.702 -2.0509 -1.6115  0.4744
27623SOL     OW87230   0.366   6.252   0.731 -0.1322  0.2099  0.3088
27623SOL    HW187231   0.429   6.321   0.750  0.2643 -0.6367  2.3811
27623SOL    HW287232   0.420   6.178   0.702 -0.2961 -0.0296  0.6047
27624SOL     OW87233   2.677   6.920   0.418  0.3379 -0.0599  0.1592
27624SOL    HW187234   2.639   6.946   0.335  1.2317  0.4098 -0.1157
27624SOL    HW287235   2.607   6.933   0.482 -0.1001  0.3394 -0.3924
27625SOL     OW87236   8.962  10.363   4.707 -0.0377 -0.3497 -0.5461
27625SOL    HW187237   9.006  10.405   4.632  2.2953 -0.5441  0.6168
27625SOL    HW287238   8.953  10.271   4.681  0.9414 -0.4587 -0.5242
27626SOL     OW87239   2.236   5.402   4.221  0.2757 -0.1256 -0.1702
27626SOL    HW187240   2.172   5.335   4.199  0.7304 -0.1332 -1.5068
27626SOL    HW287241   2.223   5.471   4.156  1.4111  0.0208 -0.2606
27627SOL     OW87242  10.029  10.136   1.217 -0.5800  0.1643 -0.3293
27627SOL    HW187243  10.034  10.219   1.264 -0.9175 -0.6308  1.1824
27627SOL    HW287244   9.994  10.074   1.281 -0.6017 -1.0881 -1.4998
27628SOL     OW87245   6.310   4.772   5.253 -0.7859  0.5710  0.2504
27628SOL    HW187246   6.248   4.722   5.306 -1.1864 -0.9626 -1.5266
27628SOL    HW287247   6.356   4.705   5.200 -0.5206  1.9778 -1.4069
27629SOL     OW87248   3.807   4.482   1.194 -0.1115  0.0071  0.3153
27629SOL    HW187249   3.835   4.392   1.180  2.2386  0.6811  0.1635
27629SOL    HW287250   3.866   4.534   1.140  0.8479  1.8290  2.9188
27630SOL     OW87251   2.464   8.806   7.856 -0.1982  0.6497 -0.1815
27630SOL    HW187252   2.507   8.866   7.917  1.3826  0.3182 -0.9353
27630SOL    HW287253   2.535   8.768   7.805 -1.2529 -1.0855 -0.4354
27631SOL     OW87254   4.177   6.855  10.584  1.3529  0.4474  0.1238
27631SOL    HW187255   4.264   6.848  10.544  0.1903 -1.2204 -2.3047
27631SOL    HW287256   4.138   6.932  10.542  1.9362  1.8332  1.9743
27632SOL     OW87257   7.900   2.314   3.577  0.0770  0.3210 -0.3147
27632SOL    HW187258   7.957   2.335   3.651  0.6668 -2.6594  0.2111
27632SOL    HW287259   7.956   2.323   3.500  0.5751 -0.1509 -0.0192
27633SOL     OW87260   5.493  10.678   3.708 -0.1265  0.1957  0.4111
27633SOL    HW187261   5.569  10.650   3.760  1.3800  1.1920 -1.1231
27633SOL    HW287262   5.424  10.616   3.731  1.1038 -0.6926  1.9551
27634SOL     OW87263  10.974   9.294   3.059  0.2798  0.0155  0.0257
27634SOL    HW187264  10.965   9.217   3.115 -2.3817 -1.0236 -1.6044
27634SOL    HW287265  10.911   9.357   3.094 -0.5746 -0.2025 -1.0868
27635SOL     OW87266   2.917   5.653   5.839  0.2314 -0.4755  0.0655
27635SOL    HW187267   2.842   5.644   5.779  0.2366 -2.4491  0.3174
27635SOL    HW287268   2.984   5.595   5.802  1.5444  0.9879  0.0512
27636SOL     OW87269   3.591   9.931   4.187 -0.2224  0.0722  0.3169
27636SOL    HW187270   3.582  10.019   4.223  0.5376 -0.3293  1.5400
27636SOL    HW287271   3.604   9.875   4.263  1.8044 -0.7697 -0.5758
27637SOL     OW87272   1.374   2.551   4.150 -0.1788 -0.4858  0.3498
27637SOL    HW187273   1.453   2.501   4.172  1.7913  0.5136 -3.4318
27637SOL    HW287274   1.322   2.491   4.097 -1.5463 -0.7976  1.9707
27638SOL     OW87275   6.304   7.021   3.012  0.5251 -0.2949 -0.2384
27638SOL    HW187276   6.307   7.005   3.107 -1.8580 -0.3582 -0.1000
27638SOL    HW287277   6.242   7.093   3.003 -1.7292 -2.2923 -1.8897
27639SOL     OW87278   5.829   0.625  10.128 -0.4434 -0.4443  0.2386
27639SOL    HW187279   5.863   0.610  10.216  1.2923 -0.5732 -0.3964
27639SOL    HW287280   5.735   0.610  10.135 -0.1295 -2.0427  1.7384
27640SOL     OW87281   4.867   8.044   9.344  0.2197  0.3171 -0.5806
27640SOL    HW187282   4.796   8.108   9.349 -0.6014 -0.6782  1.4061
27640SOL    HW287283   4.833   7.966   9.386  1.2181 -1.5023 -2.8840
27641SOL     OW87284   9.224   9.628   7.625  0.2636 -0.0682  0.5606
27641SOL    HW187285   9.131   9.646   7.606  0.3819 -1.5872 -1.9158
27641SOL    HW287286   9.227   9.534   7.641  1.4689 -0.1592 -0.1378
27642SOL     OW87287   8.257   1.058  10.956  0.2278 -0.0716  0.0589
27642SOL    HW187288   8.323   1.086  10.894  0.5871  2.0510  1.2890
27642SOL    HW287289   8.187   1.022  10.902  1.6734 -0.8636 -1.3651
27643SOL     OW87290   9.977   3.290   2.092  0.4761  0.3365  0.7818
27643SOL    HW187291  10.000   3.372   2.137 -1.7100  0.3764  1.9330
27643SOL    HW287292   9.947   3.232   2.162 -1.6955 -0.0960 -0.4234
27644SOL     OW87293  10.205   8.561  10.741 -0.3896  0.1396 -1.0258
27644SOL    HW187294  10.170   8.633  10.793 -1.4461 -0.6932 -0.5580
27644SOL    HW287295  10.210   8.597  10.652  0.3287  1.1952 -0.5814
27645SOL     OW87296   6.039   8.060   7.571  0.4679  0.3176  0.4187
27645SOL    HW187297   6.000   7.973   7.575 -0.5884  0.7884  0.5053
27645SOL    HW287298   5.966   8.119   7.554  0.9294  1.3698  1.8782
27646SOL     OW87299   7.099   7.464   3.604 -0.1550 -0.0230 -0.0429
27646SOL    HW187300   7.122   7.372   3.599 -1.2280 -0.2940 -0.1129
27646SOL    HW287301   7.135   7.493   3.688 -1.0693 -0.8688  0.6579
27647SOL     OW87302   3.773   5.325   0.515 -0.1165 -0.0517 -0.1890
27647SOL    HW187303   3.834   5.302   0.585 -0.2184 -0.5544 -0.2567
27647SOL    HW287304   3.828   5.366   0.447 -0.1361  1.1734  0.5075
27648SOL     OW87305   8.674   6.844   8.644  0.3018  0.6260 -0.0686
27648SOL    HW187306   8.616   6.906   8.600  0.9744  1.3658  0.0577
27648SOL    HW287307   8.722   6.897   8.707  1.0701  0.0242 -0.1348
27649SOL     OW87308   7.675   5.109   4.460  0.2696 -0.3923  0.7957
27649SOL    HW187309   7.704   5.144   4.376  0.8994 -2.3046  0.1637
27649SOL    HW287310   7.741   5.044   4.484  0.4841  0.5746  3.1481
27650SOL     OW87311   5.223   2.187   8.195 -0.0038 -0.5880 -0.2847
27650SOL    HW187312   5.156   2.121   8.212  0.9057 -0.8200  3.3957
27650SOL    HW287313   5.192   2.265   8.242  1.0365  0.1501 -0.7764
27651SOL     OW87314   0.516   6.377   0.079 -0.1575  0.4993 -0.1394
27651SOL    HW187315   0.476   6.360  -0.007  0.7127 -0.7763 -0.3326
27651SOL    HW287316   0.493   6.467   0.099 -2.6577  0.0249 -0.4738
27652SOL     OW87317   0.408   0.240   3.363  0.2305  0.4001  0.3491
27652SOL    HW187318   0.451   0.217   3.280  0.1303 -1.0354  0.6626
27652SOL    HW287319   0.458   0.193   3.429 -0.7824  0.0538  0.8960
27653SOL     OW87320   3.770   7.755   5.558  0.1143 -0.4469  0.2469
27653SOL    HW187321   3.848   7.778   5.507  0.9356  0.5034  1.8170
27653SOL    HW287322   3.719   7.836   5.561  0.5326 -0.2042  1.6255
27654SOL     OW87323   4.149   7.247   8.186 -0.0062  0.2092 -0.5196
27654SOL    HW187324   4.119   7.256   8.096 -1.3708 -2.7860 -0.4790
27654SOL    HW287325   4.073   7.213   8.233  0.3996  2.4192  2.0198
27655SOL     OW87326   9.900   1.075   5.693  0.6211 -0.4016  0.1387
27655SOL    HW187327   9.950   0.994   5.698  0.1601 -0.8196 -1.4254
27655SOL    HW287328   9.958   1.138   5.652  0.8935  0.0207  1.1303
27656SOL     OW87329   7.831   9.914   2.599 -0.2683 -0.2694  0.0810
27656SOL    HW187330   7.766   9.944   2.663 -2.1103  0.3349 -1.9664
27656SOL    HW287331   7.803   9.953   2.516  2.4155 -0.4599 -1.0106
27657SOL     OW87332   9.739  10.277   7.324  0.5996  0.1636 -0.5108
27657SOL    HW187333   9.723  10.370   7.341 -1.8550 -0.4227  0.7216
27657SOL    HW287334   9.685  10.231   7.388  3.0732 -2.1652  0.0901
27658SOL     OW87335   8.967   3.491   0.231  0.1485 -0.2337 -0.2910
27658SOL    HW187336   9.041   3.531   0.276  1.3770 -0.1877 -2.2674
27658SOL    HW287337   8.936   3.559   0.171 -0.0194 -1.0385 -1.1316
27659SOL     OW87338   4.429   8.003   7.133 -0.6470  0.0395 -0.6026
27659SOL    HW187339   4.411   8.042   7.218  2.7682  0.1491  0.2037
27659SOL    HW287340   4.424   7.909   7.147  1.4558 -0.0087  0.2503
27660SOL     OW87341   4.964  10.521   4.920  0.2974  0.2018 -0.2306
27660SOL    HW187342   4.918  10.456   4.867  0.1171  1.0941 -1.2249
27660SOL    HW287343   4.986  10.590   4.858  0.2574  1.2010  0.8319
27661SOL     OW87344   4.711   9.730   7.417 -0.3932 -0.0746 -0.2936
27661SOL    HW187345   4.642   9.698   7.476  0.3746 -1.8950 -0.2951
27661SOL    HW287346   4.663   9.764   7.341 -1.3327  0.6256  0.5756
27662SOL     OW87347   8.423   5.532   1.610 -0.3334 -0.0625  0.0955
27662SOL    HW187348   8.332   5.553   1.589  0.5837  2.1963 -2.2016
27662SOL    HW287349   8.453   5.607   1.661  0.2266 -0.8856  1.0104
27663SOL     OW87350   1.997   7.636   4.887  0.3798 -0.0016  0.3821
27663SOL    HW187351   2.030   7.646   4.798 -2.7292  1.6434 -0.7662
27663SOL    HW287352   1.973   7.543   4.894 -0.7334  0.1319 -1.1342
27664SOL     OW87353   1.173  10.952   3.781 -0.2845  0.7821 -0.2349
27664SOL    HW187354   1.237  10.952   3.709  2.0788  3.5905  1.6007
27664SOL    HW287355   1.167  10.860   3.808  0.6399  0.0157 -2.4137
27665SOL     OW87356   4.809   2.784   4.170  0.3165 -0.0135  0.2096
27665SOL    HW187357   4.860   2.863   4.186  0.9201 -0.1142 -1.0583
27665SOL    HW287358   4.835   2.724   4.240  0.4056  0.6413  0.7456
27666SOL     OW87359   0.918   5.463   4.069  0.2385 -0.1023 -0.2724
27666SOL    HW187360   0.984   5.486   4.134  1.6238  0.9883 -1.9864
27666SOL    HW287361   0.886   5.377   4.096  1.2293  0.0486  1.4607
27667SOL     OW87362   1.261   8.598   9.191  0.1940 -0.3019 -0.1290
27667SOL    HW187363   1.175   8.589   9.232  1.1499 -0.4529  1.9771
27667SOL    HW287364   1.313   8.529   9.231  1.3053 -0.2319 -1.3989
27668SOL     OW87365   9.939   1.610   2.952 -0.3257  0.6207  0.0312
27668SOL    HW187366   9.990   1.540   2.912  0.5977  0.3795  1.5654
27668SOL    HW287367   9.855   1.607   2.907  0.1062 -0.7079 -0.7337
27669SOL     OW87368   2.886   4.378   8.495  0.2253 -0.2479  0.1725
27669SOL    HW187369   2.847   4.310   8.441  1.6401 -0.9933  0.0405
27669SOL    HW287370   2.825   4.389   8.568 -1.3007  0.1940 -1.1080
27670SOL     OW87371   1.946   7.657   6.002  0.1680 -0.5766  0.4722
27670SOL    HW187372   1.893   7.588   5.961  0.0379 -1.2503  1.7256
27670SOL    HW287373   1.971   7.713   5.929  0.0589 -1.7988 -0.5598
27671SOL     OW87374   8.309   6.837   2.508  0.6162  0.7420  0.0285
27671SOL    HW187375   8.295   6.760   2.452 -1.9730  0.1015  1.4202
27671SOL    HW287376   8.355   6.899   2.451  0.1954 -0.7335 -2.0648
27672SOL     OW87377   9.625   5.057  10.027 -0.1688 -0.0744  0.1973
27672SOL    HW187378   9.586   5.122  10.086  1.3438  1.4804 -0.4567
27672SOL    HW287379   9.558   5.043   9.960 -0.3488  1.1418  0.1079
27673SOL     OW87380   8.766   8.230   4.479 -0.2912  0.5461 -0.1776
27673SOL    HW187381   8.814   8.276   4.548 -0.6307  1.0710 -0.2801
27673SOL    HW287382   8.823   8.235   4.403  1.5709 -2.8077  0.7863
27674SOL     OW87383   9.316   5.766   7.983 -0.5904  0.0122  0.7402
27674SOL    HW187384   9.269   5.770   8.067  0.2987  2.0592  1.1907
27674SOL    HW287385   9.294   5.680   7.948 -2.3789 -0.2140  2.2585
27675SOL     OW87386   8.701   9.418  10.293  0.0688  0.4547  0.1832
27675SOL    HW187387   8.722   9.342  10.240 -1.9442 -0.4673  0.6197
27675SOL    HW287388   8.750   9.490  10.253  1.4953 -0.9143 -0.6382
27676SOL     OW87389   3.610   7.588   6.413  0.5499  0.3106 -0.1536
27676SOL    HW187390   3.639   7.550   6.330  1.0912  1.0472 -0.2992
27676SOL    HW287391   3.647   7.530   6.480 -0.0782 -0.4174 -0.4220
27677SOL     OW87392  10.867   3.384   0.945 -0.0676  0.0833  0.8193
27677SOL    HW187393  10.779   3.356   0.921  0.3017  0.3044 -0.9240
27677SOL    HW287394  10.885   3.338   1.027 -1.5101 -0.5542  0.8121
27678SOL     OW87395   1.913  10.182   8.088 -0.4191 -0.0861  0.2622
27678SOL    HW187396   1.946  10.205   8.175 -0.7529 -0.6642  0.5437
27678SOL    HW287397   1.991  10.157   8.039 -0.2231  0.2898  0.3722
27679SOL     OW87398   5.311   5.719   7.140 -0.0617  0.1675 -0.6646
27679SOL    HW187399   5.374   5.750   7.075  0.5925 -0.9493 -0.6009
27679SOL    HW287400   5.365   5.682   7.210 -0.7790 -0.5929 -0.4907
27680SOL     OW87401   3.388  10.930   3.836 -0.0692  0.4293 -0.4772
27680SOL    HW187402   3.436  10.849   3.814  1.1820  1.7772 -3.2646
27680SOL    HW287403   3.456  10.997   3.840 -1.2051  1.5613  0.7638
27681SOL     OW87404   9.560   2.484   5.570  0.0377  0.4323 -0.1284
27681SOL    HW187405   9.529   2.430   5.497 -1.3031  1.1108 -0.0912
27681SOL    HW287406   9.624   2.542   5.531  0.2695 -0.0682 -0.5031
27682SOL     OW87407   2.741   5.023   0.258 -0.7162  0.2456  0.0698
27682SOL    HW187408   2.816   5.078   0.279  0.9648 -1.5844 -0.7629
27682SOL    HW287409   2.717   4.983   0.341 -0.9994  1.0753  0.3992
27683SOL     OW87410   1.409   0.418   7.440  0.5267  0.1689 -0.4482
27683SOL    HW187411   1.395   0.439   7.348  0.2876  1.5791 -0.1109
27683SOL    HW287412   1.322   0.397   7.474  0.6940 -0.9637 -0.6583
27684SOL     OW87413   5.026   3.058   2.826 -0.4489 -0.1221  0.2206
27684SOL    HW187414   5.058   2.969   2.843  1.1408  0.1451 -1.0752
27684SOL    HW287415   5.006   3.059   2.732  0.0315  1.0065  0.1186
27685SOL     OW87416   8.184   7.587   1.752 -0.0664 -0.0150 -0.2126
27685SOL    HW187417   8.230   7.625   1.827 -0.6764  1.9494 -0.7906
27685SOL    HW287418   8.239   7.610   1.677 -1.2776  1.2122 -0.7523
27686SOL     OW87419   7.411   5.422   5.399  0.4717 -0.0710 -0.5602
27686SOL    HW187420   7.321   5.389   5.396 -0.0884  1.2286  0.8703
27686SOL    HW287421   7.465   5.344   5.413 -0.6461 -0.6412  0.8252
27687SOL     OW87422   7.851   8.264   0.490  0.1098 -0.0404 -0.2788
27687SOL    HW187423   7.842   8.205   0.565 -0.8488 -0.3842 -0.6438
27687SOL    HW287424   7.933   8.310   0.505  0.6242 -1.1100  0.2675
27688SOL     OW87425   3.271   5.659  10.118  0.1315  0.0781  0.2156
27688SOL    HW187426   3.351   5.614  10.092 -0.8806 -0.8057 -1.6454
27688SOL    HW287427   3.268   5.650  10.213  1.2216 -1.6790  0.1318
27689SOL     OW87428   1.515   3.960   9.503 -0.4191  0.1122 -0.1075
27689SOL    HW187429   1.567   4.037   9.481 -0.1724  0.5174  1.7270
27689SOL    HW287430   1.424   3.992   9.503 -0.1628  1.3105  3.5960
27690SOL     OW87431  10.682   9.760   6.500  0.2568 -0.3258 -0.1013
27690SOL    HW187432  10.740   9.834   6.484 -0.2417  0.1340  0.2201
27690SOL    HW287433  10.634   9.784   6.579 -1.2234 -0.1877 -1.0167
27691SOL     OW87434   0.010   5.487   0.569  0.5544 -0.2287 -0.1505
27691SOL    HW187435   0.011   5.582   0.553  0.9704 -0.5241 -2.2366
27691SOL    HW287436   0.089   5.455   0.524  0.5468 -1.5509  0.7307
27692SOL     OW87437   3.763   4.024   1.296  0.3768 -0.7091  0.0464
27692SOL    HW187438   3.828   4.060   1.236 -0.2338 -2.9810 -2.1765
27692SOL    HW287439   3.758   4.087   1.368  1.2468  2.1521 -2.2191
27693SOL     OW87440   9.662   5.261   6.506  0.2104  0.1734 -0.0932
27693SOL    HW187441   9.672   5.200   6.433 -0.5020  1.5717 -1.4309
27693SOL    HW287442   9.712   5.338   6.479  1.1895  0.1978  1.6075
27694SOL     OW87443   4.341  10.996   6.657 -0.3516  0.1721  0.6029
27694SOL    HW187444   4.434  10.988   6.682 -0.5138 -0.0837  1.1446
27694SOL    HW287445   4.296  11.014   6.740 -0.6602  1.4041  0.1909
27695SOL     OW87446   6.489   3.591   5.832 -0.2951  0.0998 -0.1888
27695SOL    HW187447   6.461   3.595   5.741 -2.8390  1.2950  0.5628
27695SOL    HW287448   6.418   3.546   5.878 -0.3116  1.8132  1.5977
27696SOL     OW87449   0.873   1.640   0.226 -0.0512  0.1365 -0.6566
27696SOL    HW187450   0.887   1.708   0.159  0.4128  1.2456  0.5158
27696SOL    HW287451   0.889   1.685   0.309  2.5975 -1.9629  0.1150
27697SOL     OW87452   9.722  10.879   1.614 -0.4551 -0.0779  0.0787
27697SOL    HW187453   9.663  10.933   1.667 -0.7257  0.2916 -0.5826
27697SOL    HW287454   9.670  10.802   1.591 -0.0391 -0.6791  1.1000
27698SOL     OW87455   4.412   7.007   4.992 -0.2001  0.2841 -0.1983
27698SOL    HW187456   4.463   7.018   4.911 -1.0530 -1.0608 -0.9468
27698SOL    HW287457   4.478   6.994   5.060  0.5244  1.1461 -0.7180
27699SOL     OW87458   4.277   1.832   3.136 -0.0855 -0.0050 -0.1437
27699SOL    HW187459   4.300   1.924   3.145  0.5134 -0.2880  1.7728
27699SOL    HW287460   4.268   1.818   3.042  1.0623  1.7003 -0.5495
27700SOL     OW87461   7.080   3.853   1.534  0.0852  0.2668  0.3981
27700SOL    HW187462   7.072   3.948   1.537 -1.4483  0.1313  2.7418
27700SOL    HW287463   7.067   3.831   1.441 -4.9766  2.0175  0.3954
27701SOL     OW87464   1.331   7.027   6.187 -0.5127 -0.3101 -0.1391
27701SOL    HW187465   1.294   6.942   6.209  1.3258 -1.3856 -0.9992
27701SOL    HW287466   1.321   7.034   6.093 -0.1198  0.1646 -0.1500
27702SOL     OW87467   0.241   9.915   8.251 -0.1657  0.2812  0.1839
27702SOL    HW187468   0.275   9.857   8.318  0.0230 -1.4832 -1.3785
27702SOL    HW287469   0.219   9.858   8.178 -1.5081  1.9899 -0.8365
27703SOL     OW87470   6.784   5.826   8.275 -0.4998  0.2102  0.2487
27703SOL    HW187471   6.728   5.764   8.228 -1.6966  0.9813  0.6161
27703SOL    HW287472   6.820   5.883   8.206 -0.8750  0.2551  0.0857
27704SOL     OW87473   4.328   3.657   9.566  0.0495  0.2702  0.6588
27704SOL    HW187474   4.367   3.580   9.607 -1.3610  0.4017  2.4000
27704SOL    HW287475   4.342   3.727   9.629 -0.5080  0.9506  0.0407
27705SOL     OW87476  11.087   4.265   1.518 -0.3122 -0.8508  0.3053
27705SOL    HW187477  11.143   4.338   1.544  2.6875 -1.9502 -2.3019
27705SOL    HW287478  11.087   4.207   1.593  0.4902  0.0783  1.0534
27706SOL     OW87479   9.043   0.065   0.685  0.4068 -0.1239 -0.4535
27706SOL    HW187480   8.979   0.086   0.752 -1.8819 -1.5146 -2.0709
27706SOL    HW287481   9.123   0.110   0.714 -0.7173  0.1692  2.6083
27707SOL     OW87482   0.411  10.622   8.971  0.0397 -0.0752 -0.4291
27707SOL    HW187483   0.363  10.549   8.932  0.3823 -0.3470 -0.3470
27707SOL    HW287484   0.437  10.676   8.897 -0.6263  0.2239 -0.4554
27708SOL     OW87485   5.655   9.981   3.698 -0.0889  0.7353  0.5732
27708SOL    HW187486   5.691  10.017   3.617 -0.9163  0.4929  0.0824
27708SOL    HW287487   5.574  10.032   3.712 -0.8037 -0.3085  0.3501
27709SOL     OW87488   9.687   5.400   8.693 -0.3444 -0.1501 -0.3562
27709SOL    HW187489   9.631   5.402   8.771 -1.0898 -0.1968 -0.8751
27709SOL    HW287490   9.668   5.316   8.652  1.2424 -0.8308  0.2489
27710SOL     OW87491   8.929   1.918   7.437  0.3980 -0.0632  0.5942
27710SOL    HW187492   8.856   1.917   7.499  0.4659 -2.8293  0.7684
27710SOL    HW287493   8.897   1.869   7.361  0.6217  2.5099 -1.2926
27711SOL     OW87494   3.136   6.298   6.436 -0.3464 -0.6740  0.1893
27711SOL    HW187495   3.051   6.307   6.392 -1.1996 -4.0503  0.8356
27711SOL    HW287496   3.130   6.357   6.511 -1.1342  0.8986 -1.0530
27712SOL     OW87497   5.232   6.911   3.194 -0.0455 -0.0351 -0.9790
27712SOL    HW187498   5.210   6.841   3.134  0.3601  0.1620 -1.3620
27712SOL    HW287499   5.222   6.991   3.143 -0.7053  0.2065 -0.4886
27713SOL     OW87500   8.574   3.034   3.614  0.0146 -0.0938  0.3114
27713SOL    HW187501   8.558   3.090   3.691 -0.6168 -0.0510  0.1529
27713SOL    HW287502   8.538   3.084   3.541  1.7477  0.4414 -0.2134
27714SOL     OW87503   8.516   4.820   3.197 -0.4343  0.0140  0.3318
27714SOL    HW187504   8.542   4.823   3.289  1.2363 -2.7667  0.0716
27714SOL    HW287505   8.584   4.869   3.151 -0.0559 -0.4196  0.4144
27715SOL     OW87506   3.312   4.312   0.325  0.3286 -0.1124  0.4610
27715SOL    HW187507   3.248   4.241   0.324  0.9377 -0.7310  2.0481
27715SOL    HW287508   3.391   4.275   0.286  0.3776 -0.0300  0.4800
27716SOL     OW87509   7.647   9.382   2.446 -0.1017  0.3052 -0.2181
27716SOL    HW187510   7.723   9.359   2.393 -0.0739  0.8028 -0.3990
27716SOL    HW287511   7.613   9.462   2.405 -0.8273 -0.0130 -0.2566
27717SOL     OW87512   4.597   0.273   3.985 -0.3815 -0.3951  0.0727
27717SOL    HW187513   4.636   0.333   4.048 -2.6524  1.0230  0.2403
27717SOL    HW287514   4.627   0.305   3.899  0.7252 -0.8342  0.2731
27718SOL     OW87515   0.067   3.021  10.709  0.3270  0.1700 -0.5740
27718SOL    HW187516   0.129   3.068  10.765 -0.4677  0.6239 -0.0586
27718SOL    HW287517   0.072   3.066  10.625  1.1039 -0.1527 -0.7115
27719SOL     OW87518   2.158  10.968   1.016  0.1985 -0.6340  0.1020
27719SOL    HW187519   2.142  11.038   1.079 -1.6639 -0.8773 -0.0651
27719SOL    HW287520   2.212  11.009   0.948 -2.5991  1.3402 -1.1130
27720SOL     OW87521  10.432   0.991   2.735  0.2861 -0.5889  0.2063
27720SOL    HW187522  10.387   1.068   2.702 -0.3098 -0.2825  1.6589
27720SOL    HW287523  10.492   0.966   2.665 -1.3626 -0.3711 -1.3581
27721SOL     OW87524   3.672   2.454   8.091 -0.2089 -0.0240 -0.0960
27721SOL    HW187525   3.586   2.464   8.049 -0.3630 -1.9923 -0.3572
27721SOL    HW287526   3.733   2.494   8.029 -0.3469 -3.3770 -2.7317
27722SOL     OW87527   5.409  10.556   8.287  0.5493  0.0348  0.2655
27722SOL    HW187528   5.468  10.536   8.214 -1.4160 -0.5614 -1.2209
27722SOL    HW287529   5.418  10.650   8.300 -0.0926  0.4254 -1.7373
27723SOL     OW87530   9.627   3.758   3.807 -0.3765 -0.7701 -0.8075
27723SOL    HW187531   9.682   3.789   3.736  0.0639 -0.1007 -0.1857
27723SOL    HW287532   9.653   3.667   3.821  0.4054 -0.5282 -0.6746
27724SOL     OW87533   3.278   4.620   3.249  0.7026  0.2282  0.6363
27724SOL    HW187534   3.310   4.589   3.334  0.2172  0.8753  1.0590
27724SOL    HW287535   3.241   4.706   3.267 -0.5736 -0.1693  0.0163
27725SOL     OW87536   2.577   0.305   7.354  0.6923 -0.4210 -0.3244
27725SOL    HW187537   2.607   0.327   7.442 -0.9583 -0.1913  0.2179
27725SOL    HW287538   2.578   0.209   7.351 -1.6109 -0.5468  0.8757
27726SOL     OW87539  10.081   2.918   2.547 -0.1863 -0.5104 -0.7253
27726SOL    HW187540  10.056   2.958   2.631 -0.5002  1.1336 -1.5597
27726SOL    HW287541  10.149   2.976   2.512  0.3275 -1.4765 -1.3759
27727SOL     OW87542   6.082   2.257  11.050  0.3572  0.1654 -0.1088
27727SOL    HW187543   6.144   2.189  11.021 -2.1966 -0.7462 -4.2315
27727SOL    HW287544   6.085   2.323  10.981 -3.0885  0.0994 -0.4829
27728SOL     OW87545   2.961  10.787   0.946 -0.4511  0.2991 -0.0130
27728SOL    HW187546   3.000  10.744   1.022 -2.0208 -0.6500  0.2953
27728SOL    HW287547   2.996  10.739   0.871 -0.0262  0.3048  0.1801
27729SOL     OW87548   4.863   9.565  10.441 -0.5903  0.0386 -0.5890
27729SOL    HW187549   4.845   9.582  10.534  0.0152 -1.2340 -0.2161
27729SOL    HW287550   4.797   9.617  10.395 -0.3056  1.4522  0.5014
27730SOL     OW87551  10.347   1.000   3.481 -0.2781 -0.0320  0.2225
27730SOL    HW187552  10.398   1.081   3.468  2.6165 -1.4182  1.9112
27730SOL    HW287553  10.372   0.945   3.407  0.6263 -0.6592  0.9735
27731SOL     OW87554   7.732   5.089   7.302 -0.7338 -0.6440  1.0405
27731SOL    HW187555   7.814   5.123   7.265 -1.3739  0.3489  0.5077
27731SOL    HW287556   7.752   4.997   7.321  0.3741 -0.5357  0.5113
27732SOL     OW87557   7.078   8.005   7.780 -0.4542  0.0202  0.0761
27732SOL    HW187558   7.143   8.062   7.820 -1.0952 -0.1348  1.4090
27732SOL    HW287559   7.128   7.943   7.728  0.5100 -0.4099  1.4764
27733SOL     OW87560   0.126   8.276  10.936 -0.2370 -0.3778 -0.5114
27733SOL    HW187561   0.189   8.302  11.003  0.6250  0.0938 -1.4769
27733SOL    HW287562   0.157   8.319  10.856 -0.6461 -1.7457 -1.4394
27734SOL     OW87563   3.028  10.548   2.963  0.1873  0.0766  0.3596
27734SOL    HW187564   3.084  10.470   2.962  0.8288  0.5302 -0.0658
27734SOL    HW287565   2.943  10.517   2.932  0.3699 -0.4992  0.4218
27735SOL     OW87566  10.628   7.203   5.195 -0.2567  0.5260  0.4919
27735SOL    HW187567  10.558   7.139   5.204  0.2849 -0.3604 -1.2640
27735SOL    HW287568  10.586   7.277   5.150  0.1206 -0.3954 -1.4405
27736SOL     OW87569   2.544   9.095   1.549 -0.1659  0.4576 -0.0454
27736SOL    HW187570   2.585   9.174   1.584 -2.8312  1.8548  0.1660
27736SOL    HW287571   2.495   9.125   1.472 -2.6114 -0.5524  0.9958
27737SOL     OW87572   9.923   0.199   2.506  0.5883 -0.4359 -0.1374
27737SOL    HW187573   9.994   0.263   2.506 -0.4883  0.8494  0.8341
27737SOL    HW287574   9.911   0.177   2.598 -0.8852  0.1688 -0.1394
27738SOL     OW87575  10.422   1.031   4.319  0.0792  0.3991  0.1470
27738SOL    HW187576  10.501   1.021   4.266  1.7732  2.0737  2.1741
27738SOL    HW287577  10.387   1.117   4.293 -1.2576 -0.4205 -0.8837
27739SOL     OW87578   9.294   2.987   0.289  0.2219  0.3932 -0.7805
27739SOL    HW187579   9.367   2.974   0.228  1.7404  2.3516  0.5244
27739SOL    HW287580   9.285   2.902   0.332  1.1439 -0.1397 -1.5778
27740SOL     OW87581   1.883   6.288  10.658  0.4236  0.2037 -0.0452
27740SOL    HW187582   1.851   6.355  10.597 -0.6496 -0.3778 -0.1606
27740SOL    HW287583   1.972   6.314  10.679  0.2235  1.3445 -0.5438
27741SOL     OW87584   6.529   5.193   4.452  0.1993 -0.3159  0.1136
27741SOL    HW187585   6.554   5.105   4.424 -1.2474 -0.9417  0.6694
27741SOL    HW287586   6.612   5.237   4.471  0.9984 -1.1876 -1.2282
27742SOL     OW87587   4.294   2.294   7.913 -0.1095 -0.2127 -0.0351
27742SOL    HW187588   4.206   2.291   7.951 -0.7732 -0.4284 -1.5323
27742SOL    HW287589   4.353   2.287   7.988 -1.3663 -0.9857  0.9097
27743SOL     OW87590  10.420   9.952  10.471  0.1016 -0.3591 -0.1814
27743SOL    HW187591  10.472  10.030  10.451  0.0054 -0.2360  0.0535
27743SOL    HW287592  10.329   9.981  10.462  0.0570 -0.8865 -1.8329
27744SOL     OW87593   4.726   2.203   8.066 -0.3185 -0.1685 -0.6557
27744SOL    HW187594   4.737   2.122   8.116  0.0556 -0.3249 -0.9852
27744SOL    HW287595   4.813   2.219   8.028 -0.3780  0.4163 -0.5479
27745SOL     OW87596   2.913   8.989   7.071 -0.4301 -0.3643  0.6306
27745SOL    HW187597   2.933   9.082   7.081 -0.1092  0.0933 -2.9066
27745SOL    HW287598   2.850   8.986   6.999 -0.6911 -2.8814  0.8859
27746SOL     OW87599  10.656   3.679   2.197 -0.2977  0.0114  0.0547
27746SOL    HW187600  10.660   3.740   2.123  1.7727  0.6245  0.6036
27746SOL    HW287601  10.608   3.727   2.265 -3.1326 -0.9451 -1.1454
27747SOL     OW87602   9.095   9.093   5.554  0.0562  0.1143 -0.0376
27747SOL    HW187603   9.109   9.101   5.460 -1.6772 -2.7089 -0.6596
27747SOL    HW287604   9.157   9.025   5.582 -0.8576 -0.5497  0.4189
27748SOL     OW87605   3.669   7.461   2.542 -0.0902 -0.6958 -0.0749
27748SOL    HW187606   3.682   7.366   2.544  0.9902 -0.5482  0.4874
27748SOL    HW287607   3.751   7.498   2.575 -1.2548  0.3592  1.8412
27749SOL     OW87608   3.351   1.152   6.860 -0.0412  0.0043 -0.1341
27749SOL    HW187609   3.361   1.098   6.939 -1.8571 -0.5388 -0.2202
27749SOL    HW287610   3.327   1.090   6.791 -0.5002  0.7024 -0.6229
27750SOL     OW87611   9.818   6.276  10.649 -0.0127 -0.7068  0.4295
27750SOL    HW187612   9.873   6.201  10.624  1.3150  0.3301  0.1449
27750SOL    HW287613   9.778   6.303  10.567  2.0546  0.8655 -0.1530
27751SOL     OW87614   9.543   0.554   7.570 -0.3327  0.1121  0.1143
27751SOL    HW187615   9.560   0.605   7.649  0.7441  2.2569 -1.3907
27751SOL    HW287616   9.626   0.511   7.550 -0.0413  1.0252 -0.7653
27752SOL     OW87617   2.304   3.698   6.766  0.0629 -0.1118 -0.6091
27752SOL    HW187618   2.395   3.670   6.754  0.4193  1.2557 -1.3998
27752SOL    HW287619   2.310   3.771   6.828 -0.4384  0.2012 -0.9165
27753SOL     OW87620   6.154   9.939   4.421  0.1530 -1.1097 -0.3561
27753SOL    HW187621   6.100  10.017   4.435  0.5048 -1.0533  0.7640
27753SOL    HW287622   6.142   9.918   4.328  0.2111  0.3838 -0.7248
27754SOL     OW87623   0.873  10.148   6.990 -0.4068 -0.4970 -0.1976
27754SOL    HW187624   0.967  10.133   6.982 -0.4925 -1.0649 -0.1583
27754SOL    HW287625   0.833  10.092   6.923 -0.7291 -0.4202 -0.0730
27755SOL     OW87626   7.406   3.851   0.296 -0.0483  0.1203 -0.0094
27755SOL    HW187627   7.345   3.816   0.231 -0.7988 -2.9577  2.1200
27755SOL    HW287628   7.460   3.914   0.247 -1.3705 -1.0497 -3.2541
27756SOL     OW87629   0.197   3.144   3.802 -0.4650  0.0485 -0.2709
27756SOL    HW187630   0.196   3.085   3.727  0.8255 -0.9602  0.4751
27756SOL    HW287631   0.272   3.116   3.854 -1.3675  0.6665  1.4494
27757SOL     OW87632   5.544   7.389   6.529  0.2004 -0.0962  0.4674
27757SOL    HW187633   5.573   7.412   6.617  0.8549 -0.5967  0.4001
27757SOL    HW287634   5.539   7.293   6.530 -0.5813 -0.0639  0.1964
27758SOL     OW87635  10.024   6.405  10.059 -0.0553  0.4007  0.3216
27758SOL    HW187636   9.930   6.421  10.046  0.0670 -0.5210 -2.2087
27758SOL    HW287637  10.032   6.310  10.058  1.0853  0.4636 -1.5842
27759SOL     OW87638   1.987   6.089   6.269  0.3282  0.4167  0.0707
27759SOL    HW187639   2.083   6.090   6.262  0.4171 -0.0840  1.0046
27759SOL    HW287640   1.958   6.036   6.195  0.6737  1.6956 -1.0188
27760SOL     OW87641   2.896   4.800  10.018  0.6535  0.3249 -0.2558
27760SOL    HW187642   2.814   4.770  10.058  0.7227  0.0564 -0.3112
27760SOL    HW287643   2.941   4.847  10.089  0.0872  1.1902 -0.4596
27761SOL     OW87644   8.893  10.917   7.260 -0.1447  0.1847 -0.1774
27761SOL    HW187645   8.889  11.010   7.280  0.8018  0.1830  0.0800
27761SOL    HW287646   8.860  10.910   7.170  1.1037  0.9540 -0.7163
27762SOL     OW87647   5.517   5.558   0.111  0.1920 -0.0780 -0.4528
27762SOL    HW187648   5.502   5.638   0.060  0.4456  0.7395  0.7117
27762SOL    HW287649   5.584   5.511   0.061  1.8339  1.6028  0.0390
27763SOL     OW87650   4.246   9.797  10.012  0.1005  0.4455  1.0538
27763SOL    HW187651   4.176   9.852   9.976  1.4271  0.7037 -1.3284
27763SOL    HW287652   4.211   9.708  10.008  0.4213  0.3593 -1.7409
27764SOL     OW87653   9.714   0.849  10.486  0.8089  0.7806  0.1945
27764SOL    HW187654   9.704   0.917  10.553 -0.7323 -0.0160  0.8071
27764SOL    HW287655   9.631   0.802  10.486  1.4940 -0.5109 -0.8968
27765SOL     OW87656   4.546   4.568   9.554 -0.3004  0.5330 -0.1978
27765SOL    HW187657   4.618   4.628   9.535  0.3027  0.6469  2.1812
27765SOL    HW287658   4.468   4.612   9.521  0.2949  2.0342  0.3445
27766SOL     OW87659   8.763   0.131   2.311 -0.4199  0.2004  0.2129
27766SOL    HW187660   8.790   0.210   2.264  2.0678 -1.0981 -0.7310
27766SOL    HW287661   8.809   0.136   2.394 -1.5899  0.4919  0.8750
27767SOL     OW87662   5.535   5.679   6.963  0.2725 -0.2551 -0.2244
27767SOL    HW187663   5.471   5.672   6.892  1.4796 -0.1375 -1.3665
27767SOL    HW287664   5.558   5.772   6.966 -0.8453  0.0077  1.3382
27768SOL     OW87665   0.003  11.000   3.412  0.4114 -0.3480 -0.6494
27768SOL    HW187666  -0.057  10.961   3.348  1.1330  0.5648 -1.9310
27768SOL    HW287667   0.088  11.002   3.367  1.5761 -2.0497  1.2796
27769SOL     OW87668   6.455   2.433   2.468  0.1385  0.1631 -1.0428
27769SOL    HW187669   6.469   2.527   2.456  0.4040  0.2975  0.1865
27769SOL    HW287670   6.370   2.428   2.513 -0.5222 -0.2684 -2.3121
27770SOL     OW87671   4.458   1.549   6.530 -0.4240  0.0726 -0.0536
27770SOL    HW187672   4.470   1.527   6.623 -2.5352  1.4934  0.6448
27770SOL    HW287673   4.500   1.477   6.483  0.0856 -1.0695  1.9983
27771SOL     OW87674   7.464   4.274   2.935  0.7170  0.6274  0.2833
27771SOL    HW187675   7.452   4.197   2.990  3.2894  1.4596  2.1898
27771SOL    HW287676   7.424   4.250   2.851 -1.3364 -1.5426  1.7517
27772SOL     OW87677   1.697   3.907   0.002  0.2209  0.7967  0.2223
27772SOL    HW187678   1.705   3.839   0.069 -0.7136  0.2202 -0.2247
27772SOL    HW287679   1.781   3.907  -0.042  0.2231 -0.1182  0.1996
27773SOL     OW87680   8.667   3.124   9.153 -0.2052  0.1234 -0.2343
27773SOL    HW187681   8.574   3.103   9.154  0.0865 -1.1954  0.2662
27773SOL    HW287682   8.697   3.093   9.067 -0.2497  0.7422 -0.4839
27774SOL     OW87683   2.936   2.867  11.113  0.1559 -0.4427 -0.3844
27774SOL    HW187684   2.993   2.815  11.170  1.4697  1.9110  0.6119
27774SOL    HW287685   2.861   2.889  11.168  1.2524  1.5267  0.4020
27775SOL     OW87686   0.931   6.104  10.123 -0.1316 -0.0436 -0.1570
27775SOL    HW187687   0.849   6.116  10.173 -0.1420  0.1289 -0.2163
27775SOL    HW287688   0.904   6.107  10.032 -0.1207 -0.4212 -0.1763
27776SOL     OW87689   5.920   8.559  10.795 -0.0408 -0.1245  0.7320
27776SOL    HW187690   5.855   8.574  10.864  0.8016  1.4411  1.2237
27776SOL    HW287691   5.869   8.527  10.721 -1.5419  1.9676  0.7727
27777SOL     OW87692   9.925   7.367  10.740  0.4237  0.5282  0.1651
27777SOL    HW187693  10.002   7.335  10.694  0.4269 -0.6815  0.9610
27777SOL    HW287694   9.855   7.306  10.717 -0.6646  2.2813 -1.5110
27778SOL     OW87695   5.072   3.475   3.838  0.4777  0.4362  0.4403
27778SOL    HW187696   5.126   3.403   3.870 -0.4508  0.2858  1.7715
27778SOL    HW287697   5.103   3.491   3.749  1.0319 -1.2773  0.2893
27779SOL     OW87698   3.433  10.333   1.326  0.2123  0.3130  0.0320
27779SOL    HW187699   3.494  10.329   1.252 -0.5915  0.2496 -0.6455
27779SOL    HW287700   3.455  10.257   1.380  1.1129  0.6147  0.1224
27780SOL     OW87701   8.126   0.924   5.403  0.2160  0.1271 -0.2720
27780SOL    HW187702   8.079   0.893   5.481 -0.0038 -0.4250 -0.6117
27780SOL    HW287703   8.208   0.959   5.436  0.6146 -1.1259  0.1187
27781SOL     OW87704   7.882   7.101   8.367  0.4696 -0.4183 -0.0647
27781SOL    HW187705   7.822   7.128   8.436 -1.5167  1.0760 -2.2085
27781SOL    HW287706   7.922   7.020   8.399 -0.0780  0.3951  2.9004
27782SOL     OW87707   7.941   9.297   5.034  0.0011 -0.2901  0.9900
27782SOL    HW187708   7.909   9.313   5.123 -0.8226  0.0049  0.6481
27782SOL    HW287709   7.953   9.202   5.030 -0.4173 -0.3561  1.2689
27783SOL     OW87710   1.932   3.975   2.328  0.7464 -0.0288 -0.4471
27783SOL    HW187711   1.869   3.947   2.261 -0.1010  0.6782  0.0268
27783SOL    HW287712   1.913   3.919   2.404 -0.2855  1.0862  0.1652
27784SOL     OW87713   0.571   6.480   1.776  0.5044 -0.1416 -0.5597
27784SOL    HW187714   0.540   6.464   1.686 -1.1257 -1.9996  0.2571
27784SOL    HW287715   0.492   6.504   1.824  1.1157 -0.5662  0.6778
27785SOL     OW87716   7.987   6.872   4.049 -0.5422  0.1874 -0.4008
27785SOL    HW187717   7.994   6.903   4.140 -0.4938 -1.9686  0.3824
27785SOL    HW287718   7.950   6.784   4.056  0.3061 -0.3919 -2.3948
27786SOL     OW87719   4.662   9.970   0.293 -0.0363 -0.2580 -0.2907
27786SOL    HW187720   4.690  10.056   0.263 -2.0385  1.8313  3.1590
27786SOL    HW287721   4.742   9.929   0.325  0.9785  0.1771 -2.1346
27787SOL     OW87722   3.344   6.085   7.057  0.5660  0.4618  0.1468
27787SOL    HW187723   3.335   6.033   6.977 -2.3179  0.8180  0.1227
27787SOL    HW287724   3.437   6.079   7.079  0.8902 -2.2605 -1.4511
27788SOL     OW87725   0.112   9.894  10.129  0.0941  0.1151  0.0635
27788SOL    HW187726   0.043   9.828  10.127  1.3890 -1.3103 -0.2423
27788SOL    HW287727   0.155   9.887  10.044  0.4580  1.1475  0.1452
27789SOL     OW87728   8.660   0.886   4.052  0.1271 -0.1061  0.5044
27789SOL    HW187729   8.635   0.978   4.060 -1.1098 -0.4311  0.5408
27789SOL    HW287730   8.673   0.856   4.142  0.0033 -0.1100  0.5205
27790SOL     OW87731   2.111   4.815   5.718  0.0912 -0.6273 -0.3970
27790SOL    HW187732   2.128   4.909   5.705  0.1045 -0.7605 -1.4299
27790SOL    HW287733   2.019   4.803   5.693  0.3689 -1.0522 -1.2674
27791SOL     OW87734   2.468   7.380   5.849  0.6873 -0.0327  0.0275
27791SOL    HW187735   2.444   7.466   5.815 -0.4348  0.3730  1.6860
27791SOL    HW287736   2.410   7.368   5.924  0.8802 -2.2177 -0.1277
27792SOL     OW87737   7.866   9.124   6.338 -0.0989  0.4072 -0.3277
27792SOL    HW187738   7.851   9.177   6.416 -1.2487 -2.1139  1.2916
27792SOL    HW287739   7.778   9.099   6.309  0.4070 -1.1591 -0.6004
27793SOL     OW87740   8.187   6.321   5.642  1.1260  0.0710 -0.0457
27793SOL    HW187741   8.121   6.269   5.595  1.9483 -0.3856 -0.7316
27793SOL    HW287742   8.265   6.265   5.643  1.4531  0.5309  0.9026
27794SOL     OW87743   1.037   7.867   3.561  0.7993  0.2710  0.1180
27794SOL    HW187744   0.962   7.828   3.608  1.1854 -1.2787 -0.4955
27794SOL    HW287745   1.086   7.912   3.629 -0.2068  0.5537  0.6891
27795SOL     OW87746   1.641   9.916   8.012  0.1001  0.6947  0.1032
27795SOL    HW187747   1.593   9.837   7.989  1.7172 -0.7287  1.4136
27795SOL    HW287748   1.707   9.926   7.943 -0.4132  1.2049 -0.3251
27796SOL     OW87749   6.424   6.995   2.103  0.0055 -0.6247 -0.6557
27796SOL    HW187750   6.409   6.953   2.188 -1.3000 -0.4738 -0.7879
27796SOL    HW287751   6.338   7.028   2.077  0.4583 -0.3395 -1.8693
27797SOL     OW87752   3.149   9.150   9.352 -0.1431 -0.4788 -0.1131
27797SOL    HW187753   3.145   9.237   9.311 -1.2891 -1.1344 -1.4612
27797SOL    HW287754   3.206   9.099   9.294 -1.5988 -1.3587 -0.8038
27798SOL     OW87755   9.178   2.829   5.349 -0.3988  0.9742 -0.2225
27798SOL    HW187756   9.133   2.759   5.301  1.1178 -1.1251  1.2160
27798SOL    HW287757   9.109   2.890   5.372 -1.5650  0.8033 -2.8424
27799SOL     OW87758   3.947   9.716   7.811 -0.4211  0.6381 -0.1813
27799SOL    HW187759   3.947   9.654   7.738 -2.0204 -0.4281  0.6699
27799SOL    HW287760   4.024   9.770   7.796  0.6210 -1.0716 -1.3765
27800SOL     OW87761   1.222  10.280  10.923 -0.0134 -0.7409 -0.3330
27800SOL    HW187762   1.210  10.340  10.996  1.5724  0.5583 -1.0993
27800SOL    HW287763   1.139  10.232  10.918 -1.4669  1.6098  0.0725
27801SOL     OW87764   7.530   0.402   6.170 -0.0981 -0.3662  0.4874
27801SOL    HW187765   7.489   0.349   6.239 -0.0084 -0.9135  0.1270
27801SOL    HW287766   7.512   0.493   6.196  0.0758 -0.5613  1.3165
27802SOL     OW87767   6.438   9.650   9.178  0.0827 -0.2388  0.0643
27802SOL    HW187768   6.532   9.641   9.194  0.0931  2.5681  2.2813
27802SOL    HW287769   6.405   9.697   9.255 -3.4694 -2.4717  0.1418
27803SOL     OW87770   2.489   5.399   0.611  0.5189  0.8885  0.2237
27803SOL    HW187771   2.487   5.440   0.525  1.7595  0.0247 -0.2470
27803SOL    HW287772   2.408   5.348   0.615  0.0431  1.6009 -0.0731
27804SOL     OW87773   7.443   9.083  10.799  0.1433  0.5992 -0.6240
27804SOL    HW187774   7.465   9.051  10.712  0.8393  1.4299 -0.7634
27804SOL    HW287775   7.477   9.173  10.801 -2.1187  1.5206 -0.4101
27805SOL     OW87776   9.450   5.035   9.304 -0.2495  0.2641 -0.4316
27805SOL    HW187777   9.361   5.021   9.333 -0.7076 -0.0168 -1.8748
27805SOL    HW287778   9.455   5.130   9.289  0.1988  0.5165  1.1117
27806SOL     OW87779   1.859   5.547   4.497 -0.2549  0.0992  0.5309
27806SOL    HW187780   1.900   5.462   4.513  0.0133 -0.1225 -1.1296
27806SOL    HW287781   1.895   5.604   4.566  0.6418 -0.7903  0.8314
27807SOL     OW87782   6.226  10.986   3.642 -0.1536  0.4688  0.4200
27807SOL    HW187783   6.255  10.950   3.558 -1.4786  1.9578 -0.7355
27807SOL    HW287784   6.172  11.062   3.618 -0.8699  0.7124  2.6121
27808SOL     OW87785   6.018   8.829  10.769 -0.1976 -0.2492 -0.0824
27808SOL    HW187786   6.001   8.735  10.779 -0.6669 -0.2512 -0.8479
27808SOL    HW287787   6.076   8.850  10.842 -2.7753 -0.4270  2.1814
27809SOL     OW87788   2.590   7.647   5.565 -0.1472  0.0935  0.5039
27809SOL    HW187789   2.620   7.588   5.634  1.1790 -0.0853 -0.1878
27809SOL    HW287790   2.529   7.595   5.513  1.2019 -0.8002 -0.2534
27810SOL     OW87791   5.347   5.075   3.986  0.0774  0.0839 -0.0267
27810SOL    HW187792   5.285   5.063   3.914 -2.3552  0.2752  1.9195
27810SOL    HW287793   5.352   4.989   4.028  0.3468  0.3184  0.4291
27811SOL     OW87794   6.907   5.905   3.381 -0.0395 -0.4228 -0.0653
27811SOL    HW187795   6.815   5.913   3.406  0.0050  2.8640 -0.5143
27811SOL    HW287796   6.954   5.901   3.465 -0.5300 -2.2527  0.1677
27812SOL     OW87797   9.044   6.148   3.273  0.0569  0.1904  0.2761
27812SOL    HW187798   9.052   6.081   3.341 -2.2015  1.6733  2.1523
27812SOL    HW287799   8.977   6.114   3.214 -0.7849  0.5822  0.9919
27813SOL     OW87800  10.859   5.221   3.252 -0.5996  0.1932 -0.3454
27813SOL    HW187801  10.833   5.313   3.262  0.9578  0.5782  0.4221
27813SOL    HW287802  10.891   5.215   3.162 -1.6608  0.1333 -0.7327
27814SOL     OW87803   1.719   3.226  10.246 -0.2360  0.3385 -0.3063
27814SOL    HW187804   1.660   3.152  10.234 -0.1896 -0.1396  1.9545
27814SOL    HW287805   1.720   3.241  10.341  3.2171  0.3366 -0.2093
27815SOL     OW87806   2.879   8.781   6.824  0.0456 -0.4955 -0.4384
27815SOL    HW187807   2.899   8.742   6.909  1.2324  1.5258  0.2769
27815SOL    HW287808   2.783   8.778   6.818 -0.0555 -0.7171  0.9375
27816SOL     OW87809   0.028   6.387   9.644  0.0932 -0.2787 -0.5122
27816SOL    HW187810   0.117   6.365   9.671 -0.4921 -1.6124  0.4315
27816SOL    HW287811  -0.019   6.304   9.646 -1.2688  0.4618 -0.6391
27817SOL     OW87812   6.046   9.252   0.682 -0.3590 -0.2972  0.1222
27817SOL    HW187813   6.086   9.181   0.732 -1.9089 -2.2889 -1.2984
27817SOL    HW287814   6.120   9.294   0.638  0.5141 -1.8227  0.0407
27818SOL     OW87815   5.543   2.170   4.180 -0.2143  0.5291 -0.4356
27818SOL    HW187816   5.570   2.093   4.230  0.0793  1.7929  1.4678
27818SOL    HW287817   5.623   2.200   4.137 -0.5855 -0.8916 -2.2048
27819SOL     OW87818  10.935   2.895   3.286 -0.1067 -0.1889  0.5448
27819SOL    HW187819  10.988   2.873   3.210 -1.6502  0.1176 -0.6834
27819SOL    HW287820  10.877   2.819   3.298 -1.5055  0.7246 -0.1248
27820SOL     OW87821   3.939   9.864   8.736 -0.5771  0.2085 -0.1982
27820SOL    HW187822   3.846   9.840   8.725  0.0437 -1.6494 -2.0470
27820SOL    HW287823   3.981   9.783   8.766  0.3742  1.2625  1.4986
27821SOL     OW87824   4.446   6.496   6.121 -0.0008  0.4528 -0.3869
27821SOL    HW187825   4.363   6.451   6.104 -0.1507  0.1180  1.0763
27821SOL    HW287826   4.456   6.492   6.216  2.5131 -1.0008 -0.6246
27822SOL     OW87827   2.062   5.638   0.759 -0.4261  0.4288  0.0509
27822SOL    HW187828   2.053   5.580   0.835 -0.9635 -0.4128 -0.6327
27822SOL    HW287829   1.994   5.704   0.772 -0.9239 -0.0665  0.0014
27823SOL     OW87830   6.633   8.106   4.920  0.2304 -0.4339  0.0414
27823SOL    HW187831   6.643   8.113   5.015  1.3538 -0.8242 -0.0277
27823SOL    HW287832   6.605   8.015   4.905  0.9400 -0.6484 -0.0432
27824SOL     OW87833   0.290   7.018   3.636  0.1666  0.1935 -0.2450
27824SOL    HW187834   0.333   6.935   3.617  1.7738  0.8948  0.1416
27824SOL    HW287835   0.359   7.072   3.674 -1.1159  1.3358  0.5500
27825SOL     OW87836   2.308   7.275   0.311  0.6072 -1.3916  0.1737
27825SOL    HW187837   2.255   7.278   0.232  2.0097  0.0100 -0.7751
27825SOL    HW287838   2.252   7.310   0.380  0.0960 -0.4964 -0.6822
27826SOL     OW87839   1.504   2.913   2.582 -0.3627  0.2282 -0.6444
27826SOL    HW187840   1.456   2.994   2.563  1.3820  1.3198 -0.6912
27826SOL    HW287841   1.463   2.847   2.526 -3.2568  0.5064  0.9957
27827SOL     OW87842  10.389  10.978   8.939 -0.2368  0.1432 -0.1152
27827SOL    HW187843  10.341  11.045   8.891  1.5681  0.6844 -1.2745
27827SOL    HW287844  10.424  11.024   9.016 -0.2269  0.1593 -0.1303
27828SOL     OW87845   6.665   4.238   0.836  0.0497 -0.6786  0.9964
27828SOL    HW187846   6.583   4.234   0.885 -1.0395  3.8430  0.0255
27828SOL    HW287847   6.721   4.296   0.887  0.0865  1.4909 -1.2818
27829SOL     OW87848   8.716   6.979   1.369  1.0404  0.2056  0.9626
27829SOL    HW187849   8.718   6.931   1.287 -0.7350 -0.0812  1.0492
27829SOL    HW287850   8.680   7.065   1.346 -0.7551 -0.3354  1.6127
27830SOL     OW87851   1.703   7.951   0.662 -0.1308 -0.6439 -0.2759
27830SOL    HW187852   1.660   8.008   0.599 -0.0007 -0.5340 -0.2647
27830SOL    HW287853   1.729   8.009   0.734 -0.8189 -0.8585  0.1593
27831SOL     OW87854   8.849   1.520   7.486 -0.1397 -0.9042 -0.3375
27831SOL    HW187855   8.852   1.461   7.561 -0.2162 -2.0575 -1.2066
27831SOL    HW287856   8.772   1.575   7.501  0.8768  0.1363  1.3065
27832SOL     OW87857   2.118   5.480   4.583  0.1474 -0.2866 -0.0211
27832SOL    HW187858   2.131   5.388   4.564  0.2499 -0.9907  2.9225
27832SOL    HW287859   2.173   5.527   4.520  0.0308 -2.1983 -1.6092
27833SOL     OW87860   5.459   2.561   9.936 -0.0218  0.1040 -0.2826
27833SOL    HW187861   5.509   2.537  10.014  1.3398  1.6432 -0.6332
27833SOL    HW287862   5.522   2.558   9.865 -0.7220  0.9245 -0.9593
27834SOL     OW87863   0.460   5.247   4.475  0.3995 -0.3500 -0.2647
27834SOL    HW187864   0.432   5.160   4.446  0.8922 -0.7284  0.3552
27834SOL    HW287865   0.448   5.246   4.570 -0.9466  0.7776 -0.3969
27835SOL     OW87866   0.695   1.329   1.421 -0.0584 -0.3189  0.3602
27835SOL    HW187867   0.678   1.262   1.487  1.4003 -2.8454 -1.5997
27835SOL    HW287868   0.729   1.403   1.470 -1.3319 -1.1554  2.6292
27836SOL     OW87869   8.332  10.964   6.301 -0.1626 -0.1991  0.7235
27836SOL    HW187870   8.334  10.889   6.241  0.2224  1.8256 -2.0111
27836SOL    HW287871   8.266  10.941   6.366  0.7220 -3.3252  0.6611
27837SOL     OW87872   3.773  10.737   8.724  0.2616 -0.8822  0.3538
27837SOL    HW187873   3.797  10.685   8.800 -1.4701 -0.9213  0.9253
27837SOL    HW287874   3.720  10.809   8.759  0.5847 -0.1064 -0.6776
27838SOL     OW87875   0.045   5.629   4.631 -0.2164  0.0975  0.1310
27838SOL    HW187876  -0.005   5.547   4.634  3.0188 -2.0680 -0.0294
27838SOL    HW287877   0.136   5.601   4.639  1.1739  3.5935 -1.6155
27839SOL     OW87878   6.929  10.966   1.683  0.2700 -0.1652 -0.2157
27839SOL    HW187879   6.991  11.032   1.653  0.0503  0.7005  1.1298
27839SOL    HW287880   6.900  10.998   1.769 -1.7013 -0.7799 -0.6005
27840SOL     OW87881   8.124   9.183   7.878 -0.2036  0.4386 -0.2042
27840SOL    HW187882   8.093   9.247   7.943  2.3243  0.9433  0.6256
27840SOL    HW287883   8.171   9.118   7.930 -0.1123 -0.4167 -1.3416
27841SOL     OW87884   0.456   3.944   6.062  0.2145  0.3969  0.2327
27841SOL    HW187885   0.507   3.893   5.999 -0.8238 -1.1261  0.5661
27841SOL    HW287886   0.497   4.030   6.062  1.0128  0.0645 -1.6004
27842SOL     OW87887   9.128  10.579   2.001 -0.2533  0.1939 -0.4503
27842SOL    HW187888   9.089  10.518   2.063 -1.0633  0.4486 -0.7024
27842SOL    HW287889   9.079  10.565   1.920 -0.1583  0.8813 -0.6288
27843SOL     OW87890   8.746   3.501   5.678  0.4736  0.2257  0.1496
27843SOL    HW187891   8.741   3.564   5.750  1.8990  0.0941  0.3931
27843SOL    HW287892   8.674   3.440   5.695  0.3453  0.6104  1.0624
27844SOL     OW87893   9.136   0.870   6.761  0.1961  0.1118 -0.1556
27844SOL    HW187894   9.130   0.868   6.665  0.6325  0.2242 -0.1862
27844SOL    HW287895   9.049   0.898   6.789  0.4568  1.4619 -0.5890
27845SOL     OW87896   7.720   8.489   4.565  0.0096 -0.0894  0.4696
27845SOL    HW187897   7.702   8.510   4.657  0.1260 -2.7775  1.1781
27845SOL    HW287898   7.638   8.450   4.534  1.2395 -3.1035  0.7517
27846SOL     OW87899   1.528   0.360   0.162 -0.0868  0.0197 -0.9990
27846SOL    HW187900   1.614   0.318   0.155 -0.0150  0.1067 -0.6746
27846SOL    HW287901   1.534   0.437   0.105  0.0667  0.0503 -0.9425
27847SOL     OW87902   0.824   9.581   1.907  0.2295  0.5430  0.0287
27847SOL    HW187903   0.744   9.597   1.857  0.5435  4.1453  0.4589
27847SOL    HW287904   0.894   9.584   1.843  0.2180 -1.4239 -0.1592
27848SOL     OW87905   9.360   8.558   5.681  0.3473  0.5786 -0.0672
27848SOL    HW187906   9.450   8.583   5.659 -0.1105  2.8403  0.3799
27848SOL    HW287907   9.307   8.634   5.658 -1.6999 -1.1546 -1.5510
27849SOL     OW87908   6.746   7.535   7.312 -0.0213  0.4298  0.3958
27849SOL    HW187909   6.792   7.589   7.375  1.2358  0.2983 -0.3768
27849SOL    HW287910   6.803   7.533   7.235 -1.2316  0.1151 -0.5386
27850SOL     OW87911   2.266   6.724   2.509 -0.4525  0.3353  0.8473
27850SOL    HW187912   2.240   6.772   2.588 -2.0419  1.4041 -0.2602
27850SOL    HW287913   2.293   6.792   2.448  0.3248 -0.4437  0.3030
27851SOL     OW87914   4.945   2.188   6.459  0.0848  0.3306  0.0969
27851SOL    HW187915   4.934   2.122   6.528  0.5702  0.9719  0.8123
27851SOL    HW287916   4.995   2.143   6.391  3.7555  0.8828  2.1442
27852SOL     OW87917   0.772   8.257   4.777 -0.3250  0.0901 -0.2868
27852SOL    HW187918   0.686   8.245   4.738  1.6136 -0.2824 -5.1317
27852SOL    HW287919   0.820   8.177   4.756  1.1271 -0.1158  3.0438
27853SOL     OW87920   1.620   2.331   6.155 -0.3776  0.1904  0.4259
27853SOL    HW187921   1.653   2.413   6.192 -0.8945 -0.3255  2.1334
27853SOL    HW287922   1.637   2.265   6.223 -0.9112 -0.9141 -0.4742
27854SOL     OW87923   7.790   4.607   9.336 -0.3299 -0.4802  0.2642
27854SOL    HW187924   7.711   4.554   9.327  0.0628 -1.0112 -0.1313
27854SOL    HW287925   7.812   4.604   9.429 -1.3558  0.5319  0.5536
27855SOL     OW87926  10.096  10.880   2.699  0.0277  0.7415 -0.2113
27855SOL    HW187927  10.104  10.857   2.792 -2.3224  0.1485 -0.0969
27855SOL    HW287928  10.087  10.976   2.700  1.6348  0.9109  0.0079
27856SOL     OW87929   9.069   6.948   9.797 -0.0758 -0.3135 -0.3334
27856SOL    HW187930   9.100   7.032   9.832  1.3685 -1.3226  0.9214
27856SOL    HW287931   8.986   6.933   9.841  0.0216  0.1152 -0.0010
27857SOL     OW87932   5.320   6.356   3.474  0.7334  0.6203 -0.6776
27857SOL    HW187933   5.366   6.273   3.463  0.0228  0.1824 -0.4517
27857SOL    HW287934   5.368   6.401   3.543 -0.8175 -1.0799  1.6619
27858SOL     OW87935   2.337   7.699  10.567  1.0413  0.3749 -0.0409
27858SOL    HW187936   2.402   7.643  10.527  0.8416 -0.5117  0.8300
27858SOL    HW287937   2.261   7.642  10.580  0.7013  0.9379  0.5057
27859SOL     OW87938   0.039   4.267   6.504  0.1163 -0.4024  0.4552
27859SOL    HW187939   0.018   4.178   6.532  1.3677 -0.4893  1.1753
27859SOL    HW287940   0.134   4.271   6.503  0.0811  0.7118 -0.3029
27860SOL     OW87941   6.483   2.823   6.761  0.4530  0.0001 -0.4796
27860SOL    HW187942   6.439   2.789   6.683  0.4653  0.4265 -0.6771
27860SOL    HW287943   6.551   2.882   6.726 -1.0456  2.0517 -0.1342
27861SOL     OW87944   4.407   2.682   4.540  0.0921  0.2988  0.4207
27861SOL    HW187945   4.312   2.688   4.538  0.1559  1.7568  1.1021
27861SOL    HW287946   4.435   2.717   4.455  0.0436  0.2015  0.3639
27862SOL     OW87947   8.508   7.030   2.788 -0.1018 -0.1425  0.1173
27862SOL    HW187948   8.445   6.960   2.800 -0.2304  0.1820  1.4448
27862SOL    HW287949   8.487   7.068   2.702 -1.6061 -0.1394  0.4684
27863SOL     OW87950   9.371  11.014   9.294 -0.6980 -0.5127  0.1474
27863SOL    HW187951   9.315  11.083   9.259 -1.3181 -0.3954  1.3013
27863SOL    HW287952   9.372  10.947   9.226  2.4739  1.8483 -2.4412
27864SOL     OW87953   1.993   5.652  10.883  1.0200  0.4598 -0.2477
27864SOL    HW187954   2.049   5.591  10.835  0.6042 -1.5689  1.6716
27864SOL    HW287955   1.909   5.607  10.891  0.9967  0.7628  2.0910
27865SOL     OW87956  10.311  10.420   8.047 -0.2223  0.1902  0.3833
27865SOL    HW187957  10.237  10.480   8.030 -0.2159  0.4810  1.2824
27865SOL    HW287958  10.389  10.472   8.027 -0.2251  0.4247  0.9385
27866SOL     OW87959   4.869   8.997   8.636 -0.1513 -0.2772  0.4936
27866SOL    HW187960   4.784   8.971   8.600 -0.6567  0.3274  1.2274
27866SOL    HW287961   4.901   8.920   8.682  0.2328 -0.8738 -0.7072
27867SOL     OW87962   4.198   3.859   3.774  0.0890 -0.4038  0.6602
27867SOL    HW187963   4.270   3.866   3.711 -0.8240  0.1432 -0.3687
27867SOL    HW287964   4.154   3.777   3.750 -0.0760 -0.3545  0.7984
27868SOL     OW87965   9.878   3.669   4.085  0.6975  0.6103 -0.2848
27868SOL    HW187966   9.859   3.596   4.026  3.0165 -0.9301  0.7454
27868SOL    HW287967   9.924   3.733   4.030  0.1435  0.5624 -0.8166
27869SOL     OW87968   3.888   3.902   7.131  0.0648 -0.6692 -0.4710
27869SOL    HW187969   3.897   3.941   7.044 -1.8479 -0.1661 -0.4885
27869SOL    HW287970   3.858   3.813   7.115 -2.2941  0.0324 -0.3698
27870SOL     OW87971   4.605   4.855   4.677  0.0230 -0.0112  0.0370
27870SOL    HW187972   4.674   4.871   4.613 -2.2161 -1.0318 -2.8468
27870SOL    HW287973   4.585   4.942   4.713 -0.1027  0.9766 -2.2741
27871SOL     OW87974   7.331   7.031   4.881 -0.1699  0.2676  0.2551
27871SOL    HW187975   7.311   7.114   4.923  1.8175  1.1612 -0.4733
27871SOL    HW287976   7.297   6.965   4.942  0.5015  1.5555  2.1105
27872SOL     OW87977   8.231  10.630   1.682 -0.0917  0.3182  0.3162
27872SOL    HW187978   8.305  10.683   1.711  1.1070 -0.9706 -0.3006
27872SOL    HW287979   8.222  10.562   1.749 -0.5588  0.3109  0.2525
27873SOL     OW87980   7.270   4.869  10.699  0.5358  0.1860  0.1911
27873SOL    HW187981   7.361   4.837  10.706  0.1057 -0.7268  3.2641
27873SOL    HW287982   7.266   4.942  10.760 -1.0540 -0.4954  0.9373
27874SOL     OW87983   2.820   8.063   7.041 -0.5295 -0.2763  0.9247
27874SOL    HW187984   2.914   8.079   7.048 -0.4699  1.0089 -1.6265
27874SOL    HW287985   2.792   8.045   7.130  2.3965 -2.4171  1.5664
27875SOL     OW87986   8.191   3.817   0.142 -0.0269  0.2677  0.2102
27875SOL    HW187987   8.107   3.846   0.178  0.3889  1.4242  0.2907
27875SOL    HW287988   8.198   3.862   0.058  0.7195  0.5531  0.4169
27876SOL     OW87989   6.312  10.635   4.744  0.2944  0.2371  0.0512
27876SOL    HW187990   6.240  10.691   4.715  0.0105  0.1828  0.6279
27876SOL    HW287991   6.284  10.546   4.722  0.9287  0.3340 -1.2464
27877SOL     OW87992   3.151   5.384  10.640 -0.1849 -0.7085 -0.0365
27877SOL    HW187993   3.077   5.327  10.660 -0.5294 -0.2200  0.0994
27877SOL    HW287994   3.218   5.325  10.605 -0.8371 -1.0801 -0.6880
27878SOL     OW87995   9.489   8.592  10.764  0.7582 -0.0978  0.1982
27878SOL    HW187996   9.479   8.633  10.850 -0.5237 -0.1974  0.1077
27878SOL    HW287997   9.439   8.511  10.770 -0.4896  0.5492 -1.0728
27879SOL     OW87998  11.094   3.743   2.467 -0.3840 -0.3734 -0.3494
27879SOL    HW187999  11.022   3.699   2.421 -1.4469  2.1215 -1.2676
27879SOL    HW288000  11.059   3.760   2.554  0.2846 -1.8676  0.2412
27880SOL     OW88001   0.280   2.544   1.645 -0.5434 -0.6352  0.0523
27880SOL    HW188002   0.267   2.457   1.607  0.3382 -0.1402 -1.4461
27880SOL    HW288003   0.310   2.598   1.572  1.8766  0.2056  1.5692
27881SOL     OW88004   2.815   8.467  11.103 -0.5601  0.0703 -0.1358
27881SOL    HW188005   2.749   8.400  11.124 -1.1955  0.9442  0.7007
27881SOL    HW288006   2.765   8.547  11.089  0.3012  0.6872  0.2358
27882SOL     OW88007   6.634   9.195   1.974 -0.0869 -0.0969  0.0069
27882SOL    HW188008   6.642   9.290   1.961 -0.3848 -0.3441 -2.4768
27882SOL    HW288009   6.692   9.157   1.909  1.0340 -1.6796  1.8300
27883SOL     OW88010   4.769   9.589   2.768 -0.2400  0.0843 -0.0345
27883SOL    HW188011   4.691   9.633   2.733  0.8277  0.6612 -1.8397
27883SOL    HW288012   4.736   9.533   2.837 -2.3884 -0.3583 -1.3269
27884SOL     OW88013   5.667   6.605   6.284 -0.5260 -0.0710 -0.5926
27884SOL    HW188014   5.726   6.654   6.342 -0.1618 -0.0359 -0.9878
27884SOL    HW288015   5.723   6.576   6.212 -1.1395  0.6126 -1.3634
27885SOL     OW88016   4.693   4.415   4.907 -0.0561  0.0542  0.0360
27885SOL    HW188017   4.733   4.495   4.940 -1.2590  0.1989  1.2499
27885SOL    HW288018   4.599   4.427   4.921 -0.3009 -1.4290 -0.0870
27886SOL     OW88019   8.310   9.275   9.426  0.3301  0.0200  0.1155
27886SOL    HW188020   8.324   9.349   9.486 -1.0167  1.8449 -1.6553
27886SOL    HW288021   8.237   9.227   9.464 -2.2268  2.5853 -1.0892
27887SOL     OW88022   7.200   4.836   3.288  0.2582 -0.0062  0.0727
27887SOL    HW188023   7.284   4.822   3.331  0.4005  2.2440  0.6458
27887SOL    HW288024   7.149   4.887   3.351 -1.3275 -0.7846 -0.5254
27888SOL     OW88025   9.035   4.196   5.073 -0.6477 -0.2361 -0.5826
27888SOL    HW188026   8.990   4.179   5.155 -1.3809  2.0984 -0.4303
27888SOL    HW288027   9.012   4.121   5.017 -1.9461 -0.7656  0.6109
27889SOL     OW88028   4.339   5.453   1.440 -0.3229 -0.1521  0.1825
27889SOL    HW188029   4.299   5.374   1.404 -0.4545  0.1574 -0.3465
27889SOL    HW288030   4.403   5.480   1.375 -0.2980  0.1981  0.3499
27890SOL     OW88031   4.461   7.193   1.834 -0.2239 -0.2428  0.1338
27890SOL    HW188032   4.459   7.270   1.891 -0.6115  0.0698 -0.2929
27890SOL    HW288033   4.534   7.210   1.774  0.0241 -0.4540  0.3765
27891SOL     OW88034   9.535   2.093   0.618 -0.3858  0.6316 -0.2233
27891SOL    HW188035   9.545   2.088   0.713 -1.5083 -1.0953 -0.1576
27891SOL    HW288036   9.624   2.084   0.585 -0.1433 -0.3902  0.6436
27892SOL     OW88037   7.740   6.032   6.489  0.4490  0.4049  0.4505
27892SOL    HW188038   7.808   6.048   6.423  1.4620  0.5651  1.4994
27892SOL    HW288039   7.738   5.936   6.498  0.1411  0.3700  0.0190
27893SOL     OW88040   4.169   4.444   4.042  0.6050 -0.5927  0.1220
27893SOL    HW188041   4.228   4.516   4.017  1.1281 -0.2228  2.2036
27893SOL    HW288042   4.153   4.397   3.960  1.7368  0.7997 -0.9734
27894SOL     OW88043   0.024   1.732   4.412  0.2650  0.2472 -0.2372
27894SOL    HW188044   0.113   1.709   4.385  0.5280  3.8612 -3.2994
27894SOL    HW288045   0.035   1.768   4.500  1.8389  0.5493 -0.5125
27895SOL     OW88046   9.510   5.194   5.372 -0.5992  0.4700  0.2291
27895SOL    HW188047   9.447   5.254   5.411 -0.7178  0.3520  0.2186
27895SOL    HW288048   9.569   5.251   5.322 -0.5229  0.6078  0.4740
27896SOL     OW88049   0.028   1.259  10.919  0.4560 -0.8189  0.9250
27896SOL    HW188050   0.101   1.243  10.859  0.7489 -1.4623  1.4372
27896SOL    HW288051  -0.048   1.222  10.875  0.1736  0.9565 -0.1777
27897SOL     OW88052   7.668  10.031   5.236 -0.1003 -1.2341 -0.4527
27897SOL    HW188053   7.576  10.023   5.262 -0.1002 -0.5776 -0.2479
27897SOL    HW288054   7.711   9.956   5.279 -0.5718 -1.6674 -0.7251
27898SOL     OW88055   6.865   3.744   5.646 -0.0702  0.0710 -0.3233
27898SOL    HW188056   6.791   3.799   5.622 -0.4167  0.8405  2.2144
27898SOL    HW288057   6.942   3.792   5.617 -0.4851  0.3831 -0.9082
27899SOL     OW88058   5.348   9.794   7.196 -0.2984 -0.7256 -0.0962
27899SOL    HW188059   5.374   9.789   7.289 -0.5929  1.7373  0.1711
27899SOL    HW288060   5.255   9.775   7.196 -0.5542  0.4381  0.3089
27900SOL     OW88061   2.836   4.023   2.977  0.3283 -0.0790 -0.3217
27900SOL    HW188062   2.823   4.115   2.954  0.4098 -0.2681 -1.1831
27900SOL    HW288063   2.758   3.979   2.943  1.0254 -0.5458 -1.3798
27901SOL     OW88064   4.891   1.032   5.309 -0.0705 -0.6613  0.0503
27901SOL    HW188065   4.976   1.062   5.277  0.0034 -0.0500  0.7938
27901SOL    HW288066   4.904   1.021   5.403 -0.7244 -0.8909  0.1173
27902SOL     OW88067   7.412   2.365   5.457  0.0907  0.4742  0.2008
27902SOL    HW188068   7.383   2.335   5.543 -1.2699 -0.4916 -0.5540
27902SOL    HW288069   7.483   2.305   5.433 -0.9655 -0.6551 -0.2335
27903SOL     OW88070   6.508   4.369   9.050  0.5926  0.7304  0.7175
27903SOL    HW188071   6.462   4.446   9.015  1.0439  1.6184  1.9767
27903SOL    HW288072   6.601   4.390   9.040  0.7283 -0.2751 -0.1996
27904SOL     OW88073   6.979   8.192   3.272 -0.9772 -0.2779  0.1936
27904SOL    HW188074   7.001   8.194   3.179 -0.2929  1.3112  0.3503
27904SOL    HW288075   6.933   8.109   3.285 -0.8057 -0.6594 -1.4909
27905SOL     OW88076   5.797   1.573   3.891  0.3379 -0.0112  0.2518
27905SOL    HW188077   5.796   1.509   3.962  0.8752  1.9878  2.1933
27905SOL    HW288078   5.889   1.597   3.881  0.3127 -0.4736 -1.3805
27906SOL     OW88079   6.812   8.435   9.811 -0.2855 -0.7187  0.0180
27906SOL    HW188080   6.906   8.418   9.806 -0.3159 -2.6216  3.1979
27906SOL    HW288081   6.803   8.503   9.878 -1.1574  1.0826 -1.7988
27907SOL     OW88082   5.609   4.948   4.901 -0.2232  0.0602  0.5585
27907SOL    HW188083   5.592   4.896   4.823  4.2347 -0.0587 -0.6228
27907SOL    HW288084   5.564   5.031   4.886  1.5419  0.5476 -2.8754
27908SOL     OW88085   8.434  10.935   9.419  0.5515 -0.3458  0.0942
27908SOL    HW188086   8.442  11.012   9.476 -0.9570 -0.0885  0.0034
27908SOL    HW288087   8.403  10.971   9.335 -2.6020 -1.1909  0.7441
27909SOL     OW88088   9.043   6.424   9.076 -0.1606 -0.8254 -0.0624
27909SOL    HW188089   9.035   6.458   9.165 -1.0425  0.1862 -0.5159
27909SOL    HW288090   9.121   6.368   9.079  1.8490  1.8282  0.5359
27910SOL     OW88091   5.858   2.100   0.001  0.5494 -0.0823 -0.0980
27910SOL    HW188092   5.876   2.009  -0.024  0.7766 -0.4432  1.2773
27910SOL    HW288093   5.928   2.151  -0.040  0.3023 -0.4835 -1.0499
27911SOL     OW88094   8.434   4.181   1.140 -0.7721  0.3912  0.1287
27911SOL    HW188095   8.464   4.234   1.214  0.7781  0.0024 -0.2009
27911SOL    HW288096   8.396   4.245   1.079 -3.1147  0.6140  1.6837
27912SOL     OW88097   5.479   2.998   8.626 -0.2758 -0.5719  0.0721
27912SOL    HW188098   5.540   3.055   8.672 -1.4993  0.8417  0.0049
27912SOL    HW288099   5.447   2.938   8.693 -0.0166 -0.2725  0.4678
27913SOL     OW88100   5.156   1.147   8.391 -0.6502  0.0966 -0.1596
27913SOL    HW188101   5.227   1.123   8.451 -1.7925 -0.6639  0.9442
27913SOL    HW288102   5.100   1.205   8.441 -1.4999 -0.3533 -0.5578
27914SOL     OW88103   8.722   0.454   0.928  0.4110  0.1781  0.3223
27914SOL    HW188104   8.674   0.536   0.919  2.4646  1.4285  0.1956
27914SOL    HW288105   8.799   0.476   0.981  1.4584 -1.4637 -0.4116
27915SOL     OW88106   1.246   3.217   7.587 -0.0643 -0.1417  0.1765
27915SOL    HW188107   1.337   3.213   7.557 -0.8768  0.0791 -2.6171
27915SOL    HW288108   1.197   3.171   7.519 -2.2440  1.2523  0.7235
27916SOL     OW88109   9.183   5.783   5.274  0.2170  0.2983 -0.2762
27916SOL    HW188110   9.216   5.758   5.188 -2.5259  1.3932 -1.7908
27916SOL    HW288111   9.255   5.831   5.315  1.2621  0.6767 -2.4183
27917SOL     OW88112   6.389   6.788  10.435 -0.0682 -0.2720 -0.0637
27917SOL    HW188113   6.381   6.775  10.340  2.6626  1.5884 -0.6670
27917SOL    HW288114   6.389   6.883  10.446  0.6749 -0.4418  1.6952
27918SOL     OW88115   3.464   9.342   0.893 -0.0201 -0.1750 -0.4475
27918SOL    HW188116   3.526   9.333   0.965  2.0506 -1.0338 -2.2398
27918SOL    HW288117   3.403   9.269   0.906 -0.0954  0.0675  0.7598
27919SOL     OW88118   0.770  10.318   8.275  0.2522  0.5061 -0.3627
27919SOL    HW188119   0.771  10.230   8.238 -0.0509  0.5312 -0.4300
27919SOL    HW288120   0.846  10.320   8.334 -1.7361 -1.0414  2.5145
27920SOL     OW88121   8.977   2.645   2.829 -0.1018  0.3721 -0.1960
27920SOL    HW188122   8.900   2.687   2.866 -0.1743  1.9649 -1.9914
27920SOL    HW288123   9.038   2.717   2.812  1.1648 -0.6723 -0.2317
27921SOL     OW88124   3.348   0.044   7.072 -0.1289 -0.0904  0.5982
27921SOL    HW188125   3.391   0.039   6.986 -1.6967  1.1878 -0.3285
27921SOL    HW288126   3.396   0.112   7.119  2.2265 -2.3806  1.7171
27922SOL     OW88127   2.130   6.462   3.173 -0.0074 -0.0471 -0.3616
27922SOL    HW188128   2.124   6.526   3.102 -2.2858 -0.6176 -0.7596
27922SOL    HW288129   2.054   6.406   3.161  1.6600 -2.5824  0.2488
27923SOL     OW88130   4.928   5.353   3.572 -0.3298  0.6153  0.3030
27923SOL    HW188131   4.985   5.429   3.589  1.0311 -0.4535  0.6513
27923SOL    HW288132   4.988   5.281   3.556 -1.6092 -0.1789 -1.1712
27924SOL     OW88133   6.474   8.803   4.727  0.2410  0.1402 -0.1954
27924SOL    HW188134   6.389   8.783   4.766 -0.5269 -0.4956 -2.0713
27924SOL    HW288135   6.537   8.790   4.798 -1.1156 -0.4064  0.9571
27925SOL     OW88136   8.733   1.708   6.867  0.0612  0.1881  0.0831
27925SOL    HW188137   8.764   1.787   6.910  0.3491  0.1767 -0.1038
27925SOL    HW288138   8.643   1.729   6.841  0.2519  0.5730 -0.2729
27926SOL     OW88139   8.860   8.219   9.930 -0.5358 -0.1385 -0.0188
27926SOL    HW188140   8.910   8.256  10.003 -0.1306  0.5998 -0.6502
27926SOL    HW288141   8.904   8.253   9.852  0.0615 -2.2155 -0.6671
27927SOL     OW88142   3.861   6.928   2.142  0.0573  0.0961 -0.1043
27927SOL    HW188143   3.798   6.865   2.108  1.0869 -1.2806  0.4641
27927SOL    HW288144   3.923   6.943   2.070  0.6169 -0.6408  0.2149
27928SOL     OW88145   1.557   5.744   4.293 -0.4593 -0.3807 -0.7597
27928SOL    HW188146   1.542   5.654   4.265 -0.7382 -0.4241 -0.4728
27928SOL    HW288147   1.534   5.797   4.216 -0.5904 -0.5360 -0.8277
27929SOL     OW88148   0.865  10.119   4.069 -0.3510  0.2418 -0.5328
27929SOL    HW188149   0.906  10.185   4.014 -2.2277  1.3749 -0.6359
27929SOL    HW288150   0.896  10.139   4.157  0.2156  0.3483 -0.7492
27930SOL     OW88151   1.633   7.234   6.822  0.1873 -0.6833  0.2502
27930SOL    HW188152   1.611   7.141   6.828 -0.7473 -0.6046 -1.4434
27930SOL    HW288153   1.729   7.237   6.826  0.2321 -1.7372  0.0662
27931SOL     OW88154   4.462   4.998   1.861 -0.0791 -0.2837 -0.1079
27931SOL    HW188155   4.471   5.041   1.775 -0.5706 -1.0970 -0.5805
27931SOL    HW288156   4.541   4.943   1.868 -1.0432 -1.8639 -1.0233
27932SOL     OW88157  10.353   5.172   9.178  0.3659  0.1276 -0.0790
27932SOL    HW188158  10.428   5.122   9.148  0.9761  0.2935  1.0973
27932SOL    HW288159  10.354   5.252   9.125  1.3448  0.3656  0.2761
27933SOL     OW88160   1.941   1.052   1.878 -0.2587 -0.3935 -0.4388
27933SOL    HW188161   1.896   0.986   1.825 -2.1871 -0.2599  0.9205
27933SOL    HW288162   1.928   1.134   1.831  0.7778 -0.7156 -1.3258
27934SOL     OW88163  11.078   9.263   8.879  0.3406 -0.2239  0.5091
27934SOL    HW188164  10.983   9.263   8.894  0.2075  0.3214 -0.2584
27934SOL    HW288165  11.095   9.348   8.840  0.7395 -1.2988 -1.8076
27935SOL     OW88166   5.805   2.941   7.585 -0.2986  0.0716 -0.4396
27935SOL    HW188167   5.710   2.930   7.593 -0.2567 -1.4645 -1.6983
27935SOL    HW288168   5.841   2.906   7.666 -0.8195  1.7109  0.5624
27936SOL     OW88169   6.185   8.668   2.003  0.0236 -0.2273 -0.0235
27936SOL    HW188170   6.262   8.722   1.988  1.3690 -0.8509  3.5707
27936SOL    HW288171   6.219   8.578   2.007 -0.8356 -0.5234  1.5237
27937SOL     OW88172   3.180   9.900  10.286 -0.0735 -0.0646  0.0818
27937SOL    HW188173   3.207   9.947  10.365  0.2819 -2.2299  1.3172
27937SOL    HW288174   3.084   9.894  10.294  0.0461 -1.1958  0.9426
27938SOL     OW88175   4.498   8.954   4.541  0.0686 -0.2307 -0.2716
27938SOL    HW188176   4.444   8.895   4.488  0.0679 -0.5245  0.0527
27938SOL    HW288177   4.503   8.911   4.627  0.3282  0.0870 -0.1276
27939SOL     OW88178  10.526   2.131   4.205  0.4255  0.5844 -0.5944
27939SOL    HW188179  10.617   2.122   4.179  0.8399  0.5452  0.7853
27939SOL    HW288180  10.528   2.189   4.281 -0.8965  2.0063 -1.5646
27940SOL     OW88181   6.270   3.493   7.916  0.0017 -0.7654  0.2256
27940SOL    HW188182   6.296   3.423   7.857  1.8227 -2.0798  2.4282
27940SOL    HW288183   6.243   3.448   7.996 -0.3005  0.9892  1.1605
27941SOL     OW88184   4.703   5.385   9.971  0.4061  0.3479  0.0703
27941SOL    HW188185   4.788   5.418   9.941  2.1895 -2.4874  1.4912
27941SOL    HW288186   4.691   5.425  10.057  1.3040 -0.6168  0.6780
27942SOL     OW88187   5.113   8.531  10.790 -0.1418  0.3131  0.1370
27942SOL    HW188188   5.144   8.592  10.857 -0.6291  0.7057  0.0110
27942SOL    HW288189   5.188   8.473  10.773 -0.4130 -0.6814  2.0083
27943SOL     OW88190   2.705   4.890   0.511 -0.0231 -0.1888 -0.6537
27943SOL    HW188191   2.651   4.859   0.584 -0.6596  0.2320 -0.9409
27943SOL    HW288192   2.794   4.864   0.535 -0.1879  0.1887  0.4000
27944SOL     OW88193   2.875  10.248   5.312  0.3115  0.1379 -0.3799
27944SOL    HW188194   2.917  10.314   5.366  0.2324 -1.1582  1.3608
27944SOL    HW288195   2.839  10.296   5.238  0.3823  2.0029  0.7456
27945SOL     OW88196   6.565   0.734  10.923 -0.4473 -0.2443  0.2538
27945SOL    HW188197   6.481   0.716  10.880 -0.9613 -1.9769  1.8535
27945SOL    HW288198   6.583   0.826  10.903 -0.9892 -0.7298 -2.9777
27946SOL     OW88199   8.783   9.748   2.268  0.4823  0.2040  0.5563
27946SOL    HW188200   8.811   9.837   2.245  2.5945 -0.5252  0.1061
27946SOL    HW288201   8.817   9.734   2.356  2.5794 -1.0607 -0.3817
27947SOL     OW88202   1.150   6.949   2.239  0.1706  0.1243 -0.4320
27947SOL    HW188203   1.232   6.937   2.287 -0.2371  0.0202  0.2443
27947SOL    HW288204   1.086   6.897   2.287  0.2413 -2.0417 -2.4669
27948SOL     OW88205   8.808   2.321   2.228 -0.4180  0.0297 -0.0898
27948SOL    HW188206   8.900   2.306   2.249 -0.5779  0.0776  0.7030
27948SOL    HW288207   8.763   2.317   2.313 -1.1319  0.1108 -0.4505
27949SOL     OW88208   5.467   8.665   4.053  0.0602 -0.6510  0.7031
27949SOL    HW188209   5.539   8.619   4.096  0.4952 -0.1553  0.5095
27949SOL    HW288210   5.485   8.757   4.068  0.4541 -0.4397 -0.9042
27950SOL     OW88211   9.251   3.781   5.070 -0.0413 -0.4758  0.1547
27950SOL    HW188212   9.252   3.843   5.143 -1.2837 -0.2934  0.0355
27950SOL    HW288213   9.213   3.831   4.997 -1.7546 -1.5489  0.2528
27951SOL     OW88214   9.003   9.042   7.286 -0.3148 -0.3904 -0.0568
27951SOL    HW188215   9.013   9.065   7.378  1.3248  0.0041 -0.3074
27951SOL    HW288216   9.072   9.091   7.241 -1.5960  0.0563 -1.6187
27952SOL     OW88217   0.118   5.920   7.496 -0.3172 -0.0859 -0.2588
27952SOL    HW188218   0.049   5.911   7.430 -0.2651  1.8699 -0.6519
27952SOL    HW288219   0.188   5.863   7.465 -0.1555  1.0283 -2.1662
27953SOL     OW88220   9.004   6.986   1.847 -0.1586  0.3071 -0.5511
27953SOL    HW188221   8.954   7.061   1.879  0.5481  0.2360  0.8285
27953SOL    HW288222   9.080   7.024   1.803 -0.9518  0.4033 -1.8845
27954SOL     OW88223   9.489  11.042   2.527  0.1510 -0.6720  0.2681
27954SOL    HW188224   9.552  11.111   2.545  0.3425 -1.0560  1.1202
27954SOL    HW288225   9.494  10.984   2.603  0.3027 -1.8519 -0.6061
27955SOL     OW88226   2.640   9.743   2.338  0.2792 -0.2165  0.0198
27955SOL    HW188227   2.685   9.663   2.365  2.9555  0.6355 -1.5954
27955SOL    HW288228   2.683   9.812   2.388 -0.7900  0.4144  0.0878
27956SOL     OW88229   5.490   8.196  10.836  0.2855 -0.7101  0.0490
27956SOL    HW188230   5.465   8.187  10.928 -0.7318 -0.6591 -0.2026
27956SOL    HW288231   5.485   8.106  10.802  0.4781 -0.7027  0.0036
27957SOL     OW88232   7.646   1.964   4.754  0.1072 -0.6421  0.0570
27957SOL    HW188233   7.712   1.981   4.687 -0.7298  1.0913 -0.3837
27957SOL    HW288234   7.695   1.952   4.835  1.0490 -1.3194 -0.5994
27958SOL     OW88235   1.044   1.927   3.671  0.2094  0.1558 -0.3853
27958SOL    HW188236   1.055   1.975   3.589 -1.2826 -2.5189 -2.3055
27958SOL    HW288237   0.971   1.971   3.716 -0.8232  0.0153 -1.8656
27959SOL     OW88238   4.791   3.000   4.768 -0.1384  0.0454  0.2858
27959SOL    HW188239   4.868   3.053   4.787 -1.5897  2.7523 -0.9240
27959SOL    HW288240   4.780   2.945   4.846  1.8053  1.0494  1.3295
27960SOL     OW88241   8.479   6.608  10.315  0.0321 -0.2606  0.5725
27960SOL    HW188242   8.413   6.556  10.269  0.8545 -0.0419 -0.9034
27960SOL    HW288243   8.485   6.689  10.264  0.5720  0.2331  1.4029
27961SOL     OW88244   3.763   1.133   6.611  0.4641 -0.1405 -0.3906
27961SOL    HW188245   3.790   1.123   6.703 -0.3743  0.0345 -0.1169
27961SOL    HW288246   3.811   1.209   6.580 -2.3955  2.5463  1.1894
27962SOL     OW88247   0.190   7.313   4.779 -0.2235 -0.7343  0.2177
27962SOL    HW188248   0.187   7.228   4.737 -0.3612 -1.0057  0.7626
27962SOL    HW288249   0.108   7.318   4.830 -0.0982 -0.3889  0.3931
27963SOL     OW88250   9.580   7.443   1.428  0.0531 -0.1548  0.4016
27963SOL    HW188251   9.544   7.527   1.455 -2.1558 -0.4472 -1.3709
27963SOL    HW288252   9.646   7.464   1.362  0.6079  0.2068  1.0517
27964SOL     OW88253   5.011   7.184   2.356 -1.0135 -0.1392 -0.5006
27964SOL    HW188254   5.066   7.157   2.283  2.0056  0.3377  1.4602
27964SOL    HW288255   5.031   7.277   2.368 -1.8296 -0.0893  0.6496
27965SOL     OW88256   3.880   7.957   4.923 -0.4488 -0.0730  0.1991
27965SOL    HW188257   3.906   7.958   4.830 -1.0620  2.2778 -0.0027
27965SOL    HW288258   3.847   7.869   4.937  0.5250 -0.7792 -1.5665
27966SOL     OW88259   7.888   6.595   0.022  0.3049  0.2368 -0.3577
27966SOL    HW188260   7.914   6.640  -0.059 -0.4251 -0.2660 -0.8820
27966SOL    HW288261   7.914   6.655   0.092  1.6284  0.3489 -0.9173
27967SOL     OW88262   4.224   3.363   3.529  0.6845  0.0279 -0.7251
27967SOL    HW188263   4.229   3.445   3.480 -0.2638  0.0864 -0.7475
27967SOL    HW288264   4.130   3.351   3.546  0.7583 -1.3055 -1.1500
27968SOL     OW88265  10.438   7.637   6.597  0.1202 -0.3194 -0.2350
27968SOL    HW188266  10.391   7.699   6.541 -1.0614  0.2459  1.3301
27968SOL    HW288267  10.460   7.564   6.538 -2.6726 -0.5889 -1.0904
27969SOL     OW88268   0.742   4.250   4.535  0.5066  0.4199 -1.1489
27969SOL    HW188269   0.821   4.303   4.549  1.1918 -0.7245 -0.5413
27969SOL    HW288270   0.692   4.262   4.616  0.4233  0.5308 -1.2167
27970SOL     OW88271   5.003   6.740   7.369 -0.4608  0.2154 -0.2382
27970SOL    HW188272   4.997   6.657   7.416  0.2114  0.4250  0.2273
27970SOL    HW288273   5.037   6.716   7.282 -3.9066 -0.4913 -1.5486
27971SOL     OW88274   2.306   7.518   4.098  0.2047  0.3069 -0.0787
27971SOL    HW188275   2.269   7.602   4.128  1.3744  1.1285 -0.8671
27971SOL    HW288276   2.368   7.542   4.030  2.0166 -1.0436  0.9934
27972SOL     OW88277  10.858   1.370   6.973  0.3295  0.2531 -0.1018
27972SOL    HW188278  10.799   1.302   6.942  0.6752 -1.6386  2.9836
27972SOL    HW288279  10.799   1.440   7.003 -0.1574  0.1168 -0.7168
27973SOL     OW88280   3.743   5.770   5.175  0.4946 -0.1024 -0.0905
27973SOL    HW188281   3.766   5.698   5.116  1.0427 -0.8249  0.9745
27973SOL    HW288282   3.827   5.808   5.201  0.2701  0.1253  0.3194
27974SOL     OW88283   5.695  10.459   7.080  0.0230 -0.8876 -0.1825
27974SOL    HW188284   5.616  10.416   7.049  0.8703 -1.6550 -1.3978
27974SOL    HW288285   5.762  10.436   7.015  1.0340  0.4621  0.3201
27975SOL     OW88286   6.347   9.083   5.930 -0.1113  0.2468  0.4172
27975SOL    HW188287   6.294   9.004   5.940 -0.8251  0.6946  0.1971
27975SOL    HW288288   6.395   9.090   6.013  0.6970 -0.9429  0.0766
27976SOL     OW88289   5.795   1.953   5.083 -0.2456  0.0008 -0.1916
27976SOL    HW188290   5.786   1.877   5.025 -1.4078 -0.9860  1.1899
27976SOL    HW288291   5.805   1.915   5.170 -1.6757  1.4129  0.6406
27977SOL     OW88292   4.094   6.409   0.113  0.1751 -0.0578  0.4990
27977SOL    HW188293   4.052   6.324   0.127  3.0009 -1.5453  0.7372
27977SOL    HW288294   4.101   6.416   0.018 -2.3260  1.2057  0.3312
27978SOL     OW88295   3.588   3.822  10.970  0.0039  0.5468  0.7786
27978SOL    HW188296   3.554   3.781  11.049 -0.1603 -2.2118 -0.6175
27978SOL    HW288297   3.510   3.843  10.918  0.1504 -1.8220 -0.5369
27979SOL     OW88298   9.168   6.930   6.361 -0.3620 -0.0058 -0.2260
27979SOL    HW188299   9.255   6.914   6.325 -0.8450 -2.7335 -0.4156
27979SOL    HW288300   9.109   6.920   6.286 -0.8983  1.3501 -0.0092
27980SOL     OW88301   9.657   7.097   8.937 -0.3877 -0.7868  0.2402
27980SOL    HW188302   9.562   7.094   8.952 -0.5238  1.6972  0.3801
27980SOL    HW288303   9.666   7.123   8.845  0.1920 -1.8545 -0.0164
27981SOL     OW88304   3.111   7.179   8.242  0.1847  0.1620  0.0188
27981SOL    HW188305   3.017   7.162   8.239 -0.1391  1.8516 -0.2680
27981SOL    HW288306   3.121   7.253   8.302  1.0721  1.4313 -1.6050
27982SOL     OW88307   6.058   2.475  10.481 -0.1970 -0.3967 -0.2778
27982SOL    HW188308   6.145   2.464  10.444  0.0537 -0.5744  0.3470
27982SOL    HW288309   6.070   2.539  10.551 -0.2867 -1.4174  0.7075
27983SOL     OW88310   6.532   1.372   2.227  0.1615  0.2493  0.7733
27983SOL    HW188311   6.446   1.413   2.240  0.0754  0.3801 -0.1727
27983SOL    HW288312   6.521   1.283   2.261 -0.7782 -0.1981 -0.6125
27984SOL     OW88313   7.335   7.545   5.524  0.0510  0.1046  0.0158
27984SOL    HW188314   7.389   7.488   5.579  0.3541  0.3137 -0.0636
27984SOL    HW288315   7.343   7.632   5.563 -2.4148 -0.2954  1.6416
27985SOL     OW88316   7.670   0.875   3.304  0.2524  0.6657  0.1689
27985SOL    HW188317   7.578   0.848   3.304  0.0974  1.1626 -0.7540
27985SOL    HW288318   7.699   0.859   3.214  0.7248  1.6323  0.1379
27986SOL     OW88319   0.022   0.068   6.139 -0.0969  0.2392 -0.0653
27986SOL    HW188320  -0.046   0.135   6.134 -0.5608 -0.2405 -0.3203
27986SOL    HW288321   0.038   0.057   6.233 -0.9654 -0.2216  0.0459
27987SOL     OW88322   5.494   3.789   8.609 -0.2809 -0.2106 -0.5145
27987SOL    HW188323   5.403   3.770   8.589 -0.3377 -1.3205  0.6762
27987SOL    HW288324   5.493   3.824   8.698  0.5125 -1.0698 -0.1445
27988SOL     OW88325   2.583   4.598   7.090  0.1067  0.2811 -0.5796
27988SOL    HW188326   2.529   4.658   7.142 -0.4555  0.4436 -1.3341
27988SOL    HW288327   2.563   4.621   7.000  0.7089 -0.3259 -0.8717
27989SOL     OW88328   1.059   1.679   0.819 -0.0022  0.5723 -0.4242
27989SOL    HW188329   0.987   1.616   0.819 -1.0491  1.7234  0.5286
27989SOL    HW288330   1.080   1.691   0.727 -1.4652  0.6959 -0.7682
27990SOL     OW88331   8.224   2.097   3.547  0.7181  0.2672  0.0642
27990SOL    HW188332   8.315   2.122   3.536  0.8580 -0.0232  0.5439
27990SOL    HW288333   8.182   2.122   3.465  1.7388 -1.9206 -1.2094
27991SOL     OW88334  10.773   7.454   0.179  0.8694 -0.2471 -0.0072
27991SOL    HW188335  10.777   7.403   0.097  0.2078  0.5037 -0.5268
27991SOL    HW288336  10.748   7.390   0.245  0.9095 -0.7700 -0.4836
27992SOL     OW88337   3.413   8.389   7.830 -0.4559 -0.5243  0.0103
27992SOL    HW188338   3.355   8.464   7.816  0.2853  0.1285  0.3802
27992SOL    HW288339   3.389   8.328   7.761 -1.6460 -0.3077  0.2071
27993SOL     OW88340   8.019   7.446   6.273 -0.3067  0.0152  0.1264
27993SOL    HW188341   7.957   7.468   6.203 -1.9275 -0.0126  1.5098
27993SOL    HW288342   8.062   7.366   6.242 -1.0416 -0.0452 -0.7939
27994SOL     OW88343   5.000   2.169   9.950  0.0017 -0.1952  0.5111
27994SOL    HW188344   5.044   2.089   9.981 -0.9262 -0.3980  1.3821
27994SOL    HW288345   4.989   2.156   9.856  2.1330  0.0409  0.1963
27995SOL     OW88346   5.420   2.570  10.316  0.1721  0.1203  0.3971
27995SOL    HW188347   5.505   2.535  10.291 -0.3507 -0.0290 -1.2869
27995SOL    HW288348   5.357   2.515  10.271 -0.8826 -0.2829  2.2521
27996SOL     OW88349  10.757   2.295   6.538  0.0410  0.0219  0.0099
27996SOL    HW188350  10.744   2.226   6.603  3.3883 -1.6403 -0.8583
27996SOL    HW288351  10.765   2.249   6.455  1.1952  1.5631 -0.7823
27997SOL     OW88352  10.735   3.640   4.924 -1.0638  0.1151  0.2985
27997SOL    HW188353  10.759   3.725   4.960 -0.8043  0.3301 -0.3687
27997SOL    HW288354  10.811   3.585   4.941 -0.4570  0.5298 -0.9270
27998SOL     OW88355   8.617   7.192   5.946 -0.1452  0.1562  0.4718
27998SOL    HW188356   8.529   7.203   5.910  0.6727 -0.5416 -1.9690
27998SOL    HW288357   8.609   7.118   6.006 -1.5203  1.1644  1.6187
27999SOL     OW88358   6.620   7.317   9.079  0.2443 -0.3872 -0.2359
27999SOL    HW188359   6.584   7.324   8.991  0.1358 -1.6196 -0.3007
27999SOL    HW288360   6.711   7.346   9.070  0.2300 -0.4991 -0.7436
28000SOL     OW88361  10.778   8.373   7.005 -0.0164 -0.0247  0.7649
28000SOL    HW188362  10.860   8.375   6.956 -0.3183 -0.2724  0.2471
28000SOL    HW288363  10.805   8.381   7.097  0.7519 -2.1855  0.7806
28001SOL     OW88364   9.378   4.487   6.070 -0.1436 -0.1587  0.5449
28001SOL    HW188365   9.305   4.480   6.008 -0.5007  0.6300  0.8572
28001SOL    HW288366   9.417   4.400   6.071 -1.0072 -0.5629  0.2770
28002SOL     OW88367   4.103   8.269   4.001  0.1957 -0.7439  0.7665
28002SOL    HW188368   4.147   8.352   4.019 -0.1896  0.0657 -1.6527
28002SOL    HW288369   4.020   8.275   4.048 -0.5700  1.0402 -0.6678
28003SOL     OW88370   9.027  11.082   0.262  0.4717 -0.7032  0.9133
28003SOL    HW188371   9.008  11.117   0.175  0.2350  0.5318  1.4397
28003SOL    HW288372   8.973  11.134   0.321  0.4840 -1.6554  1.7873
28004SOL     OW88373   7.472   3.601   6.388  0.3310  0.6216 -0.3810
28004SOL    HW188374   7.531   3.597   6.312 -0.9268  1.2794 -1.4506
28004SOL    HW288375   7.475   3.693   6.415  0.8893  0.3580  0.4877
28005SOL     OW88376   4.018   3.359   9.089  0.5711 -0.0356 -0.1044
28005SOL    HW188377   4.043   3.272   9.118 -0.6043 -0.3155  0.1061
28005SOL    HW288378   4.096   3.392   9.043  1.0813 -1.1169 -0.0419
28006SOL     OW88379   7.433   7.247   1.211 -0.6752  0.3154 -0.6344
28006SOL    HW188380   7.432   7.199   1.128  2.2941  0.5202 -0.8706
28006SOL    HW288381   7.478   7.329   1.191  1.8266 -0.4166  1.5207
28007SOL     OW88382   3.522   0.612   2.665 -0.2998  0.1075  0.0458
28007SOL    HW188383   3.452   0.596   2.728  0.7593  2.2406  1.9021
28007SOL    HW288384   3.576   0.533   2.669 -2.3179 -1.4486 -1.1935
28008SOL     OW88385  10.796   3.831   2.624  0.4382  0.7477  0.4960
28008SOL    HW188386  10.726   3.873   2.574  1.4635  3.1266  0.9209
28008SOL    HW288387  10.756   3.812   2.709 -0.3959 -0.3484 -0.1201
28009SOL     OW88388   8.953   1.271  10.569 -0.5211  0.5751  0.0702
28009SOL    HW188389   9.045   1.246  10.577 -0.6551  0.2599  0.6770
28009SOL    HW288390   8.924   1.229  10.489  0.3663  2.2811 -1.2085
28010SOL     OW88391   0.918   8.384   7.182 -0.4182 -1.0193  0.1732
28010SOL    HW188392   0.824   8.398   7.182 -0.6358 -2.1422 -1.6155
28010SOL    HW288393   0.956   8.472   7.182 -1.5331 -0.4696 -1.8564
28011SOL     OW88394   0.442  10.793   4.448 -0.9109 -0.2250  0.2120
28011SOL    HW188395   0.452  10.755   4.535 -1.6437 -0.7780  0.0611
28011SOL    HW288396   0.528  10.830   4.428 -0.2874 -1.4906  0.5053
28012SOL     OW88397  10.235   5.518   7.189  1.0527  0.0174 -0.0446
28012SOL    HW188398  10.221   5.566   7.107  1.1995 -0.0809 -0.1272
28012SOL    HW288399  10.261   5.586   7.252 -0.4583  0.3168  0.2967
28013SOL     OW88400   2.832   0.051  10.896 -0.3671  0.5001 -0.5933
28013SOL    HW188401   2.789  -0.012  10.839 -1.0420  0.4040  0.0199
28013SOL    HW288402   2.925   0.027  10.892 -0.4721  0.1880 -1.2536
28014SOL     OW88403   6.660   9.128   8.538 -0.8913  0.5278  0.4425
28014SOL    HW188404   6.590   9.066   8.518 -0.3850 -0.2402  1.0090
28014SOL    HW288405   6.730   9.074   8.575 -0.2703  1.3786  0.5299
28015SOL     OW88406   2.647   3.255   3.403  0.2619  0.1052 -0.2965
28015SOL    HW188407   2.660   3.288   3.314  1.0580 -0.1258 -0.2767
28015SOL    HW288408   2.724   3.200   3.420  0.2608  0.3716  0.6395
28016SOL     OW88409  10.603   6.594   2.375 -0.4067  0.2043 -0.5173
28016SOL    HW188410  10.513   6.569   2.393 -0.6189  1.5271  0.4117
28016SOL    HW288411  10.602   6.690   2.375  1.0551  0.2483 -0.1697
28017SOL     OW88412   5.428  10.225   9.134  0.0891 -0.0715 -0.1889
28017SOL    HW188413   5.422  10.300   9.194  1.3111 -0.1173  0.0035
28017SOL    HW288414   5.346  10.177   9.148  0.4641 -0.2419  1.6724
28018SOL     OW88415   7.408   8.757   3.164 -0.1144  0.4335  0.3127
28018SOL    HW188416   7.384   8.791   3.250 -0.5568  1.4777 -0.2082
28018SOL    HW288417   7.406   8.833   3.106  0.1245 -0.2609 -0.6370
28019SOL     OW88418   2.313   6.249   5.401 -0.1631  0.6550  0.4995
28019SOL    HW188419   2.392   6.279   5.356 -0.6505 -0.7210 -1.4272
28019SOL    HW288420   2.250   6.320   5.390  0.3243  1.1199  0.6899
28020SOL     OW88421   2.332  10.465   8.911  0.0650  0.0429 -0.4847
28020SOL    HW188422   2.272  10.504   8.848  0.7878 -0.3717 -1.4401
28020SOL    HW288423   2.336  10.372   8.886  0.7453 -0.0239 -0.1391
28021SOL     OW88424   2.650   9.878   4.610  0.0088  0.4180 -0.3025
28021SOL    HW188425   2.594   9.918   4.676  1.8836  1.3845  0.8118
28021SOL    HW288426   2.708   9.820   4.659  0.5103  0.0594 -1.2741
28022SOL     OW88427   4.914  10.946   4.571  0.3767  0.3134 -0.0815
28022SOL    HW188428   4.853  11.018   4.557  1.1162  1.3833  1.8546
28022SOL    HW288429   4.867  10.869   4.539 -1.0013  1.4252 -0.8806
28023SOL     OW88430   4.525   9.762   9.052  0.4039  0.5067  0.4215
28023SOL    HW188431   4.490   9.844   9.087  1.1307  1.4486 -0.9647
28023SOL    HW288432   4.614   9.757   9.088 -0.2374 -0.6277  1.9522
28024SOL     OW88433   8.601   1.482   1.789 -0.1393  0.0933 -0.1161
28024SOL    HW188434   8.674   1.420   1.784 -0.3795 -0.1891 -0.1609
28024SOL    HW288435   8.581   1.488   1.882  0.2158  0.4959 -0.0656
28025SOL     OW88436   8.651   0.432   2.682 -0.3355 -0.2084  0.1357
28025SOL    HW188437   8.570   0.383   2.696 -1.4527  1.4576 -0.2105
28025SOL    HW288438   8.684   0.399   2.598 -0.9632 -0.4921 -0.0048
28026SOL     OW88439   1.079   0.759   4.074 -0.0633 -0.1379 -0.0591
28026SOL    HW188440   1.108   0.722   4.158 -1.9007 -0.3387  0.5193
28026SOL    HW288441   1.159   0.765   4.022  1.2650  0.6462  1.9363
28027SOL     OW88442   3.061   9.870   3.355  0.2640 -0.0076  0.5774
28027SOL    HW188443   3.136   9.930   3.348  1.5717 -1.0811  3.6435
28027SOL    HW288444   2.991   9.923   3.391  0.4321  0.3861  0.3294
28028SOL     OW88445   0.653   6.470   5.290 -0.3812 -0.5250 -0.0409
28028SOL    HW188446   0.684   6.452   5.379  0.3539 -1.1453 -0.4076
28028SOL    HW288447   0.718   6.427   5.233  1.3410  2.9723 -1.0088
28029SOL     OW88448   9.980   3.484   3.809  0.0595  1.1306  0.0224
28029SOL    HW188449  10.018   3.477   3.722 -0.1083  1.8805 -0.1148
28029SOL    HW288450  10.047   3.447   3.867 -0.3170 -0.5186 -0.5147
28030SOL     OW88451   6.313   4.326   8.300 -0.5078 -0.1592  0.2556
28030SOL    HW188452   6.386   4.359   8.247  0.4620  0.5765  1.9555
28030SOL    HW288453   6.351   4.313   8.387 -1.9091 -1.8417  0.6664
28031SOL     OW88454   5.455   4.389  10.076 -0.2465  0.1425 -0.2575
28031SOL    HW188455   5.526   4.336  10.039  1.2694  1.2387  0.9627
28031SOL    HW288456   5.489   4.478  10.075 -0.5875  0.3918  2.5822
28032SOL     OW88457   9.736   1.434   8.101 -0.7067 -0.4789 -0.5659
28032SOL    HW188458   9.795   1.481   8.043 -1.8754 -0.9105 -2.1662
28032SOL    HW288459   9.770   1.345   8.105 -0.3319 -0.3204 -0.1549
28033SOL     OW88460  11.015   6.655   3.371  0.2496 -0.4183  0.1600
28033SOL    HW188461  11.027   6.641   3.277  0.2016 -0.4620  0.1604
28033SOL    HW288462  11.033   6.748   3.383  0.3468 -0.4313  0.1218
28034SOL     OW88463   8.666   0.745   5.265 -0.5973 -0.1302 -0.0554
28034SOL    HW188464   8.587   0.796   5.282  0.8651  1.9615  0.7968
28034SOL    HW288465   8.701   0.723   5.352 -0.5471 -1.6190 -0.4135
28035SOL     OW88466   8.594  11.025   6.246  0.0639  0.4825 -0.0890
28035SOL    HW188467   8.506  11.024   6.284 -0.4719 -1.2628 -1.2530
28035SOL    HW288468   8.652  11.008   6.320 -1.0215 -3.9977  0.0695
28036SOL     OW88469  10.196   0.308   2.064  0.4434  0.1355  0.1413
28036SOL    HW188470  10.163   0.260   2.141  0.2523  1.2423  0.7773
28036SOL    HW288471  10.123   0.305   2.002  0.4834 -0.5009  0.1150
28037SOL     OW88472   2.076   3.860   2.097 -0.2113 -0.1380 -0.1330
28037SOL    HW188473   2.053   3.912   2.020 -0.0511  0.5958  0.3053
28037SOL    HW288474   2.013   3.885   2.163 -0.3000 -0.7115  0.0053
28038SOL     OW88475   5.511   9.390   6.582 -0.0056  0.3030  0.4457
28038SOL    HW188476   5.477   9.342   6.507  0.3658  2.2686 -1.0449
28038SOL    HW288477   5.466   9.474   6.579  2.4675  1.7146  0.3747
28039SOL     OW88478   6.709   1.353   2.448  0.1742 -0.6257  0.0315
28039SOL    HW188479   6.668   1.378   2.365 -1.2759 -0.0136  0.8973
28039SOL    HW288480   6.793   1.400   2.448  0.6835 -1.4828 -1.5414
28040SOL     OW88481   7.789   5.736   6.736  0.3593 -0.4913  0.1166
28040SOL    HW188482   7.698   5.761   6.719  0.6160  0.1763 -0.3299
28040SOL    HW288483   7.834   5.746   6.652  0.5671 -2.1798 -0.0124
28041SOL     OW88484   9.114   9.346  10.267  0.5307 -0.4992  0.1946
28041SOL    HW188485   9.166   9.402  10.325 -0.7581 -0.1213  1.0448
28041SOL    HW288486   9.165   9.266  10.258  0.8515 -0.4914  1.7255
28042SOL     OW88487   3.612   1.600   8.571  0.3878  0.4217  0.7254
28042SOL    HW188488   3.570   1.638   8.649  0.6285  2.4357 -0.0654
28042SOL    HW288489   3.603   1.506   8.583 -0.7958  0.7062  2.5264
28043SOL     OW88490   5.421   8.752   9.160  0.4553 -0.3567 -0.3589
28043SOL    HW188491   5.475   8.830   9.158  1.1452 -0.8150  0.0320
28043SOL    HW288492   5.448   8.706   9.240  0.3258 -1.1724 -0.7754
28044SOL     OW88493   1.154   5.953   1.333  0.1235  0.2849  0.3154
28044SOL    HW188494   1.234   5.984   1.291 -0.5071 -0.7042 -1.7660
28044SOL    HW288495   1.085   6.012   1.301 -0.3646 -0.4197  0.0446
28045SOL     OW88496   0.447   1.769   3.013 -0.2588  0.6120 -0.1430
28045SOL    HW188497   0.478   1.682   3.040  1.1465 -0.4192 -4.4204
28045SOL    HW288498   0.361   1.752   2.975 -0.8090  1.4864  0.6719
28046SOL     OW88499   6.405   5.039   2.823  0.4232  0.4157  0.0569
28046SOL    HW188500   6.394   5.130   2.849  0.6852 -0.2047  2.6175
28046SOL    HW288501   6.417   4.991   2.905 -1.5706 -2.2155 -1.0217
28047SOL     OW88502   1.074  10.796   6.398  0.4330 -0.5538 -0.3043
28047SOL    HW188503   1.100  10.835   6.482  1.4465  0.4990 -1.0718
28047SOL    HW288504   0.991  10.840   6.377  1.2526  0.7869 -0.8597
28048SOL     OW88505   5.766   1.505   8.152 -0.0518 -0.2575 -0.5182
28048SOL    HW188506   5.737   1.420   8.120 -0.2006 -0.8509  1.0942
28048SOL    HW288507   5.728   1.512   8.240  0.2691  1.3098 -0.4788
28049SOL     OW88508  10.172   4.661   6.772 -0.0202  0.4262 -0.1880
28049SOL    HW188509  10.255   4.708   6.774 -0.1833  0.6887  1.3889
28049SOL    HW288510  10.129   4.692   6.692  0.2402  2.3284  0.3635
28050SOL     OW88511   7.539   2.779   0.515  0.3684 -0.2164  0.1314
28050SOL    HW188512   7.464   2.780   0.456  0.8869 -1.9563 -0.6316
28050SOL    HW288513   7.502   2.801   0.601 -0.8196 -0.0253 -0.4022
28051SOL     OW88514   9.286   6.557   6.980  0.0155  0.1920 -0.0691
28051SOL    HW188515   9.219   6.524   7.040 -0.5771 -2.3520 -1.9436
28051SOL    HW288516   9.252   6.642   6.950  0.2689  1.4756  2.9086
28052SOL     OW88517   1.124   4.801   7.033 -0.6453  0.8863 -0.1777
28052SOL    HW188518   1.063   4.733   7.004 -2.5118  2.6302 -0.5713
28052SOL    HW288519   1.137   4.856   6.955  0.4806  1.2428  0.2386
28053SOL     OW88520   7.568  11.055   1.038  0.3051 -0.6535 -0.2334
28053SOL    HW188521   7.487  11.062   1.088  1.4793 -0.3275  1.7223
28053SOL    HW288522   7.591  11.145   1.017  0.8974 -0.6293  0.4884
28054SOL     OW88523   4.901   4.084   9.340 -0.1592  0.2352  0.2378
28054SOL    HW188524   4.918   4.166   9.387  0.9778  0.1998 -0.0923
28054SOL    HW288525   4.945   4.017   9.392 -2.0492 -0.3896  1.1534
28055SOL     OW88526   9.009   9.186   0.840  0.4147  0.4829 -0.2030
28055SOL    HW188527   8.975   9.148   0.759 -0.5452  1.0170 -0.0678
28055SOL    HW288528   8.946   9.159   0.907  1.9572 -1.1722  0.6641
28056SOL     OW88529   6.334   7.177   9.449 -0.1924 -0.1882  0.0570
28056SOL    HW188530   6.376   7.114   9.508  0.7679 -0.0877 -0.4863
28056SOL    HW288531   6.282   7.233   9.506 -2.7959 -2.7143  0.3902
28057SOL     OW88532   8.826   9.353   3.524 -0.5770  0.3054 -0.1133
28057SOL    HW188533   8.785   9.409   3.458  1.0756  1.9460  0.1586
28057SOL    HW288534   8.836   9.410   3.601  2.1203  0.0171 -0.1658
28058SOL     OW88535   5.042   9.755   6.904 -0.2854  0.4334  0.2698
28058SOL    HW188536   5.086   9.687   6.852  1.1494  1.6514 -0.2067
28058SOL    HW288537   5.058   9.836   6.855 -2.3094  1.0820  0.5954
28059SOL     OW88538   1.477   5.371   0.780 -0.5251 -0.3768  0.6719
28059SOL    HW188539   1.390   5.408   0.766 -0.5291 -0.6317 -0.0435
28059SOL    HW288540   1.466   5.278   0.762  0.0697 -0.2777 -0.2553
28060SOL     OW88541   8.037   1.573   7.678  0.8797 -0.5015  0.1336
28060SOL    HW188542   7.979   1.504   7.711  0.6441 -1.3984 -1.9898
28060SOL    HW288543   8.087   1.601   7.755 -0.3148 -1.7436  1.4251
28061SOL     OW88544   3.069  10.084   5.889  0.6325 -0.0058 -0.2488
28061SOL    HW188545   3.094   9.994   5.906  3.2591  0.8407  0.8250
28061SOL    HW288546   3.110  10.135   5.959 -3.1422  1.8037  0.9593
28062SOL     OW88547   7.319  10.364   1.855  0.1594 -0.4502  0.0778
28062SOL    HW188548   7.390  10.305   1.830 -1.6890 -2.5545 -0.4994
28062SOL    HW288549   7.307  10.348   1.949 -0.4658 -1.2258 -0.1147
28063SOL     OW88550   4.142   1.030   2.380  0.3236 -0.1191  0.1971
28063SOL    HW188551   4.197   1.088   2.433 -0.8850  0.0226  1.3373
28063SOL    HW288552   4.131   0.952   2.434  1.1015 -1.0268 -0.9069
28064SOL     OW88553   7.240   4.160   6.817 -0.6490 -0.0722 -0.2014
28064SOL    HW188554   7.332   4.153   6.843 -0.5096 -0.3030 -0.7587
28064SOL    HW288555   7.203   4.222   6.880 -0.2586 -0.4440  0.4069
28065SOL     OW88556  10.201   0.044   2.766 -0.0460 -0.2012  0.7356
28065SOL    HW188557  10.195   0.064   2.672 -1.8523  1.2191  1.1072
28065SOL    HW288558  10.257   0.113   2.802 -0.2499 -0.1128  0.8812
28066SOL     OW88559   6.169   4.884   4.695 -0.0998  0.2326 -0.5253
28066SOL    HW188560   6.108   4.914   4.762  0.6095 -2.0952  1.3101
28066SOL    HW288561   6.246   4.939   4.706  0.1280 -0.3148  0.8624
28067SOL     OW88562   8.760   7.307   5.438  0.8919  0.3137 -0.6248
28067SOL    HW188563   8.838   7.257   5.460  1.3762  1.0044 -0.7307
28067SOL    HW288564   8.721   7.328   5.523  1.4720  0.9670 -0.5066
28068SOL     OW88565   5.123   1.079   2.471  0.5771  0.4532  0.4192
28068SOL    HW188566   5.216   1.055   2.478  0.4429 -0.2899 -0.2084
28068SOL    HW288567   5.077   1.013   2.523  0.4554  1.3319  1.4538
28069SOL     OW88568   2.704   9.727   1.741 -0.0076 -0.5414 -0.2021
28069SOL    HW188569   2.718   9.752   1.833  0.7637  0.6422 -0.6087
28069SOL    HW288570   2.635   9.785   1.711  0.9077  0.2647 -0.8134
28070SOL     OW88571  10.019   4.810   4.285 -0.5953 -0.2701  0.2280
28070SOL    HW188572   9.928   4.828   4.262 -0.6854 -2.4224 -1.4114
28070SOL    HW288573  10.014   4.753   4.361 -0.5188  1.0650  1.2655
28071SOL     OW88574   1.110   8.180   2.879 -0.5283 -0.0505  0.0844
28071SOL    HW188575   1.158   8.141   2.951  0.1506  0.1317 -0.2593
28071SOL    HW288576   1.145   8.137   2.801 -1.9272 -0.9510 -0.0918
28072SOL     OW88577  10.650   2.770   9.536 -0.3055  0.0248 -0.3211
28072SOL    HW188578  10.657   2.721   9.619  2.2531 -0.1719 -0.5492
28072SOL    HW288579  10.608   2.709   9.476  2.0386 -1.7087 -0.3582
28073SOL     OW88580   1.371   1.044   2.150 -0.5309 -0.8628  0.2805
28073SOL    HW188581   1.301   0.997   2.106 -0.4788 -0.5269 -0.1715
28073SOL    HW288582   1.327   1.097   2.216 -0.5482 -1.8791  1.1092
28074SOL     OW88583   3.823   1.185   5.315 -0.0589  0.3267 -0.3573
28074SOL    HW188584   3.813   1.147   5.402  0.0862  2.5114  0.7002
28074SOL    HW288585   3.875   1.121   5.266 -1.4673 -1.6565  0.6239
28075SOL     OW88586  10.858   9.819   8.616  0.7778 -0.2622  0.0705
28075SOL    HW188587  10.836   9.730   8.591  0.3171 -0.4988  1.2489
28075SOL    HW288588  10.897   9.858   8.537 -1.1118 -0.7596 -1.1725
28076SOL     OW88589   5.559   9.054   9.554 -0.1492 -0.2646 -0.2222
28076SOL    HW188590   5.591   9.136   9.590  1.7626  0.2205 -2.7056
28076SOL    HW288591   5.616   8.987   9.592 -0.9834 -0.3109  0.9555
28077SOL     OW88592   2.253  11.059   7.470  0.0547  0.0518  0.1585
28077SOL    HW188593   2.304  10.996   7.522 -0.0596  0.2923  0.5685
28077SOL    HW288594   2.162  11.043   7.497 -0.1811 -0.8832 -1.1088
28078SOL     OW88595   0.368   4.830   7.266  0.5561 -0.1005 -0.9765
28078SOL    HW188596   0.337   4.886   7.338  1.3134 -0.7153 -0.1518
28078SOL    HW288597   0.288   4.793   7.229 -0.0437  2.0758 -2.0530
28079SOL     OW88598   3.324   3.961   3.658 -0.2640 -0.6319 -0.4705
28079SOL    HW188599   3.374   3.959   3.739 -1.3482  0.1644  0.2590
28079SOL    HW288600   3.268   3.883   3.662 -1.6222  0.3324  0.4683
28080SOL     OW88601   6.192   9.157   4.802  0.1054 -0.1921 -0.5814
28080SOL    HW188602   6.286   9.148   4.816  0.5574  1.5960 -2.1222
28080SOL    HW288603   6.177   9.251   4.795 -1.7471 -0.4556 -0.7570
28081SOL     OW88604  10.018   6.479   8.422 -0.4633 -0.0979 -0.5534
28081SOL    HW188605  10.095   6.520   8.460 -0.3800 -2.1414  1.7039
28081SOL    HW288606   9.945   6.510   8.475 -1.2212  1.3627 -2.3128
28082SOL     OW88607   0.588   6.791   8.029  0.8073 -0.1154  0.7656
28082SOL    HW188608   0.520   6.857   8.017  0.3399 -0.3745  1.8645
28082SOL    HW288609   0.669   6.837   8.007  0.5304  0.9573  1.8375
28083SOL     OW88610   8.257   1.881   2.800 -1.0955  0.0683  0.3572
28083SOL    HW188611   8.248   1.842   2.713  1.2406  1.9472 -0.8183
28083SOL    HW288612   8.189   1.949   2.804 -2.5287 -1.3238  0.8676
28084SOL     OW88613   1.950   8.946   3.894 -0.3293 -0.3034 -0.4937
28084SOL    HW188614   2.017   8.927   3.829 -0.4080 -0.7641 -0.4440
28084SOL    HW288615   1.869   8.951   3.844 -0.2316  0.4675 -0.5836
28085SOL     OW88616  10.139   6.964   2.492 -0.3262 -0.2923 -0.1967
28085SOL    HW188617  10.129   6.869   2.481  0.1297 -0.2440 -1.1326
28085SOL    HW288618  10.052   6.995   2.515 -0.5932 -0.8732 -0.4103
28086SOL     OW88619   6.145   7.344   4.619  0.2777 -0.2228 -0.0211
28086SOL    HW188620   6.141   7.338   4.524  2.7437  0.3247 -0.2373
28086SOL    HW288621   6.205   7.274   4.645 -0.5482 -0.5234  1.1720
28087SOL     OW88622   2.260   9.049   2.185 -0.9949  0.0756  0.1388
28087SOL    HW188623   2.331   9.086   2.132 -1.3469 -0.0733 -0.4444
28087SOL    HW288624   2.272   9.088   2.271  0.6103 -0.9910  0.4349
28088SOL     OW88625   7.735   3.937   0.387 -0.0864  0.2453 -0.5513
28088SOL    HW188626   7.676   3.922   0.461 -0.6260  2.0330 -0.5881
28088SOL    HW288627   7.681   3.981   0.322  1.1180  1.3235 -0.8525
28089SOL     OW88628   8.838   4.811   2.287  0.5611 -0.4301 -1.1562
28089SOL    HW188629   8.834   4.899   2.324  1.4925 -0.1158 -1.7779
28089SOL    HW288630   8.857   4.825   2.194 -0.9375 -1.2289 -1.6273
28090SOL     OW88631   4.027   7.141   0.299  0.3555 -0.3055  0.0655
28090SOL    HW188632   3.982   7.146   0.383 -0.5542  0.0664 -0.4242
28090SOL    HW288633   4.030   7.048   0.278  1.8733 -0.5337  1.1646
28091SOL     OW88634  10.411   1.081   4.576  0.0650 -0.3337  0.1390
28091SOL    HW188635  10.456   1.160   4.606 -1.2691  0.6061 -0.2350
28091SOL    HW288636  10.427   1.079   4.482 -1.1586  0.3880 -0.1179
28092SOL     OW88637   8.591   5.516   7.232  0.2149 -0.1501 -0.3782
28092SOL    HW188638   8.558   5.480   7.151 -1.1816  0.9698 -0.3538
28092SOL    HW288639   8.612   5.607   7.211 -0.8441  0.3612  0.6507
28093SOL     OW88640   9.433   9.622   6.301 -0.1860  0.0946 -0.5557
28093SOL    HW188641   9.511   9.624   6.357  0.5081  3.2761 -1.4367
28093SOL    HW288642   9.412   9.714   6.287 -3.1637 -0.6643 -1.7258
28094SOL     OW88643   8.380   4.731   4.316  0.4824  0.1185  0.7407
28094SOL    HW188644   8.331   4.665   4.266  1.6646 -1.2903  1.3736
28094SOL    HW288645   8.319   4.805   4.323  0.4884  0.8089 -3.4907
28095SOL     OW88646   4.440   0.163   7.037  0.0696 -0.3322 -0.4916
28095SOL    HW188647   4.365   0.104   7.038  0.1143 -0.3860 -0.0204
28095SOL    HW288648   4.516   0.104   7.039  0.1119 -0.2541  0.2859
28096SOL     OW88649   9.783   2.158   5.424  0.1638  0.2348 -1.1097
28096SOL    HW188650   9.806   2.067   5.446 -1.6224 -0.1812 -0.8534
28096SOL    HW288651   9.783   2.203   5.509  0.5190  0.3603 -1.1742
28097SOL     OW88652   3.365   9.521   4.291 -0.1344  0.1668 -0.4417
28097SOL    HW188653   3.383   9.430   4.317  0.3770  0.5551  0.6072
28097SOL    HW288654   3.347   9.515   4.197  2.6182 -0.6818 -1.0166
28098SOL     OW88655   0.410   0.294   9.638 -0.5472 -0.3529 -0.1352
28098SOL    HW188656   0.494   0.282   9.682 -1.0997  0.3514  1.1651
28098SOL    HW288657   0.416   0.240   9.559  0.5376 -1.5307  0.7269
28099SOL     OW88658   6.192   6.089   3.335  0.5325  0.2430 -0.8076
28099SOL    HW188659   6.223   6.066   3.247  0.1013  0.8595 -1.1323
28099SOL    HW288660   6.122   6.026   3.353  1.6028 -0.8249 -0.2858
28100SOL     OW88661   5.182   9.008   1.838  0.0880  0.5227  0.1282
28100SOL    HW188662   5.231   9.051   1.907  0.2936  1.2224 -0.4392
28100SOL    HW288663   5.228   8.926   1.823  0.1242  0.4308  0.7207
28101SOL     OW88664   0.744   4.532   8.225  0.1345  0.2189  0.2470
28101SOL    HW188665   0.741   4.527   8.130 -0.5287  1.7780  0.1456
28101SOL    HW288666   0.837   4.526   8.247  0.1590 -2.5903 -0.2737
28102SOL     OW88667   6.577   8.818   5.007  0.9972  0.0585  0.2388
28102SOL    HW188668   6.553   8.816   5.099  0.4590 -4.2774  0.2061
28102SOL    HW288669   6.612   8.906   4.993  0.8231  0.9962  4.4435
28103SOL     OW88670   3.269   5.822   6.669 -0.5001  0.6051  0.5729
28103SOL    HW188671   3.304   5.878   6.599  1.3230 -0.2241  0.7591
28103SOL    HW288672   3.199   5.874   6.709 -0.5562  1.7089 -0.8728
28104SOL     OW88673   0.540   4.022   7.932 -0.3919 -0.3834 -0.1337
28104SOL    HW188674   0.610   4.054   7.989  0.9632 -0.5857 -1.6061
28104SOL    HW288675   0.544   3.927   7.941 -1.2562 -0.3655  0.6220
28105SOL     OW88676   7.551   6.331   2.648  0.1899  0.0378  0.0037
28105SOL    HW188677   7.541   6.342   2.743 -0.7766  0.7275 -0.1635
28105SOL    HW288678   7.645   6.329   2.634  0.3430 -0.0275  0.9810
28106SOL     OW88679   1.112   0.904   8.706  0.0210  0.2167 -0.6786
28106SOL    HW188680   1.091   0.867   8.791 -0.2847  1.4048 -0.2253
28106SOL    HW288681   1.041   0.965   8.687 -0.1820 -0.3809 -2.0237
28107SOL     OW88682   6.018   1.867   3.722  0.2674  0.5772 -0.4426
28107SOL    HW188683   5.939   1.919   3.736 -0.2148  0.0049 -1.0024
28107SOL    HW288684   6.016   1.843   3.630  0.6254 -0.1953 -0.2620
28108SOL     OW88685   7.954   8.973   3.966  0.3124  0.2611  0.3204
28108SOL    HW188686   7.881   8.949   4.022 -0.0804  0.9537  0.1097
28108SOL    HW288687   7.925   9.052   3.921 -0.5918 -1.7861 -3.0523
28109SOL     OW88688   7.402   1.309   6.089  0.7594 -0.2484 -0.4050
28109SOL    HW188689   7.392   1.216   6.065 -2.3123 -0.0283 -0.3803
28109SOL    HW288690   7.413   1.354   6.005 -0.9111 -0.3943 -0.7509
28110SOL     OW88691   2.828  10.060   6.246  0.3775 -0.2809  0.4084
28110SOL    HW188692   2.892   9.994   6.221  1.0071  0.3580  0.2908
28110SOL    HW288693   2.841  10.074   6.339 -0.9149 -1.5356  0.8079
28111SOL     OW88694   2.754   8.432   9.300 -0.1391 -0.8874  0.3509
28111SOL    HW188695   2.827   8.410   9.357 -0.0654 -0.9364  0.2392
28111SOL    HW288696   2.778   8.394   9.215  0.5808  0.6973 -0.1835
28112SOL     OW88697   0.485   4.733   6.194  0.4887  0.3179  0.3894
28112SOL    HW188698   0.448   4.650   6.223  1.7479 -0.1008  0.8481
28112SOL    HW288699   0.456   4.742   6.103 -1.1852  0.2939  0.8900
28113SOL     OW88700   3.648   3.339   5.268  0.4457 -0.1282 -0.6131
28113SOL    HW188701   3.701   3.343   5.348 -0.1400  1.1263 -0.2569
28113SOL    HW288702   3.625   3.247   5.258  0.8329 -0.3512  0.4638
28114SOL     OW88703   8.473   4.764   9.470 -0.2171  0.3240 -0.1349
28114SOL    HW188704   8.500   4.715   9.547  0.6817  0.4684 -0.3559
28114SOL    HW288705   8.388   4.801   9.494 -0.6958 -0.9532  0.1974
28115SOL     OW88706   1.438   1.314  10.247  0.0789  1.0467  0.2146
28115SOL    HW188707   1.419   1.361  10.328 -0.0048  2.1060 -0.3939
28115SOL    HW288708   1.444   1.222  10.273  0.5717  1.4189  1.5020
28116SOL     OW88709  10.813   1.588   2.484 -0.3731  0.2727  0.5641
28116SOL    HW188710  10.883   1.632   2.435  0.4696  0.8978  2.2320
28116SOL    HW288711  10.746   1.655   2.497 -0.5885  0.1135  0.2805
28117SOL     OW88712   8.115   4.587   1.783 -0.2647 -0.5670 -0.1456
28117SOL    HW188713   8.052   4.572   1.853 -0.0724  0.4545  0.2637
28117SOL    HW288714   8.187   4.633   1.826  0.5683 -1.3117 -0.6967
28118SOL     OW88715   9.742   5.955   3.290 -0.0089 -0.2182  0.2752
28118SOL    HW188716   9.672   5.963   3.355 -2.2426 -0.8857 -1.8904
28118SOL    HW288717   9.731   5.868   3.253  1.7849 -0.1946 -0.4218
28119SOL     OW88718   2.054  10.503   2.680 -0.1869 -0.4445  0.1879
28119SOL    HW188719   2.115  10.457   2.738  0.1427 -1.3609 -0.8752
28119SOL    HW288720   1.978  10.445   2.674 -0.2203 -0.3486 -0.3002
28120SOL     OW88721   9.865   4.099   3.470  0.2733  0.1073  0.3261
28120SOL    HW188722   9.914   4.137   3.397  1.1389 -0.7907  0.4210
28120SOL    HW288723   9.842   4.011   3.440  0.6913 -0.2931  1.1539
28121SOL     OW88724   9.244   3.681   4.184 -0.0899 -0.0790 -0.2537
28121SOL    HW188725   9.303   3.606   4.184 -0.0738 -0.1189  1.8841
28121SOL    HW288726   9.301   3.757   4.178 -0.1000 -0.1792 -2.2948
28122SOL     OW88727   8.238   1.744   6.826 -0.0503  0.0828  0.5201
28122SOL    HW188728   8.146   1.726   6.805 -0.2068  0.7150  0.6407
28122SOL    HW288729   8.251   1.835   6.798  1.1672 -0.6854 -1.6337
28123SOL     OW88730   8.902   3.300   8.041 -0.2776  0.5183  0.6297
28123SOL    HW188731   8.824   3.350   8.064 -0.2987 -0.3452  2.6463
28123SOL    HW288732   8.872   3.238   7.975 -0.8004  1.5282 -0.1082
28124SOL     OW88733   0.199   9.789   1.047 -0.2717 -0.3530  0.4760
28124SOL    HW188734   0.217   9.695   1.048  1.9659  0.0368  0.8427
28124SOL    HW288735   0.120   9.799   1.100 -2.3456 -2.2871 -1.9462
28125SOL     OW88736   6.080   3.687   3.123  0.5122 -0.3937  0.3005
28125SOL    HW188737   6.012   3.721   3.181  1.2612  0.4024  0.7311
28125SOL    HW288738   6.144   3.758   3.115  1.2111 -1.0546 -0.2403
28126SOL     OW88739   8.059   7.965   6.924  0.1120 -0.1708  0.4664
28126SOL    HW188740   8.123   7.903   6.889  0.4821 -0.2355  1.2291
28126SOL    HW288741   8.006   7.912   6.984  2.2612  0.7326  3.4247
28127SOL     OW88742   5.038   6.698   8.123 -0.4982  0.5095 -0.7529
28127SOL    HW188743   5.097   6.640   8.074  0.8180  1.4850 -0.3836
28127SOL    HW288744   5.028   6.775   8.067 -1.5453  0.3093 -0.8608
28128SOL     OW88745  10.651   9.802   7.058 -0.6272 -0.4173 -0.2333
28128SOL    HW188746  10.676   9.880   7.108 -0.6363 -1.3673  1.3365
28128SOL    HW288747  10.556   9.798   7.065 -0.7798  0.2354 -1.6155
28129SOL     OW88748   0.168   1.904   9.603  0.2922  0.0342 -0.5122
28129SOL    HW188749   0.160   1.811   9.581  1.9490  0.0681 -1.4160
28129SOL    HW288750   0.186   1.947   9.519 -1.1192  1.2894 -0.2121
28130SOL     OW88751   6.354   4.607   7.535 -0.7175  0.2279 -0.1471
28130SOL    HW188752   6.362   4.542   7.465 -1.9105 -0.3746  0.2478
28130SOL    HW288753   6.419   4.674   7.513  1.3032 -1.5662 -0.0375
28131SOL     OW88754  10.474   8.292   4.974 -0.6109  0.0311 -0.1374
28131SOL    HW188755  10.511   8.228   5.034 -0.3560  0.0691 -0.2569
28131SOL    HW288756  10.503   8.377   5.008  0.7243 -0.0028 -1.1170
28132SOL     OW88757   5.643   7.913   5.509  0.2778 -0.8394  0.3204
28132SOL    HW188758   5.553   7.911   5.541  0.1091  1.9700  0.2057
28132SOL    HW288759   5.636   7.952   5.422  1.4379 -2.4851 -0.5721
28133SOL     OW88760   5.141  10.402   1.933 -0.2637  0.5335 -0.0583
28133SOL    HW188761   5.232  10.418   1.909  0.4188 -0.8090  1.4293
28133SOL    HW288762   5.146  10.351   2.014 -2.3093 -1.0172 -0.8058
28134SOL     OW88763   3.209   9.059  10.453  0.5577 -0.5145  0.1427
28134SOL    HW188764   3.208   9.010  10.535  0.2784 -1.4949 -0.4407
28134SOL    HW288765   3.120   9.094  10.446  0.7659  0.1361  0.5741
28135SOL     OW88766   1.664   2.102   8.838 -0.3436 -0.0823  0.2878
28135SOL    HW188767   1.759   2.114   8.838 -0.4386  0.9031 -0.7051
28135SOL    HW288768   1.634   2.151   8.915 -0.2190  1.6325 -0.6930
28136SOL     OW88769   3.560   1.331   8.588 -0.3595  0.5273 -0.1730
28136SOL    HW188770   3.627   1.304   8.525 -0.3727 -0.9164  0.3902
28136SOL    HW288771   3.480   1.290   8.556 -0.8215  1.5601 -0.3777
28137SOL     OW88772   3.165   5.844   8.809 -0.0224  0.6397 -0.0491
28137SOL    HW188773   3.167   5.891   8.726 -0.3218 -1.4764 -1.3226
28137SOL    HW288774   3.097   5.888   8.860 -0.2656  1.5961 -1.1608
28138SOL     OW88775   6.159   8.855   2.844  1.1766 -0.0014  0.1212
28138SOL    HW188776   6.255   8.852   2.838  1.1568 -0.5759  0.0614
28138SOL    HW288777   6.142   8.893   2.930  1.4647 -0.8249  0.5534
28139SOL     OW88778   0.580   7.906   8.573 -0.1673  0.3978  0.6478
28139SOL    HW188779   0.592   7.988   8.621  0.3956  1.2835 -0.8943
28139SOL    HW288780   0.651   7.907   8.508 -0.6325 -0.9349  0.0980
28140SOL     OW88781   0.144   9.546   4.512 -0.7788  0.3692 -0.3655
28140SOL    HW188782   0.060   9.556   4.467 -1.3664  0.8783  0.7975
28140SOL    HW288783   0.182   9.466   4.474 -1.9718 -0.0990 -0.6213
28141SOL     OW88784   4.044   1.792   8.987  0.0016  0.0075  0.4884
28141SOL    HW188785   4.116   1.853   9.001  0.9441 -0.9025 -0.2537
28141SOL    HW288786   4.017   1.806   8.897  1.1688 -1.6102 -0.1549
28142SOL     OW88787   5.134   5.361   8.682 -0.3838 -0.5506 -0.5140
28142SOL    HW188788   5.143   5.453   8.707  2.8364 -0.7162 -0.6787
28142SOL    HW288789   5.075   5.363   8.607  0.3290  1.5268 -1.0909
28143SOL     OW88790   1.316   0.953   2.690  0.1202 -0.1802  0.1963
28143SOL    HW188791   1.333   0.899   2.613 -0.1708 -1.7751  1.2055
28143SOL    HW288792   1.387   0.933   2.750 -0.4073 -0.0274  0.8835
28144SOL     OW88793   3.949   0.219   2.394  0.0535 -0.3270  0.7715
28144SOL    HW188794   3.924   0.291   2.336 -1.5289 -2.6702 -1.6898
28144SOL    HW288795   3.870   0.198   2.443  0.5996 -0.2395  1.7300
28145SOL     OW88796   0.968   0.467   4.910  0.4036  1.1799  0.3554
28145SOL    HW188797   0.893   0.522   4.934 -0.7134 -0.0529 -0.1789
28145SOL    HW288798   1.017   0.457   4.991  0.7815  3.1430  0.4161
28146SOL     OW88799   5.936   3.042   3.784  0.1457 -0.0931 -0.0020
28146SOL    HW188800   6.002   3.069   3.847  1.3242 -1.2864 -0.6916
28146SOL    HW288801   5.909   2.955   3.812  0.2161 -0.3762 -0.7827
28147SOL     OW88802   2.915   1.439   1.058  0.2691  0.2529  0.0657
28147SOL    HW188803   2.830   1.399   1.039  0.8278 -1.1408  0.3512
28147SOL    HW288804   2.926   1.428   1.152  0.1417  1.7669  0.2837
28148SOL     OW88805   2.085   3.226   0.712  0.5004  0.4728  0.2545
28148SOL    HW188806   2.085   3.218   0.807  0.0591  0.4918  0.2622
28148SOL    HW288807   2.083   3.135   0.680  0.3458  0.4703  0.2694
28149SOL     OW88808   3.166   5.940   1.398  0.4073  0.5003  0.1181
28149SOL    HW188809   3.253   5.966   1.367  0.8478  0.5830  1.3880
28149SOL    HW288810   3.106   6.002   1.357  0.8066 -0.1999 -1.6201
28150SOL     OW88811   8.201   4.154   4.783  0.4715  0.2441 -0.7624
28150SOL    HW188812   8.236   4.183   4.867 -0.7828  1.0609 -0.4897
28150SOL    HW288813   8.157   4.071   4.804  0.0615  0.5031 -0.5690
28151SOL     OW88814  10.567   5.022  10.055 -0.8436 -0.2219  0.0170
28151SOL    HW188815  10.487   4.982  10.022 -0.2950 -1.3322 -0.0383
28151SOL    HW288816  10.633   4.952  10.049 -0.3847 -0.0572  2.1268
28152SOL     OW88817   6.285   5.425   5.095  0.0408 -0.1452  0.1620
28152SOL    HW188818   6.273   5.492   5.029  0.5164 -0.5399 -0.3269
28152SOL    HW288819   6.366   5.380   5.071  0.2784 -0.2297  1.0639
28153SOL     OW88820  10.544   0.004   8.427 -0.2766  0.2404  0.1553
28153SOL    HW188821  10.578  -0.038   8.507 -0.1715 -0.9667 -0.4897
28153SOL    HW288822  10.449  -0.008   8.433 -0.1169 -3.2743 -1.5980
28154SOL     OW88823   1.680   3.937   6.866 -0.7891 -0.1364 -0.4985
28154SOL    HW188824   1.736   4.012   6.884 -2.3560  0.8250  0.6775
28154SOL    HW288825   1.646   3.910   6.952 -1.2149 -1.4227 -1.0342
28155SOL     OW88826   1.881   9.656   9.946  0.2160 -0.1533 -0.2842
28155SOL    HW188827   1.894   9.621  10.034  1.9118 -0.2570 -0.5478
28155SOL    HW288828   1.817   9.598   9.905  1.6052 -1.8814 -0.0971
28156SOL     OW88829   1.642   4.890   9.034  0.5883 -0.3229 -0.9087
28156SOL    HW188830   1.655   4.879   9.128  1.1348 -0.5895 -1.0091
28156SOL    HW288831   1.727   4.869   8.996  0.3051 -0.4599 -1.4797
28157SOL     OW88832   1.189  11.060   1.811  0.2606 -0.1723 -0.0586
28157SOL    HW188833   1.166  10.980   1.763  0.5497 -1.6678  2.1183
28157SOL    HW288834   1.107  11.107   1.819 -0.0688 -0.6031 -0.7335
28158SOL     OW88835   1.780   1.908   7.928 -0.0944 -0.0248  0.0930
28158SOL    HW188836   1.717   1.977   7.908 -0.8271 -0.4390  0.8901
28158SOL    HW288837   1.834   1.945   7.998  0.4793  0.2934 -0.5202
28159SOL     OW88838   9.313   7.420  10.779 -0.0863 -0.3734 -0.2083
28159SOL    HW188839   9.338   7.502  10.821  1.4138 -0.8074 -0.2081
28159SOL    HW288840   9.361   7.419  10.697 -1.7039 -0.3149 -1.2000
28160SOL     OW88841   0.359   3.836   8.790  0.6915 -0.3075  0.1645
28160SOL    HW188842   0.384   3.866   8.702  1.2624  0.2421  0.5101
28160SOL    HW288843   0.297   3.764   8.773 -0.3936  0.7648 -0.6836
28161SOL     OW88844   1.798   1.417   4.842  0.1324 -0.1997  0.5577
28161SOL    HW188845   1.859   1.451   4.776 -0.8699 -0.5867 -0.6028
28161SOL    HW288846   1.716   1.463   4.825 -0.4084 -1.0094  0.8952
28162SOL     OW88847  10.094   0.711   8.309 -0.5461 -0.6041 -0.0895
28162SOL    HW188848  10.079   0.754   8.393 -1.1488 -0.4661 -0.2564
28162SOL    HW288849  10.048   0.628   8.317  1.6749 -1.8348  0.6996
28163SOL     OW88850  11.063   6.981   2.512  0.4739  0.2565  0.4502
28163SOL    HW188851  11.147   6.993   2.467  0.3412 -1.3263 -0.2882
28163SOL    HW288852  11.043   7.067   2.550  2.1092  0.8168  0.0994
28164SOL     OW88853   5.359   8.754   2.652  0.2103  0.0689  0.4521
28164SOL    HW188854   5.411   8.720   2.579  0.0388  0.5610  0.1016
28164SOL    HW288855   5.286   8.693   2.660 -0.3929  0.6427 -0.5304
28165SOL     OW88856   8.004   3.868   7.865 -0.0493 -0.0353 -0.1465
28165SOL    HW188857   7.970   3.859   7.954 -0.4251  0.6538 -0.2127
28165SOL    HW288858   8.079   3.809   7.862  1.0912  1.2450  1.2161
28166SOL     OW88859   7.816   6.785   0.681 -0.1925  0.2047  0.4071
28166SOL    HW188860   7.748   6.760   0.743 -1.1785  1.7105 -0.0131
28166SOL    HW288861   7.768   6.820   0.606  1.0281  0.3770 -0.3176
28167SOL     OW88862   2.167   5.195   4.525  0.0745 -0.2669  0.3416
28167SOL    HW188863   2.255   5.234   4.523  0.8802 -1.9670  0.2635
28167SOL    HW288864   2.178   5.115   4.576 -1.1226 -1.1908 -0.7636
28168SOL     OW88865   7.758   8.147  10.457  0.1248  0.3372 -0.5872
28168SOL    HW188866   7.803   8.063  10.445  0.2128  0.4137 -0.7891
28168SOL    HW288867   7.684   8.143  10.396  0.1219  0.4042 -0.5873
28169SOL     OW88868   8.050   5.509   1.824  0.3229 -0.0728  0.5854
28169SOL    HW188869   8.128   5.508   1.880  0.6115 -1.6323  0.2171
28169SOL    HW288870   8.079   5.555   1.745 -0.0424  1.9984  1.6139
28170SOL     OW88871   9.446   8.214   3.818  0.1286  0.1510  0.7423
28170SOL    HW188872   9.405   8.250   3.740  3.0628  2.0374 -0.0744
28170SOL    HW288873   9.520   8.163   3.786  1.9481  1.7131  2.2251
28171SOL     OW88874   4.435   5.671   0.053  0.6020 -0.2635 -0.0641
28171SOL    HW188875   4.525   5.692   0.080  0.4227 -0.0597  0.3663
28171SOL    HW288876   4.396   5.756   0.032 -0.5966  0.0659  3.0993
28172SOL     OW88877   3.998   5.688   6.887  0.5228  0.4337 -0.2103
28172SOL    HW188878   3.967   5.776   6.865 -0.5835 -0.5754 -3.2443
28172SOL    HW288879   4.089   5.701   6.915 -0.2667  2.7018  1.6579
28173SOL     OW88880   9.943   6.586   0.910  0.0688  0.0518 -0.7122
28173SOL    HW188881   9.868   6.616   0.961  0.3561 -0.9794  0.3490
28173SOL    HW288882   9.906   6.554   0.828 -0.6105 -0.0983 -0.3473
28174SOL     OW88883   8.668   2.251   4.351 -0.2314 -0.1570 -0.1414
28174SOL    HW188884   8.591   2.302   4.375 -1.0661 -1.6645  0.4792
28174SOL    HW288885   8.711   2.231   4.435 -0.2470 -0.9832 -0.3255
28175SOL     OW88886   4.685   9.934   3.697 -0.2204 -0.1769  0.3366
28175SOL    HW188887   4.685   9.975   3.611  1.0796 -1.7748 -0.4812
28175SOL    HW288888   4.640   9.997   3.754  0.9118  1.9636 -1.0094
28176SOL     OW88889   2.092   3.367   6.660  0.4717  0.0967  0.1669
28176SOL    HW188890   2.176   3.353   6.616  0.9012 -0.2268  1.0638
28176SOL    HW288891   2.039   3.413   6.595  2.3185  3.0468  0.5474
28177SOL     OW88892  10.906   2.513   1.115 -1.0565 -0.6802  0.1564
28177SOL    HW188893  10.881   2.590   1.166  0.9460 -0.6050  1.1219
28177SOL    HW288894  10.828   2.491   1.065 -1.8689  1.5880  0.3251
28178SOL     OW88895   3.798   6.975   8.815  0.0026  0.1784  0.0167
28178SOL    HW188896   3.782   6.897   8.762 -0.2200  1.0290 -1.1945
28178SOL    HW288897   3.743   7.043   8.776  2.2929  1.6955 -0.7587
28179SOL     OW88898   8.814   6.132   2.386 -0.4740 -0.0045 -0.0258
28179SOL    HW188899   8.907   6.108   2.380 -0.2983 -0.0793  2.1578
28179SOL    HW288900   8.813   6.207   2.446 -1.8136  0.0969 -0.1516
28180SOL     OW88901   3.841   3.651  10.666 -0.3095 -0.3346 -0.1818
28180SOL    HW188902   3.757   3.693  10.647  0.0619  0.5494  0.1040
28180SOL    HW288903   3.845   3.577  10.604 -0.6666  0.4513 -1.1768
28181SOL     OW88904   0.376   1.177   6.154 -0.0305 -0.2648  0.0036
28181SOL    HW188905   0.373   1.117   6.079 -0.0347  0.7174 -0.8060
28181SOL    HW288906   0.323   1.134   6.222 -0.3872 -0.9688 -0.7045
28182SOL     OW88907   1.759   2.440   0.954 -0.0380  0.0634  0.2048
28182SOL    HW188908   1.789   2.349   0.963  0.5208  0.2582  0.3391
28182SOL    HW288909   1.669   2.438   0.986 -0.0759 -0.4682  0.0886
28183SOL     OW88910   8.460   5.926   5.016 -0.9790 -0.2783 -0.6735
28183SOL    HW188911   8.383   5.923   4.959 -0.4107 -0.6169 -1.4380
28183SOL    HW288912   8.462   5.840   5.058 -1.8261  0.2284  0.4636
28184SOL     OW88913   6.931   0.325   7.474  0.3424  0.2925 -0.2127
28184SOL    HW188914   6.978   0.255   7.430 -1.2999 -0.7634 -0.3789
28184SOL    HW288915   6.940   0.307   7.567  2.6489  1.7518 -0.0650
28185SOL     OW88916   1.164   0.014   3.399 -0.0221 -0.0159 -0.0263
28185SOL    HW188917   1.166  -0.010   3.306  1.7730  1.8082 -0.5396
28185SOL    HW288918   1.210  -0.057   3.443  0.7586 -0.0171 -0.8066
28186SOL     OW88919   6.050   5.682   0.257  0.8123  0.0825  0.5415
28186SOL    HW188920   6.082   5.704   0.169 -1.1475 -1.3967 -0.6142
28186SOL    HW288921   6.088   5.749   0.314  0.8339  2.0584 -1.6630
28187SOL     OW88922   3.525   3.586   2.806  0.1374  0.5517  0.3492
28187SOL    HW188923   3.605   3.576   2.858  0.2752 -0.0363  0.0287
28187SOL    HW288924   3.555   3.606   2.718 -0.1116  2.3617  0.6459
28188SOL     OW88925   8.643  10.909   2.995  0.0831 -0.1798  0.2546
28188SOL    HW188926   8.574  10.845   2.982  1.3547 -1.2826 -1.5573
28188SOL    HW288927   8.649  10.956   2.912 -1.2405  2.8727  1.7091
28189SOL     OW88928   8.415  10.876  10.317 -0.3062  0.0472 -0.3980
28189SOL    HW188929   8.357  10.807  10.348 -0.0830 -0.7480 -1.6625
28189SOL    HW288930   8.432  10.853  10.225  2.0003  0.2337 -0.0783
28190SOL     OW88931   2.119   6.807   4.196 -0.1671  0.3083  0.4139
28190SOL    HW188932   2.166   6.727   4.219 -0.5875 -0.0800 -0.0251
28190SOL    HW288933   2.187   6.874   4.188  0.1182  0.1647  1.4700
28191SOL     OW88934   6.966   0.168   6.799 -0.6834 -0.5673 -0.8813
28191SOL    HW188935   6.987   0.168   6.705  0.0761 -1.0082 -0.7217
28191SOL    HW288936   7.042   0.127   6.840 -0.1152  1.3932  0.1384
28192SOL     OW88937   4.456   5.289   9.248  0.4322  0.2580  0.2536
28192SOL    HW188938   4.368   5.255   9.264  0.7210 -0.3468  0.6104
28192SOL    HW288939   4.514   5.218   9.276  1.0648  1.1488  1.2750
28193SOL     OW88940   7.767   1.318   1.272  0.2050  0.8477  0.4001
28193SOL    HW188941   7.788   1.281   1.357  0.8960 -0.1198 -0.1688
28193SOL    HW288942   7.702   1.386   1.290  0.7288  1.0090  1.7414
28194SOL     OW88943   3.077   6.108  10.408  0.0383 -0.5886 -0.3439
28194SOL    HW188944   3.111   6.189  10.371  0.9115 -1.1450 -0.7594
28194SOL    HW288945   2.985   6.128  10.427  0.1663  0.4036 -0.7145
28195SOL     OW88946   1.914   5.288   8.704 -0.1029  0.2417 -0.6798
28195SOL    HW188947   1.832   5.305   8.657  0.2061  1.2678 -0.8702
28195SOL    HW288948   1.976   5.264   8.636 -0.2517 -0.6597 -0.5231
28196SOL     OW88949   9.139   1.918   7.038  0.1092 -0.0618 -0.4027
28196SOL    HW188950   9.202   1.846   7.039 -0.5491 -0.6501 -0.6973
28196SOL    HW288951   9.193   1.997   7.047  0.9202 -0.5318 -1.0015
28197SOL     OW88952   7.826   5.538   7.590 -0.0035  0.2245  0.0597
28197SOL    HW188953   7.915   5.573   7.587  0.1168  0.0625  1.3790
28197SOL    HW288954   7.774   5.603   7.544  0.3085  1.9085  1.9352
28198SOL     OW88955  10.792   5.860   6.623 -0.2814  0.0152  0.0081
28198SOL    HW188956  10.841   5.777   6.631 -0.3275 -0.0550 -0.4429
28198SOL    HW288957  10.745   5.852   6.541 -1.6006 -0.2026  0.7607
28199SOL     OW88958   6.607   7.395   7.509  0.0019  0.4851 -0.0426
28199SOL    HW188959   6.634   7.308   7.479 -0.0454  0.2435  0.6078
28199SOL    HW288960   6.642   7.455   7.443 -0.3416 -0.0562 -0.7336
28200SOL     OW88961   9.261   5.978  10.806 -0.8979  0.3591  0.2220
28200SOL    HW188962   9.219   5.898  10.839  0.6156  0.2613  2.0087
28200SOL    HW288963   9.261   6.038  10.880  1.7061  0.5095  0.1634
28201SOL     OW88964   9.983   5.602   3.212 -0.1830  0.0970  0.1340
28201SOL    HW188965  10.070   5.599   3.251  0.1324 -0.1934 -0.5847
28201SOL    HW288966   9.993   5.561   3.126 -0.5391  2.0743 -0.9146
28202SOL     OW88967   8.527   3.373   6.250 -0.0650  0.1546 -0.6401
28202SOL    HW188968   8.520   3.466   6.228  2.2640  0.2461 -1.2516
28202SOL    HW288969   8.614   3.348   6.221  0.5844 -1.4597  2.2818
28203SOL     OW88970  10.736   7.956   7.702  0.5837  0.0852  0.0072
28203SOL    HW188971  10.807   7.986   7.758  0.7273  0.5311 -0.4078
28203SOL    HW288972  10.677   8.031   7.695 -1.2065 -0.9818  2.2896
28204SOL     OW88973   8.943   5.803   0.529  1.0005  0.1656 -0.1719
28204SOL    HW188974   8.883   5.737   0.563  1.0332  0.2750  0.1075
28204SOL    HW288975   9.019   5.754   0.498  0.3256 -0.0698 -1.5270
28205SOL     OW88976   4.632  10.007  10.210 -0.3380 -0.7537 -0.8911
28205SOL    HW188977   4.579   9.956  10.271  0.1027 -0.8004 -0.5396
28205SOL    HW288978   4.690  10.058  10.266 -0.3840 -0.3004 -1.2574
28206SOL     OW88979   8.052   5.118   7.194  0.5584  0.2217  0.6669
28206SOL    HW188980   8.087   5.046   7.247  2.4398 -0.0458 -0.8205
28206SOL    HW288981   8.034   5.188   7.257  0.2242 -0.9691  1.9407
28207SOL     OW88982  10.807   5.254   2.962 -0.0138 -0.2045 -0.0146
28207SOL    HW188983  10.843   5.177   2.920  0.9799  0.3713 -0.2367
28207SOL    HW288984  10.836   5.328   2.908 -2.8868  0.2130 -1.1814
28208SOL     OW88985   1.695   6.176   2.472 -0.1037  1.1815  0.0089
28208SOL    HW188986   1.730   6.235   2.539  0.7959 -1.8627  2.4575
28208SOL    HW288987   1.749   6.097   2.479 -1.7628 -0.3147 -2.4665
28209SOL     OW88988   4.485   4.846   0.674 -0.4456 -0.3747 -0.4426
28209SOL    HW188989   4.491   4.834   0.769  1.6698  2.0158 -0.1595
28209SOL    HW288990   4.536   4.775   0.637 -1.2801 -1.3225  0.1787
28210SOL     OW88991   0.049   4.298   5.854  0.3395 -0.1659 -0.3598
28210SOL    HW188992   0.014   4.378   5.891 -1.1151 -0.2482 -1.4695
28210SOL    HW288993   0.140   4.295   5.884 -0.0485  1.0402  1.0309
28211SOL     OW88994   1.516   2.383   3.010 -0.6947 -1.0147  0.5994
28211SOL    HW188995   1.576   2.342   3.072  3.5769  0.6958 -1.9189
28211SOL    HW288996   1.525   2.477   3.026  0.9665 -0.4721 -2.6817
28212SOL     OW88997   0.109   8.856   3.632  0.4311  0.1516 -0.0437
28212SOL    HW188998   0.023   8.815   3.640  0.1464  0.8235  0.3525
28212SOL    HW288999   0.116   8.913   3.708  0.6923  1.1059 -0.7720
28213SOL     OW89000   7.310   1.243   2.354 -0.0029  0.2148  0.5494
28213SOL    HW189001   7.325   1.151   2.332  1.3609  1.0169 -2.3010
28213SOL    HW289002   7.383   1.265   2.413  0.9183 -0.0139 -0.4789
28214SOL     OW89003   7.371   0.895   0.847 -0.2609 -0.1946 -0.8401
28214SOL    HW189004   7.318   0.816   0.839 -0.1405 -0.4991  0.9355
28214SOL    HW289005   7.414   0.887   0.932  0.8948  1.1044 -1.2535
28215SOL     OW89006   6.800   2.248   8.802  0.4819 -0.4713 -0.1122
28215SOL    HW189007   6.736   2.206   8.860 -1.7219  2.8081  0.1561
28215SOL    HW289008   6.771   2.225   8.714  0.5355 -1.1107  0.0327
28216SOL     OW89009   8.451   2.113   4.701  0.2445  0.1866  0.0369
28216SOL    HW189010   8.529   2.058   4.695  0.1971  0.2565 -1.5894
28216SOL    HW289011   8.385   2.057   4.740  1.0487  0.0775  1.3008
28217SOL     OW89012   6.880  10.743   4.088 -0.3488 -0.3259 -0.9130
28217SOL    HW189013   6.842  10.655   4.100  1.6275 -1.1473 -0.1593
28217SOL    HW289014   6.876  10.782   4.175  1.1250 -0.7150 -0.6450
28218SOL     OW89015   8.672  10.982   0.965  0.8955 -0.1256  0.2822
28218SOL    HW189016   8.596  11.035   0.943  1.6800  0.2659 -1.7673
28218SOL    HW289017   8.637  10.895   0.984 -0.0014 -0.5099 -2.6369
28219SOL     OW89018   5.085   5.298   2.925  0.0400 -0.8994  0.5130
28219SOL    HW189019   5.001   5.296   2.971 -0.3303 -2.4673 -0.1512
28219SOL    HW289020   5.116   5.388   2.935 -2.1513 -0.0255  0.0077
28220SOL     OW89021   2.584   4.222   2.428  0.3729  0.0577  0.1959
28220SOL    HW189022   2.637   4.280   2.373  2.1944 -2.3020 -0.6810
28220SOL    HW289023   2.548   4.158   2.367 -1.1901 -0.0673  1.2059
28221SOL     OW89024   8.209   3.979   8.919  0.5147 -1.0441 -0.2307
28221SOL    HW189025   8.144   3.982   8.989  1.2846 -1.5234  0.5156
28221SOL    HW289026   8.294   3.975   8.964  1.0125 -1.6178 -1.1725
28222SOL     OW89027  10.295   6.142   4.833  0.2989 -0.2090 -0.2432
28222SOL    HW189028  10.388   6.128   4.853  0.6092  0.4964 -1.1344
28222SOL    HW289029  10.295   6.213   4.769 -0.8947  0.1345  0.1165
28223SOL     OW89030   0.575   2.855  10.589 -0.2571  0.3104 -0.0384
28223SOL    HW189031   0.511   2.895  10.530 -2.8743  0.6269  2.7854
28223SOL    HW289032   0.541   2.872  10.677  2.2744 -2.0009  1.5553
28224SOL     OW89033   6.677   2.809   1.651  0.0409 -0.4529  0.0198
28224SOL    HW189034   6.767   2.790   1.623  0.3422  0.3729  0.4257
28224SOL    HW289035   6.625   2.737   1.613  0.2214  1.1628 -3.7526
28225SOL     OW89036   0.814   2.347   9.271 -0.4547 -0.2323 -0.1922
28225SOL    HW189037   0.733   2.296   9.269 -0.5380 -0.1168  0.0869
28225SOL    HW289038   0.877   2.296   9.221 -1.1528  0.4579 -1.8407
28226SOL     OW89039   0.587  10.508   8.274  0.4513  0.1886 -0.4406
28226SOL    HW189040   0.617  10.588   8.316  0.5264  0.0484 -0.2235
28226SOL    HW289041   0.663  10.450   8.277 -0.2303 -0.6846  1.3790
28227SOL     OW89042   9.712   0.355   9.132 -0.3513  0.8999 -0.1022
28227SOL    HW189043   9.745   0.398   9.211  0.3818  0.7812 -0.3432
28227SOL    HW289044   9.631   0.403   9.111  0.1367  1.7730 -0.0235
28228SOL     OW89045   6.099   6.845   9.035  0.0861 -0.0845  1.0299
28228SOL    HW189046   6.169   6.884   9.087 -0.5766  0.9589  1.1816
28228SOL    HW289047   6.108   6.885   8.948  0.6134 -1.1091  0.6050
28229SOL     OW89048   5.388   9.819   6.313  0.4692  0.1193  0.0577
28229SOL    HW189049   5.370   9.786   6.225  0.7624  0.8055 -0.2688
28229SOL    HW289050   5.311   9.872   6.334 -0.3542 -1.3387  0.8912
28230SOL     OW89051   7.722  10.520   7.829  0.5292  0.1877 -0.7846
28230SOL    HW189052   7.675  10.591   7.873  0.0113 -0.5508 -0.1254
28230SOL    HW289053   7.780  10.485   7.896 -2.2740 -2.8157  0.3295
28231SOL     OW89054   5.461   8.306   0.005 -0.0957 -0.2524  0.6652
28231SOL    HW189055   5.385   8.346   0.047  0.4219 -0.1468  1.5471
28231SOL    HW289056   5.490   8.370  -0.060  0.1166  0.3814  1.3601
28232SOL     OW89057  10.922   5.825   4.916 -0.4299 -0.2765  0.0096
28232SOL    HW189058  10.978   5.852   4.843 -1.0040 -0.7002 -0.6117
28232SOL    HW289059  10.884   5.906   4.948  0.1390 -0.0412  0.1013
28233SOL     OW89060   9.251   9.523   3.868 -0.6677 -0.2573 -0.4319
28233SOL    HW189061   9.245   9.536   3.963 -1.7718  2.9262 -0.8100
28233SOL    HW289062   9.162   9.504   3.841 -0.9571  1.7454 -1.0756
28234SOL     OW89063   8.467   5.090   0.391  0.6362 -0.6548  0.8374
28234SOL    HW189064   8.437   5.124   0.476  0.4866 -1.1955  1.0060
28234SOL    HW289065   8.463   4.995   0.401  2.1810 -0.7402  0.7721
28235SOL     OW89066   1.954   2.912   5.855 -0.2054 -0.2313  0.3389
28235SOL    HW189067   1.914   2.825   5.856 -0.2229 -0.2217  0.7990
28235SOL    HW289068   1.972   2.931   5.947  1.3451 -0.4519  0.1017
28236SOL     OW89069   7.162   3.686  10.673 -0.1083 -0.3151  0.1989
28236SOL    HW189070   7.203   3.755  10.620 -2.3207 -0.0387 -1.2779
28236SOL    HW289071   7.091   3.730  10.719 -1.1020 -1.4472 -0.1993
28237SOL     OW89072   8.565   3.015   6.232  0.9348 -0.6211  0.8435
28237SOL    HW189073   8.498   3.028   6.299 -0.9890  1.2473 -1.2746
28237SOL    HW289074   8.548   2.927   6.198 -0.4195 -0.2036  0.3967
28238SOL     OW89075   6.368   1.644   6.443 -0.6319  0.1603  0.3808
28238SOL    HW189076   6.387   1.702   6.517 -1.2853  0.5375  0.2656
28238SOL    HW289077   6.288   1.598   6.470 -2.1429  1.8331 -0.9084
28239SOL     OW89078   1.914   2.442   7.358  0.7039 -0.8264  0.5618
28239SOL    HW189079   2.001   2.424   7.322  0.0273 -0.3303 -1.4571
28239SOL    HW289080   1.858   2.452   7.281 -0.7101  1.0351  1.7482
28240SOL     OW89081   7.946   9.752   7.062  0.3449  0.4144 -0.3115
28240SOL    HW189082   7.967   9.845   7.053  1.7449  0.1471 -0.0560
28240SOL    HW289083   7.940   9.720   6.972  1.3378  0.4479 -0.3921
28241SOL     OW89084   1.233   9.575   3.601 -0.1570 -0.2102 -0.3483
28241SOL    HW189085   1.237   9.604   3.693 -0.5693 -0.5956 -0.2070
28241SOL    HW289086   1.205   9.484   3.606 -2.3688  0.3840 -0.9575
28242SOL     OW89087   9.689   6.922   2.425  0.1429 -0.2451  0.3590
28242SOL    HW189088   9.740   6.843   2.413  1.2642  0.6077 -0.7645
28242SOL    HW289089   9.607   6.905   2.378  0.1459 -0.9384  0.6037
28243SOL     OW89090   4.578   9.859   9.382  0.3139 -0.0048  0.4911
28243SOL    HW189091   4.652   9.811   9.421  0.6040 -0.4922 -0.6196
28243SOL    HW289092   4.558   9.927   9.446  1.6415  0.0594  0.8749
28244SOL     OW89093   1.514   3.868   8.558  0.5006  0.3231 -0.7398
28244SOL    HW189094   1.544   3.881   8.468  1.0285 -0.0826 -0.6268
28244SOL    HW289095   1.583   3.816   8.599 -0.7252 -1.3186 -0.6869
28245SOL     OW89096   9.431   4.145   7.378 -0.2982  0.5046 -0.2973
28245SOL    HW189097   9.371   4.218   7.363 -1.7287 -0.3125  1.0733
28245SOL    HW289098   9.407   4.113   7.465 -0.4956 -2.2753 -1.2829
28246SOL     OW89099   3.001  10.025   8.469  0.4883 -0.3280 -0.1023
28246SOL    HW189100   3.068  10.093   8.459  0.6848 -0.4023  0.6917
28246SOL    HW289101   2.957  10.046   8.551 -2.0205  1.0503 -1.6785
28247SOL     OW89102   7.470   3.960   7.286 -0.1748 -0.3518  0.6316
28247SOL    HW189103   7.455   3.898   7.357 -1.0820 -2.6656 -1.4570
28247SOL    HW289104   7.396   4.021   7.291 -1.0950 -1.4520  0.7116
28248SOL     OW89105   4.797   6.852   2.469  0.6520  0.4330 -0.2856
28248SOL    HW189106   4.812   6.907   2.393  0.9969  1.5924  0.5962
28248SOL    HW289107   4.775   6.766   2.432 -0.0292  1.1692 -1.6850
28249SOL     OW89108   4.912   6.496   9.911 -0.0892 -0.2587  0.7223
28249SOL    HW189109   4.821   6.499   9.879  0.4141 -1.2106 -0.9055
28249SOL    HW289110   4.905   6.520  10.003 -1.8053  1.2411  0.2794
28250SOL     OW89111   3.639   7.807   8.735 -0.6631  0.0064  0.1429
28250SOL    HW189112   3.661   7.892   8.699  0.0894 -0.1693  0.1589
28250SOL    HW289113   3.583   7.766   8.669 -0.0250  0.0329 -0.4221
28251SOL     OW89114   8.113   4.856   3.408  0.5814  0.0817 -0.8608
28251SOL    HW189115   8.202   4.858   3.442  0.2922 -1.0065  0.0418
28251SOL    HW289116   8.096   4.763   3.392 -0.6051  0.2096 -0.4159
28252SOL     OW89117   2.447   2.129   3.730 -0.1249  0.3010 -0.4645
28252SOL    HW189118   2.358   2.106   3.704 -0.2094 -0.9783  0.8341
28252SOL    HW289119   2.485   2.047   3.762  1.2474  0.9987 -0.1966
28253SOL     OW89120   7.304  10.549   1.504  0.3505 -0.4187  0.0397
28253SOL    HW189121   7.316  10.642   1.524 -0.5823 -0.0140 -1.1438
28253SOL    HW289122   7.302  10.506   1.589 -0.1828  0.7747  0.6494
28254SOL     OW89123   3.432   2.133   7.024  0.3371 -0.0238 -0.0535
28254SOL    HW189124   3.473   2.090   6.949 -0.2358 -0.7983  0.0566
28254SOL    HW289125   3.505   2.168   7.075  0.6892  1.4751 -1.5155
28255SOL     OW89126   5.717   1.765   7.119 -0.2339  0.2145 -0.6085
28255SOL    HW189127   5.751   1.830   7.057  2.4632 -0.0316  0.4788
28255SOL    HW289128   5.643   1.808   7.161  0.9004  2.2493 -0.5720
28256SOL     OW89129   3.262   9.530   6.477  1.0916 -0.4717  0.3183
28256SOL    HW189130   3.212   9.452   6.501  2.2662 -1.5724 -0.6688
28256SOL    HW289131   3.279   9.575   6.560  0.5676 -1.3635  0.9209
28257SOL     OW89132   9.585   1.079   5.192 -0.2428  0.0113  0.1841
28257SOL    HW189133   9.550   1.142   5.130 -2.4068 -0.9809  0.3238
28257SOL    HW289134   9.570   1.118   5.278  1.8289  0.9185  0.2115
28258SOL     OW89135   7.518   2.939   0.791 -0.0644  0.3292 -0.0860
28258SOL    HW189136   7.447   3.002   0.794  1.0520  1.6816 -0.9539
28258SOL    HW289137   7.474   2.853   0.792 -1.5786  1.0710  1.7176
28259SOL     OW89138   1.269   5.309   2.371 -0.1856 -0.1115  0.6588
28259SOL    HW189139   1.347   5.313   2.315 -1.7467  1.6234 -1.5577
28259SOL    HW289140   1.240   5.218   2.364  0.8470 -0.4443  0.4202
28260SOL     OW89141   5.899   5.168   7.090  0.2298 -0.5460 -0.3421
28260SOL    HW189142   5.909   5.229   7.016 -0.9876 -0.1417 -0.2034
28260SOL    HW289143   5.953   5.093   7.066  1.0831  0.2229 -0.9218
28261SOL     OW89144   6.880   2.386   0.062  0.1996  0.1936 -0.1279
28261SOL    HW189145   6.951   2.333   0.025  1.4633  2.3445 -1.0089
28261SOL    HW289146   6.858   2.447  -0.009 -0.8742  1.1134  0.9760
28262SOL     OW89147   7.574   8.782   9.575  0.1863 -0.4062  0.4432
28262SOL    HW189148   7.522   8.817   9.647 -1.0861  0.1416 -0.6911
28262SOL    HW289149   7.647   8.843   9.565 -1.8457  1.9145 -1.3359
28263SOL     OW89150   7.421   7.800   6.216  0.0659  0.6668  0.0834
28263SOL    HW189151   7.330   7.801   6.246 -0.1971  0.8261 -0.6831
28263SOL    HW289152   7.430   7.716   6.171 -0.2834  1.4396 -1.5021
28264SOL     OW89153   0.483   5.126   6.314  0.4113 -0.1690  0.1931
28264SOL    HW189154   0.528   5.190   6.369 -1.6255  1.4350  0.1315
28264SOL    HW289155   0.507   5.150   6.224 -1.7982  1.8708  0.0350
28265SOL     OW89156  10.245   8.947   9.739  0.0612  0.0099  0.7067
28265SOL    HW189157  10.328   8.986   9.711 -0.1162 -0.0658  0.0558
28265SOL    HW289158  10.179   9.013   9.718 -0.4673 -1.2455 -2.0349
28266SOL     OW89159   8.206   1.554   1.634 -0.0298  0.0908 -0.5732
28266SOL    HW189160   8.208   1.599   1.550 -1.3118 -0.9440 -1.1941
28266SOL    HW289161   8.287   1.581   1.678 -1.2119  3.9250 -0.3604
28267SOL     OW89162  10.671   6.510   3.099  0.0877 -0.3178  0.4204
28267SOL    HW189163  10.619   6.548   3.169 -0.7829 -1.4202  0.4031
28267SOL    HW289164  10.629   6.425   3.081 -0.3305  0.3340 -2.0724
28268SOL     OW89165   2.978   8.464   4.112  0.5940  0.5675  0.1674
28268SOL    HW189166   3.032   8.504   4.043  1.6255  0.9278  1.1517
28268SOL    HW289167   2.894   8.508   4.105  0.0985 -0.5650 -1.9346
28269SOL     OW89168   6.033   2.112   8.874  0.7567  0.0422  0.1141
28269SOL    HW189169   6.073   2.197   8.855  0.5862 -0.0156 -0.5460
28269SOL    HW289170   5.940   2.130   8.884  0.7898  0.0078  0.4851
28270SOL     OW89171  10.982   0.772   5.401 -0.2816 -0.1577 -0.1719
28270SOL    HW189172  10.980   0.678   5.415 -1.3344  0.0200  1.1055
28270SOL    HW289173  10.909   0.789   5.342 -1.1655  0.0150  0.9327
28271SOL     OW89174   2.030   4.065  10.006  0.0743  0.2107  0.1279
28271SOL    HW189175   2.022   4.070  10.101 -0.7924  0.9761  0.0310
28271SOL    HW289176   2.114   4.107   9.987  0.3909 -0.2050  0.5625
28272SOL     OW89177   6.465   7.163  10.996  0.2702  0.3437 -0.1984
28272SOL    HW189178   6.514   7.083  11.019 -0.7342 -0.4830 -0.8379
28272SOL    HW289179   6.405   7.176  11.069  0.5069  0.5831 -0.0448
28273SOL     OW89180   8.141   1.129   8.831 -0.3931  0.5447  0.0557
28273SOL    HW189181   8.207   1.175   8.883 -0.8015  1.3905 -0.1503
28273SOL    HW289182   8.057   1.156   8.868 -0.6469 -2.1295  1.6597
28274SOL     OW89183   3.977   6.446   6.993 -0.2237  0.1773 -0.1794
28274SOL    HW189184   4.065   6.482   6.978 -0.3653  0.9603  0.7756
28274SOL    HW289185   3.985   6.397   7.074 -0.3617 -0.8801 -0.7909
28275SOL     OW89186   8.392   0.884   6.970 -0.6446  0.0537 -0.3991
28275SOL    HW189187   8.441   0.963   6.996 -0.4912  0.2258 -1.1852
28275SOL    HW289188   8.301   0.913   6.967 -0.7847 -0.2097  0.8480
28276SOL     OW89189   8.599   2.594   6.383 -0.4271  0.1244  0.4105
28276SOL    HW189190   8.662   2.575   6.313  0.5697  0.0224  1.3135
28276SOL    HW289191   8.647   2.648   6.445 -1.5803  0.9940  0.5875
28277SOL     OW89192   6.550   8.635   2.584  0.4470  0.0575  0.0318
28277SOL    HW189193   6.492   8.561   2.564 -0.6397  1.5652 -3.0103
28277SOL    HW289194   6.519   8.666   2.669 -2.5053  0.0346 -0.8997
28278SOL     OW89195   5.598   3.764   5.223 -0.2763 -0.1686  0.1000
28278SOL    HW189196   5.558   3.834   5.275 -0.2939  0.2878 -0.5121
28278SOL    HW289197   5.545   3.760   5.143 -0.1062 -0.6949  0.0122
28279SOL     OW89198   7.934   0.811  10.246 -0.0331  0.0073 -0.4892
28279SOL    HW189199   7.902   0.857  10.323  1.9578  1.9855 -0.7381
28279SOL    HW289200   7.941   0.719  10.274  0.0094  0.5679  1.4563
28280SOL     OW89201   1.383   0.790   9.161  0.8103  0.6237  0.1844
28280SOL    HW189202   1.351   0.813   9.075 -0.5783 -0.2046  0.4449
28280SOL    HW289203   1.440   0.862   9.187  1.0923  0.9634 -1.3278
28281SOL     OW89204   8.767   0.986   0.754 -0.4236  0.9460 -0.0617
28281SOL    HW189205   8.714   0.967   0.676 -1.2175  1.1263  0.4172
28281SOL    HW289206   8.837   1.043   0.722 -0.1597  0.2211 -0.8201
28282SOL     OW89207   5.109   2.394   6.969  0.5523 -0.2120 -0.0236
28282SOL    HW189208   5.177   2.460   6.981  1.6897 -1.3702  0.1524
28282SOL    HW289209   5.058   2.397   7.050  2.7071 -1.8543  1.5139
28283SOL     OW89210   8.481   3.118   4.341  0.0698 -0.1531  0.0211
28283SOL    HW189211   8.448   3.067   4.267 -0.7760  0.9739 -0.3996
28283SOL    HW289212   8.570   3.086   4.354 -0.3055 -1.4777 -0.4590
28284SOL     OW89213   0.611   9.963   2.382 -0.1724  0.3619 -0.0547
28284SOL    HW189214   0.524   9.937   2.414  0.0274 -1.1171 -0.6750
28284SOL    HW289215   0.650   9.882   2.350  0.7982  1.3074 -1.3187
28285SOL     OW89216   8.185   0.757   3.406  0.1088  0.7729 -0.4519
28285SOL    HW189217   8.197   0.662   3.405  0.7450  0.8124  1.0727
28285SOL    HW289218   8.266   0.792   3.369 -0.3594  0.7332 -1.5636
28286SOL     OW89219   0.712   7.743   1.956 -0.0920  0.0836  0.1203
28286SOL    HW189220   0.754   7.796   2.023  0.4528 -0.4141  0.1823
28286SOL    HW289221   0.631   7.713   1.997  0.3271 -0.3727  0.6311
28287SOL     OW89222   8.026   6.602   2.177  0.1694  0.2284 -0.0169
28287SOL    HW189223   7.938   6.607   2.214  0.5919  2.5277  0.8237
28287SOL    HW289224   8.014   6.613   2.083 -0.6171 -2.0988 -0.2348
28288SOL     OW89225   0.680   0.580   6.203 -0.3480  0.1217  0.6962
28288SOL    HW189226   0.759   0.555   6.251  0.1049  0.3340  0.0638
28288SOL    HW289227   0.625   0.622   6.269 -0.1375 -0.4464  1.2473
28289SOL     OW89228   7.733   7.665   9.928 -0.7762  0.0500 -0.1528
28289SOL    HW189229   7.815   7.678   9.975 -1.0668  0.7938  0.1538
28289SOL    HW289230   7.739   7.724   9.853 -0.4873 -0.8362 -0.8399
28290SOL     OW89231   7.766   2.627   4.329 -0.3153  0.0874 -0.3557
28290SOL    HW189232   7.791   2.633   4.236  1.4008 -0.2869  0.0454
28290SOL    HW289233   7.742   2.535   4.341  3.3034 -0.9451  0.3664
28291SOL     OW89234   4.984  10.197   2.928  0.4736 -0.0252 -0.2601
28291SOL    HW189235   4.972  10.284   2.967 -0.0721 -0.6579  1.0436
28291SOL    HW289236   4.932  10.139   2.984  1.9476 -1.4048 -0.2789
28292SOL     OW89237   2.376   2.663   5.903  0.0752 -0.2058  0.1032
28292SOL    HW189238   2.374   2.728   5.833 -1.8045  0.2454  0.5279
28292SOL    HW289239   2.319   2.593   5.871  0.7288 -0.8728  0.3848
28293SOL     OW89240   1.308   0.825   7.569  0.0159 -0.5279  0.2824
28293SOL    HW189241   1.285   0.902   7.621 -0.3009 -0.5166  0.1320
28293SOL    HW289242   1.336   0.760   7.633 -1.1373 -0.7883  0.5489
28294SOL     OW89243   2.549   4.116   5.986 -0.2888 -0.2552  0.2271
28294SOL    HW189244   2.568   4.142   6.076  0.8078 -0.1100 -0.0321
28294SOL    HW289245   2.498   4.035   5.996 -2.3584  1.0583  0.9967
28295SOL     OW89246   7.916   5.339   7.310  0.0516  0.3311  0.2857
28295SOL    HW189247   7.925   5.400   7.236  0.7716 -0.0314  0.0637
28295SOL    HW289248   7.846   5.376   7.363 -2.1757 -0.6470 -1.7890
28296SOL     OW89249   7.188   5.166   3.094  0.1199 -0.7409  0.2672
28296SOL    HW189250   7.259   5.196   3.152  1.1909  0.1237 -1.3964
28296SOL    HW289251   7.108   5.184   3.144  0.9986 -0.3757  1.6225
28297SOL     OW89252   5.120   7.326   4.527 -0.1108  0.4928  0.0214
28297SOL    HW189253   5.178   7.251   4.512 -1.6158 -0.5926 -0.6752
28297SOL    HW289254   5.061   7.297   4.597 -0.7612  0.9871 -0.3120
28298SOL     OW89255   0.231   7.499   9.258 -0.1072  0.4031  0.3530
28298SOL    HW189256   0.200   7.588   9.243  0.4544  0.5104 -0.2083
28298SOL    HW289257   0.152   7.450   9.283 -0.2671  1.2268  1.4791
28299SOL     OW89258   6.096   2.418   5.928 -0.3911  0.0131  0.3681
28299SOL    HW189259   6.117   2.410   6.021 -0.7582  1.7152  0.6212
28299SOL    HW289260   6.113   2.510   5.907 -1.7666  0.0161 -0.8817
28300SOL     OW89261   6.933   7.554   8.719 -0.7495 -0.8505  0.1716
28300SOL    HW189262   6.986   7.615   8.668 -1.9557 -0.1504 -0.2992
28300SOL    HW289263   6.869   7.520   8.657 -1.3884 -1.0123  0.9030
28301SOL     OW89264   0.002   4.223   7.606 -0.6291  0.3424  1.0604
28301SOL    HW189265   0.075   4.170   7.639  2.1258  0.6943 -3.5130
28301SOL    HW289266   0.026   4.313   7.626 -1.2182  0.3261  1.8708
28302SOL     OW89267   8.691   9.167   1.701 -0.1862  0.0060  0.3307
28302SOL    HW189268   8.663   9.236   1.761  1.0281 -0.2153  1.1934
28302SOL    HW289269   8.618   9.157   1.640 -1.0521  0.9119  1.1798
28303SOL     OW89270   1.064   1.067   3.083  0.0625  0.0780 -0.4703
28303SOL    HW189271   1.090   1.159   3.087 -0.7314  0.2792  0.3873
28303SOL    HW289272   1.062   1.039   3.175 -0.8232 -0.4685 -0.6529
28304SOL     OW89273   6.465   6.074   9.310  0.4339  0.2100 -0.3535
28304SOL    HW189274   6.388   6.129   9.322  1.1719  0.8668  2.1113
28304SOL    HW289275   6.453   6.002   9.372  1.8879  0.5010  0.3287
28305SOL     OW89276   9.615   4.753   6.382 -0.1461  0.2193  0.4696
28305SOL    HW189277   9.599   4.659   6.380  1.4647 -0.1072  1.5386
28305SOL    HW289278   9.709   4.762   6.392  0.1677  2.0122 -2.6729
28306SOL     OW89279   2.286   4.454   7.325 -0.0898  0.0484  0.5292
28306SOL    HW189280   2.285   4.543   7.291  1.3238  0.4125  1.3814
28306SOL    HW289281   2.251   4.401   7.253  0.4607  1.0955 -0.5404
28307SOL     OW89282   1.195   1.329   0.242  0.5982  0.2980 -0.1287
28307SOL    HW189283   1.115   1.379   0.228 -0.2032 -1.8007 -4.8241
28307SOL    HW289284   1.166   1.246   0.280  0.2478 -0.8042 -2.6149
28308SOL     OW89285   8.296   2.219   0.945  0.0533  0.1361 -0.0255
28308SOL    HW189286   8.231   2.288   0.932 -0.7246 -0.0834  2.2105
28308SOL    HW289287   8.282   2.158   0.872 -1.0028  1.0180 -0.5918
28309SOL     OW89288  11.069   0.994   9.034 -0.0978 -0.0634  0.3774
28309SOL    HW189289  11.032   0.906   9.049 -0.1919 -0.0031  0.5071
28309SOL    HW289290  11.014   1.032   8.966  0.5880 -0.4955 -0.4265
28310SOL     OW89291   2.068   3.065   4.199 -0.2987 -0.2020 -0.2552
28310SOL    HW189292   2.052   2.983   4.151 -0.2566 -0.6033  0.3969
28310SOL    HW289293   2.093   3.128   4.131  2.0958 -1.3494 -0.5668
28311SOL     OW89294   9.734   6.044  11.019 -0.1073 -0.1304 -0.3049
28311SOL    HW189295   9.693   6.094  10.948 -0.8302  0.0825  0.2526
28311SOL    HW289296   9.787   5.978  10.974  0.9938  1.2058 -1.0741
28312SOL     OW89297   6.954   7.990  10.937  0.1160  0.5423 -0.3162
28312SOL    HW189298   7.036   7.979  10.984  0.7725  0.4107 -1.4559
28312SOL    HW289299   6.897   7.921  10.970  0.7174  0.1586 -0.0740
28313SOL     OW89300   6.528   9.253   0.451 -0.3125  0.3804  0.3173
28313SOL    HW189301   6.518   9.179   0.391 -1.0064  0.2843  0.5321
28313SOL    HW289302   6.486   9.224   0.532  0.1766  0.6919  0.6896
28314SOL     OW89303   8.328   0.637   4.735  0.2566  0.3319  0.5711
28314SOL    HW189304   8.277   0.711   4.703 -0.0933  0.2072  0.8386
28314SOL    HW289305   8.307   0.565   4.676  0.2292  0.3182  0.5975
28315SOL     OW89306   6.729   7.932   1.800 -0.3003  0.2859  0.0766
28315SOL    HW189307   6.647   7.882   1.803 -1.0071  1.3686 -0.8048
28315SOL    HW289308   6.796   7.866   1.785 -1.2856 -0.3694 -1.7357
28316SOL     OW89309   7.894   4.579   0.344  0.0344 -0.2582 -0.3371
28316SOL    HW189310   7.930   4.502   0.388 -1.0720  0.0256  1.1729
28316SOL    HW289311   7.934   4.653   0.388 -0.4793  0.0350 -0.3526
28317SOL     OW89312   8.508   1.744   8.767  0.2355  0.2073 -0.3976
28317SOL    HW189313   8.565   1.799   8.714  1.4163 -0.3871  0.2125
28317SOL    HW289314   8.512   1.782   8.855  2.1767 -1.5621  0.3705
28318SOL     OW89315  11.052   3.627   2.981 -0.3585 -0.1846 -0.0911
28318SOL    HW189316  10.981   3.676   3.022  0.9462  0.8505  1.0402
28318SOL    HW289317  11.087   3.572   3.051  0.2797 -0.2904 -0.4770
28319SOL     OW89318   7.230  10.212   6.003 -0.0469 -0.3538  0.1539
28319SOL    HW189319   7.182  10.277   6.054  1.4090  1.1489 -0.2942
28319SOL    HW289320   7.208  10.231   5.912 -0.0133 -0.8176  0.0479
28320SOL     OW89321   3.855   6.229   9.400  0.0698 -0.8171 -0.1509
28320SOL    HW189322   3.867   6.308   9.348 -0.1591 -1.1799 -0.7678
28320SOL    HW289323   3.778   6.246   9.453  0.5741 -0.2666  0.4160
28321SOL     OW89324   7.360   2.741   0.316 -0.6618 -0.0561 -0.6477
28321SOL    HW189325   7.274   2.783   0.309 -0.5226  0.2843 -0.3209
28321SOL    HW289326   7.407   2.771   0.238 -0.8806 -0.3445 -0.8939
28322SOL     OW89327   9.499   3.371   8.159  0.1347  0.0295  0.2894
28322SOL    HW189328   9.563   3.305   8.132 -2.1456 -0.9984 -3.3481
28322SOL    HW289329   9.497   3.433   8.086 -2.3425  0.4463  0.6298
28323SOL     OW89330   0.763   4.182   1.543  0.1284  0.8468  0.0721
28323SOL    HW189331   0.833   4.246   1.550  0.2742  0.6599  0.3537
28323SOL    HW289332   0.778   4.139   1.458 -0.8957  2.2505 -0.8541
28324SOL     OW89333  10.288  10.135   1.862  0.7878  0.0451 -0.8724
28324SOL    HW189334  10.289  10.229   1.880  0.0462  0.0324 -0.7310
28324SOL    HW289335  10.358  10.099   1.917 -0.9610  0.0918  1.5507
28325SOL     OW89336   4.613   2.141   5.659  0.5914  0.3775  0.0249
28325SOL    HW189337   4.530   2.092   5.657  0.9013 -0.1974  0.5902
28325SOL    HW289338   4.635   2.156   5.567  1.2120 -1.8393 -0.2480
28326SOL     OW89339   3.153   2.896   4.059 -0.3014  0.4031  0.0461
28326SOL    HW189340   3.087   2.893   3.990 -0.2997 -0.8412  0.0765
28326SOL    HW289341   3.172   2.804   4.078  1.4865  0.7361 -0.0063
28327SOL     OW89342   8.358   6.971   4.016 -0.4232 -0.5713 -0.0920
28327SOL    HW189343   8.263   6.960   4.020 -0.4064 -1.0805 -0.9038
28327SOL    HW289344   8.371   7.038   3.950 -0.3405  1.9113  2.2673
28328SOL     OW89345   0.857  11.085   3.694 -0.3915  0.2425 -0.3496
28328SOL    HW189346   0.838  11.172   3.661  1.4392  0.7834 -0.1034
28328SOL    HW289347   0.807  11.026   3.638  0.2178  1.3168 -2.0813
28329SOL     OW89348   0.405   0.915   5.018 -0.0423  0.3734 -0.0005
28329SOL    HW189349   0.433   0.994   5.064 -0.3917 -0.6664  2.1123
28329SOL    HW289350   0.487   0.876   4.987  0.2101  1.0640 -0.2208
28330SOL     OW89351   4.827   6.861   6.310 -0.4177  1.0114  0.4130
28330SOL    HW189352   4.732   6.850   6.320 -0.1085 -1.6074  1.2694
28330SOL    HW289353   4.853   6.918   6.383 -1.1544  0.4965  1.0937
28331SOL     OW89354   8.109   5.264   4.492  0.3677  0.2422 -0.0872
28331SOL    HW189355   8.087   5.312   4.572  0.3389  0.6443 -0.3338
28331SOL    HW289356   8.034   5.279   4.434  0.4488  0.0587 -0.2405
28332SOL     OW89357  11.104   8.356   0.765 -0.3931  0.6840 -0.4261
28332SOL    HW189358  11.133   8.266   0.778 -0.8324  0.7106  0.9211
28332SOL    HW289359  11.106   8.369   0.670 -0.2551 -0.7186 -0.6313
28333SOL     OW89360   4.967   6.913   2.021 -0.3047 -0.2416  0.0304
28333SOL    HW189361   4.898   6.853   1.992  1.2515 -1.5638 -1.1111
28333SOL    HW289362   5.003   6.872   2.100 -0.0289 -0.1951 -0.0704
28334SOL     OW89363   7.333   8.402   7.018 -0.2850 -0.4903 -0.3580
28334SOL    HW189364   7.329   8.321   7.068  0.2251 -0.9410 -1.0226
28334SOL    HW289365   7.380   8.463   7.074 -1.2502 -0.4388  0.4197
28335SOL     OW89366   4.256   6.051   8.900  0.5409 -0.3174  0.1597
28335SOL    HW189367   4.243   6.128   8.845 -1.0837 -1.0031 -0.4686
28335SOL    HW289368   4.236   6.081   8.988 -0.0284 -0.0084 -0.0706
28336SOL     OW89369   5.464   2.760   7.244 -0.2634 -0.3571 -0.1530
28336SOL    HW189370   5.539   2.712   7.279 -1.1472  0.9396  3.9879
28336SOL    HW289371   5.393   2.695   7.241 -0.2507 -0.4299  0.8659
28337SOL     OW89372   0.872   5.482   1.660  0.1390  0.2118 -0.0349
28337SOL    HW189373   0.780   5.489   1.683 -0.0884  2.3306 -1.3142
28337SOL    HW289374   0.873   5.472   1.565  1.2334  1.2464 -0.1587
28338SOL     OW89375   5.258   5.552   0.728 -0.0510  0.0987 -0.0030
28338SOL    HW189376   5.201   5.620   0.764  0.3448  0.1152  0.6130
28338SOL    HW289377   5.272   5.578   0.637 -2.9140 -1.1432 -0.9146
28339SOL     OW89378   5.687   2.971  10.893 -0.2440 -0.0841 -0.6316
28339SOL    HW189379   5.771   3.009  10.917  0.1969 -1.5775  0.3485
28339SOL    HW289380   5.707   2.879  10.874 -1.4470 -0.1521 -1.7173
28340SOL     OW89381   1.584   8.248   4.037  0.2847  0.3657  0.0068
28340SOL    HW189382   1.626   8.321   3.993 -0.5651  0.7632 -0.1674
28340SOL    HW289383   1.632   8.171   4.008  2.1058  0.9449  1.2684
28341SOL     OW89384   6.151  10.175   3.676 -0.8341 -0.6608 -0.1827
28341SOL    HW189385   6.122  10.125   3.600  1.3461  0.9255 -2.2218
28341SOL    HW289386   6.233  10.217   3.647 -0.0400  0.2311  2.9787
28342SOL     OW89387   8.171  10.155   5.928  0.1520  0.5652 -0.3452
28342SOL    HW189388   8.217  10.234   5.903  0.3953  0.9900  1.3168
28342SOL    HW289389   8.185  10.095   5.855  0.1196  1.9682 -1.5527
28343SOL     OW89390   0.893   4.691   9.060 -0.0119  0.2604  0.5309
28343SOL    HW189391   0.941   4.770   9.085  0.6913 -0.1480  0.4978
28343SOL    HW289392   0.804   4.722   9.042  0.0872  0.9401  1.1559
28344SOL     OW89393   9.741   7.924   9.752 -0.2342 -0.1598  0.2688
28344SOL    HW189394   9.751   7.907   9.846 -1.3342  0.3912  0.4977
28344SOL    HW289395   9.682   7.999   9.747 -1.3146 -1.0461 -0.8904
28345SOL     OW89396   0.382  11.042   5.608  0.0337  0.0279  0.2046
28345SOL    HW189397   0.404  11.125   5.649  0.9793  0.7438 -1.6338
28345SOL    HW289398   0.338  10.992   5.677  0.5568  1.5551  1.7173
28346SOL     OW89399   5.771  10.612   4.820  0.4823  0.0735 -0.0314
28346SOL    HW189400   5.729  10.531   4.847  0.6959  0.0231  0.1622
28346SOL    HW289401   5.865  10.592   4.822  0.4884 -0.2428 -1.8382
28347SOL     OW89402   8.832   2.627   8.083 -0.3717  0.6694 -0.3033
28347SOL    HW189403   8.857   2.699   8.141  0.0884 -0.5072  1.0054
28347SOL    HW289404   8.813   2.554   8.142 -0.5333 -0.3835 -1.6113
28348SOL     OW89405   8.832   6.057   6.229 -0.1822  0.0899  0.3526
28348SOL    HW189406   8.799   5.999   6.298 -0.0043 -0.2685  0.1368
28348SOL    HW289407   8.827   6.145   6.268  0.2757 -0.1466  0.9687
28349SOL     OW89408   8.457   8.331   3.623 -0.3068  0.3618  0.5191
28349SOL    HW189409   8.427   8.240   3.629 -1.8448  0.9218  3.7868
28349SOL    HW289410   8.545   8.329   3.661 -0.5563  0.2868  1.1109
28350SOL     OW89411   3.229   3.058   6.757 -0.8693  0.5908 -0.4523
28350SOL    HW189412   3.255   2.973   6.793 -0.5301 -0.0884 -2.1993
28350SOL    HW289413   3.297   3.118   6.787 -0.7963  0.1405  0.3229
28351SOL     OW89414   2.054   8.612  10.800 -0.0640  0.0533  0.3938
28351SOL    HW189415   1.972   8.659  10.817  0.6035  1.5628 -0.3520
28351SOL    HW289416   2.115   8.645  10.866  0.3072 -0.0767  0.1182
28352SOL     OW89417   9.560   3.760   7.867 -0.4858  0.3966  0.0867
28352SOL    HW189418   9.474   3.743   7.905 -0.0001  1.0254  1.5168
28352SOL    HW289419   9.619   3.766   7.942  1.1199 -1.5515 -0.8992
28353SOL     OW89420   7.927   6.505   8.798 -0.0928 -0.3418  0.1961
28353SOL    HW189421   7.917   6.425   8.850 -0.0306  1.0213  2.4182
28353SOL    HW289422   7.912   6.576   8.859 -1.2461  1.4047 -1.9603
28354SOL     OW89423   6.607   6.839   5.635 -0.0760  0.2111 -0.0123
28354SOL    HW189424   6.639   6.922   5.670 -2.4499  1.0835  0.2388
28354SOL    HW289425   6.577   6.859   5.547 -1.0791 -0.2594  0.2089
28355SOL     OW89426   1.328   0.901   8.023 -0.1912 -0.0431 -0.1877
28355SOL    HW189427   1.393   0.831   8.012  0.8622  0.9090 -0.1628
28355SOL    HW289428   1.322   0.943   7.937  0.1419  0.6456  0.1168
28356SOL     OW89429   7.466   8.195   8.630 -0.2010 -0.2030 -0.9504
28356SOL    HW189430   7.450   8.287   8.610 -1.7952 -0.4363 -0.8225
28356SOL    HW289431   7.431   8.183   8.718  0.6162 -0.7790 -0.6921
28357SOL     OW89432   7.207   0.451   6.048 -0.0081 -0.2278  0.2934
28357SOL    HW189433   7.131   0.405   6.012  2.2199 -2.3790 -2.0437
28357SOL    HW289434   7.280   0.390   6.037  1.9641  1.2979  3.4239
28358SOL     OW89435   7.990   7.239   5.938  0.0207 -0.3430 -0.5428
28358SOL    HW189436   8.063   7.177   5.937 -1.2002 -1.8459 -1.7014
28358SOL    HW289437   8.015   7.305   5.874  0.4756 -0.7290 -0.7764
28359SOL     OW89438  10.732   3.747   7.703  0.1621 -0.4246  0.5751
28359SOL    HW189439  10.739   3.697   7.622  1.1450 -0.4101  0.6499
28359SOL    HW289440  10.822   3.763   7.730 -0.1197  1.1849  0.6820
28360SOL     OW89441   2.255   1.348   3.395  0.0986 -0.2437 -0.2526
28360SOL    HW189442   2.184   1.395   3.438 -0.9650 -0.7200 -1.4281
28360SOL    HW289443   2.213   1.299   3.325  1.8270  0.9781 -2.2681
28361SOL     OW89444   9.653   4.834  10.229 -0.3903 -0.5879 -0.4667
28361SOL    HW189445   9.645   4.878  10.145 -1.6640 -0.8793 -0.5139
28361SOL    HW289446   9.595   4.759  10.223  2.2976 -2.8002 -0.6580
28362SOL     OW89447  10.884   5.592   5.060  0.6799  0.1150  0.0107
28362SOL    HW189448  10.871   5.681   5.027  0.1308 -0.3710 -1.1706
28362SOL    HW289449  10.800   5.570   5.102  0.5812 -0.0679 -0.2772
28363SOL     OW89450   8.657   0.939  10.692 -0.0677  0.3203 -0.3876
28363SOL    HW189451   8.673   0.919  10.784  0.2521  0.8670 -0.3152
28363SOL    HW289452   8.583   0.884  10.668  0.0704 -0.0909  0.0976
28364SOL     OW89453   5.337   3.778   1.126  0.3255  0.1014  0.5286
28364SOL    HW189454   5.357   3.860   1.081 -0.8018  0.5238  0.7706
28364SOL    HW289455   5.394   3.777   1.203 -1.2121  1.7558  1.7609
28365SOL     OW89456   9.161   2.829   8.538 -0.3129 -0.2967 -0.1211
28365SOL    HW189457   9.244   2.830   8.490 -0.6124  2.6287 -0.7682
28365SOL    HW289458   9.171   2.897   8.605 -1.5932 -1.1060  0.9569
28366SOL     OW89459   8.309   9.703   4.268 -0.9465 -0.1604 -0.3330
28366SOL    HW189460   8.342   9.642   4.334 -0.0769 -0.2086 -0.7975
28366SOL    HW289461   8.384   9.759   4.248 -1.7469  1.1321  0.1442
28367SOL     OW89462   3.002   7.141   0.313  0.1584  0.3981  0.2784
28367SOL    HW189463   3.052   7.059   0.311 -1.7057 -0.8256  0.8610
28367SOL    HW289464   2.933   7.125   0.378 -0.1209  2.5401  0.5732
28368SOL     OW89465   9.080   9.374   4.266 -0.3831  0.4300  0.0211
28368SOL    HW189466   9.137   9.364   4.190  1.2802 -0.5214  1.3155
28368SOL    HW289467   9.115   9.449   4.313 -0.7928  0.4284  0.3351
28369SOL     OW89468   9.209   5.752   2.873  0.0433 -0.1465 -0.2435
28369SOL    HW189469   9.283   5.784   2.822 -0.5580 -0.8642 -1.6231
28369SOL    HW289470   9.154   5.706   2.809 -0.3489 -1.7794  1.2078
28370SOL     OW89471   6.746   9.455   4.724 -0.1155  0.0271 -0.2596
28370SOL    HW189472   6.726   9.451   4.817  2.2756  1.8844  0.4177
28370SOL    HW289473   6.661   9.444   4.681 -1.1959 -1.5631  2.0540
28371SOL     OW89474   5.994   7.934   1.195  0.0175  0.0967 -0.0934
28371SOL    HW189475   5.950   7.906   1.275 -1.0491  0.1964 -0.6181
28371SOL    HW289476   5.931   7.992   1.152  1.0466  1.0138 -0.4222
28372SOL     OW89477   7.825   1.178   8.305 -0.1801 -0.1509 -0.2710
28372SOL    HW189478   7.904   1.231   8.321 -0.8089  0.0284  2.9781
28372SOL    HW289479   7.858   1.089   8.298  0.5305  0.1934 -2.1089
28373SOL     OW89480   3.771   4.385   9.540 -0.2453 -0.2461 -0.0946
28373SOL    HW189481   3.790   4.296   9.571 -1.8881 -0.0773  1.5675
28373SOL    HW289482   3.800   4.442   9.611 -1.3999  0.3620 -0.0902
28374SOL     OW89483   1.932   5.592   9.461  0.2489  0.1575 -0.3208
28374SOL    HW189484   1.853   5.563   9.414 -1.5316 -1.8138  3.4348
28374SOL    HW289485   1.926   5.687   9.462 -0.7356  0.1564 -2.2039
28375SOL     OW89486  10.849   2.391   6.252  0.3953  0.6842  0.3866
28375SOL    HW189487  10.852   2.310   6.201 -0.2015  1.1658 -0.4470
28375SOL    HW289488  10.914   2.379   6.321 -1.0206 -1.2515  1.4380
28376SOL     OW89489   8.293   5.418   4.320  0.1452  0.6070 -0.4521
28376SOL    HW189490   8.246   5.377   4.392  2.9430 -0.2860  1.0541
28376SOL    HW289491   8.262   5.373   4.242 -2.5115  1.1612  0.1819
28377SOL     OW89492   2.193  10.008   9.997 -0.2746 -0.4201 -0.7873
28377SOL    HW189493   2.146   9.983   9.917 -2.7752 -2.1937  1.0946
28377SOL    HW289494   2.135  10.070  10.040  0.7674  0.0571 -0.0439
28378SOL     OW89495   7.575  10.045   4.524  0.2605  0.1938  0.3969
28378SOL    HW189496   7.583  10.117   4.461  0.6812 -0.4565 -0.3089
28378SOL    HW289497   7.665  10.018   4.542  0.2050  0.9289  1.9594
28379SOL     OW89498   3.616   9.872   5.624  0.4995  0.3010 -0.0093
28379SOL    HW189499   3.639   9.917   5.704 -1.1633  0.2701  0.5126
28379SOL    HW289500   3.569   9.937   5.572  0.1333 -0.1561 -0.2547
28380SOL     OW89501  10.946   3.909   8.158  0.1741  0.1271  0.0671
28380SOL    HW189502  10.941   3.984   8.218  1.9615  0.9141 -0.6854
28380SOL    HW289503  11.031   3.919   8.114 -0.3116 -1.3890 -1.3246
28381SOL     OW89504   8.988  10.251   3.368  0.1674  0.4427 -0.2432
28381SOL    HW189505   8.976  10.157   3.358  0.3464  0.5313 -1.5061
28381SOL    HW289506   8.950  10.271   3.453  1.9071 -1.0657  0.9696
28382SOL     OW89507   1.817   6.643   1.440  0.4040 -0.6475  0.4161
28382SOL    HW189508   1.834   6.678   1.528  0.6599 -1.9615  0.9177
28382SOL    HW289509   1.723   6.631   1.437  0.4039 -0.6913  0.5525
28383SOL     OW89510   5.817   3.508   7.738  0.1851  0.0769 -0.6199
28383SOL    HW189511   5.886   3.456   7.699  1.8654  2.3617 -0.9020
28383SOL    HW289512   5.845   3.521   7.829 -1.0626 -0.8579 -0.0720
28384SOL     OW89513   3.257   2.116   7.785 -0.3360 -0.0939  0.3332
28384SOL    HW189514   3.194   2.154   7.724  0.3855  0.7841  0.0973
28384SOL    HW289515   3.204   2.076   7.854 -1.1500 -0.2449 -0.3638
28385SOL     OW89516   1.353   8.631   4.766 -0.0253  0.0487 -0.2077
28385SOL    HW189517   1.299   8.709   4.750  1.3597  0.8689 -1.0832
28385SOL    HW289518   1.361   8.590   4.680 -0.4891 -0.8987  0.1965
28386SOL     OW89519   9.246   4.487   6.321 -0.1273  0.1553  0.3016
28386SOL    HW189520   9.288   4.489   6.234  1.1494 -0.5780  0.8683
28386SOL    HW289521   9.302   4.542   6.376 -0.8806  0.5458  0.6961
28387SOL     OW89522   4.487   4.823   9.247 -0.3303 -0.1254  0.1330
28387SOL    HW189523   4.405   4.851   9.288 -0.4955 -1.3757  0.6982
28387SOL    HW289524   4.539   4.787   9.319 -0.1590 -1.3006 -0.5644
28388SOL     OW89525   7.678  10.625   1.007  0.5665  0.0932  0.7884
28388SOL    HW189526   7.669  10.697   1.069  1.8498  1.4439 -0.4967
28388SOL    HW289527   7.685  10.667   0.921  1.8350 -1.5316  0.0252
28389SOL     OW89528   9.167   3.200   5.633 -0.1726 -0.3288 -0.5820
28389SOL    HW189529   9.150   3.106   5.644  0.3338 -0.4217 -0.5755
28389SOL    HW289530   9.081   3.238   5.619 -0.5283 -0.6309  0.6409
28390SOL     OW89531   9.412   0.566   4.558 -0.5281 -0.1144 -0.3924
28390SOL    HW189532   9.458   0.649   4.547  0.5848 -0.0571  3.3563
28390SOL    HW289533   9.479   0.499   4.544 -0.4305 -0.1993  0.4248
28391SOL     OW89534   1.333   9.177   1.982 -0.6258 -0.2883 -0.6103
28391SOL    HW189535   1.348   9.179   1.888 -0.3654 -0.2688 -0.5688
28391SOL    HW289536   1.421   9.182   2.021 -0.8287  1.7386 -0.3367
28392SOL     OW89537  10.879   5.934   3.734  0.0018  0.0518  0.3402
28392SOL    HW189538  10.963   5.958   3.696 -0.9740  2.1493 -0.7171
28392SOL    HW289539  10.889   5.843   3.763  1.4854 -1.0208 -3.0919
28393SOL     OW89540   2.580   6.867   5.740  0.3217  0.5392  0.4437
28393SOL    HW189541   2.650   6.853   5.804  0.4176  0.2071  0.2645
28393SOL    HW289542   2.537   6.783   5.733  1.4559  0.0588 -1.2960
28394SOL     OW89543   1.817   2.827   2.937 -0.5031 -0.3346  0.2941
28394SOL    HW189544   1.734   2.871   2.920 -0.7092 -1.6265 -2.5692
28394SOL    HW289545   1.794   2.736   2.954  0.1665 -0.1030  2.8366
28395SOL     OW89546   4.821   6.241   3.014 -0.6582 -0.8790  0.6493
28395SOL    HW189547   4.904   6.230   2.968  0.7279 -0.3403  2.8986
28395SOL    HW289548   4.822   6.175   3.082 -2.2354 -1.0465  0.5451
28396SOL     OW89549   0.125   8.877   8.695 -0.5802  0.3238  0.1908
28396SOL    HW189550   0.032   8.899   8.692 -0.4547  0.7476 -0.7547
28396SOL    HW289551   0.127   8.782   8.706 -1.1173  0.4689  1.8799
28397SOL     OW89552   9.374   9.801   1.837 -0.3821 -0.2773  0.7306
28397SOL    HW189553   9.278   9.802   1.846 -0.3601  2.1514  1.3531
28397SOL    HW289554   9.406   9.813   1.926  0.5297 -1.1949  0.5389
28398SOL     OW89555   0.472   5.232  10.836 -0.6767  0.2847 -0.0716
28398SOL    HW189556   0.391   5.278  10.857 -1.4836 -0.0587 -2.2052
28398SOL    HW289557   0.446   5.162  10.776  1.0548 -0.5413  0.0778
28399SOL     OW89558   4.278   1.167   0.133  0.4706  0.1740 -0.0869
28399SOL    HW189559   4.336   1.221   0.079  1.8558  0.1520  1.2873
28399SOL    HW289560   4.336   1.101   0.172 -0.1972  0.8361  2.2446
28400SOL     OW89561   3.513   5.138  10.809  0.4590  0.5203  0.1412
28400SOL    HW189562   3.422   5.129  10.836  0.6403  0.6328  0.8246
28400SOL    HW289563   3.516   5.220  10.759  0.0692  0.1918 -0.4195
28401SOL     OW89564   4.473   7.809   7.407 -0.6451 -0.2462 -0.1470
28401SOL    HW189565   4.491   7.776   7.319 -0.7060 -0.8701  0.0652
28401SOL    HW289566   4.500   7.900   7.405 -1.4981  0.0004 -1.0785
28402SOL     OW89567   5.407   4.475   6.945 -0.3423 -0.0113 -0.7671
28402SOL    HW189568   5.438   4.566   6.945 -1.1471  0.2690 -0.2587
28402SOL    HW289569   5.386   4.457   6.854 -0.9099  0.5773 -0.7622
28403SOL     OW89570   6.945   0.157   5.248  0.1161 -0.2587 -0.2553
28403SOL    HW189571   6.982   0.193   5.167 -1.2299 -1.6897 -1.5737
28403SOL    HW289572   7.015   0.102   5.284  0.7803  0.5021 -0.3565
28404SOL     OW89573   6.868   0.890  10.291 -0.5996  0.0720 -0.5248
28404SOL    HW189574   6.802   0.897  10.222 -0.8862  1.3457 -0.1521
28404SOL    HW289575   6.870   0.977  10.331  0.0932 -0.4324  0.5862
28405SOL     OW89576   1.048   2.519   2.344 -0.1942  0.1945 -0.3135
28405SOL    HW189577   1.021   2.469   2.267 -1.6725  1.4689 -0.6676
28405SOL    HW289578   1.018   2.467   2.419 -2.3054  0.8035 -0.6825
28406SOL     OW89579   3.349   1.467   6.668  0.0461  0.1379  0.3996
28406SOL    HW189580   3.409   1.405   6.710 -1.0963 -1.1852  0.1188
28406SOL    HW289581   3.264   1.423   6.669 -1.1129  2.2610  1.4344
28407SOL     OW89582   7.125   8.295   3.482 -0.0055  0.0500 -0.0664
28407SOL    HW189583   7.100   8.235   3.412 -0.3011 -0.2173  0.2606
28407SOL    HW289584   7.090   8.255   3.562  1.4814 -0.3470  0.4167
28408SOL     OW89585   2.183   3.634  10.439 -0.1397  0.2793  0.0326
28408SOL    HW189586   2.120   3.565  10.421 -2.1061  1.8122  0.7555
28408SOL    HW289587   2.187   3.684  10.357 -0.3967  0.5932  0.2122
28409SOL     OW89588   0.977   5.228   6.338  0.0362 -0.1632  0.5424
28409SOL    HW189589   0.926   5.162   6.385  0.2572 -1.5259 -1.0306
28409SOL    HW289590   0.911   5.283   6.295 -0.1891 -1.7092 -1.2027
28410SOL     OW89591   0.246   8.883   9.672 -0.1532 -0.2385  0.4503
28410SOL    HW189592   0.249   8.827   9.749 -0.0759 -0.2257  0.4568
28410SOL    HW289593   0.293   8.963   9.698  1.1355 -0.7954 -0.0500
28411SOL     OW89594   0.284   5.630   1.902 -0.3857  0.1773  0.4614
28411SOL    HW189595   0.272   5.565   1.833  1.2046 -0.9696  1.1830
28411SOL    HW289596   0.296   5.713   1.856 -0.2180 -0.4142 -0.5882
28412SOL     OW89597   8.042   8.278   8.602 -0.2674 -0.7849  0.0952
28412SOL    HW189598   8.036   8.199   8.656  0.1155 -1.6697 -1.1076
28412SOL    HW289599   8.136   8.294   8.595 -0.3284 -0.4941 -0.0478
28413SOL     OW89600   0.437   7.791   2.095 -0.2347  0.3847  0.0145
28413SOL    HW189601   0.469   7.781   2.185  0.7471 -1.1080 -0.4581
28413SOL    HW289602   0.346   7.818   2.104  0.5935  2.9654  1.4334
28414SOL     OW89603   4.234   5.403   9.506  0.1668  0.2630  0.2522
28414SOL    HW189604   4.283   5.448   9.575  0.6214  0.1904 -0.0218
28414SOL    HW289605   4.243   5.459   9.429  0.1371  0.0593  0.1003
28415SOL     OW89606   7.519   4.199   5.827  1.0390 -0.4599 -0.8732
28415SOL    HW189607   7.598   4.176   5.877  0.1219  1.0067  1.4239
28415SOL    HW289608   7.455   4.133   5.852  0.4588  0.5001  0.3217
28416SOL     OW89609   0.238   4.579   9.720 -0.3122  0.4422  0.1891
28416SOL    HW189610   0.266   4.532   9.799  0.2615 -0.0255 -0.2869
28416SOL    HW289611   0.320   4.608   9.679 -0.6433  1.5800  0.2931
28417SOL     OW89612   6.056   4.441   3.101 -0.5116 -0.3000 -0.2454
28417SOL    HW189613   6.007   4.433   3.020 -1.1304  2.2869 -0.2311
28417SOL    HW289614   6.131   4.496   3.079 -0.1143 -0.4407  0.6862
28418SOL     OW89615   5.651   3.332   2.603 -0.7874 -0.1350 -0.5403
28418SOL    HW189616   5.639   3.356   2.511  0.4262  0.1382 -0.6497
28418SOL    HW289617   5.668   3.415   2.648  1.5043 -0.5099 -0.5950
28419SOL     OW89618  10.343   4.351   3.683  0.2109  0.1875 -0.0026
28419SOL    HW189619  10.425   4.305   3.666 -0.1342 -0.4560  0.0674
28419SOL    HW289620  10.297   4.350   3.599 -0.4996 -1.0101  0.3818
28420SOL     OW89621   5.049   6.289   3.616 -0.0689  0.0227  0.1730
28420SOL    HW189622   5.139   6.300   3.583  0.4200 -1.9063  0.6909
28420SOL    HW289623   5.029   6.371   3.660  0.9722  0.9493 -1.0130
28421SOL     OW89624  10.722   1.337   4.966 -0.8375  0.0427  0.0952
28421SOL    HW189625  10.673   1.256   4.980 -1.2429  0.4200  0.8878
28421SOL    HW289626  10.790   1.336   5.033 -1.3770  0.7641  0.6684
28422SOL     OW89627   6.270   4.205   8.901  0.0174  0.1682 -0.2386
28422SOL    HW189628   6.225   4.226   8.819 -0.2770 -3.2247 -1.0946
28422SOL    HW289629   6.361   4.189   8.875 -0.3828 -2.4256 -0.2929
28423SOL     OW89630   3.405   7.583   1.373 -0.6430  0.6875 -0.2431
28423SOL    HW189631   3.364   7.513   1.322 -0.9003  0.4443  0.2932
28423SOL    HW289632   3.385   7.663   1.324 -1.4516  0.5324 -0.1723
28424SOL     OW89633   8.183   3.420   1.397  0.0202 -0.0118 -0.4120
28424SOL    HW189634   8.095   3.389   1.380  0.0233 -0.2445 -0.0063
28424SOL    HW289635   8.172   3.508   1.433 -0.1098 -0.4635  0.6996
28425SOL     OW89636   0.346   9.211   8.321  0.5188 -0.4751  0.1924
28425SOL    HW189637   0.425   9.225   8.269 -0.1154  0.3914 -0.5592
28425SOL    HW289638   0.322   9.298   8.351  0.2042 -0.8194  0.9641
28426SOL     OW89639  10.401   9.885   0.290  0.2116 -0.6026  0.1139
28426SOL    HW189640  10.454   9.913   0.216 -0.4270  0.0190 -0.1223
28426SOL    HW289641  10.319   9.934   0.280 -0.4808 -1.6800  0.3554
28427SOL     OW89642   4.468  10.828   4.919 -0.0097 -0.1917  0.1210
28427SOL    HW189643   4.398  10.770   4.950 -0.3460 -0.3285 -0.8570
28427SOL    HW289644   4.544  10.804   4.972 -0.4618 -0.6725  0.5728
28428SOL     OW89645   1.578   1.679   6.075 -0.4692  0.2025 -0.7708
28428SOL    HW189646   1.640   1.637   6.135 -0.6596  0.3919 -0.4388
28428SOL    HW289647   1.492   1.664   6.114 -0.3641  4.0039  1.3959
28429SOL     OW89648   6.631  10.597   8.476 -0.0790 -0.3681  0.7505
28429SOL    HW189649   6.562  10.635   8.422  1.0651 -0.0616 -0.5575
28429SOL    HW289650   6.594  10.515   8.508 -0.3742 -1.2178 -1.5639
28430SOL     OW89651  10.382   8.730   6.101  0.5106 -0.8518 -0.4866
28430SOL    HW189652  10.293   8.751   6.073 -0.1525 -1.1112  1.2979
28430SOL    HW289653  10.424   8.816   6.112 -1.3510 -0.2626  4.1346
28431SOL     OW89654   0.022   5.309   7.858  0.3459 -0.0442 -0.6095
28431SOL    HW189655   0.115   5.303   7.879  0.6395  0.6729 -1.6332
28431SOL    HW289656  -0.023   5.305   7.942  1.2334 -1.5901 -0.1796
28432SOL     OW89657   4.365   8.519   0.972  0.3454  0.1035 -0.0842
28432SOL    HW189658   4.298   8.482   0.915 -0.3532 -1.1457  1.4920
28432SOL    HW289659   4.356   8.614   0.960  0.4637 -0.0949 -2.2551
28433SOL     OW89660   6.583   6.741   3.295 -0.5490 -0.4518  0.2506
28433SOL    HW189661   6.520   6.812   3.286 -2.1494 -2.0199 -2.0155
28433SOL    HW289662   6.642   6.752   3.219 -1.3632 -1.9961 -0.6410
28434SOL     OW89663   2.489   3.036   7.151 -0.0736  0.0002 -0.5084
28434SOL    HW189664   2.480   3.026   7.056 -2.8155  0.8961 -0.4427
28434SOL    HW289665   2.406   3.002   7.187  0.0206  1.5712  1.3680
28435SOL     OW89666   3.715   2.872   8.342 -0.1200  0.5666 -0.0891
28435SOL    HW189667   3.728   2.781   8.368  1.0651  0.4714 -0.9225
28435SOL    HW289668   3.779   2.922   8.393  0.1706  0.7492 -0.6194
28436SOL     OW89669   6.403   2.325   2.856 -0.7434 -0.1049  0.2620
28436SOL    HW189670   6.352   2.326   2.776 -0.2435  0.6006 -0.0591
28436SOL    HW289671   6.399   2.234   2.886  0.5812 -0.8184 -1.5497
28437SOL     OW89672   2.935   7.379   9.294 -0.2736  0.0978  0.2111
28437SOL    HW189673   2.884   7.313   9.246  2.6138 -0.4397 -2.5249
28437SOL    HW289674   2.965   7.334   9.373 -0.1132 -1.1953 -0.5568
28438SOL     OW89675  10.856   5.357   1.236 -0.3948 -0.2781  0.2583
28438SOL    HW189676  10.899   5.395   1.160 -1.2896  0.4076  0.0772
28438SOL    HW289677  10.863   5.425   1.303 -0.2569 -0.5931  0.5671
28439SOL     OW89678   7.880   5.787   7.004  0.3587 -0.1870  0.1262
28439SOL    HW189679   7.833   5.766   6.924 -0.6037  0.2007  0.5698
28439SOL    HW289680   7.962   5.737   6.998 -1.1485 -2.9282  0.4536
28440SOL     OW89681   7.954   4.395   0.694  0.1859 -0.6982  0.4149
28440SOL    HW189682   8.044   4.427   0.693  0.1517 -0.5884  0.7670
28440SOL    HW289683   7.935   4.378   0.786 -0.0823 -0.9275  0.3214
28441SOL     OW89684   1.496   6.969   8.422 -0.4696  0.2317 -0.1766
28441SOL    HW189685   1.440   6.892   8.434 -0.0985 -0.5255 -2.7360
28441SOL    HW289686   1.440   7.033   8.378 -0.2792  0.7847  0.3724
28442SOL     OW89687   4.541   8.605   4.385 -0.7187 -0.4615 -0.4149
28442SOL    HW189688   4.618   8.567   4.344 -1.3857 -1.4966 -0.7598
28442SOL    HW289689   4.566   8.620   4.476  0.4053  0.7779 -0.9047
28443SOL     OW89690   8.819   6.315   3.348 -0.3654 -0.1505 -0.2345
28443SOL    HW189691   8.822   6.411   3.347 -0.6373 -0.1353  0.0731
28443SOL    HW289692   8.909   6.288   3.332 -0.5037  0.1402 -1.6819
28444SOL     OW89693   3.419   5.384  11.090  0.1395 -0.1960  0.1759
28444SOL    HW189694   3.363   5.460  11.107 -0.3068 -0.1377 -1.3734
28444SOL    HW289695   3.360   5.319  11.052  1.3588  0.4893 -3.1687
28445SOL     OW89696   1.556   0.148   7.377  0.1857  0.0852  0.2408
28445SOL    HW189697   1.518   0.146   7.465 -1.0671  0.1914 -0.2845
28445SOL    HW289698   1.483   0.171   7.319  0.7245 -1.0790 -0.9618
28446SOL     OW89699   0.784   9.425   2.807 -0.1338  0.0342  0.6764
28446SOL    HW189700   0.870   9.384   2.800 -0.8710 -2.2644  3.3281
28446SOL    HW289701   0.795   9.493   2.873 -0.0074  0.9127 -0.2294
28447SOL     OW89702  10.375   0.304   5.122 -0.1274  0.1028  0.2967
28447SOL    HW189703  10.406   0.342   5.205 -1.9278  2.5834 -0.0486
28447SOL    HW289704  10.280   0.302   5.131 -0.3272 -0.0929 -1.5274
28448SOL     OW89705   1.261   8.893   5.019  0.6631 -0.0368 -0.2892
28448SOL    HW189706   1.216   8.882   4.935 -1.6364  0.3989  0.8037
28448SOL    HW289707   1.300   8.807   5.036  0.7232 -0.2798 -1.5268
28449SOL     OW89708   7.398   3.785   2.295  0.5515  0.3390  0.1854
28449SOL    HW189709   7.448   3.866   2.305  0.5074  0.4104 -0.1486
28449SOL    HW289710   7.463   3.719   2.273  0.2707  0.9011 -2.6608
28450SOL     OW89711   2.905   8.107   1.437 -0.1005  0.0849 -0.1211
28450SOL    HW189712   2.850   8.140   1.508 -0.2131  0.4736 -0.3894
28450SOL    HW289713   2.847   8.101   1.362  0.0195 -0.3285 -0.1854
28451SOL     OW89714   9.673   6.896   6.981  0.0284 -0.1541 -0.1891
28451SOL    HW189715   9.643   6.986   6.995  1.6994  0.5540 -0.8301
28451SOL    HW289716   9.620   6.865   6.907 -0.4782  0.3554 -0.0487
28452SOL     OW89717  10.128   4.281   4.264  0.2950  0.4752  0.0857
28452SOL    HW189718  10.151   4.357   4.318 -0.4759  0.8976 -0.1707
28452SOL    HW289719  10.203   4.271   4.204 -0.2927  2.0756 -0.9887
28453SOL     OW89720   1.660   1.330   7.438  0.5961 -0.4206  0.0530
28453SOL    HW189721   1.616   1.247   7.458 -0.1374  0.2990  1.5425
28453SOL    HW289722   1.632   1.350   7.348  0.3569 -1.5118 -0.1319
28454SOL     OW89723   2.850   5.058  10.268 -0.3240  0.2410 -0.1810
28454SOL    HW189724   2.771   5.010  10.243 -0.8404  0.8863  0.1580
28454SOL    HW289725   2.821   5.149  10.276  0.5367  0.5429 -0.3878
28455SOL     OW89726   0.311  10.551  10.904 -0.1694  0.5352 -0.2637
28455SOL    HW189727   0.326  10.533  10.811  2.0137  0.9153 -0.0351
28455SOL    HW289728   0.385  10.509  10.949 -0.5907  1.2854  1.1996
28456SOL     OW89729   8.482   1.422   9.131  0.2626 -0.1142  0.4138
28456SOL    HW189730   8.524   1.469   9.203 -0.6687 -0.3505  1.1237
28456SOL    HW289731   8.470   1.488   9.063  0.0352  0.3979  0.9451
28457SOL     OW89732  10.950  10.017   8.915  0.3534  0.3511 -0.4834
28457SOL    HW189733  10.957   9.922   8.920  0.8983  0.4212  0.2500
28457SOL    HW289734  10.969  10.048   9.003  0.1736  1.1440 -0.7091
28458SOL     OW89735   2.813   5.119   2.413 -0.1171 -0.4952  0.4050
28458SOL    HW189736   2.770   5.047   2.459 -1.4010 -0.7718 -1.1150
28458SOL    HW289737   2.833   5.183   2.481 -0.9755 -1.3216  1.4731
28459SOL     OW89738   5.285   4.332   2.026 -0.4440  1.1786  0.1923
28459SOL    HW189739   5.373   4.294   2.024 -0.5331  0.9957 -0.3801
28459SOL    HW289740   5.239   4.282   2.093 -0.4598  0.4866 -0.3264
28460SOL     OW89741   0.738   4.514   3.967  0.4794 -0.5017 -0.3685
28460SOL    HW189742   0.673   4.526   3.899  0.5242 -0.9538 -0.4893
28460SOL    HW289743   0.693   4.467   4.037 -0.1511  1.6671  0.7841
28461SOL     OW89744   6.400   1.440   5.194  0.3135  0.1319  0.2061
28461SOL    HW189745   6.392   1.367   5.255  1.6438  0.6306  1.0094
28461SOL    HW289746   6.346   1.509   5.232  0.8579  0.3223  0.6386
28462SOL     OW89747   3.281   2.156   6.380  0.5251 -0.0721 -0.0741
28462SOL    HW189748   3.307   2.066   6.362 -1.1951 -0.5297 -0.3928
28462SOL    HW289749   3.263   2.157   6.474  0.4130 -0.0897 -0.0957
28463SOL     OW89750   8.731   3.999   6.484  0.2171 -0.0242  0.0179
28463SOL    HW189751   8.702   3.912   6.456  0.1829  0.6345 -2.1265
28463SOL    HW289752   8.790   4.028   6.414  1.0295  1.2707  1.1972
28464SOL     OW89753   1.439   3.063   1.770 -0.0857 -0.4108  0.2084
28464SOL    HW189754   1.354   3.038   1.806 -1.3258  0.7699 -1.6656
28464SOL    HW289755   1.487   2.981   1.760 -2.8500 -1.8868 -3.0083
28465SOL     OW89756  10.395  10.626   4.809  0.3985  0.5885  0.6044
28465SOL    HW189757  10.467  10.599   4.865 -0.4300 -2.3848  0.4172
28465SOL    HW289758  10.333  10.668   4.869  0.8170  0.1092  1.3933
28466SOL     OW89759   1.403   1.781   3.726  0.2408 -0.7220 -0.1950
28466SOL    HW189760   1.336   1.798   3.792  0.4232 -0.2969 -0.1108
28466SOL    HW289761   1.380   1.696   3.689 -1.2921  0.1259 -1.3078
28467SOL     OW89762   9.356   0.316   5.352  0.2475  0.2580  0.1506
28467SOL    HW189763   9.362   0.235   5.301  0.7057  1.6954 -2.2193
28467SOL    HW289764   9.268   0.313   5.390  0.3009 -1.3962  0.2339
28468SOL     OW89765   4.966   8.623   9.018  0.2008  0.2790  0.5062
28468SOL    HW189766   4.912   8.593   9.092 -1.0674 -0.0290 -0.5014
28468SOL    HW289767   5.019   8.547   8.995 -0.2755 -0.0093  0.3462
28469SOL     OW89768   9.304   8.053   4.776 -0.2518  0.1374  0.0339
28469SOL    HW189769   9.305   7.957   4.784  2.0815  0.0254 -0.6749
28469SOL    HW289770   9.283   8.069   4.684  1.7694  0.1341 -0.4866
28470SOL     OW89771   3.817   1.851   8.173  0.0590  0.0740 -0.6981
28470SOL    HW189772   3.897   1.835   8.122  0.0855  0.2486 -0.7101
28470SOL    HW289773   3.848   1.875   8.260  0.0075 -2.0420 -0.0423
28471SOL     OW89774   1.477   5.861   6.215 -0.5421  1.0707  0.4258
28471SOL    HW189775   1.550   5.803   6.195 -1.6796 -0.1456 -0.3298
28471SOL    HW289776   1.518   5.945   6.234  1.0616  0.3700  0.2052
28472SOL     OW89777   9.377   0.286  10.461 -0.2548 -0.1998 -0.4761
28472SOL    HW189778   9.362   0.262  10.369  0.2315 -0.3785 -0.5139
28472SOL    HW289779   9.318   0.230  10.511 -0.7241  0.0967 -0.6946
28473SOL     OW89780   0.720   2.033   3.437  0.5339 -0.4686  0.0889
28473SOL    HW189781   0.718   2.128   3.448  1.4301 -0.1617 -1.8327
28473SOL    HW289782   0.647   2.015   3.378  1.1721 -0.7535 -0.6423
28474SOL     OW89783   5.538   0.520   6.748  0.3735  0.2033 -0.1052
28474SOL    HW189784   5.556   0.529   6.654  1.0944 -0.6046 -0.0640
28474SOL    HW289785   5.502   0.432   6.757 -0.4860  0.5863  0.2779
28475SOL     OW89786   2.679   5.510   1.165 -0.1544  1.2092  0.3629
28475SOL    HW189787   2.588   5.535   1.180 -0.3785  1.7659 -1.6373
28475SOL    HW289788   2.673   5.427   1.116  0.4990 -0.1799  2.5176
28476SOL     OW89789   5.662   1.316   2.732 -0.7317  0.2807 -0.2719
28476SOL    HW189790   5.571   1.340   2.716 -1.2667 -1.2029  0.3657
28476SOL    HW289791   5.665   1.291   2.824  0.6226  1.5186  0.0537
28477SOL     OW89792   8.474   9.152   1.521  0.0565 -0.0651 -0.3120
28477SOL    HW189793   8.403   9.103   1.480  0.0024 -1.3969  1.2524
28477SOL    HW289794   8.471   9.238   1.480 -3.7118  0.6006  0.9529
28478SOL     OW89795   1.816  10.563   5.376  0.0157  0.3430 -0.2231
28478SOL    HW189796   1.846  10.653   5.364  2.1863 -0.3012 -0.0419
28478SOL    HW289797   1.721  10.568   5.364 -0.3024  3.0764  2.1490
28479SOL     OW89798   9.852   6.137   7.180  0.6355  0.2775  0.1274
28479SOL    HW189799   9.809   6.198   7.239 -0.2848 -1.0229  0.8529
28479SOL    HW289800   9.944   6.139   7.206  1.1203  3.1120 -1.4594
28480SOL     OW89801   5.115   9.864   8.738  0.1357  0.3567 -0.6955
28480SOL    HW189802   5.163   9.870   8.821  0.0867 -0.1476 -0.6302
28480SOL    HW289803   5.089   9.772   8.731  0.1536  0.3914 -1.2804
28481SOL     OW89804  10.330   5.732   4.817  0.1906  0.3743  0.5054
28481SOL    HW189805  10.306   5.660   4.875 -0.7842  0.1775 -0.1073
28481SOL    HW289806  10.425   5.731   4.814  0.1897 -1.7156 -0.5008
28482SOL     OW89807   3.341  10.642   8.733 -0.2721  0.4565  0.7071
28482SOL    HW189808   3.403  10.569   8.731 -1.0834 -0.2293  0.4174
28482SOL    HW289809   3.384  10.708   8.788  0.7895  0.0636  0.3865
28483SOL     OW89810   3.155   6.091   5.027  0.4109  0.1902  0.1223
28483SOL    HW189811   3.087   6.145   4.986 -1.2774 -0.3482  2.0645
28483SOL    HW289812   3.193   6.042   4.954  0.0505  1.8807 -1.2891
28484SOL     OW89813   1.384   5.434   8.322 -0.1851 -0.0413 -0.2172
28484SOL    HW189814   1.478   5.435   8.341 -0.2539  0.2634  0.1133
28484SOL    HW289815   1.369   5.348   8.284 -0.1976 -1.0399  1.9043
28485SOL     OW89816  10.273   7.802   1.651 -0.0347 -0.3590  0.1359
28485SOL    HW189817  10.206   7.741   1.621 -0.2270 -0.0170 -0.1500
28485SOL    HW289818  10.355   7.755   1.640  0.1408  0.4353 -2.9891
28486SOL     OW89819   1.281   5.526   0.467  0.1382 -0.0495  0.2810
28486SOL    HW189820   1.266   5.432   0.464  2.8841 -0.5928  0.5125
28486SOL    HW289821   1.352   5.541   0.404  1.5944  1.3905  2.1431
28487SOL     OW89822  10.029   5.150   8.451  0.5112  0.1026  0.0072
28487SOL    HW189823  10.125   5.144   8.453  0.5566 -0.1947 -1.7492
28487SOL    HW289824  10.010   5.213   8.382 -0.5693 -1.2558 -0.9949
28488SOL     OW89825   9.598   1.046   9.048  0.3046 -0.6147  0.3416
28488SOL    HW189826   9.570   1.100   9.122 -0.1193 -0.2168 -0.1070
28488SOL    HW289827   9.521   0.995   9.025  0.1085  0.0341 -0.5008
28489SOL     OW89828  10.804   4.991   2.837  0.3290  0.0430 -0.0236
28489SOL    HW189829  10.747   4.928   2.795  0.1444  0.7039 -0.7973
28489SOL    HW289830  10.808   4.963   2.928 -1.4549  0.1472  0.1189
28490SOL     OW89831   0.120   3.609   0.273  0.5499  0.2262  0.2573
28490SOL    HW189832   0.212   3.587   0.282  0.7273  0.1528 -1.3808
28490SOL    HW289833   0.117   3.705   0.282  1.0447  0.4109 -1.2031
28491SOL     OW89834  10.225   3.934   4.100  0.5006 -0.1795  0.2582
28491SOL    HW189835  10.253   3.965   4.014 -2.4342 -2.5532 -1.7480
28491SOL    HW289836  10.129   3.933   4.096  0.2586 -3.7431  2.1751
28492SOL     OW89837  11.022   8.675   3.567 -0.6074  0.5321 -0.2140
28492SOL    HW189838  11.041   8.758   3.523  2.0078 -0.4143 -1.1437
28492SOL    HW289839  10.939   8.646   3.530 -0.2048  1.4731 -1.9774
28493SOL     OW89840   1.617   9.090   3.313 -0.3441 -0.3587 -0.1493
28493SOL    HW189841   1.535   9.104   3.362 -1.1779  0.6777 -1.7495
28493SOL    HW289842   1.634   8.996   3.321  0.1641 -0.1234  2.9765
28494SOL     OW89843   2.993   6.680  10.997  0.6107  0.3862 -0.2137
28494SOL    HW189844   3.021   6.674  11.088  2.1738 -0.0379 -0.6877
28494SOL    HW289845   2.932   6.607  10.986  0.3648  0.4765  0.4963
28495SOL     OW89846   7.308   5.266  10.689  0.0037 -0.0571  0.3975
28495SOL    HW189847   7.395   5.290  10.656  0.8909  0.5338  2.9046
28495SOL    HW289848   7.256   5.248  10.611  2.1975  0.2057 -1.2065
28496SOL     OW89849   7.733   8.233   2.712 -0.3932  0.0867 -0.6045
28496SOL    HW189850   7.747   8.298   2.781 -0.8635 -0.7205  0.2691
28496SOL    HW289851   7.648   8.256   2.675 -0.5540 -0.0114 -0.3036
28497SOL     OW89852   6.991   7.803   9.636 -0.1199  0.4557 -0.3907
28497SOL    HW189853   6.943   7.722   9.619 -1.2600  1.1772 -0.7445
28497SOL    HW289854   6.924   7.872   9.632  0.7242  1.3585  0.4713
28498SOL     OW89855  10.291   5.753   8.757 -0.2091 -0.5942 -0.0164
28498SOL    HW189856  10.250   5.692   8.695  0.8220  0.5568 -1.9316
28498SOL    HW289857  10.313   5.698   8.833  0.5073 -2.5989 -1.5719
28499SOL     OW89858   1.022   2.418   1.174 -1.0933  0.2109 -0.0516
28499SOL    HW189859   1.074   2.472   1.233  1.2623 -0.8300 -1.0647
28499SOL    HW289860   1.041   2.453   1.086 -0.7242 -1.2591 -0.5866
28500SOL     OW89861  10.186   8.637   7.139  0.4162 -0.0116  0.0525
28500SOL    HW189862  10.223   8.643   7.051 -1.9711  1.5693 -0.9682
28500SOL    HW289863  10.235   8.701   7.191  1.6958 -0.8008 -0.1474
28501SOL     OW89864   0.826   6.612  10.135  0.0569 -0.0226 -0.1884
28501SOL    HW189865   0.758   6.640  10.196 -0.6629 -1.4420 -0.2873
28501SOL    HW289866   0.876   6.691  10.116 -1.2056  0.9349  0.3498
28502SOL     OW89867   4.540   7.158   3.364 -0.1990 -0.2314  0.2095
28502SOL    HW189868   4.479   7.091   3.396 -2.0600  0.4083 -1.7642
28502SOL    HW289869   4.573   7.201   3.443 -0.2990 -2.2847  1.4433
28503SOL     OW89870   3.996   5.928   1.595 -0.2315 -0.2924  0.0142
28503SOL    HW189871   4.009   5.947   1.502 -0.8667  1.3219  0.2300
28503SOL    HW289872   3.901   5.922   1.606 -0.2386  0.8977  0.7890
28504SOL     OW89873   8.225   1.876   4.533  0.3711 -0.0381  0.1528
28504SOL    HW189874   8.220   1.916   4.620  3.2580 -0.4425  0.5986
28504SOL    HW289875   8.305   1.911   4.495 -1.1362  0.6061 -2.6620
28505SOL     OW89876   1.743   3.032   7.398 -0.0787  0.9070  0.6638
28505SOL    HW189877   1.749   2.936   7.395 -1.9517  0.7910 -0.7866
28505SOL    HW289878   1.791   3.062   7.321 -0.2137  1.0940  0.6508
28506SOL     OW89879   7.625   4.978   2.946  0.0363  0.1549  0.1031
28506SOL    HW189880   7.687   5.027   2.999  1.4558 -0.1059 -1.2638
28506SOL    HW289881   7.543   4.983   2.996  1.4727 -0.8510  2.7952
28507SOL     OW89882   8.196   6.802   5.543 -0.3916  0.1004 -0.0346
28507SOL    HW189883   8.243   6.847   5.473  0.4693  0.0284  0.4842
28507SOL    HW289884   8.243   6.719   5.554  0.8193  0.9805  2.0358
28508SOL     OW89885   6.746   3.208  10.871 -0.0292  0.3915 -0.1698
28508SOL    HW189886   6.805   3.240  10.939  0.7036  0.6058 -0.8996
28508SOL    HW289887   6.724   3.285  10.819  0.5323 -0.0035 -1.0158
28509SOL     OW89888   6.148   0.793   6.851  0.1134 -0.1324  0.0694
28509SOL    HW189889   6.164   0.702   6.824  1.5358  0.2374 -0.4154
28509SOL    HW289890   6.067   0.788   6.903  1.8468 -2.2275  2.8766
28510SOL     OW89891   8.001   2.955   0.687 -0.7017  0.1472  0.2795
28510SOL    HW189892   8.076   2.908   0.650 -1.2002  1.1193 -2.1380
28510SOL    HW289893   7.930   2.891   0.688 -0.2032 -0.4126  1.3782
28511SOL     OW89894   7.441   3.519   2.043  0.2140  0.0674  0.3765
28511SOL    HW189895   7.366   3.579   2.042 -1.3140 -1.7584  0.1673
28511SOL    HW289896   7.471   3.521   2.134  0.9004  1.9245  0.1580
28512SOL     OW89897   5.385   9.839   8.354 -0.0216 -0.6464  0.9063
28512SOL    HW189898   5.426   9.761   8.390  0.3962 -0.6146  0.5156
28512SOL    HW289899   5.348   9.884   8.430  0.1170 -1.0036  1.1878
28513SOL     OW89900   7.385   1.906   4.647  0.0120  0.0522 -0.0300
28513SOL    HW189901   7.383   1.813   4.624 -0.0535  0.2339 -0.7892
28513SOL    HW289902   7.478   1.924   4.665 -0.1200 -0.3998  1.1922
28514SOL     OW89903   4.929   9.272   7.397 -0.9278 -0.0346 -0.1098
28514SOL    HW189904   4.996   9.218   7.439  0.2507  1.6706  0.2785
28514SOL    HW289905   4.959   9.281   7.306 -2.0658 -1.4443 -0.6879
28515SOL     OW89906   2.459   3.858   3.074  0.0963 -0.0187 -0.7170
28515SOL    HW189907   2.461   3.840   3.168  0.9304  1.7881 -0.3329
28515SOL    HW289908   2.370   3.835   3.047 -0.1928 -0.4778  0.5305
28516SOL     OW89909  10.266   0.424   5.604 -0.1071  0.4987  0.1014
28516SOL    HW189910  10.176   0.419   5.636  0.1022 -0.2504  0.6093
28516SOL    HW289911  10.320   0.403   5.680  0.5389  1.6505 -0.0172
28517SOL     OW89912   6.136   0.983   3.136  0.3703 -0.3919  0.3365
28517SOL    HW189913   6.108   1.023   3.054  1.6729 -0.4119 -0.1417
28517SOL    HW289914   6.066   0.922   3.158 -1.1100  1.2512  0.4703
28518SOL     OW89915   8.361   1.511   8.847 -0.0287  0.3886  0.0703
28518SOL    HW189916   8.282   1.517   8.901 -0.0567 -0.8595  0.1977
28518SOL    HW289917   8.367   1.596   8.803 -2.2744  0.0127 -1.0916
28519SOL     OW89918   3.851   5.810   2.945  0.8567  0.2122 -0.1418
28519SOL    HW189919   3.941   5.781   2.931  0.4315 -0.7447 -0.9609
28519SOL    HW289920   3.797   5.745   2.901 -0.4007 -0.7060  2.5274
28520SOL     OW89921   8.862   2.646   1.221 -0.7933  0.4999  0.7073
28520SOL    HW189922   8.793   2.666   1.285 -3.0978  0.6746 -1.6580
28520SOL    HW289923   8.863   2.551   1.215 -2.3618  0.5387 -0.7276
28521SOL     OW89924  11.112   9.390   3.943 -0.1712  0.5876 -0.2777
28521SOL    HW189925  11.086   9.364   3.855 -1.6403 -1.6353  0.7281
28521SOL    HW289926  11.206   9.372   3.947  0.1048  1.5901 -1.6361
28522SOL     OW89927   1.240   8.730   8.248 -0.0431 -0.6774  0.6528
28522SOL    HW189928   1.233   8.826   8.256  1.5116 -0.4125 -0.7206
28522SOL    HW289929   1.334   8.714   8.243 -0.3491 -2.0919 -1.1914
28523SOL     OW89930   0.345   1.169   2.867  0.0663 -0.2615 -0.6195
28523SOL    HW189931   0.272   1.177   2.806  0.2234 -1.0135 -0.9248
28523SOL    HW289932   0.421   1.154   2.811  0.3367 -0.1969 -0.2721
28524SOL     OW89933   4.161   1.128   7.789 -0.0326 -0.1891  0.4647
28524SOL    HW189934   4.220   1.203   7.781 -0.6715  0.2549 -0.1330
28524SOL    HW289935   4.217   1.052   7.772  0.3832  0.2244 -0.0646
28525SOL     OW89936   2.878   7.564   8.513  0.0529 -0.2279  0.1022
28525SOL    HW189937   2.845   7.491   8.460  0.8075 -0.4027 -0.1404
28525SOL    HW289938   2.800   7.614   8.536 -0.4519 -0.9756  0.0664
28526SOL     OW89939  11.009   7.103   2.974  0.1044 -0.5229  0.0069
28526SOL    HW189940  11.028   7.066   3.060 -1.0666 -0.3510  0.3670
28526SOL    HW289941  10.915   7.087   2.961  0.2546 -0.5107 -1.2249
28527SOL     OW89942   1.821   7.242   2.324 -0.1645 -0.7177  0.0690
28527SOL    HW189943   1.826   7.167   2.384  0.4439 -0.7709 -0.0355
28527SOL    HW289944   1.855   7.315   2.375  0.9486 -0.8923 -0.3954
28528SOL     OW89945   1.711   1.014   7.485 -0.6244  0.3618  0.1322
28528SOL    HW189946   1.796   1.037   7.446 -0.4159  0.6097  0.7117
28528SOL    HW289947   1.729   1.011   7.579 -1.1391 -0.1196  0.2177
28529SOL     OW89948   8.682   3.968   9.766  0.3357 -0.4617  0.1701
28529SOL    HW189949   8.720   4.050   9.735  0.2088 -0.8013 -0.9212
28529SOL    HW289950   8.734   3.899   9.725  0.2407 -0.9292  0.8181
28530SOL     OW89951   6.205   9.404   0.114  0.0831 -0.3173  0.5599
28530SOL    HW189952   6.298   9.384   0.110  0.4243  1.2033  0.3483
28530SOL    HW289953   6.186   9.447   0.031 -0.1863  1.7624  1.6441
28531SOL     OW89954   8.265  10.878  10.063 -0.3001  0.8879  0.4130
28531SOL    HW189955   8.225  10.865   9.977  1.1221  2.0848 -0.4705
28531SOL    HW289956   8.232  10.963  10.093  0.5500  1.2919  0.2438
28532SOL     OW89957   1.408   3.769   8.135  0.8053  0.1474  0.4540
28532SOL    HW189958   1.401   3.864   8.134  0.6647  0.1370  0.5206
28532SOL    HW289959   1.502   3.752   8.144  0.8440  0.2785  0.2807
28533SOL     OW89960   0.019   8.861   9.514  0.1769 -0.0893  0.2332
28533SOL    HW189961   0.098   8.866   9.568  0.4487 -0.3880 -0.1282
28533SOL    HW289962  -0.013   8.771   9.528  0.6390 -0.4004 -0.6314
28534SOL     OW89963   4.460   5.695   9.388 -0.2833 -0.3750 -0.1894
28534SOL    HW189964   4.521   5.767   9.400 -0.8195 -0.0644  0.8141
28534SOL    HW289965   4.483   5.633   9.457 -1.0435 -0.2833  0.1560
28535SOL     OW89966   4.498   3.098   6.777 -0.1533  0.1208  0.0337
28535SOL    HW189967   4.538   3.014   6.802  1.0515  0.8623  0.7196
28535SOL    HW289968   4.408   3.076   6.754 -0.5075 -1.0702  2.2471
28536SOL     OW89969   1.639   8.210   2.688  0.6390 -0.4598 -0.6617
28536SOL    HW189970   1.710   8.265   2.722 -0.0774 -0.5407  1.0307
28536SOL    HW289971   1.560   8.260   2.706  0.2232 -0.4042 -2.4762
28537SOL     OW89972   3.640   1.307  10.042 -0.1704 -0.0557  0.2852
28537SOL    HW189973   3.639   1.401  10.059 -1.1235 -0.0518  0.2431
28537SOL    HW289974   3.680   1.298   9.955 -0.3687  0.3308  0.1531
28538SOL     OW89975   6.462   6.011  10.948  0.4348 -0.1253 -0.4544
28538SOL    HW189976   6.475   6.087  11.006 -0.8319 -1.5547  1.8884
28538SOL    HW289977   6.367   5.996  10.950  0.6008 -1.4606 -1.2792
28539SOL     OW89978   3.371   8.550   9.016 -0.1552 -0.0416 -0.0460
28539SOL    HW189979   3.421   8.489   8.962 -1.1018 -1.0017  0.1440
28539SOL    HW289980   3.361   8.506   9.100 -1.6407 -0.0285 -0.1984
28540SOL     OW89981   9.738   8.868   5.270 -0.6668  0.0285 -0.1275
28540SOL    HW189982   9.737   8.930   5.343 -0.4507 -0.2265  0.0913
28540SOL    HW289983   9.663   8.894   5.216 -0.0390  1.0868 -0.5436
28541SOL     OW89984   1.471   8.674  10.440 -0.1437 -0.0857  0.5320
28541SOL    HW189985   1.478   8.583  10.467 -0.0747 -0.1627  0.2658
28541SOL    HW289986   1.516   8.723  10.508 -0.6760 -0.1960  0.9724
28542SOL     OW89987   1.653   1.390   7.150 -0.0395  0.1389 -0.0503
28542SOL    HW189988   1.747   1.407   7.142  0.1823 -0.6800  0.6529
28542SOL    HW289989   1.634   1.327   7.080 -0.4922  1.7752 -1.4735
28543SOL     OW89990   8.897   6.033   9.189 -0.3668  0.2207 -0.0874
28543SOL    HW189991   8.841   5.976   9.242  0.7684 -1.6642 -0.7989
28543SOL    HW289992   8.932   5.975   9.121 -1.4431  2.4292 -2.7003
28544SOL     OW89993   4.128   9.702   4.061  0.1490 -0.1451 -0.0920
28544SOL    HW189994   4.195   9.688   4.128  0.9865 -0.6053 -0.9982
28544SOL    HW289995   4.076   9.622   4.061 -0.9321  0.5291  1.1689
28545SOL     OW89996  10.856   2.339   5.661 -0.3822  0.0941  0.3213
28545SOL    HW189997  10.928   2.341   5.724 -0.1541 -2.3820  0.2347
28545SOL    HW289998  10.854   2.428   5.624  3.9585 -0.1833 -1.1556
28546SOL     OW89999   1.523   5.343   6.006  0.4784 -0.0005 -0.8090
28546SOL    HW190000   1.503   5.355   6.099  0.2078 -2.2920 -0.5007
28546SOL    HW290001   1.438   5.337   5.964  0.5775 -0.6030 -0.9342
28547SOL     OW90002   0.688   5.934   2.936  0.2115  0.2472 -0.0444
28547SOL    HW190003   0.696   5.987   2.856  1.8863  0.2266  0.0712
28547SOL    HW290004   0.692   5.844   2.905  1.9508  0.2427  0.1230
28548SOL     OW90005   4.795   3.302   5.124  0.1083  0.7106 -0.0292
28548SOL    HW190006   4.765   3.337   5.208  0.6834  1.9713 -0.3337
28548SOL    HW290007   4.714   3.284   5.076 -0.2101  0.8180  0.4556
28549SOL     OW90008   6.525   7.647   7.733 -0.6256 -0.7768  0.4712
28549SOL    HW190009   6.484   7.654   7.647  0.9542 -1.5781 -0.3950
28549SOL    HW290010   6.509   7.557   7.761 -2.0409 -0.2348  1.5448
28550SOL     OW90011   0.972  10.941   2.236 -0.2613  0.4149  0.1914
28550SOL    HW190012   0.987  11.035   2.235  0.3133  0.3654  1.7148
28550SOL    HW290013   1.055  10.903   2.262 -0.9749 -0.3772  1.4238
28551SOL     OW90014   9.710   9.272   7.184 -0.1136  0.0939  0.1498
28551SOL    HW190015   9.716   9.357   7.142 -2.2878  0.1065 -0.2504
28551SOL    HW290016   9.642   9.283   7.251  0.7854 -0.8717  1.2670
28552SOL     OW90017   9.982   4.491   3.386 -0.1011 -0.2580 -0.0131
28552SOL    HW190018  10.059   4.444   3.417  0.2249  0.6478  0.6174
28552SOL    HW290019   9.912   4.464   3.445 -0.6310 -2.1553 -1.4458
28553SOL     OW90020   9.609   0.171   3.131 -0.0590 -0.1313 -0.2939
28553SOL    HW190021   9.595   0.076   3.128 -0.7415 -0.1078  1.2311
28553SOL    HW290022   9.599   0.194   3.224  3.9335  0.8981  0.0629
28554SOL     OW90023   5.491   4.095   7.626  0.1925  0.0082  0.0911
28554SOL    HW190024   5.562   4.083   7.689  1.5029  2.0204 -0.9002
28554SOL    HW290025   5.533   4.087   7.541 -0.8491  0.8043 -0.5216
28555SOL     OW90026   2.437   2.957   1.381 -0.2778 -0.6817 -0.4853
28555SOL    HW190027   2.363   2.897   1.387  0.4161 -1.4384  1.2135
28555SOL    HW290028   2.441   2.981   1.288 -2.0622 -1.3372 -0.7660
28556SOL     OW90029   2.986   3.808   6.808  0.3550 -0.3525 -0.1437
28556SOL    HW190030   2.952   3.841   6.891  0.7084 -1.7281  0.5782
28556SOL    HW290031   3.001   3.887   6.755 -2.4602  0.4215  0.0339
28557SOL     OW90032   7.872   9.586  11.064  0.0379 -0.8434  0.4134
28557SOL    HW190033   7.860   9.681  11.065 -0.5586 -0.9187  0.7140
28557SOL    HW290034   7.961   9.573  11.031 -0.6168 -0.2619 -1.7391
28558SOL     OW90035   7.250   6.868  10.192  0.1471  0.4820  0.2680
28558SOL    HW190036   7.275   6.960  10.202  0.2560  0.5159 -0.2980
28558SOL    HW290037   7.333   6.821  10.193  0.1358  0.4534 -0.1076
28559SOL     OW90038   3.537   4.633   8.294  0.6206 -0.1396  0.3705
28559SOL    HW190039   3.616   4.580   8.282  0.6402  0.3429 -2.0970
28559SOL    HW290040   3.470   4.569   8.317  0.7442 -1.2940 -2.0933
28560SOL     OW90041   5.150   7.439   0.107  0.3434  0.7844 -0.0960
28560SOL    HW190042   5.099   7.359   0.100 -0.9965  1.1933  3.0871
28560SOL    HW290043   5.240   7.412   0.089  0.0002 -1.5957  1.3364
28561SOL     OW90044   9.774   1.528   0.538  0.2926 -0.6044  0.3689
28561SOL    HW190045   9.731   1.528   0.453 -1.8135  1.7187  1.2967
28561SOL    HW290046   9.837   1.599   0.534  1.4575 -1.6246  0.2135
28562SOL     OW90047   8.195   7.179   9.244  0.2054 -0.3338 -0.4291
28562SOL    HW190048   8.151   7.248   9.194 -1.1116 -0.2074  0.8331
28562SOL    HW290049   8.225   7.117   9.178 -0.5136  0.3735 -1.4502
28563SOL     OW90050   4.031   7.775   3.750 -0.4426  0.1943 -0.7267
28563SOL    HW190051   4.016   7.861   3.790  0.3778 -0.2367  0.5830
28563SOL    HW290052   4.016   7.713   3.822 -0.4713 -0.7305 -1.5142
28564SOL     OW90053   5.347   1.090   8.591 -0.1332  0.2623 -0.5062
28564SOL    HW190054   5.377   1.072   8.680 -0.5650 -2.4685 -0.8413
28564SOL    HW290055   5.396   1.168   8.565 -0.3897  1.4677  2.2825
28565SOL     OW90056   7.876   8.819   7.115  0.2484  0.0533  0.1829
28565SOL    HW190057   7.867   8.746   7.176  2.7301  2.2534  3.6039
28565SOL    HW290058   7.950   8.796   7.060 -1.0539 -1.3061 -1.0913
28566SOL     OW90059   2.713   9.758   2.022  0.0866  0.3791 -0.1067
28566SOL    HW190060   2.630   9.741   2.066 -0.0992  0.3445 -0.4665
28566SOL    HW290061   2.737   9.846   2.049 -0.3682  0.6175 -0.4743
28567SOL     OW90062  10.583   0.491   9.434  0.2697 -0.2062 -0.4146
28567SOL    HW190063  10.667   0.519   9.397 -0.4292  1.8533 -0.5629
28567SOL    HW290064  10.525   0.483   9.359  0.3151 -1.6372 -0.3147
28568SOL     OW90065   1.247   5.026   6.065  0.9075  0.1360 -0.2231
28568SOL    HW190066   1.271   5.071   5.984 -0.1579 -1.5103 -1.5275
28568SOL    HW290067   1.314   5.053   6.128  1.6444  1.6414 -1.5738
28569SOL     OW90068   4.827   6.389   9.607  0.3720 -0.1694 -0.6319
28569SOL    HW190069   4.880   6.467   9.593  0.6254 -0.4338 -1.1843
28569SOL    HW290070   4.885   6.328   9.652  0.6728 -0.5910 -1.5521
28570SOL     OW90071   2.740   2.500   4.964 -0.5392  1.1452 -0.3154
28570SOL    HW190072   2.815   2.472   5.016 -0.7785  0.2409 -0.4392
28570SOL    HW290073   2.675   2.527   5.029 -0.0890  2.0178 -0.2110
28571SOL     OW90074   7.858   3.652   0.095 -0.1962  0.4580 -0.1373
28571SOL    HW190075   7.892   3.567   0.065  1.4914  1.5516 -1.5442
28571SOL    HW290076   7.840   3.700   0.014  0.9845  2.2214  0.5983
28572SOL     OW90077   9.666   2.504   4.762  0.0080  0.5430 -0.0222
28572SOL    HW190078   9.758   2.508   4.738  0.6478  2.7574  2.2936
28572SOL    HW290079   9.621   2.556   4.696  1.0771  2.9543  1.0493
28573SOL     OW90080   8.012   3.661   7.291 -0.3525  0.2326 -0.4870
28573SOL    HW190081   7.942   3.698   7.344 -0.2646 -0.2262 -0.0404
28573SOL    HW290082   7.967   3.607   7.226 -0.5336  1.7490 -1.6866
28574SOL     OW90083  10.599  10.159   1.677 -0.0130 -0.3625 -0.0265
28574SOL    HW190084  10.637  10.117   1.600  0.9689 -0.9529  0.7555
28574SOL    HW290085  10.528  10.214   1.642 -1.0709 -2.3041 -1.1380
28575SOL     OW90086   5.946   5.381   2.857  0.0355  0.1313  0.5349
28575SOL    HW190087   6.022   5.428   2.892 -0.9026 -0.1895  3.2487
28575SOL    HW290088   5.972   5.289   2.861  0.3047  0.1364 -0.7186
28576SOL     OW90089   2.459   2.420   6.224  0.3295 -0.0244  0.0191
28576SOL    HW190090   2.439   2.514   6.220 -0.9709 -0.2031  1.4898
28576SOL    HW290091   2.378   2.380   6.253  1.4116 -1.4008  1.2934
28577SOL     OW90092   2.548   2.126   5.446 -0.1199  0.4432  0.3058
28577SOL    HW190093   2.612   2.080   5.499 -0.3280  0.7109  0.7948
28577SOL    HW290094   2.506   2.188   5.506  1.4372  2.6233 -0.7302
28578SOL     OW90095   0.811   5.337   2.802  0.1594  0.1097 -0.0874
28578SOL    HW190096   0.809   5.287   2.720  2.5855 -0.6549  0.2305
28578SOL    HW290097   0.900   5.373   2.806 -0.4814  1.6966  1.3401
28579SOL     OW90098   6.777   7.288   5.287  0.1737  0.0164 -0.4479
28579SOL    HW190099   6.694   7.318   5.327  1.2231  0.2440  1.7238
28579SOL    HW290100   6.768   7.193   5.282 -0.6787  0.1330 -1.3618
28580SOL     OW90101   4.752   3.972   8.155  0.1500  0.5184 -0.3313
28580SOL    HW190102   4.777   4.045   8.211  3.2936 -0.1412 -0.6679
28580SOL    HW290103   4.758   3.895   8.211 -0.4053  0.2112 -0.6750
28581SOL     OW90104   5.596   5.713   9.949  0.1329  0.3731 -0.1388
28581SOL    HW190105   5.672   5.699  10.006  0.6683  1.2143 -0.6303
28581SOL    HW290106   5.592   5.807   9.937 -0.0795  0.2272 -1.3480
28582SOL     OW90107   2.278   6.013   0.974  0.1181 -0.2166  0.0652
28582SOL    HW190108   2.319   5.927   0.978  0.5501  0.0136  0.8622
28582SOL    HW290109   2.300   6.046   0.887 -0.1470 -0.9498 -0.2920
28583SOL     OW90110  10.919   9.564   6.030  0.0114  0.2338 -0.1140
28583SOL    HW190111  10.869   9.589   6.107  0.2647 -0.4571  0.2847
28583SOL    HW290112  11.008   9.596   6.047 -0.3460  1.8492 -1.0123
28584SOL     OW90113   7.687   1.881   4.187 -0.0375  0.4071  0.2500
28584SOL    HW190114   7.671   1.894   4.094 -1.1280  1.3588  0.5481
28584SOL    HW290115   7.636   1.803   4.209  1.5222 -0.8150 -0.2500
28585SOL     OW90116   2.773   3.727   5.225  0.2108 -0.1316 -0.3139
28585SOL    HW190117   2.837   3.797   5.207 -0.7961  0.2944 -2.7267
28585SOL    HW290118   2.724   3.719   5.143  0.5330 -3.9972 -0.3068
28586SOL     OW90119   6.428   8.979   7.570 -0.1402 -0.2240  0.3870
28586SOL    HW190120   6.345   9.002   7.528 -0.7370 -0.4923  1.3801
28586SOL    HW290121   6.475   8.928   7.505 -0.9169 -0.3767 -0.0625
28587SOL     OW90122  11.015   4.761   8.996 -0.2122  0.3861 -0.4908
28587SOL    HW190123  11.083   4.710   9.041 -0.2126  0.6586 -0.1785
28587SOL    HW290124  11.056   4.790   8.915 -0.7559 -1.6139 -1.5682
28588SOL     OW90125   0.400   5.989   8.048 -0.1549 -0.2779  0.0622
28588SOL    HW190126   0.394   6.074   8.004 -1.7995 -0.5461 -0.2830
28588SOL    HW290127   0.382   5.925   7.979 -1.0222 -0.8003  0.7618
28589SOL     OW90128   1.029   1.530   1.790  0.6436  0.4924  0.3577
28589SOL    HW190129   1.037   1.466   1.719 -2.1733  0.4460 -0.0383
28589SOL    HW290130   1.063   1.611   1.753  1.2548 -0.0285 -0.2582
28590SOL     OW90131  10.870   0.738   7.024  0.3346 -0.1079  0.5100
28590SOL    HW190132  10.856   0.645   7.041  2.9382 -0.4389  1.3541
28590SOL    HW290133  10.842   0.782   7.104  1.0807 -0.4144  0.9519
28591SOL     OW90134   1.563   8.606   9.586  0.6324 -0.3491 -0.2175
28591SOL    HW190135   1.624   8.533   9.587  0.6221 -0.3754 -0.9427
28591SOL    HW290136   1.478   8.566   9.604  0.2196 -0.9438 -2.9797
28592SOL     OW90137   8.712   9.467   2.252 -0.2624 -0.0703  0.3713
28592SOL    HW190138   8.749   9.555   2.264  0.1360 -0.1044 -0.5184
28592SOL    HW290139   8.618   9.481   2.249 -0.3981  0.0021  2.8397
28593SOL     OW90140   3.736   9.697  10.835 -0.0298  0.1127  0.1401
28593SOL    HW190141   3.701   9.761  10.773  0.7734  0.3460 -0.0884
28593SOL    HW290142   3.698   9.614  10.807  0.4709  0.1863 -0.8026
28594SOL     OW90143   1.035   7.851   1.179 -0.4646  0.2938 -0.6705
28594SOL    HW190144   1.110   7.798   1.204  1.1966  2.7280 -0.0397
28594SOL    HW290145   1.031   7.842   1.084  1.2496  0.7838 -0.8358
28595SOL     OW90146   0.338   3.109   2.383  0.3019  0.4062  0.3372
28595SOL    HW190147   0.278   3.176   2.416 -0.4492  0.1004 -0.3607
28595SOL    HW290148   0.407   3.103   2.449  0.7009  2.2644  0.1362
28596SOL     OW90149   2.320   8.959   5.590 -0.6119 -0.2224 -0.1142
28596SOL    HW190150   2.225   8.973   5.584 -0.6122  0.5139  1.3850
28596SOL    HW290151   2.356   9.011   5.517 -1.4320 -1.7544 -1.6790
28597SOL     OW90152   8.671   1.334  10.430  0.0989  0.0937  0.2954
28597SOL    HW190153   8.739   1.401  10.438  2.4234 -1.9959 -0.5862
28597SOL    HW290154   8.633   1.349  10.343  1.6247 -0.5478 -0.5158
28598SOL     OW90155   7.021   0.817   5.015 -0.3615  0.3347 -0.1539
28598SOL    HW190156   6.934   0.856   5.021 -0.3024  0.6418 -1.0869
28598SOL    HW290157   7.082   0.890   5.029 -0.2525  0.1310  0.4468
28599SOL     OW90158   3.469   7.605   5.377 -0.7935 -0.3193  0.1222
28599SOL    HW190159   3.381   7.584   5.345 -1.3348  1.6258  0.1768
28599SOL    HW290160   3.460   7.693   5.415  1.5129  0.6376 -1.3336
28600SOL     OW90161   9.344   3.405   2.553  0.0652 -0.1131  0.2064
28600SOL    HW190162   9.330   3.490   2.510 -0.6962 -0.6258 -0.6151
28600SOL    HW290163   9.399   3.357   2.491  0.8819 -0.0627  0.8856
28601SOL     OW90164   1.364   5.405   3.592  0.9492 -0.1108  0.1342
28601SOL    HW190165   1.324   5.459   3.524  1.5093  0.9075  0.5781
28601SOL    HW290166   1.391   5.468   3.659  0.0163 -1.1117  1.5208
28602SOL     OW90167   7.344  10.294  10.464 -0.1338  0.3731 -0.8727
28602SOL    HW190168   7.393  10.377  10.469  0.9752 -0.3169  0.9588
28602SOL    HW290169   7.275  10.303  10.530  0.0584 -0.1848 -0.5898
28603SOL     OW90170   7.864   0.722   1.104  0.4249  0.5829 -0.1919
28603SOL    HW190171   7.841   0.713   1.196  0.2713  2.3637 -0.0096
28603SOL    HW290172   7.943   0.777   1.105 -0.7325  2.3699 -1.1479
28604SOL     OW90173   4.090   2.760   6.821  0.0265  0.2280 -0.3040
28604SOL    HW190174   4.074   2.667   6.838  0.2140 -0.0373 -1.5066
28604SOL    HW290175   4.040   2.779   6.742  1.3435  0.7334 -1.0338
28605SOL     OW90176   6.263  10.719   6.826 -0.1684 -0.3401 -0.3829
28605SOL    HW190177   6.220  10.776   6.890  0.0856  0.0176 -0.5241
28605SOL    HW290178   6.251  10.764   6.742 -0.8147 -0.9828 -0.6460
28606SOL     OW90179   5.031   7.432   0.481  0.1629 -0.0458  0.1395
28606SOL    HW190180   5.070   7.376   0.414 -2.3326  0.4531 -1.8888
28606SOL    HW290181   5.099   7.497   0.499  1.4684 -1.0864 -0.7744
28607SOL     OW90182   0.259   1.734   0.659 -0.0666 -0.1908  0.2416
28607SOL    HW190183   0.188   1.736   0.724  0.3984  0.2508  0.7467
28607SOL    HW290184   0.302   1.650   0.673 -0.7023 -0.6287 -0.3167
28608SOL     OW90185   6.234   7.144   5.579  0.1698 -0.6083 -0.5476
28608SOL    HW190186   6.146   7.139   5.616  0.4019  1.8456  0.5204
28608SOL    HW290187   6.225   7.202   5.503  0.8565 -0.3517 -0.4388
28609SOL     OW90188   9.007   5.413   9.481  0.1781  0.0016 -0.0783
28609SOL    HW190189   9.035   5.450   9.564  0.2215 -0.5172  0.1453
28609SOL    HW290190   8.992   5.320   9.500 -1.9207  0.2672 -0.1171
28610SOL     OW90191   1.875   7.133   2.589 -0.5171  0.1925  0.1400
28610SOL    HW190192   1.902   7.223   2.569 -1.0201  0.2930 -0.0853
28610SOL    HW290193   1.940   7.103   2.654  0.6343  0.1379 -0.9998
28611SOL     OW90194   2.234   7.006   4.526 -0.3227 -0.0173 -0.2812
28611SOL    HW190195   2.319   7.047   4.540 -0.5639  0.3124  0.2583
28611SOL    HW290196   2.253   6.913   4.520 -0.0703 -0.1026  1.3189
28612SOL     OW90197  10.671   0.238   1.519  0.4857  0.1246  0.3643
28612SOL    HW190198  10.594   0.291   1.540 -0.5377 -0.6457 -1.2638
28612SOL    HW290199  10.663   0.161   1.575 -1.3626 -1.1658 -1.5510
28613SOL     OW90200   2.822   8.878   3.843  0.0346 -0.2005 -0.1838
28613SOL    HW190201   2.778   8.961   3.860 -0.2008 -0.2576 -0.5042
28613SOL    HW290202   2.904   8.884   3.892 -0.1112  0.1010  0.0311
28614SOL     OW90203   5.547   0.477   3.816  0.1738  0.3026 -0.2610
28614SOL    HW190204   5.469   0.517   3.780 -1.5579 -1.9094  0.7746
28614SOL    HW290205   5.618   0.538   3.795 -2.0704  3.3555  0.4368
28615SOL     OW90206   0.700   3.408   3.835 -0.1350 -0.2427  0.1968
28615SOL    HW190207   0.770   3.466   3.805  0.4867 -0.8009  0.5442
28615SOL    HW290208   0.631   3.418   3.770 -0.1609  1.1034  0.4028
28616SOL     OW90209   7.744  11.032   0.036 -0.2203  0.2288 -0.3129
28616SOL    HW190210   7.748  11.111  -0.018 -0.7533 -0.6064 -1.6233
28616SOL    HW290211   7.772  11.061   0.123 -0.1328  1.7898 -0.8294
28617SOL     OW90212   5.751   0.011  10.280  0.8280  0.1975  0.0109
28617SOL    HW190213   5.770  -0.046  10.206  0.0851  1.6254 -1.3431
28617SOL    HW290214   5.681  -0.034  10.328  2.3215 -1.4459  0.7429
28618SOL     OW90215   5.161   0.938   2.980  0.1871  0.3057  0.6904
28618SOL    HW190216   5.108   0.944   3.060  0.3608 -0.1399  0.8418
28618SOL    HW290217   5.209   0.856   2.989 -0.8812 -0.5007 -0.5434
28619SOL     OW90218   0.887   4.767   9.718 -0.8261  0.0506 -0.1030
28619SOL    HW190219   0.939   4.842   9.749 -1.5736  1.1274 -1.3764
28619SOL    HW290220   0.935   4.690   9.751  0.3912  1.0486  0.5653
28620SOL     OW90221   4.099  10.176   4.615  0.1805 -0.8508 -0.3401
28620SOL    HW190222   4.060  10.226   4.544  2.3253  0.1359 -0.8828
28620SOL    HW290223   4.033  10.178   4.685 -1.4142 -0.7317 -1.7803
28621SOL     OW90224   1.971   5.871   3.230  0.3428 -0.2253  0.0345
28621SOL    HW190225   1.939   5.785   3.204  0.0917 -0.2021  0.2640
28621SOL    HW290226   2.029   5.853   3.305  0.4596 -0.2158 -0.0534
28622SOL     OW90227   0.815   7.288   1.448  0.4602 -0.6671 -0.3481
28622SOL    HW190228   0.757   7.364   1.455 -0.7246 -1.5519 -0.2647
28622SOL    HW290229   0.806   7.244   1.533  0.3042 -1.4621 -0.7652
28623SOL     OW90230   5.069   5.981   2.341  0.2127  0.4536 -0.3824
28623SOL    HW190231   5.101   5.970   2.430  0.2810  1.6030 -0.2466
28623SOL    HW290232   5.075   6.075   2.325 -3.6293  0.9372 -0.1176
28624SOL     OW90233   6.982   6.648   9.607 -0.0441  0.1570  0.2577
28624SOL    HW190234   7.015   6.727   9.649  0.7721  0.3193 -0.6538
28624SOL    HW290235   6.914   6.678   9.547 -0.8447 -0.0192  1.0524
28625SOL     OW90236   8.646   1.558   0.730  0.0972 -0.5596  0.1767
28625SOL    HW190237   8.696   1.610   0.667 -0.0210 -1.4472 -0.6621
28625SOL    HW290238   8.706   1.548   0.805 -0.3623  1.8912  0.9510
28626SOL     OW90239   4.604   8.796   6.498  0.1281 -0.5656  0.0767
28626SOL    HW190240   4.641   8.817   6.412 -1.1899 -1.4447 -0.7450
28626SOL    HW290241   4.511   8.782   6.481  0.2768 -3.4590  1.0985
28627SOL     OW90242  10.060   1.836   6.182  0.4213  0.3656 -0.0310
28627SOL    HW190243  10.013   1.812   6.102 -0.1309 -1.7735  0.8679
28627SOL    HW290244  10.131   1.772   6.188  1.3928  1.4522  0.4225
28628SOL     OW90245   8.657   6.047   9.616  0.1181  0.4884  0.4426
28628SOL    HW190246   8.640   6.112   9.548 -0.4243 -0.6098 -0.5059
28628SOL    HW290247   8.751   6.032   9.611  0.1799  0.8786  0.3739
28629SOL     OW90248   5.239   5.775   7.776 -0.4739 -0.1903  0.5653
28629SOL    HW190249   5.270   5.709   7.714 -1.8314 -0.6588  0.3635
28629SOL    HW290250   5.315   5.792   7.833  0.9341  0.5299 -1.4231
28630SOL     OW90251   3.720   6.320   8.486 -0.3444  0.2635 -0.5331
28630SOL    HW190252   3.636   6.365   8.481 -0.5421 -0.2410 -2.7316
28630SOL    HW290253   3.725   6.269   8.406  1.5136 -0.7342  0.1510
28631SOL     OW90254   1.262   8.349   3.581  0.6827 -0.0640 -0.0092
28631SOL    HW190255   1.277   8.403   3.659 -1.2194 -0.0863  0.4356
28631SOL    HW290256   1.170   8.366   3.558  0.5415 -1.7898 -0.8839
28632SOL     OW90257   7.687   8.511   3.872  0.2745 -0.2032  0.0821
28632SOL    HW190258   7.649   8.464   3.798  0.5173  0.1787 -0.2853
28632SOL    HW290259   7.693   8.445   3.942  0.1603 -0.5929 -0.2737
28633SOL     OW90260   7.891   4.958   4.537 -0.2058 -0.0065  0.1520
28633SOL    HW190261   7.961   4.992   4.594 -0.9802  0.6105  0.7555
28633SOL    HW290262   7.875   4.869   4.569 -0.2379  0.1331  0.5271
28634SOL     OW90263   7.974   7.767   9.483  0.9021  0.1105  0.4477
28634SOL    HW190264   8.029   7.813   9.546  0.2902  0.8478  0.4485
28634SOL    HW290265   8.036   7.715   9.431  1.4029 -0.5773  1.6922
28635SOL     OW90266   3.568   6.859   3.957 -0.2666  0.5650 -0.2960
28635SOL    HW190267   3.488   6.912   3.957 -1.2625 -0.8210 -1.8310
28635SOL    HW290268   3.543   6.779   4.003  0.6570  0.6382  0.3582
28636SOL     OW90269   1.474   7.496   7.876 -0.1887  0.2952 -0.5269
28636SOL    HW190270   1.459   7.418   7.823 -0.2492  0.5022 -0.8155
28636SOL    HW290271   1.501   7.563   7.814 -1.8368  0.9882 -0.5300
28637SOL     OW90272   5.513   0.639   1.425 -0.2946 -0.1267  0.8378
28637SOL    HW190273   5.497   0.594   1.509 -1.2365  0.1712  0.8202
28637SOL    HW290274   5.436   0.693   1.411  0.8680  1.6381  0.9239
28638SOL     OW90275   5.131   5.299   6.236 -0.3350 -0.0283 -0.4559
28638SOL    HW190276   5.126   5.253   6.319  4.6752  0.7405  0.5765
28638SOL    HW290277   5.087   5.383   6.253  0.5816  0.1174  1.5233
28639SOL     OW90278   2.578   4.443   9.686  0.6770 -0.3633 -0.5524
28639SOL    HW190279   2.667   4.473   9.706  0.2102  1.2173 -0.7398
28639SOL    HW290280   2.571   4.451   9.591  0.3173 -0.4131 -0.5307
28640SOL     OW90281   0.489   7.809  11.012 -0.4702  0.8299  0.0610
28640SOL    HW190282   0.491   7.732  10.954 -0.4746  1.5985 -1.0001
28640SOL    HW290283   0.579   7.818  11.043 -0.5047  0.3060  0.3283
28641SOL     OW90284   7.450   5.339   6.483 -0.5945 -0.0627  0.0951
28641SOL    HW190285   7.500   5.317   6.405  0.2442 -0.0468  0.6094
28641SOL    HW290286   7.515   5.339   6.554 -1.5893 -1.5338  1.0557
28642SOL     OW90287   4.151   9.214   8.944 -0.3352 -0.3501  0.0300
28642SOL    HW190288   4.186   9.181   8.862 -1.1531  0.5775 -0.7195
28642SOL    HW290289   4.200   9.295   8.960 -0.8202 -0.0355 -0.0471
28643SOL     OW90290  10.963   5.890   8.469  0.0540  0.0858  0.1759
28643SOL    HW190291  10.950   5.971   8.519  2.1137 -0.1927  1.2658
28643SOL    HW290292  10.900   5.829   8.507 -1.1695  1.0000 -0.3130
28644SOL     OW90293  10.507   1.225   5.259 -0.1574 -0.0987 -0.0846
28644SOL    HW190294  10.567   1.237   5.333 -1.0625 -0.4011  0.7197
28644SOL    HW290295  10.557   1.173   5.196  0.8270  0.6436  0.0592
28645SOL     OW90296   6.254   8.193   4.260  0.0249  0.2969  0.5536
28645SOL    HW190297   6.349   8.190   4.244  0.2237  0.3655  1.6590
28645SOL    HW290298   6.236   8.284   4.282 -0.2111  0.1762  0.8560
28646SOL     OW90299   7.074  10.308   0.696 -0.0029  0.0274 -0.1798
28646SOL    HW190300   7.004  10.330   0.634 -0.5628 -0.2760  0.3265
28646SOL    HW290301   7.136  10.381   0.690 -0.5678  0.5053 -0.3477
28647SOL     OW90302   4.506   3.399   5.709 -0.4157  0.2375 -0.6459
28647SOL    HW190303   4.455   3.404   5.627  0.1561  0.5528 -0.9922
28647SOL    HW290304   4.524   3.306   5.721 -0.6516  0.1729 -0.7879
28648SOL     OW90305   5.495   6.842   6.920 -0.2729 -0.2278 -0.7034
28648SOL    HW190306   5.554   6.798   6.980 -0.4476 -1.0676 -1.1371
28648SOL    HW290307   5.514   6.935   6.931  1.0814 -0.4800 -0.7816
28649SOL     OW90308   1.606   1.209   0.371  0.6087  0.0688  0.0860
28649SOL    HW190309   1.682   1.212   0.430  0.0775 -0.7704  0.8408
28649SOL    HW290310   1.613   1.124   0.328  1.2591  0.8645 -1.4782
28650SOL     OW90311   8.316  10.232   9.667 -0.6187 -0.3502 -0.2189
28650SOL    HW190312   8.393  10.243   9.722 -0.9075 -1.2231  0.3871
28650SOL    HW290313   8.323  10.142   9.634 -0.7723 -0.0433 -1.1138
28651SOL     OW90314   1.022   8.706   2.270  0.0208 -0.2574 -0.0995
28651SOL    HW190315   1.022   8.650   2.192 -0.5789 -1.1580  0.5375
28651SOL    HW290316   1.115   8.722   2.287  0.1552  0.1320 -1.1170
28652SOL     OW90317   6.942   0.220   0.188 -0.4879 -0.2455  0.0410
28652SOL    HW190318   6.982   0.139   0.220  0.5563 -0.5155 -1.7973
28652SOL    HW290319   6.903   0.196   0.104  0.5003  1.2845 -0.9122
28653SOL     OW90320   3.810   4.834   3.948  0.3198  0.2889 -0.1459
28653SOL    HW190321   3.822   4.890   4.024  0.4105 -0.2485  0.2438
28653SOL    HW290322   3.897   4.828   3.908  0.1823  0.9394 -0.5644
28654SOL     OW90323   4.189   2.094   0.225 -0.5396  0.1923  0.0125
28654SOL    HW190324   4.278   2.082   0.256 -0.3649 -0.5688 -0.7479
28654SOL    HW290325   4.143   2.014   0.251 -0.8700  0.3622 -0.0388
28655SOL     OW90326   0.490   3.405   3.671 -0.2172  0.6343  0.4211
28655SOL    HW190327   0.505   3.393   3.578 -0.3578 -0.1133  0.4857
28655SOL    HW290328   0.462   3.496   3.680 -0.5199  0.6174 -0.3040
28656SOL     OW90329   6.155   8.484   7.447  0.1675 -0.6027 -0.0384
28656SOL    HW190330   6.183   8.563   7.399  1.3411 -0.3757  0.9720
28656SOL    HW290331   6.107   8.518   7.522  0.0459 -0.8886  0.0115
28657SOL     OW90332   8.420   3.224   1.239  0.0675 -0.2611 -0.1593
28657SOL    HW190333   8.515   3.212   1.236  0.0927 -0.3049  0.6131
28657SOL    HW290334   8.391   3.169   1.313 -0.3923  0.8048  0.4698
28658SOL     OW90335   8.638  10.599   7.038  0.2307  0.2887  0.3097
28658SOL    HW190336   8.593  10.601   6.953 -1.4188  0.7876  1.1405
28658SOL    HW290337   8.695  10.522   7.033  0.2782  0.3862 -1.2841
28659SOL     OW90338   6.863  10.515   8.366 -0.0253 -0.1111 -0.0664
28659SOL    HW190339   6.784  10.535   8.417 -0.4316  0.2859 -0.8215
28659SOL    HW290340   6.935  10.535   8.425 -0.4640  1.3286  0.0350
28660SOL     OW90341   3.610   6.143   3.468  0.2265 -0.8372  0.0988
28660SOL    HW190342   3.569   6.077   3.525  0.0390 -0.7603  0.0526
28660SOL    HW290343   3.601   6.225   3.516 -0.2109 -0.7199 -0.1827
28661SOL     OW90344   5.395   8.831   9.974  0.0007  0.0896 -0.2608
28661SOL    HW190345   5.373   8.831   9.880 -1.5675 -0.9299  0.0586
28661SOL    HW290346   5.408   8.738   9.995  0.6125  0.3366  0.4721
28662SOL     OW90347   2.995   6.871   6.793 -0.7786  0.2104 -0.0179
28662SOL    HW190348   3.075   6.913   6.762 -0.6187 -0.4016 -0.4717
28662SOL    HW290349   2.987   6.793   6.738 -1.6140  0.1917  0.1212
28663SOL     OW90350   7.633  10.912   4.717 -0.3116  0.5576  0.3295
28663SOL    HW190351   7.603  10.834   4.764 -0.6654  0.0158 -0.7582
28663SOL    HW290352   7.717  10.887   4.679 -0.3907  0.7330  0.0351
28664SOL     OW90353   8.787   6.005   7.040 -0.1625 -0.3434  0.2870
28664SOL    HW190354   8.806   6.053   7.120 -0.6307  0.1127  0.1265
28664SOL    HW290355   8.727   6.061   6.991  0.8570 -0.1725 -0.8353
28665SOL     OW90356   5.415   1.460   4.297 -0.5184 -0.5746 -0.1177
28665SOL    HW190357   5.394   1.432   4.208 -2.7291 -0.1469  0.2211
28665SOL    HW290358   5.438   1.553   4.288  0.4286 -0.8181 -0.3668
28666SOL     OW90359   4.828  10.509   3.609  0.1911 -0.3539 -0.1739
28666SOL    HW190360   4.868  10.540   3.691 -1.9067  0.3569  0.6610
28666SOL    HW290361   4.840  10.581   3.548  1.5793 -0.8022 -0.4721
28667SOL     OW90362   9.233   7.575   4.990 -0.1843  0.1195  0.1914
28667SOL    HW190363   9.165   7.551   5.054  1.6704 -0.3252  2.1231
28667SOL    HW290364   9.268   7.491   4.960 -0.5836  0.3439 -0.9291
28668SOL     OW90365   2.166   7.233   8.728 -0.1553  1.0594  0.4300
28668SOL    HW190366   2.231   7.182   8.680 -0.1345  0.7008  0.8280
28668SOL    HW290367   2.202   7.321   8.733  0.8145  0.6360  1.5591
28669SOL     OW90368   0.465   6.193   5.851  0.7271  0.1611  0.3470
28669SOL    HW190369   0.469   6.283   5.820 -0.9286 -0.0741 -0.6327
28669SOL    HW290370   0.535   6.148   5.803 -0.2895  0.3213 -1.3784
28670SOL     OW90371   8.688   2.157   9.685 -0.2050 -0.0671 -0.1221
28670SOL    HW190372   8.699   2.094   9.756 -0.4160 -0.0408 -0.0662
28670SOL    HW290373   8.719   2.240   9.720 -0.2542 -0.0669 -0.0792
28671SOL     OW90374   5.806   6.733   1.697 -0.3102  0.2484  0.2975
28671SOL    HW190375   5.836   6.644   1.677 -0.2031 -0.1670  2.1131
28671SOL    HW290376   5.792   6.773   1.612  0.5253 -1.2093 -0.5747
28672SOL     OW90377   5.667   4.443   0.547 -0.2682  0.1875  0.2589
28672SOL    HW190378   5.577   4.439   0.579 -0.0167  0.6735  1.0496
28672SOL    HW290379   5.658   4.463   0.454 -1.0087 -1.2475 -0.0105
28673SOL     OW90380   0.205   0.418   0.941 -0.0069  0.0271 -0.0054
28673SOL    HW190381   0.194   0.407   0.846  1.5336  0.0170 -0.2132
28673SOL    HW290382   0.130   0.373   0.979 -0.7423  0.1680 -1.2205
28674SOL     OW90383   7.289   9.879   9.412 -0.2169 -0.0658  0.4718
28674SOL    HW190384   7.244   9.960   9.436  0.3648  0.2494  0.5346
28674SOL    HW290385   7.325   9.896   9.325  2.2456  0.7981  1.5457
28675SOL     OW90386   3.654   3.585   2.567  0.1836  0.3051  0.0028
28675SOL    HW190387   3.604   3.533   2.504 -0.5651 -0.8750  1.4837
28675SOL    HW290388   3.745   3.576   2.541 -0.2232  1.3285 -1.9241
28676SOL     OW90389   4.636  10.845   8.814  0.0988  0.1679 -0.0007
28676SOL    HW190390   4.600  10.812   8.896 -1.0592  1.8433  0.2201
28676SOL    HW290391   4.687  10.922   8.840  0.2820  0.3143 -0.7706
28677SOL     OW90392   3.088   8.194   9.130 -0.2547  0.0336  0.2687
28677SOL    HW190393   3.138   8.160   9.057 -0.8142  1.4379 -0.8160
28677SOL    HW290394   3.047   8.117   9.169 -0.1395 -0.7204 -1.0478
28678SOL     OW90395   9.361   8.126   3.348  0.0124  0.3316 -0.1787
28678SOL    HW190396   9.333   8.036   3.329 -1.1890 -0.1295  3.1107
28678SOL    HW290397   9.456   8.124   3.339 -0.1859 -0.4066 -3.0702
28679SOL     OW90398   4.477   1.588   3.094  0.0024  0.1773 -0.2047
28679SOL    HW190399   4.554   1.595   3.037 -0.1726  1.0340 -0.3441
28679SOL    HW290400   4.412   1.646   3.055 -0.4916 -0.0324  0.2820
28680SOL     OW90401   0.644   3.330   5.686  0.0451 -0.3814  0.0452
28680SOL    HW190402   0.624   3.289   5.602  0.4483 -3.0529  1.1494
28680SOL    HW290403   0.739   3.345   5.683 -0.1678  0.9543 -0.5279
28681SOL     OW90404   5.602   9.999   2.138  0.7821  0.2163 -0.0145
28681SOL    HW190405   5.652   9.943   2.198  2.1530 -0.1221 -1.4141
28681SOL    HW290406   5.571   9.939   2.070  0.8708  0.8886 -0.6540
28682SOL     OW90407   9.369  11.057   1.036 -0.2572  0.0923  0.3116
28682SOL    HW190408   9.347  11.035   0.946  0.4904  3.7372 -0.9411
28682SOL    HW290409   9.293  11.107   1.068  0.3122  0.5443  0.9874
28683SOL     OW90410   7.263   0.394   3.384 -0.2572 -0.0262 -0.7684
28683SOL    HW190411   7.191   0.456   3.371 -0.7103 -0.4143 -0.2073
28683SOL    HW290412   7.325   0.414   3.315 -0.8136  0.4559 -1.1433
28684SOL     OW90413   1.213   6.147   8.593 -0.3481  0.2800 -1.0098
28684SOL    HW190414   1.296   6.193   8.604 -0.7808  0.5341  2.4264
28684SOL    HW290415   1.146   6.215   8.600 -0.9275 -0.0698 -2.6625
28685SOL     OW90416   9.095   5.423   6.317  0.6367 -0.2022  0.0005
28685SOL    HW190417   9.187   5.439   6.294  0.5241  0.5131  0.0350
28685SOL    HW290418   9.068   5.502   6.363  0.1344 -0.6080  0.4037
28686SOL     OW90419   3.710   3.689   8.227 -0.5942 -0.2898  0.0448
28686SOL    HW190420   3.746   3.601   8.217  0.1642  0.0114  0.0446
28686SOL    HW290421   3.786   3.745   8.242 -0.9294  0.5726 -1.2424
28687SOL     OW90422   0.034  10.863   5.348 -0.4451  0.0011  0.0931
28687SOL    HW190423  -0.040  10.915   5.316 -1.4952 -1.2724  0.3643
28687SOL    HW290424   0.106  10.885   5.289 -0.2804  3.1047  1.2357
28688SOL     OW90425   6.963   6.512   6.497  0.7496 -0.1686 -0.3227
28688SOL    HW190426   6.960   6.607   6.505 -1.6259 -0.0361 -1.7611
28688SOL    HW290427   6.933   6.494   6.408 -1.5725 -2.3106  0.7673
28689SOL     OW90428   2.243   9.659   7.168  0.2464 -0.0995 -0.3802
28689SOL    HW190429   2.201   9.722   7.110 -0.0315  0.6547  0.6084
28689SOL    HW290430   2.318   9.706   7.205  0.3411 -0.5178 -0.0257
28690SOL     OW90431   5.280   6.670   4.579  0.2971 -0.3783  0.5120
28690SOL    HW190432   5.243   6.679   4.491 -0.2642 -1.8342  0.5699
28690SOL    HW290433   5.363   6.717   4.575 -0.7256  1.4603 -0.1372
28691SOL     OW90434   1.761   0.294   3.370 -0.6518  0.1586  0.0745
28691SOL    HW190435   1.738   0.280   3.278  1.3806  2.3389 -0.8535
28691SOL    HW290436   1.732   0.383   3.389  0.0276  0.1626  1.1946
28692SOL     OW90437   3.895   2.151   2.860  0.7390  0.8180  0.4459
28692SOL    HW190438   3.961   2.202   2.907 -0.3124  1.2939  1.4276
28692SOL    HW290439   3.890   2.068   2.906 -1.0640  1.6748  1.9322
28693SOL     OW90440   1.850   7.875   9.408 -0.3027  0.1913 -0.1911
28693SOL    HW190441   1.908   7.887   9.332  1.6010 -0.8455  1.0057
28693SOL    HW290442   1.862   7.783   9.432 -1.6390  0.2569  0.7723
28694SOL     OW90443   5.785   7.031   8.327 -0.0879  1.1067  0.3277
28694SOL    HW190444   5.770   6.975   8.404 -0.2932  0.0132 -0.4848
28694SOL    HW290445   5.881   7.033   8.318 -0.0430 -2.3953 -1.8805
28695SOL     OW90446   8.964   3.483   5.075  0.7965 -0.0221  0.9581
28695SOL    HW190447   8.970   3.454   5.166 -0.9414 -1.8335  0.5759
28695SOL    HW290448   8.966   3.402   5.024  1.5098  0.9456 -0.6304
28696SOL     OW90449   0.917   8.930   2.111  0.3606  0.1050 -0.6663
28696SOL    HW190450   0.901   8.948   2.204 -1.2210 -0.0450 -0.8844
28696SOL    HW290451   1.002   8.886   2.110  0.0987 -0.5088  0.7891
28697SOL     OW90452   6.975   3.427   0.997  0.0041 -0.0316 -0.1328
28697SOL    HW190453   7.008   3.366   1.063  0.8721 -0.3855 -0.8622
28697SOL    HW290454   7.053   3.449   0.945 -0.4406  1.1608 -0.3031
28698SOL     OW90455   7.619   3.422   1.137  0.3142  0.3076 -0.3391
28698SOL    HW190456   7.688   3.488   1.151  1.5095 -0.8323 -0.6287
28698SOL    HW290457   7.537   3.471   1.144  1.1613  1.8247 -0.5678
28699SOL     OW90458   5.749   8.971   1.907  0.0415 -0.3470  0.0587
28699SOL    HW190459   5.796   9.053   1.894  1.5840 -1.1937 -0.0433
28699SOL    HW290460   5.814   8.903   1.886 -1.1214 -1.5890  0.3359
28700SOL     OW90461   5.094   3.480   9.936 -0.2475  0.5005 -0.2293
28700SOL    HW190462   5.169   3.447   9.985 -0.3796  0.3259 -0.1442
28700SOL    HW290463   5.020   3.470   9.996 -0.3495  0.6166 -0.3348
28701SOL     OW90464   3.065  10.498   9.397 -1.0758 -0.7715  0.1923
28701SOL    HW190465   3.026  10.494   9.309 -0.7347 -0.7624  0.0390
28701SOL    HW290466   3.134  10.432   9.395  0.0160  0.3357 -0.0853
28702SOL     OW90467   8.710   2.228   7.207 -0.5104  0.1602  0.6198
28702SOL    HW190468   8.698   2.136   7.183 -2.2339  0.5224 -0.0829
28702SOL    HW290469   8.781   2.227   7.271  0.5527 -1.4784 -0.5047
28703SOL     OW90470   4.154   6.546   8.760 -0.5686  0.3957 -0.0762
28703SOL    HW190471   4.201   6.584   8.686 -2.0037 -0.2960 -1.3860
28703SOL    HW290472   4.118   6.621   8.807 -0.8360  0.7778 -0.8828
28704SOL     OW90473   1.604   2.441   5.118  0.4360  0.6050 -0.5216
28704SOL    HW190474   1.567   2.403   5.038  0.1903 -1.7241  0.6119
28704SOL    HW290475   1.696   2.454   5.098  0.2920  0.4685 -1.3196
28705SOL     OW90476   6.250   2.221   0.319  0.3720 -0.2487 -0.2220
28705SOL    HW190477   6.165   2.264   0.313  0.9080  1.1475  1.4522
28705SOL    HW290478   6.312   2.291   0.334  1.5065 -1.4444  0.9793
28706SOL     OW90479   2.336   5.734   0.727  0.4735 -0.3480  0.1492
28706SOL    HW190480   2.248   5.722   0.764  0.0599 -0.9818 -0.9798
28706SOL    HW290481   2.321   5.783   0.646  1.1397 -0.5990 -0.1300
28707SOL     OW90482   1.947   6.817   0.398  0.1947  0.5097 -0.5113
28707SOL    HW190483   1.883   6.785   0.462  0.2763 -0.3913 -0.8728
28707SOL    HW290484   1.896   6.876   0.342  0.3888  2.3569  1.1242
28708SOL     OW90485   8.603   4.258   9.096  0.1113 -0.1079 -0.1450
28708SOL    HW190486   8.611   4.175   9.049 -0.4894 -0.1738 -0.1354
28708SOL    HW290487   8.560   4.317   9.034 -0.2899 -0.0704  0.1629
28709SOL     OW90488   4.259   0.615   0.391 -0.1013 -0.1971 -0.2658
28709SOL    HW190489   4.173   0.657   0.388 -0.0351 -0.1327 -1.5991
28709SOL    HW290490   4.244   0.533   0.439 -1.2071 -0.8500 -1.6618
28710SOL     OW90491   6.277   8.277   7.531 -0.0279 -0.1312  0.1077
28710SOL    HW190492   6.226   8.228   7.595 -0.0781 -0.2258 -0.0042
28710SOL    HW290493   6.220   8.349   7.505  0.5411  0.7477  1.2449
28711SOL     OW90494  11.050  10.241   3.698 -0.3925  0.3804 -0.3779
28711SOL    HW190495  11.022  10.275   3.613  2.2418  1.9631 -0.7125
28711SOL    HW290496  11.036  10.146   3.692  2.2383  0.0140 -3.7231
28712SOL     OW90497   3.885   8.533   3.325 -0.8603  0.0310  0.0464
28712SOL    HW190498   3.841   8.554   3.243 -0.7353  1.3329  0.3048
28712SOL    HW290499   3.978   8.550   3.309 -0.9268  1.1303  0.6919
28713SOL     OW90500  10.973   3.261   7.205  0.2822  0.1015 -0.3187
28713SOL    HW190501  10.987   3.166   7.202 -0.7596 -0.0836  0.1825
28713SOL    HW290502  10.884   3.273   7.171  0.5789  0.9540 -0.8436
28714SOL     OW90503  11.071   7.355   0.778  0.0248  0.5052  0.1348
28714SOL    HW190504  11.012   7.282   0.794  1.1780 -0.0881  2.0508
28714SOL    HW290505  11.122   7.329   0.702  0.7371 -0.9469  1.0640
28715SOL     OW90506   8.685   7.354   5.030  0.2189  0.0457 -0.1658
28715SOL    HW190507   8.612   7.353   5.093  0.2272 -0.3396 -0.1562
28715SOL    HW290508   8.733   7.434   5.050 -0.8549  0.9214 -0.9307
28716SOL     OW90509   6.695   1.609   5.908  0.6138  0.7234 -0.0025
28716SOL    HW190510   6.751   1.581   5.836  0.1281  0.5132 -0.3060
28716SOL    HW290511   6.607   1.583   5.882  0.2573  1.7846  0.0902
28717SOL     OW90512  10.195   6.362   5.178 -0.0464 -0.0032 -0.0065
28717SOL    HW190513  10.116   6.310   5.164  0.1608 -0.5616  0.8358
28717SOL    HW290514  10.187   6.395   5.267  0.3197  0.5619 -0.1757
28718SOL     OW90515  10.324   8.517   6.437 -0.0914 -0.1309  0.8808
28718SOL    HW190516  10.349   8.437   6.483  0.1760  0.0833  1.1110
28718SOL    HW290517  10.229   8.514   6.433 -0.0440 -1.0555 -0.1673
28719SOL     OW90518   4.137   1.862   5.063 -0.1952  0.3967  0.1534
28719SOL    HW190519   4.168   1.798   4.999  0.8558  1.5610 -0.5444
28719SOL    HW290520   4.058   1.899   5.024 -1.5942 -1.3524  1.1584
28720SOL     OW90521   1.262   4.202   7.296  0.5661  0.2215 -0.1307
28720SOL    HW190522   1.340   4.153   7.272  1.6731  1.7052  0.3267
28720SOL    HW290523   1.228   4.237   7.214  0.3954 -0.3893 -0.3231
28721SOL     OW90524   4.707   5.791   0.115 -0.0668  0.3545  0.4084
28721SOL    HW190525   4.726   5.813   0.024 -0.9135 -0.0878  0.1108
28721SOL    HW290526   4.780   5.737   0.143 -0.3190 -0.4018 -0.3571
28722SOL     OW90527   7.660   3.443   8.498 -0.2868 -0.7667  0.1569
28722SOL    HW190528   7.697   3.396   8.423  0.0604 -0.0702 -0.1148
28722SOL    HW290529   7.649   3.376   8.566 -0.5450 -1.3892 -0.4937
28723SOL     OW90530   7.524  10.407   3.343 -0.6821  0.3858 -0.9498
28723SOL    HW190531   7.514  10.426   3.436 -1.7172  1.7214 -1.3102
28723SOL    HW290532   7.619  10.410   3.329 -0.4337 -0.8253  0.2309
28724SOL     OW90533   0.599   4.589   4.418 -1.0677  0.4305  0.0333
28724SOL    HW190534   0.620   4.670   4.466 -2.2430  0.9772 -0.3382
28724SOL    HW290535   0.547   4.538   4.480 -0.3401 -0.0530  0.2607
28725SOL     OW90536   7.756  11.056   2.431 -0.3383  0.4207 -0.4606
28725SOL    HW190537   7.698  11.129   2.412 -0.0708  0.5638 -0.7336
28725SOL    HW290538   7.829  11.095   2.479 -0.6105  0.1924  0.1500
28726SOL     OW90539  10.666  10.796  10.751  0.5151  0.4693 -0.2752
28726SOL    HW190540  10.668  10.798  10.655  0.8035  0.9027 -0.2606
28726SOL    HW290541  10.730  10.861  10.778  1.4416 -0.6020  0.2122
28727SOL     OW90542   7.171   9.635   2.857 -0.0749  0.3827 -0.5830
28727SOL    HW190543   7.224   9.714   2.867  0.1089  0.1131  0.7900
28727SOL    HW290544   7.213   9.587   2.785 -1.4875  2.5039 -2.9765
28728SOL     OW90545   2.228   7.169   5.647 -0.1827 -0.2703 -0.2669
28728SOL    HW190546   2.293   7.192   5.713 -1.1501  0.5569  0.4398
28728SOL    HW290547   2.151   7.143   5.698  0.1948 -3.3073 -1.0445
28729SOL     OW90548   8.619  10.762   1.951  0.2119 -0.4948 -0.4694
28729SOL    HW190549   8.643  10.737   2.040 -0.5989 -0.0178 -0.0999
28729SOL    HW290550   8.686  10.826   1.926  1.8300 -2.3352 -1.1275
28730SOL     OW90551   2.325  10.584   8.019 -0.5572  0.0600 -0.1141
28730SOL    HW190552   2.395  10.644   8.045  0.5911 -1.0530 -0.5693
28730SOL    HW290553   2.277  10.630   7.950 -2.2620  2.1292  2.2546
28731SOL     OW90554   1.110   7.400   2.537 -0.5339 -0.2725  0.0729
28731SOL    HW190555   1.167   7.433   2.606  2.1406  1.3038 -2.6649
28731SOL    HW290556   1.117   7.305   2.544  1.3467 -0.1189  0.6918
28732SOL     OW90557   2.378   5.033   1.902 -0.6030 -0.0778  0.1898
28732SOL    HW190558   2.440   5.101   1.875 -0.5421 -0.3446 -0.3549
28732SOL    HW290559   2.323   5.019   1.825 -0.9220 -0.3151  0.4555
28733SOL     OW90560   1.592  10.532   8.126 -0.0782  0.0029 -0.3545
28733SOL    HW190561   1.623  10.598   8.188  0.4852  0.0408 -0.6689
28733SOL    HW290562   1.590  10.451   8.177  2.7050 -0.4800 -0.8466
28734SOL     OW90563   3.870   8.341   4.203 -0.2878  0.6208  0.3621
28734SOL    HW190564   3.807   8.269   4.195 -0.9085  1.1769  0.0970
28734SOL    HW290565   3.871   8.361   4.297  0.0470  0.1330  0.4662
28735SOL     OW90566   0.527   2.090   8.595 -0.0336  0.1853  0.0255
28735SOL    HW190567   0.477   2.059   8.671 -0.0317  0.4451  0.1347
28735SOL    HW290568   0.526   2.016   8.534 -2.6994  0.9720 -1.0500
28736SOL     OW90569   4.232   7.209   6.865 -0.9826 -0.2849 -0.3443
28736SOL    HW190570   4.217   7.164   6.949 -2.5143  0.2288 -0.2973
28736SOL    HW290571   4.308   7.166   6.828  0.4575  0.2169  1.8313
28737SOL     OW90572   4.346   0.098   8.601 -0.0837 -0.1111 -0.3710
28737SOL    HW190573   4.413   0.036   8.631 -1.2344 -0.3720  1.8532
28737SOL    HW290574   4.394   0.159   8.545  1.9080 -0.6530  0.6472
28738SOL     OW90575   5.866   6.468   1.666  0.3443  0.5827  0.1202
28738SOL    HW190576   5.817   6.461   1.748  0.3689 -0.3554  0.0735
28738SOL    HW290577   5.940   6.409   1.678 -0.9822 -1.5713 -1.4891
28739SOL     OW90578  10.184   4.088   5.688 -1.1381 -0.5205 -0.2010
28739SOL    HW190579  10.097   4.126   5.672 -0.0150  1.4599 -2.2270
28739SOL    HW290580  10.235   4.161   5.722 -0.1428 -1.5837  0.6544
28740SOL     OW90581   8.014  10.691   5.785 -0.1314 -0.0889  0.1903
28740SOL    HW190582   7.939  10.656   5.738 -2.1160  2.6799  1.0250
28740SOL    HW290583   8.003  10.659   5.875 -0.9015  1.0358  0.5229
28741SOL     OW90584   5.691   7.198   4.144  0.0973 -0.4415 -0.6752
28741SOL    HW190585   5.669   7.144   4.068 -1.8463 -0.0610 -0.4231
28741SOL    HW290586   5.616   7.256   4.155  1.5097  1.3699 -0.0762
28742SOL     OW90587   4.085   3.578   1.785 -0.1065 -0.5543  0.5348
28742SOL    HW190588   4.180   3.586   1.776  0.0042 -0.6675  1.4477
28742SOL    HW290589   4.050   3.612   1.703  0.7070 -0.1029  0.3609
28743SOL     OW90590   5.057   5.954   8.737  0.4013  0.4821  0.1872
28743SOL    HW190591   5.149   5.936   8.759  0.3559 -0.0262 -0.0216
28743SOL    HW290592   5.061   5.995   8.651  0.5829  2.5141  1.0952
28744SOL     OW90593   4.295   8.596   7.606  0.2098  0.3589 -0.4709
28744SOL    HW190594   4.294   8.680   7.652  0.9313  0.1453 -0.0550
28744SOL    HW290595   4.226   8.545   7.648 -1.2038  1.2225 -1.6630
28745SOL     OW90596   6.934   1.116   6.186  0.0944  0.0342 -0.5966
28745SOL    HW190597   6.841   1.127   6.206 -0.3118 -1.9897 -1.1016
28745SOL    HW290598   6.975   1.104   6.271  0.1199  2.1428 -0.2760
28746SOL     OW90599   1.176  10.737   8.748 -0.0093  0.3841 -0.4063
28746SOL    HW190600   1.152  10.702   8.834  0.2752  1.9891  0.3620
28746SOL    HW290601   1.106  10.799   8.726  0.6644  1.0992 -0.6168
28747SOL     OW90602   9.728   4.701   7.294 -0.1196  0.3506  0.3094
28747SOL    HW190603   9.779   4.716   7.374  1.6404  1.1669 -0.9122
28747SOL    HW290604   9.727   4.786   7.250  1.2551 -0.6535 -1.8094
28748SOL     OW90605   4.635   4.619   1.847  0.1989 -0.1642  0.0607
28748SOL    HW190606   4.574   4.634   1.919 -0.6546 -0.5176 -0.5574
28748SOL    HW290607   4.686   4.543   1.874  4.5627  3.3628  3.2240
28749SOL     OW90608   8.795   6.644  10.403 -0.0603 -0.3742 -0.1363
28749SOL    HW190609   8.788   6.716  10.340  1.2854 -2.6909 -3.2071
28749SOL    HW290610   8.888   6.622  10.403 -0.3148 -1.5450  1.4060
28750SOL     OW90611   9.403   3.548   2.788 -0.6649  0.0216 -0.3339
28750SOL    HW190612   9.351   3.505   2.719  0.1933  0.4450 -1.2603
28750SOL    HW290613   9.470   3.484   2.811 -1.0451 -0.1822  0.2459
28751SOL     OW90614   5.774   8.837   2.480  0.4973 -0.0151  0.2928
28751SOL    HW190615   5.824   8.838   2.399 -1.3100  4.1474 -1.0074
28751SOL    HW290616   5.834   8.873   2.546  0.6865  0.5036 -0.1584
28752SOL     OW90617   2.794   0.672   2.431  0.2161  0.4952  0.3262
28752SOL    HW190618   2.723   0.736   2.424  0.2352  0.4442 -0.4977
28752SOL    HW290619   2.769   0.602   2.370  0.5546  0.0684  0.6740
28753SOL     OW90620   4.858   4.025   7.904 -0.5279  1.1465 -0.7533
28753SOL    HW190621   4.830   3.997   7.991 -0.4746  0.1277 -1.0486
28753SOL    HW290622   4.951   4.045   7.915  0.0460 -1.0804 -1.0056
28754SOL     OW90623   3.817  10.311   7.474  0.1067  0.3291  0.0757
28754SOL    HW190624   3.874  10.378   7.437 -0.9689  0.4387 -1.4930
28754SOL    HW290625   3.753  10.360   7.527  0.9489  0.2786  1.1578
28755SOL     OW90626   6.942   2.261  10.899 -0.0715 -0.0880 -0.2953
28755SOL    HW190627   6.967   2.347  10.933 -2.4761  0.1628  1.0294
28755SOL    HW290628   6.987   2.199  10.957 -2.5000  0.3549  2.2969
28756SOL     OW90629   0.224   0.519  10.006  0.6364  0.2666  0.6164
28756SOL    HW190630   0.260   0.608  10.014  1.5266 -0.0476  0.2448
28756SOL    HW290631   0.288   0.463  10.050  0.2386 -0.2245  0.5777
28757SOL     OW90632   6.277   4.806   1.977  0.5641  0.2356  0.1640
28757SOL    HW190633   6.252   4.715   1.991  0.5693  0.1228 -0.5464
28757SOL    HW290634   6.264   4.848   2.062  0.7273 -0.4656  0.5331
28758SOL     OW90635   4.753   3.107  10.840 -0.5577 -0.0481  0.4397
28758SOL    HW190636   4.702   3.028  10.823  0.2015 -0.3903 -0.2847
28758SOL    HW290637   4.688   3.177  10.845 -1.1874 -0.6318  0.5613
28759SOL     OW90638  10.195   2.697  10.625 -0.4913  0.3894 -0.2261
28759SOL    HW190639  10.133   2.759  10.664  0.5958  1.1115  0.4243
28759SOL    HW290640  10.256   2.676  10.696 -0.0921 -0.4362 -0.7954
28760SOL     OW90641  10.287   0.958   1.255  0.0009  0.1384 -0.2791
28760SOL    HW190642  10.301   0.867   1.282 -0.1982 -0.1900 -1.2346
28760SOL    HW290643  10.193   0.971   1.264  0.2084  0.7260  1.2524
28761SOL     OW90644   3.781   7.803   3.484  0.1624  0.2382  0.2437
28761SOL    HW190645   3.719   7.777   3.416 -0.7327  0.7404  0.8362
28761SOL    HW290646   3.814   7.721   3.520 -0.1618 -0.0333 -0.0757
28762SOL     OW90647   4.621   6.519   0.746 -0.1555 -0.0405 -0.3223
28762SOL    HW190648   4.577   6.450   0.697  0.9455 -0.8209 -0.2420
28762SOL    HW290649   4.551   6.578   0.772 -1.6641 -2.6739  2.2440
28763SOL     OW90650  10.152   7.473   5.759 -0.0102 -0.2754 -0.2108
28763SOL    HW190651  10.147   7.563   5.789 -0.9502 -0.3152 -0.2190
28763SOL    HW290652  10.133   7.421   5.837  0.1425 -0.4621 -0.2963
28764SOL     OW90653   4.330   7.713   0.829 -0.4068  0.2124  0.2142
28764SOL    HW190654   4.302   7.764   0.753 -0.4790  0.1395  0.1917
28764SOL    HW290655   4.342   7.778   0.898 -1.7773  0.1225  0.5606
28765SOL     OW90656   4.768   5.016   4.493 -0.1319  0.4983  0.2178
28765SOL    HW190657   4.682   5.056   4.476 -0.2660  0.1300  0.0098
28765SOL    HW290658   4.814   5.079   4.547 -0.4845  0.7642  0.2097
28766SOL     OW90659   9.570  10.237   9.596 -1.2715 -0.4202  0.1250
28766SOL    HW190660   9.502  10.279   9.544 -0.8841  2.4796  1.7236
28766SOL    HW290661   9.526  10.210   9.677 -0.7336  0.8090  0.8594
28767SOL     OW90662   0.996   9.747   7.043  0.3302 -0.6066 -0.6450
28767SOL    HW190663   0.946   9.740   7.125  2.5414  0.4461  0.8924
28767SOL    HW290664   1.050   9.668   7.040  1.0780 -0.1086 -0.4892
28768SOL     OW90665   0.923   5.872   3.485  0.1167  0.4082  0.7155
28768SOL    HW190666   0.994   5.905   3.540 -0.5969  3.5290 -0.0220
28768SOL    HW290667   0.957   5.878   3.396 -0.3343 -0.1843  0.4974
28769SOL     OW90668   4.465   6.336   5.157 -0.3262 -0.3210 -0.4172
28769SOL    HW190669   4.430   6.364   5.072 -1.9168 -0.0704  0.2873
28769SOL    HW290670   4.438   6.244   5.164 -0.6933 -0.1780  0.0622
28770SOL     OW90671   6.877   7.032   0.728  0.0750 -0.4247 -0.0066
28770SOL    HW190672   6.832   7.090   0.666 -1.3068  0.6336  1.8856
28770SOL    HW290673   6.817   6.957   0.739 -0.5798  0.2584  1.3589
28771SOL     OW90674   7.605   2.211   5.282 -0.3652  0.2064  0.5348
28771SOL    HW190675   7.653   2.230   5.362 -0.8986  1.8086  0.5237
28771SOL    HW290676   7.672   2.209   5.213  0.2594 -2.3730  1.1111
28772SOL     OW90677   7.780   4.777   5.068 -0.3073 -0.1722  0.5605
28772SOL    HW190678   7.859   4.790   5.014 -1.5184 -0.9563 -1.5154
28772SOL    HW290679   7.713   4.829   5.024 -1.9943 -2.9167 -0.3491
28773SOL     OW90680  10.432   7.109   3.247 -0.5040  0.0543  0.4690
28773SOL    HW190681  10.353   7.072   3.207 -0.1500 -1.1993  0.8811
28773SOL    HW290682  10.473   7.035   3.292  0.3076  0.9372  1.2276
28774SOL     OW90683   8.856   8.434   0.110  0.1571 -0.4981 -0.1396
28774SOL    HW190684   8.872   8.511   0.055 -3.1759  1.2443  1.0410
28774SOL    HW290685   8.899   8.455   0.193 -2.4190  1.2676  0.9028
28775SOL     OW90686   9.536   1.144   4.395  0.6606  0.6169 -0.5072
28775SOL    HW190687   9.617   1.141   4.445 -0.0710 -1.6914  0.6412
28775SOL    HW290688   9.468   1.156   4.460 -0.0436  1.3736 -1.3561
28776SOL     OW90689   5.898  10.100   7.962  0.1020  0.1344 -0.3184
28776SOL    HW190690   5.842  10.085   8.039  0.0451  1.4787 -0.0664
28776SOL    HW290691   5.933  10.014   7.941 -0.4487 -0.3868  0.7827
28777SOL     OW90692  10.933  10.028  10.460  0.0975 -0.1743  0.6361
28777SOL    HW190693  10.917  10.034  10.554  0.8738 -1.3620  0.8564
28777SOL    HW290694  10.958   9.937  10.445 -1.0989 -0.2934 -0.8980
28778SOL     OW90695   9.561   9.099   8.484  0.2822 -0.4070 -0.0986
28778SOL    HW190696   9.570   9.124   8.392  0.0928 -0.6670 -0.1899
28778SOL    HW290697   9.640   9.050   8.504  0.5274  0.0284  0.0033
28779SOL     OW90698   5.857   9.161   7.807  0.2313  0.1447 -0.5387
28779SOL    HW190699   5.847   9.157   7.712  0.9455  2.0483 -0.7325
28779SOL    HW290700   5.951   9.171   7.821  0.1143  0.0925  0.3693
28780SOL     OW90701   5.002   4.736   5.670 -0.1974 -0.2975 -0.0761
28780SOL    HW190702   5.078   4.684   5.645  0.5731  0.8546 -0.1628
28780SOL    HW290703   4.987   4.714   5.762 -1.1944 -2.2639 -0.6578
28781SOL     OW90704   2.087   0.191  10.585 -0.7052  0.2853  0.1078
28781SOL    HW190705   2.176   0.224  10.581 -0.1664 -1.1663 -0.3994
28781SOL    HW290706   2.045   0.226  10.506  0.0414 -0.7237 -0.7612
28782SOL     OW90707   3.352   9.468   5.303  0.5048 -0.4935 -0.7045
28782SOL    HW190708   3.373   9.381   5.336 -0.5021 -0.8078 -0.8690
28782SOL    HW290709   3.433   9.518   5.315  0.3661 -0.7394  1.6709
28783SOL     OW90710  10.060   4.880   8.627  0.4779 -0.0967 -0.5284
28783SOL    HW190711  10.107   4.920   8.700  1.2401 -1.4045 -0.2742
28783SOL    HW290712  10.078   4.938   8.552  2.4246 -0.4897 -0.4225
28784SOL     OW90713   4.710   5.479   8.924  0.6981 -0.2930 -0.0599
28784SOL    HW190714   4.620   5.511   8.913 -0.1095 -2.1467  0.7447
28784SOL    HW290715   4.739   5.461   8.834  0.3048  0.3718 -0.3325
28785SOL     OW90716   3.456   9.741   2.340 -0.0912  0.2984  0.3229
28785SOL    HW190717   3.372   9.764   2.299  0.6190  2.7607  0.1091
28785SOL    HW290718   3.450   9.778   2.428  0.5967  0.0541  0.4757
28786SOL     OW90719   0.017   0.602   0.184 -0.1586  0.2618  0.1501
28786SOL    HW190720  -0.003   0.694   0.167 -1.1999  0.7899  3.5166
28786SOL    HW290721  -0.044   0.577   0.253 -1.0416 -3.5002 -1.7089
28787SOL     OW90722   6.403  11.066   6.476 -0.2502  0.1954  0.0622
28787SOL    HW190723   6.421  11.023   6.559  0.4229  0.1911 -0.0829
28787SOL    HW290724   6.481  11.050   6.423 -0.9116 -0.3100 -0.7849
28788SOL     OW90725  10.155   9.259   3.222 -0.0052  0.4719  0.0314
28788SOL    HW190726  10.182   9.325   3.285  0.5981 -1.3614  1.8177
28788SOL    HW290727  10.067   9.235   3.248  0.3986 -0.5867  0.4826
28789SOL     OW90728   3.475   5.849   5.213  0.3842 -0.1085  0.4653
28789SOL    HW190729   3.567   5.821   5.217  0.6404  0.6251 -0.0843
28789SOL    HW290730   3.479   5.943   5.198 -0.4506 -0.3887 -1.8741
28790SOL     OW90731   7.284   5.829  10.178 -0.4736  0.4041  0.1922
28790SOL    HW190732   7.217   5.832  10.247 -0.3335  2.8936  0.3029
28790SOL    HW290733   7.367   5.826  10.225 -0.4260  0.1684  0.0956
28791SOL     OW90734   3.081   4.350   9.660  0.2496  0.1108  0.0879
28791SOL    HW190735   3.060   4.264   9.698 -1.8736  0.2172 -0.6663
28791SOL    HW290736   3.166   4.372   9.697  0.5607 -2.0153  0.8314
28792SOL     OW90737   5.823   1.874   6.357 -0.3909  0.1604  0.0366
28792SOL    HW190738   5.828   1.826   6.274 -2.5098 -0.4935  0.2404
28792SOL    HW290739   5.767   1.949   6.338 -1.7449 -0.5451  1.0880
28793SOL     OW90740   8.455   0.385   3.611 -0.2878  0.0632 -0.3392
28793SOL    HW190741   8.507   0.387   3.531 -0.5855  1.6158 -0.5243
28793SOL    HW290742   8.413   0.471   3.614 -2.3102 -0.8860  0.1468
28794SOL     OW90743   0.050   1.627   2.622 -0.3802  0.9637 -0.3642
28794SOL    HW190744   0.072   1.554   2.565  0.6257  1.3436 -0.4834
28794SOL    HW290745   0.019   1.585   2.703  2.1137  0.2897  0.3617
28795SOL     OW90746  10.794   9.786   4.357  0.0886  0.1484  0.0694
28795SOL    HW190747  10.748   9.726   4.299 -0.6128 -1.1447  1.8646
28795SOL    HW290748  10.783   9.872   4.317 -0.8171 -0.6197 -1.4031
28796SOL     OW90749   9.009   1.230   9.626 -0.1842  0.3981 -0.3775
28796SOL    HW190750   9.070   1.303   9.615 -0.7438  0.6674 -1.9801
28796SOL    HW290751   9.024   1.175   9.549 -1.7661  0.3291 -0.6596
28797SOL     OW90752   6.350   8.431   0.559 -0.5304  0.4043  0.2913
28797SOL    HW190753   6.258   8.406   0.556 -0.5985  0.7437 -2.0857
28797SOL    HW290754   6.355   8.509   0.504  1.2119  0.2923  0.2581
28798SOL     OW90755   5.054   4.947   7.727  0.1690  0.5224  0.0901
28798SOL    HW190756   5.000   4.938   7.648  1.4135 -1.0792 -0.6472
28798SOL    HW290757   5.118   5.015   7.706 -0.2021  0.8915  0.1488
28799SOL     OW90758   6.174   7.027   3.968 -0.0085  0.1132  0.5985
28799SOL    HW190759   6.229   7.103   3.948  0.2668 -0.4915 -1.1414
28799SOL    HW290760   6.112   7.059   4.033  1.0999  1.3823  1.0889
28800SOL     OW90761   6.502   7.086   6.128  0.4111 -0.4010  0.1251
28800SOL    HW190762   6.440   7.144   6.083 -0.0353  2.7756  4.2312
28800SOL    HW290763   6.460   7.000   6.125 -1.7184  0.5984 -1.4977
28801SOL     OW90764   0.395   9.720   7.208  0.8870 -0.0975  0.1529
28801SOL    HW190765   0.383   9.742   7.116  0.3350 -0.6063  0.0998
28801SOL    HW290766   0.326   9.767   7.254  2.6007  2.0949  0.6130
28802SOL     OW90767   4.758   4.452  10.871  0.2150 -0.2487 -0.6436
28802SOL    HW190768   4.748   4.470  10.777 -0.8332  1.5354 -0.2373
28802SOL    HW290769   4.689   4.503  10.912 -0.6795 -2.5926  0.9852
28803SOL     OW90770   8.467   4.819   9.209 -0.0780 -0.1031 -0.2570
28803SOL    HW190771   8.479   4.806   9.303  0.3249 -0.6114 -0.3740
28803SOL    HW290772   8.433   4.735   9.177  0.6178 -0.2234 -0.7018
28804SOL     OW90773   0.496   7.487   0.085  0.1157 -0.1583 -0.3186
28804SOL    HW190774   0.418   7.540   0.101 -0.3963 -0.6409 -1.1453
28804SOL    HW290775   0.562   7.549   0.054 -0.0445  0.1984  0.0579
28805SOL     OW90776   9.044   4.273   4.424 -0.1246  0.6203  0.0299
28805SOL    HW190777   9.021   4.229   4.342 -2.3595  0.7206  0.5426
28805SOL    HW290778   9.057   4.202   4.486 -2.2957  0.5601  0.4961
28806SOL     OW90779   3.481   1.004   2.475  0.7283  0.2198 -0.1293
28806SOL    HW190780   3.400   0.985   2.429  0.3954  0.0353  0.5215
28806SOL    HW290781   3.469   1.092   2.511  0.3598 -0.2417  0.9152
28807SOL     OW90782  10.734   4.190   3.874  0.4353 -0.3962  0.1787
28807SOL    HW190783  10.748   4.283   3.890 -0.3332  0.0462 -1.5528
28807SOL    HW290784  10.640   4.182   3.858  0.3444 -1.6296  1.2319
28808SOL     OW90785   7.815   2.736   0.656 -0.7437  0.1086 -0.3216
28808SOL    HW190786   7.777   2.676   0.592 -1.4427  1.4926 -1.2363
28808SOL    HW290787   7.741   2.786   0.690 -0.0609  1.1461 -0.3159
28809SOL     OW90788   5.996  10.638   6.935 -0.1931 -0.5666 -0.4070
28809SOL    HW190789   6.061  10.619   6.867  0.7420  0.3577  0.1887
28809SOL    HW290790   6.005  10.566   6.997  0.6918 -0.1571 -0.0401
28810SOL     OW90791   4.876   8.312   9.624  0.2771  0.5055  0.1694
28810SOL    HW190792   4.890   8.376   9.554  2.1445  0.1469  0.1738
28810SOL    HW290793   4.962   8.275   9.640 -0.8992 -2.9242 -0.6745
28811SOL     OW90794   6.537   7.837   3.909  0.0131  0.1715 -0.2784
28811SOL    HW190795   6.482   7.787   3.969 -0.7009  1.6112  0.3292
28811SOL    HW290796   6.560   7.916   3.959  0.2713  0.9178 -1.5326
28812SOL     OW90797   7.830  10.405  10.785  0.5374  0.0682 -0.3871
28812SOL    HW190798   7.830  10.355  10.866  1.1954  0.5043 -0.1061
28812SOL    HW290799   7.923  10.411  10.760  0.3416 -0.1301 -1.2157
28813SOL     OW90800   0.413   7.907   3.330  0.0938  0.3155  0.3639
28813SOL    HW190801   0.328   7.900   3.286 -0.2256 -0.1296  1.0404
28813SOL    HW290802   0.452   7.986   3.293 -0.3326  0.1672 -0.4326
28814SOL     OW90803   8.852   5.768   8.689  0.0200 -0.1238 -0.2331
28814SOL    HW190804   8.775   5.825   8.688  0.3072  0.2946  0.8000
28814SOL    HW290805   8.920   5.819   8.733  0.7042 -0.7326 -0.5643
28815SOL     OW90806   4.689   9.167   1.392 -0.3013  0.3955 -0.3453
28815SOL    HW190807   4.615   9.107   1.382  1.2263 -1.9523  1.1201
28815SOL    HW290808   4.699   9.177   1.487  1.2926  0.5456 -0.4957
28816SOL     OW90809  11.092   7.968   1.795 -0.2529 -0.1706 -0.5200
28816SOL    HW190810  11.167   7.994   1.848 -0.9699 -0.4281  0.6544
28816SOL    HW290811  11.067   7.882   1.829 -1.1283 -0.0623 -0.8453
28817SOL     OW90812   8.306   1.394   9.453 -0.4194 -0.0214  0.0981
28817SOL    HW190813   8.263   1.388   9.367 -0.0658 -0.2575 -0.0660
28817SOL    HW290814   8.268   1.472   9.493 -1.9619 -0.9350  0.5017
28818SOL     OW90815   7.728   2.398   7.019  0.4498 -0.3109 -0.0637
28818SOL    HW190816   7.681   2.455   6.958 -1.2129 -1.5901 -0.0517
28818SOL    HW290817   7.689   2.418   7.105 -1.1545 -2.3538 -0.2467
28819SOL     OW90818   8.233   9.127   6.961 -0.1466 -0.2208  0.1142
28819SOL    HW190819   8.297   9.068   6.999 -0.9182 -0.0305  1.8013
28819SOL    HW290820   8.206   9.184   7.034  1.8914  3.5169 -1.7344
28820SOL     OW90821   0.718   9.179   2.935  0.4834 -0.3873 -0.4631
28820SOL    HW190822   0.738   9.256   2.881 -0.5318 -1.1158 -1.9459
28820SOL    HW290823   0.790   9.119   2.917  0.6862 -0.2371 -0.1737
28821SOL     OW90824   1.815   6.630   6.599 -0.1917 -0.0073 -0.1085
28821SOL    HW190825   1.747   6.599   6.540 -1.4300  2.3082 -0.0051
28821SOL    HW290826   1.769   6.650   6.681  0.4014  2.1985 -0.2299
28822SOL     OW90827  10.796   3.978  10.833 -0.0173  0.1158 -0.1480
28822SOL    HW190828  10.743   3.987  10.913 -0.7618  2.4686 -0.7992
28822SOL    HW290829  10.754   3.908  10.784  0.6950 -1.6554  1.6492
28823SOL     OW90830   0.031   2.294   4.440  0.0055  0.3457  0.0814
28823SOL    HW190831   0.092   2.329   4.504 -1.5169  1.8368  0.7869
28823SOL    HW290832  -0.024   2.233   4.490  1.3191 -1.5847 -0.7062
28824SOL     OW90833   0.693   7.159   7.354  0.3092 -0.4860 -0.0335
28824SOL    HW190834   0.610   7.198   7.382  0.2875 -0.5695  0.0204
28824SOL    HW290835   0.732   7.126   7.436  1.6106  1.8345  0.3631
28825SOL     OW90836   2.372   4.713  10.898 -0.0750  0.1855  0.3221
28825SOL    HW190837   2.312   4.698  10.826 -0.0461  2.2254 -0.1963
28825SOL    HW290838   2.459   4.698  10.861 -0.1037  0.4263  0.1553
28826SOL     OW90839   4.310   7.841   2.799  0.1178 -0.1514  0.2813
28826SOL    HW190840   4.286   7.750   2.781  1.0870 -0.2736 -0.4813
28826SOL    HW290841   4.311   7.847   2.895 -0.8381 -0.6890  0.3336
28827SOL     OW90842   2.513   2.659   6.937 -0.7614 -0.1850  0.3241
28827SOL    HW190843   2.466   2.691   6.859  0.8788 -1.6153 -1.3608
28827SOL    HW290844   2.471   2.576   6.958 -1.1029  0.1269  0.8662
28828SOL     OW90845   0.429   4.737   9.949 -0.0357 -0.5782 -0.2199
28828SOL    HW190846   0.378   4.808   9.988 -0.9367 -0.5994 -1.3316
28828SOL    HW290847   0.519   4.768   9.952 -0.0181 -0.6272  1.9718
28829SOL     OW90848   7.605   6.567   5.608  0.4845 -0.5582 -0.2673
28829SOL    HW190849   7.576   6.481   5.638  0.7581 -0.2117  1.0611
28829SOL    HW290850   7.667   6.597   5.675  0.4302  0.6568 -0.7194
28830SOL     OW90851  10.835   4.813   9.386 -0.8938  0.3772  0.5415
28830SOL    HW190852  10.786   4.891   9.410  0.7865  1.6437  0.0427
28830SOL    HW290853  10.799   4.786   9.302 -1.2540  0.8040  0.5574
28831SOL     OW90854   3.658   4.512   1.445 -0.1010  0.1708 -0.0972
28831SOL    HW190855   3.723   4.509   1.375  0.1604  1.2757  0.0849
28831SOL    HW290856   3.590   4.572   1.413  0.0917  0.7959  0.6341
28832SOL     OW90857   8.632   7.682   2.026  0.5744  0.6871 -0.8660
28832SOL    HW190858   8.717   7.648   2.054  1.1517  0.5951 -2.6601
28832SOL    HW290859   8.651   7.771   1.994 -0.0454  0.7500 -1.0708
28833SOL     OW90860   2.578   6.185   2.341 -0.3431  0.3183  0.4013
28833SOL    HW190861   2.532   6.252   2.291 -0.6408  0.5887  1.0286
28833SOL    HW290862   2.534   6.184   2.426  1.1002  0.8989  1.1907
28834SOL     OW90863   5.407   7.359   0.018 -0.4547 -0.2323  0.3820
28834SOL    HW190864   5.459   7.417  -0.038 -1.4839 -0.3761 -0.7478
28834SOL    HW290865   5.429   7.271  -0.012 -1.7645 -0.2797 -0.5273
28835SOL     OW90866   3.192   2.251   3.934  0.0708 -0.1977 -0.3989
28835SOL    HW190867   3.227   2.254   3.845 -3.5557  0.5079 -1.9711
28835SOL    HW290868   3.204   2.340   3.967  0.4122 -0.1653 -0.6035
28836SOL     OW90869   7.931   9.574   1.186 -0.2195  0.5832  0.2879
28836SOL    HW190870   7.849   9.608   1.223  0.4222  2.4161  0.0799
28836SOL    HW290871   7.904   9.532   1.104 -1.0777  0.2556  0.7203
28837SOL     OW90872   7.765   9.708   8.493  0.1500  0.1357  0.2375
28837SOL    HW190873   7.704   9.781   8.483  0.4284  0.3738  0.2630
28837SOL    HW290874   7.845   9.736   8.448 -0.0399 -0.5175 -0.5450
28838SOL     OW90875   2.680   9.550   3.052  0.4649  0.3605 -0.3998
28838SOL    HW190876   2.591   9.580   3.035 -0.4827 -1.9937 -0.0518
28838SOL    HW290877   2.713   9.608   3.120 -0.5643  1.6262 -0.9324
28839SOL     OW90878   2.009   1.240   2.609  0.0394 -0.1730 -0.0491
28839SOL    HW190879   2.070   1.169   2.626  2.2104  1.8056  0.9353
28839SOL    HW290880   1.998   1.239   2.514  1.5167 -0.6445 -0.2343
28840SOL     OW90881   3.337   9.257   2.936  0.1858  0.1004  0.5331
28840SOL    HW190882   3.341   9.350   2.957 -0.3807  0.3241 -0.2988
28840SOL    HW290883   3.245   9.242   2.913  0.6169 -0.2935 -0.9890
28841SOL     OW90884   8.633   6.236   7.389  0.0570  0.1670  0.3319
28841SOL    HW190885   8.553   6.219   7.438  0.4690 -0.2923  0.8488
28841SOL    HW290886   8.654   6.327   7.410 -1.6659  1.1783 -1.7619
28842SOL     OW90887   6.562   3.085   3.673 -0.0657 -0.5190 -0.3385
28842SOL    HW190888   6.476   3.125   3.688  0.1548 -0.4214  0.7465
28842SOL    HW290889   6.565   3.070   3.578 -2.0518 -2.2863 -0.1903
28843SOL     OW90890   0.878   1.737   6.100 -0.3050  0.0720 -0.2199
28843SOL    HW190891   0.799   1.694   6.133  0.4987 -0.7523  0.6948
28843SOL    HW290892   0.923   1.669   6.050  1.5207 -0.5506  2.1452
28844SOL     OW90893   4.146   6.448   5.138  0.5251 -0.2535  0.0596
28844SOL    HW190894   4.115   6.386   5.072  0.8290  0.2801 -0.5914
28844SOL    HW290895   4.234   6.472   5.109 -0.5925  2.7049 -1.3568
28845SOL     OW90896   0.542   0.487   2.415 -0.1046  0.3921 -0.0106
28845SOL    HW190897   0.599   0.453   2.484 -1.9247  1.5034  2.1876
28845SOL    HW290898   0.577   0.574   2.396  1.4730 -0.5765 -1.9086
28846SOL     OW90899   3.962   5.624   1.587  0.0414 -0.1967 -0.2432
28846SOL    HW190900   3.963   5.719   1.572 -0.8395 -0.1833 -0.2462
28846SOL    HW290901   3.882   5.609   1.637  0.3765 -0.8984  0.0919
28847SOL     OW90902   5.389   1.554   6.585 -0.2078 -0.8715 -0.3074
28847SOL    HW190903   5.467   1.609   6.573  0.0141 -1.2336 -0.5583
28847SOL    HW290904   5.383   1.541   6.680 -1.1321  0.8212 -0.1007
28848SOL     OW90905   8.386   8.609   3.386  0.2879  0.8516 -0.5232
28848SOL    HW190906   8.455   8.609   3.319  0.0730  0.5562 -0.7464
28848SOL    HW290907   8.308   8.577   3.340 -0.2367  2.0660 -0.5290
28849SOL     OW90908   7.413   2.030   1.240 -0.1577 -0.3956  0.4133
28849SOL    HW190909   7.405   2.111   1.190 -0.6619 -0.3946  0.4944
28849SOL    HW290910   7.472   1.975   1.188 -1.2371 -0.6752 -0.5361
28850SOL     OW90911   3.633   7.263   0.976 -0.7466  0.5796  0.2816
28850SOL    HW190912   3.718   7.306   0.981 -0.8500  0.7170  3.3499
28850SOL    HW290913   3.570   7.335   0.987 -1.0763  0.1563  1.3536
28851SOL     OW90914   1.381   7.597   0.254  0.2164  0.2549 -0.1850
28851SOL    HW190915   1.295   7.596   0.212  0.3691  0.1001 -0.4950
28851SOL    HW290916   1.403   7.690   0.262 -0.7764  0.3701  1.5443
28852SOL     OW90917  10.798   1.548   8.878 -0.3108 -0.2159  0.0179
28852SOL    HW190918  10.778   1.616   8.942 -0.5244  0.5268 -0.8353
28852SOL    HW290919  10.738   1.564   8.805  0.7275 -0.3198 -0.8885
28853SOL     OW90920   9.778   9.940   5.548  0.3847 -0.3066  0.5055
28853SOL    HW190921   9.725   9.881   5.494 -0.3134  0.1064  0.7204
28853SOL    HW290922   9.717  10.009   5.575  0.7261 -0.4827  1.7919
28854SOL     OW90923   4.882   5.799   1.349  0.0834 -0.1144 -0.1248
28854SOL    HW190924   4.851   5.740   1.280  1.7975  0.5458 -1.5176
28854SOL    HW290925   4.968   5.766   1.372 -0.5394 -0.4494  1.9285
28855SOL     OW90926   4.543  11.026   2.096  0.1199  0.2220  0.2360
28855SOL    HW190927   4.484  11.020   2.022  1.3913  1.6966 -0.9680
28855SOL    HW290928   4.498  11.083   2.159 -0.4658 -0.0679  0.0764
28856SOL     OW90929   5.504   9.750   2.757 -0.1737 -0.7585  0.1156
28856SOL    HW190930   5.430   9.698   2.725 -1.1979 -0.0995  1.2942
28856SOL    HW290931   5.514   9.721   2.848  0.0191  0.2533  0.4203
28857SOL     OW90932   8.274   5.273   6.730  0.2417  0.1832 -0.3219
28857SOL    HW190933   8.288   5.367   6.740 -1.1927  0.5207 -1.1463
28857SOL    HW290934   8.317   5.234   6.805  3.9782  1.1616 -1.7338
28858SOL     OW90935   6.843  10.516  11.031  0.0432  0.4399 -0.0684
28858SOL    HW190936   6.775  10.568  11.075  0.9675 -0.6062  2.8343
28858SOL    HW290937   6.872  10.454  11.098  2.6114 -0.3486 -1.7842
28859SOL     OW90938   9.483   9.637   3.494  0.7149 -0.3535  0.0941
28859SOL    HW190939   9.483   9.575   3.566 -1.0715  0.1175  0.5462
28859SOL    HW290940   9.476   9.582   3.415 -1.8863 -0.7563  0.5317
28860SOL     OW90941   2.955   7.365   0.167 -0.7620  0.3357 -0.2504
28860SOL    HW190942   2.968   7.381   0.073  1.0001  2.5545  0.2715
28860SOL    HW290943   3.015   7.293   0.187  0.5057  1.2593 -0.5122
28861SOL     OW90944   6.401  10.565   3.871  0.4996  0.4086 -0.3218
28861SOL    HW190945   6.430  10.476   3.851 -1.6121 -0.2727 -0.6034
28861SOL    HW290946   6.482  10.614   3.884  1.7370 -1.3462 -1.0007
28862SOL     OW90947   4.135   3.829   6.026 -0.6836 -0.0847 -0.3976
28862SOL    HW190948   4.106   3.810   6.115 -0.3172 -0.8087 -0.4239
28862SOL    HW290949   4.163   3.744   5.991  1.0729  0.5013 -0.5093
28863SOL     OW90950   9.252   4.026   4.267 -0.0771 -0.1490  0.0277
28863SOL    HW190951   9.338   3.998   4.298  0.0013 -3.6936 -2.7118
28863SOL    HW290952   9.271   4.095   4.204  0.9140 -1.3715 -1.0695
28864SOL     OW90953   8.248   7.783   0.150  0.1178  0.0183  1.0355
28864SOL    HW190954   8.330   7.789   0.199 -0.5292  1.4988  2.0163
28864SOL    HW290955   8.267   7.825   0.066  0.3655  0.4353  1.2949
28865SOL     OW90956   7.530   8.943   2.050 -0.4345  0.0873 -0.4430
28865SOL    HW190957   7.588   8.890   2.105 -0.6439  1.3931  1.1010
28865SOL    HW290958   7.501   8.883   1.981 -0.2686 -1.6686  0.9504
28866SOL     OW90959   2.551   3.964   5.321 -0.3425 -0.9432  0.6603
28866SOL    HW190960   2.479   3.908   5.292 -0.8386 -0.0393  0.0856
28866SOL    HW290961   2.510   4.030   5.377 -0.2404  0.4555 -0.8304
28867SOL     OW90962   3.189   7.702   7.145  0.1726  0.2044 -0.6690
28867SOL    HW190963   3.132   7.720   7.070 -0.4310  1.7610  0.1369
28867SOL    HW290964   3.278   7.716   7.111  0.0016 -0.4106 -1.4204
28868SOL     OW90965  10.767   3.195   5.892  0.1466  0.3978 -0.6247
28868SOL    HW190966  10.714   3.124   5.857  1.3187 -0.3253 -0.9922
28868SOL    HW290967  10.794   3.165   5.979  0.3253  0.5702 -0.6185
28869SOL     OW90968   9.318   1.065   0.465  0.4883 -0.2445 -0.0511
28869SOL    HW190969   9.377   0.991   0.481  1.0467 -0.1022 -1.3589
28869SOL    HW290970   9.368   1.125   0.410 -0.9150 -0.2076 -1.3606
28870SOL     OW90971   8.592   5.515   6.071  0.3230 -0.2280  0.2336
28870SOL    HW190972   8.641   5.511   5.989 -0.5855 -0.8208 -0.2951
28870SOL    HW290973   8.519   5.575   6.053 -1.0517 -1.8970 -0.0770
28871SOL     OW90974   3.970   9.664   9.869 -0.2116 -0.0689  0.0612
28871SOL    HW190975   4.002   9.752   9.849 -0.7109 -0.5816 -3.9413
28871SOL    HW290976   4.048   9.609   9.865 -0.0333  0.0269  1.6833
28872SOL     OW90977   1.222   8.141   7.627  0.0053  0.0801 -0.1925
28872SOL    HW190978   1.232   8.225   7.672  1.8990  1.1408 -2.4010
28872SOL    HW290979   1.127   8.131   7.617 -0.2793  1.7740  0.4230
28873SOL     OW90980   3.753   4.279   7.216 -0.4297 -0.6851  0.4811
28873SOL    HW190981   3.730   4.296   7.125 -0.0916  0.5616  0.6079
28873SOL    HW290982   3.711   4.196   7.237  3.0569 -3.4577 -2.1438
28874SOL     OW90983   8.344   0.405   4.931 -0.1435 -0.4396 -0.0378
28874SOL    HW190984   8.401   0.405   5.008  0.3692  0.8110 -0.3951
28874SOL    HW290985   8.399   0.371   4.861  0.5222  1.6434 -0.5952
28875SOL     OW90986   1.062   6.809   3.327 -0.4096 -0.5298  0.3820
28875SOL    HW190987   1.106   6.755   3.392  3.0661  1.2977 -0.2441
28875SOL    HW290988   1.029   6.884   3.376  2.4518  0.9860  0.1750
28876SOL     OW90989   3.480   6.862   6.253 -0.7832 -0.5557  0.1606
28876SOL    HW190990   3.436   6.802   6.313 -1.7335  1.9894  2.1629
28876SOL    HW290991   3.413   6.885   6.189  0.1285 -2.9813 -1.8508
28877SOL     OW90992   1.022   7.149   1.898  0.2551 -0.7107  0.8649
28877SOL    HW190993   1.086   7.191   1.841  1.5206 -0.4785  2.4068
28877SOL    HW290994   1.052   7.058   1.905 -0.1647 -0.8581  0.8154
28878SOL     OW90995   1.090   7.786   6.389 -0.0732  0.2493 -0.0954
28878SOL    HW190996   1.124   7.717   6.445  1.9816 -0.5912 -2.2261
28878SOL    HW290997   1.125   7.867   6.427  0.1812 -0.1723  0.5827
28879SOL     OW90998   5.247   5.230   4.491  0.0492  0.0598 -0.9265
28879SOL    HW190999   5.174   5.208   4.432 -0.1428  2.8230 -1.8577
28879SOL    HW291000   5.322   5.241   4.433  0.3154  0.9007 -0.4361
28880SOL     OW91001   3.574  11.049   4.584  0.5980 -0.2270 -0.1899
28880SOL    HW191002   3.488  11.064   4.545  0.9486 -0.9792 -1.3015
28880SOL    HW291003   3.607  10.970   4.540  2.0189  0.2737 -0.0840
28881SOL     OW91004   8.270   7.314   7.389  0.5186  0.3620  0.1178
28881SOL    HW191005   8.282   7.381   7.321  1.0074 -1.2492 -1.4685
28881SOL    HW291006   8.358   7.293   7.418  0.3324  0.7684  1.0220
28882SOL     OW91007   9.811   1.347   5.109  0.7943 -0.2177  0.6488
28882SOL    HW191008   9.761   1.293   5.048 -0.2077 -0.9999  2.0759
28882SOL    HW291009   9.890   1.296   5.128  0.5323 -0.5263  0.9125
28883SOL     OW91010   7.554   2.808   5.983  0.0457  0.4816  0.6764
28883SOL    HW191011   7.482   2.863   5.952  0.0058 -0.1639 -0.4377
28883SOL    HW291012   7.519   2.719   5.981  0.8027  0.1861  0.3348
28884SOL     OW91013   7.892   1.432   7.899 -0.1208  0.0021 -0.3621
28884SOL    HW191014   7.803   1.397   7.901 -0.2889  0.4213 -0.3534
28884SOL    HW291015   7.889   1.509   7.957 -0.0520  0.7007 -1.2620
28885SOL     OW91016   6.560   3.699   6.687  0.2265 -0.0109  0.3164
28885SOL    HW191017   6.511   3.636   6.633 -2.1275  1.0334  1.1204
28885SOL    HW291018   6.494   3.738   6.744  2.2056  0.8250  2.1407
28886SOL     OW91019   6.366   4.604   8.965 -0.3500 -0.3689 -0.0094
28886SOL    HW191020   6.335   4.617   8.875 -0.1286  0.5949  0.0447
28886SOL    HW291021   6.450   4.650   8.968 -0.0446 -0.9402  0.5168
28887SOL     OW91022   3.495   4.803   1.711  0.3067 -0.1462 -0.0307
28887SOL    HW191023   3.474   4.807   1.617 -0.5486 -0.2127  0.1513
28887SOL    HW291024   3.465   4.717   1.739 -0.4008  0.2629  0.5178
28888SOL     OW91025   0.363  11.083   2.446 -0.0890  0.2453 -0.2868
28888SOL    HW191026   0.404  10.997   2.458 -0.0988  0.2041 -0.5378
28888SOL    HW291027   0.397  11.114   2.362 -2.2465 -0.7635 -1.6310
28889SOL     OW91028   4.851   0.648   2.073  0.3132  0.3719  0.7443
28889SOL    HW191029   4.918   0.600   2.025 -0.5797 -0.8547  0.6815
28889SOL    HW291030   4.792   0.682   2.005  1.4562  2.4338  0.7170
28890SOL     OW91031   6.979   8.536   8.770 -0.5065  0.0265 -0.2004
28890SOL    HW191032   6.942   8.624   8.773 -0.7501 -0.0464 -0.8516
28890SOL    HW291033   7.049   8.536   8.835 -0.9021  0.5180  0.2284
28891SOL     OW91034   1.002   3.711   4.941 -0.4937 -0.2764  0.5535
28891SOL    HW191035   0.938   3.753   4.883 -0.1250 -1.9794 -1.1911
28891SOL    HW291036   1.033   3.635   4.891  2.4942  0.1629  1.5685
28892SOL     OW91037   9.537   8.428   4.484 -0.0073  0.2602  0.5423
28892SOL    HW191038   9.559   8.423   4.391 -0.3910 -1.3109  0.5182
28892SOL    HW291039   9.492   8.346   4.503  0.3345  0.4185  2.1863
28893SOL     OW91040   5.148   1.084   8.123 -0.2850 -0.3693 -0.5418
28893SOL    HW191041   5.170   1.161   8.070 -0.9876  1.3682  1.5369
28893SOL    HW291042   5.158   1.114   8.214  1.3806 -3.3553  0.3911
28894SOL     OW91043   0.112   9.551   2.781 -0.0549 -0.2471 -0.6242
28894SOL    HW191044   0.059   9.475   2.757 -1.7593  0.2288  1.3198
28894SOL    HW291045   0.202   9.519   2.779 -0.5490 -1.7012 -1.9318
28895SOL     OW91046   4.537   6.786   1.165  0.2364  0.3503 -0.0489
28895SOL    HW191047   4.475   6.715   1.149  0.9177 -0.5940  1.3022
28895SOL    HW291048   4.596   6.752   1.233  0.6516  2.1717  0.5625
28896SOL     OW91049   0.365   4.855   2.112  0.3858 -0.1722 -0.4101
28896SOL    HW191050   0.339   4.828   2.200  2.4844 -0.8929  0.0594
28896SOL    HW291051   0.386   4.948   2.120  0.0475 -0.1056 -0.2845
28897SOL     OW91052   1.468   6.117   7.723  0.0344 -0.0661  0.4328
28897SOL    HW191053   1.451   6.169   7.644  1.3712  0.6933  0.6174
28897SOL    HW291054   1.413   6.155   7.790 -0.8226 -0.4686 -0.0290
28898SOL     OW91055   4.503   5.932   5.987  0.0726 -0.3318  0.8478
28898SOL    HW191056   4.568   5.979   5.935 -0.0524 -0.8359  0.2212
28898SOL    HW291057   4.443   5.895   5.923 -0.6220 -0.1881  1.4050
28899SOL     OW91058   6.680   5.557   8.216 -0.2185  0.2609  0.0803
28899SOL    HW191059   6.734   5.547   8.294  0.3976 -1.5220 -0.5276
28899SOL    HW291060   6.604   5.501   8.233 -0.0128 -0.2457 -0.6245
28900SOL     OW91061   2.685   0.552   8.773 -0.6102 -0.0759  0.4392
28900SOL    HW191062   2.723   0.628   8.730 -0.9210 -0.3413 -0.3215
28900SOL    HW291063   2.654   0.497   8.701  0.7008 -1.5118  0.9065
28901SOL     OW91064   6.653   6.074   8.513 -0.3184 -0.3975  0.1000
28901SOL    HW191065   6.700   6.092   8.595  0.9775 -1.3666 -0.3989
28901SOL    HW291066   6.671   6.150   8.457 -0.3302 -0.2264  0.3266
28902SOL     OW91067   0.794   2.219   1.769  0.0777 -0.4009  0.1358
28902SOL    HW191068   0.853   2.185   1.836 -0.7944 -0.6116  0.8114
28902SOL    HW291069   0.721   2.258   1.818 -0.3169 -0.0829 -0.6791
28903SOL     OW91070   1.985   4.510   2.863  0.5020  0.2526  0.1315
28903SOL    HW191071   2.049   4.512   2.792 -0.8211  1.1090 -1.1040
28903SOL    HW291072   1.981   4.601   2.894  0.7054 -0.0181  0.9746
28904SOL     OW91073   7.566   8.115  10.264  0.1520  0.1960 -0.6077
28904SOL    HW191074   7.590   8.050  10.198 -0.7855  0.0057 -0.7815
28904SOL    HW291075   7.470   8.108  10.270  0.3036 -0.7231  1.7204
28905SOL     OW91076   3.761   6.858   6.275 -0.4107 -0.2631 -0.2465
28905SOL    HW191077   3.666   6.862   6.278 -0.4400 -1.3716  1.0542
28905SOL    HW291078   3.782   6.765   6.287  0.8162 -0.2398 -1.7909
28906SOL     OW91079  10.684  10.192   3.372  0.4436  0.0765 -0.1381
28906SOL    HW191080  10.748  10.129   3.404  1.0058  0.3426 -0.7153
28906SOL    HW291081  10.654  10.238   3.450 -0.0928 -1.0013  0.3096
28907SOL     OW91082  10.490   8.447  10.493 -0.1299  0.8935  0.2336
28907SOL    HW191083  10.494   8.458  10.588 -1.1432  1.1169  0.2593
28907SOL    HW291084  10.400   8.418  10.476 -0.4716  2.4602 -0.8212
28908SOL     OW91085   1.321   5.190   7.328  0.0166 -0.2117  0.2460
28908SOL    HW191086   1.252   5.137   7.369  0.2583 -0.5422  0.2258
28908SOL    HW291087   1.339   5.259   7.393  0.3755 -0.7138  0.6859
28909SOL     OW91088   1.551   1.097   7.049  0.6831  0.1626 -0.1149
28909SOL    HW191089   1.489   1.066   6.984 -1.2715 -0.1222  1.7563
28909SOL    HW291090   1.601   1.019   7.074 -1.9040 -0.9516  2.1266
28910SOL     OW91091   0.490   3.133   2.621  0.2041  0.6785 -0.2118
28910SOL    HW191092   0.488   3.218   2.665  0.4085  0.1551  0.8437
28910SOL    HW291093   0.507   3.070   2.692 -1.0197 -0.3519 -0.8088
28911SOL     OW91094   2.095   0.564   3.527 -0.2310  0.0145 -0.2214
28911SOL    HW191095   2.154   0.508   3.579  1.3220  0.0432 -1.8571
28911SOL    HW291096   2.060   0.506   3.460 -0.4041  0.4846 -0.5423
28912SOL     OW91097   4.239   1.889   3.508  0.0913 -0.1639  0.2403
28912SOL    HW191098   4.260   1.821   3.445 -0.6623  1.2982 -1.6738
28912SOL    HW291099   4.321   1.936   3.521  0.0294  0.1353 -0.4269
28913SOL     OW91100   3.842   3.233   9.699 -0.4075  0.3589  0.4931
28913SOL    HW191101   3.758   3.192   9.719  0.6128 -0.7452  2.9465
28913SOL    HW291102   3.830   3.271   9.612 -3.1609 -0.4473  0.4172
28914SOL     OW91103   1.398   9.067   6.663 -0.0180 -0.4696 -0.7719
28914SOL    HW191104   1.430   9.027   6.743 -0.6348 -1.3623 -0.9468
28914SOL    HW291105   1.375   9.157   6.687  1.0508 -0.3126 -0.2814
28915SOL     OW91106   2.878   6.578   7.015 -0.1077 -0.2333 -0.6392
28915SOL    HW191107   2.876   6.498   6.963 -1.1529 -0.2815 -0.5491
28915SOL    HW291108   2.942   6.634   6.971  0.5932 -1.0900 -0.7366
28916SOL     OW91109   6.273   1.396   7.058  0.5350 -0.2993 -0.0381
28916SOL    HW191110   6.292   1.305   7.080 -0.4954 -0.7060 -0.7592
28916SOL    HW291111   6.356   1.430   7.023  1.7083 -0.1486  2.6539
28917SOL     OW91112   6.913   0.153  10.498 -0.2006  0.2294 -0.3419
28917SOL    HW191113   6.849   0.184  10.562  1.0588 -0.8574  1.5492
28917SOL    HW291114   6.863   0.140  10.418 -2.5751 -1.4189  1.2796
28918SOL     OW91115   5.687   9.684   8.958 -0.1662 -0.8830  0.2755
28918SOL    HW191116   5.657   9.612   9.014 -1.7348 -0.1914  0.3760
28918SOL    HW291117   5.617   9.695   8.893 -0.5454  1.3302  0.9834
28919SOL     OW91118   9.930   9.545  10.961  0.0948 -0.4967  0.7234
28919SOL    HW191119   9.873   9.547  10.884 -0.0143  2.4228  0.7530
28919SOL    HW291120  10.018   9.541  10.925  0.0371  0.6426  0.4201
28920SOL     OW91121   6.712   2.028  11.004 -0.5133  0.2843 -0.4143
28920SOL    HW191122   6.803   2.014  10.977 -0.1421  1.0236  0.3906
28920SOL    HW291123   6.718   2.051  11.097 -1.5785 -0.2504 -0.1985
28921SOL     OW91124   0.138  10.622   4.865 -0.2887  0.1434  0.4827
28921SOL    HW191125   0.095  10.644   4.947 -1.2569  1.3191 -0.3273
28921SOL    HW291126   0.094  10.674   4.798 -0.8152 -2.1818 -1.1135
28922SOL     OW91127   2.758   0.158   5.260  0.0829 -0.2086 -0.3159
28922SOL    HW191128   2.802   0.093   5.315 -2.5651 -2.3271 -0.4619
28922SOL    HW291129   2.767   0.124   5.171  2.4635  2.0659 -1.0670
28923SOL     OW91130   8.744  10.820   9.974  0.0362 -0.1926 -0.2896
28923SOL    HW191131   8.812  10.879  10.007  1.2468 -0.9793 -1.2651
28923SOL    HW291132   8.769  10.803   9.883 -1.6242 -0.3183 -0.7601
28924SOL     OW91133   9.647   6.061   5.049  0.6967  0.0616  0.0559
28924SOL    HW191134   9.634   6.116   5.126  1.7422  3.6953 -2.1472
28924SOL    HW291135   9.733   6.021   5.063  0.0097 -0.9864  1.5964
28925SOL     OW91136   6.474   2.970   7.636 -0.0122  0.1767  0.0687
28925SOL    HW191137   6.555   3.021   7.631 -0.7685  1.4400  0.2861
28925SOL    HW291138   6.404   3.034   7.623 -1.0135 -0.7693  0.6106
28926SOL     OW91139  10.903  10.023   4.526 -0.5547  0.5132 -0.0158
28926SOL    HW191140  10.901  10.113   4.559 -2.3210  0.8876 -1.0358
28926SOL    HW291141  10.829   9.980   4.569  0.2246 -0.4440  0.3945
28927SOL     OW91142   0.934   5.403  10.104  0.9301 -0.3267 -0.0523
28927SOL    HW191143   0.911   5.496  10.104 -2.6491 -1.0604 -1.1639
28927SOL    HW291144   0.917   5.374  10.014  2.3416 -2.0370  0.1726
28928SOL     OW91145   9.213   5.079  10.107  0.2088 -0.0379 -0.0631
28928SOL    HW191146   9.170   5.019  10.168 -0.3144 -0.1523 -0.5383
28928SOL    HW291147   9.161   5.159  10.111 -0.0516 -0.1724 -0.6300
28929SOL     OW91148   3.205   5.259   3.933  0.8121 -0.2193 -0.1179
28929SOL    HW191149   3.256   5.335   3.908  2.1541 -0.8861  0.4784
28929SOL    HW291150   3.249   5.185   3.891 -0.9199 -0.6293 -1.3407
28930SOL     OW91151   9.014   9.517   8.706 -0.6675  0.2832 -0.0060
28930SOL    HW191152   8.972   9.451   8.650 -1.4973  1.8002 -1.2644
28930SOL    HW291153   9.006   9.482   8.794 -2.1310 -0.7881 -0.5132
28931SOL     OW91154   9.531   9.171   3.047 -0.0710 -0.5886  0.1245
28931SOL    HW191155   9.437   9.164   3.063 -0.5935  1.8443 -1.3516
28931SOL    HW291156   9.571   9.164   3.134 -1.8892  1.4628  1.2337
28932SOL     OW91157  10.096   5.096   7.300  0.0550 -0.1969 -0.2256
28932SOL    HW191158  10.002   5.082   7.308  0.2228 -0.8978  0.8810
28932SOL    HW291159  10.133   5.008   7.307  0.8287  0.1585  0.3025
28933SOL     OW91160   5.230  10.226   6.942  0.0024  0.6999 -0.0432
28933SOL    HW191161   5.268  10.140   6.960 -1.3551  0.0332 -0.2634
28933SOL    HW291162   5.152  10.208   6.890 -1.4084  1.9041  1.5432
28934SOL     OW91163   1.328   4.538  10.534  0.7935 -0.3398  0.3188
28934SOL    HW191164   1.237   4.563  10.516  1.3222 -0.1608 -2.5982
28934SOL    HW291165   1.351   4.587  10.613 -1.0713  1.0921  0.0546
28935SOL     OW91166   0.371   9.702   9.104 -0.5796 -0.0679  0.0818
28935SOL    HW191167   0.316   9.627   9.125 -0.4606 -0.2256 -0.1695
28935SOL    HW291168   0.310   9.776   9.098 -0.9247 -0.4299 -1.2657
28936SOL     OW91169   0.826   1.039   9.132 -0.0335  0.4583 -0.1193
28936SOL    HW191170   0.799   0.954   9.167 -0.3266  0.1295 -1.0896
28936SOL    HW291171   0.744   1.086   9.117  0.0438  0.3861 -0.8246
28937SOL     OW91172   7.440  10.053   7.457 -0.1666  0.0157 -0.2709
28937SOL    HW191173   7.514  10.001   7.490  1.1336  2.3257  0.6275
28937SOL    HW291174   7.473  10.091   7.375 -0.4693  0.7870 -0.0379
28938SOL     OW91175   2.887   8.606  10.696 -0.6627 -0.0709 -0.1400
28938SOL    HW191176   2.881   8.641  10.607  0.4940  0.2732 -0.0994
28938SOL    HW291177   2.796   8.595  10.723 -1.0360  0.1172 -1.2456
28939SOL     OW91178   6.209   6.621   1.507 -0.7309 -0.2167 -0.2639
28939SOL    HW191179   6.130   6.670   1.486 -0.7033 -0.3073 -0.5847
28939SOL    HW291180   6.280   6.685   1.501 -0.8544  0.0228  0.6951
28940SOL     OW91181   5.635   2.022   5.964  0.0497  0.1735 -0.0450
28940SOL    HW191182   5.719   2.051   5.928 -1.0495  1.0080 -2.1035
28940SOL    HW291183   5.625   1.932   5.933  1.1566 -0.7784  2.1282
28941SOL     OW91184   7.860   3.930   0.847 -0.5357  0.6242  0.6498
28941SOL    HW191185   7.872   3.920   0.941 -0.3605  1.8140  0.7646
28941SOL    HW291186   7.948   3.942   0.812 -0.6559  0.8908  0.4281
28942SOL     OW91187   7.854   6.956   8.753 -0.0784 -0.0643  0.6104
28942SOL    HW191188   7.815   6.974   8.667 -0.0682 -0.0982  0.5984
28942SOL    HW291189   7.799   7.004   8.815 -0.5054 -0.6122  0.6546
28943SOL     OW91190   2.302   7.139   6.519 -0.5425  0.5024  0.2898
28943SOL    HW191191   2.318   7.207   6.453 -0.1286 -1.2941 -1.5870
28943SOL    HW291192   2.208   7.141   6.535 -1.1440 -0.7271 -2.4709
28944SOL     OW91193   9.149   0.125   8.569 -0.4074 -0.2356  0.2245
28944SOL    HW191194   9.145   0.169   8.484 -1.0043 -1.3984 -0.3710
28944SOL    HW291195   9.061   0.091   8.583  0.0070 -1.1497  0.7042
28945SOL     OW91196   2.132   5.842   0.089 -0.1890  0.3655  0.3841
28945SOL    HW191197   2.154   5.871   0.178 -0.3654  1.9681 -0.0532
28945SOL    HW291198   2.036   5.842   0.088 -0.2010  1.2830 -0.0520
28946SOL     OW91199   2.375   9.370   0.984  0.7937  0.1598  0.3430
28946SOL    HW191200   2.449   9.430   0.996  1.1027 -0.0371 -0.5678
28946SOL    HW291201   2.378   9.313   1.061  0.7593  1.0222  0.9981
28947SOL     OW91202   4.485   4.633   5.142 -0.1472 -0.8187 -0.0287
28947SOL    HW191203   4.492   4.713   5.090 -0.4594 -0.6113  0.2400
28947SOL    HW291204   4.466   4.565   5.078 -1.3062 -0.4392 -0.1193
28948SOL     OW91205   1.558   9.409   6.523  0.3865  0.4794 -0.0186
28948SOL    HW191206   1.484   9.377   6.472  1.5322 -0.2422 -1.2893
28948SOL    HW291207   1.585   9.490   6.480 -0.6796  1.6771  1.4554
28949SOL     OW91208   6.830   8.705   8.354  1.2667 -0.0305  0.2593
28949SOL    HW191209   6.906   8.742   8.309  1.0144  1.6382  1.0937
28949SOL    HW291210   6.757   8.717   8.293  1.3998 -0.1625  0.0776
28950SOL     OW91211   8.299   3.267   9.903  0.4536 -0.0187  0.6573
28950SOL    HW191212   8.242   3.267   9.980  0.0622  0.0728  0.3677
28950SOL    HW291213   8.239   3.267   9.829  0.8007  1.6356  0.3412
28951SOL     OW91214   4.074   7.624   0.214  0.6349 -0.0163 -0.0908
28951SOL    HW191215   4.020   7.607   0.291 -0.7348  0.3530 -0.9431
28951SOL    HW291216   4.104   7.714   0.225  3.4355 -1.0363  1.7390
28952SOL     OW91217   9.967   8.457   9.468  0.3661 -0.1836 -0.3541
28952SOL    HW191218   9.927   8.416   9.391 -0.8582  1.1015 -0.4558
28952SOL    HW291219  10.014   8.387   9.512 -0.8604 -1.4642 -1.0134
28953SOL     OW91220   3.871   8.150   1.323  0.0669 -0.0246 -0.0255
28953SOL    HW191221   3.785   8.192   1.326 -0.6453 -1.3951 -0.4186
28953SOL    HW291222   3.870   8.086   1.394  0.5343 -0.4773 -0.4125
28954SOL     OW91223   7.731   2.755   7.019  0.0114 -0.1035 -0.9082
28954SOL    HW191224   7.675   2.701   6.963 -0.6062  0.3320 -0.7181
28954SOL    HW291225   7.798   2.788   6.960  1.7679 -2.8370 -0.6488
28955SOL     OW91226   9.234  10.577  10.091  0.4353  0.7706  0.4170
28955SOL    HW191227   9.325  10.566  10.121  0.6834  3.3769  0.8662
28955SOL    HW291228   9.233  10.662  10.048 -1.4721  0.0651 -1.0926
28956SOL     OW91229   2.968   1.579   5.988  0.2845 -0.1665  0.2449
28956SOL    HW191230   2.955   1.659   5.936  2.4928 -1.5450 -2.7158
28956SOL    HW291231   3.021   1.608   6.062 -0.3314  1.3718  0.1244
28957SOL     OW91232   3.565  10.684   0.306 -0.6491 -0.1945  0.2977
28957SOL    HW191233   3.601  10.770   0.329 -1.6091  0.2183  0.2835
28957SOL    HW291234   3.545  10.643   0.390  1.4993 -1.1828  0.4015
28958SOL     OW91235   3.889   1.094   0.992  0.0461 -0.1667  0.4729
28958SOL    HW191236   3.813   1.132   1.036 -0.0089 -1.6390  1.7621
28958SOL    HW291237   3.887   1.130   0.903 -1.0036  1.3451  1.0785
28959SOL     OW91238  10.414   5.547   5.750  0.0446 -0.0914 -0.5546
28959SOL    HW191239  10.501   5.510   5.738 -0.1160 -1.1066  1.1317
28959SOL    HW291240  10.355   5.473   5.740 -0.3910 -0.0616  1.3522
28960SOL     OW91241   7.947   2.005   8.982 -0.3280  0.5014  0.3991
28960SOL    HW191242   7.975   2.060   8.909  2.4760 -0.9944  0.1959
28960SOL    HW291243   8.028   1.981   9.027 -1.7588 -0.5140  2.6560
28961SOL     OW91244   2.430   3.464   9.417  0.1191 -0.1375 -0.4902
28961SOL    HW191245   2.366   3.524   9.379 -0.2782  0.0663  0.4807
28961SOL    HW291246   2.379   3.389   9.448  0.1352  0.5610  1.3948
28962SOL     OW91247   3.103   3.895   4.924  0.0871  0.4766  0.3880
28962SOL    HW191248   3.041   3.962   4.951  1.6465  1.4025  1.8609
28962SOL    HW291249   3.153   3.936   4.853 -0.0304  0.2531  0.1732
28963SOL     OW91250  10.443   0.236   2.198 -0.0563 -0.4250 -0.9902
28963SOL    HW191251  10.448   0.312   2.256  2.0098 -0.9102 -0.4514
28963SOL    HW291252  10.364   0.250   2.146 -2.3671 -0.1986  2.2781
28964SOL     OW91253   5.534   7.506   9.601  0.1110  0.2587  0.0740
28964SOL    HW191254   5.514   7.435   9.540  0.1324  1.0260 -0.8504
28964SOL    HW291255   5.526   7.466   9.688 -0.0357 -0.8249 -0.4223
28965SOL     OW91256   9.959   4.140   7.602 -0.3950 -0.1181 -0.5203
28965SOL    HW191257  10.016   4.122   7.677 -0.4555 -0.6687 -0.6036
28965SOL    HW291258  10.016   4.128   7.526 -0.8602 -1.7124 -0.6555
28966SOL     OW91259   1.614  11.049   0.761 -0.2392  0.0560  0.1771
28966SOL    HW191260   1.595  11.020   0.672  0.4222  0.4581 -0.1011
28966SOL    HW291261   1.557  11.124   0.775 -0.1921  0.1208  0.0189
28967SOL     OW91262   6.344   4.856   5.971 -0.8234  0.2216 -0.7924
28967SOL    HW191263   6.360   4.951   5.975  1.4061 -0.1203  0.5082
28967SOL    HW291264   6.280   4.840   6.041  0.6792  0.5235  0.7339
28968SOL     OW91265   0.051   3.929   7.514  0.2485  0.3175 -0.8094
28968SOL    HW191266   0.137   3.969   7.526  0.3448  0.1947 -1.0822
28968SOL    HW291267   0.050   3.902   7.422 -0.0085  0.1440 -0.7557
28969SOL     OW91268   6.001   2.715   2.645 -0.0721 -0.2493 -0.3370
28969SOL    HW191269   6.080   2.671   2.612  0.0783  0.1911 -0.5844
28969SOL    HW291270   5.974   2.771   2.572 -0.1191  0.2416  0.0543
28970SOL     OW91271   4.530   1.145   0.730  0.0624 -0.2032  0.2572
28970SOL    HW191272   4.481   1.108   0.656  4.0661 -2.8865 -1.4000
28970SOL    HW291273   4.523   1.079   0.799  0.1809  0.0972  0.5590
28971SOL     OW91274   0.463   4.587   0.125  0.5469  0.0735  0.3736
28971SOL    HW191275   0.467   4.568   0.219 -0.4347 -1.0847  0.2144
28971SOL    HW291276   0.370   4.607   0.109  0.6909  0.1807 -0.3609
28972SOL     OW91277   1.588   7.554   0.713  0.2486  0.8876 -0.0729
28972SOL    HW191278   1.602   7.537   0.620 -0.9522  0.9365 -0.2754
28972SOL    HW291279   1.557   7.471   0.748 -0.8405  1.2945 -0.0483
28973SOL     OW91280   3.218   2.947  10.333  0.1203  0.3689 -0.5608
28973SOL    HW191281   3.301   2.978  10.297 -0.7200  2.3315 -0.9855
28973SOL    HW291282   3.242   2.892  10.407  1.8159 -0.5995 -1.7753
28974SOL     OW91283   9.176   0.752  11.117 -0.8625 -0.7282  0.0181
28974SOL    HW191284   9.124   0.825  11.152 -0.4229 -0.2016 -0.4084
28974SOL    HW291285   9.121   0.714  11.049  0.0622  1.0849 -1.8426
28975SOL     OW91286  11.035   5.545   7.724  0.1874  0.4486  0.3591
28975SOL    HW191287  11.049   5.589   7.808  2.0926 -0.4982  0.5785
28975SOL    HW291288  11.079   5.461   7.733 -0.9042 -0.3189 -1.0774
28976SOL     OW91289   9.017   5.384   7.633  0.6823  0.1179  0.5511
28976SOL    HW191290   9.100   5.355   7.595  1.5113  0.6758  1.8709
28976SOL    HW291291   8.959   5.396   7.558  1.2354 -1.9644 -0.2862
28977SOL     OW91292   1.685   9.170   8.884 -0.0215 -0.6551  0.2645
28977SOL    HW191293   1.592   9.191   8.881  0.0487 -0.4238 -1.6926
28977SOL    HW291294   1.690   9.086   8.929 -1.2493 -0.9942 -0.2012
28978SOL     OW91295  10.666   8.741   1.302 -0.2574  0.4777 -0.0079
28978SOL    HW191296  10.598   8.710   1.361  0.9882  1.3182  1.9872
28978SOL    HW291297  10.717   8.663   1.280 -0.5820  0.1956  0.2313
28979SOL     OW91298   3.982  10.108   7.555 -0.4513  0.3344  0.4241
28979SOL    HW191299   3.981  10.064   7.641 -0.0462  0.8301  0.6885
28979SOL    HW291300   3.922  10.182   7.566  1.0445  1.5295  0.9045
28980SOL     OW91301   5.702  10.117   5.213 -0.2586  0.0766  0.0190
28980SOL    HW191302   5.748  10.098   5.131  1.5074 -1.1123  1.2118
28980SOL    HW291303   5.715  10.210   5.226  1.0133 -0.0509 -0.1754
28981SOL     OW91304   1.650   6.751   4.389  0.1235  0.7260 -0.3237
28981SOL    HW191305   1.633   6.744   4.483 -0.2026 -0.2950 -0.4512
28981SOL    HW291306   1.658   6.845   4.374  0.9687  0.8799  0.8574
28982SOL     OW91307   7.062  10.882   0.977 -0.3184  0.5255 -0.4661
28982SOL    HW191308   7.079  10.871   1.071 -1.5611 -0.0698 -0.2989
28982SOL    HW291309   7.038  10.795   0.947 -0.3628  0.8055 -1.2563
28983SOL     OW91310   7.341   8.468   5.721 -0.0984 -0.3214 -0.1858
28983SOL    HW191311   7.428   8.481   5.683 -0.7207  0.1808 -1.5130
28983SOL    HW291312   7.288   8.537   5.682 -0.6768  0.6262  2.1164
28984SOL     OW91313  10.471   2.343   9.556  0.4283 -0.5185  0.5676
28984SOL    HW191314  10.395   2.315   9.505  1.0819  2.7186 -2.5238
28984SOL    HW291315  10.440   2.420   9.604  0.8793 -1.3133  2.2185
28985SOL     OW91316   1.495  10.773   9.955 -0.0087  0.9509 -0.2736
28985SOL    HW191317   1.551  10.765  10.032 -0.8400 -0.0246  0.2670
28985SOL    HW291318   1.534  10.713   9.891 -0.3773  0.3279  0.0753
28986SOL     OW91319   6.583   5.135   9.415  0.3479  0.6085 -0.1188
28986SOL    HW191320   6.634   5.091   9.347 -0.1330 -1.4064  0.7557
28986SOL    HW291321   6.494   5.138   9.380 -0.2042 -1.7326  0.9190
28987SOL     OW91322   0.236   5.425   8.892  0.3115 -0.2599  0.2443
28987SOL    HW191323   0.262   5.364   8.823 -0.7405 -1.8671  1.2004
28987SOL    HW291324   0.248   5.512   8.853  1.4763 -1.0595 -1.3051
28988SOL     OW91325   5.825   4.213   8.218  0.6062 -0.5097  0.1354
28988SOL    HW191326   5.864   4.300   8.223  0.5302 -0.5376  1.4618
28988SOL    HW291327   5.871   4.161   8.283 -0.5092 -0.9955  0.5667
28989SOL     OW91328   4.685   6.135   8.713 -0.4895 -0.1127  0.0952
28989SOL    HW191329   4.669   6.047   8.679 -0.9628  0.0128 -0.0068
28989SOL    HW291330   4.740   6.121   8.790  2.6206 -0.2723 -1.9695
28990SOL     OW91331   2.255   6.390   9.004 -0.8826  0.3483  0.1595
28990SOL    HW191332   2.236   6.428   9.089 -0.8233  0.0089  0.3270
28990SOL    HW291333   2.193   6.317   8.995 -0.7753  0.2758 -0.0123
28991SOL     OW91334  10.343   7.372   6.075 -0.0381  0.2582 -0.6448
28991SOL    HW191335  10.394   7.305   6.121  0.0962  1.3527  0.9128
28991SOL    HW291336  10.268   7.325   6.039  0.2315 -0.7916  0.1163
28992SOL     OW91337   9.422   1.982  10.498 -0.3558  1.0419 -0.0087
28992SOL    HW191338   9.516   1.992  10.509  0.0765 -0.5616 -1.7944
28992SOL    HW291339   9.409   1.975  10.403 -1.9300 -1.6677  0.3137
28993SOL     OW91340   4.205   0.370   3.034 -0.0877 -0.2242  0.3980
28993SOL    HW191341   4.291   0.331   3.020  0.1843  0.5336 -0.0809
28993SOL    HW291342   4.159   0.356   2.952  0.0658  0.5955  0.1697
28994SOL     OW91343   0.488   6.578   2.005  0.0774  0.1334  0.1625
28994SOL    HW191344   0.472   6.634   2.080  1.9023  1.4521 -0.3519
28994SOL    HW291345   0.493   6.638   1.931  0.2582 -0.9196 -0.7042
28995SOL     OW91346   4.984   3.127  10.998 -0.5627  0.2004  0.1032
28995SOL    HW191347   4.896   3.144  10.962 -0.3377 -0.0512 -0.5818
28995SOL    HW291348   5.035   3.096  10.923 -0.0044 -0.0804  0.5921
28996SOL     OW91349   7.438   6.742   5.979 -0.1978  0.0847  0.0398
28996SOL    HW191350   7.419   6.814   6.039  2.0527  0.8544 -0.0839
28996SOL    HW291351   7.368   6.748   5.913 -0.7200  1.4120  0.6649
28997SOL     OW91352   7.085   4.314   2.363  0.1963  0.0946 -0.1988
28997SOL    HW191353   7.051   4.238   2.410  1.1130 -1.6936 -2.2533
28997SOL    HW291354   7.025   4.326   2.290  0.1225  1.3195  0.0395
28998SOL     OW91355   4.321   4.573   6.940 -0.1643 -0.4854  0.4478
28998SOL    HW191356   4.316   4.497   6.996  3.4673 -2.3676 -1.3852
28998SOL    HW291357   4.352   4.644   6.997 -0.5951 -1.1902  1.5746
28999SOL     OW91358   2.657  10.829   0.240 -0.5376  0.4831 -0.2532
28999SOL    HW191359   2.669  10.736   0.222  1.6607  0.5624  0.5700
28999SOL    HW291360   2.700  10.873   0.167 -2.0323  0.9057 -0.9228
29000SOL     OW91361  11.021   9.061  10.880  0.0559  0.1621 -0.3034
29000SOL    HW191362  11.013   8.970  10.852  0.8920 -0.5395  1.5545
29000SOL    HW291363  11.011   9.057  10.975  2.1178  1.7112  0.0450
29001SOL     OW91364   1.809   8.041   1.605  0.6089 -0.9118 -0.2759
29001SOL    HW191365   1.812   7.984   1.528  2.3756 -0.7319 -0.3937
29001SOL    HW291366   1.869   8.001   1.667  0.7359  0.0131  0.2235
29002SOL     OW91367   2.122   5.623   1.497 -0.5648  0.1447 -0.2817
29002SOL    HW191368   2.087   5.639   1.584  0.8715  0.7192  0.2196
29002SOL    HW291369   2.092   5.698   1.445 -0.6677  0.2608 -0.0526
29003SOL     OW91370   4.136   7.659   8.796 -0.2549  0.5255 -0.0596
29003SOL    HW191371   4.129   7.715   8.719 -1.7920  0.6030  0.0991
29003SOL    HW291372   4.058   7.679   8.848 -0.4514 -1.1826  0.3920
29004SOL     OW91373   4.828   4.824   5.263 -0.0255  0.1816  0.5372
29004SOL    HW191374   4.768   4.846   5.191 -0.9711  0.7383  1.4649
29004SOL    HW291375   4.820   4.898   5.324  1.3256  0.0733  0.8733
29005SOL     OW91376   4.413   8.025   1.590 -0.4511  0.2739 -0.4406
29005SOL    HW191377   4.366   8.022   1.506 -2.8417  0.6778  0.7828
29005SOL    HW291378   4.505   8.011   1.567 -1.1224 -0.4450 -3.0255
29006SOL     OW91379   7.908   3.600   5.928  0.0861  0.7230 -0.1283
29006SOL    HW191380   7.995   3.562   5.934 -1.1915 -2.7038 -0.9846
29006SOL    HW291381   7.895   3.616   5.834 -0.0197  1.8155  0.0579
29007SOL     OW91382   7.546   9.195   9.132  0.4187  0.0176  0.1521
29007SOL    HW191383   7.615   9.243   9.086  1.5540 -0.6534  1.0915
29007SOL    HW291384   7.497   9.151   9.062  2.1009 -0.9899 -0.4857
29008SOL     OW91385   4.034   8.291   9.385  0.5738 -0.2330  0.2128
29008SOL    HW191386   4.101   8.318   9.447 -1.6243  2.6387  1.6399
29008SOL    HW291387   4.064   8.324   9.300  1.5779 -0.1902  0.5813
29009SOL     OW91388   7.386   2.817   9.599 -0.2074 -0.2106  0.4835
29009SOL    HW191389   7.432   2.900   9.614 -1.0418  0.5503 -0.9198
29009SOL    HW291390   7.445   2.767   9.543 -0.1666 -0.0973  0.4233
29010SOL     OW91391   1.887   4.101   6.912 -0.0405 -0.1252  0.3789
29010SOL    HW191392   1.904   4.137   6.999 -0.7310  0.5169  0.2654
29010SOL    HW291393   1.974   4.088   6.873  0.2684  1.9966  0.2109
29011SOL     OW91394   5.992   1.217   2.052  0.2645 -0.1316 -0.0473
29011SOL    HW191395   6.031   1.282   1.994 -1.3882  1.1246  0.1942
29011SOL    HW291396   5.922   1.178   2.000  0.8876 -1.3657 -0.0010
29012SOL     OW91397   5.813   3.981   1.937 -0.0529  0.3997  0.2315
29012SOL    HW191398   5.798   4.053   1.877 -3.6027  2.1629  2.8571
29012SOL    HW291399   5.831   4.023   2.021  1.4066 -1.8870  1.1764
29013SOL     OW91400   4.939   2.826   8.200 -0.0365 -0.1511  0.5187
29013SOL    HW191401   4.895   2.755   8.154  1.0664 -0.1838 -0.5340
29013SOL    HW291402   4.956   2.892   8.133  1.5425 -0.1677  0.8605
29014SOL     OW91403   3.529   8.655  10.168  0.0198 -0.5739  0.2451
29014SOL    HW191404   3.503   8.670  10.077 -0.5350  0.6811  0.5884
29014SOL    HW291405   3.478   8.719  10.218  1.1982 -0.4463  1.3124
29015SOL     OW91406   9.380   7.637   4.087 -0.4638 -0.2088 -0.4567
29015SOL    HW191407   9.309   7.608   4.144 -0.1316  1.2747  0.7734
29015SOL    HW291408   9.337   7.694   4.022 -0.3716  1.2496  0.7002
29016SOL     OW91409   8.232   3.932  10.487 -0.0357  0.3461 -0.4966
29016SOL    HW191410   8.250   4.026  10.488 -0.8385  0.5020 -0.7233
29016SOL    HW291411   8.162   3.920  10.551  0.9990 -0.3022  0.5748
29017SOL     OW91412   1.062   3.896   3.116  0.8758  0.4651  0.3548
29017SOL    HW191413   1.082   3.984   3.147  0.8316  1.1145 -1.3425
29017SOL    HW291414   0.980   3.905   3.068  1.7973 -0.0853 -1.4350
29018SOL     OW91415  10.203   3.228   1.076  0.5884  0.1243 -0.7905
29018SOL    HW191416  10.139   3.217   1.005  1.7906 -0.8773 -1.7737
29018SOL    HW291417  10.198   3.145   1.124  2.7865 -0.9819 -2.3235
29019SOL     OW91418   5.985   2.840   2.920  0.3246 -0.0010  0.2493
29019SOL    HW191419   5.927   2.835   2.996 -0.3563 -0.5725 -0.2926
29019SOL    HW291420   5.927   2.858   2.847  0.9555  0.3665 -0.1727
29020SOL     OW91421   8.140   0.529   8.378 -0.4640 -0.2413 -0.3137
29020SOL    HW191422   8.093   0.591   8.433  0.6172  1.0936 -0.8434
29020SOL    HW291423   8.076   0.502   8.312 -0.7236  0.9395 -0.5621
29021SOL     OW91424   4.558   7.091   0.346 -0.2590 -0.1317  0.4323
29021SOL    HW191425   4.578   7.177   0.384 -1.6743 -0.0795  1.1472
29021SOL    HW291426   4.494   7.053   0.407 -1.6584 -0.5776 -1.2245
29022SOL     OW91427   6.180   5.422   9.815  0.2446  0.6606 -0.0619
29022SOL    HW191428   6.259   5.413   9.869 -0.4682  0.0065  0.9179
29022SOL    HW291429   6.174   5.340   9.766 -0.6521  0.0178  1.0605
29023SOL     OW91430   9.534  10.201   9.268 -0.1188  0.1187  0.2337
29023SOL    HW191431   9.454  10.197   9.320  0.0468 -0.8426  0.4443
29023SOL    HW291432   9.572  10.286   9.289 -0.9824  0.4930  0.2852
29024SOL     OW91433   2.813   6.658   6.480 -0.0789 -0.0301 -0.4342
29024SOL    HW191434   2.785   6.674   6.570  0.2664  0.3917 -0.4008
29024SOL    HW291435   2.744   6.697   6.427  0.9485  2.0091 -0.3581
29025SOL     OW91436   6.418   9.652   7.753  0.0650 -0.4325 -0.0255
29025SOL    HW191437   6.492   9.712   7.745 -0.9109  0.8427  0.1404
29025SOL    HW291438   6.358   9.679   7.683 -0.2409 -1.4430 -0.1603
29026SOL     OW91439   8.135   9.608  11.014  0.3060  0.1516  0.4721
29026SOL    HW191440   8.219   9.650  11.030  1.1281 -0.9703 -0.7149
29026SOL    HW291441   8.109   9.637  10.927 -0.6235  0.6074  0.8869
29027SOL     OW91442  10.059   1.806   3.399 -0.1652 -0.4079  0.3067
29027SOL    HW191443   9.983   1.751   3.416 -0.4652 -0.8299 -2.0658
29027SOL    HW291444  10.133   1.746   3.405 -0.4005 -0.8976 -1.2065
29028SOL     OW91445   9.781   5.333   1.146  0.5824  0.2889  0.1430
29028SOL    HW191446   9.873   5.337   1.122  1.5941  1.1156  3.6673
29028SOL    HW291447   9.769   5.403   1.209 -2.5236  0.2311 -0.2011
29029SOL     OW91448   5.043   5.586   8.945 -0.0158 -0.5120 -0.3657
29029SOL    HW191449   4.973   5.637   8.986 -0.1375  0.4711 -1.7381
29029SOL    HW291450   5.075   5.530   9.015 -1.5460 -0.3222  0.5454
29030SOL     OW91451   1.181   4.180  11.113 -0.1872  0.1033 -0.0516
29030SOL    HW191452   1.250   4.114  11.106 -0.1471 -0.0291  1.4405
29030SOL    HW291453   1.121   4.146  11.180  0.6300  2.2593  1.9021
29031SOL     OW91454   0.112   1.172   6.581 -0.3422  0.3865 -0.3733
29031SOL    HW191455   0.191   1.190   6.632 -0.6183  2.0795 -0.4968
29031SOL    HW291456   0.042   1.164   6.646 -0.2294 -0.2093 -0.3222
29032SOL     OW91457   2.600   3.021   5.575 -0.2025 -0.3485 -0.0544
29032SOL    HW191458   2.657   3.000   5.648 -0.3209 -0.0246  0.1342
29032SOL    HW291459   2.660   3.050   5.506 -0.0654 -0.9639 -0.2029
29033SOL     OW91460   3.053   6.630   1.146  0.4383  0.2637  0.0923
29033SOL    HW191461   3.137   6.675   1.138 -0.0009  0.9391 -0.8690
29033SOL    HW291462   3.059   6.583   1.229  2.2061 -0.6321 -0.5091
29034SOL     OW91463   3.307   8.809  10.310  0.3525  0.4108  0.0567
29034SOL    HW191464   3.258   8.889  10.327 -1.2717 -0.0900 -1.8611
29034SOL    HW291465   3.241   8.746  10.281  1.5896 -1.6468  1.4917
29035SOL     OW91466   2.722   5.372   3.762  0.1457 -0.3277  0.4525
29035SOL    HW191467   2.726   5.367   3.666  0.5175 -0.3161  0.4657
29035SOL    HW291468   2.673   5.294   3.788 -0.6232  0.0651  0.2085
29036SOL     OW91469   8.257  10.412   5.857  0.0620  0.5480 -0.1539
29036SOL    HW191470   8.269  10.482   5.792 -2.2668  1.4069  0.2233
29036SOL    HW291471   8.313  10.437   5.930  0.5931  1.0630 -0.7271
29037SOL     OW91472  10.732   7.998   1.748 -0.5295 -0.0777  0.0991
29037SOL    HW191473  10.795   7.972   1.816  2.0285  0.3261 -1.9637
29037SOL    HW291474  10.685   8.072   1.786  1.4069  0.6835  1.1755
29038SOL     OW91475   6.304   7.564  10.717  0.0879 -0.4231 -0.1155
29038SOL    HW191476   6.370   7.502  10.687 -0.2550 -2.5062  3.0110
29038SOL    HW291477   6.285   7.538  10.806 -0.2318  4.1388  1.4397
29039SOL     OW91478   3.169   6.943   0.305 -0.1875 -0.1885 -0.6758
29039SOL    HW191479   3.248   6.922   0.354 -1.2920  0.7150  1.6057
29039SOL    HW291480   3.136   6.858   0.276  1.6494 -0.5790 -1.8537
29040SOL     OW91481   5.480   7.867   8.778  0.0815 -0.0106  0.1651
29040SOL    HW191482   5.527   7.949   8.796 -0.9170  0.2031  1.9937
29040SOL    HW291483   5.526   7.801   8.830 -0.3772 -0.2104  0.3210
29041SOL     OW91484   9.602   5.191   3.996 -0.1220 -0.4835 -0.0793
29041SOL    HW191485   9.692   5.224   3.986  0.4856 -1.5931  1.2529
29041SOL    HW291486   9.613   5.096   4.004 -1.3889 -0.5963  0.4964
29042SOL     OW91487   5.398   0.266   6.798  0.9281 -0.1619 -0.4865
29042SOL    HW191488   5.336   0.219   6.855  1.2267 -0.8503 -0.7222
29042SOL    HW291489   5.482   0.221   6.812  0.7077 -1.3401 -2.5936
29043SOL     OW91490   1.225   4.233  10.563 -0.0130  0.7519 -0.0518
29043SOL    HW191491   1.281   4.267  10.493  1.0121 -0.0752  0.3556
29043SOL    HW291492   1.239   4.293  10.636  1.3370 -0.1638  0.4682
29044SOL     OW91493   8.769   6.680   9.567  0.1442  0.2461 -0.3614
29044SOL    HW191494   8.782   6.752   9.505 -0.6756  0.0764 -0.7530
29044SOL    HW291495   8.807   6.711   9.649  2.1737  0.0815 -1.1878
29045SOL     OW91496  10.275   0.696   7.783 -0.2136  0.0113  0.3095
29045SOL    HW191497  10.231   0.779   7.800 -1.1117  0.0082 -1.6795
29045SOL    HW291498  10.231   0.633   7.840 -1.5015  0.3758 -0.2488
29046SOL     OW91499   8.542   5.518   4.501  0.4297 -0.5456  0.3829
29046SOL    HW191500   8.577   5.441   4.456 -1.5526 -1.1526 -0.2298
29046SOL    HW291501   8.477   5.483   4.562 -0.4716  0.6088  0.1261
29047SOL     OW91502   0.587   2.288   1.976  0.4996  0.1401  0.3780
29047SOL    HW191503   0.504   2.335   1.981  0.6479  0.2965  1.7065
29047SOL    HW291504   0.652   2.352   2.004  0.9769 -0.2205  0.1094
29048SOL     OW91505  10.877   6.777   8.858 -0.1070 -0.4921 -0.4132
29048SOL    HW191506  10.945   6.842   8.875  1.2073 -1.4061 -1.8760
29048SOL    HW291507  10.861   6.782   8.764 -1.0826 -1.2321 -0.3091
29049SOL     OW91508   1.628   9.283   1.681 -0.4823  0.1925  0.7154
29049SOL    HW191509   1.693   9.305   1.615 -0.2013 -2.0842  0.1768
29049SOL    HW291510   1.674   9.295   1.765  0.4269 -0.7245  0.3617
29050SOL     OW91511   4.355   9.728   4.200 -0.2825 -0.5584  0.0372
29050SOL    HW191512   4.427   9.780   4.166 -0.8187  1.8412  2.2617
29050SOL    HW291513   4.387   9.694   4.284 -1.3613 -0.3128  0.5679
29051SOL     OW91514   9.558   7.549   0.993  0.3013  0.3751  0.2400
29051SOL    HW191515   9.594   7.521   0.908  0.7071 -0.4239  0.6684
29051SOL    HW291516   9.610   7.502   1.058 -0.7001  0.1665  0.9103
29052SOL     OW91517   6.469   4.506   2.876  0.2224  0.1025 -0.6658
29052SOL    HW191518   6.540   4.514   2.940  0.6314  0.6254 -1.1800
29052SOL    HW291519   6.462   4.412   2.859 -0.3324 -0.1141  0.6336
29053SOL     OW91520   3.330   0.547   3.461 -0.2021 -0.6027  0.2209
29053SOL    HW191521   3.274   0.496   3.520  1.8624 -1.0716  1.9007
29053SOL    HW291522   3.380   0.481   3.412  1.0998 -0.2552  1.0223
29054SOL     OW91523   3.278   0.180   8.270  0.3985 -0.3894  0.4388
29054SOL    HW191524   3.242   0.268   8.259 -0.3220 -0.5435  1.4608
29054SOL    HW291525   3.360   0.182   8.221  0.3590  0.8281  0.3859
29055SOL     OW91526   2.266   6.092   8.103  0.2846  0.1517  0.1400
29055SOL    HW191527   2.322   6.156   8.060  0.3744 -0.3229 -0.4675
29055SOL    HW291528   2.216   6.142   8.168  0.7205  0.7370  0.0230
29056SOL     OW91529   5.903   2.829   6.624  0.5149 -0.6471 -0.0791
29056SOL    HW191530   5.965   2.758   6.639  0.2496 -1.0764 -0.9343
29056SOL    HW291531   5.935   2.872   6.545  0.6170  0.1311  0.3791
29057SOL     OW91532   3.420   2.636   8.708  0.1156 -0.5040 -0.2068
29057SOL    HW191533   3.404   2.557   8.655 -2.0982 -0.6738  0.6221
29057SOL    HW291534   3.374   2.706   8.662 -1.2528 -0.5152  1.0807
29058SOL     OW91535   6.482   8.722   5.999  0.2456 -0.1755  0.2466
29058SOL    HW191536   6.533   8.729   5.919  0.6359 -0.2908  0.4812
29058SOL    HW291537   6.524   8.651   6.048  0.2733  0.1783  0.7428
29059SOL     OW91538   4.070  10.439   5.597 -0.8596 -0.2690  0.2137
29059SOL    HW191539   4.108  10.486   5.523 -1.4400  0.5207  0.3999
29059SOL    HW291540   4.140  10.436   5.662 -0.1886 -1.4031 -0.5416
29060SOL     OW91541   3.318   5.726   7.521 -0.2278 -0.1349 -0.1910
29060SOL    HW191542   3.320   5.749   7.614 -1.0865 -1.4016  0.1707
29060SOL    HW291543   3.407   5.700   7.500 -0.3220 -1.1602  0.6450
29061SOL     OW91544   3.711   2.870   2.562 -0.3223 -0.0989 -0.1097
29061SOL    HW191545   3.786   2.834   2.608  0.1639  0.7821 -0.1982
29061SOL    HW291546   3.653   2.902   2.632 -1.6205 -2.5912  0.0801
29062SOL     OW91547   3.060   2.922   6.152 -0.0397 -0.0912  0.2237
29062SOL    HW191548   3.098   2.865   6.220 -1.0410 -0.7530  0.2470
29062SOL    HW291549   3.105   2.896   6.072  1.0263  0.5733  0.5871
29063SOL     OW91550   5.992   3.297   3.097  0.2392 -0.3929 -0.3508
29063SOL    HW191551   5.982   3.265   3.008 -2.3291  2.9408 -1.4758
29063SOL    HW291552   5.925   3.251   3.148  0.5000 -0.9921 -0.5457
29064SOL     OW91553   7.593  10.655   4.851 -0.0852 -0.1073  0.3540
29064SOL    HW191554   7.665  10.599   4.879  0.1791  1.2288  2.6629
29064SOL    HW291555   7.547  10.677   4.932 -1.5508  1.1451 -0.7523
29065SOL     OW91556   6.551   4.125   7.142 -0.3392  0.3691  0.3267
29065SOL    HW191557   6.577   4.201   7.195  2.2966 -0.6022  0.5537
29065SOL    HW291558   6.510   4.065   7.204 -1.4390  1.1233  0.3520
29066SOL     OW91559   4.669   7.527  10.073  0.1410  0.0451  0.1057
29066SOL    HW191560   4.606   7.494  10.136 -1.2948 -1.1334 -1.8260
29066SOL    HW291561   4.625   7.602  10.032 -0.4691 -1.3157 -1.8694
29067SOL     OW91562  10.475   0.362   4.799  0.1248  0.4782  0.3837
29067SOL    HW191563  10.404   0.298   4.799  0.3392  0.2213 -0.5654
29067SOL    HW291564  10.432   0.446   4.783  0.1263  0.1701 -1.4639
29068SOL     OW91565   0.106   1.244   4.095 -0.0238 -0.3020  0.5441
29068SOL    HW191566   0.105   1.328   4.142  0.3404  0.5612 -0.9133
29068SOL    HW291567   0.183   1.199   4.129  0.5891  0.5668  0.3519
29069SOL     OW91568   7.340   7.802   5.637 -0.0136  0.1853 -0.2207
29069SOL    HW191569   7.319   7.877   5.581 -1.1715 -0.6324 -0.9320
29069SOL    HW291570   7.417   7.829   5.686 -0.7164  2.0488 -0.0627
29070SOL     OW91571  10.580   7.648   0.183 -0.0440  0.5941  0.1011
29070SOL    HW191572  10.513   7.633   0.117 -1.9859 -0.7432  2.2453
29070SOL    HW291573  10.645   7.579   0.168 -0.5031  0.2574 -0.3382
29071SOL     OW91574   0.419   2.241  10.533 -0.1247 -0.7175 -0.1092
29071SOL    HW191575   0.411   2.196  10.617 -1.4585 -0.5496 -0.1242
29071SOL    HW291576   0.397   2.174  10.468 -0.5914 -0.4658 -0.2190
29072SOL     OW91577   2.567  10.793   6.200 -0.2293 -0.1854  0.1670
29072SOL    HW191578   2.476  10.777   6.175  0.1574 -0.5424 -1.0488
29072SOL    HW291579   2.601  10.850   6.131  0.7823 -0.9423  0.0303
29073SOL     OW91580  10.259   1.468  10.892 -0.2289 -0.1103  0.2174
29073SOL    HW191581  10.282   1.539  10.832  1.4494 -0.8654 -0.0921
29073SOL    HW291582  10.197   1.507  10.953 -1.1269  0.9778 -1.3403
29074SOL     OW91583   1.872   3.862   7.136  0.0565  0.1853  0.2925
29074SOL    HW191584   1.952   3.846   7.086 -0.5215  1.3022 -1.0655
29074SOL    HW291585   1.873   3.956   7.155 -1.4758  0.4676 -0.8093
29075SOL     OW91586   5.935   9.672   3.549  0.2000  0.1291 -0.4172
29075SOL    HW191587   6.017   9.680   3.598  1.2413 -0.0072 -2.0573
29075SOL    HW291588   5.909   9.762   3.531 -1.7984  0.3721  2.7557
29076SOL     OW91589   3.999   4.457   0.189 -0.4473 -0.0944 -0.3280
29076SOL    HW191590   3.968   4.455   0.279  0.1654 -0.7891 -0.1242
29076SOL    HW291591   4.058   4.532   0.185 -0.2746 -0.2163 -0.0785
29077SOL     OW91592   7.309   5.651   8.493  0.0325 -0.1271 -0.3847
29077SOL    HW191593   7.363   5.714   8.540 -2.0396  1.5100 -0.0025
29077SOL    HW291594   7.227   5.649   8.543 -0.7955 -1.3684 -1.7136
29078SOL     OW91595   6.271   9.468   3.730 -0.3642  0.2199 -0.1998
29078SOL    HW191596   6.272   9.499   3.821 -1.6017  0.3031 -0.1991
29078SOL    HW291597   6.237   9.542   3.680 -4.7538 -1.3808 -0.0154
29079SOL     OW91598   4.831   1.868   2.267  0.4235  0.4137  0.1273
29079SOL    HW191599   4.780   1.943   2.298 -1.7755 -0.8308 -0.2827
29079SOL    HW291600   4.894   1.852   2.336  0.6286  2.3197  0.4501
29080SOL     OW91601   3.050   5.911   8.511 -0.0748  0.3468 -0.3378
29080SOL    HW191602   3.064   5.819   8.488  0.8646  0.7126 -1.2923
29080SOL    HW291603   2.962   5.930   8.478 -0.2754 -0.2099 -0.1331
29081SOL     OW91604  10.393   2.406   5.226 -0.3418 -0.2007  0.0685
29081SOL    HW191605  10.374   2.313   5.238 -0.6643  0.0091  1.3762
29081SOL    HW291606  10.345   2.430   5.146  1.8954 -1.7089 -1.8744
29082SOL     OW91607   4.365   4.173   2.214 -0.3906  0.1949  0.7062
29082SOL    HW191608   4.428   4.242   2.192  0.0686  0.0165  1.4542
29082SOL    HW291609   4.302   4.215   2.272 -1.3628  0.5493 -0.5570
29083SOL     OW91610   9.331  10.190   7.349 -0.2181 -0.4164 -0.5022
29083SOL    HW191611   9.348  10.280   7.375  1.6178 -0.4926 -1.2916
29083SOL    HW291612   9.268  10.197   7.278 -0.6168  0.1907 -0.0976
29084SOL     OW91613   8.190   5.738   5.111 -0.0064  0.3521  0.0378
29084SOL    HW191614   8.207   5.767   5.021 -1.4537 -2.6509 -1.3857
29084SOL    HW291615   8.276   5.713   5.145  0.2808 -1.6218 -1.8654
29085SOL     OW91616   1.416   0.613   8.072 -0.0735 -0.4796  0.2790
29085SOL    HW191617   1.389   0.640   7.985  0.3705  0.3158  0.3786
29085SOL    HW291618   1.377   0.527   8.084 -1.7379  0.2066  0.0430
29086SOL     OW91619   9.441   3.313   2.313 -0.2909  0.0656 -0.0018
29086SOL    HW191620   9.377   3.335   2.245  0.4324 -0.1218 -0.7631
29086SOL    HW291621   9.501   3.251   2.271  0.8019  0.7593  0.4684
29087SOL     OW91622   7.089   0.309   5.531 -0.1486 -0.4184  0.0769
29087SOL    HW191623   7.111   0.280   5.619 -1.0940 -2.1069 -0.2056
29087SOL    HW291624   7.171   0.299   5.481  0.1483 -0.3386  0.5449
29088SOL     OW91625   7.057   5.516   7.676  0.0564 -0.7360  0.3603
29088SOL    HW191626   7.016   5.488   7.758 -1.1099 -1.0929 -0.3148
29088SOL    HW291627   7.010   5.596   7.652  0.3617 -0.6576  0.0206
29089SOL     OW91628   7.302   1.064   8.947  0.2871 -0.7317  0.2231
29089SOL    HW191629   7.382   1.105   8.916  1.5907 -1.1411  2.7815
29089SOL    HW291630   7.301   0.978   8.906  1.1974 -0.7403  0.1980
29090SOL     OW91631   5.732   6.809   1.435  0.4084  0.5606 -0.7697
29090SOL    HW191632   5.645   6.838   1.463  0.9494  2.6391 -1.0939
29090SOL    HW291633   5.754   6.868   1.363  2.1608  0.1744 -0.5790
29091SOL     OW91634   0.914   0.128   1.648  0.1033  0.1537  0.2820
29091SOL    HW191635   0.978   0.198   1.649 -1.0784  1.2816  0.1599
29091SOL    HW291636   0.882   0.126   1.558  1.0849 -1.4829 -0.0658
29092SOL     OW91637   1.296   6.792   5.803  0.2506 -0.0592  0.1117
29092SOL    HW191638   1.366   6.809   5.866  0.2775 -1.2894  0.4360
29092SOL    HW291639   1.275   6.699   5.814 -1.3164  0.2325 -0.0969
29093SOL     OW91640   8.976   1.432   5.618  0.1291 -0.2457  0.3866
29093SOL    HW191641   8.918   1.501   5.588  0.7990 -0.2724 -1.0699
29093SOL    HW291642   8.997   1.382   5.538  1.1186 -0.9960  1.0908
29094SOL     OW91643   8.109   7.555   2.900 -0.0689  0.0864 -0.1485
29094SOL    HW191644   8.183   7.495   2.893  1.0547  1.5756 -1.7879
29094SOL    HW291645   8.102   7.573   2.994  2.2326  0.5919 -0.0290
29095SOL     OW91646   5.384   2.389   4.254 -0.5795  0.1202  0.1733
29095SOL    HW191647   5.428   2.304   4.254  0.5603  0.7008  0.2378
29095SOL    HW291648   5.453   2.453   4.239 -1.2101  1.1490  1.4239
29096SOL     OW91649   0.942   8.936  10.003  0.7485  0.1455  0.2595
29096SOL    HW191650   0.981   9.009  10.051  0.7177 -1.1827  2.4192
29096SOL    HW291651   0.914   8.974   9.920  0.0335  2.7645  1.6029
29097SOL     OW91652   4.081   9.081   1.527 -0.1738 -0.1070 -0.4787
29097SOL    HW191653   4.160   9.051   1.571 -0.7383 -0.3982  0.3524
29097SOL    HW291654   4.056   9.009   1.469 -1.1629 -1.0295  1.0347
29098SOL     OW91655   7.975   5.033   5.753  0.5209  0.9061 -0.6894
29098SOL    HW191656   8.041   4.996   5.694 -0.7194  0.4378 -1.8514
29098SOL    HW291657   7.937   4.956   5.795 -0.2247  1.0470 -1.0883
29099SOL     OW91658   7.803   3.217   1.906 -0.1040  0.3124  0.5936
29099SOL    HW191659   7.721   3.224   1.954 -0.6824 -0.2201 -0.2983
29099SOL    HW291660   7.823   3.307   1.880 -1.0690  0.2887 -0.2600
29100SOL     OW91661   0.878   4.490   1.790  0.2509  0.3284  0.1137
29100SOL    HW191662   0.949   4.461   1.733  1.0715  1.7750  0.3509
29100SOL    HW291663   0.823   4.545   1.733  0.4161  0.7972  0.3975
29101SOL     OW91664   4.308   7.624  11.075  0.2506  0.4118 -0.2479
29101SOL    HW191665   4.234   7.619  11.135  1.3155 -0.3455  1.0549
29101SOL    HW291666   4.275   7.586  10.993 -0.7354 -0.1315  0.3808
29102SOL     OW91667   3.877   3.182   9.967  0.4396  0.4061 -0.1381
29102SOL    HW191668   3.868   3.205   9.875 -0.7025  0.7646  0.0397
29102SOL    HW291669   3.874   3.086   9.969 -0.3353  0.4191 -0.4120
29103SOL     OW91670   8.231   0.260   8.435  0.1136  0.5112 -0.0925
29103SOL    HW191671   8.196   0.347   8.416  1.7579  1.1305 -0.4773
29103SOL    HW291672   8.278   0.270   8.518  1.5262  0.3904 -0.8444
29104SOL     OW91673   9.908   7.463   8.342  0.4049  0.1754 -0.0730
29104SOL    HW191674   9.982   7.403   8.348  0.0444 -0.3242 -0.4649
29104SOL    HW291675   9.833   7.412   8.375  0.2775  0.7531  0.5507
29105SOL     OW91676   8.852   8.139   1.128 -0.1585  0.3711 -0.0852
29105SOL    HW191677   8.931   8.120   1.178 -0.3310 -1.0057 -0.2782
29105SOL    HW291678   8.784   8.152   1.194 -0.2017 -0.5766  0.0757
29106SOL     OW91679   3.126   9.795   1.189  0.1176 -0.1451  0.2744
29106SOL    HW191680   3.201   9.741   1.163 -0.7064 -1.2198  0.0835
29106SOL    HW291681   3.083   9.744   1.258 -1.2311 -0.2150 -0.5878
29107SOL     OW91682   9.826   9.103   1.663  0.1991  0.0752  0.1917
29107SOL    HW191683   9.878   9.043   1.717  0.6278  0.1953 -0.0866
29107SOL    HW291684   9.878   9.116   1.584 -1.2873 -1.6354 -1.1541
29108SOL     OW91685   2.815   8.046   1.079 -0.0625  0.1127 -0.2543
29108SOL    HW191686   2.770   8.010   1.155  0.7104  0.2134  0.2689
29108SOL    HW291687   2.882   7.980   1.058 -1.0968 -0.5320 -1.6626
29109SOL     OW91688   7.110  10.122   5.060 -0.1216  0.2102  0.2363
29109SOL    HW191689   7.020  10.153   5.076 -0.2396  0.1023 -0.1843
29109SOL    HW291690   7.112  10.107   4.965  0.6469  1.1723  0.0830
29110SOL     OW91691   8.207  11.084   4.906 -0.6430 -0.5309 -0.9163
29110SOL    HW191692   8.182  11.101   4.815 -1.0080 -1.3942 -0.9873
29110SOL    HW291693   8.138  11.026   4.939  0.2321 -1.3572 -0.5160
29111SOL     OW91694   6.009   9.727   1.263 -0.2998 -0.1782  0.0525
29111SOL    HW191695   6.013   9.702   1.355 -3.6715  1.3589  0.7517
29111SOL    HW291696   6.057   9.809   1.258 -0.8753  0.2119  0.6867
29112SOL     OW91697   7.963   4.303   5.125 -0.7581  0.2207 -0.6460
29112SOL    HW191698   7.897   4.296   5.195 -0.9743  0.9696 -0.7653
29112SOL    HW291699   7.957   4.394   5.096  0.6515  0.4280 -0.3462
29113SOL     OW91700   8.821   2.605   3.415 -0.4711  0.2739  0.5100
29113SOL    HW191701   8.802   2.692   3.449 -0.4734  0.6809 -0.4922
29113SOL    HW291702   8.836   2.619   3.321 -0.2114 -0.7650  0.3864
29114SOL     OW91703   2.511   9.256   2.685 -0.1114  0.5558 -0.5328
29114SOL    HW191704   2.473   9.305   2.612  0.4596 -0.2680 -1.3949
29114SOL    HW291705   2.439   9.245   2.747 -0.9719  0.0608 -1.5976
29115SOL     OW91706   7.331   1.190   7.930 -0.2896 -0.2466  0.4827
29115SOL    HW191707   7.277   1.120   7.968 -0.3071 -1.6136 -1.8764
29115SOL    HW291708   7.398   1.144   7.880  0.5970  1.4549  0.0324
29116SOL     OW91709   5.705   1.195   5.842  0.1671  0.0261  0.1093
29116SOL    HW191710   5.652   1.234   5.773  1.1842  0.2969 -0.5334
29116SOL    HW291711   5.790   1.177   5.801  0.9585  0.6393  1.3951
29117SOL     OW91712   7.462   2.831   3.681  0.4653  0.0232 -0.0327
29117SOL    HW191713   7.438   2.744   3.713  0.7750  0.0362  0.2341
29117SOL    HW291714   7.378   2.872   3.658  0.4489 -1.5989 -3.4867
29118SOL     OW91715   0.348   1.718   6.256  0.0157  0.4893  0.5628
29118SOL    HW191716   0.265   1.682   6.225 -0.3423  1.0620  0.8341
29118SOL    HW291717   0.328   1.755   6.342  0.4351  1.0389  0.4337
29119SOL     OW91718   4.093   5.339   0.464  0.2123 -0.0180  0.0165
29119SOL    HW191719   4.159   5.408   0.456 -0.1926  0.5943  1.6577
29119SOL    HW291720   4.068   5.339   0.556 -1.5136 -0.7753 -0.3992
29120SOL     OW91721   2.278   1.286   4.169 -0.7205  0.0184  0.1798
29120SOL    HW191722   2.291   1.205   4.219 -0.0886 -0.3714 -0.5857
29120SOL    HW291723   2.252   1.256   4.082  2.5528  0.4395 -1.0834
29121SOL     OW91724   3.262   6.030   2.304 -0.1165 -0.0376 -0.0565
29121SOL    HW191725   3.271   6.033   2.209 -1.3261  1.4249 -0.1436
29121SOL    HW291726   3.352   6.036   2.337  0.6291 -3.3290 -1.0766
29122SOL     OW91727   0.076   0.140   8.565 -0.0485 -0.1780 -0.2834
29122SOL    HW191728   0.031   0.055   8.557  1.1487 -0.8444 -0.1593
29122SOL    HW291729   0.043   0.176   8.648 -2.2639  0.5491 -1.3938
29123SOL     OW91730   0.347   3.249  11.085  0.5166  0.1425  0.4344
29123SOL    HW191731   0.438   3.227  11.064  0.2582 -0.8837  0.3422
29123SOL    HW291732   0.305   3.165  11.101 -0.9826  0.3776 -1.8405
29124SOL     OW91733   5.064   3.794   8.111 -0.0271  0.0946  0.1252
29124SOL    HW191734   5.033   3.840   8.188  1.3298  1.2454  0.0365
29124SOL    HW291735   5.154   3.770   8.132  0.3631  0.4168 -1.0553
29125SOL     OW91736   2.013   9.005  10.792  0.0143 -0.1374  0.3429
29125SOL    HW191737   2.105   8.979  10.795  0.8051  2.1254 -1.5401
29125SOL    HW291738   1.965   8.922  10.790  2.0788 -1.4005 -0.1821
29126SOL     OW91739   3.512   6.470   9.932 -0.1125  0.0264  0.3433
29126SOL    HW191740   3.586   6.486   9.873  2.5976 -0.9181  3.2078
29126SOL    HW291741   3.496   6.556   9.973 -1.4962  0.5065 -1.1026
29127SOL     OW91742   5.647   4.712   8.837 -0.0001 -0.3035 -0.1234
29127SOL    HW191743   5.580   4.705   8.905 -1.8020  3.5043 -1.2232
29127SOL    HW291744   5.697   4.791   8.860  1.5080 -0.8027 -1.4842
29128SOL     OW91745   7.518   8.513   5.322  0.1886  0.4804 -0.1209
29128SOL    HW191746   7.424   8.503   5.334  0.0786  0.7647 -0.6938
29128SOL    HW291747   7.554   8.425   5.336 -0.3833 -0.0692 -1.8474
29129SOL     OW91748   1.007   4.325   2.461 -0.1130 -0.2485  0.2759
29129SOL    HW191749   1.089   4.321   2.411  0.0564 -0.3918  0.5626
29129SOL    HW291750   1.024   4.389   2.530 -0.2829 -0.1931  0.2672
29130SOL     OW91751   1.947   9.436   2.666 -0.1300 -0.2289  0.1734
29130SOL    HW191752   1.959   9.382   2.588 -1.0932 -0.5037  0.2052
29130SOL    HW291753   2.036   9.458   2.694  0.2527 -1.1480 -0.2897
29131SOL     OW91754   2.849   0.801   4.699  0.2876  0.0950 -0.0992
29131SOL    HW191755   2.889   0.867   4.642 -2.2790  2.2391  0.4107
29131SOL    HW291756   2.757   0.800   4.675  0.0582 -2.8096  0.4851
29132SOL     OW91757   9.618   4.521   7.494 -0.1980  0.5335 -0.4026
29132SOL    HW191758   9.693   4.470   7.525  0.6854  0.7026 -2.1374
29132SOL    HW291759   9.647   4.559   7.411 -2.3107  0.3768 -1.2740
29133SOL     OW91760   3.533   9.851  10.711  0.1109  0.4009 -0.1709
29133SOL    HW191761   3.550   9.880  10.622  0.0411  0.6513 -0.1029
29133SOL    HW291762   3.458   9.792  10.704 -0.1474  0.7382 -0.2217
29134SOL     OW91763   6.452   9.257   7.295 -0.3350  0.2186  0.1576
29134SOL    HW191764   6.490   9.292   7.214  0.3593 -2.3984 -0.7406
29134SOL    HW291765   6.457   9.329   7.357  0.8563  1.7290 -1.5846
29135SOL     OW91766   9.183   6.587   2.604  0.7053 -0.1084  0.2892
29135SOL    HW191767   9.101   6.604   2.558  1.1539  0.1800 -0.4275
29135SOL    HW291768   9.172   6.627   2.690 -0.7643 -2.0440  1.0617
29136SOL     OW91769   6.627   6.665   8.283 -0.0328  0.3366  0.6718
29136SOL    HW191770   6.535   6.646   8.299 -0.0884 -0.6278 -0.6090
29136SOL    HW291771   6.647   6.619   8.201  1.4819  0.8532  0.7195
29137SOL     OW91772   7.202   0.082   8.520  0.2702  0.3663 -0.1423
29137SOL    HW191773   7.206   0.175   8.497  3.2588  0.6390  0.9610
29137SOL    HW291774   7.223   0.036   8.439  2.4382  0.9197  0.0275
29138SOL     OW91775  11.014   5.370   3.695  0.3231 -0.3372 -0.3476
29138SOL    HW191776  10.989   5.294   3.642  0.7216  0.1778 -1.3103
29138SOL    HW291777  10.933   5.397   3.738 -0.1298 -0.4769 -1.0879
29139SOL     OW91778  10.468   7.389   5.040  0.1175  0.4577 -0.1258
29139SOL    HW191779  10.488   7.356   4.953 -1.5430 -0.8812 -0.0581
29139SOL    HW291780  10.415   7.468   5.024 -0.0059  0.3338 -0.3234
29140SOL     OW91781   3.525   4.091   3.317 -0.0695 -0.0384  0.2964
29140SOL    HW191782   3.526   4.019   3.254  2.1874  1.5681 -1.7031
29140SOL    HW291783   3.434   4.095   3.347 -0.7693 -2.2448 -1.2543
29141SOL     OW91784  10.714   3.813   8.108  0.5231  0.2994  0.4863
29141SOL    HW191785  10.801   3.846   8.129  1.4259 -0.5438 -1.6646
29141SOL    HW291786  10.728   3.720   8.088 -0.5794  0.4843 -1.4000
29142SOL     OW91787   2.006   7.360   4.840 -0.3128 -0.5344 -0.4586
29142SOL    HW191788   2.020   7.308   4.760 -0.0829  0.4040 -1.0437
29142SOL    HW291789   1.917   7.339   4.867 -1.0326  0.4125 -1.9381
29143SOL     OW91790   8.179   2.060   5.836 -0.1675  0.2139 -0.0558
29143SOL    HW191791   8.152   2.116   5.764 -2.8605 -1.6826 -0.6909
29143SOL    HW291792   8.254   2.010   5.802  0.4193  1.3635 -0.4775
29144SOL     OW91793   9.502   5.653  10.755 -0.4040  0.7676  0.0634
29144SOL    HW191794   9.489   5.651  10.661  0.2736 -2.3678 -0.0533
29144SOL    HW291795   9.415   5.635  10.792 -0.4480  0.8769  0.0140
29145SOL     OW91796   3.461   9.194   0.672 -0.2788  0.4758 -0.0580
29145SOL    HW191797   3.503   9.222   0.591  0.4853 -2.1102 -0.6569
29145SOL    HW291798   3.525   9.213   0.740  0.0265  0.5676 -0.3669
29146SOL     OW91799   2.206   6.476   2.592  0.0349  0.2461  0.4614
29146SOL    HW191800   2.112   6.480   2.577  0.1351  1.7948  0.0983
29146SOL    HW291801   2.241   6.557   2.553  1.4321 -0.0008  1.1176
29147SOL     OW91802   2.136  10.758  10.431  0.2146 -0.4361 -0.5248
29147SOL    HW191803   2.179  10.693  10.486  1.3275  2.1183  1.8599
29147SOL    HW291804   2.207  10.810  10.395 -0.6706  1.0808 -0.1783
29148SOL     OW91805   3.627   5.359  10.664  0.6576  0.1267  0.3597
29148SOL    HW191806   3.679   5.440  10.662  0.0736  0.5579 -2.4262
29148SOL    HW291807   3.689   5.292  10.693  1.6473  1.2730  1.0192
29149SOL     OW91808  10.006  10.593   9.670  0.0386 -0.0415  0.7752
29149SOL    HW191809   9.915  10.572   9.651 -0.2954  0.2643  1.9706
29149SOL    HW291810  10.034  10.647   9.595 -0.6234 -0.4800  0.1949
29150SOL     OW91811   4.491   3.359   8.327 -0.7023  0.4105  0.4977
29150SOL    HW191812   4.520   3.389   8.241  1.8326  2.1909  1.8437
29150SOL    HW291813   4.458   3.438   8.371 -1.5493 -0.3804  1.3341
29151SOL     OW91814   5.986   9.786   2.825 -0.8150  0.7975  0.2840
29151SOL    HW191815   5.995   9.719   2.757  1.2977  2.7986 -1.5990
29151SOL    HW291816   6.037   9.752   2.899  0.7587  0.5265 -0.8611
29152SOL     OW91817   7.197   0.781   7.001 -0.0649 -0.1873 -0.0694
29152SOL    HW191818   7.167   0.829   7.078 -0.4936 -0.0363 -0.3232
29152SOL    HW291819   7.185   0.689   7.025 -0.5127 -0.1346 -0.0700
29153SOL     OW91820   6.535   0.532   5.306  0.3086 -0.6453 -0.0505
29153SOL    HW191821   6.473   0.461   5.289  0.6986 -1.1508  0.5989
29153SOL    HW291822   6.618   0.499   5.273  0.4121 -0.3148 -0.1257
29154SOL     OW91823   9.995   4.685   1.357 -0.6872  0.1543  0.5849
29154SOL    HW191824  10.018   4.651   1.271 -0.1856  1.4384  0.1911
29154SOL    HW291825   9.992   4.607   1.413 -0.1255 -0.5979 -0.3868
29155SOL     OW91826   7.538   5.414   8.882  0.2695 -0.4507  0.6855
29155SOL    HW191827   7.508   5.398   8.972 -0.1676 -0.1633  0.5938
29155SOL    HW291828   7.474   5.475   8.846  1.7677  1.3640  0.9686
29156SOL     OW91829   6.331  10.932  10.530 -0.3936  0.0226  0.3432
29156SOL    HW191830   6.330  10.872  10.604  0.1827 -0.3301  0.0725
29156SOL    HW291831   6.416  10.916  10.487 -0.6756  0.2869 -0.3313
29157SOL     OW91832   3.722   9.101  10.165 -0.1103  0.4280 -0.5927
29157SOL    HW191833   3.630   9.078  10.176 -0.2360  0.7524 -0.9445
29157SOL    HW291834   3.764   9.020  10.137  0.3621 -0.6623  2.7742
29158SOL     OW91835   8.986   1.011   1.628  0.3456 -0.0877 -0.8289
29158SOL    HW191836   9.081   1.008   1.630  0.3578  0.3390 -0.6573
29158SOL    HW291837   8.961   1.049   1.712 -0.0854 -2.3166  0.1112
29159SOL     OW91838   7.238   6.723   5.753  0.0731  0.2874 -0.0511
29159SOL    HW191839   7.152   6.756   5.777  0.0372 -0.8818  1.5756
29159SOL    HW291840   7.286   6.801   5.724 -1.3235  1.0436 -0.4470
29160SOL     OW91841   3.944   0.228   6.074  0.3616 -0.6580  0.7380
29160SOL    HW191842   3.851   0.205   6.066 -0.1246  1.4341 -0.1844
29160SOL    HW291843   3.945   0.323   6.079  2.3859 -0.7119  2.5325
29161SOL     OW91844   8.212   4.609   3.647 -0.1400 -0.1865  0.0667
29161SOL    HW191845   8.131   4.559   3.635 -0.1573  0.3095 -2.2737
29161SOL    HW291846   8.278   4.562   3.597  0.9268 -0.2749  1.4901
29162SOL     OW91847   1.893   0.798   7.437 -0.0470  0.7833  0.1147
29162SOL    HW191848   1.923   0.850   7.512 -1.4330  2.1206 -0.2111
29162SOL    HW291849   1.797   0.801   7.443 -0.1712 -1.3543 -0.2105
29163SOL     OW91850   7.469   5.451   9.557  0.5237 -0.1221  0.6564
29163SOL    HW191851   7.514   5.431   9.475  1.7067  2.8313  0.4739
29163SOL    HW291852   7.380   5.472   9.532  0.4287 -0.8226  0.3705
29164SOL     OW91853   8.348   6.612   3.127  0.0666 -0.5180  0.1065
29164SOL    HW191854   8.434   6.620   3.087 -0.5805 -0.2002 -1.2575
29164SOL    HW291855   8.343   6.684   3.190  0.2975  0.2489 -0.7471
29165SOL     OW91856   9.714   8.143   4.113  1.0685 -0.4016  0.1141
29165SOL    HW191857   9.627   8.113   4.086  0.0050  1.4171  1.2725
29165SOL    HW291858   9.770   8.125   4.038 -0.4046 -1.2514 -0.8278
29166SOL     OW91859   1.805   8.117   2.206 -0.3928 -0.2173  0.1586
29166SOL    HW191860   1.737   8.151   2.148 -0.3024 -1.2465 -0.5946
29166SOL    HW291861   1.884   8.117   2.152 -0.7971 -3.5248 -0.6629
29167SOL     OW91862   8.070   7.873   8.329  0.0424 -0.7055  0.4817
29167SOL    HW191863   8.077   7.816   8.405 -0.4355  0.5811  1.5319
29167SOL    HW291864   7.984   7.914   8.337  0.3593  0.1465 -0.2275
29168SOL     OW91865   3.646   3.626   8.603  0.5661 -0.5788 -0.1988
29168SOL    HW191866   3.642   3.555   8.667 -1.1328 -0.4240 -0.0873
29168SOL    HW291867   3.555   3.645   8.583  0.8992  2.3027  0.5796
29169SOL     OW91868   9.118   7.176   3.967  0.3456 -0.1630  0.2863
29169SOL    HW191869   9.093   7.209   3.881 -1.9262  1.3907  1.4396
29169SOL    HW291870   9.149   7.087   3.951  1.0586  0.4526 -2.2323
29170SOL     OW91871   0.799  10.255   6.317 -0.4016  0.0970  0.1543
29170SOL    HW191872   0.718  10.203   6.314  0.2947 -0.9705 -1.0067
29170SOL    HW291873   0.775  10.337   6.273 -1.0905  0.1689  0.6341
29171SOL     OW91874   8.800   6.260   7.659  0.2890 -0.7654 -0.1338
29171SOL    HW191875   8.835   6.348   7.670  1.1335 -1.2637  1.6689
29171SOL    HW291876   8.705   6.271   7.658  0.1804 -0.0261  3.4835
29172SOL     OW91877   0.534   9.004   7.665 -0.2155  0.2731  0.7800
29172SOL    HW191878   0.548   9.092   7.630 -0.5336 -1.1166 -3.3758
29172SOL    HW291879   0.439   8.999   7.679 -0.2466  0.4589  0.6372
29173SOL     OW91880   4.699   6.268   0.891 -0.1410 -0.3734 -0.3701
29173SOL    HW191881   4.676   6.340   0.833  0.4865 -0.7350 -1.0894
29173SOL    HW291882   4.745   6.309   0.964 -0.7139  0.0591 -0.2442
29174SOL     OW91883   3.934   9.225   8.179  0.0043  0.5927  0.9973
29174SOL    HW191884   3.874   9.203   8.250  0.1301  0.2706  1.0076
29174SOL    HW291885   3.948   9.319   8.186  0.6044  0.4465  1.8524
29175SOL     OW91886   6.756   7.822  11.076  0.6886  0.3592  0.4566
29175SOL    HW191887   6.674   7.835  11.123  0.6293  0.6235  0.2813
29175SOL    HW291888   6.819   7.801  11.144  0.1830 -1.2611  0.4597
29176SOL     OW91889   1.247   4.302   4.268 -0.1601  0.0054 -0.4324
29176SOL    HW191890   1.224   4.245   4.195  0.0888 -0.9735  0.2426
29176SOL    HW291891   1.181   4.284   4.335  0.1430  0.2283 -0.0652
29177SOL     OW91892  10.423   5.622   1.940  0.0407  0.0749 -0.1614
29177SOL    HW191893  10.352   5.667   1.895 -0.6565  0.2030  1.0112
29177SOL    HW291894  10.422   5.533   1.904 -1.8600 -0.4431  1.0040
29178SOL     OW91895   2.271   8.063   0.814 -0.0291 -0.3405 -0.1752
29178SOL    HW191896   2.238   8.012   0.888  1.5163 -1.3964 -0.1784
29178SOL    HW291897   2.325   8.002   0.764  2.6784  1.4877  0.3193
29179SOL     OW91898   1.566   4.411  10.848 -0.4081  0.1766 -0.2390
29179SOL    HW191899   1.475   4.381  10.848  0.0354 -1.2984  1.3363
29179SOL    HW291900   1.599   4.388  10.761 -1.2632 -0.1161 -0.4989
29180SOL     OW91901   0.290   4.322   0.476  0.3664  0.1056 -0.3723
29180SOL    HW191902   0.330   4.247   0.521 -0.4141  0.9889  1.9506
29180SOL    HW291903   0.240   4.366   0.544 -1.2577  1.3366 -2.2631
29181SOL     OW91904  10.601   4.629   4.851 -0.1386 -0.2977 -0.3132
29181SOL    HW191905  10.622   4.657   4.940 -0.8282 -0.7078 -0.0122
29181SOL    HW291906  10.615   4.707   4.797 -1.4425  0.4799  0.4201
29182SOL     OW91907   9.646   1.465   6.497 -0.1835  0.2320  0.0449
29182SOL    HW191908   9.650   1.440   6.405 -0.7555  0.6982 -0.1143
29182SOL    HW291909   9.716   1.416   6.539 -0.4508 -0.6108 -0.4876
29183SOL     OW91910   6.429   1.197   8.949 -0.3811  0.2482  0.4903
29183SOL    HW191911   6.466   1.267   8.895 -2.0217  1.3597  0.7490
29183SOL    HW291912   6.350   1.170   8.903 -0.8016 -0.0808  1.3785
29184SOL     OW91913   9.024   3.440   1.564  0.2068  0.7054 -0.2371
29184SOL    HW191914   8.972   3.520   1.572  1.3502  1.4163  0.3237
29184SOL    HW291915   9.111   3.465   1.594  1.6205  0.2437 -3.5500
29185SOL     OW91916   9.186   3.554   4.907  0.1937  0.8081 -0.3395
29185SOL    HW191917   9.196   3.595   4.992  0.4508 -1.2099  0.6718
29185SOL    HW291918   9.099   3.515   4.908 -0.1810  1.5646 -1.3886
29186SOL     OW91919   8.961   3.719   5.939  0.5517 -0.3006 -0.3638
29186SOL    HW191920   9.050   3.695   5.967  0.1335  1.1640  2.6208
29186SOL    HW291921   8.912   3.637   5.946  1.0300 -0.5091  1.0946
29187SOL     OW91922  10.481   4.733   5.555 -0.4820 -0.0407  0.8361
29187SOL    HW191923  10.395   4.773   5.541 -0.3536  0.1881  0.6873
29187SOL    HW291924  10.543   4.805   5.541 -0.3043 -0.0103  1.7172
29188SOL     OW91925   4.597   0.481   1.257  0.4067 -0.0105 -0.1229
29188SOL    HW191926   4.515   0.473   1.305  0.7401  0.6972  0.5850
29188SOL    HW291927   4.624   0.391   1.241  0.1716 -0.2643  0.8302
29189SOL     OW91928  10.562   6.388   0.289 -0.2608 -0.0279 -0.1568
29189SOL    HW191929  10.549   6.395   0.195 -1.8386  1.3976  0.1197
29189SOL    HW291930  10.573   6.478   0.319  0.9523 -0.5091  0.9489
29190SOL     OW91931   2.822   0.809   9.553  0.2149 -0.3308 -0.2039
29190SOL    HW191932   2.831   0.825   9.459  2.2109 -0.0798 -0.0260
29190SOL    HW291933   2.731   0.829   9.573 -0.4926 -1.3052 -2.2387
29191SOL     OW91934   1.338  11.105   8.984  0.0947  0.3451 -0.0975
29191SOL    HW191935   1.382  11.130   8.903  0.0845 -2.1941 -0.9945
29191SOL    HW291936   1.399  11.045   9.026 -1.2234 -0.9023  0.1217
29192SOL     OW91937   1.025   8.877   5.484 -0.2789  0.0880  0.2405
29192SOL    HW191938   0.950   8.818   5.497  0.5873 -1.0944  0.0141
29192SOL    HW291939   1.005   8.954   5.538 -1.5757 -0.2771  0.3046
29193SOL     OW91940   8.675   2.650   2.394 -0.1042 -0.8536  0.4108
29193SOL    HW191941   8.727   2.720   2.434 -2.2562  0.7161  0.6542
29193SOL    HW291942   8.689   2.660   2.300  0.2169 -0.5919  0.4852
29194SOL     OW91943  11.017   8.376   6.898  0.4918  0.0939 -0.2619
29194SOL    HW191944  11.020   8.319   6.822  1.7188  1.1491 -1.0563
29194SOL    HW291945  11.068   8.329   6.965  2.3594  0.6463 -1.2299
29195SOL     OW91946   2.707   3.150   5.367 -0.2633  0.6759  0.3133
29195SOL    HW191947   2.796   3.143   5.401 -0.6868  0.8722  1.5068
29195SOL    HW291948   2.698   3.241   5.340  0.3872  0.2981 -1.2672
29196SOL     OW91949   8.658   7.665   7.246 -0.1805 -0.0787 -0.4333
29196SOL    HW191950   8.720   7.737   7.230 -0.3726  0.5461  1.3816
29196SOL    HW291951   8.655   7.617   7.164  2.4921  0.0459 -0.6828
29197SOL     OW91952   5.022   3.888   0.554  0.3514 -0.4507 -0.6875
29197SOL    HW191953   4.964   3.965   0.559  2.3555  1.1146 -0.2617
29197SOL    HW291954   5.059   3.891   0.466  1.1956 -0.3130 -0.3393
29198SOL     OW91955   5.376   3.640   8.146  0.1477  0.4247  0.1408
29198SOL    HW191956   5.411   3.729   8.145  0.3699  0.3386  0.0183
29198SOL    HW291957   5.441   3.589   8.195  0.5277  0.1322 -0.6485
29199SOL     OW91958   7.710   9.856   3.942  0.0724  0.7853  0.1813
29199SOL    HW191959   7.656   9.924   3.902 -3.0889  1.1381  4.4250
29199SOL    HW291960   7.657   9.776   3.933  0.6759  0.2819  0.9942
29200SOL     OW91961   9.768   7.432   3.225  0.0266 -0.2838  0.3437
29200SOL    HW191962   9.804   7.360   3.277 -0.6489 -0.9633 -0.1161
29200SOL    HW291963   9.683   7.400   3.194  0.0918  0.3824 -0.5755
29201SOL     OW91964   0.547   5.304   9.676  0.2948  0.8667 -0.3066
29201SOL    HW191965   0.487   5.348   9.615  0.2105  0.8894 -0.2079
29201SOL    HW291966   0.608   5.373   9.703  0.6550  0.7338 -0.7668
29202SOL     OW91967   0.727   4.036   0.916  0.0656 -1.0714 -0.1668
29202SOL    HW191968   0.810   4.069   0.882  0.3217 -1.5288  0.0172
29202SOL    HW291969   0.724   3.944   0.888 -0.2735 -1.1196  0.0209
29203SOL     OW91970   3.690   4.930   5.248 -0.2230  0.3058 -0.6000
29203SOL    HW191971   3.743   4.991   5.299  0.5383 -0.2807 -0.6779
29203SOL    HW291972   3.683   4.972   5.162 -2.1173  1.6524  0.1170
29204SOL     OW91973   0.996   6.666   9.092 -0.2679 -0.0833 -0.3378
29204SOL    HW191974   1.005   6.761   9.096 -1.2774 -0.0036  0.4438
29204SOL    HW291975   1.078   6.633   9.129  0.7254  0.4371 -1.9624
29205SOL     OW91976   1.187   9.689   4.370  0.9049 -0.3055  0.0934
29205SOL    HW191977   1.201   9.605   4.415  1.3371  0.4418  1.4135
29205SOL    HW291978   1.275   9.724   4.358  0.9146 -1.0523 -2.5722
29206SOL     OW91979   1.335   7.740   5.356 -0.1769 -0.0520 -0.2057
29206SOL    HW191980   1.325   7.645   5.351  1.3563 -0.1890 -1.2292
29206SOL    HW291981   1.421   7.754   5.396  0.6162  0.8421 -2.1164
29207SOL     OW91982   8.588  10.578   0.137  0.6268  0.1418 -0.1445
29207SOL    HW191983   8.580  10.630   0.058 -1.4930  0.5435  0.2739
29207SOL    HW291984   8.674  10.537   0.131  2.3679  3.5486 -0.5758
29208SOL     OW91985   2.104   3.480   3.702  0.2001 -0.0292  0.3174
29208SOL    HW191986   2.141   3.478   3.614 -1.5450  0.9826 -0.4918
29208SOL    HW291987   2.127   3.394   3.739  3.2843  0.5073 -0.0648
29209SOL     OW91988   5.018   4.912   6.481 -0.3565  0.0805  0.1354
29209SOL    HW191989   4.975   4.845   6.535  0.9101 -0.5610  0.4031
29209SOL    HW291990   5.090   4.865   6.439 -0.2826  0.9801 -0.7581
29210SOL     OW91991   0.664   7.054  10.571 -0.1811 -0.2965  0.3674
29210SOL    HW191992   0.603   7.037  10.499 -0.1731  1.7035 -0.1637
29210SOL    HW291993   0.615   7.109  10.632  0.7295  0.4108  0.4789
29211SOL     OW91994   8.736   1.819   2.571  0.6367  0.2670  0.3786
29211SOL    HW191995   8.728   1.913   2.590  3.0546  0.6496 -0.1597
29211SOL    HW291996   8.822   1.810   2.531 -0.4449 -1.8575 -1.7360
29212SOL     OW91997   5.456   5.884   8.740 -0.4968  0.1296  0.2478
29212SOL    HW191998   5.401   5.942   8.791  0.0005  0.4771  0.3961
29212SOL    HW291999   5.468   5.807   8.795  1.3885  1.1603  1.4204
29213SOL     OW92000  10.729   7.838   0.582 -0.1183 -0.3733  0.1153
29213SOL    HW192001  10.820   7.846   0.556 -0.6616  1.1837 -1.5054
29213SOL    HW292002  10.732   7.795   0.668  2.0781 -0.7626 -0.1070
29214SOL     OW92003   9.036  10.047   0.733  0.1018  0.2264  0.1888
29214SOL    HW192004   9.110  10.005   0.777  1.5969  0.4158 -2.0029
29214SOL    HW292005   9.058  10.044   0.640 -2.7555  0.1187 -0.5887
29215SOL     OW92006   3.740   7.759   7.079  0.5983  0.3000  0.7491
29215SOL    HW192007   3.672   7.709   7.124 -0.9956 -1.5733 -3.2264
29215SOL    HW292008   3.733   7.731   6.988  6.2673  0.5709 -0.1024
29216SOL     OW92009   7.284   2.671   2.028  0.0158  0.3747 -0.2318
29216SOL    HW192010   7.357   2.610   2.037 -0.6193 -0.4482 -0.5057
29216SOL    HW292011   7.221   2.625   1.973 -0.0782  1.6583 -1.2421
29217SOL     OW92012   7.561   0.410   1.019  0.4110  0.9153 -0.4974
29217SOL    HW192013   7.596   0.490   0.980  1.8820  0.6397  0.1794
29217SOL    HW292014   7.627   0.384   1.084 -0.0759 -0.7919 -0.6344
29218SOL     OW92015   6.934   1.273   4.824  0.3548  0.6091 -0.1154
29218SOL    HW192016   6.899   1.327   4.894 -1.0693 -2.0331  1.3367
29218SOL    HW292017   6.993   1.212   4.867  0.9863  0.1701 -1.5246
29219SOL     OW92018   7.453   1.981   5.975 -0.1713 -0.4155 -0.0344
29219SOL    HW192019   7.484   2.060   5.931  0.7484 -0.1216  1.0831
29219SOL    HW292020   7.387   1.945   5.915 -1.8264  2.0396  0.1314
29220SOL     OW92021  10.263   9.291   2.236  0.0662  0.2652  0.2300
29220SOL    HW192022  10.206   9.360   2.268 -0.7129 -1.2165  2.3074
29220SOL    HW292023  10.211   9.245   2.170 -0.2762  0.3413  0.4441
29221SOL     OW92024   9.380   4.658  10.245  0.6586 -0.3834  0.3486
29221SOL    HW192025   9.319   4.597  10.285  1.3271 -1.1306  0.2439
29221SOL    HW292026   9.402   4.620  10.160 -0.1590  0.8096 -0.4283
29222SOL     OW92027   4.343   0.677   4.317 -0.0988  0.4278  0.6069
29222SOL    HW192028   4.252   0.676   4.345  0.1228  1.0727  1.4275
29222SOL    HW292029   4.353   0.599   4.262 -0.6453 -0.7386  2.1000
29223SOL     OW92030  10.366   5.592   6.626  0.2532 -0.0506  0.0069
29223SOL    HW192031  10.417   5.619   6.702  1.0673  0.5427 -0.7359
29223SOL    HW292032  10.303   5.663   6.613 -0.8569 -0.8161  0.9680
29224SOL     OW92033   6.316   9.463   9.820 -0.2499  0.2193  0.2100
29224SOL    HW192034   6.386   9.459   9.885 -1.2257  0.2243  1.2980
29224SOL    HW292035   6.323   9.380   9.772  0.2740  0.0707  0.5384
29225SOL     OW92036  10.301   1.876   8.103  0.1869 -0.0216 -0.0820
29225SOL    HW192037  10.256   1.917   8.029 -0.3702 -1.8117 -0.7884
29225SOL    HW292038  10.394   1.881   8.080  0.0057 -0.7193 -1.0040
29226SOL     OW92039   1.277   0.451   3.639 -0.0025  0.3450  0.0493
29226SOL    HW192040   1.229   0.487   3.713  0.0317  0.8005 -0.1404
29226SOL    HW292041   1.307   0.365   3.668  0.4817  0.7391  0.7653
29227SOL     OW92042   0.093   5.242   1.782 -0.0342  0.2281 -0.8787
29227SOL    HW192043   0.137   5.324   1.759  0.7729  0.0928  0.0792
29227SOL    HW292044   0.007   5.269   1.816 -0.5246  0.5300 -2.3048
29228SOL     OW92045   9.691   7.685   3.427  0.0171 -0.0171  0.2532
29228SOL    HW192046   9.700   7.674   3.332 -2.3378 -1.6044  0.1030
29228SOL    HW292047   9.775   7.657   3.463  0.1546 -1.7477 -1.2787
29229SOL     OW92048   7.262   4.248   0.263  0.3792 -0.2868 -0.0732
29229SOL    HW192049   7.224   4.208   0.342  0.0981  1.9166  0.9963
29229SOL    HW292050   7.327   4.310   0.297 -1.5506  2.6546 -1.3028
29230SOL     OW92051   1.469   9.765  10.621 -0.3718 -0.2400 -0.1579
29230SOL    HW192052   1.379   9.793  10.604 -0.3522 -0.8592 -1.3512
29230SOL    HW292053   1.478   9.683  10.574 -0.1824 -1.9707  2.6600
29231SOL     OW92054  10.807   3.721   0.865  0.0254 -0.8135  0.8261
29231SOL    HW192055  10.851   3.637   0.878  2.4561  0.2243 -0.0448
29231SOL    HW292056  10.744   3.705   0.795  3.2208 -1.1396 -2.2446
29232SOL     OW92057  10.999   7.453   6.866 -0.3425  0.2430 -0.0063
29232SOL    HW192058  10.958   7.480   6.784 -0.8519  1.6095  0.6789
29232SOL    HW292059  11.045   7.371   6.844 -0.2648  0.7142 -1.7027
29233SOL     OW92060   1.459   3.593   4.419  0.0802 -0.0290 -0.3187
29233SOL    HW192061   1.487   3.517   4.469 -1.7846 -0.4344  0.1481
29233SOL    HW292062   1.365   3.598   4.432  0.0625  1.9802 -0.8781
29234SOL     OW92063   5.332   9.382   3.308  0.4329 -0.0137  0.3855
29234SOL    HW192064   5.419   9.387   3.267  0.3469 -1.2897 -0.0048
29234SOL    HW292065   5.343   9.426   3.393  1.2647  0.4719  0.0396
29235SOL     OW92066  10.902  10.518   5.440 -0.5775  0.3622 -0.6516
29235SOL    HW192067  10.985  10.529   5.395 -0.4144  0.2316 -0.3834
29235SOL    HW292068  10.836  10.533   5.372 -0.3425  0.8132 -0.7835
29236SOL     OW92069   1.709   7.168   3.246 -0.2879 -0.6496  0.1875
29236SOL    HW192070   1.656   7.239   3.209 -1.1314 -1.7166 -0.7323
29236SOL    HW292071   1.718   7.191   3.339 -0.2480  0.8145 -0.1494
29237SOL     OW92072   2.951   3.531   5.369  0.7287 -0.1826 -0.2493
29237SOL    HW192073   3.039   3.551   5.401  0.9912  2.0118 -2.0214
29237SOL    HW292074   2.907   3.616   5.366 -1.1814 -1.1151 -0.2038
29238SOL     OW92075   1.415   1.013  10.292 -0.2768 -0.0764  0.1992
29238SOL    HW192076   1.379   0.936  10.335  0.4465 -0.2765  0.4668
29238SOL    HW292077   1.447   0.981  10.207  0.7235 -0.2514  0.6223
29239SOL     OW92078   1.164   7.211   9.461  0.0612  0.3033 -0.0982
29239SOL    HW192079   1.091   7.171   9.509  0.0528 -1.5603 -1.5815
29239SOL    HW292080   1.128   7.292   9.425 -0.4615  0.7724  1.3782
29240SOL     OW92081   2.446   9.137   8.411  0.2558 -0.0853 -0.0574
29240SOL    HW192082   2.366   9.088   8.433 -0.8180  1.5483 -0.1777
29240SOL    HW292083   2.507   9.069   8.380 -2.4831 -1.1246 -4.1261
29241SOL     OW92084   0.422   3.061   1.780  0.3791 -0.3208  0.0937
29241SOL    HW192085   0.334   3.043   1.747 -0.1448  0.3810  1.0616
29241SOL    HW292086   0.425   3.018   1.865  1.0340 -0.4599  0.0055
29242SOL     OW92087   4.563   2.779   8.487  0.4820  0.2094 -0.0990
29242SOL    HW192088   4.622   2.710   8.518  0.0615 -0.8452 -1.5072
29242SOL    HW292089   4.621   2.849   8.457  1.0124 -0.3839 -0.4982
29243SOL     OW92090   3.114   0.028   2.419 -0.3758 -0.1392  0.1676
29243SOL    HW192091   3.115   0.097   2.486  0.7366 -0.6546  0.7122
29243SOL    HW292092   3.022   0.019   2.396 -0.5812  1.2957  0.3251
29244SOL     OW92093   6.299  11.051   1.074 -0.0905  0.0213 -0.3583
29244SOL    HW192094   6.340  10.976   1.118  0.8607  1.0166  0.5183
29244SOL    HW292095   6.232  11.081   1.135  1.6818  1.8182  0.8127
29245SOL     OW92096  10.328   4.292   6.278 -0.1199 -0.4625 -0.7957
29245SOL    HW192097  10.409   4.253   6.247  1.0170  0.2752  1.0834
29245SOL    HW292098  10.309   4.362   6.216  0.9709 -0.3045 -0.9687
29246SOL     OW92099   2.699   9.476   2.039  0.1605 -0.8569 -0.2204
29246SOL    HW192100   2.785   9.435   2.033  0.2940 -0.5995 -0.0440
29246SOL    HW292101   2.715   9.569   2.027  0.0173 -0.7042  0.7150
29247SOL     OW92102   7.512   4.872   7.956 -0.0360  0.1122  0.1428
29247SOL    HW192103   7.550   4.790   7.925 -1.0210  0.2513 -1.5789
29247SOL    HW292104   7.587   4.928   7.976  0.6522 -1.1992  1.4602
29248SOL     OW92105   0.562   9.010   1.794  0.4284  0.0683 -0.2329
29248SOL    HW192106   0.585   8.991   1.885  1.7817  3.3588  0.2500
29248SOL    HW292107   0.476   9.051   1.800  0.5894  0.4305 -0.4020
29249SOL     OW92108   3.539   8.958   9.576 -0.2363  1.0062  0.3880
29249SOL    HW192109   3.558   8.961   9.669  0.1410 -0.2325  0.3663
29249SOL    HW292110   3.501   9.043   9.557  0.7014  1.6913  1.4426
29250SOL     OW92111   5.998  10.554   8.013 -0.0111 -0.0607 -0.0471
29250SOL    HW192112   6.018  10.461   8.000 -0.5895 -0.1957  0.0380
29250SOL    HW292113   6.065  10.584   8.074  1.6577  0.1445 -1.8561
29251SOL     OW92114   2.743   0.082   2.098 -0.3777 -0.0321 -0.5361
29251SOL    HW192115   2.733   0.176   2.115 -1.6596 -0.5272  1.9241
29251SOL    HW292116   2.804   0.077   2.025 -0.1039  2.7124 -0.5877
29252SOL     OW92117   0.849   5.189   0.352 -0.3442 -0.4812  0.3673
29252SOL    HW192118   0.869   5.281   0.367 -1.1592 -0.1252 -0.5537
29252SOL    HW292119   0.931   5.151   0.323 -0.5990  0.6555 -2.1274
29253SOL     OW92120   5.169   3.394  10.331 -0.7211  0.0625 -0.2806
29253SOL    HW192121   5.174   3.387  10.236 -0.7685 -0.5595 -0.2393
29253SOL    HW292122   5.234   3.333  10.364  1.0189  2.0059  0.0737
29254SOL     OW92123   7.466  10.489   8.798  0.4467 -0.1807  0.0023
29254SOL    HW192124   7.407  10.502   8.873 -2.7530 -0.7951 -2.2153
29254SOL    HW292125   7.534  10.431   8.832 -0.1741  0.5355  2.7413
29255SOL     OW92126   5.807   8.295   2.265  0.1806 -0.3205 -0.6615
29255SOL    HW192127   5.819   8.301   2.170 -1.5146 -2.4803 -1.0947
29255SOL    HW292128   5.754   8.217   2.278  1.0584 -0.5825  2.1638
29256SOL     OW92129   8.963   0.674   7.874  0.8356  0.2104  0.1111
29256SOL    HW192130   8.902   0.737   7.911 -0.3454 -0.7122 -0.1973
29256SOL    HW292131   8.976   0.704   7.784  0.3314  0.0711 -0.0136
29257SOL     OW92132   7.942   8.375   6.999 -0.3651  0.2456  0.2398
29257SOL    HW192133   7.971   8.318   6.928 -0.1409 -0.6468  1.0219
29257SOL    HW292134   7.929   8.316   7.074 -2.3275  0.8992  0.4695
29258SOL     OW92135   2.565   8.634   8.878 -0.5481 -0.4890 -0.3581
29258SOL    HW192136   2.648   8.607   8.918 -0.4057  0.7813  0.2263
29258SOL    HW292137   2.563   8.587   8.795  0.9734 -0.1943 -0.5854
29259SOL     OW92138   1.172   4.063  10.189 -0.1034  0.2626  0.3661
29259SOL    HW192139   1.183   4.125  10.117 -0.0803 -0.2504 -0.0835
29259SOL    HW292140   1.239   4.087  10.252  0.4236  0.2069 -0.1608
29260SOL     OW92141   0.484   6.273   3.364 -0.0718 -0.6220 -0.1428
29260SOL    HW192142   0.515   6.277   3.274 -0.1581 -0.9845 -0.1906
29260SOL    HW292143   0.550   6.222   3.411  0.2393  0.0156  0.1131
29261SOL     OW92144   9.754   5.181   6.012 -0.8262  0.2808 -0.0727
29261SOL    HW192145   9.767   5.276   6.009  1.2427  0.0667  0.3429
29261SOL    HW292146   9.759   5.153   5.921  2.5210  0.2281 -0.0143
29262SOL     OW92147   1.458   4.129  10.868  0.2962  0.2881 -0.2727
29262SOL    HW192148   1.495   4.055  10.821  0.3383  0.3552 -0.3455
29262SOL    HW292149   1.363   4.120  10.856  0.2126 -0.4770  0.7956
29263SOL     OW92150   5.746   2.364   2.695 -0.1754 -0.7136 -0.0361
29263SOL    HW192151   5.793   2.419   2.758 -2.7961 -0.5671  1.9657
29263SOL    HW292152   5.765   2.404   2.610  2.7585 -0.3604  0.6571
29264SOL     OW92153   9.166   0.359   3.489 -0.5378 -0.0143  0.0814
29264SOL    HW192154   9.086   0.344   3.540  0.5680  0.1007  1.9117
29264SOL    HW292155   9.206   0.436   3.529  1.5984 -1.3520  0.6457
29265SOL     OW92156   4.182   8.489   2.532  0.0785  0.0210 -0.3663
29265SOL    HW192157   4.240   8.481   2.608  0.5452 -3.0955 -0.9341
29265SOL    HW292158   4.236   8.534   2.466  1.1930 -1.0203 -0.2104
29266SOL     OW92159   3.497  10.306   4.567 -0.8308  0.2553 -0.0227
29266SOL    HW192160   3.492  10.384   4.511 -0.4598  0.4166  0.1661
29266SOL    HW292161   3.578  10.263   4.540  0.0038  0.9830  1.2237
29267SOL     OW92162   3.407   0.681   7.053  0.6852 -0.3762  0.1439
29267SOL    HW192163   3.438   0.602   7.097 -1.9133 -1.6162 -0.0475
29267SOL    HW292164   3.405   0.657   6.960 -0.3383 -0.1941  0.1075
29268SOL     OW92165   2.192   9.864   2.002  0.1509 -0.3123 -0.3942
29268SOL    HW192166   2.245   9.785   1.997  1.4262  0.5087 -0.1937
29268SOL    HW292167   2.201   9.905   1.916  0.5090  0.2489 -0.0922
29269SOL     OW92168   4.630   5.201   2.167  0.3412  0.1394 -0.0817
29269SOL    HW192169   4.584   5.272   2.122 -1.2703 -0.9692 -0.2309
29269SOL    HW292170   4.572   5.175   2.238  0.1849 -1.9980 -0.9118
29270SOL     OW92171   0.698  10.941   0.258 -0.4493  0.5997  0.4022
29270SOL    HW192172   0.725  11.029   0.233 -0.3375  0.6245  0.6143
29270SOL    HW292173   0.666  10.949   0.348  1.3229  0.0893  1.1202
29271SOL     OW92174   9.874   5.895   3.990  0.1403  0.3265  0.6393
29271SOL    HW192175   9.825   5.906   3.908 -2.5814  1.7839  2.2813
29271SOL    HW292176   9.965   5.888   3.963 -0.7205 -0.2299 -2.5426
29272SOL     OW92177  10.532   0.598   2.582 -0.2782  0.4026  0.4980
29272SOL    HW192178  10.563   0.686   2.558 -0.4709  1.0780  2.5314
29272SOL    HW292179  10.440   0.610   2.604 -1.4357 -1.0894 -2.8504
29273SOL     OW92180   2.674   4.121   1.365  0.4185  0.5783 -0.7781
29273SOL    HW192181   2.757   4.166   1.350 -0.2060  1.4758 -1.6070
29273SOL    HW292182   2.692   4.030   1.342  0.7834  1.0380 -2.3965
29274SOL     OW92183   6.219   7.121   4.964 -0.5169 -1.1894 -0.1333
29274SOL    HW192184   6.261   7.206   4.955 -2.0920 -0.1464  1.6547
29274SOL    HW292185   6.145   7.124   4.903  0.4984 -2.0453 -1.4460
29275SOL     OW92186  10.738   5.750   9.002  0.1583  0.3700 -0.5693
29275SOL    HW192187  10.688   5.787   9.075  0.6419  1.0431 -0.5671
29275SOL    HW292188  10.713   5.803   8.927  1.3744  1.1786 -0.4329
29276SOL     OW92189   8.648   4.526   4.304 -0.2389  0.0150 -0.2922
29276SOL    HW192190   8.718   4.518   4.369  0.2570  0.3732 -0.7769
29276SOL    HW292191   8.598   4.603   4.332 -1.6539 -1.3662  1.1822
29277SOL     OW92192   8.030   6.086   3.235  0.3981  0.1380 -0.3234
29277SOL    HW192193   8.040   6.164   3.180  0.4416  1.6508  1.7049
29277SOL    HW292194   7.947   6.047   3.206  0.7602  0.4758 -1.9006
29278SOL     OW92195   5.992   9.427   1.755 -0.3583  0.1505 -0.3250
29278SOL    HW192196   5.922   9.453   1.695 -0.7340  0.5735  0.2801
29278SOL    HW292197   6.073   9.454   1.711 -0.6328  0.5518 -0.5947
29279SOL     OW92198   0.401   0.527   3.299  0.1273  0.1400 -0.2094
29279SOL    HW192199   0.347   0.554   3.225 -3.8611 -2.0312  1.5603
29279SOL    HW292200   0.421   0.435   3.281  0.5913  0.0730  0.6265
29280SOL     OW92201   9.492   6.303   3.293  0.2577  0.3872  0.2262
29280SOL    HW192202   9.538   6.292   3.377  0.2538 -0.2397  0.1514
29280SOL    HW292203   9.402   6.322   3.317  0.0124 -0.9063  0.3664
29281SOL     OW92204  10.439   4.018   3.845  0.1934 -0.4652  0.3104
29281SOL    HW192205  10.454   4.046   3.754 -1.1090  0.6476  0.4137
29281SOL    HW292206  10.495   3.940   3.855  0.0034 -0.9016 -1.5806
29282SOL     OW92207   4.994   5.083   6.110  1.1601  0.5953 -0.3278
29282SOL    HW192208   5.021   5.171   6.085 -0.2679  0.8650 -1.0088
29282SOL    HW292209   5.010   5.029   6.033  1.1742  0.4450 -0.2216
29283SOL     OW92210   5.722   6.712   7.051 -0.1652 -0.0115 -0.0217
29283SOL    HW192211   5.711   6.627   7.007 -1.1807  0.1537 -0.1136
29283SOL    HW292212   5.681   6.699   7.137  0.0354  0.2642  0.1133
29284SOL     OW92213   5.651   9.202   4.171  0.7325  0.2077 -0.3329
29284SOL    HW192214   5.736   9.230   4.206  1.0740  0.4712 -1.3520
29284SOL    HW292215   5.628   9.268   4.106 -1.4734  1.5536  1.6507
29285SOL     OW92216  10.228   8.593   3.537 -0.1704 -0.0525  0.5038
29285SOL    HW192217  10.295   8.586   3.469  0.2880 -2.3246  1.1052
29285SOL    HW292218  10.212   8.687   3.545  2.0830  0.4953 -0.4896
29286SOL     OW92219   0.070   7.523   8.542  0.1034  0.2009 -0.0972
29286SOL    HW192220   0.118   7.507   8.623 -2.4623 -2.0976  1.1356
29286SOL    HW292221   0.013   7.598   8.561 -1.9778 -1.5541  1.1109
29287SOL     OW92222   5.368   4.853   6.110 -0.1000 -0.5519 -0.3910
29287SOL    HW192223   5.352   4.947   6.118 -1.4653 -0.7880 -0.0502
29287SOL    HW292224   5.297   4.821   6.055  0.3945 -1.3796 -0.5631
29288SOL     OW92225   5.368   7.186   1.808 -0.1495 -0.2464 -0.4528
29288SOL    HW192226   5.364   7.247   1.735 -0.7121  0.5955  0.2665
29288SOL    HW292227   5.360   7.099   1.768 -2.0914  0.2651 -1.2505
29289SOL     OW92228   6.891   0.020  10.872 -0.3198 -0.2325  0.0327
29289SOL    HW192229   6.808  -0.014  10.839 -1.4203  0.1827  2.1527
29289SOL    HW292230   6.957  -0.012  10.810 -2.0371 -0.5695 -1.7170
29290SOL     OW92231   5.623   4.092   3.637  0.3239  0.6437  0.6066
29290SOL    HW192232   5.645   4.180   3.668  2.1713 -1.0871  5.3041
29290SOL    HW292233   5.537   4.074   3.675  1.2558 -0.4616  2.3480
29291SOL     OW92234   9.617   3.228   0.036 -0.2099  0.0658  0.5151
29291SOL    HW192235   9.696   3.281   0.030 -0.6243  0.7404  0.8326
29291SOL    HW292236   9.560   3.277   0.095 -0.3778 -1.0295  1.2970
29292SOL     OW92237   0.271   9.603   8.627 -0.3047 -0.0441  0.6648
29292SOL    HW192238   0.330   9.566   8.691  0.4553 -0.6958 -0.3860
29292SOL    HW292239   0.326   9.662   8.574 -0.8021  0.1001  0.2957
29293SOL     OW92240   6.774   3.643   3.644  0.1487 -0.0031 -0.0330
29293SOL    HW192241   6.725   3.626   3.563  0.8588  1.0734 -0.7054
29293SOL    HW292242   6.719   3.606   3.713 -0.5695 -0.7561 -0.9787
29294SOL     OW92243   8.873   8.055  10.870 -0.0072  0.2464 -0.3125
29294SOL    HW192244   8.780   8.078  10.873  0.0423  0.3528  1.5238
29294SOL    HW292245   8.913   8.103  10.943  0.7390 -2.7941  1.4928
29295SOL     OW92246   5.375   1.511   6.288 -0.5445 -0.0776  0.1349
29295SOL    HW192247   5.377   1.570   6.364 -1.3740  1.2709 -0.8455
29295SOL    HW292248   5.296   1.535   6.241 -0.0601 -0.9126 -1.1564
29296SOL     OW92249   9.934   4.857  10.286 -0.4714 -0.0947  0.1835
29296SOL    HW192250   9.948   4.951  10.275  1.1102 -0.2978  0.1321
29296SOL    HW292251   9.840   4.848  10.300 -0.5545  1.5751  0.9915
29297SOL     OW92252   6.870   2.559   3.643  0.3472 -0.2657  0.2924
29297SOL    HW192253   6.805   2.625   3.668  0.3781  0.1096 -0.5676
29297SOL    HW292254   6.952   2.608   3.638  0.5843 -0.6140  0.7953
29298SOL     OW92255  10.630   6.767   5.672  0.5474  0.1539  0.6722
29298SOL    HW192256  10.673   6.820   5.606 -1.1549  1.1283  0.2791
29298SOL    HW292257  10.699   6.747   5.736  2.2404 -0.8332 -1.3415
29299SOL     OW92258   8.311   0.733   9.052 -0.5789  0.2109 -0.5506
29299SOL    HW192259   8.362   0.670   9.001  0.5872  0.3813  0.3788
29299SOL    HW292260   8.338   0.818   9.019 -0.7858  0.2883 -0.5257
29300SOL     OW92261   6.862   3.123   6.341  0.0761 -0.7051  0.0009
29300SOL    HW192262   6.915   3.166   6.275 -0.9681 -0.9977 -1.0601
29300SOL    HW292263   6.915   3.050   6.371  1.4276  0.6362  1.0494
29301SOL     OW92264   4.163   3.239  10.436  0.8018  0.0980 -0.2123
29301SOL    HW192265   4.234   3.212  10.378  1.4349 -0.6002  0.8346
29301SOL    HW292266   4.203   3.305  10.492  0.9902 -1.0661  1.0958
29302SOL     OW92267   3.713   4.252   6.123  0.7742  0.1645 -0.4143
29302SOL    HW192268   3.686   4.215   6.207  0.4261 -1.0651 -1.0426
29302SOL    HW292269   3.649   4.322   6.106  0.2042 -0.2812 -0.1456
29303SOL     OW92270  10.277   2.178  10.707 -0.3640  0.2138  0.3881
29303SOL    HW192271  10.235   2.254  10.747  0.8326  0.9205  0.3766
29303SOL    HW292272  10.348   2.215  10.654 -0.3323 -0.8622 -0.3642
29304SOL     OW92273   5.992   6.883   3.046  0.4430 -0.2525 -0.0093
29304SOL    HW192274   5.980   6.971   3.081 -1.5726 -0.7153  0.6106
29304SOL    HW292275   5.982   6.893   2.951 -0.3206  0.1316  0.1023
29305SOL     OW92276   6.801   7.860   5.254  0.5480  0.1000  0.3432
29305SOL    HW192277   6.725   7.816   5.290 -1.0016  2.2322 -0.1452
29305SOL    HW292278   6.814   7.820   5.168 -1.2584  0.9850 -0.3928
29306SOL     OW92279   6.606   3.211   5.421  0.3607 -0.0547  0.2532
29306SOL    HW192280   6.602   3.215   5.325  0.5235  0.5261  0.2656
29306SOL    HW292281   6.580   3.298   5.450  0.3663 -0.2110  0.7378
29307SOL     OW92282   8.174   7.649   0.741 -0.0457 -0.0012 -0.9423
29307SOL    HW192283   8.209   7.657   0.829 -1.5771 -0.2289 -0.2887
29307SOL    HW292284   8.148   7.739   0.717 -0.9004 -0.1463 -0.5982
29308SOL     OW92285   3.114   4.353  10.267 -0.3982 -0.1857  0.5439
29308SOL    HW192286   3.139   4.308  10.186  1.9703  1.5412  0.2194
29308SOL    HW292287   3.140   4.293  10.336 -0.0157 -0.5616  0.0794
29309SOL     OW92288   8.347   0.545   7.632  0.1352 -0.2594  0.6358
29309SOL    HW192289   8.326   0.458   7.665 -2.8719 -0.1433 -0.6414
29309SOL    HW292290   8.338   0.603   7.708 -1.6676 -0.6195  0.7296
29310SOL     OW92291   6.702   9.115   7.402  0.2145 -0.3587  0.7208
29310SOL    HW192292   6.701   9.019   7.405  0.9901 -0.3966  0.1704
29310SOL    HW292293   6.615   9.139   7.369  0.8615 -1.0136 -1.6907
29311SOL     OW92294   7.968   5.299   0.991  1.0150  0.1103  0.6448
29311SOL    HW192295   8.061   5.311   1.008  1.3236 -0.8115 -0.2729
29311SOL    HW292296   7.940   5.382   0.953  1.6539  0.1363  0.2010
29312SOL     OW92297   2.184   7.070   0.549  0.5173  0.2017 -0.3552
29312SOL    HW192298   2.088   7.063   0.556  0.3030  0.6811 -2.2954
29312SOL    HW292299   2.212   7.094   0.637 -1.2229  0.7529  0.1011
29313SOL     OW92300   0.636   0.875   7.057 -0.0622 -0.3335 -0.3198
29313SOL    HW192301   0.653   0.859   7.150 -0.2320 -1.8613 -0.5267
29313SOL    HW292302   0.541   0.864   7.048 -0.6520  3.3988 -0.0547
29314SOL     OW92303   3.853   8.691   3.072  0.5007 -0.4728  0.6062
29314SOL    HW192304   3.853   8.641   2.990 -0.8537  0.3684  0.0520
29314SOL    HW292305   3.940   8.729   3.077  0.2619  0.3803 -1.0397
29315SOL     OW92306   6.939   5.816   2.262 -0.2352  0.5318 -0.1750
29315SOL    HW192307   7.005   5.876   2.298  0.4213 -0.9838  1.3294
29315SOL    HW292308   6.941   5.832   2.168  0.8719  1.9158  0.0411
29316SOL     OW92309   5.837   0.105  10.826 -0.6523  0.2238 -0.0331
29316SOL    HW192310   5.875   0.184  10.864 -0.1918  0.3272 -0.7029
29316SOL    HW292311   5.776   0.138  10.760 -1.1191  0.0301  0.2889
29317SOL     OW92312   7.758   1.409   3.210  0.2063  0.3308 -0.0227
29317SOL    HW192313   7.849   1.439   3.212  0.6644 -0.9366 -0.9097
29317SOL    HW292314   7.758   1.332   3.267 -0.5132  0.8215  0.6533
29318SOL     OW92315   1.978   8.245   3.244 -0.5229 -0.1151 -0.2220
29318SOL    HW192316   2.032   8.258   3.322 -0.2983  1.0049 -0.5521
29318SOL    HW292317   1.977   8.150   3.232 -0.0811 -0.2618  0.8079
29319SOL     OW92318   4.511   5.083   3.795  1.0268 -0.0230  0.0034
29319SOL    HW192319   4.581   5.144   3.771  0.3715  0.5515 -0.4749
29319SOL    HW292320   4.508   5.020   3.722  0.9764  0.0138 -0.0264
29320SOL     OW92321   7.023   8.193   9.106 -0.4091 -0.7723  0.4137
29320SOL    HW192322   7.026   8.183   9.011 -0.8721  1.6250  0.0854
29320SOL    HW292323   6.938   8.156   9.131 -2.8594  3.2558 -0.9346
29321SOL     OW92324   3.140   7.067   6.380  0.3965 -0.8454  0.6321
29321SOL    HW192325   3.073   7.010   6.344 -1.0659  0.6662  0.8316
29321SOL    HW292326   3.129   7.150   6.334  1.9046 -0.4407  0.9314
29322SOL     OW92327   8.757   6.466   8.840  0.1745 -0.2814  0.3472
29322SOL    HW192328   8.768   6.513   8.757  2.7491 -0.0294  0.7682
29322SOL    HW292329   8.683   6.511   8.882 -0.3690  0.4051 -1.2324
29323SOL     OW92330   0.311  10.855   3.412  0.2888  0.0736 -0.3502
29323SOL    HW192331   0.284  10.899   3.331 -0.8300 -1.3272 -0.7863
29323SOL    HW292332   0.404  10.837   3.400  0.0965 -0.2862 -1.4290
29324SOL     OW92333   6.420   5.690   5.313  0.4104  0.0449  0.6109
29324SOL    HW192334   6.355   5.760   5.317 -2.6813 -2.3436 -1.9499
29324SOL    HW292335   6.486   5.721   5.251 -1.6862  0.3081 -1.6496
29325SOL     OW92336   8.149   5.948   1.699  0.6049  0.0136  0.3014
29325SOL    HW192337   8.185   5.861   1.715  2.0481  0.3422 -0.9566
29325SOL    HW292338   8.081   5.934   1.633 -0.5786 -0.3996  1.5633
29326SOL     OW92339   8.134   1.307   3.417 -0.0276 -0.0687 -0.0195
29326SOL    HW192340   8.141   1.379   3.480  1.1024 -0.1194 -0.0583
29326SOL    HW292341   8.193   1.239   3.451 -1.5499 -1.2571  0.3451
29327SOL     OW92342   8.243   2.000   6.705 -0.1480  0.1998  0.6013
29327SOL    HW192343   8.290   2.051   6.639  0.3580  0.2627  1.0026
29327SOL    HW292344   8.199   2.065   6.760 -2.3991  0.1151 -0.9464
29328SOL     OW92345   7.498  10.727   4.314  0.1995  0.0007  0.3841
29328SOL    HW192346   7.404  10.736   4.300 -0.0005 -0.7500  1.1701
29328SOL    HW292347   7.507  10.702   4.406  1.2074  0.6309  0.4746
29329SOL     OW92348   5.851   5.247   1.820 -0.4883 -0.3093  0.1992
29329SOL    HW192349   5.927   5.192   1.838 -0.4993  0.2397  2.1026
29329SOL    HW292350   5.786   5.221   1.886 -1.2785  0.5165 -0.2228
29330SOL     OW92351   1.709   9.170   3.777  0.8543  0.0848 -0.8568
29330SOL    HW192352   1.654   9.123   3.714 -0.9796  1.8729 -0.6935
29330SOL    HW292353   1.725   9.255   3.736  1.2858  0.5642  0.2716
29331SOL     OW92354   1.035  10.787   4.357  0.1487  1.0194 -0.0098
29331SOL    HW192355   1.060  10.829   4.275  0.4813  0.9589  0.0603
29331SOL    HW292356   1.008  10.858   4.414  0.5581  1.1210  0.0560
29332SOL     OW92357   5.176   0.717   7.444 -0.1875 -0.0333  0.3522
29332SOL    HW192358   5.127   0.658   7.501  0.9568 -1.6517 -0.2570
29332SOL    HW292359   5.208   0.661   7.373  0.1966  1.5139 -0.7442
29333SOL     OW92360   4.067   3.992   8.941  0.2870 -0.1271  0.1438
29333SOL    HW192361   3.981   4.032   8.949 -0.1424 -0.5305 -2.0660
29333SOL    HW292362   4.096   4.012   8.852  2.4524 -0.0728  0.7935
29334SOL     OW92363   1.181   3.198   3.503 -0.2033  0.3509 -0.1514
29334SOL    HW192364   1.228   3.193   3.420  0.5822 -0.2872  0.3280
29334SOL    HW292365   1.128   3.118   3.506  0.9851 -0.4275  0.6777
29335SOL     OW92366   7.693  10.077   2.027 -0.0348  0.1875  0.1352
29335SOL    HW192367   7.716  10.143   1.962 -1.9240  1.3200  0.5466
29335SOL    HW292368   7.772  10.066   2.079  1.0581  0.3112 -1.4392
29336SOL     OW92369  10.931   2.356   9.541  0.3558 -0.2229  0.1973
29336SOL    HW192370  11.027   2.355   9.536  0.3378  0.5636 -0.5758
29336SOL    HW292371  10.912   2.397   9.626  0.7155  1.0908 -0.3290
29337SOL     OW92372   1.345   9.084   5.669  0.4888  0.0707 -0.4169
29337SOL    HW192373   1.381   9.080   5.581  0.4891 -0.4774 -0.3968
29337SOL    HW292374   1.398   9.023   5.720  1.5396  1.5922  0.3583
29338SOL     OW92375   6.011   8.567   0.083 -0.3049 -0.2282 -0.1932
29338SOL    HW192376   6.076   8.601   0.021 -1.7650  0.8752 -1.2020
29338SOL    HW292377   5.934   8.548   0.029 -1.0766 -0.7911  1.0580
29339SOL     OW92378   7.591   2.484   0.824 -0.5640  0.2027 -0.3831
29339SOL    HW192379   7.570   2.443   0.740 -0.2375 -0.7034 -0.0403
29339SOL    HW292380   7.512   2.531   0.849 -0.9819 -0.2921 -0.7585
29340SOL     OW92381   2.661   2.157   4.085  0.1969 -0.3554  0.2243
29340SOL    HW192382   2.631   2.066   4.085  0.0093 -0.2934  0.0399
29340SOL    HW292383   2.581   2.209   4.079  0.3594 -0.2045 -0.8422
29341SOL     OW92384   3.046   5.769   7.845  0.7540  0.1056 -0.6576
29341SOL    HW192385   3.129   5.813   7.859 -0.0609  1.5044 -0.0706
29341SOL    HW292386   3.051   5.690   7.898  2.0659 -0.3238 -1.3850
29342SOL     OW92387   5.297   8.460   5.207  0.1164 -0.4849 -0.2096
29342SOL    HW192388   5.382   8.446   5.164  0.7271 -0.0724  0.8142
29342SOL    HW292389   5.317   8.521   5.278 -1.1513  0.0282 -0.2808
29343SOL     OW92390  10.909   9.494   9.408 -0.0802  0.0457 -0.3932
29343SOL    HW192391  10.900   9.477   9.502  1.7183  0.2232 -0.1500
29343SOL    HW292392  10.967   9.570   9.402 -0.1769  0.0480 -1.6481
29344SOL     OW92393   6.341   5.135   4.668 -0.3948 -0.3732 -0.0045
29344SOL    HW192394   6.393   5.125   4.588 -0.1987  1.4484 -0.1452
29344SOL    HW292395   6.260   5.176   4.639 -0.2232  0.5337  0.7504
29345SOL     OW92396   0.054   0.900  10.457 -0.4382  0.4612  0.0502
29345SOL    HW192397   0.003   0.900  10.538  0.6996  0.1947  0.7999
29345SOL    HW292398   0.057   0.808  10.431 -0.3045  0.4685  0.0402
29346SOL     OW92399   6.444   6.085   4.572  0.4064 -0.5136  0.0570
29346SOL    HW192400   6.428   6.150   4.641  0.1023 -0.4173 -0.1042
29346SOL    HW292401   6.370   6.095   4.512  0.2929 -1.0916  0.0941
29347SOL     OW92402   3.452   8.717   7.191  0.4609 -0.2883  0.0272
29347SOL    HW192403   3.372   8.694   7.237  0.1175  1.1215  0.1806
29347SOL    HW292404   3.467   8.810   7.212  2.1753 -0.5287  0.0779
29348SOL     OW92405   8.633   0.104   1.869 -0.0436 -0.2858  0.3394
29348SOL    HW192406   8.707   0.110   1.809  0.3508  2.7872  1.0007
29348SOL    HW292407   8.668   0.057   1.945  0.4718 -1.0666 -0.3603
29349SOL     OW92408   0.889   3.467   0.920  0.3439 -1.1611 -0.7495
29349SOL    HW192409   0.855   3.379   0.934 -0.6435 -0.8954 -1.3902
29349SOL    HW292410   0.905   3.472   0.825  1.4014 -1.0002 -0.5789
29350SOL     OW92411  10.495   5.183   8.105 -0.1316  0.7595 -0.0684
29350SOL    HW192412  10.570   5.242   8.111  0.2679  0.4632 -1.5901
29350SOL    HW292413  10.532   5.101   8.072 -1.2209  0.9372 -1.9234
29351SOL     OW92414   9.528   2.199   5.232 -0.1755  0.2547 -0.0552
29351SOL    HW192415   9.600   2.168   5.286 -0.8219 -1.4826 -0.1345
29351SOL    HW292416   9.477   2.256   5.291 -0.8817 -1.6153  1.2330
29352SOL     OW92417   8.859   4.208   6.030  0.3033 -0.0736  0.1914
29352SOL    HW192418   8.867   4.226   5.937 -0.1746  1.8594  0.4844
29352SOL    HW292419   8.773   4.168   6.040 -0.3218  1.1728 -0.0258
29353SOL     OW92420   5.016   0.028   4.799  0.1750  0.1267 -0.3151
29353SOL    HW192421   5.073   0.002   4.871 -1.1583 -0.3253  0.6106
29353SOL    HW292422   5.055  -0.015   4.722 -0.0253 -1.8390  0.6090
29354SOL     OW92423   1.038  11.028  10.166 -0.3205 -0.1975  0.7087
29354SOL    HW192424   0.970  10.973  10.127 -0.1811  0.7034 -0.8878
29354SOL    HW292425   1.120  10.984  10.142 -0.2535  0.0953  0.3957
29355SOL     OW92426   7.939   3.474   0.748  0.4771  0.0484  0.4690
29355SOL    HW192427   7.982   3.560   0.748 -0.6734  0.6564 -0.4750
29355SOL    HW292428   7.847   3.494   0.764  0.0555 -0.9104 -0.6313
29356SOL     OW92429  11.097   3.463   8.598  0.1903  0.2885 -0.1217
29356SOL    HW192430  11.113   3.369   8.608  0.3983  0.4786  1.6142
29356SOL    HW292431  11.078   3.474   8.505  1.0259 -1.3328 -0.5210
29357SOL     OW92432   3.146   0.336   4.026 -0.4577  0.2003 -0.5612
29357SOL    HW192433   3.232   0.329   4.069  0.1068 -1.5612 -1.8284
29357SOL    HW292434   3.112   0.421   4.053  2.3128  1.6087 -1.0916
29358SOL     OW92435   1.001   4.022   9.002  0.3378  0.3188  0.2430
29358SOL    HW192436   0.913   4.019   8.964 -0.3122 -0.9463  1.7034
29358SOL    HW292437   1.060   4.021   8.927 -0.8674  2.4500 -0.8084
29359SOL     OW92438   7.930   3.759   8.349 -0.3777  0.3663 -0.0934
29359SOL    HW192439   7.875   3.827   8.387  2.6177  1.7281  2.2021
29359SOL    HW292440   7.969   3.715   8.424 -1.6553 -3.5887 -1.5171
29360SOL     OW92441  10.842  11.097  10.525 -0.3015  0.5747 -0.0443
29360SOL    HW192442  10.928  11.121  10.491 -0.4244  0.0392 -0.7620
29360SOL    HW292443  10.784  11.106  10.449 -1.0114  1.6044  0.6040
29361SOL     OW92444   3.324   3.102   3.079  0.4185 -0.0904 -0.0704
29361SOL    HW192445   3.233   3.113   3.104  0.9013  1.3381  1.2065
29361SOL    HW292446   3.330   3.011   3.049 -1.8357  0.3886 -2.1802
29362SOL     OW92447  10.727   2.916   6.135 -0.8965 -0.1029  0.0203
29362SOL    HW192448  10.772   2.865   6.067 -0.5810  0.3573 -0.1171
29362SOL    HW292449  10.728   2.859   6.211  0.8840  0.2940  0.3450
29363SOL     OW92450   7.567   1.626  10.140 -0.2145 -0.3014 -0.1790
29363SOL    HW192451   7.655   1.588  10.149 -0.8577 -1.9079 -0.2527
29363SOL    HW292452   7.563   1.656  10.049  0.7217  1.1209  0.2035
29364SOL     OW92453   9.622   9.525  10.500  0.3931  0.0368  0.3589
29364SOL    HW192454   9.672   9.596  10.541  2.2004 -1.3636  0.7251
29364SOL    HW292455   9.688   9.473  10.454 -0.3469 -2.9338  2.3533
29365SOL     OW92456   2.644   3.960   8.894  0.2122 -0.5697 -0.6899
29365SOL    HW192457   2.582   3.992   8.829  2.0547  3.1453 -0.8918
29365SOL    HW292458   2.620   4.006   8.975  1.6497 -0.3458 -0.3648
29366SOL     OW92459   6.690   9.897   4.716  0.1351  0.1523  0.2223
29366SOL    HW192460   6.691   9.989   4.743  1.4881  0.4069 -0.6138
29366SOL    HW292461   6.615   9.892   4.656 -1.2428  0.1835  1.8607
29367SOL     OW92462   4.068   9.392   4.326 -0.4345  0.1049 -0.2016
29367SOL    HW192463   4.109   9.420   4.244 -0.7219  0.3814 -0.2508
29367SOL    HW292464   4.134   9.411   4.393 -1.0463  2.0129 -0.0751
29368SOL     OW92465   2.423  11.094   6.007  0.3016  0.7854  0.0918
29368SOL    HW192466   2.361  11.045   5.953  0.1765  1.3713 -0.3016
29368SOL    HW292467   2.369  11.151   6.060  0.4746  0.8517  0.1989
29369SOL     OW92468   5.054   3.849   8.402  0.1182  0.1701  0.3389
29369SOL    HW192469   5.106   3.841   8.482 -0.6506 -0.5959  0.7795
29369SOL    HW292470   5.037   3.759   8.376 -0.0424  0.4183 -0.4227
29370SOL     OW92471   1.161   7.691  10.334 -0.0352  0.1006 -0.0568
29370SOL    HW192472   1.225   7.683  10.405 -0.9173 -0.2043  0.7104
29370SOL    HW292473   1.084   7.644  10.365 -1.5782  2.5879  0.1204
29371SOL     OW92474   2.359   9.809   0.582  0.0115 -0.0769  0.3174
29371SOL    HW192475   2.400   9.733   0.624 -0.3189 -0.5487 -0.1846
29371SOL    HW292476   2.431   9.858   0.545  0.2733  0.1439  1.1115
29372SOL     OW92477   1.247   1.537   4.067  0.0687 -0.4494 -0.5571
29372SOL    HW192478   1.333   1.566   4.096 -0.5810  1.9180 -0.7462
29372SOL    HW292479   1.187   1.571   4.134 -0.8611 -0.6148 -1.2904
29373SOL     OW92480   7.304   9.717  10.726  0.4607 -0.5945  0.0288
29373SOL    HW192481   7.304   9.639  10.669  1.0123  0.5552 -1.6090
29373SOL    HW292482   7.290   9.790  10.666 -3.5167  0.4339  1.8233
29374SOL     OW92483   8.636   8.132   0.928  0.2053  0.3810  0.1795
29374SOL    HW192484   8.725   8.128   0.964  0.0995  0.2736  0.4295
29374SOL    HW292485   8.586   8.178   0.995  0.1552  0.7782 -0.1307
29375SOL     OW92486   5.647   6.784   0.012  0.6623  0.5558  0.7568
29375SOL    HW192487   5.559   6.802   0.046 -0.2977 -0.1794 -1.1662
29375SOL    HW292488   5.697   6.756   0.088 -1.4014 -1.1293  1.5893
29376SOL     OW92489   0.123   5.737   6.605 -0.1991  0.0962  0.2308
29376SOL    HW192490   0.066   5.682   6.551 -0.2650  1.6003 -1.3160
29376SOL    HW292491   0.063   5.784   6.663 -0.2693 -0.3131  0.4980
29377SOL     OW92492   7.339   1.055   1.196  0.2943 -0.3292 -0.0795
29377SOL    HW192493   7.407   0.991   1.172 -0.0718 -0.6866 -0.1756
29377SOL    HW292494   7.387   1.136   1.210  1.1896 -1.2295  2.8680
29378SOL     OW92495   5.608   8.261   0.212 -0.2710 -0.5225  0.1793
29378SOL    HW192496   5.568   8.270   0.125  1.1901  0.1674 -0.4599
29378SOL    HW292497   5.577   8.337   0.261 -0.7723 -0.6916  0.1229
29379SOL     OW92498   3.520  10.564   3.540 -0.2546  0.1021  0.3069
29379SOL    HW192499   3.428  10.581   3.557  0.0714  1.6377  0.7110
29379SOL    HW292500   3.537  10.606   3.455 -0.0456 -0.6796 -0.0521
29380SOL     OW92501   9.194   4.046  10.134  0.4341  0.3959 -0.0632
29380SOL    HW192502   9.236   3.983  10.075  1.3369  0.0131  0.9484
29380SOL    HW292503   9.215   4.131  10.096  1.1017  0.1591 -0.2479
29381SOL     OW92504   8.909   0.245   4.726 -0.4301  0.7228 -0.0556
29381SOL    HW192505   8.989   0.207   4.761  0.7723  0.7401 -2.5963
29381SOL    HW292506   8.841   0.180   4.745  0.2224  0.5032  1.7049
29382SOL     OW92507   0.337   4.044   8.179  0.4147 -0.6070 -0.3659
29382SOL    HW192508   0.368   4.133   8.193  1.0697 -0.6084 -1.6444
29382SOL    HW292509   0.376   4.018   8.095 -0.1510 -1.9204 -0.2464
29383SOL     OW92510   0.167   5.179   2.130 -0.3741  0.3939  0.1899
29383SOL    HW192511   0.098   5.145   2.188  0.7304  0.0047  1.3045
29383SOL    HW292512   0.119   5.211   2.053 -1.8637  0.8261  1.2536
29384SOL     OW92513   8.366   9.993   0.754 -0.1568 -0.2943  0.4466
29384SOL    HW192514   8.419   9.993   0.834 -1.2559 -2.0648  1.2478
29384SOL    HW292515   8.290   9.939   0.776 -0.9821 -0.0152 -1.5030
29385SOL     OW92516   3.285  10.338   7.506 -0.0656  0.2614 -0.4883
29385SOL    HW192517   3.349  10.278   7.542 -0.6697  0.7091  1.4677
29385SOL    HW292518   3.286  10.321   7.412  0.4663 -2.1003 -0.1137
29386SOL     OW92519  10.210  10.368   1.395 -0.1736 -0.1602  0.1159
29386SOL    HW192520  10.217  10.363   1.300 -1.0740 -2.2875  0.1210
29386SOL    HW292521  10.192  10.460   1.413  0.7853  0.4215 -1.6932
29387SOL     OW92522   9.548   2.025   7.778 -0.3725 -0.2367 -0.2124
29387SOL    HW192523   9.571   2.115   7.801 -0.5603 -0.1182 -0.4907
29387SOL    HW292524   9.458   2.030   7.745  0.6245 -0.0045 -3.2298
29388SOL     OW92525   6.258   5.467   7.678 -0.1526 -0.1551 -0.0402
29388SOL    HW192526   6.266   5.505   7.591  1.7678 -0.6327 -0.1092
29388SOL    HW292527   6.214   5.383   7.665 -0.9199  0.2889 -0.3733
29389SOL     OW92528   4.038   5.276   7.279 -0.6159 -0.1996  0.0125
29389SOL    HW192529   4.078   5.362   7.265  0.9542 -0.9573 -0.3155
29389SOL    HW292530   3.970   5.292   7.345 -0.3192  1.2688  0.0022
29390SOL     OW92531   5.708   0.715   1.675 -0.3207  0.4582  0.1680
29390SOL    HW192532   5.684   0.644   1.614 -4.0122  2.0300 -0.4761
29390SOL    HW292533   5.788   0.752   1.638 -0.8278 -0.5222 -2.0988
29391SOL     OW92534   0.350   0.780   5.601  0.2854  0.3758  0.2115
29391SOL    HW192535   0.383   0.716   5.665 -1.8807 -0.7760  0.2801
29391SOL    HW292536   0.307   0.847   5.654  1.0849  1.0171  0.0624
29392SOL     OW92537   7.081   8.810   4.983 -0.1472  1.2001  0.1454
29392SOL    HW192538   6.999   8.841   5.023  1.1321  1.9539  2.3842
29392SOL    HW292539   7.121   8.889   4.945 -0.6763  0.7357 -1.4434
29393SOL     OW92540   6.838   8.108   2.881 -0.1097 -0.2632 -0.6870
29393SOL    HW192541   6.924   8.118   2.921 -0.9753  0.1280  1.1900
29393SOL    HW292542   6.831   8.014   2.862 -0.2571 -0.7930  1.6610
29394SOL     OW92543   3.623   7.171   5.921  0.2906  0.4136 -0.2244
29394SOL    HW192544   3.584   7.151   6.006 -0.2434 -1.3245 -0.8506
29394SOL    HW292545   3.638   7.266   5.924 -1.6027  0.7337  1.0239
29395SOL     OW92546   1.129   1.329   3.203  0.2695  0.4103 -0.2074
29395SOL    HW192547   1.126   1.355   3.295  1.5764 -0.8631  0.2431
29395SOL    HW292548   1.173   1.403   3.159 -0.9418  1.3104  0.0465
29396SOL     OW92549   6.032   7.220   9.688  0.7111 -0.4380 -0.2685
29396SOL    HW192550   6.000   7.176   9.767 -0.2426  0.4818 -0.1094
29396SOL    HW292551   5.966   7.200   9.622  1.0408 -0.4595 -0.5926
29397SOL     OW92552   0.084   7.195   0.349 -0.3994 -0.2830  0.3161
29397SOL    HW192553   0.162   7.170   0.302 -0.4690 -0.2016  0.1573
29397SOL    HW292554   0.019   7.215   0.281 -0.9020 -1.4107  0.4439
29398SOL     OW92555   0.925   2.318   2.689  0.8368  1.0044 -0.1521
29398SOL    HW192556   0.985   2.276   2.628 -0.8374 -2.1347  0.1382
29398SOL    HW292557   0.922   2.259   2.764 -1.4856  1.7789  0.4429
29399SOL     OW92558   4.290   5.588   6.172  0.4447 -0.2154 -0.1951
29399SOL    HW192559   4.224   5.627   6.114  0.3279 -0.5158 -0.2641
29399SOL    HW292560   4.340   5.663   6.205 -2.3265  0.5022  2.9071
29400SOL     OW92561   7.869   5.107   9.416  0.2414  0.8323 -0.8863
29400SOL    HW192562   7.859   5.181   9.477  0.9502  0.3657 -0.1821
29400SOL    HW292563   7.886   5.149   9.332  1.3249  1.4924 -0.3680
29401SOL     OW92564   7.542   2.740  10.019  0.0787  0.2231  1.2153
29401SOL    HW192565   7.486   2.817  10.015  1.0947  0.9181 -1.1243
29401SOL    HW292566   7.505   2.688  10.091 -1.0783  2.5000  2.3963
29402SOL     OW92567   3.162   0.820   9.708  0.2834  0.0532 -0.2398
29402SOL    HW192568   3.173   0.911   9.679  0.6190  0.2768  0.5536
29402SOL    HW292569   3.231   0.807   9.774  1.9268 -1.5950 -2.1632
29403SOL     OW92570   1.106   0.138   0.987 -0.2184  0.0733 -0.0061
29403SOL    HW192571   1.155   0.173   1.062  0.0154 -0.4510  0.0861
29403SOL    HW292572   1.084   0.216   0.936 -2.1821  0.6817  1.6413
29404SOL     OW92573   1.786   7.865   9.808 -0.4056 -0.0182  0.3603
29404SOL    HW192574   1.837   7.784   9.812 -0.5524 -0.1107  0.3462
29404SOL    HW292575   1.695   7.837   9.818 -0.4364  0.1714  0.6295
29405SOL     OW92576   4.883   6.222   0.201  0.5810 -0.0829 -0.2533
29405SOL    HW192577   4.793   6.246   0.223  0.2515 -0.1936 -1.4297
29405SOL    HW292578   4.936   6.263   0.270 -0.2762  0.8901 -0.1433
29406SOL     OW92579  11.014   8.803   5.396 -0.6916 -0.1565 -0.2831
29406SOL    HW192580  11.079   8.792   5.327 -0.0172  0.6739  0.2058
29406SOL    HW292581  10.977   8.716   5.407 -0.6800 -0.3482 -1.5540
29407SOL     OW92582   4.795   9.741   9.163 -0.2048 -0.2899 -0.3619
29407SOL    HW192583   4.869   9.780   9.210  1.4710 -2.2820 -1.2180
29407SOL    HW292584   4.770   9.666   9.217 -0.5863 -0.5284 -0.8713
29408SOL     OW92585   9.414   1.281   9.669  0.9599 -0.4244  0.3485
29408SOL    HW192586   9.337   1.234   9.701  0.0512  0.4680 -0.4724
29408SOL    HW292587   9.391   1.374   9.678  1.7725 -0.1540 -0.2913
29409SOL     OW92588  10.679   4.806   6.794 -0.2569  0.4611  0.2010
29409SOL    HW192589  10.662   4.821   6.887 -1.0581  0.2261  0.0970
29409SOL    HW292590  10.677   4.893   6.754  2.4037  0.8612  0.7427
29410SOL     OW92591   6.990   3.062  10.324 -0.3689  0.1179 -0.6925
29410SOL    HW192592   7.052   2.998  10.289 -0.6031 -0.4641 -0.0606
29410SOL    HW292593   7.015   3.070  10.416  1.3473  2.8847 -1.2672
29411SOL     OW92594   6.436   4.537   9.743  0.0784  0.1671  0.1694
29411SOL    HW192595   6.529   4.557   9.746  0.2158 -0.1144 -1.3959
29411SOL    HW292596   6.422   4.499   9.656 -1.5088  0.2721  0.3427
29412SOL     OW92597   1.558   7.530   9.918  0.9519  0.0391 -0.5875
29412SOL    HW192598   1.639   7.536   9.968  0.9801  0.0859 -0.6390
29412SOL    HW292599   1.535   7.621   9.898  0.1528  0.1307  0.5949
29413SOL     OW92600   6.261   4.142   3.722  0.5299  0.6876  0.3305
29413SOL    HW192601   6.270   4.112   3.632  1.7629 -0.6086  0.8567
29413SOL    HW292602   6.230   4.232   3.715  1.7083  0.9775 -1.3961
29414SOL     OW92603  10.829   2.349   4.527 -0.1799 -0.9315 -0.2991
29414SOL    HW192604  10.902   2.411   4.536 -2.2761  1.4847  1.3196
29414SOL    HW292605  10.841   2.289   4.600 -0.3938  0.1642  0.6738
29415SOL     OW92606   3.834   1.104   8.986  0.3218  0.0596 -0.1256
29415SOL    HW192607   3.872   1.185   9.020  0.6523 -0.9405  2.0469
29415SOL    HW292608   3.777   1.073   9.057  1.4659 -2.4209 -0.1882
29416SOL     OW92609  10.493   9.568   6.422 -0.7574 -0.1192  0.3420
29416SOL    HW192610  10.428   9.592   6.355 -1.2603 -2.1613  0.0246
29416SOL    HW292611  10.527   9.651   6.453  0.2481  0.9533 -3.1496
29417SOL     OW92612   3.115   6.709   5.403  0.4345 -0.2884 -0.0144
29417SOL    HW192613   3.057   6.672   5.336  0.0099  0.7396 -0.2275
29417SOL    HW292614   3.203   6.703   5.365  0.1065  1.1009 -1.0718
29418SOL     OW92615   7.395   6.512   6.674  0.0695  0.0183 -0.1149
29418SOL    HW192616   7.357   6.513   6.586  0.8519 -0.2051 -0.4626
29418SOL    HW292617   7.388   6.603   6.704 -1.6488 -0.1942  0.2472
29419SOL     OW92618  10.834  10.520   0.717 -0.2622  0.9004 -0.6941
29419SOL    HW192619  10.903  10.481   0.664 -0.1616 -1.5674  1.0741
29419SOL    HW292620  10.851  10.614   0.714  2.0564  0.5080 -1.7942
29420SOL     OW92621   3.623  10.363   8.132  0.3834 -0.1772 -0.1518
29420SOL    HW192622   3.642  10.270   8.145 -1.6284 -0.5138  0.7134
29420SOL    HW292623   3.562  10.365   8.059 -3.0835 -0.0507  2.5252
29421SOL     OW92624  10.694  10.464   3.860 -1.0096 -0.0987 -0.3601
29421SOL    HW192625  10.767  10.514   3.823 -0.6903 -0.4182 -0.1779
29421SOL    HW292626  10.690  10.493   3.951 -2.0087  0.9316 -0.7179
29422SOL     OW92627   6.443   6.971   9.619 -0.5797 -0.5905 -0.0130
29422SOL    HW192628   6.529   6.977   9.578 -0.5564  0.5138  0.1785
29422SOL    HW292629   6.458   6.923   9.701 -0.3552 -1.3783 -0.4977
29423SOL     OW92630   7.309   1.631   6.385  0.2040  0.8625  0.0160
29423SOL    HW192631   7.268   1.551   6.351 -0.8183  1.1524  0.5043
29423SOL    HW292632   7.386   1.600   6.433  1.3722  0.4057 -2.0365
29424SOL     OW92633  11.016  10.516   6.869  0.8848 -0.4740 -0.4991
29424SOL    HW192634  10.935  10.467   6.855  1.1855 -1.1258 -0.0505
29424SOL    HW292635  10.988  10.605   6.887  0.2504 -0.7309 -0.1863
29425SOL     OW92636   0.589   8.509   3.431 -0.2767  0.0335 -0.8220
29425SOL    HW192637   0.573   8.486   3.339 -3.0973  0.0352 -0.4162
29425SOL    HW292638   0.578   8.604   3.434 -2.2731 -0.1806 -0.1841
29426SOL     OW92639  10.334   4.902   6.561 -0.4300 -0.2319  0.8537
29426SOL    HW192640  10.339   4.989   6.521 -1.6181 -0.3235  0.4424
29426SOL    HW292641  10.283   4.916   6.641 -0.4702 -0.5154  0.8784
29427SOL     OW92642   0.275   7.780  10.402 -0.0692  0.1149 -0.1700
29427SOL    HW192643   0.285   7.876  10.403 -1.6263  0.3061  0.0633
29427SOL    HW292644   0.352   7.747  10.447  1.0482  1.1910 -1.2101
29428SOL     OW92645   2.131   3.645   9.576 -0.5295  0.1449  0.4748
29428SOL    HW192646   2.187   3.568   9.567 -0.7055 -0.2803  2.5791
29428SOL    HW292647   2.085   3.651   9.493 -0.3160 -1.8705  0.1595
29429SOL     OW92648   2.929  10.520   9.970  0.2112 -0.7719  0.2165
29429SOL    HW192649   2.837  10.541   9.982  0.2739 -0.4906  0.2123
29429SOL    HW292650   2.934  10.425   9.982 -0.3285 -1.0268 -1.3106
29430SOL     OW92651   0.188   3.491   7.029  0.5398 -0.5422  0.4746
29430SOL    HW192652   0.265   3.531   7.070  0.7443 -1.1873  0.7343
29430SOL    HW292653   0.187   3.401   7.062 -0.3723 -0.5210  0.5278
29431SOL     OW92654  11.086  11.073   6.848 -0.4179  0.6179  0.1428
29431SOL    HW192655  11.154  11.058   6.912  0.3085  1.2123 -0.4773
29431SOL    HW292656  11.004  11.053   6.894  0.1963 -0.8381  0.6725
29432SOL     OW92657   8.290   2.461   3.200  0.4282 -0.0674 -0.0363
29432SOL    HW192658   8.302   2.516   3.122  2.9569  1.6898  1.4737
29432SOL    HW292659   8.330   2.377   3.176  2.7706  1.0112 -0.1183
29433SOL     OW92660   6.789   5.548   8.700 -0.3045 -0.5422  0.1634
29433SOL    HW192661   6.694   5.555   8.686 -0.3005 -1.0034 -0.1059
29433SOL    HW292662   6.806   5.453   8.704  0.4702 -0.5580 -2.0710
29434SOL     OW92663   2.043  10.631   9.598  0.5209 -0.3110 -0.4189
29434SOL    HW192664   2.077  10.609   9.685  1.2105 -0.5953 -0.7527
29434SOL    HW292665   2.080  10.564   9.541  0.1734 -0.0471 -0.9552
29435SOL     OW92666   0.281  10.666   9.928  0.6379  0.0851  0.6452
29435SOL    HW192667   0.222  10.742   9.934 -2.8684 -2.4225  1.5796
29435SOL    HW292668   0.333  10.670  10.008  0.4251  1.3832  0.7504
29436SOL     OW92669   6.703   6.201   1.162  0.7329 -0.0573 -0.2637
29436SOL    HW192670   6.701   6.236   1.251  1.5476  0.6384 -0.5047
29436SOL    HW292671   6.637   6.132   1.162  1.0103 -0.3520  0.9943
29437SOL     OW92672   8.400   0.538   1.974  0.3246 -0.0257  0.1212
29437SOL    HW192673   8.430   0.619   2.014 -0.1970  0.6832 -0.8739
29437SOL    HW292674   8.337   0.502   2.037 -0.2968  0.9371  0.0660
29438SOL     OW92675   0.615  10.301  10.412 -0.0513  0.1125 -0.4466
29438SOL    HW192676   0.597  10.247  10.489  1.9772 -0.2928 -0.2147
29438SOL    HW292677   0.564  10.261  10.342 -1.0936 -0.1439  0.4247
29439SOL     OW92678   7.558   3.292   9.017  0.2594 -0.2995 -0.2350
29439SOL    HW192679   7.631   3.347   9.046 -0.1063 -0.3070  0.7535
29439SOL    HW292680   7.480   3.334   9.054 -0.1041 -1.0329 -0.1503
29440SOL     OW92681   0.456   5.976   7.435 -0.5941  0.1811 -0.5555
29440SOL    HW192682   0.437   5.989   7.342 -0.7044 -1.0177 -0.7244
29440SOL    HW292683   0.517   5.901   7.436 -1.0381 -0.1815  0.3598
29441SOL     OW92684  10.272   8.843   0.905  0.0204  0.5537  0.2529
29441SOL    HW192685  10.210   8.885   0.846 -0.3663 -1.7880 -1.1643
29441SOL    HW292686  10.222   8.824   0.984 -0.3464  0.9664  0.1166
29442SOL     OW92687   7.060   6.601   0.491 -0.2056 -0.0200 -0.7377
29442SOL    HW192688   7.101   6.530   0.441  0.4338  0.4664 -0.9109
29442SOL    HW292689   6.968   6.598   0.465 -0.8028 -2.5019  1.2419
29443SOL     OW92690   4.045   6.359  10.422  0.7382  0.4534 -0.3619
29443SOL    HW192691   4.038   6.423  10.493 -1.6402 -0.5311  0.4292
29443SOL    HW292692   4.043   6.411  10.342 -4.0133  1.4956  0.1329
29444SOL     OW92693   0.175  10.483   2.171 -0.1435 -0.1341 -0.5041
29444SOL    HW192694   0.103  10.539   2.200  0.7233  1.5434 -1.4303
29444SOL    HW292695   0.197  10.431   2.248 -1.7267 -0.0339  0.0631
29445SOL     OW92696   6.466   2.445   3.993  0.4842 -0.5783  0.1527
29445SOL    HW192697   6.544   2.479   3.950 -0.6756  2.9672  0.5482
29445SOL    HW292698   6.418   2.399   3.924  0.2774  2.0683 -1.5696
29446SOL     OW92699   0.828   6.127   6.730  0.1277 -0.1849 -0.3428
29446SOL    HW192700   0.919   6.155   6.723  0.4395 -1.3364 -1.2354
29446SOL    HW292701   0.809   6.087   6.646 -1.5064  0.8384 -0.4877
29447SOL     OW92702   8.780   1.653  10.030  0.1725 -0.4392 -0.1348
29447SOL    HW192703   8.729   1.591   9.978 -1.4545 -0.2191  1.1435
29447SOL    HW292704   8.862   1.606  10.049 -1.1258 -2.3849  1.0743
29448SOL     OW92705   1.739  10.696   9.456 -0.2304  0.2132 -0.0430
29448SOL    HW192706   1.802  10.653   9.512  0.4851  1.7349  0.3648
29448SOL    HW292707   1.670  10.630   9.442  1.1139 -1.2518  0.0028
29449SOL     OW92708  10.805   1.089   3.664 -0.0164 -0.0137  0.1753
29449SOL    HW192709  10.746   1.041   3.607  0.1223 -1.0050  0.8375
29449SOL    HW292710  10.755   1.167   3.691 -0.2440  0.2272 -0.9002
29450SOL     OW92711   8.069   2.962   3.556 -0.3543 -0.4395  0.3287
29450SOL    HW192712   8.048   3.014   3.478 -2.1128  1.1947  1.8016
29450SOL    HW292713   8.067   2.871   3.525 -2.3685  0.0735 -1.2996
29451SOL     OW92714   6.327   7.754   5.127 -0.0567 -0.4057  0.0035
29451SOL    HW192715   6.242   7.711   5.127  0.5943 -1.7703 -0.5111
29451SOL    HW292716   6.354   7.753   5.035  0.3933  0.2603  0.1222
29452SOL     OW92717   1.416   5.546   1.123 -0.6370 -0.6657 -0.0252
29452SOL    HW192718   1.462   5.516   1.045  1.2578 -0.0296  0.7824
29452SOL    HW292719   1.325   5.554   1.096  0.2258  1.2388 -2.6847
29453SOL     OW92720   3.919   5.692   0.586 -0.2404 -0.1134 -1.0875
29453SOL    HW192721   3.909   5.608   0.631  0.1419 -0.2266 -1.2090
29453SOL    HW292722   3.839   5.741   0.608 -1.2241 -1.0966 -2.2696
29454SOL     OW92723   4.593   5.458  10.473  0.0961  0.2203 -0.3852
29454SOL    HW192724   4.507   5.459  10.432  0.4976  1.2122 -1.2835
29454SOL    HW292725   4.628   5.371  10.453 -0.5712 -0.0698 -0.2962
29455SOL     OW92726   0.666   3.898   2.085 -0.2453 -0.0513 -0.3726
29455SOL    HW192727   0.611   3.832   2.127 -1.0328 -0.0487 -1.3732
29455SOL    HW292728   0.731   3.848   2.036  0.3863 -0.0562  0.4492
29456SOL     OW92729   6.556  10.758   4.846 -0.2517 -0.3571 -0.3363
29456SOL    HW192730   6.474  10.712   4.831 -0.1143 -0.5868 -0.3794
29456SOL    HW292731   6.540  10.811   4.924 -0.5007 -0.2568 -0.4533
29457SOL     OW92732   1.266   6.845   4.883 -0.0791  0.3865 -0.2179
29457SOL    HW192733   1.293   6.932   4.914  0.9375  0.2524 -0.6750
29457SOL    HW292734   1.184   6.860   4.836 -0.0601  1.0557 -0.0420
29458SOL     OW92735   0.631   8.682   2.892  0.2822  0.2731  0.3766
29458SOL    HW192736   0.576   8.740   2.946  0.8897  1.6169 -0.3851
29458SOL    HW292737   0.668   8.740   2.826  1.7218 -0.8214  0.1767
29459SOL     OW92738  10.207  10.624   3.836 -0.0357 -0.1999 -0.2275
29459SOL    HW192739  10.220  10.609   3.929  0.7010  0.3019 -0.2362
29459SOL    HW292740  10.123  10.584   3.816 -0.7290  0.6316  0.8747
29460SOL     OW92741  10.603  10.771  11.095  0.7072 -0.9089 -0.2128
29460SOL    HW192742  10.614  10.799  11.004  0.9466 -1.5736 -0.3901
29460SOL    HW292743  10.631  10.847  11.146  1.1010 -0.7231 -0.6893
29461SOL     OW92744   5.225   8.869   8.458 -0.0201 -0.0965  0.3594
29461SOL    HW192745   5.171   8.947   8.470  2.2001  1.3126  2.2741
29461SOL    HW292746   5.271   8.883   8.375 -1.1668 -0.4224 -0.3470
29462SOL     OW92747   3.732   4.499   1.719  0.1384  0.2694 -0.3313
29462SOL    HW192748   3.711   4.407   1.735  1.0844  0.3979  2.1992
29462SOL    HW292749   3.713   4.512   1.626  0.4918 -2.6163 -0.9287
29463SOL     OW92750   2.847   2.577   7.573 -0.3299  0.0353 -0.7902
29463SOL    HW192751   2.847   2.612   7.484 -2.1236  1.2843 -0.3659
29463SOL    HW292752   2.803   2.645   7.625 -1.5517 -1.7252  0.5937
29464SOL     OW92753   2.007   0.902   7.187  0.0733  0.2268 -0.1507
29464SOL    HW192754   1.993   0.874   7.277  2.0244  0.6607  0.3407
29464SOL    HW292755   2.046   0.826   7.143  0.6768  0.5378 -0.1665
29465SOL     OW92756   0.085   6.843   9.134  0.5095 -0.2478  0.3073
29465SOL    HW192757   0.153   6.902   9.168 -0.5047  0.1194  1.7572
29465SOL    HW292758   0.123   6.755   9.142  1.3887  0.0645 -0.3205
29466SOL     OW92759  10.198   1.951   3.176 -0.4211 -0.4621 -0.0720
29466SOL    HW192760  10.138   1.911   3.239  1.1683 -1.0667  1.1078
29466SOL    HW292761  10.162   2.039   3.161 -0.8564 -0.3150  1.6413
29467SOL     OW92762   0.917   4.618   8.493 -0.2404  0.7476 -0.7272
29467SOL    HW192763   1.010   4.635   8.508  0.3133 -1.5978 -1.0378
29467SOL    HW292764   0.916   4.545   8.431 -2.2311 -0.5449  0.6998
29468SOL     OW92765   4.139   5.457   2.683  0.7578 -0.2247 -0.7913
29468SOL    HW192766   4.168   5.548   2.691 -1.1191  0.3304  0.0914
29468SOL    HW292767   4.059   5.461   2.632 -0.9786 -0.9920  1.7006
29469SOL     OW92768   2.158   6.344   7.170 -0.1328  0.2238  0.0405
29469SOL    HW192769   2.189   6.284   7.238  0.4815  0.7421  0.2330
29469SOL    HW292770   2.077   6.305   7.138 -1.0027  0.4695  1.7817
29470SOL     OW92771   3.648   7.669   5.778  0.1078  0.3317 -0.5699
29470SOL    HW192772   3.673   7.695   5.689 -1.9133 -0.6113 -1.4862
29470SOL    HW292773   3.563   7.625   5.767  0.2320 -0.6224  1.7189
29471SOL     OW92774   0.287   5.899   7.081 -0.1221  0.0453 -0.2289
29471SOL    HW192775   0.203   5.918   7.040 -0.7640 -0.6598  0.7027
29471SOL    HW292776   0.347   5.886   7.008 -1.1413 -0.7787 -0.9540
29472SOL     OW92777   7.749   6.778  10.946  0.4904  0.1361 -0.0578
29472SOL    HW192778   7.790   6.860  10.917  0.8346 -0.2941 -0.8240
29472SOL    HW292779   7.811   6.710  10.920  0.0020 -0.4015  0.1716
29473SOL     OW92780   8.484   2.963   9.350 -0.3145  0.1804 -0.4055
29473SOL    HW192781   8.434   2.984   9.271  0.4723 -1.5133 -1.4055
29473SOL    HW292782   8.428   2.903   9.399  0.2179 -0.8278 -0.9828
29474SOL     OW92783   8.752   5.374   4.091 -0.2496  0.0292 -0.3848
29474SOL    HW192784   8.674   5.396   4.142 -1.1659 -0.0539 -1.6998
29474SOL    HW292785   8.728   5.394   4.001  1.2675  0.0085 -0.8139
29475SOL     OW92786   8.951   6.029   7.653  0.5316  0.2209  0.3148
29475SOL    HW192787   9.037   6.060   7.622  0.7452 -0.3776  0.2990
29475SOL    HW292788   8.896   6.107   7.652  0.5830  0.2690 -1.4042
29476SOL     OW92789   4.144   2.126   5.498  0.3589  0.0943 -0.6521
29476SOL    HW192790   4.204   2.189   5.538 -0.0799 -0.3063  0.6943
29476SOL    HW292791   4.058   2.170   5.502  0.5072  0.6238 -2.4635
29477SOL     OW92792   4.886   0.499   1.690  0.0573 -0.5340  0.0520
29477SOL    HW192793   4.884   0.431   1.758  1.1878 -0.7091 -0.0609
29477SOL    HW292794   4.958   0.557   1.717 -0.4660  0.2590 -0.2014
29478SOL     OW92795   3.118   4.163  10.028 -0.2812 -0.0658 -0.4931
29478SOL    HW192796   3.032   4.179   9.991  0.2392 -0.6968 -2.0664
29478SOL    HW292797   3.134   4.069  10.014  1.1461  0.2738 -1.4021
29479SOL     OW92798   6.404  10.464   1.068  0.5748  1.2171  0.2155
29479SOL    HW192799   6.459  10.529   1.114  0.7284  0.4054  1.2135
29479SOL    HW292800   6.464  10.422   1.007  1.0086  0.5588  1.0727
29480SOL     OW92801   3.321   2.843   5.321 -0.0650 -0.3156  0.0346
29480SOL    HW192802   3.313   2.748   5.311  0.3580 -0.5185  1.4116
29480SOL    HW292803   3.367   2.871   5.242  0.5728 -1.3762  0.0023
29481SOL     OW92804   1.544   3.368   2.429  0.3280  0.0755  0.0638
29481SOL    HW192805   1.534   3.297   2.493  1.8455  1.5917  2.1238
29481SOL    HW292806   1.624   3.347   2.381 -0.8859 -1.1353 -1.5208
29482SOL     OW92807   9.936   7.258  10.394  0.4867  0.2975 -0.1013
29482SOL    HW192808  10.013   7.273  10.339 -0.5071  0.8791 -1.3889
29482SOL    HW292809   9.882   7.337  10.383 -0.7626 -0.5099 -0.0294
29483SOL     OW92810   0.047   3.967   5.088  0.3578  0.2037 -0.4460
29483SOL    HW192811   0.037   3.972   5.183  0.5177 -1.0740 -0.3551
29483SOL    HW292812   0.098   3.888   5.073 -1.4356 -0.7595 -1.7216
29484SOL     OW92813   9.021   5.151   3.405  0.2834  0.0256  0.0914
29484SOL    HW192814   9.100   5.147   3.351  0.6243  2.8791  0.2136
29484SOL    HW292815   9.053   5.180   3.491 -0.8002  0.3760  0.3924
29485SOL     OW92816   3.673   5.361   8.462 -0.4480 -0.2177  0.9331
29485SOL    HW192817   3.585   5.393   8.485  0.3682  1.6566  1.6122
29485SOL    HW292818   3.671   5.268   8.485 -3.3773 -1.1923 -2.4141
29486SOL     OW92819  10.526   8.234   4.481 -0.0092 -0.5044 -0.0435
29486SOL    HW192820  10.520   8.284   4.562 -0.2946 -0.2646 -0.2114
29486SOL    HW292821  10.567   8.151   4.507  0.3609 -0.2323  0.2527
29487SOL     OW92822   1.786   5.893   9.990  0.2353 -0.5005  0.2095
29487SOL    HW192823   1.697   5.864  10.009 -0.7677  0.6169 -2.2663
29487SOL    HW292824   1.794   5.978  10.034  0.4064 -0.9715  1.1108
29488SOL     OW92825   3.541   3.361   6.279 -0.1793  0.6303  0.1173
29488SOL    HW192826   3.585   3.307   6.345  0.8294 -0.1535 -1.1486
29488SOL    HW292827   3.583   3.447   6.286 -0.6237  0.7888  1.0027
29489SOL     OW92828   6.976   1.555   6.369  0.4231  0.4240  0.8436
29489SOL    HW192829   6.964   1.618   6.298  0.1045 -0.6471 -0.0798
29489SOL    HW292830   7.030   1.486   6.330 -1.0888 -0.9808  1.1220
29490SOL     OW92831   5.691   7.348   5.704  0.5477  0.0735  0.0821
29490SOL    HW192832   5.646   7.432   5.690  0.0128 -0.0021  1.2020
29490SOL    HW292833   5.764   7.349   5.642 -0.0435  0.9236 -0.6323
29491SOL     OW92834   5.990   4.628   7.563  0.3822 -0.0089  0.1740
29491SOL    HW192835   5.902   4.593   7.549 -0.3329  2.2824 -1.6782
29491SOL    HW292836   6.044   4.582   7.499 -0.0913  0.5905 -0.6834
29492SOL     OW92837   9.357   0.322   3.301  0.3254 -0.1081  0.2525
29492SOL    HW192838   9.323   0.311   3.212 -0.5347  0.6925  0.4742
29492SOL    HW292839   9.279   0.318   3.357  0.9270 -1.3337  1.0529
29493SOL     OW92840   1.581   4.718   7.350  0.0141 -0.5151  0.0529
29493SOL    HW192841   1.557   4.740   7.259 -0.5871 -2.9657 -0.4440
29493SOL    HW292842   1.509   4.662   7.380  1.0388 -1.1034  1.4798
29494SOL     OW92843   7.876  10.097   4.276  0.1003  0.3501  0.4754
29494SOL    HW192844   7.952  10.042   4.254  0.2883  0.5473  0.6274
29494SOL    HW292845   7.857  10.075   4.368 -3.0888 -3.3838 -0.7876
29495SOL     OW92846   1.682   3.564   3.997 -0.3303 -0.2061  0.1256
29495SOL    HW192847   1.731   3.522   4.068 -0.4014 -0.3919  0.0637
29495SOL    HW292848   1.637   3.493   3.953 -2.8118  0.1852  1.7782
29496SOL     OW92849   3.094   0.318   6.698  0.4688  0.0782  0.2251
29496SOL    HW192850   3.104   0.294   6.790  2.3612 -1.7851 -0.3950
29496SOL    HW292851   3.003   0.294   6.677 -0.2491  1.2542  1.7441
29497SOL     OW92852   3.671   1.104   3.285 -0.0645  0.1140  0.4974
29497SOL    HW192853   3.608   1.159   3.333 -0.5954 -1.1335  1.2599
29497SOL    HW292854   3.751   1.111   3.336 -0.2954 -0.2652  0.9205
29498SOL     OW92855   0.616  11.058   4.980  0.1364  0.1435  0.0349
29498SOL    HW192856   0.706  11.043   5.010  0.7408  0.5759 -1.4340
29498SOL    HW292857   0.563  10.997   5.030  1.3139 -0.4191  0.6306
29499SOL     OW92858  11.075   9.312   6.500 -0.3085 -0.3939 -0.3565
29499SOL    HW192859  11.065   9.332   6.407 -1.5848 -1.5184 -0.4758
29499SOL    HW292860  11.153   9.256   6.504 -0.1677 -0.2292 -0.7145
29500SOL     OW92861   3.402   5.888   9.733  0.0264 -0.3507 -0.0362
29500SOL    HW192862   3.380   5.812   9.787 -0.8303 -1.6047 -2.0325
29500SOL    HW292863   3.498   5.884   9.725  0.0593 -0.7864  0.4451
29501SOL     OW92864   4.247  10.491   8.351 -0.0690  0.1299 -0.1835
29501SOL    HW192865   4.226  10.560   8.288 -0.4417 -0.8656 -1.1791
29501SOL    HW292866   4.272  10.538   8.431  1.0456  1.4392 -1.2491
29502SOL     OW92867   1.927   7.446   0.827 -0.0150  0.2166  0.2073
29502SOL    HW192868   1.961   7.368   0.871  1.3639  0.3892 -0.5205
29502SOL    HW292869   1.910   7.418   0.737 -1.9381  0.1126  0.5566
29503SOL     OW92870   2.790   9.184   8.016 -0.7645 -0.0455  0.1758
29503SOL    HW192871   2.841   9.202   8.096 -2.5680  0.4984  1.2650
29503SOL    HW292872   2.802   9.262   7.962 -1.5854  0.7466  1.0848
29504SOL     OW92873   9.698   2.945   8.261 -0.2487  0.7440  0.0097
29504SOL    HW192874   9.775   2.899   8.294 -0.8968  0.5173  1.2581
29504SOL    HW292875   9.654   2.979   8.339 -0.8286  1.8220 -0.7535
29505SOL     OW92876   0.664   4.849  10.793 -0.1194  0.9257 -0.2234
29505SOL    HW192877   0.716   4.774  10.823  0.4310  2.1346  2.0776
29505SOL    HW292878   0.716   4.926  10.818 -1.3926  2.1381 -1.1105
29506SOL     OW92879   2.476   5.330   5.725  0.8781  0.3692  0.2092
29506SOL    HW192880   2.401   5.384   5.751  0.6820  0.7286 -1.0071
29506SOL    HW292881   2.442   5.273   5.656  1.7721  0.7493 -0.5773
29507SOL     OW92882   7.615  10.264   5.135  0.1859  0.2970  0.1272
29507SOL    HW192883   7.520  10.264   5.125  0.0177  1.0265  1.5142
29507SOL    HW292884   7.636  10.177   5.168 -0.0963  0.3942  0.5690
29508SOL     OW92885  10.707   0.076   0.248  0.1397  0.3430 -0.1608
29508SOL    HW192886  10.760   0.149   0.280  1.5825 -0.3370 -0.8884
29508SOL    HW292887  10.708   0.013   0.319 -0.0124  0.4834 -0.0328
29509SOL     OW92888   7.073   4.016   8.150  0.1624  0.5135 -0.2034
29509SOL    HW192889   7.112   3.940   8.106 -0.7886  0.4371 -0.9488
29509SOL    HW292890   7.086   3.999   8.244  1.2761  0.1659 -0.4024
29510SOL     OW92891   6.584   7.837   3.156  0.1082 -0.4017  0.7600
29510SOL    HW192892   6.588   7.761   3.214 -1.8482 -0.0332  1.4581
29510SOL    HW292893   6.614   7.910   3.210 -0.3482 -0.2908  0.8671
29511SOL     OW92894   7.605   9.282   5.216 -0.2974  0.5152 -0.1060
29511SOL    HW192895   7.621   9.346   5.147 -0.3716 -0.8277 -1.4168
29511SOL    HW292896   7.525   9.236   5.188 -0.2410 -0.1569  0.7840
29512SOL     OW92897   0.137   1.242   5.832 -0.2240  0.5257  0.4632
29512SOL    HW192898   0.097   1.194   5.905 -1.1322 -1.1194 -1.0497
29512SOL    HW292899   0.073   1.234   5.761  1.0632  1.2622 -0.8155
29513SOL     OW92900   6.759   6.492   1.618  0.2172  0.3575 -0.0811
29513SOL    HW192901   6.792   6.566   1.567 -0.6433  0.1850 -0.8952
29513SOL    HW292902   6.672   6.519   1.647 -0.3048 -0.5203 -0.7903
29514SOL     OW92903   6.008   0.496   1.437  0.1375 -0.4432 -0.6880
29514SOL    HW192904   5.950   0.570   1.423 -0.2550 -0.7161 -0.5136
29514SOL    HW292905   5.983   0.461   1.523  0.0879 -0.9832 -0.9161
29515SOL     OW92906   8.957   6.525   6.585  0.5752  0.3105  0.1174
29515SOL    HW192907   9.021   6.466   6.545  0.1525 -0.1458  0.1035
29515SOL    HW292908   8.991   6.612   6.567  0.9689  0.0840 -0.2715
29516SOL     OW92909   6.790   8.740   8.663 -0.2834  0.0855 -0.2426
29516SOL    HW192910   6.747   8.730   8.578  0.5964 -0.3788 -0.6543
29516SOL    HW292911   6.731   8.698   8.725 -0.3148 -0.7798 -0.8321
29517SOL     OW92912   8.640   4.609   3.018  0.2155  0.1836  0.4411
29517SOL    HW192913   8.569   4.556   2.982  0.6706  0.2137 -0.5297
29517SOL    HW292914   8.621   4.698   2.988  0.9953  0.0867 -0.3518
29518SOL     OW92915  10.928   3.124   1.205 -0.0137 -0.7178 -0.4494
29518SOL    HW192916  10.918   3.081   1.289  0.3673 -1.3048 -0.7011
29518SOL    HW292917  10.868   3.199   1.209  0.4600 -0.3725  0.5821
29519SOL     OW92918  10.816   2.808   7.010  0.2994 -0.0881 -0.0194
29519SOL    HW192919  10.823   2.785   6.917  0.7596 -2.4518  0.5159
29519SOL    HW292920  10.795   2.901   7.011 -0.3810 -0.1463 -2.5028
29520SOL     OW92921   0.535  11.011  10.092  0.6375 -0.1298  0.2414
29520SOL    HW192922   0.496  10.975  10.172  0.3664 -0.8836 -0.2169
29520SOL    HW292923   0.477  11.083  10.067  0.7758  0.1660  0.7707
29521SOL     OW92924   6.835   8.239   1.058 -0.0090 -0.7704 -0.5981
29521SOL    HW192925   6.798   8.324   1.035  0.1863 -0.7853 -0.9671
29521SOL    HW292926   6.806   8.225   1.149  0.8253  0.1617 -0.1722
29522SOL     OW92927   0.849   8.196  10.421  0.3251 -0.1921  0.4924
29522SOL    HW192928   0.878   8.178  10.511 -0.4984  1.7642  1.2067
29522SOL    HW292929   0.888   8.281  10.400 -0.6832  0.0470 -0.4635
29523SOL     OW92930   0.699   8.124   3.432  0.3700  0.1102 -0.2182
29523SOL    HW192931   0.752   8.199   3.406 -0.3512 -0.1851 -2.7637
29523SOL    HW292932   0.626   8.123   3.370 -1.2709 -0.9738  1.6171
29524SOL     OW92933   9.168  11.084   3.710 -0.1050 -0.5964 -0.1868
29524SOL    HW192934   9.187  11.091   3.804  1.5251 -0.5454 -0.5036
29524SOL    HW292935   9.181  10.991   3.691 -1.7368 -0.8765 -0.1341
29525SOL     OW92936   0.291   6.966   8.843  0.5661 -0.5174 -0.6399
29525SOL    HW192937   0.345   6.988   8.919 -1.6636  1.5625  0.4747
29525SOL    HW292938   0.281   6.871   8.847  1.9634 -0.6459  0.6133
29526SOL     OW92939   4.968   4.909   9.439  0.7342 -0.0540 -0.6496
29526SOL    HW192940   5.025   4.844   9.399  1.7725  0.4926 -0.1114
29526SOL    HW292941   4.935   4.867   9.518  0.9157 -0.1484 -0.6237
29527SOL     OW92942   9.940   5.593   5.505 -0.4623 -0.0112  0.4759
29527SOL    HW192943   9.953   5.507   5.545 -0.8221 -0.2858  0.0208
29527SOL    HW292944  10.009   5.647   5.541  1.2525 -1.1079 -1.0208
29528SOL     OW92945   8.829   8.303   6.707 -0.0699 -0.5947  0.1552
29528SOL    HW192946   8.917   8.280   6.737  0.2196  0.5696  0.2533
29528SOL    HW292947   8.783   8.330   6.786 -1.6914 -4.3837  0.7479
29529SOL     OW92948   0.055   5.053   4.408 -0.1863  0.5274  0.5327
29529SOL    HW192949   0.122   5.114   4.376 -0.4348  1.6718  2.0657
29529SOL    HW292950   0.091   4.966   4.390  0.2407  1.0744 -1.5933
29530SOL     OW92951   0.560   5.916   2.409 -0.0063 -0.1923  0.2975
29530SOL    HW192952   0.539   5.946   2.497 -1.5952  0.6678 -0.3345
29530SOL    HW292953   0.516   5.978   2.351  0.9962 -0.7393 -1.1219
29531SOL     OW92954   9.279   8.059   7.233  0.1399  0.5148  0.3623
29531SOL    HW192955   9.287   8.154   7.224  0.9836  0.6636  2.1931
29531SOL    HW292956   9.368   8.029   7.251  0.1788 -0.8637 -1.6947
29532SOL     OW92957  10.053  10.659   2.929  0.2720  0.2945  0.0198
29532SOL    HW192958   9.974  10.620   2.966  2.0520 -1.6970  2.0515
29532SOL    HW292959  10.065  10.740   2.979  2.0930 -1.8660  3.5110
29533SOL     OW92960   8.202   9.042   9.623  0.2603 -0.2312 -0.1932
29533SOL    HW192961   8.270   8.975   9.633  1.7441  1.0936 -0.8913
29533SOL    HW292962   8.241   9.121   9.662 -0.4175  0.8444 -1.6244
29534SOL     OW92963   4.670   1.502   7.524 -0.1792  0.0234 -0.1026
29534SOL    HW192964   4.651   1.459   7.608  0.1673  1.6243  0.8478
29534SOL    HW292965   4.584   1.522   7.488 -0.3325 -0.5807 -0.0798
29535SOL     OW92966   1.809  10.798   9.748 -0.1021  0.1552 -0.0930
29535SOL    HW192967   1.813  10.716   9.797 -0.0236  0.5337  0.5452
29535SOL    HW292968   1.795  10.865   9.814  2.1447  0.9384 -0.3187
29536SOL     OW92969   9.737   2.448   1.284 -0.0372 -0.1631  0.3846
29536SOL    HW192970   9.750   2.360   1.249  1.4796 -0.5252  1.6983
29536SOL    HW292971   9.812   2.498   1.250 -1.3998  0.9406 -1.1552
29537SOL     OW92972   4.749   3.276   9.394  0.7606  0.1134  0.3468
29537SOL    HW192973   4.757   3.265   9.299  0.5327  0.7417  0.2494
29537SOL    HW292974   4.825   3.231   9.430  0.0590 -1.4548 -0.0377
29538SOL     OW92975   5.253   8.570   3.924 -0.3526 -0.2510  0.2832
29538SOL    HW192976   5.325   8.603   3.978 -1.1426 -0.5368  1.5407
29538SOL    HW292977   5.177   8.621   3.952 -0.4778  0.8676 -1.8234
29539SOL     OW92978   7.854   1.448   5.023  0.2424 -0.4011 -0.1148
29539SOL    HW192979   7.825   1.357   5.023  1.5027 -0.8268  0.3756
29539SOL    HW292980   7.787   1.495   4.973 -0.1222 -1.6815 -0.8615
29540SOL     OW92981   1.295   7.460   2.757 -0.4517 -0.1841 -0.4144
29540SOL    HW192982   1.338   7.406   2.823 -0.7556 -1.4689 -1.2257
29540SOL    HW292983   1.292   7.548   2.795  0.2048 -0.7004  0.8753
29541SOL     OW92984   1.786   4.580  10.808 -0.2498 -0.1207 -0.2363
29541SOL    HW192985   1.724   4.515  10.840 -0.5035 -0.1125 -0.7046
29541SOL    HW292986   1.838   4.603  10.885 -0.7787 -0.1758  0.1436
29542SOL     OW92987   9.299   8.936   8.857  0.2342  0.0537 -0.4735
29542SOL    HW192988   9.324   8.909   8.946  0.2988  2.1944  0.2169
29542SOL    HW292989   9.381   8.935   8.808  0.3632 -0.2168 -0.2538
29543SOL     OW92990  10.084   3.053   7.040  0.2650  0.3174  0.5216
29543SOL    HW192991  10.086   2.959   7.060  1.1999  0.2160 -0.0279
29543SOL    HW292992  10.068   3.094   7.125  2.6883 -0.1964  1.3133
29544SOL     OW92993   3.700   1.671   2.899  0.2739 -0.4860  0.9171
29544SOL    HW192994   3.772   1.635   2.951  0.2250  0.3701  1.5865
29544SOL    HW292995   3.622   1.660   2.954  0.3948  1.4627  1.5415
29545SOL     OW92996   6.864   7.586   0.439 -0.6377 -0.4224 -0.0072
29545SOL    HW192997   6.923   7.529   0.489 -1.3770  0.3366  1.8034
29545SOL    HW292998   6.848   7.661   0.497 -2.3252  0.0273 -0.9953
29546SOL     OW92999   7.088   2.797   2.213  0.1342 -0.4450 -0.3423
29546SOL    HW193000   7.137   2.877   2.233  1.1779 -1.1015 -0.2523
29546SOL    HW293001   7.152   2.737   2.177 -0.8931 -0.8120 -1.6363
29547SOL     OW93002   7.914   6.048   9.950  0.0294  0.1219  0.0920
29547SOL    HW193003   7.865   6.041   9.868 -1.8484 -1.3163  1.2582
29547SOL    HW293004   7.985   5.984   9.942  0.3927  0.6214 -0.7371
29548SOL     OW93005   4.527   8.202   6.994  0.4515 -0.3034 -0.4589
29548SOL    HW193006   4.584   8.164   6.926 -0.3982  0.3832 -1.5791
29548SOL    HW293007   4.490   8.126   7.039  1.5138 -0.7631 -0.3241
29549SOL     OW93008   8.282   0.268   1.365  0.3394 -0.1770  0.0918
29549SOL    HW193009   8.367   0.260   1.410  1.4589  1.0782 -1.7016
29549SOL    HW293010   8.241   0.345   1.405 -0.2271 -1.0607  1.2969
29550SOL     OW93011   6.762   6.686   9.445  0.5046 -0.0646  0.6359
29550SOL    HW193012   6.702   6.644   9.506 -1.4069  0.4663 -0.7876
29550SOL    HW293013   6.762   6.629   9.368  1.1426  0.4072  0.2747
29551SOL     OW93014   2.447   8.886   3.071 -0.4215  0.6688  0.0026
29551SOL    HW193015   2.532   8.846   3.054 -0.8704 -0.2842 -0.0780
29551SOL    HW293016   2.387   8.812   3.080 -0.8473  1.2087  2.3974
29552SOL     OW93017   4.469   4.017   7.291 -0.0208  0.0471  0.5531
29552SOL    HW193018   4.550   4.058   7.262  0.8725 -0.5776  2.0239
29552SOL    HW293019   4.402   4.048   7.230  1.4519 -0.0168 -1.1414
29553SOL     OW93020   5.855  10.189   3.086  0.0004 -0.0230  0.0124
29553SOL    HW193021   5.807  10.180   3.004  1.2461 -0.1091 -0.7358
29553SOL    HW293022   5.932  10.133   3.075  1.6178  2.0187  0.1054
29554SOL     OW93023   9.857   5.874   0.928  0.0734  0.0333  0.0722
29554SOL    HW193024   9.944   5.835   0.937 -0.3534 -0.7433  1.1791
29554SOL    HW293025   9.830   5.853   0.839  0.7335 -0.3302 -0.0520
29555SOL     OW93026   8.742   2.239   8.475  0.2134 -0.4238 -0.1345
29555SOL    HW193027   8.805   2.305   8.503  1.4864 -1.5802 -0.2073
29555SOL    HW293028   8.707   2.202   8.557 -1.3783  1.0805 -0.0651
29556SOL     OW93029   1.186   3.801   3.397  0.3932  0.7761 -0.6235
29556SOL    HW193030   1.192   3.818   3.302  1.1339  0.8471 -0.5746
29556SOL    HW293031   1.278   3.796   3.425  0.2785 -2.6775 -0.5030
29557SOL     OW93032   4.568   3.391   1.637 -0.4930 -0.2164 -0.2228
29557SOL    HW193033   4.634   3.451   1.602 -1.1439 -0.3430 -1.7375
29557SOL    HW293034   4.586   3.389   1.731  1.4185  0.0269 -0.5364
29558SOL     OW93035   8.624   3.566   1.679  0.5450  0.2722  0.2253
29558SOL    HW193036   8.619   3.473   1.701 -1.0750  0.4364  0.6743
29558SOL    HW293037   8.697   3.599   1.730  1.1885 -0.7553  0.0066
29559SOL     OW93038   2.433   7.749   2.146 -0.1494 -0.0790 -0.6519
29559SOL    HW193039   2.424   7.664   2.102  0.0539  0.1869 -1.2165
29559SOL    HW293040   2.503   7.793   2.098 -1.7645  1.3285 -1.8066
29560SOL     OW93041   7.360   4.155   9.767 -0.1525 -0.4246 -0.0017
29560SOL    HW193042   7.347   4.147   9.673  1.1793 -2.1359 -0.0836
29560SOL    HW293043   7.406   4.075   9.792  0.4925  0.4897  1.9307
29561SOL     OW93044   9.175  10.399   3.678 -0.0234 -0.2978 -0.1656
29561SOL    HW193045   9.185  10.307   3.701 -1.4116 -0.7750 -1.3151
29561SOL    HW293046   9.080  10.413   3.674  0.1588  0.8574 -1.1738
29562SOL     OW93047   6.542   9.378   4.547 -0.0670  0.4340 -0.0058
29562SOL    HW193048   6.491   9.298   4.542  0.3636 -0.0576  2.4607
29562SOL    HW293049   6.609   9.368   4.479  1.3805 -2.3684  1.6634
29563SOL     OW93050   3.616   4.389   8.825 -0.0745 -0.0132 -0.3318
29563SOL    HW193051   3.647   4.325   8.761  0.4965  0.8925 -0.9949
29563SOL    HW293052   3.523   4.398   8.808  0.0499  0.1199 -0.9653
29564SOL     OW93053   6.131   2.598   2.354 -0.3430  0.5029 -0.0142
29564SOL    HW193054   6.149   2.660   2.283  2.1836 -0.8451 -0.6471
29564SOL    HW293055   6.187   2.627   2.426  0.2196 -0.5152 -0.0253
29565SOL     OW93056   9.848   5.141   8.954  0.8097 -0.2903 -0.0213
29565SOL    HW193057   9.943   5.144   8.957  0.7776 -0.1133  1.3025
29565SOL    HW293058   9.826   5.159   8.863  2.0096  0.7446 -0.1223
29566SOL     OW93059   8.181   2.327  10.220 -0.2584 -0.2767  0.1827
29566SOL    HW193060   8.233   2.343  10.141 -0.0639  1.2061  0.5858
29566SOL    HW293061   8.125   2.252  10.197  1.4531 -1.3920 -0.5354
29567SOL     OW93062   6.563   0.825   6.635  0.1825 -0.4291 -0.0756
29567SOL    HW193063   6.487   0.767   6.638 -1.4069  1.5865  0.3276
29567SOL    HW293064   6.606   0.812   6.719 -0.1627 -0.9913  0.0232
29568SOL     OW93065   8.396   3.282   5.761  0.0796  0.0993  1.0410
29568SOL    HW193066   8.349   3.200   5.749  1.9454 -0.9447  0.3022
29568SOL    HW293067   8.468   3.260   5.820  1.0470  0.9935  0.2383
29569SOL     OW93068   9.476   9.252   6.942  0.0463 -0.2220  0.2080
29569SOL    HW193069   9.512   9.217   7.023  1.6214  1.6543  0.4011
29569SOL    HW293070   9.400   9.303   6.969  0.8480  0.7966  0.6194
29570SOL     OW93071   8.468   0.046   4.043  0.8652  0.9852  0.1356
29570SOL    HW193072   8.506  -0.037   4.074 -3.2595 -0.9280  0.7804
29570SOL    HW293073   8.435   0.025   3.956 -0.7091  1.7538  0.5243
29571SOL     OW93074   0.532   5.595   9.747  0.2161 -0.4233 -0.0673
29571SOL    HW193075   0.574   5.661   9.692  0.2506  0.0295  0.4828
29571SOL    HW293076   0.469   5.645   9.799  0.6200 -0.7238  0.7416
29572SOL     OW93077   4.572   3.181   4.095 -0.2650 -0.1324 -0.3239
29572SOL    HW193078   4.489   3.182   4.143 -0.2560 -3.8936  0.0688
29572SOL    HW293079   4.550   3.219   4.010 -2.0701  0.1561  0.2244
29573SOL     OW93080   2.262   8.712   5.698 -0.2793 -0.1008  0.7812
29573SOL    HW193081   2.330   8.691   5.762 -0.4164 -0.5083  0.7972
29573SOL    HW293082   2.298   8.785   5.648  0.7251 -1.1137 -0.0459
29574SOL     OW93083   4.304   2.893   5.575  0.5502  0.1958  0.3701
29574SOL    HW193084   4.247   2.830   5.532 -1.1753  2.0065 -0.1617
29574SOL    HW293085   4.312   2.860   5.665  0.0206 -0.9675  0.0138
29575SOL     OW93086   4.011   2.030  10.083 -0.2488 -0.2382 -0.0708
29575SOL    HW193087   4.045   1.943  10.107 -0.9053 -0.3330  0.5570
29575SOL    HW293088   4.014   2.030   9.987 -1.0057 -1.2867 -0.1207
29576SOL     OW93089   9.996   1.166   4.317  0.1362  0.4863 -0.2062
29576SOL    HW193090  10.050   1.199   4.245  2.8133 -0.0172  1.4315
29576SOL    HW293091   9.990   1.239   4.379  0.4994 -0.0182  0.4435
29577SOL     OW93092   4.946   4.852   0.161  0.4783 -0.4506 -0.2784
29577SOL    HW193093   4.862   4.879   0.124 -0.2321 -1.2360  0.7070
29577SOL    HW293094   5.012   4.896   0.107 -0.5617  0.0766 -1.1419
29578SOL     OW93095  10.792   9.528   7.418  0.2699  0.3701  0.2186
29578SOL    HW193096  10.828   9.446   7.452  0.0496 -0.4105 -1.3088
29578SOL    HW293097  10.712   9.502   7.373  1.6061  0.8984 -2.7394
29579SOL     OW93098   1.584   7.867  10.851 -0.6184  0.6715  0.0063
29579SOL    HW193099   1.648   7.936  10.828  0.1186  0.6642  1.9086
29579SOL    HW293100   1.636   7.801  10.897 -1.5842 -0.5383 -0.5841
29580SOL     OW93101   9.517  11.083   2.230  0.7212  0.2294  0.0596
29580SOL    HW193102   9.511  11.109   2.322 -0.4086  2.2169 -0.5100
29580SOL    HW293103   9.557  11.158   2.187  0.0333 -0.1335 -1.2570
29581SOL     OW93104   7.973   1.185   2.471 -0.7156  0.5180  0.3085
29581SOL    HW193105   7.953   1.147   2.556 -0.4989  0.6088  0.4007
29581SOL    HW293106   8.019   1.267   2.491  0.3903 -0.0287  0.0952
29582SOL     OW93107  10.911   0.054   2.359 -0.1789  0.3124  0.2434
29582SOL    HW193108  10.986  -0.002   2.377  0.3285  0.3756 -1.4491
29582SOL    HW293109  10.920   0.127   2.420  1.0750  0.2461  0.1642
29583SOL     OW93110   8.335   6.451   9.751  0.6281 -0.5281  0.0317
29583SOL    HW193111   8.245   6.437   9.780  0.5233 -1.1505 -0.5675
29583SOL    HW293112   8.388   6.401   9.813  0.7940  1.7519  1.8651
29584SOL     OW93113   0.140   1.024   4.975 -0.0219 -0.3767 -0.3757
29584SOL    HW193114   0.232   0.999   4.983 -0.3433 -0.9462  4.0334
29584SOL    HW293115   0.093   0.967   5.036 -3.2103  0.5563 -1.6911
29585SOL     OW93116   3.001   9.106   9.595 -0.5099 -0.8199 -0.6053
29585SOL    HW193117   2.915   9.143   9.576 -0.2455  1.1500  1.6880
29585SOL    HW293118   3.050   9.117   9.513 -1.3641  1.2914 -0.8894
29586SOL     OW93119   8.669  10.468   9.528 -0.2489  0.2311 -0.2164
29586SOL    HW193120   8.598  10.531   9.525 -0.8871 -0.4953 -0.5763
29586SOL    HW293121   8.714  10.478   9.444  0.3308  0.9619  0.1641
29587SOL     OW93122   7.555   9.858   1.893 -0.0261  0.0397  0.2766
29587SOL    HW193123   7.546   9.806   1.813 -1.2808 -0.6000  0.8013
29587SOL    HW293124   7.630   9.916   1.876 -1.1220  0.9536 -1.9519
29588SOL     OW93125   0.403   7.483  10.758  0.0946 -0.7390  0.1225
29588SOL    HW193126   0.341   7.522  10.820  1.7634 -0.4098  1.6841
29588SOL    HW293127   0.476   7.544  10.756  0.8516 -1.6400 -0.7979
29589SOL     OW93128   6.246   6.324   3.893 -0.0883  0.0744 -0.1690
29589SOL    HW193129   6.189   6.251   3.868  0.7429 -0.4717 -0.5158
29589SOL    HW293130   6.332   6.301   3.857  0.4425  0.7109  0.6574
29590SOL     OW93131   8.987   4.136   1.155 -0.2028 -0.6745  0.6914
29590SOL    HW193132   9.052   4.178   1.212 -0.7025  0.4845  0.4234
29590SOL    HW293133   8.903   4.151   1.198 -0.4190 -1.2087  0.4688
29591SOL     OW93134   6.136  10.484   5.553  0.1706  0.1686  0.1645
29591SOL    HW193135   6.219  10.469   5.597 -0.1285  0.2883  0.7822
29591SOL    HW293136   6.149  10.450   5.465  0.6149 -0.5557  0.4965
29592SOL     OW93137   2.574   2.448   9.452  0.7626 -0.0830 -0.2148
29592SOL    HW193138   2.666   2.467   9.433  0.9424 -0.6099  0.1255
29592SOL    HW293139   2.574   2.413   9.541  0.5082 -2.1976 -1.0019
29593SOL     OW93140   4.276   0.200   1.251 -0.3019  0.7478 -0.1960
29593SOL    HW193141   4.189   0.211   1.289 -0.7100  0.0539 -0.9015
29593SOL    HW293142   4.331   0.172   1.324 -0.5159  1.7978  0.3899
29594SOL     OW93143   7.395   8.725   6.415  0.5734 -0.5182  0.3581
29594SOL    HW193144   7.406   8.630   6.417 -0.4040 -0.6874 -1.0322
29594SOL    HW293145   7.476   8.759   6.378  0.3819 -0.9438 -0.4759
29595SOL     OW93146   7.021   3.407   7.688  0.1608 -0.1183  0.4440
29595SOL    HW193147   7.027   3.502   7.701 -1.4818 -0.0691  1.0741
29595SOL    HW293148   6.965   3.377   7.760  0.7682 -1.5993  0.3321
29596SOL     OW93149   5.661  10.468   9.915  0.5369  0.1882 -0.1896
29596SOL    HW193150   5.710  10.551   9.911 -0.0216  0.5992  1.0579
29596SOL    HW293151   5.701  10.413   9.848  0.5583  1.6644 -1.4456
29597SOL     OW93152   5.588   2.557   4.231 -0.2322  0.0681 -0.3510
29597SOL    HW193153   5.580   2.578   4.324  1.5956 -1.2451  0.1599
29597SOL    HW293154   5.682   2.559   4.215 -0.4229 -1.3325 -1.7890
29598SOL     OW93155   5.839   3.105   3.260 -0.2073  0.3096  0.3584
29598SOL    HW193156   5.841   3.018   3.219 -0.0034  0.0562  0.8996
29598SOL    HW293157   5.862   3.089   3.351  2.2176  1.2291 -0.0318
29599SOL     OW93158   5.291   6.941   2.026  0.4271 -0.0594 -0.3581
29599SOL    HW193159   5.222   6.999   2.057  1.5885  0.4834  1.2976
29599SOL    HW293160   5.332   6.906   2.105  3.0926  0.8952 -1.1843
29600SOL     OW93161   0.603  10.788   0.026  0.6182  0.3548 -0.6048
29600SOL    HW193162   0.510  10.810   0.023  0.9781  1.8152 -1.9652
29600SOL    HW293163   0.636  10.833   0.104  0.0395 -1.0305  0.5115
29601SOL     OW93164   6.183   7.366   1.409 -0.0771  0.0558 -0.1386
29601SOL    HW193165   6.198   7.346   1.317  0.3311 -0.9116  0.1194
29601SOL    HW293166   6.259   7.417   1.436 -0.9661  1.7435 -0.7247
29602SOL     OW93167   0.854   6.507   4.218  0.5864 -0.2875  0.0443
29602SOL    HW193168   0.913   6.568   4.262  0.2689 -0.6275  0.9641
29602SOL    HW293169   0.881   6.420   4.249 -0.5470 -0.4298  0.6921
29603SOL     OW93170   7.040   4.441   9.340  0.3096 -0.6470  0.3201
29603SOL    HW193171   6.998   4.362   9.308  2.2288 -1.7000  0.2351
29603SOL    HW293172   7.074   4.484   9.261 -0.0253 -0.1544  0.4386
29604SOL     OW93173   4.770  10.077   5.394 -0.0299  0.4225 -0.2540
29604SOL    HW193174   4.703  10.009   5.403  1.4953 -1.3182 -1.3203
29604SOL    HW293175   4.753  10.137   5.467 -1.2896 -1.2238  0.8866
29605SOL     OW93176   6.651  10.578   4.491 -0.2249  0.5704 -0.0791
29605SOL    HW193177   6.691  10.607   4.409  0.2879 -0.2468 -0.1291
29605SOL    HW293178   6.566  10.623   4.494 -0.7008 -0.1444 -1.5568
29606SOL     OW93179   6.991   9.499   8.364 -0.2522 -0.2748  0.5633
29606SOL    HW193180   6.928   9.447   8.414 -0.5836 -0.3379  0.0879
29606SOL    HW293181   6.953   9.506   8.277  0.6610 -0.7727  0.1099
29607SOL     OW93182  10.882   1.001   0.109 -0.0293 -0.2419 -0.1194
29607SOL    HW193183  10.856   0.959   0.027 -1.5885  0.0387  0.2000
29607SOL    HW293184  10.962   0.954   0.136  0.3258 -0.5417 -1.6129
29608SOL     OW93185   1.214   0.967   1.388  0.0431 -0.3883 -0.2433
29608SOL    HW193186   1.143   1.016   1.428  1.4196  0.2927  1.5037
29608SOL    HW293187   1.267   1.033   1.344  0.3372 -0.6934 -0.3541
29609SOL     OW93188   6.848   9.789   9.788 -0.1333  0.1184 -0.5999
29609SOL    HW193189   6.754   9.790   9.803  0.2180  0.3029  2.1002
29609SOL    HW293190   6.872   9.696   9.787 -0.2683  0.0855 -0.7466
29610SOL     OW93191   2.193  10.974   0.282 -0.3787  0.0061  0.0078
29610SOL    HW193192   2.260  11.040   0.298  0.1377 -0.4937 -0.0902
29610SOL    HW293193   2.241  10.896   0.254 -1.1065  0.3506 -2.4884
29611SOL     OW93194   4.979   7.857  10.546  0.0569  0.5237  0.3856
29611SOL    HW193195   5.044   7.921  10.519  0.1876  0.5695  0.7968
29611SOL    HW293196   4.987   7.854  10.642 -1.0778  1.1110  0.5119
29612SOL     OW93197   7.342   8.226   1.802  0.6893 -0.3123 -0.2615
29612SOL    HW193198   7.351   8.241   1.896  0.7626 -2.2700  0.0988
29612SOL    HW293199   7.252   8.195   1.792  0.3665  0.8430 -0.9960
29613SOL     OW93200   3.061   5.255   4.831  0.0928 -0.6764 -0.2923
29613SOL    HW193201   3.026   5.329   4.782  0.8152  0.1723  0.4394
29613SOL    HW293202   3.100   5.294   4.909  2.0769 -1.6297 -0.7495
29614SOL     OW93203   5.776   2.761   5.907 -0.2077 -0.5670  0.0506
29614SOL    HW193204   5.689   2.744   5.945 -0.5716 -1.2872 -1.0518
29614SOL    HW293205   5.834   2.769   5.983 -1.3851  0.9328  0.8670
29615SOL     OW93206   1.386   8.218   1.113 -0.1805  0.0096 -0.2325
29615SOL    HW193207   1.320   8.260   1.058  0.4129  0.0689 -0.9123
29615SOL    HW293208   1.361   8.241   1.203 -1.4246 -0.4668 -0.4304
29616SOL     OW93209   5.092  10.304   8.145 -0.4551 -0.0423 -0.4963
29616SOL    HW193210   5.050  10.361   8.209 -1.6432 -1.9282  0.4846
29616SOL    HW293211   5.184  10.330   8.147 -0.7800  1.1364  0.6631
29617SOL     OW93212   2.423   0.321   0.510  0.3845  0.4436  0.0448
29617SOL    HW193213   2.362   0.390   0.536  0.8295  0.3870  1.2887
29617SOL    HW293214   2.463   0.354   0.430  0.5806  1.6341  0.6077
29618SOL     OW93215   9.899   7.719   5.143  0.0248  0.5607  0.0981
29618SOL    HW193216   9.811   7.688   5.120 -0.4533  1.6742  0.3276
29618SOL    HW293217   9.901   7.810   5.114  1.1132  0.5533  0.0977
29619SOL     OW93218   1.276   7.626   3.819 -0.1544 -0.3724 -0.3630
29619SOL    HW193219   1.340   7.692   3.846 -1.2332  0.9882 -1.0004
29619SOL    HW293220   1.220   7.614   3.896  1.0354 -1.8375  0.3200
29620SOL     OW93221   8.002   4.402   4.735  0.8284 -0.3386 -0.2698
29620SOL    HW193222   7.990   4.377   4.827 -1.6806 -1.9745 -0.9532
29620SOL    HW293223   8.043   4.488   4.739 -0.8674  0.4578  2.4190
29621SOL     OW93224   6.212   1.625   7.691  0.4574  0.1533 -0.1491
29621SOL    HW193225   6.268   1.548   7.680  0.6245 -0.1911  2.5491
29621SOL    HW293226   6.267   1.699   7.666  2.0020 -0.2290  1.8569
29622SOL     OW93227   0.887  10.898   8.177  0.1465  0.0974 -0.7273
29622SOL    HW193228   0.939  10.879   8.255 -0.8389  0.2515 -0.0196
29622SOL    HW293229   0.934  10.854   8.106  0.9463 -0.2120 -0.0230
29623SOL     OW93230   9.096   4.343   1.334 -0.0290  0.3871 -0.4134
29623SOL    HW193231   9.010   4.357   1.295  0.9880  0.0396 -3.0372
29623SOL    HW293232   9.138   4.429   1.333  0.9855 -0.0447 -2.8679
29624SOL     OW93233   1.664   8.619   0.884 -0.8874  0.3705  0.0077
29624SOL    HW193234   1.624   8.559   0.947  1.7688 -0.8493  0.6817
29624SOL    HW293235   1.657   8.705   0.924  0.3918 -0.3343  1.8411
29625SOL     OW93236   3.381   9.213   6.418  0.2402 -0.3014 -0.3152
29625SOL    HW193237   3.382   9.236   6.324  0.1155  0.0188 -0.2412
29625SOL    HW293238   3.296   9.172   6.432  0.3992 -0.6677 -0.4150
29626SOL     OW93239   5.878   8.275   9.341 -0.0559  0.0336  0.3027
29626SOL    HW193240   5.910   8.250   9.254 -0.9706  0.3456 -0.1323
29626SOL    HW293241   5.799   8.223   9.354  0.2518 -0.2443  1.0892
29627SOL     OW93242   8.201   6.912   7.304 -0.2379  0.0549 -0.6404
29627SOL    HW193243   8.164   6.999   7.285 -0.6009 -0.0846 -0.5864
29627SOL    HW293244   8.184   6.861   7.225 -0.0009  0.0415 -0.6814
29628SOL     OW93245   0.983   7.769   8.204  0.3622 -0.0862  0.0801
29628SOL    HW193246   1.054   7.833   8.205  1.0335 -0.8104 -0.0224
29628SOL    HW293247   0.909   7.816   8.164  0.7510  0.7022  0.2629
29629SOL     OW93248   1.771   3.932   6.285  0.1581 -0.3499 -0.0817
29629SOL    HW193249   1.736   3.962   6.201 -1.3867 -2.9603 -0.4919
29629SOL    HW293250   1.750   3.838   6.287 -0.1927 -0.3134  3.3842
29630SOL     OW93251   2.312   7.671   5.028 -0.0255 -0.1454 -0.1489
29630SOL    HW193252   2.318   7.709   4.941 -1.8401  1.7428  0.4466
29630SOL    HW293253   2.234   7.616   5.026  0.6484 -1.1281 -0.0450
29631SOL     OW93254   6.721   6.094   5.665 -0.1198 -0.0921  0.2363
29631SOL    HW193255   6.809   6.098   5.703  0.1984  0.8307 -0.5607
29631SOL    HW293256   6.736   6.069   5.574 -0.5658  1.4191 -0.2619
29632SOL     OW93257   3.845   7.712   8.891 -0.0756 -0.6553 -0.2449
29632SOL    HW193258   3.832   7.643   8.956 -0.3702 -2.4484 -2.1092
29632SOL    HW293259   3.771   7.703   8.831  1.4852 -0.7802 -2.2541
29633SOL     OW93260   2.852   4.385   1.373 -0.5760 -1.0991 -0.2037
29633SOL    HW193261   2.869   4.474   1.344 -0.3571 -0.7735  0.8746
29633SOL    HW293262   2.940   4.348   1.388 -0.6857 -1.2457  0.0775
29634SOL     OW93263  10.641   2.187   9.717 -0.6201  0.3178 -0.0616
29634SOL    HW193264  10.577   2.209   9.786 -2.2377  0.7069 -1.6024
29634SOL    HW293265  10.609   2.233   9.640  1.1738 -0.0668 -1.0811
29635SOL     OW93266   8.957   8.859   4.465  0.3592 -0.1357 -0.4285
29635SOL    HW193267   8.940   8.790   4.530  0.3000 -0.6509 -0.9877
29635SOL    HW293268   8.870   8.895   4.446 -0.0257 -1.8925 -2.3123
29636SOL     OW93269   6.796   9.938   2.273 -0.2823 -0.3935 -0.1251
29636SOL    HW193270   6.781   9.899   2.360 -1.4484 -2.4906 -1.1751
29636SOL    HW293271   6.710   9.971   2.247  0.4432  1.8812  0.2137
29637SOL     OW93272   7.600   4.497   7.542 -0.4811 -0.4898  0.3288
29637SOL    HW193273   7.691   4.481   7.518 -0.6085  0.0826 -0.5908
29637SOL    HW293274   7.557   4.413   7.531  0.1267 -1.0401  1.7994
29638SOL     OW93275   2.289   8.708   0.242  0.3166 -0.2494  0.1242
29638SOL    HW193276   2.354   8.759   0.291 -2.0459  3.3394 -0.0830
29638SOL    HW293277   2.219   8.692   0.305 -0.1409 -0.9275 -0.5468
29639SOL     OW93278   8.895   7.914   5.257  0.2774 -0.3562 -0.2356
29639SOL    HW193279   8.843   7.835   5.276  0.2614 -0.1688  0.5461
29639SOL    HW293280   8.847   7.958   5.187 -0.8728  0.0305  0.7624
29640SOL     OW93281   5.500   2.573   0.994  0.0324  0.0220  0.3446
29640SOL    HW193282   5.443   2.633   1.043 -1.7946 -1.5342  0.2582
29640SOL    HW293283   5.576   2.625   0.970 -0.0664  1.4690  2.8718
29641SOL     OW93284   0.947   1.636   3.916  0.7807  0.3229  0.0442
29641SOL    HW193285   0.889   1.644   3.992  1.1556 -1.3227  0.5366
29641SOL    HW293286   0.978   1.546   3.919  1.1362  0.3450 -1.8377
29642SOL     OW93287   2.589   8.162   4.983 -0.1921  0.2710  0.5223
29642SOL    HW193288   2.502   8.160   4.944  0.7176  0.0248 -1.6039
29642SOL    HW293289   2.616   8.071   4.988  0.2709  0.4032  0.4376
29643SOL     OW93290   0.763   9.966  10.245  0.2744 -0.5650  0.0657
29643SOL    HW193291   0.668   9.968  10.233  0.2391 -1.1361  0.2384
29643SOL    HW293292   0.793   9.889  10.197  0.8472  0.4540 -1.2778
29644SOL     OW93293   7.785   3.612   1.104  0.4309  0.7572 -0.3119
29644SOL    HW193294   7.796   3.706   1.116 -2.6277  1.0774  0.9030
29644SOL    HW293295   7.782   3.601   1.009  1.2510  1.8187 -0.4820
29645SOL     OW93296   2.209  11.024   2.622  0.3071  0.0498  0.3169
29645SOL    HW193297   2.195  10.965   2.697  1.6331  0.3937  0.8651
29645SOL    HW293298   2.123  11.062   2.606 -0.2034 -0.7367  1.0614
29646SOL     OW93299   3.902   8.729   8.385  0.0969 -0.1823 -0.4065
29646SOL    HW193300   3.808   8.723   8.371  0.3800 -1.7581 -1.8674
29646SOL    HW293301   3.940   8.663   8.327  2.1114  0.4242  0.1338
29647SOL     OW93302   4.629  10.823   6.092 -0.2030  0.4745 -0.4713
29647SOL    HW193303   4.638  10.903   6.041  1.5377  0.9201  0.4664
29647SOL    HW293304   4.622  10.853   6.182  1.9150 -0.4124  0.0496
29648SOL     OW93305   2.681   1.475   7.448  0.6121 -0.0046  0.1754
29648SOL    HW193306   2.586   1.465   7.450  0.5299  0.7874  0.8834
29648SOL    HW293307   2.712   1.433   7.528  0.9892 -1.3277 -0.6412
29649SOL     OW93308   6.440   0.550   6.461  0.1639  0.0202 -0.4267
29649SOL    HW193309   6.506   0.518   6.523  1.2477  0.0659 -1.5332
29649SOL    HW293310   6.432   0.480   6.396 -0.5285  0.2319 -0.5840
29650SOL     OW93311  10.337   1.758   3.060  0.6668  0.4494  0.2753
29650SOL    HW193312  10.356   1.708   3.139  1.3393  1.2002  0.6077
29650SOL    HW293313  10.289   1.835   3.091 -0.0285  0.2062 -0.1830
29651SOL     OW93314  10.582   8.878   1.565 -0.2965 -0.3771  0.4235
29651SOL    HW193315  10.653   8.921   1.517  0.2861  0.0237  1.6056
29651SOL    HW293316  10.503   8.906   1.520  0.1921  0.5497  0.1020
29652SOL     OW93317   9.757   7.936   5.293 -0.0042  0.0113 -0.6643
29652SOL    HW193318   9.793   7.887   5.366  1.2348  0.6107 -0.8467
29652SOL    HW293319   9.693   7.996   5.333  0.7795  0.4474 -0.0451
29653SOL     OW93320   8.849   1.208   2.209 -0.0198 -0.0561  0.1266
29653SOL    HW193321   8.848   1.259   2.290 -0.3711 -0.1964  0.2146
29653SOL    HW293322   8.936   1.168   2.207  0.6608  1.4098 -0.4997
29654SOL     OW93323   7.837   3.007   8.915 -0.4982 -0.4447  0.1729
29654SOL    HW193324   7.925   2.969   8.914 -0.7818 -1.1357  0.6704
29654SOL    HW293325   7.814   3.013   9.008 -0.7999  0.1510  0.0643
29655SOL     OW93326   5.776   2.075   8.353 -0.2329 -0.5748  0.1445
29655SOL    HW193327   5.844   2.141   8.362  1.6943 -2.4269  0.1255
29655SOL    HW293328   5.708   2.101   8.416  2.2280 -0.6337  3.0757
29656SOL     OW93329   1.903  10.244   2.919 -0.4460  0.0551 -0.0308
29656SOL    HW193330   1.829  10.273   2.973 -1.3033  0.9020 -1.6110
29656SOL    HW293331   1.866  10.177   2.862  0.2984 -0.3600 -0.0358
29657SOL     OW93332   2.508   6.964   5.267 -0.7111  0.0696 -0.1659
29657SOL    HW193333   2.429   6.991   5.313  0.6605  0.1168  2.3377
29657SOL    HW293334   2.572   7.031   5.289  0.2154 -0.3053 -1.6117
29658SOL     OW93335  11.113   0.726   8.363  0.8011  0.3562 -0.4153
29658SOL    HW193336  11.148   0.694   8.446  1.7295  2.4430  0.0611
29658SOL    HW293337  11.091   0.646   8.314  0.7811 -0.9302  1.5685
29659SOL     OW93338   3.813  10.825   3.524 -0.0680 -0.4586 -0.4159
29659SOL    HW193339   3.769  10.745   3.493 -0.6305 -0.1708 -0.3788
29659SOL    HW293340   3.869  10.850   3.451  0.7743 -1.3604 -0.1005
29660SOL     OW93341   6.460   3.827   9.607  0.1500 -0.0479 -0.3624
29660SOL    HW193342   6.365   3.823   9.610  0.1331  0.0996 -0.6775
29660SOL    HW293343   6.480   3.890   9.537  0.4579  1.5452  1.1021
29661SOL     OW93344   0.617   0.704   3.021  0.0777  0.3237  0.1922
29661SOL    HW193345   0.628   0.626   2.967  2.0806  0.9314 -0.3798
29661SOL    HW293346   0.673   0.689   3.097 -1.9223 -0.0793  1.6731
29662SOL     OW93347   2.663   1.936   8.759  0.2099  0.3362  0.0319
29662SOL    HW193348   2.754   1.940   8.791  1.2346  2.4038 -2.7350
29662SOL    HW293349   2.615   1.996   8.816  0.8440  0.1624  0.7748
29663SOL     OW93350  10.206   4.802   2.109  0.3922 -0.0204 -0.1810
29663SOL    HW193351  10.158   4.884   2.114  0.4890 -0.0369  1.4488
29663SOL    HW293352  10.139   4.734   2.113  0.3612 -0.0470 -0.9059
29664SOL     OW93353   8.841   0.406   6.854  0.0424 -0.3143 -0.1214
29664SOL    HW193354   8.877   0.320   6.877  0.1126 -0.1166  0.5200
29664SOL    HW293355   8.910   0.448   6.802 -0.2892 -0.9350 -1.0927
29665SOL     OW93356   9.021   1.544   2.355  0.5166 -0.1537  0.1157
29665SOL    HW193357   8.994   1.488   2.428  0.6692  0.1043  0.3740
29665SOL    HW293358   9.099   1.590   2.388  0.6184 -0.0742 -0.2282
29666SOL     OW93359  10.125   0.513   5.255 -0.3639 -0.0681  0.3649
29666SOL    HW193360  10.077   0.596   5.253  0.0769  0.1936 -1.3661
29666SOL    HW293361  10.211   0.536   5.289 -0.7605 -0.1350  1.4383
29667SOL     OW93362  10.260   0.692   9.093 -0.6219  0.4249  0.2758
29667SOL    HW193363  10.320   0.619   9.078 -1.2014  0.0168 -0.0899
29667SOL    HW293364  10.175   0.660   9.064 -0.6102  1.7855 -1.3934
29668SOL     OW93365  10.228   3.385   5.586 -0.0919  0.8510 -1.2218
29668SOL    HW193366  10.317   3.418   5.601  0.9624 -2.6583  1.6339
29668SOL    HW293367  10.175   3.428   5.653  0.8213 -1.2734  1.0191
29669SOL     OW93368   7.552   4.164   8.440  0.4806 -0.1576  0.2965
29669SOL    HW193369   7.574   4.254   8.413 -0.0646 -0.1189 -0.0384
29669SOL    HW293370   7.513   4.125   8.362  0.4645 -0.6011  0.5254
29670SOL     OW93371   1.455   3.095   1.498 -0.0696  0.4358  0.3925
29670SOL    HW193372   1.462   3.101   1.593 -0.5384  0.3159  0.4369
29670SOL    HW293373   1.388   3.160   1.474 -0.3331  0.0973  0.2005
29671SOL     OW93374   6.905   0.893   9.591 -0.3683  0.2341  0.7005
29671SOL    HW193375   6.850   0.815   9.581  0.4207 -0.1054 -1.4016
29671SOL    HW293376   6.951   0.901   9.508  1.0254  1.8587  1.5673
29672SOL     OW93377   8.429   2.948   2.097  0.4188 -0.1965  0.5827
29672SOL    HW193378   8.379   2.887   2.152  0.4150  0.7419  1.6597
29672SOL    HW293379   8.372   2.964   2.022 -0.1496 -0.5049  0.9331
29673SOL     OW93380   6.439   9.315   6.867 -0.3593  0.0505 -0.3532
29673SOL    HW193381   6.445   9.375   6.792 -2.0225 -0.6201 -1.0654
29673SOL    HW293382   6.345   9.308   6.885 -0.0422 -0.4113  1.3254
29674SOL     OW93383   7.945   5.175   8.673  0.3203  0.0850 -0.4598
29674SOL    HW193384   7.937   5.086   8.709 -2.9704  0.6617  0.5572
29674SOL    HW293385   7.901   5.230   8.737  2.3685  2.5503 -1.0205
29675SOL     OW93386   7.358   2.323  10.302 -0.1593  0.0823  0.2581
29675SOL    HW193387   7.441   2.278  10.284 -0.4330  0.4938 -2.3109
29675SOL    HW293388   7.291   2.263  10.270 -0.8457  0.1644  1.4713
29676SOL     OW93389   3.008   6.782   1.440  0.3747  0.3170  0.2305
29676SOL    HW193390   3.102   6.788   1.424  0.6217 -2.2916  0.2317
29676SOL    HW293391   2.972   6.744   1.360 -0.4424 -0.1010  0.7801
29677SOL     OW93392   4.718  10.470   1.311 -0.3007  0.7928  0.2807
29677SOL    HW193393   4.675  10.388   1.336 -1.0006  0.8951 -0.5439
29677SOL    HW293394   4.754  10.504   1.393 -1.9746  0.7939  1.0545
29678SOL     OW93395   1.913   9.426  10.834 -0.2644  0.7893 -0.1515
29678SOL    HW193396   1.875   9.448  10.749 -4.0323 -1.9691  0.5280
29678SOL    HW293397   1.843   9.445  10.897  0.6204 -1.6238  1.7103
29679SOL     OW93398   0.842  10.628   4.750  0.6034 -0.0195 -0.2047
29679SOL    HW193399   0.934  10.605   4.749  0.6289 -0.0323  0.8695
29679SOL    HW293400   0.796  10.546   4.733  0.7811 -0.1708  0.0263
29680SOL     OW93401   4.202   9.527  10.021  0.1576  0.2508 -0.0500
29680SOL    HW193402   4.208   9.448  10.074 -1.4164  0.4972  0.5537
29680SOL    HW293403   4.275   9.520   9.959  0.8387 -1.0082  0.8496
29681SOL     OW93404   8.021   4.023   9.135 -0.2243 -0.1244 -0.0964
29681SOL    HW193405   7.995   4.111   9.163 -0.1087  0.0648 -0.5704
29681SOL    HW293406   8.017   3.970   9.215  2.5567  0.9470  0.8626
29682SOL     OW93407   6.220   4.169   2.061 -0.1608 -0.3058 -0.6728
29682SOL    HW193408   6.275   4.143   2.134 -0.6386  0.1832 -0.1321
29682SOL    HW293409   6.146   4.107   2.064 -0.5790  0.2053 -0.2530
29683SOL     OW93410   9.203   3.989   2.076 -0.2913  0.4058  0.0749
29683SOL    HW193411   9.137   4.057   2.062 -1.0647 -0.0142  1.5581
29683SOL    HW293412   9.236   4.005   2.164  0.2790 -0.5093  0.0427
29684SOL     OW93413   5.175   6.464  10.532 -0.1224 -0.3912  0.0473
29684SOL    HW193414   5.138   6.534  10.586 -0.1378  0.5866 -1.1851
29684SOL    HW293415   5.269   6.484  10.530 -0.1873 -0.1413 -0.6602
29685SOL     OW93416   0.165   5.334   0.389 -0.0770 -0.0903  0.2869
29685SOL    HW193417   0.160   5.325   0.294 -1.1927 -0.2862  0.3623
29685SOL    HW293418   0.217   5.259   0.417  0.5942  0.1808 -0.1948
29686SOL     OW93419   9.387   2.455   1.096  0.8253 -0.2589  0.1126
29686SOL    HW193420   9.307   2.505   1.083  1.1128  0.0330 -0.5949
29686SOL    HW293421   9.387   2.433   1.189  2.4186  4.1291  1.3567
29687SOL     OW93422   5.861   9.252  10.382 -0.3757 -0.3920 -0.2402
29687SOL    HW193423   5.855   9.339  10.342 -0.9453 -0.0001  0.6640
29687SOL    HW293424   5.938   9.212  10.341  0.3558  0.8372 -0.1096
29688SOL     OW93425   3.469   8.219   7.271 -0.6201 -0.4258  0.4965
29688SOL    HW193426   3.513   8.298   7.304  0.3831  0.3769 -2.4245
29688SOL    HW293427   3.488   8.152   7.337  0.6791  1.1524  1.8336
29689SOL     OW93428   9.290   4.393   5.576 -0.0123  0.2755 -0.0328
29689SOL    HW193429   9.310   4.429   5.490  0.7445 -0.8517 -0.3439
29689SOL    HW293430   9.345   4.315   5.584 -0.5932 -0.0466  1.1788
29690SOL     OW93431   8.214   7.636   5.125 -0.6618  0.0479 -0.1520
29690SOL    HW193432   8.210   7.543   5.101 -0.4159 -0.3479  1.2699
29690SOL    HW293433   8.169   7.642   5.209 -0.2413  1.1263  0.0202
29691SOL     OW93434   5.004   5.284   0.158 -0.2299 -0.1110 -0.0397
29691SOL    HW193435   5.095   5.315   0.154  0.1929 -1.2294  0.5380
29691SOL    HW293436   5.008   5.196   0.122 -0.4945 -1.4154  2.8887
29692SOL     OW93437   2.312   1.784   4.163 -0.7761  0.7644  0.2812
29692SOL    HW193438   2.347   1.870   4.187  1.1310  0.2413 -0.4771
29692SOL    HW293439   2.321   1.779   4.068 -2.9539  0.5596  0.0198
29693SOL     OW93440   4.662   6.388   8.003 -0.1731 -0.4984 -0.1614
29693SOL    HW193441   4.695   6.354   8.086 -0.0930 -1.5940 -0.6184
29693SOL    HW293442   4.601   6.456   8.027 -2.8718 -3.1166  0.9923
29694SOL     OW93443  10.883   4.730   6.590  0.0284 -0.0528  0.5300
29694SOL    HW193444  10.923   4.679   6.520  0.0978 -1.1649  1.3429
29694SOL    HW293445  10.921   4.817   6.582  1.0938 -0.5445  0.0490
29695SOL     OW93446   6.840   7.568   9.628  0.4106  0.1658  0.0849
29695SOL    HW193447   6.801   7.526   9.551  3.1021 -0.5031 -1.0393
29695SOL    HW293448   6.782   7.641   9.648  1.0917  2.3787 -4.6036
29696SOL     OW93449   2.340   3.790   1.909 -0.2909  0.3539  0.0721
29696SOL    HW193450   2.399   3.759   1.840 -0.5933  0.8992 -0.4370
29696SOL    HW293451   2.272   3.839   1.862 -1.6665 -1.0148  0.5380
29697SOL     OW93452   0.681   8.843   2.410 -0.2619 -0.1813  0.5203
29697SOL    HW193453   0.724   8.758   2.414  1.9250  0.8596  0.6961
29697SOL    HW293454   0.590   8.824   2.386  0.3411 -2.4845 -0.1048
29698SOL     OW93455   5.376  10.740   0.848  0.4313  0.2267  0.5654
29698SOL    HW193456   5.330  10.702   0.923  0.1973 -0.3617  0.1378
29698SOL    HW293457   5.393  10.665   0.791  1.8383  0.4553  0.6645
29699SOL     OW93458   9.939   4.956   6.976 -0.0318 -0.1545 -0.0917
29699SOL    HW193459   9.913   5.039   7.016 -0.4006  0.1826 -1.0013
29699SOL    HW293460   9.858   4.922   6.937  0.3565 -0.3891 -0.6999
29700SOL     OW93461   5.363  10.189   0.571  0.4412  0.0954  0.1926
29700SOL    HW193462   5.341  10.107   0.615 -2.2156  0.6617  0.0701
29700SOL    HW293463   5.330  10.177   0.482  3.6035 -0.1277 -1.0848
29701SOL     OW93464   5.945   4.377   9.366  0.4214  0.1289  0.6370
29701SOL    HW193465   6.012   4.398   9.301  0.4672 -2.7941 -0.4181
29701SOL    HW293466   5.901   4.460   9.382  2.2868  1.5347 -0.9555
29702SOL     OW93467   1.571   4.435   6.145 -0.1367 -0.3667  0.2638
29702SOL    HW193468   1.661   4.450   6.116 -0.6287  0.0195 -1.1069
29702SOL    HW293469   1.571   4.461   6.237  1.3197 -1.0645  0.4918
29703SOL     OW93470   1.631  10.736  10.224 -0.4130  0.1495 -0.0324
29703SOL    HW193471   1.713  10.712  10.268  0.3906  0.7121 -1.1940
29703SOL    HW293472   1.576  10.658  10.233  0.8452 -0.8460 -0.6380
29704SOL     OW93473   4.163   0.789   3.082 -0.4226  0.2165  0.2369
29704SOL    HW193474   4.172   0.822   3.171  0.4691  1.0651 -0.1423
29704SOL    HW293475   4.217   0.848   3.029 -1.3078  0.0165 -0.9384
29705SOL     OW93476   2.327   1.732   9.032  0.4448 -0.7020  0.0968
29705SOL    HW193477   2.264   1.775   8.973 -1.0736  0.7655  2.6378
29705SOL    HW293478   2.318   1.639   9.011 -2.1832 -0.4940 -0.0868
29706SOL     OW93479   4.405   0.372   6.469  0.1324 -0.5165 -0.0604
29706SOL    HW193480   4.344   0.299   6.457  0.2322 -0.8014  1.0706
29706SOL    HW293481   4.348   0.449   6.473 -0.0337 -0.6144 -0.4904
29707SOL     OW93482   5.027   6.045   3.482 -0.1225 -0.5543 -0.4847
29707SOL    HW193483   5.096   5.992   3.523 -0.1272 -0.1493  0.0583
29707SOL    HW293484   5.032   6.130   3.527 -1.0587 -0.5587 -0.3470
29708SOL     OW93485   4.129   3.549   2.243 -0.1841  0.3157 -0.2952
29708SOL    HW193486   4.139   3.520   2.153  0.0353  0.6965 -0.3986
29708SOL    HW293487   4.199   3.505   2.291 -0.7919 -0.5220 -0.1449
29709SOL     OW93488   2.825   7.308   4.285  0.8308  0.3428  0.5719
29709SOL    HW193489   2.879   7.296   4.206 -0.1248 -0.8367  0.0779
29709SOL    HW293490   2.869   7.256   4.352  0.5172 -0.3216  0.2668
29710SOL     OW93491   0.904   2.987   8.393  0.4283 -0.9357 -0.6582
29710SOL    HW193492   0.811   2.996   8.414 -0.0747 -1.4895 -2.4515
29710SOL    HW293493   0.946   3.060   8.437 -0.7732 -0.9905  0.6433
29711SOL     OW93494  11.031  10.126   5.976 -0.0591  0.1545 -0.1996
29711SOL    HW193495  11.076  10.201   6.014  0.8723 -0.5530  0.1364
29711SOL    HW293496  11.095  10.055   5.981 -1.0082 -0.7271 -0.2584
29712SOL     OW93497   5.759   4.516   8.392  0.6686 -0.1675  0.4432
29712SOL    HW193498   5.738   4.579   8.324 -0.7832 -1.4383 -0.3384
29712SOL    HW293499   5.854   4.519   8.399  0.6789  1.7354  0.1173
29713SOL     OW93500   6.264   5.650   0.862 -0.0536  0.1113  0.1936
29713SOL    HW193501   6.275   5.625   0.770  0.0415 -0.7753  0.4340
29713SOL    HW293502   6.170   5.654   0.874 -0.0652  0.8948 -0.1095
29714SOL     OW93503   3.025   0.951   5.988  0.7302 -0.2445 -0.2387
29714SOL    HW193504   3.014   1.000   5.907 -0.4136  0.0487  0.0736
29714SOL    HW293505   2.970   0.873   5.977  0.0858  0.0937  0.4741
29715SOL     OW93506   1.298   1.062   1.807  0.2228 -0.0685 -0.4012
29715SOL    HW193507   1.237   1.114   1.754 -0.4358  0.7092  1.0669
29715SOL    HW293508   1.312   0.982   1.755 -0.4550  0.6237 -1.6974
29716SOL     OW93509   3.991   8.919   6.238  0.3772 -0.7008  0.0767
29716SOL    HW193510   3.980   8.840   6.291 -0.5654 -0.7578 -0.1738
29716SOL    HW293511   3.952   8.896   6.153  2.4825 -0.8540 -0.9079
29717SOL     OW93512   1.884   5.103   6.564  0.4910 -0.6651  0.2154
29717SOL    HW193513   1.809   5.123   6.620 -0.5336 -1.9730 -0.6180
29717SOL    HW293514   1.917   5.189   6.537 -0.5150 -0.0579  0.8391
29718SOL     OW93515   0.040   2.749  10.671  0.2199 -0.1028 -0.1858
29718SOL    HW193516   0.025   2.839  10.700 -1.6030 -0.8178  1.3698
29718SOL    HW293517   0.066   2.703  10.751  3.2573 -0.6017 -1.3564
29719SOL     OW93518   5.994   2.923   9.929 -0.0226 -0.7499 -0.1698
29719SOL    HW193519   5.994   2.975  10.010  2.3126 -1.2658  0.2195
29719SOL    HW293520   5.969   2.985   9.861  1.5599  0.6348  0.4522
29720SOL     OW93521   9.020   4.730   3.975  0.0431  0.0730  0.5020
29720SOL    HW193522   9.079   4.789   3.928 -1.7639  0.0503 -1.9378
29720SOL    HW293523   8.935   4.772   3.971 -0.7203 -1.3223  1.3216
29721SOL     OW93524   4.302   1.260   3.087 -0.0849  0.4150  0.3095
29721SOL    HW193525   4.327   1.169   3.102  1.1187  0.8583  1.1404
29721SOL    HW293526   4.262   1.288   3.170  0.2454  0.8548  0.3256
29722SOL     OW93527   6.531   7.947   5.763 -0.1072 -0.4546  0.1220
29722SOL    HW193528   6.496   7.908   5.843 -0.0211 -0.4550  0.1590
29722SOL    HW293529   6.465   7.927   5.696 -0.6572  0.4016  0.3955
29723SOL     OW93530  10.907   4.794   1.244  0.3182  0.1362 -0.2700
29723SOL    HW193531  10.965   4.721   1.263  1.5658  1.5465  1.8247
29723SOL    HW293532  10.935   4.863   1.305 -0.8353  2.3310 -2.0746
29724SOL     OW93533   8.711  10.123   4.454  0.4414 -0.6757 -0.0055
29724SOL    HW193534   8.801  10.126   4.485  0.5892 -1.1184 -0.3852
29724SOL    HW293535   8.706  10.043   4.401 -0.1098 -0.5310 -0.1814
29725SOL     OW93536   0.404   3.554   6.651  0.3411  0.1410 -0.2592
29725SOL    HW193537   0.314   3.530   6.630  0.3679 -0.7205  0.5106
29725SOL    HW293538   0.404   3.563   6.747  1.0080  0.3900 -0.2794
29726SOL     OW93539   8.993   5.600   7.191  0.0957 -0.4073  0.4886
29726SOL    HW193540   9.056   5.534   7.164 -0.7410 -1.6231  1.4272
29726SOL    HW293541   9.032   5.642   7.268  0.1911 -0.4770  0.4772
29727SOL     OW93542   9.402   2.792   1.581 -0.6007 -0.5262 -0.0154
29727SOL    HW193543   9.371   2.765   1.495 -1.0642  0.4303 -0.1667
29727SOL    HW293544   9.330   2.769   1.641 -2.2314  2.6759 -0.5152
29728SOL     OW93545   3.169   7.850   7.775 -0.1139 -0.1948  0.4909
29728SOL    HW193546   3.221   7.927   7.795  0.8403 -0.9731  1.0735
29728SOL    HW293547   3.213   7.810   7.700 -0.7014 -0.0947  0.0825
29729SOL     OW93548   5.465   3.493   4.272  0.1035 -0.6157  0.0263
29729SOL    HW193549   5.559   3.489   4.288  0.0642  0.4355  0.5848
29729SOL    HW293550   5.436   3.402   4.281  1.1261 -1.0381 -0.6663
29730SOL     OW93551   5.509   5.756   9.155 -0.8735  0.3759  0.4184
29730SOL    HW193552   5.580   5.807   9.117 -0.4383  0.5066  1.3732
29730SOL    HW293553   5.488   5.690   9.089  0.2970  0.1909  0.2191
29731SOL     OW93554   6.195   9.144  10.662 -0.0946 -0.0622  0.2954
29731SOL    HW193555   6.100   9.156  10.662 -0.1240 -0.2881  0.9925
29731SOL    HW293556   6.223   9.171  10.749  0.4162 -0.5170  0.2797
29732SOL     OW93557   8.740   6.569   7.726 -0.1883 -0.5739 -0.0114
29732SOL    HW193558   8.720   6.609   7.810  0.5171 -1.5285  0.6260
29732SOL    HW293559   8.747   6.643   7.665  1.2309  0.2894  1.1426
29733SOL     OW93560   5.464   9.933   3.310  0.0926  0.8259 -0.0751
29733SOL    HW193561   5.449   9.868   3.379  1.8684  0.1911 -0.2396
29733SOL    HW293562   5.526   9.995   3.348 -0.2660  1.4640 -0.5127
29734SOL     OW93563   0.161  10.340  10.663 -0.2891  0.0958 -0.0648
29734SOL    HW193564   0.196  10.425  10.637 -0.2169 -0.0133 -0.3337
29734SOL    HW293565   0.074  10.359  10.700 -0.0516  0.3381  0.3683
29735SOL     OW93566   0.013  10.704   1.985  0.8478 -0.0831 -0.0843
29735SOL    HW193567  -0.046  10.741   2.051  0.8200 -0.7909  0.2944
29735SOL    HW293568   0.027  10.614   2.013  1.7133 -0.0732 -0.4479
29736SOL     OW93569   9.846  10.832   2.592 -0.3983  0.2666  0.1445
29736SOL    HW193570   9.861  10.909   2.537  0.5044  0.3562  0.5021
29736SOL    HW293571   9.930  10.817   2.636 -0.9214 -0.1852  1.0175
29737SOL     OW93572   5.606   5.410  10.273  0.0099 -0.2649  0.3639
29737SOL    HW193573   5.555   5.465  10.213 -1.4375 -0.1256  1.6422
29737SOL    HW293574   5.661   5.472  10.320 -0.2983 -0.1210  0.5416
29738SOL     OW93575   2.595   9.105  10.878 -0.0564 -0.4432  0.3711
29738SOL    HW193576   2.545   9.162  10.819  0.8035 -1.1724 -1.1129
29738SOL    HW293577   2.555   9.019  10.866  0.5412 -0.7223  0.3667
29739SOL     OW93578   7.556   9.417   0.631  0.1870  0.4052 -0.3562
29739SOL    HW193579   7.612   9.476   0.580  0.6990 -0.3962 -0.7587
29739SOL    HW293580   7.549   9.338   0.576  2.1684 -1.1889  1.5022
29740SOL     OW93581   4.717   5.402   4.542 -0.5561  0.4516  0.1217
29740SOL    HW193582   4.690   5.388   4.633  0.6927 -0.3437  0.4038
29740SOL    HW293583   4.803   5.444   4.549  0.3520 -1.1793 -0.6273
29741SOL     OW93584   7.765   0.928   1.778 -0.1981  0.1977 -0.0694
29741SOL    HW193585   7.726   1.015   1.778  2.0900  1.3383 -2.1622
29741SOL    HW293586   7.841   0.935   1.836 -0.7092 -0.8278  0.7714
29742SOL     OW93587   5.157   2.812   6.116  0.9349  0.8070  0.2878
29742SOL    HW193588   5.207   2.744   6.071  1.4088  0.7229  0.9390
29742SOL    HW293589   5.071   2.773   6.132  1.4074  0.1282  1.2236
29743SOL     OW93590  11.081  10.071   6.983 -0.0882 -0.3035 -0.3578
29743SOL    HW193591  11.159  10.073   6.927  0.5392 -1.0688  0.4614
29743SOL    HW293592  11.008  10.080   6.922  0.5681 -1.3452 -1.3329
29744SOL     OW93593  10.841   0.912   0.740 -0.5490 -0.2030  0.1256
29744SOL    HW193594  10.871   0.822   0.756  0.2014 -0.1014 -0.6279
29744SOL    HW293595  10.746   0.904   0.730 -0.4461 -0.9787 -0.3388
29745SOL     OW93596   7.591   8.963   7.799  0.2053 -0.3909 -0.2120
29745SOL    HW193597   7.601   9.003   7.713  1.8880  0.1655  0.2031
29745SOL    HW293598   7.652   9.011   7.855 -1.4532 -0.1668  1.5038
29746SOL     OW93599   1.063   6.536   0.078  0.1903  0.3153 -0.1114
29746SOL    HW193600   1.087   6.448   0.050  1.5307  0.7782 -0.4479
29746SOL    HW293601   1.140   6.590   0.061 -0.3956  1.4465  0.6391
29747SOL     OW93602   8.472   5.539  11.040 -0.3092  0.1491  0.2356
29747SOL    HW193603   8.516   5.620  11.066 -0.5157  0.0200  0.9889
29747SOL    HW293604   8.543   5.484  11.006  0.0034  0.2130  0.7747
29748SOL     OW93605   0.661   6.032   4.140  0.0046  0.8991 -0.5633
29748SOL    HW193606   0.692   5.956   4.090  0.4424  1.3404 -0.9726
29748SOL    HW293607   0.583   6.061   4.094 -0.4514  0.4047 -0.1196
29749SOL     OW93608   4.057   2.319   7.037  0.2032  0.8891 -0.0088
29749SOL    HW193609   4.125   2.338   6.973  0.0752  2.3043  0.2561
29749SOL    HW293610   3.993   2.389   7.027 -2.6683 -1.7673 -2.0942
29750SOL     OW93611   7.393   5.776   7.364 -0.0955  0.3073  0.6405
29750SOL    HW193612   7.304   5.765   7.398 -0.6063  2.7280  0.2213
29750SOL    HW293613   7.383   5.826   7.284  1.6873  1.1688  0.9062
29751SOL     OW93614   5.581   3.331   7.840 -0.4516  0.3362 -0.2247
29751SOL    HW193615   5.643   3.344   7.912  0.4881 -1.4480 -0.6455
29751SOL    HW293616   5.633   3.342   7.761 -1.0048  0.2789 -0.6032
29752SOL     OW93617   5.937   2.299   4.608 -0.2257 -0.1615  0.1391
29752SOL    HW193618   5.917   2.391   4.625  0.6928 -0.0729  0.8582
29752SOL    HW293619   5.873   2.272   4.542 -0.7094  0.9010  0.1484
29753SOL     OW93620   6.250   1.448  10.537  0.2507  0.3212 -0.3906
29753SOL    HW193621   6.161   1.437  10.570  0.3055 -1.7202 -0.7901
29753SOL    HW293622   6.253   1.539  10.508 -1.8745  0.3270 -0.8134
29754SOL     OW93623  10.296   5.572   8.062 -0.4068 -0.5428 -0.4620
29754SOL    HW193624  10.325   5.617   8.141 -1.2810 -2.6485  1.1349
29754SOL    HW293625  10.214   5.615   8.038  0.2446  0.6076 -0.7359
29755SOL     OW93626   7.313   4.493   4.511 -0.0448 -0.4010 -0.0310
29755SOL    HW193627   7.219   4.498   4.528 -0.1328 -1.8693  0.0868
29755SOL    HW293628   7.337   4.580   4.482 -0.7623  1.0269  3.2572
29756SOL     OW93629   4.789   0.106   4.156 -0.5085 -0.0762  0.1930
29756SOL    HW193630   4.871   0.156   4.163 -1.2393  0.9824  1.8826
29756SOL    HW293631   4.742   0.147   4.084 -0.8795  1.4113  1.2378
29757SOL     OW93632  10.937  10.340   5.188  0.2852  0.1534  0.1714
29757SOL    HW193633  10.959  10.429   5.159 -0.8915  0.4491  0.1129
29757SOL    HW293634  10.964  10.284   5.115  0.8703  0.4786  0.1289
29758SOL     OW93635   5.201   2.179  10.641  0.2985 -0.6610  0.2666
29758SOL    HW193636   5.218   2.174  10.547  1.6507 -0.0430  0.4504
29758SOL    HW293637   5.252   2.107  10.679  0.0765 -0.6626  0.5748
29759SOL     OW93638   5.922   4.215  10.055 -0.5767 -0.6023  0.2190
29759SOL    HW193639   5.987   4.191  10.121 -0.8728 -0.5164  0.5474
29759SOL    HW293640   5.866   4.278  10.100  0.6927  1.4079 -0.8613
29760SOL     OW93641   9.330  10.067   8.622  0.1024  0.4341  0.1338
29760SOL    HW193642   9.255  10.111   8.663  0.8724  1.5106  0.4339
29760SOL    HW293643   9.292   9.989   8.580 -0.8741 -0.1742  2.0239
29761SOL     OW93644   5.624  10.043   9.051 -0.2849 -0.0095 -0.0436
29761SOL    HW193645   5.574   9.962   9.059 -1.8839  0.9300 -0.2738
29761SOL    HW293646   5.560  10.113   9.062  1.1746  1.2553  0.8276
29762SOL     OW93647   2.194   7.281   2.343 -0.5845  0.3115 -0.6920
29762SOL    HW193648   2.203   7.372   2.315  0.7351 -0.1648 -1.9534
29762SOL    HW293649   2.147   7.239   2.271  0.2641 -0.3275 -0.8844
29763SOL     OW93650   9.766   5.051   5.754 -0.1466 -0.2649 -0.0051
29763SOL    HW193651   9.801   4.971   5.716 -0.0742 -0.2318 -0.0097
29763SOL    HW293652   9.674   5.033   5.771 -1.0905  0.7936 -3.3165
29764SOL     OW93653   1.052  10.538   4.433  0.1051 -0.5870 -0.4663
29764SOL    HW193654   1.146  10.533   4.414  0.0753 -0.4738 -0.6420
29764SOL    HW293655   1.024  10.619   4.391  0.0621 -0.2792  0.1530
29765SOL     OW93656   6.631  10.100   8.170  0.4037  0.3548 -0.4219
29765SOL    HW193657   6.677  10.029   8.214 -2.0075 -0.9967  0.0776
29765SOL    HW293658   6.671  10.104   8.083  1.1478 -1.0679 -0.1721
29766SOL     OW93659   7.287   4.291   7.119  0.1164  0.4653 -0.6651
29766SOL    HW193660   7.340   4.363   7.153 -0.3769  1.0613 -1.1203
29766SOL    HW293661   7.253   4.324   7.036 -0.4100 -0.1617 -0.7081
29767SOL     OW93662   4.707   7.445   4.690 -0.3608 -0.4605 -0.5249
29767SOL    HW193663   4.685   7.538   4.682 -1.8061 -0.8538 -1.3846
29767SOL    HW293664   4.649   7.401   4.629  0.7449 -1.8907 -0.6030
29768SOL     OW93665   3.414   9.867   0.328 -0.6085 -0.2005  0.0193
29768SOL    HW193666   3.510   9.865   0.335 -0.6625  0.4806  1.2824
29768SOL    HW293667   3.397   9.887   0.236  0.5069  1.0983  0.0619
29769SOL     OW93668   8.825   9.460   9.814 -0.1618 -0.1589  0.5642
29769SOL    HW193669   8.862   9.417   9.891 -0.0085 -0.4172  0.3480
29769SOL    HW293670   8.901   9.497   9.769 -0.4150  1.6519  1.5213
29770SOL     OW93671   7.146   0.477   3.727 -0.5364  0.0762  0.0587
29770SOL    HW193672   7.131   0.505   3.818 -1.6962  2.2574 -0.7294
29770SOL    HW293673   7.061   0.485   3.685 -0.4612 -2.7209 -0.8640
29771SOL     OW93674   7.229   7.628   1.692 -0.0658  0.0546 -0.2562
29771SOL    HW193675   7.283   7.576   1.633 -1.0660  0.0961 -1.2193
29771SOL    HW293676   7.154   7.572   1.713  1.4592 -1.0327  3.0981
29772SOL     OW93677   8.908   2.979  10.169  0.2293  0.6056  0.1048
29772SOL    HW193678   8.842   3.020  10.113 -0.2729 -1.2282 -0.7348
29772SOL    HW293679   8.990   3.022  10.145 -0.1016  0.3984 -1.5527
29773SOL     OW93680   1.121   1.361   3.485 -0.4093 -0.2146 -0.5866
29773SOL    HW193681   1.096   1.271   3.508 -0.9967 -0.0344 -0.5006
29773SOL    HW293682   1.197   1.379   3.541 -0.1437 -0.7380 -0.7727
29774SOL     OW93683   2.619   9.320   7.698 -0.3405 -0.5163  0.3160
29774SOL    HW193684   2.572   9.239   7.676 -0.7082 -0.1862 -0.1526
29774SOL    HW293685   2.711   9.294   7.703 -0.3668 -0.8253 -0.5827
29775SOL     OW93686   9.717  10.921   8.519  0.0675  0.3685 -0.2486
29775SOL    HW193687   9.672  10.853   8.570 -0.9295  0.1103 -1.4400
29775SOL    HW293688   9.704  11.001   8.570 -1.7293  0.2947 -0.5299
29776SOL     OW93689   9.873   0.738   7.593 -0.2636 -0.1377 -0.1085
29776SOL    HW193690   9.860   0.644   7.580  0.6495 -0.5313  1.4546
29776SOL    HW293691   9.929   0.765   7.521 -1.3383 -0.5602 -1.1287
29777SOL     OW93692   5.711   4.773   1.052 -0.2132 -0.2427 -0.1088
29777SOL    HW193693   5.659   4.750   0.975 -0.5952 -1.7088  0.5582
29777SOL    HW293694   5.677   4.859   1.079 -1.3475 -0.5527 -0.4960
29778SOL     OW93695   9.292   8.477   8.958 -0.1366 -0.2663  0.0998
29778SOL    HW193696   9.237   8.407   8.922 -0.0595 -0.7182  0.8314
29778SOL    HW293697   9.305   8.537   8.885 -1.8270 -0.0028 -0.0301
29779SOL     OW93698   5.216   5.360   3.237 -0.5523  0.2269  0.0955
29779SOL    HW193699   5.204   5.313   3.320  0.1274 -0.1135  0.0110
29779SOL    HW293700   5.271   5.302   3.185  0.6383  1.2668  0.1308
29780SOL     OW93701   5.967   6.749   0.802  0.6349 -0.6268 -0.2417
29780SOL    HW193702   5.994   6.720   0.715 -0.2116  0.6508 -0.9668
29780SOL    HW293703   6.047   6.782   0.843  1.2116 -2.0294 -0.1602
29781SOL     OW93704   4.509   9.241   4.536  0.1291  0.1050  0.3430
29781SOL    HW193705   4.602   9.251   4.555 -0.2071  0.2010  2.1591
29781SOL    HW293706   4.489   9.150   4.557 -0.2214  0.1317  0.1455
29782SOL     OW93707   0.605  10.923   1.686  0.2571  0.0612  0.0502
29782SOL    HW193708   0.554  10.987   1.736 -0.9756 -0.8004 -0.0605
29782SOL    HW293709   0.676  10.898   1.745 -0.3755  0.0905  0.8482
29783SOL     OW93710   9.451   3.497   9.530 -0.0570  1.2945 -0.1997
29783SOL    HW193711   9.543   3.518   9.515  0.0175  3.5327  2.5207
29783SOL    HW293712   9.447   3.473   9.623 -2.3208  2.0546 -0.0500
29784SOL     OW93713   8.182   1.957   2.277 -0.0347  0.5240  0.0076
29784SOL    HW193714   8.173   2.052   2.277 -1.4560  0.4701  2.2932
29784SOL    HW293715   8.103   1.926   2.233  1.3797  0.3429 -2.6114
29785SOL     OW93716   2.271   2.280   6.376  0.4774 -0.4117  0.4501
29785SOL    HW193717   2.217   2.205   6.402 -0.7775  0.6195  0.9429
29785SOL    HW293718   2.347   2.276   6.433  0.3991 -1.2705  0.5060
29786SOL     OW93719   9.140   0.121   9.264  0.0554 -0.1012 -0.3260
29786SOL    HW193720   9.159   0.159   9.179 -0.0326 -2.9586 -1.7492
29786SOL    HW293721   9.045   0.112   9.267  0.1147 -0.7576 -0.2847
29787SOL     OW93722   8.375   8.632   7.693 -0.3543 -0.6388 -0.5142
29787SOL    HW193723   8.442   8.683   7.647 -1.2368 -0.1390 -1.2975
29787SOL    HW293724   8.385   8.655   7.785 -0.0050  0.0798 -0.7269
29788SOL     OW93725   9.860   7.775   6.601  0.3594  0.3505 -0.4159
29788SOL    HW193726   9.837   7.853   6.651 -0.5610  0.3289 -0.7904
29788SOL    HW293727   9.928   7.733   6.654  0.4506  1.0887  0.0837
29789SOL     OW93728   1.382  10.802   0.328 -0.0415 -0.4300 -0.0851
29789SOL    HW193729   1.329  10.722   0.335  0.1868 -0.7674 -1.6967
29789SOL    HW293730   1.467  10.772   0.294 -0.7257  0.6653 -3.1369
29790SOL     OW93731   2.553  11.076   9.603 -0.7440 -0.5267 -0.5044
29790SOL    HW193732   2.601  11.121   9.534 -1.5947  0.0163 -0.7655
29790SOL    HW293733   2.602  10.996   9.619  0.5443  0.2635 -0.3668
29791SOL     OW93734   0.439   8.114   8.212  0.4648  0.4121  0.4224
29791SOL    HW193735   0.402   8.176   8.149  0.9167  0.1615 -0.0955
29791SOL    HW293736   0.512   8.073   8.166 -0.3932 -1.1895  0.4020
29792SOL     OW93737   7.279   1.386   8.415 -0.6078  0.3809 -0.5796
29792SOL    HW193738   7.230   1.440   8.477 -0.5557  2.1570 -2.0139
29792SOL    HW293739   7.361   1.433   8.400  0.0994 -0.8620 -0.7455
29793SOL     OW93740  10.971   9.874   7.473 -0.0643  0.1278 -0.4653
29793SOL    HW193741  10.996   9.812   7.404 -2.4412  1.1104 -2.3438
29793SOL    HW293742  10.899   9.831   7.519 -0.9329  0.9762 -1.0096
29794SOL     OW93743   2.583  10.831   9.931  0.4223 -0.3741 -0.0458
29794SOL    HW193744   2.500  10.820   9.885  1.1034  0.2283 -1.4616
29794SOL    HW293745   2.583  10.923   9.958  0.8126 -0.2624 -0.4217
29795SOL     OW93746   2.217   4.342   4.877 -0.5658  0.2092  0.5933
29795SOL    HW193747   2.245   4.407   4.942 -3.4055  0.8571  1.3067
29795SOL    HW293748   2.204   4.392   4.797  3.6276 -0.7016 -0.9140
29796SOL     OW93749   6.572   5.240   5.397 -0.2543  0.1435 -0.4383
29796SOL    HW193750   6.505   5.303   5.370 -0.9113  0.7620  2.2946
29796SOL    HW293751   6.555   5.163   5.343 -2.4967  0.6791 -0.6172
29797SOL     OW93752   1.923   1.371   7.476  0.6253  0.2972  0.3736
29797SOL    HW193753   1.831   1.383   7.451  0.2794 -0.2564  1.3261
29797SOL    HW293754   1.947   1.285   7.442  0.1713 -0.4324  1.7945
29798SOL     OW93755   0.496   5.219   1.659 -0.8221 -0.3544  0.0174
29798SOL    HW193756   0.509   5.128   1.636 -0.2118 -0.9701  2.4293
29798SOL    HW293757   0.440   5.217   1.736 -0.1859  1.2302  0.5839
29799SOL     OW93758   8.512   3.964   4.496 -0.0067 -0.1142  0.0266
29799SOL    HW193759   8.444   4.032   4.496  1.3176  1.3532 -2.4973
29799SOL    HW293760   8.519   3.937   4.405  2.5739 -0.4557  0.2595
29800SOL     OW93761   6.054   9.772   6.426  0.1282  0.1871 -0.0359
29800SOL    HW193762   6.024   9.825   6.352  1.3946  0.1415 -0.5975
29800SOL    HW293763   5.974   9.733   6.461 -0.4086 -0.5380 -1.9560
29801SOL     OW93764   8.177   8.795   9.794  0.0950 -0.1035  0.0606
29801SOL    HW193765   8.272   8.806   9.789 -0.1546  2.4732 -0.5225
29801SOL    HW293766   8.158   8.797   9.888  0.4268  2.4911  0.1554
29802SOL     OW93767   1.436   4.995   4.386  0.1073  0.2476  0.5020
29802SOL    HW193768   1.472   4.957   4.306 -0.8055  1.4433 -0.5210
29802SOL    HW293769   1.345   4.965   4.388  0.1597  0.1242  1.1615
29803SOL     OW93770   0.435   1.765   3.873 -0.0243  0.5364 -0.2929
29803SOL    HW193771   0.352   1.799   3.908  0.2328 -0.1885  1.0856
29803SOL    HW293772   0.479   1.843   3.838 -0.7271  1.1415  0.1254
29804SOL     OW93773   8.225  10.309   4.350 -0.5749 -0.2936  0.2023
29804SOL    HW193774   8.160  10.323   4.418 -1.0023  0.3070 -0.3189
29804SOL    HW293775   8.181  10.333   4.269 -0.0063 -0.7948 -0.2661
29805SOL     OW93776   6.992   0.755   5.984  0.2598 -0.6407  0.0588
29805SOL    HW193777   6.952   0.840   6.004  1.3453 -0.4341  1.4597
29805SOL    HW293778   6.940   0.722   5.911 -1.4295  0.3402  0.7504
29806SOL     OW93779   4.158   9.205   9.241 -0.3654 -0.3970 -0.0716
29806SOL    HW193780   4.100   9.137   9.276 -0.6607 -0.5254 -0.7705
29806SOL    HW293781   4.133   9.211   9.148 -1.5955  1.9353  0.3423
29807SOL     OW93782   0.103   5.332   9.839  0.7523  0.3338 -0.2284
29807SOL    HW193783   0.048   5.267   9.882 -0.4109  1.6835  0.3680
29807SOL    HW293784   0.190   5.317   9.875  0.7682 -1.6135 -0.9503
29808SOL     OW93785   8.769   2.916   4.917 -0.4177  0.9171 -0.0315
29808SOL    HW193786   8.828   2.891   4.988  0.0627 -1.0369 -1.0403
29808SOL    HW293787   8.696   2.961   4.961 -0.4766 -0.8213  1.7993
29809SOL     OW93788   4.885  10.772   5.264 -0.3716  0.1968  0.5203
29809SOL    HW193789   4.791  10.763   5.253 -0.3830 -1.3491  1.6099
29809SOL    HW293790   4.897  10.801   5.354  0.2161  0.0278  0.5060
29810SOL     OW93791   1.642   1.308   0.995 -0.6327  0.2475  0.1358
29810SOL    HW193792   1.559   1.264   0.978 -0.2717 -0.3564 -0.1313
29810SOL    HW293793   1.685   1.312   0.909 -0.1062 -0.0458  0.3760
29811SOL     OW93794   5.145   2.353   8.537  0.2125 -0.3919 -0.0893
29811SOL    HW193795   5.084   2.419   8.503 -1.6270 -1.5181  0.8232
29811SOL    HW293796   5.232   2.385   8.512 -0.8005  0.6209 -2.6142
29812SOL     OW93797   4.799   9.783   5.091  0.0900  0.0829 -0.3758
29812SOL    HW193798   4.728   9.782   5.028  0.7661  0.9499 -1.1782
29812SOL    HW293799   4.756   9.766   5.175 -0.7797 -1.3564 -1.0674
29813SOL     OW93800   6.907   5.165   1.620 -0.7541  0.7561  0.2808
29813SOL    HW193801   6.940   5.205   1.539  1.1120 -0.1110  0.5650
29813SOL    HW293802   6.975   5.102   1.645 -1.0876  1.3117  2.7773
29814SOL     OW93803   5.545   7.539   7.878  0.3502  0.0335  0.2104
29814SOL    HW193804   5.452   7.559   7.886  0.1115 -1.2741  1.1367
29814SOL    HW293805   5.588   7.600   7.938 -0.2202 -1.1857  1.9361
29815SOL     OW93806   9.178   8.754   5.625  0.1716 -0.0611  0.0623
29815SOL    HW193807   9.153   8.703   5.548  1.5320 -0.9973  0.2000
29815SOL    HW293808   9.114   8.730   5.692 -2.1347  2.1098 -1.2063
29816SOL     OW93809   4.018   9.846   2.919 -0.5995  0.2022  0.3604
29816SOL    HW193810   3.967   9.817   2.844 -1.8134  0.4179  1.0740
29816SOL    HW293811   4.109   9.838   2.891 -1.0124 -0.3695 -0.8824
29817SOL     OW93812   9.409   9.839   4.712 -0.5258  0.2230  0.5671
29817SOL    HW193813   9.427   9.877   4.626 -1.8305  0.4765  0.3769
29817SOL    HW293814   9.492   9.843   4.759  0.5011 -0.9024 -1.0362
29818SOL     OW93815   9.654   0.182  10.819  0.2469 -0.7405 -0.5627
29818SOL    HW193816   9.596   0.227  10.880  1.7922  0.5552  0.0067
29818SOL    HW293817   9.647   0.089  10.844 -1.4290 -0.6035 -0.4226
29819SOL     OW93818   0.529   0.468   1.001 -0.2758 -0.2412  0.1797
29819SOL    HW193819   0.569   0.405   0.942 -0.7030 -1.2210  0.9161
29819SOL    HW293820   0.456   0.505   0.950  0.1803 -0.0911 -0.3698
29820SOL     OW93821   1.249   9.760   3.051  0.7265 -0.8204 -0.0584
29820SOL    HW193822   1.171   9.791   3.006  2.0700  0.8125 -1.3722
29820SOL    HW293823   1.218   9.734   3.138 -0.7979  3.0765  0.7588
29821SOL     OW93824   5.811   7.456   2.737 -0.4800 -0.0643  0.6222
29821SOL    HW193825   5.869   7.516   2.785  0.8357 -0.4774 -0.4048
29821SOL    HW293826   5.850   7.370   2.751 -0.8173 -0.3416 -0.1412
29822SOL     OW93827   8.519   8.506   0.164  0.3876  0.4236  0.3997
29822SOL    HW193828   8.581   8.443   0.201  0.9583  0.0888 -1.0709
29822SOL    HW293829   8.559   8.533   0.081 -0.7784  1.2692  0.0921
29823SOL     OW93830   3.063   3.501   4.511  0.0689 -0.6286  0.1334
29823SOL    HW193831   2.969   3.481   4.511  0.0267 -0.4520 -0.8040
29823SOL    HW293832   3.081   3.527   4.602 -1.6680  3.3675 -0.4514
29824SOL     OW93833   0.830   3.971   2.983 -0.1198  0.2145  0.3190
29824SOL    HW193834   0.784   3.898   2.943  1.2525  0.2427 -1.4635
29824SOL    HW293835   0.775   4.047   2.965  0.0681  0.0947 -0.8369
29825SOL     OW93836   6.370   6.689  10.159  0.5951 -0.0393 -0.0528
29825SOL    HW193837   6.444   6.637  10.191  1.1280  0.4300 -0.5182
29825SOL    HW293838   6.377   6.687  10.064 -1.2460 -1.8096 -0.2364
29826SOL     OW93839   3.754   2.611   2.177 -0.3671 -0.1589 -0.0493
29826SOL    HW193840   3.811   2.534   2.186  0.0273  0.0844 -0.4168
29826SOL    HW293841   3.677   2.580   2.131 -1.0861 -0.7674  1.5007
29827SOL     OW93842   9.683   4.461   6.519 -0.4120  0.0616  0.3502
29827SOL    HW193843   9.598   4.454   6.475  0.0773 -0.2299 -0.5753
29827SOL    HW293844   9.721   4.373   6.511 -1.3020 -0.7182  3.4729
29828SOL     OW93845   4.327   3.934  10.847  0.6483 -0.6470  0.0589
29828SOL    HW193846   4.264   3.981  10.902 -0.2719 -1.9592  0.1824
29828SOL    HW293847   4.397   3.908  10.907 -0.1223 -1.6649  0.5627
29829SOL     OW93848   1.844   0.967  11.111  0.5732  0.2106 -0.4962
29829SOL    HW193849   1.780   1.036  11.093  0.2072 -0.0085 -0.0396
29829SOL    HW293850   1.884   0.949  11.026 -0.5586 -0.2267 -0.9631
29830SOL     OW93851   0.984  10.285   8.019  0.2560  0.2948 -0.2779
29830SOL    HW193852   0.926  10.240   7.957  0.5971 -1.2597  0.4716
29830SOL    HW293853   1.002  10.369   7.979 -2.1179  0.6302 -0.7710
29831SOL     OW93854   1.683   7.041   0.955  0.0296  0.2906 -0.2153
29831SOL    HW193855   1.598   7.011   0.989 -0.9769  1.8923 -1.2288
29831SOL    HW293856   1.661   7.105   0.888  2.0722  1.5256  0.2244
29832SOL     OW93857   4.721  10.948   4.188  0.0539 -0.1276  0.3230
29832SOL    HW193858   4.722  11.037   4.153 -1.0198  0.3504  1.3884
29832SOL    HW293859   4.771  10.954   4.270 -0.9574 -0.2044  0.9749
29833SOL     OW93860   5.544   2.861   7.640  0.0719 -0.3590  0.0616
29833SOL    HW193861   5.570   2.777   7.603 -0.1384  0.2637 -1.5676
29833SOL    HW293862   5.452   2.871   7.615  0.4782  0.9786 -1.0316
29834SOL     OW93863   2.070   8.617   1.747  0.4231  0.1498 -0.6561
29834SOL    HW193864   2.014   8.585   1.676 -0.0444  1.0373 -0.6978
29834SOL    HW293865   2.037   8.573   1.825 -0.1165  0.4110 -0.7348
29835SOL     OW93866   2.791  10.914   6.601 -0.4479  0.1622 -0.2188
29835SOL    HW193867   2.775  10.941   6.691 -1.6672  2.5971 -1.0767
29835SOL    HW293868   2.864  10.969   6.572  0.4405 -1.1310 -0.5294
29836SOL     OW93869   5.509   6.735   8.993 -0.3235 -0.5695  0.4485
29836SOL    HW193870   5.583   6.688   8.954  0.5513  0.2080  1.1342
29836SOL    HW293871   5.434   6.677   8.979  0.5196 -1.6524  0.2748
29837SOL     OW93872   0.934   6.690   3.694  0.4033  0.5395  0.3800
29837SOL    HW193873   0.906   6.764   3.748  1.5000  0.4002  1.1939
29837SOL    HW293874   0.961   6.623   3.758  0.7206 -0.0387 -0.3412
29838SOL     OW93875   6.757  10.083   5.073  0.1741 -0.3676  0.2738
29838SOL    HW193876   6.750   9.991   5.049 -2.9543  0.0666 -0.9877
29838SOL    HW293877   6.748  10.083   5.168  1.3667 -1.4161  0.4069
29839SOL     OW93878   7.160   3.336   1.810  0.5721  0.2828 -0.9643
29839SOL    HW193879   7.210   3.338   1.892  0.9347 -1.8866 -1.0717
29839SOL    HW293880   7.069   3.340   1.838  0.7058  0.0508 -0.4748
29840SOL     OW93881   8.798   5.985   3.776 -0.3036  0.0972  0.1369
29840SOL    HW193882   8.842   5.959   3.695 -1.6020 -1.0723 -0.2402
29840SOL    HW293883   8.705   5.971   3.758 -0.7593  1.4637  1.2599
29841SOL     OW93884   2.712   8.777   1.204 -0.2122  0.4388  0.0372
29841SOL    HW193885   2.641   8.714   1.188  0.1330 -0.2595  1.1664
29841SOL    HW293886   2.692   8.851   1.146 -1.5863  0.0446 -0.0199
29842SOL     OW93887   3.745   2.525   9.278 -0.6867  0.1022  0.4312
29842SOL    HW193888   3.816   2.569   9.231 -0.5735 -0.7333 -0.2035
29842SOL    HW293889   3.765   2.431   9.269 -0.0641 -0.1014  3.0576
29843SOL     OW93890   6.918   7.499   7.113 -0.7180 -0.4161 -0.7258
29843SOL    HW193891   6.935   7.430   7.049  1.6799 -0.6738  0.1168
29843SOL    HW293892   7.003   7.539   7.130 -1.5718  0.8260  0.9689
29844SOL     OW93893   8.442   3.577   9.573  0.5728 -0.3512 -0.5102
29844SOL    HW193894   8.370   3.532   9.528 -1.3264  0.6797  1.3252
29844SOL    HW293895   8.409   3.666   9.589  2.4868  0.3348 -0.1130
29845SOL     OW93896   0.032   1.678   6.878 -0.0079 -0.2550 -0.4475
29845SOL    HW193897  -0.015   1.630   6.810  0.9010 -1.3732 -0.3141
29845SOL    HW293898   0.124   1.655   6.865  0.4201  1.1591 -0.1305
29846SOL     OW93899   9.828   1.082   8.551 -0.5451  0.3870  0.7446
29846SOL    HW193900   9.774   1.082   8.472  0.9243 -1.1427 -0.3293
29846SOL    HW293901   9.780   1.027   8.613 -1.9983  2.0694  1.2083
29847SOL     OW93902   2.478   9.861   9.140  0.2824  0.1265 -0.0585
29847SOL    HW193903   2.500   9.803   9.213  1.1656  0.2432 -0.2185
29847SOL    HW293904   2.469   9.947   9.180 -0.1262  0.0410  0.0406
29848SOL     OW93905   9.938   8.653   3.627  0.6238 -0.0820 -0.0527
29848SOL    HW193906   9.843   8.658   3.637  0.4668 -1.4166 -0.6712
29848SOL    HW293907   9.954   8.675   3.535  0.9417  0.2660  0.0794
29849SOL     OW93908   5.834  10.729   7.314 -0.2146 -0.2379  0.0153
29849SOL    HW193909   5.829  10.639   7.344 -0.6340  0.0067  0.6949
29849SOL    HW293910   5.743  10.755   7.299 -0.0676 -0.0837 -0.6563
29850SOL     OW93911   2.849   1.157   2.676 -0.3897  0.8802 -0.2759
29850SOL    HW193912   2.866   1.200   2.760 -1.4567  0.3658  0.2245
29850SOL    HW293913   2.885   1.217   2.611  1.6128  0.6999  0.5845
29851SOL     OW93914   8.280   6.130   2.046 -0.4021 -0.0847 -0.0122
29851SOL    HW193915   8.347   6.080   1.999 -1.1997  0.2532 -1.5888
29851SOL    HW293916   8.329   6.197   2.093  0.3784  0.2335 -1.2329
29852SOL     OW93917   7.229  10.082   0.619  0.4968  0.3992 -0.1297
29852SOL    HW193918   7.322  10.099   0.636  0.4705  0.9638 -0.5391
29852SOL    HW293919   7.184  10.159   0.653  0.0935 -0.2445  0.8412
29853SOL     OW93920   5.168   0.711   5.951 -0.5057 -0.4367  0.0736
29853SOL    HW193921   5.095   0.716   6.012 -0.7356 -1.9805 -0.0297
29853SOL    HW293922   5.171   0.797   5.909 -1.3115  0.1254  1.1501
29854SOL     OW93923   5.592   8.389   3.819  0.2027  0.0090 -0.2025
29854SOL    HW193924   5.606   8.473   3.776 -0.4918  1.4952  2.2551
29854SOL    HW293925   5.498   8.372   3.808  0.1706  0.0129  0.0557
29855SOL     OW93926   5.326   2.267   1.835  0.2294  0.6599  0.5363
29855SOL    HW193927   5.233   2.292   1.828  0.2734  0.8288  0.5560
29855SOL    HW293928   5.326   2.173   1.820  0.0768  0.6890  0.3362
29856SOL     OW93929   1.360   1.979   3.529  0.2110 -0.6270  0.1091
29856SOL    HW193930   1.356   1.921   3.453 -1.0065 -0.1777 -0.1933
29856SOL    HW293931   1.400   1.925   3.597 -1.1336 -1.9621 -0.0795
29857SOL     OW93932   4.081   4.977  10.548  0.0971  0.5623  0.4335
29857SOL    HW193933   4.128   4.903  10.509 -0.8963 -0.6424  1.4018
29857SOL    HW293934   4.013   4.998  10.485 -0.5752 -0.3921  0.8166
29858SOL     OW93935   0.896   5.886   0.642  0.2495  0.0519 -0.2330
29858SOL    HW193936   0.957   5.813   0.644 -1.1693 -1.1850 -0.1596
29858SOL    HW293937   0.814   5.850   0.677 -0.2881  1.8836  0.5301
29859SOL     OW93938   0.266   7.313   5.122  0.2372 -0.3251 -0.3268
29859SOL    HW193939   0.336   7.310   5.056  0.2208 -2.3085 -0.3239
29859SOL    HW293940   0.187   7.286   5.073 -0.0204 -0.5679  0.2182
29860SOL     OW93941   5.690   3.989   8.999 -0.8988 -0.1337 -0.1526
29860SOL    HW193942   5.755   3.919   9.003 -0.6494  0.0536 -0.7590
29860SOL    HW293943   5.738   4.068   9.023 -1.3416 -0.2575  1.2218
29861SOL     OW93944   3.228   6.394   9.926 -0.5660 -0.4783 -0.0478
29861SOL    HW193945   3.322   6.410   9.935 -0.2985 -2.1294  0.3747
29861SOL    HW293946   3.220   6.341   9.847 -1.2594  0.4729 -0.6304
29862SOL     OW93947   1.963   9.271   2.444  0.1067 -0.3316  0.0821
29862SOL    HW193948   1.882   9.306   2.409 -0.1703  1.0733  1.9383
29862SOL    HW293949   1.962   9.178   2.421 -1.5615 -0.1416 -0.7168
29863SOL     OW93950   1.928   9.697   3.653 -0.9402 -0.0078  0.0119
29863SOL    HW193951   1.983   9.759   3.606 -0.2205  0.0394  0.8759
29863SOL    HW293952   1.874   9.656   3.586 -0.6121  0.7336 -0.7154
29864SOL     OW93953  10.084   8.412   6.420 -0.0316  0.1235  0.1597
29864SOL    HW193954  10.026   8.484   6.443  0.2330  0.6400 -0.7273
29864SOL    HW293955  10.041   8.334   6.454 -0.0819  0.7348  1.5655
29865SOL     OW93956   9.624  10.469   1.294  0.0991 -0.2434  0.6343
29865SOL    HW193957   9.654  10.379   1.305 -0.8214 -0.6871 -0.3426
29865SOL    HW293958   9.610  10.478   1.200 -2.5047  0.0169  0.9798
29866SOL     OW93959   4.840   2.158   2.770  0.4872  0.3370  0.0342
29866SOL    HW193960   4.748   2.168   2.795  0.5914  1.2174  0.1013
29866SOL    HW293961   4.844   2.072   2.730 -0.9018  1.2400 -2.2327
29867SOL     OW93962   5.974   5.848   9.683 -0.2919 -0.1490 -0.2304
29867SOL    HW193963   5.907   5.789   9.648 -0.7870  0.1704  0.1662
29867SOL    HW293964   6.055   5.797   9.680 -0.4089 -0.2868 -1.3891
29868SOL     OW93965   4.582   6.932   7.290 -0.4436 -0.3209 -0.3050
29868SOL    HW193966   4.528   6.876   7.347  0.0268 -1.0507 -0.5660
29868SOL    HW293967   4.671   6.918   7.320 -0.3749  0.8830  0.1191
29869SOL     OW93968   1.082   4.609  10.433  0.1592 -0.5030 -0.5211
29869SOL    HW193969   1.036   4.691  10.416  0.9842 -0.3675 -2.4124
29869SOL    HW293970   1.012   4.544  10.443 -0.4827  0.2595  0.0492
29870SOL     OW93971   8.215   0.046   6.908  0.0159  0.1876  0.0948
29870SOL    HW193972   8.251  -0.016   6.971  0.3564 -0.7465 -0.9807
29870SOL    HW293973   8.124   0.018   6.896 -0.0848  0.4394  0.2511
29871SOL     OW93974   1.389   1.354   1.727 -0.2595  0.0122  0.3951
29871SOL    HW193975   1.481   1.381   1.730 -0.8653  2.2470  0.7829
29871SOL    HW293976   1.353   1.400   1.651 -1.1997 -0.2911  0.6475
29872SOL     OW93977   4.240   4.323   0.888 -0.4312  0.1742 -0.4536
29872SOL    HW193978   4.232   4.374   0.969  0.9510 -0.2696 -0.0027
29872SOL    HW293979   4.179   4.364   0.827 -1.3422  0.6591  0.7425
29873SOL     OW93980   5.436   4.492   6.419 -0.2959  0.3286 -0.8651
29873SOL    HW193981   5.523   4.509   6.384 -0.7281  1.4486 -1.4453
29873SOL    HW293982   5.381   4.483   6.341 -0.7854  0.1449 -0.5001
29874SOL     OW93983   9.177   5.394   3.125  0.0355  0.8106 -0.1749
29874SOL    HW193984   9.239   5.466   3.138 -1.5625  2.0724  0.7807
29874SOL    HW293985   9.091   5.432   3.141 -0.8983 -1.2695  0.1574
29875SOL     OW93986   2.931   9.162   1.078 -0.2777  0.0385 -0.0889
29875SOL    HW193987   2.965   9.119   0.999  1.2308  0.8239  0.1003
29875SOL    HW293988   2.862   9.221   1.046  0.0923  0.1073 -0.7730
29876SOL     OW93989   7.392   6.176   6.375  0.3777 -0.2372  0.1582
29876SOL    HW193990   7.323   6.136   6.323  1.1707 -0.5438 -0.6874
29876SOL    HW293991   7.413   6.257   6.329 -0.9182  1.0012  1.6251
29877SOL     OW93992   3.315   4.244   7.867  0.2902  0.4851 -0.0199
29877SOL    HW193993   3.357   4.268   7.785  2.8409 -0.2389  0.9769
29877SOL    HW293994   3.370   4.282   7.935 -1.6635  0.9494  1.4048
29878SOL     OW93995   8.026   2.546  10.549 -0.2869  0.1905  0.5077
29878SOL    HW193996   8.093   2.484  10.522 -0.3379  1.1678 -2.0928
29878SOL    HW293997   7.989   2.507  10.629  1.9329 -1.3753  0.8802
29879SOL     OW93998   4.137   5.622  10.745 -0.0258 -0.6008 -0.0566
29879SOL    HW193999   4.174   5.604  10.659  0.0768 -0.8709  0.0408
29879SOL    HW294000   4.191   5.570  10.805  1.5067  1.4521  0.4788
29880SOL     OW94001   1.956   5.649   9.061 -0.2746 -0.6629 -0.1741
29880SOL    HW194002   1.889   5.693   9.009  0.1139 -0.2076 -0.2952
29880SOL    HW294003   1.997   5.587   9.001 -0.3604 -0.7035 -0.1910
29881SOL     OW94004   7.498   8.128   6.445  0.1259 -0.2293  0.8692
29881SOL    HW194005   7.424   8.131   6.506  0.2704 -0.1648  1.0411
29881SOL    HW294006   7.570   8.169   6.493 -0.2936  1.7204 -0.0630
29882SOL     OW94007   6.184   5.959   6.741 -0.1086 -0.1924 -0.3853
29882SOL    HW194008   6.179   6.033   6.680 -1.5648  0.8282  0.9015
29882SOL    HW294009   6.175   5.999   6.827 -1.2742 -1.8988  0.3208
29883SOL     OW94010   7.141   9.802   0.028 -0.0961 -0.0407 -0.1922
29883SOL    HW194011   7.152   9.742   0.102 -0.1542  1.0015  0.7003
29883SOL    HW294012   7.121   9.746  -0.046 -0.9185 -1.0670  0.7657
29884SOL     OW94013   1.416  10.151   4.999 -0.3486 -0.4509 -0.2980
29884SOL    HW194014   1.455  10.116   4.918 -0.7691 -0.2202 -0.6051
29884SOL    HW294015   1.483  10.137   5.066 -0.1112 -0.9134 -0.6263
29885SOL     OW94016   4.067   8.605   5.642 -0.1405 -0.0822  0.1679
29885SOL    HW194017   4.048   8.580   5.551 -0.7369  2.2305 -0.4063
29885SOL    HW294018   4.099   8.524   5.683 -3.0336 -2.0782 -1.1663
29886SOL     OW94019   7.734   2.055   9.190  0.0572 -0.4807  0.3711
29886SOL    HW194020   7.800   2.041   9.121 -0.3939  1.9170 -0.6668
29886SOL    HW294021   7.782   2.099   9.260 -0.2542  0.5310 -0.0426
29887SOL     OW94022   6.912   4.166   2.539  0.0862 -0.1602 -0.3640
29887SOL    HW194023   6.869   4.206   2.615  1.4575 -0.7854  0.7841
29887SOL    HW294024   6.997   4.138   2.572  1.2564  0.6973 -2.4504
29888SOL     OW94025  10.939   7.657   4.087 -0.0490  0.2293  0.4742
29888SOL    HW194026  10.932   7.731   4.147 -0.0143  0.4608  0.1905
29888SOL    HW294027  11.022   7.615   4.109  0.8753  1.3909 -0.6405
29889SOL     OW94028   7.675   7.621  10.589 -0.7601 -0.5332 -0.3314
29889SOL    HW194029   7.675   7.679  10.513 -1.7696 -0.8004 -0.5501
29889SOL    HW294030   7.626   7.670  10.656  1.8486  0.6084  0.9021
29890SOL     OW94031   8.812   9.684  10.155  0.0306  0.1780 -0.1109
29890SOL    HW194032   8.879   9.744  10.124  0.5512 -0.1971  0.2832
29890SOL    HW294033   8.747   9.682  10.084  0.4953  0.4384 -0.5473
29891SOL     OW94034   9.065   9.497   7.853  0.1637  0.6605 -0.2236
29891SOL    HW194035   9.030   9.585   7.851 -0.3868  0.4653  0.4539
29891SOL    HW294036   9.038   9.457   7.770 -0.2529  0.8716 -0.1874
29892SOL     OW94037   0.393   7.549   4.057  0.4826 -0.1202  0.1832
29892SOL    HW194038   0.437   7.542   3.972 -0.1045 -0.7665 -0.0791
29892SOL    HW294039   0.426   7.631   4.094  3.0008 -1.2780  0.6776
29893SOL     OW94040   6.598   0.689   9.528  0.1431  0.3815  0.5658
29893SOL    HW194041   6.554   0.655   9.451 -1.2206  1.3920  0.8553
29893SOL    HW294042   6.689   0.659   9.520 -0.2289 -0.4287 -0.8574
29894SOL     OW94043   2.456   2.534   9.226 -0.0538 -0.7189 -0.2505
29894SOL    HW194044   2.495   2.464   9.279  1.5599  1.1099  1.1288
29894SOL    HW294045   2.437   2.604   9.289 -2.1865 -0.0846 -1.4815
29895SOL     OW94046   3.729   2.091   3.790  0.1606 -0.2766 -0.1712
29895SOL    HW194047   3.747   2.142   3.711 -2.0705  0.3999 -0.3079
29895SOL    HW294048   3.661   2.029   3.764  0.5486 -1.1705  0.8348
29896SOL     OW94049   1.381   7.415   9.526 -0.3701  0.1798  0.0611
29896SOL    HW194050   1.289   7.404   9.502 -0.6084  0.8636  0.6150
29896SOL    HW294051   1.385   7.385   9.617  0.2818 -1.3055 -0.4377
29897SOL     OW94052   0.972   8.108   7.531 -0.1630 -0.2546  0.0788
29897SOL    HW194053   0.996   8.113   7.438  1.3162  1.4523  0.4813
29897SOL    HW294054   0.876   8.109   7.531 -0.1953  0.5963 -1.4312
29898SOL     OW94055   4.372   1.274   7.501  0.5667 -0.2035  0.6596
29898SOL    HW194056   4.360   1.292   7.408  4.2080  0.3628  0.1712
29898SOL    HW294057   4.374   1.360   7.542 -1.1187 -0.4520  1.3834
29899SOL     OW94058   1.782  10.451   2.370  0.5539 -0.6346 -0.0639
29899SOL    HW194059   1.750  10.476   2.457 -0.3148 -0.0115 -0.5439
29899SOL    HW294060   1.705  10.414   2.326  0.6655  0.2262 -1.0023
29900SOL     OW94061   5.979   9.427   5.229 -0.5856 -0.0621  0.0188
29900SOL    HW194062   5.926   9.412   5.307 -0.0889  1.2451  0.6378
29900SOL    HW294063   6.043   9.356   5.230 -1.8576 -1.2679 -0.3696
29901SOL     OW94064  10.806   1.275   2.796  0.3977  0.0390 -0.6977
29901SOL    HW194065  10.752   1.288   2.874  1.2397 -0.8265  0.0581
29901SOL    HW294066  10.764   1.201   2.751 -0.4987  0.9868 -1.4600
29902SOL     OW94067   9.003   7.856   0.431 -0.1147  0.4753  0.0986
29902SOL    HW194068   8.981   7.940   0.472 -1.7874 -0.2574  0.8382
29902SOL    HW294069   9.019   7.797   0.505 -1.9897 -0.5778 -0.2727
29903SOL     OW94070   7.754   3.161  10.426  0.2859  0.2486  0.1916
29903SOL    HW194071   7.772   3.105  10.350  1.7292 -0.2953  0.8906
29903SOL    HW294072   7.689   3.114  10.477 -1.2575  0.9606 -1.0386
29904SOL     OW94073   9.779   2.606   2.249 -0.0632  0.0353 -0.3654
29904SOL    HW194074   9.865   2.566   2.236 -0.2675 -0.3283 -0.6142
29904SOL    HW294075   9.718   2.534   2.241 -0.3262  0.0803  0.9705
29905SOL     OW94076   3.529   4.773   6.644 -0.1056 -0.3987  0.0426
29905SOL    HW194077   3.603   4.815   6.599  1.3288 -0.9905  1.7155
29905SOL    HW294078   3.476   4.734   6.574  0.3440  1.3079 -1.3029
29906SOL     OW94079   3.416   0.224   5.559 -0.1894  0.0641  0.4778
29906SOL    HW194080   3.448   0.292   5.500 -3.4951 -0.7019 -2.5967
29906SOL    HW294081   3.322   0.241   5.566 -0.6506 -2.4956  1.9937
29907SOL     OW94082   5.576   5.588   6.143  0.1878 -0.3591  0.4078
29907SOL    HW194083   5.540   5.631   6.066  0.2248  1.2600  1.2705
29907SOL    HW294084   5.501   5.573   6.201  0.4460  0.3157  0.9310
29908SOL     OW94085   2.973   7.252   7.597  0.4947 -0.1996 -0.0888
29908SOL    HW194086   2.952   7.217   7.511  0.2936 -0.7755  0.1910
29908SOL    HW294087   2.915   7.329   7.605  1.6121  0.7843 -1.0808
29909SOL     OW94088   9.216   2.593   4.893  0.3374  0.1026 -0.0279
29909SOL    HW194089   9.201   2.658   4.825 -0.0293 -0.2074 -0.2428
29909SOL    HW294090   9.256   2.519   4.847 -0.0558 -0.1698  0.0636
29910SOL     OW94091   7.897   3.450   1.334 -0.6520 -0.0919 -0.4044
29910SOL    HW194092   7.923   3.538   1.308  0.3575 -0.6053 -1.2323
29910SOL    HW294093   7.804   3.457   1.355 -0.2362  1.5138  1.1663
29911SOL     OW94094   9.648   4.799  11.050  0.1865  0.4826  0.1866
29911SOL    HW194095   9.580   4.834  10.993 -0.9423  0.3666  1.4192
29911SOL    HW294096   9.620   4.823  11.138  1.2138 -0.4812  0.7998
29912SOL     OW94097   1.232   3.993   4.264 -0.1498  0.1182  1.0753
29912SOL    HW194098   1.323   4.007   4.290 -0.1432 -0.0279  1.1292
29912SOL    HW294099   1.223   4.044   4.183  0.8877 -2.3350 -0.7193
29913SOL     OW94100   8.031   4.358   8.727  0.3655 -0.2496  0.2196
29913SOL    HW194101   8.121   4.330   8.742  1.3840  2.1966 -0.8693
29913SOL    HW294102   8.017   4.431   8.788 -0.6069 -0.0962 -0.1595
29914SOL     OW94103   4.538   6.964   2.051 -0.0522 -0.2936  0.2207
29914SOL    HW194104   4.472   6.908   2.091 -0.1171 -0.7837 -0.5629
29914SOL    HW294105   4.518   6.962   1.958  0.8703 -0.1832  0.0117
29915SOL     OW94106   1.151   2.682   7.763 -0.0159  0.7665  0.3748
29915SOL    HW194107   1.167   2.724   7.848 -1.9044  0.4494  0.9258
29915SOL    HW294108   1.183   2.593   7.775  0.3301  0.9078  0.5299
29916SOL     OW94109   9.224   2.788   9.525  0.7780  0.4322 -0.4917
29916SOL    HW194110   9.210   2.693   9.518 -0.1215  0.0802  3.6077
29916SOL    HW294111   9.136   2.826   9.515  1.2378  1.0171 -2.9108
29917SOL     OW94112   5.701   1.500   4.494  0.1033  0.5270 -0.3142
29917SOL    HW194113   5.731   1.413   4.519  0.0121  0.4365 -0.5198
29917SOL    HW294114   5.636   1.522   4.561  0.5103  0.6600  0.0434
29918SOL     OW94115  10.558   9.978   3.770 -0.1714 -0.1473 -0.7372
29918SOL    HW194116  10.649   9.975   3.799 -0.2618 -1.7183 -0.4863
29918SOL    HW294117  10.515  10.039   3.829  0.4082 -0.5760  0.1437
29919SOL     OW94118   0.902   0.235   2.485 -0.0562  0.4161  0.0778
29919SOL    HW194119   0.977   0.175   2.479  1.3261  1.8418  1.7630
29919SOL    HW294120   0.942   0.323   2.487 -1.7971  1.2396  0.8111
29920SOL     OW94121   5.991   9.717   0.405 -0.2666  0.1282  0.0920
29920SOL    HW194122   5.940   9.677   0.334  0.5043 -0.6056 -0.0680
29920SOL    HW294123   6.043   9.784   0.362 -1.5291  1.3273  0.3538
29921SOL     OW94124   8.284   4.327   3.946  0.4577 -0.3473  0.2586
29921SOL    HW194125   8.302   4.352   3.855  2.1737  0.3232  0.7361
29921SOL    HW294126   8.287   4.232   3.946  1.6357 -0.3238 -0.2001
29922SOL     OW94127   7.599   5.438   5.161  0.0543  0.6499  0.3941
29922SOL    HW194128   7.544   5.368   5.127 -0.2442  0.2785  1.6103
29922SOL    HW294129   7.542   5.489   5.218  0.8487  0.4750  1.3889
29923SOL     OW94130   0.037  10.802   4.669 -0.0940 -0.9742 -0.3147
29923SOL    HW194131  -0.051  10.785   4.635  0.3077 -1.1041 -1.3450
29923SOL    HW294132   0.060  10.888   4.632  0.7902 -1.6228 -1.3297
29924SOL     OW94133   9.425   7.388  10.377 -0.2274  0.1257 -0.3420
29924SOL    HW194134   9.370   7.457  10.338  0.5340  0.8392 -0.1823
29924SOL    HW294135   9.494   7.374  10.312  0.6248  0.7926  0.3965
29925SOL     OW94136   8.978   9.717   7.338  0.7122  0.2172 -0.1956
29925SOL    HW194137   9.035   9.794   7.345  0.3292  0.4793  0.1015
29925SOL    HW294138   9.007   9.673   7.258  0.3609  1.1438 -0.8405
29926SOL     OW94139   9.818   6.275   1.719  0.4033 -0.0341 -1.2101
29926SOL    HW194140   9.741   6.279   1.662  0.4440  0.4880 -1.2406
29926SOL    HW294141   9.889   6.249   1.661  0.0266 -1.7737 -0.9259
29927SOL     OW94142   7.363   2.134   0.311  0.2878 -0.2616  0.2187
29927SOL    HW194143   7.302   2.060   0.315 -1.3805  1.0925  2.2571
29927SOL    HW294144   7.310   2.206   0.278  0.8775  0.8410  1.5837
29928SOL     OW94145   7.208   5.564   2.312 -0.3667 -0.1198  0.2614
29928SOL    HW194146   7.146   5.514   2.259  0.5651 -1.4720  0.3964
29928SOL    HW294147   7.217   5.512   2.392  2.2044 -0.9089 -0.4522
29929SOL     OW94148   2.696   8.289   1.349  0.2780  0.2288  0.2443
29929SOL    HW194149   2.760   8.358   1.370  0.4262  0.0158  0.4958
29929SOL    HW294150   2.697   8.284   1.253 -0.2927  1.1027  0.1836
29930SOL     OW94151   3.502  10.404   5.383 -0.1389 -0.6568  0.0534
29930SOL    HW194152   3.416  10.383   5.419 -0.3232  0.9957  0.6607
29930SOL    HW294153   3.553  10.435   5.459  0.4047  0.0982 -0.6055
29931SOL     OW94154   4.683   9.692   0.219 -0.6752 -0.1047 -0.6004
29931SOL    HW194155   4.628   9.763   0.251 -1.7783  0.2544 -3.0281
29931SOL    HW294156   4.754   9.736   0.171  1.5565 -0.5795  2.0154
29932SOL     OW94157   0.577  10.786   7.896 -0.3721 -0.8109 -0.0444
29932SOL    HW194158   0.641  10.850   7.864  0.7179 -1.5834  0.5267
29932SOL    HW294159   0.507  10.839   7.935  0.4379  0.0345  0.2935
29933SOL     OW94160   6.070   6.966   6.547 -0.3022 -0.4984 -0.3012
29933SOL    HW194161   6.136   6.951   6.479  0.0579 -0.0577 -0.0510
29933SOL    HW294162   6.081   7.057   6.572  0.4008 -0.9635  1.2120
29934SOL     OW94163   0.156   4.629   5.723 -0.3691  0.6073 -0.8945
29934SOL    HW194164   0.082   4.582   5.761  1.1330 -1.6214 -0.5000
29934SOL    HW294165   0.145   4.719   5.753 -0.6597 -0.4649  2.8044
29935SOL     OW94166   6.370   2.377   9.707 -0.4778 -0.2480 -0.1892
29935SOL    HW194167   6.291   2.430   9.697 -0.1847  0.0234 -1.1642
29935SOL    HW294168   6.397   2.356   9.618 -0.4220 -1.8158  0.1679
29936SOL     OW94169   7.478  10.081   0.707 -0.4244  0.1687 -0.1559
29936SOL    HW194170   7.491  10.029   0.787  0.1249  1.3382  0.5299
29936SOL    HW294171   7.558  10.068   0.657 -0.1612  0.5879  0.1537
29937SOL     OW94172   0.242   2.378   8.560  1.0570 -0.5403 -0.1071
29937SOL    HW194173   0.218   2.434   8.486  0.6687 -0.2255  0.2523
29937SOL    HW294174   0.337   2.369   8.553  1.0058 -0.6441 -0.7354
29938SOL     OW94175   1.449   7.999   6.137 -0.7373 -0.1423  0.5843
29938SOL    HW194176   1.493   8.070   6.090 -0.3573  0.1135  1.3049
29938SOL    HW294177   1.438   8.032   6.226  0.1538 -1.2595  1.1523
29939SOL     OW94178   8.203   7.744   6.885  0.2873 -0.6202  0.1701
29939SOL    HW194179   8.143   7.700   6.825 -0.4416  0.1518  0.2987
29939SOL    HW294180   8.275   7.683   6.897  0.0519 -1.1189 -0.8542
29940SOL     OW94181   6.221   9.689   7.966 -0.4141 -0.3533  0.5811
29940SOL    HW194182   6.150   9.754   7.965 -0.5561 -0.5078  0.0112
29940SOL    HW294183   6.244   9.679   7.874 -0.4604 -1.1867  0.6541
29941SOL     OW94184   8.020   7.140   6.475 -0.7992 -0.2961  0.4352
29941SOL    HW194185   8.095   7.122   6.532 -0.2613 -1.5596 -0.6399
29941SOL    HW294186   7.966   7.061   6.479 -1.6746  0.2829  0.5424
29942SOL     OW94187   8.848   3.675   4.896 -0.1863 -0.5244 -0.0017
29942SOL    HW194188   8.900   3.625   4.959 -0.5356  0.2402  0.9012
29942SOL    HW294189   8.783   3.720   4.948 -0.2451  0.4232 -0.8689
29943SOL     OW94190   5.279  10.089   7.228 -0.1486  0.4071 -0.0196
29943SOL    HW194191   5.200  10.138   7.249  0.7844  0.7958  3.2595
29943SOL    HW294192   5.269  10.007   7.276  1.5750  0.6498  0.8255
29944SOL     OW94193   2.947   5.803   4.415 -0.2582 -0.5823  0.2953
29944SOL    HW194194   2.999   5.824   4.492 -0.6140  0.5196  0.2632
29944SOL    HW294195   2.857   5.801   4.447 -0.5471  1.1755 -0.2910
29945SOL     OW94196  11.116   6.064   2.370 -0.5140  0.1607 -0.3145
29945SOL    HW194197  11.023   6.068   2.349 -0.0327  0.7858 -2.5529
29945SOL    HW294198  11.143   6.155   2.375 -0.2066  0.0075  1.4347
29946SOL     OW94199  10.623   2.636  10.869 -0.5972 -0.5675 -0.8459
29946SOL    HW194200  10.600   2.618  10.778 -0.9033 -1.1442 -0.6612
29946SOL    HW294201  10.671   2.559  10.897  0.7122  0.1874 -0.9132
29947SOL     OW94202   6.518   6.205   0.017 -0.3730 -0.0542  0.8045
29947SOL    HW194203   6.528   6.183   0.110 -0.4099 -0.6633  0.6670
29947SOL    HW294204   6.445   6.267   0.014  0.1388  0.5860  1.2699
29948SOL     OW94205   4.500   6.748   6.828  0.3573 -0.7935 -0.5956
29948SOL    HW194206   4.591   6.733   6.803 -0.0151 -1.2194 -1.7705
29948SOL    HW294207   4.505   6.796   6.911  1.6557  0.0361 -1.1327
29949SOL     OW94208   9.150   7.049   8.740 -0.2741 -0.2839 -0.0931
29949SOL    HW194209   9.226   7.036   8.798  0.0351 -0.9188 -0.6309
29949SOL    HW294210   9.186   7.095   8.664 -0.8275  1.2598  0.5403
29950SOL     OW94211   6.700   5.357   5.884  0.1028  0.1986 -0.0953
29950SOL    HW194212   6.720   5.283   5.941  0.3394 -0.4212 -0.9800
29950SOL    HW294213   6.631   5.405   5.931  1.0546  0.3378  1.2521
29951SOL     OW94214   3.324   8.138   5.078 -0.5727 -0.0844  0.1603
29951SOL    HW194215   3.352   8.188   5.155  0.9995 -1.0034  0.2236
29951SOL    HW294216   3.299   8.205   5.014  1.5335  0.8346  0.2155
29952SOL     OW94217   2.365   2.851   9.378 -0.4745 -0.0871  0.1723
29952SOL    HW194218   2.372   2.946   9.370  1.2591 -0.1819  0.3242
29952SOL    HW294219   2.367   2.834   9.472  0.3362 -0.3417  0.1114
29953SOL     OW94220   0.766   1.710   5.743 -0.0073 -0.9309  0.1539
29953SOL    HW194221   0.798   1.640   5.801 -0.5211 -0.4948  0.9843
29953SOL    HW294222   0.679   1.680   5.716 -0.8848  0.0403  1.7316
29954SOL     OW94223   6.177   4.335   8.575  0.1011  0.0896  0.7995
29954SOL    HW194224   6.106   4.288   8.620 -0.3951  0.7677  0.7409
29954SOL    HW294225   6.132   4.405   8.527  0.5573 -0.7951 -1.0440
29955SOL     OW94226   7.590   3.004   0.173 -0.7340  0.4641 -0.0246
29955SOL    HW194227   7.635   3.070   0.226 -2.0413  1.1646  0.2699
29955SOL    HW294228   7.632   2.921   0.196  0.6570  1.1329 -0.0880
29956SOL     OW94229   7.869   7.201   9.411  0.1144 -0.8458 -0.3541
29956SOL    HW194230   7.809   7.129   9.431 -0.9860 -0.0616 -0.7429
29956SOL    HW294231   7.947   7.157   9.376 -0.3386 -1.8725 -0.1252
29957SOL     OW94232   1.930   6.443   5.189 -0.0517 -0.3673  0.2878
29957SOL    HW194233   1.869   6.517   5.184 -0.9991 -1.0544  1.2294
29957SOL    HW294234   1.960   6.431   5.099 -0.3930  0.7321  0.0111
29958SOL     OW94235   3.650   0.311   4.816 -0.3007 -0.0562 -0.0040
29958SOL    HW194236   3.652   0.221   4.849  1.4506  0.2701  0.8759
29958SOL    HW294237   3.619   0.303   4.726  2.2174 -1.8590 -0.8065
29959SOL     OW94238   5.853   0.603   2.374 -0.6247 -0.2787  0.0234
29959SOL    HW194239   5.805   0.673   2.416 -1.8888 -0.0578 -1.6824
29959SOL    HW294240   5.933   0.594   2.426 -0.4389  2.3756  0.3441
29960SOL     OW94241   4.030   4.978   5.548 -0.1117  0.5991  0.3527
29960SOL    HW194242   4.087   4.905   5.526  0.0803  1.2967 -1.7328
29960SOL    HW294243   4.051   4.999   5.639  1.5793 -0.3722  0.2250
29961SOL     OW94244   4.124   2.725   6.504  0.2696  0.0060  0.3317
29961SOL    HW194245   4.055   2.660   6.496 -1.4803  1.7805  0.0994
29961SOL    HW294246   4.190   2.699   6.439 -1.1820 -0.5760 -0.9549
29962SOL     OW94247   3.121   9.214   4.514 -0.1582  0.7085  0.1171
29962SOL    HW194248   3.159   9.131   4.487 -0.6222  0.3622  0.5181
29962SOL    HW294249   3.055   9.191   4.579  0.0067  1.4224  0.5590
29963SOL     OW94250   7.960   6.117   6.309 -0.0367  0.1348  0.0547
29963SOL    HW194251   7.969   6.179   6.236 -0.3863  0.0154 -0.0922
29963SOL    HW294252   8.021   6.046   6.288  0.7565  0.6725  0.4872
29964SOL     OW94253   4.918   2.071   0.806  0.3224  0.2900 -0.5238
29964SOL    HW194254   4.824   2.060   0.800  0.3132 -1.5792  1.7637
29964SOL    HW294255   4.930   2.140   0.870  0.5170  0.0497 -0.3006
29965SOL     OW94256   0.384   7.450   8.460 -0.0436  0.2353 -0.1861
29965SOL    HW194257   0.391   7.525   8.520 -0.8230  0.1666 -0.0003
29965SOL    HW294258   0.329   7.387   8.507 -0.5704  0.1318 -0.9307
29966SOL     OW94259   2.419   6.923   4.925  0.0787  0.0740  0.1281
29966SOL    HW194260   2.357   6.874   4.979 -0.7392  1.8623  0.8799
29966SOL    HW294261   2.378   7.009   4.914  1.5425  0.6598 -1.0100
29967SOL     OW94262   8.434   0.559  10.018  0.0061 -0.0516 -0.4303
29967SOL    HW194263   8.492   0.615  10.069 -0.3119  0.9679 -1.1628
29967SOL    HW294264   8.394   0.618   9.954  1.4023 -1.4813 -2.7737
29968SOL     OW94265   7.786   8.906   0.381 -0.0947  0.0437 -0.1263
29968SOL    HW194266   7.777   9.001   0.377 -0.4342 -0.0146 -1.2785
29968SOL    HW294267   7.819   8.888   0.469  0.8877  1.3044 -0.2102
29969SOL     OW94268   0.553   1.911  10.266  0.4496  0.7047 -0.9161
29969SOL    HW194269   0.638   1.871  10.248  0.2793 -0.3102  0.3680
29969SOL    HW294270   0.494   1.872  10.202  1.0401  1.8534 -2.1983
29970SOL     OW94271   7.134   7.854   5.067 -0.2149 -0.0556 -0.0758
29970SOL    HW194272   7.062   7.857   5.004  0.1505  0.0165 -0.4961
29970SOL    HW294273   7.107   7.790   5.133  0.6509 -2.4003 -1.8609
29971SOL     OW94274  10.739   9.160   8.109 -0.1210 -0.9860 -0.4164
29971SOL    HW194275  10.654   9.171   8.151  0.2898 -0.3265  0.2818
29971SOL    HW294276  10.782   9.091   8.159 -0.3630 -1.5406 -0.9685
29972SOL     OW94277   5.590   1.231   7.340 -0.7767 -0.0662 -0.1985
29972SOL    HW194278   5.509   1.206   7.295 -1.6190 -0.4324  1.4359
29972SOL    HW294279   5.595   1.326   7.329 -0.0957 -0.2888 -2.3737
29973SOL     OW94280   3.064   3.401   8.302 -0.0423  0.1452 -0.2775
29973SOL    HW194281   3.054   3.315   8.259  0.5612 -0.2758  0.4076
29973SOL    HW294282   3.038   3.386   8.392  1.8680  0.1976  0.3381
29974SOL     OW94283   1.344  10.811   9.461 -1.0766  0.3635 -0.4615
29974SOL    HW194284   1.294  10.836   9.383 -1.2788  0.5151 -0.2854
29974SOL    HW294285   1.297  10.735   9.495 -1.7945  1.1167  0.2797
29975SOL     OW94286   2.153   6.373   2.187  0.0729 -0.0078 -0.5137
29975SOL    HW194287   2.190   6.423   2.114 -1.5887 -0.4921 -1.7549
29975SOL    HW294288   2.157   6.282   2.157 -0.6884 -0.2056 -0.0283
29976SOL     OW94289   5.846   5.414   5.688 -0.0406  0.3028  0.0158
29976SOL    HW194290   5.872   5.499   5.652 -2.0168  1.4582  1.1055
29976SOL    HW294291   5.823   5.433   5.779 -0.2157 -1.4817  0.3783
29977SOL     OW94292   0.195   7.811   2.188 -0.2331  0.1674  0.2436
29977SOL    HW194293   0.184   7.901   2.219  0.5720  0.7899 -1.1741
29977SOL    HW294294   0.107   7.774   2.190 -0.6893  1.2187  0.1967
29978SOL     OW94295   5.963   9.815   8.319 -0.0551 -0.6976  0.1498
29978SOL    HW194296   6.058   9.818   8.327 -0.0967  0.5593  0.4949
29978SOL    HW294297   5.933   9.785   8.405  0.0095 -0.4807  0.2489
29979SOL     OW94298   3.271   7.276   8.040 -0.3049 -0.0172  0.5910
29979SOL    HW194299   3.208   7.261   7.970  0.1707 -2.0301  0.5221
29979SOL    HW294300   3.227   7.243   8.119  0.2534 -0.4775  0.7154
29980SOL     OW94301   8.857  10.022   2.271 -0.0826  0.4990 -0.1398
29980SOL    HW194302   8.815  10.070   2.342  2.2176  0.2299  1.5028
29980SOL    HW294303   8.929  10.078   2.242 -0.9621  0.6009 -2.3230
29981SOL     OW94304  10.928   2.652   2.836 -0.2669 -0.1005  0.3416
29981SOL    HW194305  11.017   2.664   2.868 -0.4501 -0.2749  0.9428
29981SOL    HW294306  10.909   2.559   2.853 -0.3396 -0.2141 -0.3552
29982SOL     OW94307   7.447   2.189   3.393 -0.3329  0.3690  0.6981
29982SOL    HW194308   7.502   2.195   3.315  0.1231  1.3669  1.0843
29982SOL    HW294309   7.502   2.220   3.464 -0.4172 -1.4344  1.6228
29983SOL     OW94310   1.694  10.726   5.643 -0.2528  0.6123 -0.3727
29983SOL    HW194311   1.660  10.811   5.614 -2.4496 -0.6600 -1.8310
29983SOL    HW294312   1.781  10.720   5.602 -0.2467  1.9364 -0.6110
29984SOL     OW94313   9.915   2.769  10.037  0.0756  0.3016 -0.2850
29984SOL    HW194314   9.945   2.850   9.994 -0.2514  0.1561 -0.8073
29984SOL    HW294315   9.831   2.750   9.994 -0.8614  0.7912  1.2461
29985SOL     OW94316  10.417  10.892   8.190  0.0381 -0.0435  0.0281
29985SOL    HW194317  10.356  10.886   8.263  0.8176 -0.9114  0.6413
29985SOL    HW294318  10.479  10.960   8.215  2.1564 -2.4006  1.6932
29986SOL     OW94319   1.889   5.128   0.733  0.1413 -0.0998 -0.5643
29986SOL    HW194320   1.923   5.067   0.668 -0.5660  0.2789 -1.2947
29986SOL    HW294321   1.898   5.214   0.693 -1.6388  0.0198 -0.7876
29987SOL     OW94322   8.240  11.061   0.692 -0.4577  0.5276  0.1515
29987SOL    HW194323   8.292  11.093   0.618 -0.9222  1.0457  0.0414
29987SOL    HW294324   8.199  11.140   0.728 -0.4408  0.2476  0.8069
29988SOL     OW94325   1.627   5.594   8.821  0.3561 -0.2103 -0.3680
29988SOL    HW194326   1.556   5.599   8.885 -0.0383  0.0404 -0.8129
29988SOL    HW294327   1.616   5.509   8.779 -0.3155  0.2273 -1.1329
29989SOL     OW94328   7.734   5.092   3.726 -0.2641  0.5743  0.1788
29989SOL    HW194329   7.761   5.152   3.795 -0.6695  1.0982 -0.1105
29989SOL    HW294330   7.727   5.007   3.769  0.2355  0.7444  0.6090
29990SOL     OW94331   6.771   0.123  11.112  0.2515 -0.7010  0.7038
29990SOL    HW194332   6.799   0.096  11.024 -0.1364  1.3457 -0.1146
29990SOL    HW294333   6.706   0.058  11.137  0.0970 -1.1267 -0.6861
29991SOL     OW94334  10.086   7.162  10.931 -0.1759 -0.0318  0.0711
29991SOL    HW194335  10.028   7.183  11.004 -0.2397 -0.0711  0.0314
29991SOL    HW294336  10.028   7.130  10.863 -0.2257  0.9356 -0.3554
29992SOL     OW94337   0.007   3.013   9.493  0.2302 -0.2471 -0.9864
29992SOL    HW194338  -0.028   2.928   9.467 -0.2359  0.4067 -2.7119
29992SOL    HW294339  -0.071   3.064   9.516  0.4906 -0.2224 -0.1427
29993SOL     OW94340   4.673   7.737   4.717  0.1104 -0.5773  0.9708
29993SOL    HW194341   4.766   7.762   4.712 -0.2944  0.7891 -0.4636
29993SOL    HW294342   4.635   7.797   4.781 -0.4528  1.2815 -1.0096
29994SOL     OW94343   9.317   4.387   6.809  0.0398 -0.2878 -0.1047
29994SOL    HW194344   9.235   4.386   6.760 -1.9166 -2.5714  2.8468
29994SOL    HW294345   9.380   4.341   6.752 -1.0739  0.2279 -1.8347
29995SOL     OW94346   3.435   2.129   3.433  0.2830 -0.2298  0.3252
29995SOL    HW194347   3.361   2.174   3.391  1.7077 -0.0486 -2.2097
29995SOL    HW294348   3.415   2.132   3.526 -2.8753 -0.1610 -0.2347
29996SOL     OW94349  10.274   8.530  10.166 -0.3159  0.1697  0.9282
29996SOL    HW194350  10.349   8.572  10.124 -0.1819  0.6098  1.6115
29996SOL    HW294351  10.299   8.438  10.172 -1.0112 -0.2589 -1.4896
29997SOL     OW94352   5.224   2.705  10.428  0.5345  0.0305  0.1215
29997SOL    HW194353   5.298   2.659  10.388 -0.2228 -0.9860 -0.1302
29997SOL    HW294354   5.195   2.647  10.499  0.6508  0.9300  0.9346
29998SOL     OW94355   8.510   9.214   6.447  0.0087 -0.1485  0.4061
29998SOL    HW194356   8.589   9.233   6.396  0.8517  0.5095  1.8845
29998SOL    HW294357   8.464   9.298   6.451 -2.0140 -0.9859 -2.3493
29999SOL     OW94358  10.572   8.980  10.784 -0.2343 -0.0036 -0.5575
29999SOL    HW194359  10.607   8.938  10.705  0.5300  3.4179 -2.2645
29999SOL    HW294360  10.644   8.977  10.847 -1.1493 -3.5813  0.5347
30000SOL     OW94361   6.003   7.106   0.253  0.1247 -0.2349  0.6010
30000SOL    HW194362   6.009   7.202   0.258  0.1420 -0.1940 -0.1462
30000SOL    HW294363   5.912   7.089   0.228  0.9639 -0.2268 -2.9841
30001SOL     OW94364  11.101   2.846   3.035 -0.7473  0.1877  0.1999
30001SOL    HW194365  11.157   2.768   3.033 -0.1435  0.5041  2.6043
30001SOL    HW294366  11.080   2.862   2.943  0.9469 -1.4893 -0.5410
30002SOL     OW94367  10.993  11.030   4.409 -0.1417 -0.1876  0.1373
30002SOL    HW194368  10.921  11.090   4.428  0.6226  0.1481  2.2425
30002SOL    HW294369  10.959  10.943   4.431 -0.0735 -0.0809  0.6843
30003SOL     OW94370   3.715   0.407   5.077  0.1695  0.2462 -0.7774
30003SOL    HW194371   3.696   0.347   5.005  0.7075  0.7184 -1.3185
30003SOL    HW294372   3.639   0.465   5.081  1.1198  1.7042 -2.4972
30004SOL     OW94373   0.610   4.416   5.374  0.2176 -0.0004 -0.0375
30004SOL    HW194374   0.517   4.423   5.351  0.3917 -1.4400 -1.3840
30004SOL    HW294375   0.624   4.322   5.390  1.3617  0.2401  0.5066
30005SOL     OW94376   8.618   1.680   7.379 -0.3743 -0.2131 -0.1036
30005SOL    HW194377   8.622   1.714   7.289 -0.8123  0.7359  0.2173
30005SOL    HW294378   8.533   1.636   7.384 -0.4264 -0.1120 -0.1008
30006SOL     OW94379   1.211   4.789   3.791 -0.5756  0.0721  0.2185
30006SOL    HW194380   1.260   4.853   3.739 -2.8530  0.1677 -2.0051
30006SOL    HW294381   1.176   4.839   3.864 -0.4192  0.8700 -0.2436
30007SOL     OW94382   6.438   5.109   5.681 -0.3725  0.1546 -0.0212
30007SOL    HW194383   6.431   5.015   5.666  0.0807  0.1000  0.0919
30007SOL    HW294384   6.532   5.126   5.681 -0.4041  0.4156  1.1710
30008SOL     OW94385  10.114   0.822   1.797 -0.0110  0.0590 -0.4836
30008SOL    HW194386  10.202   0.844   1.768  0.2904 -1.5456 -0.8935
30008SOL    HW294387  10.112   0.846   1.890  1.0151 -0.3391 -0.3526
30009SOL     OW94388   0.342   8.929   8.486 -0.1291  0.3284  0.0041
30009SOL    HW194389   0.325   9.016   8.451 -0.1007  0.9070  1.3519
30009SOL    HW294390   0.288   8.924   8.565  1.7017  0.1018  1.3282
30010SOL     OW94391   1.339   0.366   8.038 -0.4800  0.0446 -0.5367
30010SOL    HW194392   1.375   0.325   8.117  1.8588  0.0250 -1.5204
30010SOL    HW294393   1.248   0.338   8.035 -1.1711  1.4302  3.0465
30011SOL     OW94394   9.172   8.286   6.556  0.2990 -0.4407  0.1747
30011SOL    HW194395   9.137   8.375   6.562  2.1179  0.2825  0.7093
30011SOL    HW294396   9.243   8.283   6.620  0.8957 -1.9844 -0.4930
30012SOL     OW94397   5.984  10.186   9.762  0.1455  0.4551 -0.2796
30012SOL    HW194398   6.035  10.123   9.813  2.8356  2.0073 -0.8517
30012SOL    HW294399   5.893  10.163   9.779  0.9889 -2.2719  1.1120
30013SOL     OW94400   6.172   7.922   4.324  0.5142 -0.0036 -0.5439
30013SOL    HW194401   6.247   7.863   4.336  0.1651 -0.7259 -1.7698
30013SOL    HW294402   6.211   8.008   4.308  1.0435 -0.0325  0.5201
30014SOL     OW94403  10.208   9.355   6.197 -0.1151  0.1036  0.5706
30014SOL    HW194404  10.186   9.338   6.289 -0.8530 -0.5248  0.2809
30014SOL    HW294405  10.138   9.313   6.147  0.0560  0.8014 -0.2728
30015SOL     OW94406  10.802   2.199   7.381  0.0924 -0.3602 -0.2638
30015SOL    HW194407  10.849   2.203   7.465  0.1092 -1.6713 -0.1834
30015SOL    HW294408  10.802   2.106   7.359 -1.5666 -0.2621 -0.7812
30016SOL     OW94409   4.674   7.930   8.107 -0.3762 -0.5874 -0.5206
30016SOL    HW194410   4.644   7.881   8.031  0.2702 -0.9592 -0.5427
30016SOL    HW294411   4.596   7.977   8.138 -0.4155  0.3563 -1.9968
30017SOL     OW94412   5.573  10.676   5.965  0.2832 -0.1811  0.1079
30017SOL    HW194413   5.506  10.739   5.938 -0.0825  0.0105  1.3814
30017SOL    HW294414   5.581  10.616   5.891 -2.2822 -1.0312  0.4186
30018SOL     OW94415   8.551   5.434   2.620 -0.1496 -0.3261 -0.1721
30018SOL    HW194416   8.592   5.488   2.553  1.9250 -1.1730  0.3153
30018SOL    HW294417   8.625   5.400   2.671 -1.2717 -3.7607 -0.5770
30019SOL     OW94418   6.589   4.521   5.793 -1.1902  0.1972  0.3292
30019SOL    HW194419   6.581   4.559   5.705 -1.8863  2.7214  1.3915
30019SOL    HW294420   6.504   4.540   5.834 -0.8039 -0.7796  1.6158
30020SOL     OW94421   5.719  10.604   3.458 -0.2800  0.0627 -0.1352
30020SOL    HW194422   5.766  10.554   3.391 -0.9125 -0.3499 -0.2767
30020SOL    HW294423   5.743  10.695   3.441  1.2900 -0.2076  0.4440
30021SOL     OW94424   9.330   1.522   7.504  0.3056  0.3007 -0.0351
30021SOL    HW194425   9.291   1.604   7.473 -1.2337 -0.1476  0.6051
30021SOL    HW294426   9.380   1.547   7.582  1.5827  0.9335 -1.0282
30022SOL     OW94427   4.335   0.490   1.347  0.0754  0.5486 -0.2509
30022SOL    HW194428   4.282   0.465   1.271  2.3872 -1.9119 -1.2337
30022SOL    HW294429   4.358   0.406   1.389  2.7792  1.4641  0.3169
30023SOL     OW94430   5.663   0.757   3.389  0.0296 -0.2786 -0.1877
30023SOL    HW194431   5.582   0.777   3.341  0.2104 -0.6925 -0.6709
30023SOL    HW294432   5.689   0.671   3.357 -0.3725 -1.0038  1.3707
30024SOL     OW94433  11.031   6.710   6.032 -0.1555  0.3039 -0.3574
30024SOL    HW194434  11.092   6.762   6.084  0.0864  1.1429 -1.4511
30024SOL    HW294435  11.086   6.661   5.972 -0.4583 -0.2859 -0.1593
30025SOL     OW94436   3.127   0.804   7.053 -0.3581  0.2552  0.0659
30025SOL    HW194437   3.127   0.856   7.133  0.4979 -0.5042  0.5842
30025SOL    HW294438   3.220   0.784   7.038 -0.5890 -0.3307 -0.6375
30026SOL     OW94439   1.138   7.357   4.568 -0.5956  0.1653  0.1087
30026SOL    HW194440   1.233   7.367   4.563 -0.7744  1.8405 -0.5921
30026SOL    HW294441   1.121   7.329   4.658  0.5688 -0.5640  0.1245
30027SOL     OW94442   1.521   7.772   1.095 -0.6565 -0.2536  0.2225
30027SOL    HW194443   1.561   7.687   1.114 -0.2271 -0.3883 -1.2228
30027SOL    HW294444   1.439   7.750   1.051 -0.7884  0.0818  0.2995
30028SOL     OW94445   7.189  11.002   5.258 -0.4596  0.2435 -0.2079
30028SOL    HW194446   7.165  11.049   5.338  1.4808  0.7338  0.1348
30028SOL    HW294447   7.229  11.068   5.203  1.0035 -0.6876 -0.3138
30029SOL     OW94448   9.572   7.768   4.714 -0.0882  0.6194  0.3039
30029SOL    HW194449   9.579   7.685   4.761 -0.9735  1.7181  2.5133
30029SOL    HW294450   9.478   7.776   4.693 -0.0407  1.1308  0.2662
30030SOL     OW94451   7.081   3.081   8.022 -0.2961  0.3745 -0.3950
30030SOL    HW194452   7.101   3.171   8.045 -2.9098  0.8603  0.2400
30030SOL    HW294453   7.011   3.088   7.957 -0.5814 -1.2009 -0.2970
30031SOL     OW94454   1.062   4.463   6.627  0.4732  0.2068  0.0573
30031SOL    HW194455   1.084   4.501   6.712  1.3521  1.1192 -0.5605
30031SOL    HW294456   1.005   4.389   6.648 -0.0499  0.9553  1.3787
30032SOL     OW94457   6.600   8.784   8.195  0.9512 -0.1309 -0.5411
30032SOL    HW194458   6.506   8.797   8.211  0.9799  0.5012 -0.8295
30032SOL    HW294459   6.611   8.805   8.102  1.3663 -0.2583 -0.5207
30033SOL     OW94460   3.609   4.681   7.371 -0.1114 -0.0793 -0.2153
30033SOL    HW194461   3.586   4.764   7.413  0.5900  0.0845 -0.1285
30033SOL    HW294462   3.676   4.705   7.307 -0.4014 -0.4846 -0.6740
30034SOL     OW94463   2.403   8.720  10.233  0.7480 -0.5300 -0.1350
30034SOL    HW194464   2.405   8.646  10.293  0.9643 -1.5861 -1.3933
30034SOL    HW294465   2.370   8.684  10.151  0.5904  0.8328 -0.7129
30035SOL     OW94466   7.875  10.698   4.010  0.2193 -0.5455  0.1897
30035SOL    HW194467   7.829  10.766   3.960 -0.7849 -0.6877  0.8799
30035SOL    HW294468   7.930  10.746   4.071 -0.8057 -0.3118  0.9675
30036SOL     OW94469  10.290   0.248   0.903  0.0859 -0.6221  0.4206
30036SOL    HW194470  10.315   0.282   0.817  0.3195  0.1764  0.7940
30036SOL    HW294471  10.272   0.326   0.955  0.4117 -1.0801  1.2399
30037SOL     OW94472  10.743   0.432   9.911  0.1414 -0.3178  0.2378
30037SOL    HW194473  10.688   0.356   9.926 -0.8528  0.4564  0.6092
30037SOL    HW294474  10.701   0.478   9.838  0.4927  0.1037  0.2937
30038SOL     OW94475   6.541   4.524   7.211 -0.1903 -0.0913 -0.4706
30038SOL    HW194476   6.592   4.573   7.276 -0.4875 -0.2721 -0.0908
30038SOL    HW294477   6.567   4.433   7.224 -0.6569 -0.1961 -0.2175
30039SOL     OW94478  10.713   3.325   7.810  0.1567  0.5302  0.4692
30039SOL    HW194479  10.742   3.354   7.724  0.9948 -0.1330  0.5216
30039SOL    HW294480  10.670   3.241   7.795 -0.3574  0.7608  0.6069
30040SOL     OW94481  10.687   1.644   4.760  0.4215  0.2079 -0.6005
30040SOL    HW194482  10.644   1.690   4.832  0.2637  0.4893 -0.8696
30040SOL    HW294483  10.737   1.712   4.715  0.3230  0.0836 -0.9020
30041SOL     OW94484   9.098   6.153   0.109 -0.1215  0.7539 -0.2734
30041SOL    HW194485   9.053   6.163   0.193  0.1439 -1.2017  0.1492
30041SOL    HW294486   9.046   6.206   0.048 -3.2505 -1.5011  0.1464
30042SOL     OW94487   8.167   3.354   5.564 -0.7791 -0.6313 -0.7026
30042SOL    HW194488   8.262   3.355   5.576 -0.6962  1.7049 -1.0779
30042SOL    HW294489   8.136   3.293   5.630  0.9387 -1.0497 -0.2104
30043SOL     OW94490   2.025   8.287   7.694 -0.0542  0.2353  0.7513
30043SOL    HW194491   2.060   8.335   7.769  0.5132  2.1877 -0.6794
30043SOL    HW294492   2.100   8.274   7.636 -1.1372  2.6886 -1.4344
30044SOL     OW94493   5.948  10.824   8.602  0.2971  0.6045 -0.1999
30044SOL    HW194494   5.904  10.739   8.609  0.0912  0.7882  1.0108
30044SOL    HW294495   6.023  10.807   8.545  0.4767 -0.4984  0.3319
30045SOL     OW94496   1.647   8.647   8.568  0.9646  0.3393 -0.1219
30045SOL    HW194497   1.662   8.567   8.518  2.1588  1.1459 -1.1327
30045SOL    HW294498   1.734   8.682   8.584  0.4720  1.3706  0.4325
30046SOL     OW94499   9.714   6.186  10.273  0.0774  0.5791  0.0033
30046SOL    HW194500   9.726   6.106  10.323 -2.8607  1.2336  2.0129
30046SOL    HW294501   9.686   6.156  10.186  1.3329 -0.5361 -0.0428
30047SOL     OW94502   6.649   3.823   4.094 -0.2062 -0.0282  0.0708
30047SOL    HW194503   6.698   3.866   4.023  0.5713 -0.0681  0.5742
30047SOL    HW294504   6.712   3.816   4.166 -0.6239 -1.1057  0.3470
30048SOL     OW94505   0.511   3.888  11.089 -0.3065  0.4205  0.8763
30048SOL    HW194506   0.549   3.934  11.163 -2.2168 -1.4261  3.1533
30048SOL    HW294507   0.417   3.901  11.098 -0.6866 -1.0930 -0.3665
30049SOL     OW94508  10.877   2.554   6.000  0.4673 -0.0341  0.1046
30049SOL    HW194509  10.860   2.563   6.094  1.8352  1.6658  0.2379
30049SOL    HW294510  10.843   2.467   5.978 -0.3649 -0.2615  2.0446
30050SOL     OW94511   8.184  10.871   9.503  0.5680  0.1598  0.2521
30050SOL    HW194512   8.200  10.776   9.502  1.9571  0.3724  0.3698
30050SOL    HW294513   8.265  10.909   9.469  0.1431  1.3322  0.5134
30051SOL     OW94514   8.676   9.111   1.164 -0.1647  0.0212 -0.1529
30051SOL    HW194515   8.763   9.075   1.144 -0.6292 -0.5162 -1.3069
30051SOL    HW294516   8.694   9.201   1.192  0.8856 -0.5807  1.2681
30052SOL     OW94517   8.995   6.145   8.480 -0.0177 -0.4179 -0.0843
30052SOL    HW194518   8.899   6.149   8.488  0.1724  1.3527  3.6827
30052SOL    HW294519   9.018   6.227   8.436 -0.2175 -0.2963  0.0321
30053SOL     OW94520   0.212   1.252   1.994  0.2752 -0.7220  0.4123
30053SOL    HW194521   0.297   1.262   2.037  0.1545  0.9371  0.3271
30053SOL    HW294522   0.177   1.169   2.028  1.8908 -1.4188  0.4768
30054SOL     OW94523   7.653   4.011   2.072 -0.4513 -0.3981 -0.6134
30054SOL    HW194524   7.696   3.926   2.080 -0.6137 -0.6132 -1.8686
30054SOL    HW294525   7.652   4.045   2.161 -0.8545 -1.9408  0.0200
30055SOL     OW94526   4.171   5.508   4.673 -0.2203 -0.5178  0.3118
30055SOL    HW194527   4.142   5.421   4.645  0.9641 -0.8440  0.0182
30055SOL    HW294528   4.199   5.551   4.592 -1.2354  0.3258  0.3907
30056SOL     OW94529   8.488   2.151   3.586  0.0132 -0.2249 -0.3049
30056SOL    HW194530   8.561   2.213   3.586  2.5648 -2.9650  1.6719
30056SOL    HW294531   8.529   2.066   3.571 -3.0432 -1.7672 -0.7045
30057SOL     OW94532   3.442  10.416   5.673  0.6087  0.4608  0.0342
30057SOL    HW194533   3.380  10.440   5.742 -0.1083  1.1572 -0.8339
30057SOL    HW294534   3.426  10.323   5.659 -1.3859  0.9353 -1.2548
30058SOL     OW94535  10.217   5.925   2.054 -0.5152 -0.1963 -0.1851
30058SOL    HW194536  10.184   5.906   2.142 -0.7576 -1.3022 -0.4968
30058SOL    HW294537  10.200   5.845   2.005 -1.9952  0.9742 -1.7165
30059SOL     OW94538   9.665   8.403   7.655  0.3104 -0.1105  0.2472
30059SOL    HW194539   9.693   8.457   7.729 -1.0796 -0.7106  1.2428
30059SOL    HW294540   9.610   8.461   7.603 -1.6490 -0.6544  1.6158
30060SOL     OW94541   0.871   8.294   8.234 -0.0988 -0.3644  0.3859
30060SOL    HW194542   0.940   8.333   8.181  0.6674  0.6151  2.0467
30060SOL    HW294543   0.917   8.238   8.296 -1.0064 -1.8061 -0.1850
30061SOL     OW94544   4.962   3.854   9.520 -0.0868  0.4127  0.0143
30061SOL    HW194545   5.038   3.884   9.569  0.2559  0.2248 -0.3947
30061SOL    HW294546   4.888   3.865   9.580  0.3833 -0.2210  0.7283
30062SOL     OW94547   4.877   7.293   8.334  0.5530  0.1913 -0.2207
30062SOL    HW194548   4.959   7.243   8.329 -0.0094 -0.7929  0.0698
30062SOL    HW294549   4.879   7.350   8.257  0.3872 -1.6231 -1.6501
30063SOL     OW94550   8.298   7.075   1.113  0.2143 -0.1928 -0.3149
30063SOL    HW194551   8.320   7.088   1.205  0.0742  2.0347 -0.5500
30063SOL    HW294552   8.381   7.049   1.072  0.7101  0.6495  0.1335
30064SOL     OW94553   3.901   1.089   5.736  0.0015  0.0547 -0.1019
30064SOL    HW194554   3.891   1.066   5.644 -1.4570  0.3968 -0.0574
30064SOL    HW294555   3.995   1.082   5.753  0.0496 -2.2914 -0.9979
30065SOL     OW94556   9.939   3.136   8.072 -0.3510  0.0862 -0.5501
30065SOL    HW194557  10.003   3.066   8.084 -0.2193  0.2332 -0.4006
30065SOL    HW294558   9.989   3.217   8.082 -0.4760  0.2046 -0.8589
30066SOL     OW94559   4.266   1.051   6.619 -0.4881 -0.0106  0.5085
30066SOL    HW194560   4.215   0.990   6.672 -1.4089 -1.0670 -1.5075
30066SOL    HW294561   4.343   1.001   6.592 -1.3105 -0.3763 -1.2595
30067SOL     OW94562   0.461   0.141   4.152 -0.0789 -0.2144  0.3545
30067SOL    HW194563   0.396   0.192   4.106  1.1470  0.4544 -0.7015
30067SOL    HW294564   0.511   0.205   4.203  0.8760 -0.4690 -0.2428
30068SOL     OW94565   6.994   6.114   6.929 -0.1111  0.0788  0.4154
30068SOL    HW194566   6.919   6.123   6.871 -0.8015  0.0137  1.2863
30068SOL    HW294567   7.009   6.203   6.962  0.4944  0.1812 -0.1024
30069SOL     OW94568   5.551   7.091   6.169 -0.5048 -0.0521  0.0390
30069SOL    HW194569   5.553   6.996   6.177  0.7193  0.0356  1.1563
30069SOL    HW294570   5.595   7.109   6.086 -0.3497 -0.4499  0.0334
30070SOL     OW94571   8.548   1.240   4.371 -0.1068 -0.5442 -0.1666
30070SOL    HW194572   8.570   1.213   4.282 -4.2869 -1.9151 -1.0431
30070SOL    HW294573   8.517   1.330   4.362 -0.8999 -0.8122 -0.2339
30071SOL     OW94574  10.322   5.326   7.948 -0.6662  0.1932  0.2573
30071SOL    HW194575  10.329   5.417   7.978 -1.8751  0.6221 -0.6545
30071SOL    HW294576  10.383   5.278   8.003  0.1276  1.5834  0.6567
30072SOL     OW94577   5.484   6.251   1.380 -0.3346 -0.7145  0.4305
30072SOL    HW194578   5.564   6.221   1.423  1.0872  0.0891 -1.5358
30072SOL    HW294579   5.488   6.347   1.386  0.1672 -0.5388 -1.8090
30073SOL     OW94580   9.800   6.599   8.543 -0.2450  0.0820  0.0213
30073SOL    HW194581   9.742   6.581   8.617  0.1335  1.2358  0.6256
30073SOL    HW294582   9.843   6.681   8.566  1.0270 -0.3338 -0.7846
30074SOL     OW94583   2.061   5.573   0.039  0.5217 -0.6363 -0.1047
30074SOL    HW194584   2.152   5.600   0.053  0.6856 -1.6452  0.8999
30074SOL    HW294585   2.056   5.553  -0.055  0.6040  1.9842 -0.7424
30075SOL     OW94586   6.367   4.409  10.206  0.4621  0.0729  0.1305
30075SOL    HW194587   6.320   4.436  10.127  0.8125 -1.4146 -0.6113
30075SOL    HW294588   6.304   4.356  10.255  0.8069 -0.5089 -0.0418
30076SOL     OW94589   8.798  10.260  10.584  0.0191 -0.3876 -0.2524
30076SOL    HW194590   8.706  10.283  10.598  0.5558  1.3400  0.6910
30076SOL    HW294591   8.823  10.212  10.662  0.0208 -0.5489 -0.3518
30077SOL     OW94592   6.355   1.850   8.426  0.4353  0.0682 -0.0272
30077SOL    HW194593   6.333   1.926   8.480  0.0689  0.3347 -0.5490
30077SOL    HW294594   6.290   1.849   8.357 -0.9831 -2.0241  1.2104
30078SOL     OW94595  10.489   2.294   5.483  0.0522  0.6431  0.0009
30078SOL    HW194596  10.528   2.216   5.442 -2.1032 -0.2638 -0.4771
30078SOL    HW294597  10.481   2.357   5.412 -1.9665 -0.2471 -0.6150
30079SOL     OW94598   1.146   4.551   6.866 -0.2641  0.5818  0.3246
30079SOL    HW194599   1.159   4.466   6.907  0.4250  0.9309  0.8629
30079SOL    HW294600   1.235   4.584   6.851 -0.5147  0.7285 -0.9001
30080SOL     OW94601   1.516   0.037   2.623 -0.2212  0.8153  0.3184
30080SOL    HW194602   1.476   0.117   2.659  0.3437  1.2441 -0.0062
30080SOL    HW294603   1.496   0.040   2.530 -0.5225  0.3838  0.3692
30081SOL     OW94604  10.681   2.002   2.827 -0.1942 -0.0187 -0.5078
30081SOL    HW194605  10.636   2.074   2.784 -1.3738 -0.0415  0.6345
30081SOL    HW294606  10.621   1.928   2.822 -0.4262  0.0002  1.1923
30082SOL     OW94607   2.583   0.258   9.309 -0.2059 -0.1174 -0.0818
30082SOL    HW194608   2.512   0.214   9.355 -0.9203  1.6402  0.5937
30082SOL    HW294609   2.552   0.267   9.220 -0.6238  0.2056  0.0956
30083SOL     OW94610   8.495   2.605   4.814  0.1465 -0.7581  0.0963
30083SOL    HW194611   8.412   2.565   4.788 -1.2689 -0.0453  2.9954
30083SOL    HW294612   8.478   2.699   4.808  0.6171 -0.6058  0.9481
30084SOL     OW94613   9.290   1.158   6.556  0.0072  0.1774  0.1477
30084SOL    HW194614   9.326   1.156   6.467  0.6480  0.1872  0.4038
30084SOL    HW294615   9.195   1.158   6.543  0.0786 -0.6897 -0.5272
30085SOL     OW94616   6.389   7.225   3.964  0.0727  0.2740  0.2624
30085SOL    HW194617   6.438   7.162   4.018  0.6264  0.8280  0.4157
30085SOL    HW294618   6.439   7.231   3.883 -0.4414 -0.1139 -0.0866
30086SOL     OW94619   8.737   5.754   8.203 -0.0130 -0.5233  0.0199
30086SOL    HW194620   8.736   5.697   8.279 -1.1406  2.0147  2.0864
30086SOL    HW294621   8.646   5.759   8.175  0.5299 -2.3648 -2.3791
30087SOL     OW94622  10.901   2.266   3.785 -0.2247 -0.2207 -0.2371
30087SOL    HW194623  10.876   2.178   3.813 -2.0391  0.3528  0.1082
30087SOL    HW294624  10.986   2.282   3.826 -0.6388 -1.1983  1.0442
30088SOL     OW94625   2.611   6.104   4.506 -0.7218 -0.3373 -0.2624
30088SOL    HW194626   2.580   6.085   4.594  1.3811 -1.7757  0.2607
30088SOL    HW294627   2.577   6.032   4.453 -1.3518  0.1176 -0.4891
30089SOL     OW94628   2.907   7.489   7.674  0.0062 -0.3326  0.0468
30089SOL    HW194629   2.987   7.535   7.649 -0.7648  1.0657  0.0012
30089SOL    HW294630   2.886   7.523   7.761 -1.3470  0.5512 -0.5718
30090SOL     OW94631   5.641   6.662   2.137  0.1940 -0.2874  0.1416
30090SOL    HW194632   5.673   6.722   2.205 -2.3332  1.2817  0.0824
30090SOL    HW294633   5.683   6.578   2.157  1.3082  0.6933  2.2327
30091SOL     OW94634   2.176   4.455   7.570  0.1601  0.1002  0.4013
30091SOL    HW194635   2.201   4.473   7.479  1.0237 -0.4191  0.5224
30091SOL    HW294636   2.136   4.537   7.600 -0.2617  0.2314 -0.4804
30092SOL     OW94637   1.112   9.112   2.369  0.4392 -0.0248 -0.0169
30092SOL    HW194638   1.147   9.092   2.282  0.7330 -0.6339  0.2375
30092SOL    HW294639   1.018   9.096   2.361  0.2450  1.2330 -0.5909
30093SOL     OW94640   1.019   8.426   2.813 -0.1782 -0.4675  0.0253
30093SOL    HW194641   0.939   8.410   2.762 -1.1509 -0.2522  1.4287
30093SOL    HW294642   1.046   8.339   2.843 -0.1453 -0.4916 -0.0740
30094SOL     OW94643   3.889   3.926   5.444 -0.1381  0.1055 -0.0802
30094SOL    HW194644   3.821   3.864   5.422  1.9418 -2.2206 -0.4144
30094SOL    HW294645   3.953   3.918   5.374  1.3497  0.8272  1.1224
30095SOL     OW94646   1.700   2.441   7.532 -0.0928  0.5279  0.0824
30095SOL    HW194647   1.630   2.450   7.468 -1.1824  1.1258  1.2951
30095SOL    HW294648   1.781   2.448   7.481 -0.8704 -1.0765 -1.4734
30096SOL     OW94649   5.464   5.549   2.996  0.2720 -0.7443 -0.5501
30096SOL    HW194650   5.464   5.490   3.071  1.3137  0.3258  0.3185
30096SOL    HW294651   5.551   5.540   2.958 -0.6087 -2.1600 -2.3963
30097SOL     OW94652   4.060   5.269   6.457 -0.3444  0.1768  0.0652
30097SOL    HW194653   4.113   5.310   6.388 -0.4930 -2.0162 -1.4591
30097SOL    HW294654   3.972   5.306   6.445 -0.1046  0.6867 -0.1379
30098SOL     OW94655   5.823   1.876  10.572  0.3856  0.9328  0.1877
30098SOL    HW194656   5.836   1.942  10.640 -0.7828  0.6669  0.6867
30098SOL    HW294657   5.732   1.887  10.545  0.2446 -0.3189  0.1087
30099SOL     OW94658   0.913   6.244   2.199 -0.7167 -0.3676 -0.0801
30099SOL    HW194659   0.825   6.271   2.227  0.0854  2.3259  0.1026
30099SOL    HW294660   0.922   6.155   2.233 -2.8655 -0.2120  1.1000
30100SOL     OW94661   7.959   4.370   9.740  0.2077 -0.4438  0.2655
30100SOL    HW194662   7.926   4.455   9.711 -0.1912 -0.7988 -0.3577
30100SOL    HW294663   8.037   4.391   9.791 -0.2604  0.3347  0.6849
30101SOL     OW94664   4.492   9.358   4.298 -0.6643  0.0346  0.3830
30101SOL    HW194665   4.559   9.425   4.315  1.9730 -2.3411  0.0465
30101SOL    HW294666   4.481   9.313   4.382 -0.2506 -0.9231 -0.0627
30102SOL     OW94667   8.901   7.777  10.392 -0.0981 -0.2548 -0.3351
30102SOL    HW194668   8.924   7.783  10.485  3.4449 -1.8642 -0.9287
30102SOL    HW294669   8.887   7.868  10.366  1.3365  0.5114  1.2944
30103SOL     OW94670   9.710   1.113   7.573  0.1995 -0.2614  0.4667
30103SOL    HW194671   9.772   1.171   7.528 -0.9593  1.6303  1.1763
30103SOL    HW294672   9.682   1.051   7.506  0.6789  0.6896 -0.6505
30104SOL     OW94673   9.583   9.121   6.585 -0.0295  0.0913 -0.5504
30104SOL    HW194674   9.616   9.192   6.641 -0.0963 -0.4958  0.2464
30104SOL    HW294675   9.598   9.041   6.635 -0.4894 -0.4135 -1.1923
30105SOL     OW94676  10.995   1.038   4.439  0.1605 -0.1497 -0.1325
30105SOL    HW194677  10.957   1.079   4.517 -0.0507  0.9218 -0.7867
30105SOL    HW294678  11.024   1.111   4.385 -0.3495 -0.8600 -1.4025
30106SOL     OW94679   9.367  10.824   8.358  0.4392  0.2154  0.4993
30106SOL    HW194680   9.320  10.880   8.420  0.4136  0.3140  0.3924
30106SOL    HW294681   9.301  10.798   8.294  0.9287  2.0822 -0.8860
30107SOL     OW94682   8.340  10.169   2.873 -0.0363  0.1634  0.8383
30107SOL    HW194683   8.329  10.160   2.967  0.8513 -1.1948  0.8462
30107SOL    HW294684   8.434  10.185   2.861 -0.1331  0.2979  0.1840
30108SOL     OW94685   0.295   5.798   9.694  0.3071 -0.4720  0.4045
30108SOL    HW194686   0.314   5.732   9.627  0.4755 -0.4467  0.4272
30108SOL    HW294687   0.303   5.882   9.648 -3.7648 -0.4644 -0.7079
30109SOL     OW94688   0.979   7.169   0.680  0.2767  0.5812  0.0728
30109SOL    HW194689   0.888   7.166   0.650  0.1109  2.3013  0.3010
30109SOL    HW294690   0.978   7.129   0.767 -0.8501  3.0525  1.2957
30110SOL     OW94691   0.801   0.330   5.481  0.0768 -0.7964  0.2692
30110SOL    HW194692   0.804   0.377   5.397 -1.3494 -3.0233 -1.1201
30110SOL    HW294693   0.784   0.398   5.546  0.8428  0.9516 -1.2688
30111SOL     OW94694   2.224   5.938   8.371 -0.3577 -0.7265 -0.1560
30111SOL    HW194695   2.130   5.940   8.388 -0.5091  2.5081 -0.6401
30111SOL    HW294696   2.240   6.014   8.315  2.6372 -0.7381  0.4820
30112SOL     OW94697   2.485   5.997   4.741  0.0760 -0.1207 -0.4867
30112SOL    HW194698   2.421   5.927   4.753 -0.3323  0.5086  1.4347
30112SOL    HW294699   2.433   6.077   4.739  0.6630  0.2607 -0.7749
30113SOL     OW94700   0.474   4.448   6.210 -0.5404 -0.0478 -0.6581
30113SOL    HW194701   0.380   4.431   6.200 -0.4564 -2.0741  1.1673
30113SOL    HW294702   0.483   4.488   6.296  0.1515  2.0860 -1.6417
30114SOL     OW94703   7.127   2.411   4.727 -0.1361  0.1755  0.0735
30114SOL    HW194704   7.217   2.437   4.742  0.0784 -0.1254 -0.6187
30114SOL    HW294705   7.102   2.361   4.805  0.2407  0.3944  0.3339
30115SOL     OW94706   0.696   1.411   8.292  0.1689  0.4492 -0.2168
30115SOL    HW194707   0.692   1.372   8.380 -1.3404  0.7378 -0.1301
30115SOL    HW294708   0.757   1.356   8.244  0.3788 -0.2122  0.7800
30116SOL     OW94709   8.080   0.588   5.893  0.3842 -0.1569  0.4116
30116SOL    HW194710   7.988   0.582   5.870  0.6761 -0.9706 -0.6610
30116SOL    HW294711   8.094   0.680   5.916 -0.4546  0.2152 -0.5157
30117SOL     OW94712  10.714   8.766   2.844  0.2366 -0.5922  0.3899
30117SOL    HW194713  10.739   8.849   2.884 -0.1023 -0.8674  1.1863
30117SOL    HW294714  10.619   8.765   2.848  0.2676 -1.5591  1.5391
30118SOL     OW94715   9.301   2.937   0.948 -0.0025 -0.1719 -0.4242
30118SOL    HW194716   9.390   2.948   0.914  0.2135  2.6736  0.7815
30118SOL    HW294717   9.312   2.934   1.043 -1.0006 -2.9402 -0.3131
30119SOL     OW94718   3.279   1.194   4.182  0.1367  0.4303 -0.8872
30119SOL    HW194719   3.221   1.179   4.107  0.8470  0.7437 -1.5125
30119SOL    HW294720   3.352   1.244   4.146  1.1328 -0.5310 -0.2637
30120SOL     OW94721   0.164   7.782   0.628 -0.3649 -0.2458 -0.3002
30120SOL    HW194722   0.239   7.805   0.572 -1.2224  2.1469 -0.5930
30120SOL    HW294723   0.102   7.740   0.568 -0.5686  0.7391 -0.8068
30121SOL     OW94724   0.081   7.265   8.462  0.4601 -0.3302 -0.2876
30121SOL    HW194725   0.115   7.216   8.537  0.2813  0.1668  0.1259
30121SOL    HW294726   0.095   7.357   8.485  1.5099 -0.1985 -1.4005
30122SOL     OW94727  10.785   9.004   2.955  0.0368 -0.2206 -0.4060
30122SOL    HW194728  10.707   9.054   2.932  0.7242  0.0126 -2.5032
30122SOL    HW294729  10.816   9.044   3.036 -0.8749  1.0613 -0.6516
30123SOL     OW94730  10.842   1.837   8.582  0.1526  0.2001 -0.2672
30123SOL    HW194731  10.796   1.885   8.651 -1.6075 -1.0118 -0.5306
30123SOL    HW294732  10.824   1.888   8.502  0.5843  0.5646 -0.1347
30124SOL     OW94733   9.411   2.901   1.233 -0.0630  0.6030 -0.3474
30124SOL    HW194734   9.406   2.818   1.282  1.3232  0.6552 -0.0763
30124SOL    HW294735   9.357   2.961   1.283  0.8429  0.4863  0.8310
30125SOL     OW94736   8.896   6.875   3.549  0.7133 -0.1579  0.0252
30125SOL    HW194737   8.908   6.781   3.545 -0.9454 -0.4085  0.0716
30125SOL    HW294738   8.913   6.905   3.459  1.1371 -0.5156 -0.0148
30126SOL     OW94739   3.085   5.392   2.759  0.6044 -0.4125  0.0894
30126SOL    HW194740   3.126   5.316   2.800  1.9755  0.4968  0.4841
30126SOL    HW294741   3.091   5.375   2.665  1.1611 -0.6680  0.1668
30127SOL     OW94742   6.032   1.737   9.959  0.1270 -0.0081  0.0321
30127SOL    HW194743   6.094   1.665   9.966  0.8346  0.6976  1.6240
30127SOL    HW294744   5.965   1.717  10.024 -0.5605 -0.0364 -0.6688
30128SOL     OW94745   7.325   0.854   7.426 -0.2457 -0.2141  0.5155
30128SOL    HW194746   7.309   0.882   7.516  4.1423  2.0624  0.8560
30128SOL    HW294747   7.352   0.763   7.434 -0.1475 -0.1114  1.5126
30129SOL     OW94748   8.702   9.722   1.146 -0.1389  0.0551 -0.0581
30129SOL    HW194749   8.735   9.739   1.058  1.6737  1.8230  0.8896
30129SOL    HW294750   8.775   9.678   1.190 -1.6585 -2.4880  0.1211
30130SOL     OW94751   2.753   8.224   2.584  0.4583 -0.4657 -0.0513
30130SOL    HW194752   2.673   8.178   2.612  0.6373 -1.2410 -0.7738
30130SOL    HW294753   2.769   8.288   2.653 -2.1021  1.3574 -0.9529
30131SOL     OW94754   8.929   3.690   1.188  0.2403  0.0553 -0.0380
30131SOL    HW194755   8.930   3.597   1.166 -0.7912 -0.5187  2.0389
30131SOL    HW294756   8.951   3.693   1.281 -1.3595  1.7236  0.3563
30132SOL     OW94757   7.414   5.265   0.713  0.0769 -0.0845  0.6093
30132SOL    HW194758   7.404   5.189   0.656 -1.0070 -1.0263  1.9642
30132SOL    HW294759   7.482   5.318   0.672  2.0035 -2.5509  0.4264
30133SOL     OW94760   5.568   4.153  10.339  0.2974  0.0975  0.0329
30133SOL    HW194761   5.475   4.137  10.327  0.3148  0.1697 -0.2130
30133SOL    HW294762   5.581   4.152  10.434 -0.1520  1.1847  0.1237
30134SOL     OW94763   9.144   8.355   1.120 -0.0465 -0.8146  0.2315
30134SOL    HW194764   9.114   8.396   1.201 -3.2927 -0.1540 -1.1703
30134SOL    HW294765   9.189   8.425   1.073 -2.4880  0.2923 -0.6076
30135SOL     OW94766   3.749   8.105   9.750 -0.4280  0.2635  0.3119
30135SOL    HW194767   3.744   8.041   9.822 -2.1280  1.0650  0.9708
30135SOL    HW294768   3.669   8.157   9.759  0.3242  1.7197 -0.9355
30136SOL     OW94769   5.159   0.792   8.233 -0.0131 -0.0787  0.0537
30136SOL    HW194770   5.166   0.886   8.249 -1.6069  0.0755  0.0206
30136SOL    HW294771   5.246   0.757   8.253  0.1575  1.1687  1.6852
30137SOL     OW94772  11.063   0.296   1.623 -0.0540  0.4009 -0.1254
30137SOL    HW194773  11.054   0.255   1.537  0.1746  1.4819 -0.6823
30137SOL    HW294774  11.155   0.287   1.644  0.1050  1.0678 -0.4927
30138SOL     OW94775   2.476   7.461   4.884 -0.1818 -0.6467  0.0153
30138SOL    HW194776   2.425   7.426   4.810 -0.3085 -2.0668  0.7510
30138SOL    HW294777   2.417   7.523   4.926  0.4360  1.4063 -1.9628
30139SOL     OW94778   5.266   4.198   5.996  0.5041 -0.6523  0.7019
30139SOL    HW194779   5.260   4.120   5.941  1.0834 -0.6561  0.6309
30139SOL    HW294780   5.326   4.173   6.067  1.0732 -0.1332  0.4195
30140SOL     OW94781   1.865  10.173   8.875  0.0316  0.3491 -0.0917
30140SOL    HW194782   1.889  10.198   8.964 -1.5884 -1.4944  0.9519
30140SOL    HW294783   1.908  10.088   8.862  0.7352  0.8617 -1.3322
30141SOL     OW94784   9.084  10.810  10.636 -0.5801  0.4872 -0.1070
30141SOL    HW194785   9.170  10.796  10.597 -0.7749  0.2327 -0.4514
30141SOL    HW294786   9.062  10.726  10.677 -0.3700  0.7585  0.5749
30142SOL     OW94787   6.824  10.351   0.165 -0.1862 -0.0824  0.0425
30142SOL    HW194788   6.846  10.275   0.218 -1.8307 -0.0225  0.8846
30142SOL    HW294789   6.731  10.367   0.184 -0.4336  0.8335 -1.7526
30143SOL     OW94790   1.096   9.339   5.289 -1.0071  0.0161 -0.2850
30143SOL    HW194791   1.137   9.258   5.260 -0.5954  0.1898 -0.1931
30143SOL    HW294792   1.007   9.314   5.314 -0.9767 -0.3505 -0.5424
30144SOL     OW94793   1.377   5.990   3.135  0.8292  0.0843 -0.1596
30144SOL    HW194794   1.332   6.073   3.118 -1.8787 -1.1643  0.3362
30144SOL    HW294795   1.379   5.947   3.049  1.4929  0.3245 -0.2646
30145SOL     OW94796  10.751  11.070   4.732  0.2177 -0.3097  0.2805
30145SOL    HW194797  10.688  11.140   4.716 -0.5180 -1.0301 -0.0048
30145SOL    HW294798  10.718  10.995   4.682  2.3611 -0.1400 -1.5312
30146SOL     OW94799   1.478   0.075   0.141  0.0046 -0.7287  0.0448
30146SOL    HW194800   1.537   0.008   0.105 -0.2821 -0.2393 -1.3707
30146SOL    HW294801   1.536   0.147   0.166  0.0989 -0.6187 -0.4891
30147SOL     OW94802   1.837   4.682   9.560  0.0283 -0.5389  0.5194
30147SOL    HW194803   1.803   4.725   9.638 -0.7499 -2.3147  1.2036
30147SOL    HW294804   1.813   4.590   9.570  2.8535 -1.4594 -0.1956
30148SOL     OW94805   5.922   4.650   5.777 -0.1346 -0.3130  0.5730
30148SOL    HW194806   5.976   4.698   5.839  0.4478  0.6819 -0.6656
30148SOL    HW294807   5.872   4.588   5.831  0.2168  0.6380  2.0261
30149SOL     OW94808   6.979   7.540  10.350  0.8984  0.1775 -0.4129
30149SOL    HW194809   6.923   7.538  10.428 -1.3943 -0.0267 -1.9709
30149SOL    HW294810   7.009   7.630  10.344 -0.8165  0.7826 -0.5170
30150SOL     OW94811  10.769   5.810  10.894  0.3928 -0.3946  0.0575
30150SOL    HW194812  10.817   5.879  10.939  2.0105  1.3045 -3.8338
30150SOL    HW294813  10.685   5.850  10.871  1.0587  0.1339 -1.5959
30151SOL     OW94814   7.449   5.894   4.169  0.5280 -0.3163 -0.0321
30151SOL    HW194815   7.435   5.920   4.078 -0.4266  1.4138  0.5604
30151SOL    HW294816   7.537   5.857   4.170  0.5374 -0.4179 -1.6669
30152SOL     OW94817   8.972   6.993   0.852  0.0997  0.3416  0.2803
30152SOL    HW194818   9.062   6.987   0.818  0.3749 -1.5484  1.2596
30152SOL    HW294819   8.976   6.953   0.938 -1.7747 -0.1391  0.1790
30153SOL     OW94820   3.516   4.889   2.997  0.1918  0.2312  0.2971
30153SOL    HW194821   3.492   4.820   2.935  1.2992  0.9979 -1.0621
30153SOL    HW294822   3.437   4.902   3.050 -0.8221 -0.4617 -0.9646
30154SOL     OW94823   3.477   9.294   6.777  0.4954  0.1239 -0.0188
30154SOL    HW194824   3.407   9.317   6.716 -0.0076  0.5168  0.6904
30154SOL    HW294825   3.489   9.200   6.767  1.4120  0.3970 -1.7572
30155SOL     OW94826   0.036   2.407   1.020  0.1934 -0.0911  0.3055
30155SOL    HW194827  -0.036   2.440   1.073  2.2403  1.1464  2.4806
30155SOL    HW294828   0.080   2.342   1.075 -0.3027 -2.2855 -1.7178
30156SOL     OW94829   5.120   3.013   8.010 -0.2056  0.3725 -0.0065
30156SOL    HW194830   5.131   3.018   7.915 -2.7736 -0.9704 -0.4475
30156SOL    HW294831   5.141   2.922   8.033  0.8832  0.8016  0.8416
30157SOL     OW94832   0.679  10.686   8.674  0.2866  0.6079 -0.1769
30157SOL    HW194833   0.682  10.677   8.579 -1.2024 -1.5577 -0.0868
30157SOL    HW294834   0.677  10.596   8.706  2.1091  1.2350  2.0114
30158SOL     OW94835  10.401  10.226   6.679 -0.1866 -0.4172 -0.3979
30158SOL    HW194836  10.370  10.228   6.769  2.1728  0.0359  0.4937
30158SOL    HW294837  10.451  10.144   6.673  0.0924 -0.1994 -1.1240
30159SOL     OW94838   8.366  10.633   2.157  0.2302 -0.2273  0.3283
30159SOL    HW194839   8.339  10.565   2.219 -0.8382  1.3449  1.6658
30159SOL    HW294840   8.459  10.646   2.174 -0.2887  1.0719  2.6176
30160SOL     OW94841   5.630   9.375   1.838  0.4208  0.1058 -0.4599
30160SOL    HW194842   5.699   9.350   1.900 -0.5544 -2.2887 -0.2147
30160SOL    HW294843   5.575   9.437   1.887  0.6878 -0.3497  0.4386
30161SOL     OW94844   4.237   9.314   3.693  0.6931 -0.3808 -0.3845
30161SOL    HW194845   4.185   9.391   3.670  0.5735 -0.3840 -0.1375
30161SOL    HW294846   4.311   9.349   3.742  1.5014 -0.2778 -1.6435
30162SOL     OW94847   2.083   0.074   6.511 -0.4776  0.6663  0.1846
30162SOL    HW194848   2.163   0.126   6.513 -1.0438  1.5408  0.9210
30162SOL    HW294849   2.074   0.040   6.600 -0.7503  0.2879  0.0194
30163SOL     OW94850   1.809   5.001   2.012  0.2103 -0.4993  0.1987
30163SOL    HW194851   1.767   4.921   2.043 -1.3432  0.3782  0.4449
30163SOL    HW294852   1.765   5.021   1.929  0.7610 -0.0360  0.0078
30164SOL     OW94853   6.776   7.626   0.796  0.0540 -1.0200 -0.2170
30164SOL    HW194854   6.712   7.560   0.773  0.7671 -2.0082  0.5213
30164SOL    HW294855   6.737   7.673   0.870 -1.1412  0.4859 -1.7350
30165SOL     OW94856  10.924   7.996   7.211  0.5042 -0.3652  0.1148
30165SOL    HW194857  10.992   7.976   7.147 -1.1226 -4.2682 -0.6378
30165SOL    HW294858  10.942   7.938   7.285 -0.9709 -0.1321  0.6940
30166SOL     OW94859   0.712   5.167   3.426 -0.4671  0.1530 -0.7606
30166SOL    HW194860   0.802   5.138   3.415  0.0734  1.5147 -0.1076
30166SOL    HW294861   0.665   5.127   3.353  0.7368 -0.2785 -1.3240
30167SOL     OW94862   4.666   2.401   0.946 -0.7116  0.1854 -0.1102
30167SOL    HW194863   4.638   2.330   1.003  0.5359 -0.6076 -0.4402
30167SOL    HW294864   4.636   2.375   0.859  1.0979 -0.7852 -0.5072
30168SOL     OW94865   4.293  10.115   3.848 -0.0925 -0.5548  0.0107
30168SOL    HW194866   4.281  10.210   3.843  0.2709 -0.5567 -1.3041
30168SOL    HW294867   4.235  10.080   3.781  2.6898 -0.9559 -2.4011
30169SOL     OW94868   6.451   9.866   3.624  0.4611  0.6283  0.1528
30169SOL    HW194869   6.459   9.943   3.681  2.7203  1.1822 -0.7890
30169SOL    HW294870   6.506   9.800   3.665  0.1182  0.1859 -0.0936
30170SOL     OW94871  10.843   6.736   8.559  0.7091 -0.3219  0.0912
30170SOL    HW194872  10.819   6.643   8.562  1.1297 -0.4263  0.2999
30170SOL    HW294873  10.839   6.758   8.466  1.5638 -0.8066 -0.0727
30171SOL     OW94874   7.991   7.091   8.119 -0.0009 -1.0477  0.0806
30171SOL    HW194875   7.941   7.010   8.128 -0.0398 -0.8288  2.2622
30171SOL    HW294876   7.953   7.151   8.184  1.0013  0.2250 -0.4555
30172SOL     OW94877   0.452   1.916   6.438 -0.1290 -0.0995 -0.5439
30172SOL    HW194878   0.421   1.949   6.523 -1.3307 -2.5126  0.0455
30172SOL    HW294879   0.536   1.875   6.457 -1.4353 -2.7261  0.1005
30173SOL     OW94880  10.135   3.536  10.899 -0.5230  0.3135 -0.4429
30173SOL    HW194881  10.098   3.547  10.811  3.7084  1.0667 -2.3731
30173SOL    HW294882  10.211   3.595  10.901 -1.0656  1.2659  4.2601
30174SOL     OW94883  10.881   8.129   4.792 -0.1477 -0.3040  0.3064
30174SOL    HW194884  10.973   8.126   4.764 -0.1216 -0.5652  0.4245
30174SOL    HW294885  10.877   8.073   4.869 -0.6311 -1.1776 -0.3406
30175SOL     OW94886   4.243   6.689   2.397  0.0017  0.8777  0.7231
30175SOL    HW194887   4.245   6.593   2.395  0.6154  0.8772  1.1635
30175SOL    HW294888   4.231   6.714   2.305  1.3436  0.4062  0.4063
30176SOL     OW94889   1.989   2.354   6.379  0.1497 -0.0261 -0.5207
30176SOL    HW194890   2.083   2.367   6.388 -0.1872  1.6103  1.0727
30176SOL    HW294891   1.963   2.412   6.308  0.0257  1.3492  0.6056
30177SOL     OW94892  10.026   2.135   0.127 -0.5043  0.5425  0.1519
30177SOL    HW194893  10.047   2.226   0.148 -0.1131  0.3537  0.5999
30177SOL    HW294894  10.077   2.116   0.048 -1.2129  0.9528 -0.4179
30178SOL     OW94895   7.078   6.862   4.004  0.0556  0.0176 -0.2974
30178SOL    HW194896   7.094   6.818   4.087  0.0502 -0.3275 -0.4801
30178SOL    HW294897   6.982   6.864   3.997  0.0655 -0.4252 -0.5488
30179SOL     OW94898   9.165   8.873   3.662  0.1619  0.2268 -0.3842
30179SOL    HW194899   9.231   8.836   3.722 -1.0553 -0.8275  0.3606
30179SOL    HW294900   9.176   8.968   3.670 -0.3791  0.1502  2.0430
30180SOL     OW94901   8.499   6.060   1.923 -0.1662  0.2787  0.2643
30180SOL    HW194902   8.534   6.123   1.860 -2.5799  0.6436 -0.8437
30180SOL    HW294903   8.539   6.085   2.007  1.1881  1.3923 -0.6707
30181SOL     OW94904   2.681   9.412   0.590 -0.3852 -0.2345 -0.3805
30181SOL    HW194905   2.642   9.336   0.632 -1.1887  0.8585  0.9565
30181SOL    HW294906   2.677   9.393   0.496  3.3892 -3.6928 -0.1186
30182SOL     OW94907   3.339   7.126   4.427 -0.1005 -0.3946  0.5639
30182SOL    HW194908   3.297   7.044   4.453 -0.8240 -0.3129 -0.2868
30182SOL    HW294909   3.423   7.099   4.389  0.3246 -0.6168  1.6248
30183SOL     OW94910  10.506   8.707   9.686  0.4660  0.0047  0.1017
30183SOL    HW194911  10.478   8.782   9.634  0.1264 -0.0061  0.2696
30183SOL    HW294912  10.551   8.745   9.762 -0.3975  0.0651  0.5938
30184SOL     OW94913   1.760   8.315   4.559 -0.0843  0.4180 -0.4382
30184SOL    HW194914   1.805   8.343   4.639 -2.0694 -0.5938  1.1115
30184SOL    HW294915   1.829   8.312   4.493  2.0537 -0.6745  1.6902
30185SOL     OW94916   0.793   0.507   5.268 -0.1410 -0.3013  0.2386
30185SOL    HW194917   0.857   0.563   5.224  0.7038 -0.1060  1.6485
30185SOL    HW294918   0.773   0.553   5.350 -0.2484 -1.5194  0.9225
30186SOL     OW94919   4.662   2.331   6.729  0.0388  0.1396  0.1452
30186SOL    HW194920   4.583   2.283   6.755 -0.6950 -0.1689 -2.4208
30186SOL    HW294921   4.730   2.295   6.786 -1.2688 -1.0694  1.0390
30187SOL     OW94922   5.953   1.808   1.144 -0.3379  0.5892 -0.0087
30187SOL    HW194923   6.033   1.821   1.092  0.3218 -0.7749  0.6225
30187SOL    HW294924   5.913   1.895   1.147  0.9315  1.2288 -0.6442
30188SOL     OW94925  10.348   5.425   5.215 -0.3398 -0.7511  0.3830
30188SOL    HW194926  10.297   5.485   5.269  0.3310  0.7294 -0.5644
30188SOL    HW294927  10.396   5.371   5.277 -2.0992 -1.3698  1.2751
30189SOL     OW94928   8.851  10.258   1.749 -0.1156 -0.4587  0.6944
30189SOL    HW194929   8.827  10.333   1.803 -1.2237  1.2531 -1.9381
30189SOL    HW294930   8.903  10.296   1.677  1.0443 -2.5400  0.3528
30190SOL     OW94931  10.108   2.621   0.565  0.1407  0.2580 -0.0121
30190SOL    HW194932  10.148   2.607   0.479  1.8379 -0.3974  0.8329
30190SOL    HW294933  10.048   2.694   0.551 -0.8069 -0.8107 -2.0873
30191SOL     OW94934   7.530   5.910   6.176 -0.0101 -0.0311 -0.1023
30191SOL    HW194935   7.566   5.988   6.220  1.1726 -1.0874  0.8688
30191SOL    HW294936   7.483   5.864   6.245  0.1003 -0.6546 -0.4398
30192SOL     OW94937   8.822   9.314   4.349 -0.1146  0.4279  0.0448
30192SOL    HW194938   8.913   9.330   4.322  0.0495  1.2934  1.0257
30192SOL    HW294939   8.828   9.283   4.439 -0.7626 -0.1012 -0.0876
30193SOL     OW94940  10.855   5.342   8.983 -0.1513  0.0501  0.3596
30193SOL    HW194941  10.774   5.388   8.962 -0.1213  0.4124  0.9902
30193SOL    HW294942  10.860   5.346   9.079 -0.5364 -1.9473  0.4938
30194SOL     OW94943   4.157   1.359   5.307 -0.0571 -0.2414  0.6130
30194SOL    HW194944   4.109   1.436   5.276 -0.3690  0.5126  2.7925
30194SOL    HW294945   4.243   1.365   5.265 -0.6491  0.3648 -0.5405
30195SOL     OW94946   4.377   7.946   6.563 -0.0668 -0.4899 -0.4785
30195SOL    HW194947   4.427   8.013   6.608 -0.1643 -0.8664  0.2143
30195SOL    HW294948   4.355   7.882   6.632  0.8032 -1.7030 -1.2822
30196SOL     OW94949   8.676   3.789   2.838 -0.0430  0.0038  0.1993
30196SOL    HW194950   8.714   3.787   2.751  0.0933 -1.4515  0.2721
30196SOL    HW294951   8.751   3.789   2.898 -0.1378 -0.6218  0.3235
30197SOL     OW94952   0.675   6.700   1.010  0.1641  0.0980 -0.4924
30197SOL    HW194953   0.671   6.789   0.974 -1.1743  0.3228  0.1425
30197SOL    HW294954   0.603   6.697   1.073  1.4722 -0.7644  1.0355
30198SOL     OW94955   0.717   5.013   7.248 -0.3803  0.2682 -0.5008
30198SOL    HW194956   0.699   4.939   7.306 -0.8916  0.3524 -0.5497
30198SOL    HW294957   0.634   5.060   7.243  0.1400  1.2933  0.1660
30199SOL     OW94958  10.193   5.574   7.671 -0.5538 -0.0321 -0.1952
30199SOL    HW194959  10.235   5.494   7.639 -2.2531 -0.2863 -2.0086
30199SOL    HW294960  10.133   5.544   7.740  1.1201  0.1553  1.4091
30200SOL     OW94961   2.487   6.310   2.836  0.3843 -0.5641 -0.0942
30200SOL    HW194962   2.398   6.299   2.804  0.6259  0.0315 -1.0203
30200SOL    HW294963   2.542   6.306   2.757  0.9164  1.7896  0.0855
30201SOL     OW94964   8.119   7.316   8.371  0.1418  0.5002 -0.2787
30201SOL    HW194965   8.106   7.351   8.459  1.9122 -0.3213  0.3551
30201SOL    HW294966   8.154   7.228   8.385  1.0103  0.5705 -1.7911
30202SOL     OW94967  10.852   5.528   6.635  0.6052 -0.9069  0.0790
30202SOL    HW194968  10.803   5.476   6.699  0.0215 -3.0015 -1.9224
30202SOL    HW294969  10.799   5.524   6.555  2.5873 -0.7390 -1.3165
30203SOL     OW94970   8.605   3.354  10.846 -0.1253 -0.1609  0.6920
30203SOL    HW194971   8.682   3.352  10.789  0.0186  0.1581  0.8674
30203SOL    HW294972   8.637   3.392  10.928 -0.4483 -0.1179  0.8005
30204SOL     OW94973   2.750   2.092   6.943  0.5749  0.0276 -0.4890
30204SOL    HW194974   2.789   2.139   7.017 -1.2964 -0.2919  0.7943
30204SOL    HW294975   2.820   2.085   6.879  2.4105 -0.0262  1.4163
30205SOL     OW94976   0.610   7.352  11.001  0.6475  0.1844  0.0551
30205SOL    HW194977   0.595   7.401  11.082 -0.1144  2.7467 -1.5129
30205SOL    HW294978   0.695   7.309  11.014  0.9466  1.2321  1.8779
30206SOL     OW94979   6.014   2.860   5.036 -0.2912 -0.4793  0.9541
30206SOL    HW194980   6.074   2.933   5.053 -1.7422  0.5074  2.0791
30206SOL    HW294981   6.003   2.818   5.121  0.5305 -2.0724  0.3178
30207SOL     OW94982   9.077   9.576   6.767  0.1800  0.0842  0.2282
30207SOL    HW194983   9.158   9.604   6.724 -0.5040  1.4440 -0.2312
30207SOL    HW294984   9.009   9.588   6.700 -0.4102 -1.0324  0.6091
30208SOL     OW94985   3.333  10.768   3.126  0.3897  0.0682  0.1356
30208SOL    HW194986   3.347  10.858   3.157  0.2842  0.4270 -0.8088
30208SOL    HW294987   3.341  10.775   3.030  0.8509 -1.0157  0.0855
30209SOL     OW94988   6.475   6.514   5.835  0.4578 -0.2611  0.0164
30209SOL    HW194989   6.543   6.447   5.830  0.3772 -0.3306 -0.1394
30209SOL    HW294990   6.453   6.533   5.744  1.3654  0.8806  0.0214
30210SOL     OW94991   7.587   0.839   8.675 -0.2190  0.2513 -0.0906
30210SOL    HW194992   7.588   0.843   8.771 -2.7409 -1.3070  0.1089
30210SOL    HW294993   7.576   0.746   8.655  1.4248  0.3845 -1.9849
30211SOL     OW94994   6.731   5.340   4.499  0.2210 -0.5386  0.3107
30211SOL    HW194995   6.686   5.423   4.516 -0.3512 -1.2273  2.4946
30211SOL    HW294996   6.820   5.365   4.476 -0.4366  0.7310 -1.0941
30212SOL     OW94997   3.613   2.449   6.990  0.5553  0.1692 -0.3424
30212SOL    HW194998   3.544   2.473   7.052  0.6730  2.0761 -0.8855
30212SOL    HW294999   3.650   2.367   7.024 -1.1388 -0.2223  0.6194
30213SOL     OW95000   5.284   7.902   2.493 -0.6032  0.6309 -0.5678
30213SOL    HW195001   5.353   7.862   2.547 -1.0331  1.1377  0.3820
30213SOL    HW295002   5.289   7.995   2.513 -1.0861  0.7647 -1.0566
30214SOL     OW95003   5.410   3.878   3.786 -0.1697  0.4716 -0.1746
30214SOL    HW195004   5.327   3.903   3.827 -0.7702  0.5350 -1.3996
30214SOL    HW295005   5.385   3.829   3.707  0.9535 -1.4483  0.5708
30215SOL     OW95006   3.157   8.448   8.152 -0.4633  0.3553 -0.4269
30215SOL    HW195007   3.113   8.512   8.207 -0.6173  0.1405 -0.3014
30215SOL    HW295008   3.168   8.371   8.207 -1.4520 -0.1949 -0.9751
30216SOL     OW95009   8.274   1.952   9.889 -0.2099  0.2712  0.4721
30216SOL    HW195010   8.244   1.946   9.798 -1.1305  0.3030  0.7707
30216SOL    HW295011   8.215   1.894   9.938  1.5029 -1.3572  0.7660
30217SOL     OW95012   2.791   8.062   8.432 -0.0139  0.2893  0.1668
30217SOL    HW195013   2.762   8.074   8.342  0.6270 -0.1778 -0.1132
30217SOL    HW295014   2.835   7.977   8.431 -1.4178 -0.4887  1.2877
30218SOL     OW95015  11.062   6.564   6.478 -0.3380 -0.5474 -1.0000
30218SOL    HW195016  11.014   6.561   6.560  0.9374 -1.6926 -0.2619
30218SOL    HW295017  10.994   6.571   6.411 -1.3694  2.1545  0.1692
30219SOL     OW95018   3.766   1.394   7.878  0.4732  0.2750  0.5361
30219SOL    HW195019   3.801   1.405   7.967 -1.9241 -0.7150  1.6904
30219SOL    HW295020   3.697   1.459   7.871 -0.3986 -0.6851 -0.0067
30220SOL     OW95021   5.871   2.591   4.244 -0.0144 -0.9938  0.1356
30220SOL    HW195022   5.917   2.526   4.190 -1.6956 -1.9928 -0.1744
30220SOL    HW295023   5.883   2.560   4.334 -0.0259 -1.2105  0.0627
30221SOL     OW95024   3.859   2.195   4.560  0.3277 -0.1475 -0.2811
30221SOL    HW195025   3.873   2.215   4.652  1.8456  0.4447 -0.6114
30221SOL    HW295026   3.943   2.161   4.530  0.1945  0.6924 -1.7051
30222SOL     OW95027   4.955   9.476   6.645  0.1613  0.2677  0.1374
30222SOL    HW195028   5.011   9.547   6.614 -0.1895  0.4957  0.0163
30222SOL    HW295029   5.016   9.406   6.668  0.4000 -0.7170 -2.9745
30223SOL     OW95030   8.008   4.039   1.128  0.1791  0.1758  0.0257
30223SOL    HW195031   7.920   4.003   1.121  0.8560 -1.2592 -2.0747
30223SOL    HW295032   8.052   3.985   1.193  0.0827 -0.4376 -0.4097
30224SOL     OW95033   1.022   3.868   1.488  0.7036  0.2144  0.4758
30224SOL    HW195034   1.073   3.937   1.530  2.5297  1.1982 -2.9700
30224SOL    HW295035   1.063   3.787   1.517  4.1493  0.9625 -1.7575
30225SOL     OW95036   1.106   4.483   5.443 -0.1959  0.1019 -0.3153
30225SOL    HW195037   1.133   4.489   5.351 -0.9423  1.5110 -0.4709
30225SOL    HW295038   1.172   4.428   5.484  0.4568 -0.0922 -1.5867
30226SOL     OW95039   9.650   8.329  10.971 -0.4982  0.0221  0.1571
30226SOL    HW195040   9.660   8.411  11.020 -0.6287  0.5070 -0.6100
30226SOL    HW295041   9.718   8.332  10.904  0.5059 -1.2211  1.0724
30227SOL     OW95042   1.143   6.726   5.445 -0.4820  0.0523  0.3083
30227SOL    HW195043   1.105   6.777   5.373  0.4433 -0.4339 -0.5673
30227SOL    HW295044   1.230   6.766   5.458  0.0863 -1.0116 -0.1084
30228SOL     OW95045   7.277   0.075   2.410  0.1680  0.4281 -0.9529
30228SOL    HW195046   7.337   0.037   2.346  2.2561 -1.2384  1.7519
30228SOL    HW295047   7.278   0.013   2.483 -0.6463  3.0116  1.4386
30229SOL     OW95048   8.345   8.008   9.909 -0.7490 -0.1090 -0.0586
30229SOL    HW195049   8.427   8.056   9.911  0.0691 -1.3670 -1.6443
30229SOL    HW295050   8.284   8.067   9.864 -1.1172  1.3108  2.1459
30230SOL     OW95051   3.119   5.313   9.272  0.5661 -0.0192 -0.7590
30230SOL    HW195052   3.187   5.322   9.338  1.2721 -1.9890 -1.1484
30230SOL    HW295053   3.153   5.360   9.196  0.2573  1.2897 -0.1038
30231SOL     OW95054   9.987   4.009   1.738 -0.1912  0.1942  0.0923
30231SOL    HW195055   9.968   3.916   1.729 -0.3432  0.4210 -3.1162
30231SOL    HW295056   9.906   4.047   1.771  0.1001 -0.8132  2.1635
30232SOL     OW95057   4.233   7.308   9.303 -0.2148 -0.3128 -0.3075
30232SOL    HW195058   4.305   7.248   9.283  0.2611  0.3039 -0.4903
30232SOL    HW295059   4.261   7.392   9.266 -0.1827  0.3996  1.2601
30233SOL     OW95060   4.072   4.085   8.676 -0.8635  0.1987  0.5043
30233SOL    HW195061   3.992   4.090   8.624 -0.6857 -1.1955  0.0586
30233SOL    HW295062   4.143   4.090   8.612 -0.5145  2.4065  0.9677
30234SOL     OW95063   0.670   7.898   4.107  0.4965  0.2660 -0.2651
30234SOL    HW195064   0.698   7.809   4.088 -0.1829  0.1040 -0.5433
30234SOL    HW295065   0.751   7.945   4.126  0.9423 -0.2149 -0.9296
30235SOL     OW95066   8.460   6.999   9.703 -0.0843 -0.4979  0.1521
30235SOL    HW195067   8.400   6.965   9.769  0.2923  0.6688  1.1165
30235SOL    HW295068   8.402   7.030   9.633 -0.5499 -0.5173  0.5199
30236SOL     OW95069   5.066   4.351   3.293  0.1681 -0.0830  0.0321
30236SOL    HW195070   5.140   4.297   3.263  0.5936  1.3643 -1.7733
30236SOL    HW295071   5.092   4.440   3.270 -1.2021  0.7144  1.4431
30237SOL     OW95072   7.528  10.585   9.288 -0.2883  0.0804 -0.4520
30237SOL    HW195073   7.582  10.533   9.228 -0.5733 -0.1437 -0.5186
30237SOL    HW295074   7.555  10.556   9.375  0.2529  0.5359 -0.4663
30238SOL     OW95075   3.206  10.257   4.567 -0.2806 -0.1483 -0.3027
30238SOL    HW195076   3.202  10.197   4.492  0.7237 -1.6868  0.8135
30238SOL    HW295077   3.299  10.278   4.575 -0.3749 -0.0490  0.5609
30239SOL     OW95078   2.861   0.767   5.894  0.1358 -0.4553 -0.4005
30239SOL    HW195079   2.882   0.700   5.829 -1.2308 -0.3647 -0.9530
30239SOL    HW295080   2.766   0.762   5.905  0.1986  0.3595  0.6898
30240SOL     OW95081   2.136   1.360   6.358 -0.0473  0.6084  0.4256
30240SOL    HW195082   2.064   1.379   6.298  1.1423  1.2775 -0.8234
30240SOL    HW295083   2.124   1.422   6.430 -0.0072  1.5991 -0.3986
30241SOL     OW95084   5.955  10.975  10.834  0.2885 -0.1652 -0.6595
30241SOL    HW195085   5.924  11.063  10.811  0.1238  0.3850  1.5020
30241SOL    HW295086   5.880  10.918  10.813 -0.6788  0.6028  0.5582
30242SOL     OW95087   5.082   3.002  10.020  0.1252 -0.1989 -0.3921
30242SOL    HW195088   5.174   3.004  10.047  0.5581 -0.0707 -1.7979
30242SOL    HW295089   5.081   3.051   9.938 -1.1781 -0.3358 -0.4667
30243SOL     OW95090   0.833   3.563   8.865  0.4072  0.3854 -0.1722
30243SOL    HW195091   0.738   3.565   8.851  0.2835 -1.0007  0.3430
30243SOL    HW295092   0.856   3.471   8.859  1.4832  0.5309  1.2182
30244SOL     OW95093   2.859   3.023   7.995 -0.5812 -0.4380  0.0996
30244SOL    HW195094   2.804   3.019   8.073 -0.6676  0.1988  0.0772
30244SOL    HW295095   2.798   3.042   7.924 -0.7822 -2.8199 -0.4421
30245SOL     OW95096   8.965   7.959   9.002 -0.2954 -0.1822 -0.3017
30245SOL    HW195097   8.985   7.888   9.062 -2.5805 -1.0307 -0.4434
30245SOL    HW295098   8.974   8.039   9.054  2.7227 -0.4385 -0.2527
30246SOL     OW95099   4.077  10.646   8.911  0.0586 -1.0437 -0.5050
30246SOL    HW195100   4.054  10.606   8.827 -1.0958  0.9515 -1.2060
30246SOL    HW295101   3.995  10.653   8.959  0.6031 -1.5597  0.5556
30247SOL     OW95102   7.214   2.424   1.891 -0.1288  0.0205 -0.0976
30247SOL    HW195103   7.156   2.410   1.816 -0.1634  3.4713 -0.9108
30247SOL    HW295104   7.303   2.418   1.854 -0.0420 -1.1214  0.2561
30248SOL     OW95105   1.516   2.371   7.344 -0.3127  0.4088  0.6195
30248SOL    HW195106   1.428   2.350   7.375 -0.9092  0.1525 -1.1266
30248SOL    HW295107   1.540   2.296   7.290  0.3087  1.2058 -0.2267
30249SOL     OW95108   5.590   5.083   3.014  0.3169 -0.1012  0.1877
30249SOL    HW195109   5.602   4.992   2.986  1.7738 -0.1382  0.8723
30249SOL    HW295110   5.642   5.134   2.953  0.5192  0.1499  0.5665
30250SOL     OW95111   7.349   8.112   2.985 -0.0160  0.0999 -0.2134
30250SOL    HW195112   7.411   8.161   3.039  1.7871 -0.1672 -1.8954
30250SOL    HW295113   7.281   8.175   2.963 -0.0499  0.5904  1.1923
30251SOL     OW95114   8.367   8.844   6.076  0.4586  0.3689  0.1753
30251SOL    HW195115   8.282   8.864   6.116  0.4508  0.0702  0.3111
30251SOL    HW295116   8.370   8.748   6.071  0.4072  0.4050 -0.6729
30252SOL     OW95117   9.942   7.467   6.671 -0.2903 -0.1963  0.0161
30252SOL    HW195118   9.854   7.484   6.704 -0.6094 -0.2568 -0.8042
30252SOL    HW295119   9.990   7.548   6.690 -1.2130  0.8393 -1.8381
30253SOL     OW95120   6.314  10.879   6.021  0.0572 -0.3642  0.4457
30253SOL    HW195121   6.301  10.970   6.050  0.9027 -0.6634  1.8383
30253SOL    HW295122   6.254  10.828   6.076  1.1719 -0.8610  1.2577
30254SOL     OW95123   9.037   6.415   4.567 -0.1176  0.2054 -0.0392
30254SOL    HW195124   9.005   6.334   4.528  1.5649 -0.9459  0.8239
30254SOL    HW295125   9.024   6.403   4.661 -0.4246  1.2260  0.0641
30255SOL     OW95126   1.268   0.256   3.842 -0.0380  0.1157 -0.0089
30255SOL    HW195127   1.299   0.171   3.875 -0.2870 -0.0589 -0.2175
30255SOL    HW295128   1.176   0.241   3.822 -0.1123  0.4721  0.0642
30256SOL     OW95129   4.705   1.992   3.724 -0.1819  0.1274  0.2457
30256SOL    HW195130   4.792   2.008   3.761 -0.4358  1.1144  0.4234
30256SOL    HW295131   4.680   1.907   3.762  0.9416 -0.4666 -0.2868
30257SOL     OW95132   5.565   3.925  10.595  0.3033 -0.9749  0.5012
30257SOL    HW195133   5.658   3.903  10.590  0.8171  1.0784 -0.0038
30257SOL    HW295134   5.563   4.020  10.611 -1.7048 -1.0693  1.1371
30258SOL     OW95135   0.076   6.435   1.478 -0.1025 -0.1917  0.1409
30258SOL    HW195136   0.010   6.406   1.414 -0.8247 -0.9117  1.1758
30258SOL    HW295137   0.102   6.354   1.523  1.1478  0.1604  0.0679
30259SOL     OW95138   1.961   1.821   4.531 -0.6772 -0.6909  0.4047
30259SOL    HW195139   2.033   1.803   4.470  0.5438  0.1718  1.5287
30259SOL    HW295140   2.002   1.817   4.617 -2.2283 -1.2342  1.1517
30260SOL     OW95141   7.845   7.042  10.944 -0.1286 -0.2710  0.5988
30260SOL    HW195142   7.939   7.025  10.954  0.0193 -0.6653 -1.0142
30260SOL    HW295143   7.825   7.110  11.008  1.7038  1.2873 -0.3860
30261SOL     OW95144   1.271   0.282   0.161 -0.0161 -0.3242 -0.7505
30261SOL    HW195145   1.282   0.201   0.112 -0.1053 -1.2919  0.7842
30261SOL    HW295146   1.360   0.316   0.171  0.2064 -1.1144  0.0375
30262SOL     OW95147   3.724   5.638   8.535 -0.1853 -0.2260  0.0155
30262SOL    HW195148   3.633   5.610   8.528 -0.1928 -0.1709 -0.1097
30262SOL    HW295149   3.737   5.698   8.461 -0.5092  1.0172  0.9201
30263SOL     OW95150   6.041   4.615  10.655 -0.0495 -0.1979  0.3156
30263SOL    HW195151   6.032   4.665  10.574 -0.7213 -1.5101 -0.4497
30263SOL    HW295152   6.133   4.624  10.679  0.3856 -0.5769 -1.1314
30264SOL     OW95153   3.899   9.527   5.344 -0.4593 -0.0283  0.7382
30264SOL    HW195154   3.899   9.615   5.381  0.7339  0.4810 -0.3934
30264SOL    HW295155   3.953   9.476   5.405 -2.9634 -0.5923  2.6255
30265SOL     OW95156   5.501   1.262   4.053 -0.1910  0.0516 -0.7676
30265SOL    HW195157   5.577   1.260   4.112  0.6132  0.6912 -1.7359
30265SOL    HW295158   5.489   1.171   4.026 -1.3332 -0.4625  1.2772
30266SOL     OW95159   8.008   1.034   4.332  0.1434  0.5230  0.1765
30266SOL    HW195160   7.913   1.026   4.342  0.0643  0.2643 -0.7502
30266SOL    HW295161   8.027   0.996   4.246  0.8208  2.5870 -0.6374
30267SOL     OW95162   7.687   6.754   2.584 -0.7787 -0.0104 -0.0799
30267SOL    HW195163   7.658   6.683   2.526  0.6796 -1.8544  1.3360
30267SOL    HW295164   7.741   6.811   2.527 -1.6104 -0.2430 -1.1353
30268SOL     OW95165   3.771   3.901   2.253 -0.5747 -0.0826  0.5641
30268SOL    HW195166   3.790   3.987   2.215 -0.7634 -0.2129  0.1752
30268SOL    HW295167   3.851   3.851   2.240 -0.9592 -0.4393 -0.5410
30269SOL     OW95168   5.220  10.928   1.227  0.5210 -0.1653  0.2802
30269SOL    HW195169   5.147  10.982   1.258 -0.9743 -1.7805 -0.3060
30269SOL    HW295170   5.278  10.990   1.182 -1.4403  0.8973 -0.9248
30270SOL     OW95171   6.168   8.776  10.524  0.3804 -0.4051 -0.2645
30270SOL    HW195172   6.160   8.682  10.508  0.8257 -0.4699 -0.1214
30270SOL    HW295173   6.080   8.803  10.552  0.1798 -0.7219 -0.5754
30271SOL     OW95174   8.504   2.801   5.123 -0.5274  0.4161  0.4320
30271SOL    HW195175   8.555   2.880   5.141  0.3076 -0.2579  1.0814
30271SOL    HW295176   8.475   2.812   5.032  1.5472  0.4237 -0.3032
30272SOL     OW95177   9.566   9.976   3.274 -0.2711 -0.3993  0.5116
30272SOL    HW195178   9.543   9.896   3.226  1.0180 -0.1230 -0.6092
30272SOL    HW295179   9.519   9.967   3.357 -0.5284 -2.1012  0.2378
30273SOL     OW95180   6.042   7.748   6.089  0.1581  0.0867  0.1633
30273SOL    HW195181   5.959   7.775   6.128 -0.5578 -1.0967 -0.4774
30273SOL    HW295182   6.041   7.788   6.002 -0.0764 -0.4763 -0.1025
30274SOL     OW95183   6.729   6.222   3.802 -0.0238  0.1520 -0.0051
30274SOL    HW195184   6.696   6.207   3.713  1.5342 -0.8204 -0.4642
30274SOL    HW295185   6.818   6.255   3.789 -0.3907  1.7135  1.1933
30275SOL     OW95186   5.561   7.628   3.764 -0.2606  0.1785 -0.5469
30275SOL    HW195187   5.535   7.620   3.672 -0.4874  0.7610 -0.5344
30275SOL    HW295188   5.598   7.716   3.771  0.3674 -0.1068 -0.2291
30276SOL     OW95189   5.097   0.463   5.830 -0.5387  0.6628  0.1814
30276SOL    HW195190   5.095   0.529   5.899  1.6157  0.1545  0.8036
30276SOL    HW295191   5.170   0.489   5.774 -0.8264 -0.1821 -0.6039
30277SOL     OW95192   7.052   8.995   5.652  0.5565 -0.0805  0.5652
30277SOL    HW195193   6.978   9.056   5.648  0.4598 -0.1951  0.6231
30277SOL    HW295194   7.096   9.016   5.734  0.8583  0.3018  0.3147
30278SOL     OW95195   6.170   1.312   5.680  0.5869 -1.1775  0.5050
30278SOL    HW195196   6.258   1.333   5.647  0.9428  1.1551  2.6297
30278SOL    HW295197   6.163   1.361   5.762 -2.7499 -1.2339  0.3886
30279SOL     OW95198   8.285   3.069  10.506 -0.8036  0.2449  0.0453
30279SOL    HW195199   8.200   3.085  10.547 -1.7067 -0.3308 -1.4975
30279SOL    HW295200   8.263   3.041  10.417  1.0605  1.7990 -0.9773
30280SOL     OW95201   1.844   2.987   1.125  0.1019 -0.2522 -0.0761
30280SOL    HW195202   1.915   2.926   1.147  0.9105  1.1149  1.2737
30280SOL    HW295203   1.784   2.982   1.200  1.0000  1.7408  0.8362
30281SOL     OW95204   1.218   3.713   7.176 -0.7462  0.0223  1.1180
30281SOL    HW195205   1.253   3.654   7.110  0.3986  0.9685  0.8387
30281SOL    HW295206   1.256   3.682   7.259  0.7267  0.9727  0.8316
30282SOL     OW95207   0.302   4.491  10.011 -0.4267 -0.1053  0.1013
30282SOL    HW195208   0.219   4.499  10.057 -0.2433 -2.3220  0.9265
30282SOL    HW295209   0.326   4.581   9.988 -2.4122  0.6859  0.9463
30283SOL     OW95210   1.479   9.118  11.003  0.7111  0.0421  0.2540
30283SOL    HW195211   1.534   9.039  11.001 -1.1336 -1.3638  1.3342
30283SOL    HW295212   1.462   9.132  11.096 -2.1228 -0.6457 -0.0692
30284SOL     OW95213   3.824   9.409   6.138  0.4646  0.3912  0.0505
30284SOL    HW195214   3.788   9.398   6.051  1.5136  1.5590 -0.5563
30284SOL    HW295215   3.812   9.323   6.180 -1.6239  0.3126 -0.5947
30285SOL     OW95216  10.842   3.361   8.449 -0.2666 -0.5677  0.2835
30285SOL    HW195217  10.881   3.289   8.400 -0.8903 -0.1048 -0.9128
30285SOL    HW295218  10.816   3.322   8.533  0.4330 -1.4573  0.0979
30286SOL     OW95219   8.843   1.294   8.365 -0.1214  0.3262  0.1478
30286SOL    HW195220   8.852   1.341   8.282  1.8245 -0.8955 -0.3812
30286SOL    HW295221   8.835   1.202   8.340  0.5390 -0.0690  1.3178
30287SOL     OW95222   2.412   7.995   8.900  0.1613 -0.0941 -0.0465
30287SOL    HW195223   2.401   8.005   8.994  0.1281 -1.2039  0.0754
30287SOL    HW295224   2.500   7.961   8.889  0.5808  1.0684 -0.5078
30288SOL     OW95225   1.612   0.487   1.647 -0.4707 -0.2216  0.0486
30288SOL    HW195226   1.692   0.435   1.643 -0.5429 -0.2484 -2.1640
30288SOL    HW295227   1.641   0.578   1.637 -0.7429 -0.3251 -2.2743
30289SOL     OW95228   2.748   6.231   6.568 -0.1516  0.5361 -0.5569
30289SOL    HW195229   2.788   6.145   6.582  1.6701  1.5001  0.5211
30289SOL    HW295230   2.694   6.245   6.646 -3.1269 -0.9180 -2.1664
30290SOL     OW95231   7.818   3.727   7.087  0.5186  0.2520 -0.0159
30290SOL    HW195232   7.756   3.746   7.157  0.4457  1.6451 -0.4244
30290SOL    HW295233   7.821   3.631   7.082 -0.5560  0.1570  0.9195
30291SOL     OW95234   8.847   7.614   4.388  0.0339  0.9689 -0.5576
30291SOL    HW195235   8.835   7.519   4.391 -0.9849  1.0522 -1.4999
30291SOL    HW295236   8.761   7.648   4.363  0.3791  2.1456 -0.1903
30292SOL     OW95237   0.109   0.695   3.997 -0.2825 -0.1979 -0.2116
30292SOL    HW195238   0.023   0.732   4.018  0.0451  0.0227  0.8346
30292SOL    HW295239   0.126   0.633   4.068  1.4150  1.4528  0.9357
30293SOL     OW95240   4.823   9.621   6.185 -0.3252 -0.2535 -0.8082
30293SOL    HW195241   4.912   9.655   6.174  0.1576 -1.2955 -0.2032
30293SOL    HW295242   4.804   9.574   6.104 -0.6495  0.6415 -1.2700
30294SOL     OW95243   8.765   7.658   5.281 -0.3023 -0.3985 -0.1608
30294SOL    HW195244   8.719   7.679   5.200 -0.5774  2.9639  0.7261
30294SOL    HW295245   8.696   7.628   5.341 -0.4587 -0.6596 -0.4680
30295SOL     OW95246   3.099   1.347  10.985 -0.7667 -0.2360 -0.1459
30295SOL    HW195247   3.042   1.290  10.933 -0.2044 -0.4142 -0.5787
30295SOL    HW295248   3.040   1.390  11.047 -1.2691 -0.9393 -0.1184
30296SOL     OW95249  10.870   8.776   8.523 -0.6555  0.2269  0.3056
30296SOL    HW195250  10.813   8.725   8.465 -0.6196  1.6577 -1.0562
30296SOL    HW295251  10.941   8.806   8.466  0.5023 -0.0152  1.5739
30297SOL     OW95252   9.219   1.016   9.152  0.0194  0.6342 -0.0772
30297SOL    HW195253   9.231   1.106   9.120 -1.3419  1.1323  0.7423
30297SOL    HW295254   9.133   0.991   9.120 -0.3144  0.2417  1.0964
30298SOL     OW95255   9.909   7.134   4.871  0.0313  0.1672 -0.2411
30298SOL    HW195256   9.835   7.076   4.855  0.7442 -0.5486 -0.9890
30298SOL    HW295257   9.870   7.210   4.916 -1.0841 -0.3631 -0.2764
30299SOL     OW95258   8.455   2.144   9.991  0.2561  0.1124 -0.2703
30299SOL    HW195259   8.548   2.128   9.970  1.1577  0.7045  2.7635
30299SOL    HW295260   8.414   2.058   9.982  1.9898 -1.0563  2.0687
30300SOL     OW95261   9.546   4.856   4.570 -0.3680 -0.0373  0.5345
30300SOL    HW195262   9.510   4.815   4.649 -1.3839  0.3598  0.2898
30300SOL    HW295263   9.599   4.787   4.529  1.6148  0.2496  2.4319
30301SOL     OW95264  10.894   6.448   6.049 -0.4989 -0.0814 -0.7987
30301SOL    HW195265  10.942   6.435   5.968  0.5727  1.8911 -0.5354
30301SOL    HW295266  10.941   6.518   6.094 -0.4039 -1.7903  2.0359
30302SOL     OW95267   5.047   1.789   3.223 -0.4581  0.0917  0.1613
30302SOL    HW195268   5.003   1.718   3.269 -2.2172  0.9216 -0.1618
30302SOL    HW295269   4.984   1.817   3.157  0.2017  1.9466  0.2680
30303SOL     OW95270   7.397  10.968   9.743 -0.1454  0.3044 -0.2403
30303SOL    HW195271   7.443  11.038   9.697 -0.3613  0.1022 -0.7713
30303SOL    HW295272   7.459  10.895   9.744  0.2902  0.6675  0.7992
30304SOL     OW95273   2.069   3.565   0.660 -0.1412 -0.5180  0.2399
30304SOL    HW195274   2.099   3.486   0.705  0.3562 -0.7628 -0.5176
30304SOL    HW295275   2.118   3.636   0.702 -0.5769 -0.5983  0.9102
30305SOL     OW95276   9.323   0.158   6.834 -0.1601  0.2190 -0.1197
30305SOL    HW195277   9.272   0.171   6.754  0.2080  1.9319 -0.1131
30305SOL    HW295278   9.387   0.229   6.833  1.6557 -1.3345  0.3422
30306SOL     OW95279   6.258   2.746   4.751 -0.5809  0.0001 -0.1327
30306SOL    HW195280   6.263   2.670   4.808 -0.4804  1.3769  1.7792
30306SOL    HW295281   6.247   2.709   4.663  0.9845 -2.2426  0.5251
30307SOL     OW95282   1.599   6.185   0.344  0.8947 -0.4751 -0.2685
30307SOL    HW195283   1.536   6.204   0.413  0.5300 -1.1854 -0.3973
30307SOL    HW295284   1.553   6.209   0.263  0.7424 -1.0829 -0.3700
30308SOL     OW95285   5.742   5.172   0.722 -0.1267 -0.0611 -0.0410
30308SOL    HW195286   5.789   5.244   0.764 -0.6171  0.0676  0.2857
30308SOL    HW295287   5.703   5.211   0.644  2.1901 -0.6610 -1.6136
30309SOL     OW95288  10.156   9.177  10.426  0.3164  0.1224  0.2741
30309SOL    HW195289  10.095   9.166  10.498  0.0296 -1.4369 -0.1693
30309SOL    HW295290  10.154   9.271  10.407 -0.8621  0.3053  1.1876
30310SOL     OW95291   3.494   5.883   8.989 -0.0276  0.5518 -0.0523
30310SOL    HW195292   3.478   5.790   9.008 -0.7714  0.7089  0.1266
30310SOL    HW295293   3.574   5.883   8.937  0.0021 -0.1879 -0.0250
30311SOL     OW95294   2.358   0.766   5.537 -0.3414  0.1102 -0.6017
30311SOL    HW195295   2.428   0.700   5.536  0.7881  1.2766 -1.0087
30311SOL    HW295296   2.320   0.758   5.624 -1.3304 -2.1544 -1.1503
30312SOL     OW95297   8.875   2.704  10.973  0.4942 -0.5527  0.3353
30312SOL    HW195298   8.861   2.704  11.068 -0.9154  0.3357  0.1604
30312SOL    HW295299   8.798   2.657  10.938  0.5238 -0.0553 -0.4162
30313SOL     OW95300   5.980   2.472   7.062 -0.3953  0.3222 -0.2876
30313SOL    HW195301   5.951   2.560   7.084 -0.0721 -0.0481  1.8490
30313SOL    HW295302   6.067   2.464   7.101 -1.3412 -1.6587  1.6376
30314SOL     OW95303   3.284   0.994   6.046 -0.1177 -0.4599 -0.3439
30314SOL    HW195304   3.193   0.967   6.051 -0.9186  1.6975 -1.6442
30314SOL    HW295305   3.315   0.957   5.963 -0.4256  0.4103 -0.8562
30315SOL     OW95306   4.297   3.769   2.583 -0.1527 -0.2864 -0.0432
30315SOL    HW195307   4.232   3.703   2.606  0.9974 -1.4593 -0.0650
30315SOL    HW295308   4.374   3.745   2.634  0.0906  1.4266  0.4413
30316SOL     OW95309   8.170  10.399   1.827  0.0969 -0.4567  0.4386
30316SOL    HW195310   8.235  10.337   1.795  0.7917  0.0427  0.8460
30316SOL    HW295311   8.100  10.396   1.762  1.1561  0.0129 -0.7785
30317SOL     OW95312   9.169   6.762   4.588  0.3015  0.3528  0.8428
30317SOL    HW195313   9.216   6.693   4.542  0.5783  0.9233  0.2451
30317SOL    HW295314   9.211   6.843   4.559 -0.6096  0.8343  0.8237
30318SOL     OW95315   7.981  10.148   3.828  0.3208 -0.6394 -0.4008
30318SOL    HW195316   7.918  10.155   3.900  0.1873  0.3251 -0.6036
30318SOL    HW295317   7.929  10.122   3.752  0.5013 -1.9198 -0.1111
30319SOL     OW95318   7.894   1.824   8.670 -0.2856 -0.3323  0.2370
30319SOL    HW195319   7.950   1.792   8.741  1.0373  1.9872  0.3661
30319SOL    HW295320   7.932   1.909   8.647 -1.2639 -0.5608 -2.6169
30320SOL     OW95321   6.684  11.004  10.749  0.1599  0.1498  0.0847
30320SOL    HW195322   6.598  10.966  10.767 -0.1883  1.9378  2.9491
30320SOL    HW295323   6.737  10.931  10.718 -1.6350 -1.6305  0.9853
30321SOL     OW95324  10.662   0.281   1.142 -0.1768  0.2889 -0.2477
30321SOL    HW195325  10.605   0.216   1.184  0.5585 -0.0760  0.1931
30321SOL    HW295326  10.715   0.315   1.214  0.9686 -0.2075 -0.8465
30322SOL     OW95327   2.219   1.955   7.957 -0.0482 -0.3882 -0.0392
30322SOL    HW195328   2.232   1.860   7.952 -0.1434 -0.3416 -1.5905
30322SOL    HW295329   2.204   1.982   7.866  1.0278  1.2644  0.2283
30323SOL     OW95330   2.667   6.535   3.380  0.2397  0.0646 -0.3460
30323SOL    HW195331   2.693   6.443   3.384 -1.7835 -0.5292  0.6144
30323SOL    HW295332   2.656   6.553   3.287  3.2148  0.2003 -0.7872
30324SOL     OW95333   2.075   4.664   8.367 -0.2852  0.4153  0.3294
30324SOL    HW195334   2.041   4.736   8.419 -1.8221 -0.7671  1.0555
30324SOL    HW295335   2.103   4.599   8.432  1.5605  0.5300 -0.2944
30325SOL     OW95336   6.492   6.118   5.381  0.2954 -0.2405  0.0045
30325SOL    HW195337   6.579   6.096   5.414  0.0040 -0.4519  0.6419
30325SOL    HW295338   6.507   6.148   5.291  0.9232 -1.1464 -0.2013
30326SOL     OW95339   6.319  10.662   3.001  0.2773  0.0648 -0.4914
30326SOL    HW195340   6.342  10.651   2.909  0.9480  1.2748 -0.4985
30326SOL    HW295341   6.224  10.653   3.004  0.0894  1.4285 -1.5526
30327SOL     OW95342   9.893   2.777   8.374 -0.2535 -0.8990 -0.6670
30327SOL    HW195343   9.957   2.828   8.423  2.0615 -1.5366 -2.7920
30327SOL    HW295344   9.915   2.686   8.393 -2.0523 -1.1669  0.3173
30328SOL     OW95345   0.126   4.836   6.944  0.2951  0.1219  0.0300
30328SOL    HW195346   0.054   4.784   6.908  0.1263 -0.2329  0.8739
30328SOL    HW295347   0.122   4.918   6.895 -0.1885 -0.1971 -0.4781
30329SOL     OW95348   6.485  10.721   6.567  0.0266 -0.1343  0.1968
30329SOL    HW195349   6.534  10.711   6.648  0.1706 -1.7714 -0.0468
30329SOL    HW295350   6.549  10.754   6.504  1.0651 -2.6731 -0.2377
30330SOL     OW95351  10.741   1.654   9.443 -0.3888 -0.5258 -0.6198
30330SOL    HW195352  10.710   1.665   9.353 -1.7455  0.1392 -0.0994
30330SOL    HW295353  10.712   1.733   9.488 -1.2635 -1.6048  0.8009
30331SOL     OW95354   1.413   7.216   2.559  0.3041  0.0216  0.4771
30331SOL    HW195355   1.491   7.162   2.569  0.8000  0.0192 -2.4576
30331SOL    HW295356   1.437   7.300   2.600  0.9948 -0.6731  1.5417
30332SOL     OW95357   0.269   5.866  10.743 -0.1204 -0.2008 -0.4506
30332SOL    HW195358   0.224   5.833  10.821  1.3200 -0.2490  0.3814
30332SOL    HW295359   0.345   5.809  10.733 -0.8575 -0.9146 -2.5761
30333SOL     OW95360   9.072   7.358  10.899  0.0790  0.2146  0.1341
30333SOL    HW195361   9.031   7.444  10.897  0.9000  0.6172 -1.7422
30333SOL    HW295362   9.140   7.363  10.832 -0.2833 -2.0998 -0.4840
30334SOL     OW95363  10.253   4.885   4.750  0.4036 -0.0049  0.0852
30334SOL    HW195364  10.187   4.950   4.724  2.9440  2.5089 -0.6206
30334SOL    HW295365  10.259   4.826   4.675  1.3972  1.8961 -1.4307
30335SOL     OW95366   7.216   8.290   2.471  0.9137 -0.2232  0.3349
30335SOL    HW195367   7.202   8.233   2.395  0.9708 -0.5351  0.5572
30335SOL    HW295368   7.263   8.366   2.436 -0.7501  0.5657 -0.3181
30336SOL     OW95369   8.185   1.749   2.558 -0.0518 -0.0655 -0.1041
30336SOL    HW195370   8.222   1.807   2.492 -1.4285 -0.6344 -1.4402
30336SOL    HW295371   8.207   1.661   2.528 -1.0425 -0.3480 -0.0538
30337SOL     OW95372   8.868   5.034   2.440  0.3556 -0.3510 -0.1157
30337SOL    HW195373   8.808   5.101   2.408  3.9383  2.9063 -0.7607
30337SOL    HW295374   8.892   5.063   2.528  1.3471 -1.2850 -0.0497
30338SOL     OW95375   7.381  10.554   8.538 -0.0145  0.3410  0.4446
30338SOL    HW195376   7.353  10.645   8.544  0.2230  0.5252 -0.8909
30338SOL    HW295377   7.405  10.530   8.628 -2.1646  0.8846  1.2353
30339SOL     OW95378   9.205   7.260  10.113  0.5437  0.3947  0.3537
30339SOL    HW195379   9.121   7.270  10.067  1.0720  0.9382 -0.5342
30339SOL    HW295380   9.222   7.347  10.150  1.0596  0.4891 -0.0926
30340SOL     OW95381   4.515   8.683  10.420  0.2154 -0.5285  0.9269
30340SOL    HW195382   4.557   8.686  10.334  0.3215 -1.6116  0.9220
30340SOL    HW295383   4.532   8.769  10.458  0.6592 -0.2355  0.0892
30341SOL     OW95384   7.925   6.725   0.952  0.0039  0.3042  0.3881
30341SOL    HW195385   8.014   6.760   0.960 -0.9173  2.6502  0.9412
30341SOL    HW295386   7.892   6.761   0.870 -0.9425  0.6399  0.9088
30342SOL     OW95387   1.291   0.102   2.052 -0.7304  0.0529  0.4701
30342SOL    HW195388   1.260   0.021   2.010  0.8407 -0.8441  0.9678
30342SOL    HW295389   1.211   0.151   2.070 -1.6292 -0.7180 -1.1646
30343SOL     OW95390   5.552   5.902   4.664 -0.1536 -0.8183 -0.4281
30343SOL    HW195391   5.641   5.868   4.657  0.4224  0.1506  1.6421
30343SOL    HW295392   5.502   5.832   4.706  0.1214 -0.5980  0.2745
30344SOL     OW95393  10.055  10.297   4.008  0.4692  0.2995 -0.0017
30344SOL    HW195394  10.076  10.217   3.961 -0.0965 -0.8510  1.6373
30344SOL    HW295395   9.960  10.306   4.000  0.6980  1.9928 -1.9147
30345SOL     OW95396   7.687   9.911   7.452 -0.0673 -0.2708 -0.3328
30345SOL    HW195397   7.782   9.916   7.468 -0.0116  1.4830 -1.0172
30345SOL    HW295398   7.677   9.942   7.362 -1.2456 -1.1348 -0.5204
30346SOL     OW95399   4.692   8.956   1.950  0.1293  0.6269 -0.2443
30346SOL    HW195400   4.691   8.954   2.046  0.1013  0.1877 -0.2521
30346SOL    HW295401   4.751   9.028   1.928 -0.7200  1.4482  0.0997
30347SOL     OW95402   8.575   1.861   4.697 -0.0138  0.3534 -0.0150
30347SOL    HW195403   8.520   1.785   4.679  0.9528 -0.1837 -0.8107
30347SOL    HW295404   8.605   1.847   4.787 -1.3509  0.7911  0.5243
30348SOL     OW95405   7.755   8.419   8.038 -0.0278  0.2675  0.2560
30348SOL    HW195406   7.685   8.483   8.052 -0.3767  0.0177 -0.3078
30348SOL    HW295407   7.712   8.345   7.997  0.4535 -0.1633  0.5100
30349SOL     OW95408   9.073  10.190   7.142 -0.1150 -0.3879  0.0113
30349SOL    HW195409   9.020  10.231   7.210  0.6404 -0.4216  0.6384
30349SOL    HW295410   9.116  10.262   7.097  0.8019 -0.4389  0.7703
30350SOL     OW95411   7.957   0.156  11.044 -0.3427 -0.1687  0.2161
30350SOL    HW195412   8.048   0.128  11.033  0.2866  1.6162  0.5730
30350SOL    HW295413   7.908   0.102  10.982  1.6592  2.2359 -3.8781
30351SOL     OW95414  10.070   4.510   2.419  0.3426 -0.1402  0.2814
30351SOL    HW195415  10.046   4.571   2.350 -0.8391  0.8252  1.4821
30351SOL    HW295416  10.062   4.423   2.378  0.6112  0.4247 -1.0297
30352SOL     OW95417   8.085   1.764   0.570  0.3479 -0.3860 -0.3050
30352SOL    HW195418   8.020   1.723   0.626 -2.4739  3.7251 -0.1265
30352SOL    HW295419   8.140   1.816   0.629  0.7725 -0.1703 -0.8735
30353SOL     OW95420   4.557   6.639   0.057  0.0584  0.2956  0.3834
30353SOL    HW195421   4.481   6.695   0.075 -0.8502 -0.4467 -1.0008
30353SOL    HW295422   4.520   6.556   0.028  1.3560  0.3957 -1.7736
30354SOL     OW95423   1.074   1.570   7.559  0.6426 -0.4341 -0.1889
30354SOL    HW195424   1.000   1.512   7.573  0.5393 -1.4371 -3.8552
30354SOL    HW295425   1.036   1.658   7.560  0.0100 -0.6989  1.0373
30355SOL     OW95426   8.320   8.676   0.486  0.0434  0.0657  0.2503
30355SOL    HW195427   8.275   8.732   0.423  0.1960 -1.2401 -1.0975
30355SOL    HW295428   8.271   8.686   0.567  0.1479  2.1940  0.1054
30356SOL     OW95429   8.381   6.902   5.380 -0.2396 -0.0413 -0.5512
30356SOL    HW195430   8.421   6.988   5.368  0.7544 -0.4832 -0.4629
30356SOL    HW295431   8.395   6.857   5.296 -0.4617 -0.2394 -0.4847
30357SOL     OW95432   5.458   7.730   9.435 -0.1137  0.2205 -0.0856
30357SOL    HW195433   5.441   7.682   9.354 -1.3792  0.1168  0.2151
30357SOL    HW295434   5.495   7.665   9.494  0.1746  0.1334 -0.3586
30358SOL     OW95435   0.048   2.194   4.870 -0.0400  0.3102 -0.2147
30358SOL    HW195436  -0.021   2.239   4.919 -1.2789  0.2473 -1.8095
30358SOL    HW295437   0.127   2.247   4.886 -1.1843  2.3973 -1.0549
30359SOL     OW95438   4.539   3.601   5.944 -0.0912 -0.1055  0.7176
30359SOL    HW195439   4.526   3.550   5.865  0.3550  0.2998  0.3808
30359SOL    HW295440   4.505   3.546   6.015 -2.0410  0.1798  0.0798
30360SOL     OW95441   3.814   5.210  10.091  0.1308 -0.2878 -0.1396
30360SOL    HW195442   3.842   5.255  10.171 -2.6062 -1.3913  1.5559
30360SOL    HW295443   3.775   5.279  10.037  1.0647  0.2916 -0.0941
30361SOL     OW95444  10.682   1.522   7.112  0.0132 -0.2234  0.1160
30361SOL    HW195445  10.636   1.469   7.177  0.4042  0.9627  1.4156
30361SOL    HW295446  10.612   1.569   7.066 -0.1993  0.0360  0.6935
30362SOL     OW95447   7.673   2.786   6.229  0.0780 -0.7709  0.7456
30362SOL    HW195448   7.647   2.790   6.137  0.6342 -0.4983  0.5946
30362SOL    HW295449   7.604   2.734   6.271 -0.9465  0.2910  0.4430
30363SOL     OW95450   0.400   8.191   6.150  0.5225  0.1764  0.3469
30363SOL    HW195451   0.418   8.202   6.057  0.1659  0.3410  0.2980
30363SOL    HW295452   0.398   8.096   6.163 -1.5938  0.0931 -0.2464
30364SOL     OW95453   0.841   1.530   0.782 -0.0523 -0.2533 -0.4661
30364SOL    HW195454   0.769   1.590   0.801  0.6496  0.6264 -0.4996
30364SOL    HW295455   0.831   1.460   0.846 -0.1032  0.6020  0.4971
30365SOL     OW95456   9.828   9.694   0.660 -0.3690 -0.1459  0.1175
30365SOL    HW195457   9.889   9.760   0.690  1.1732 -1.3335 -0.2449
30365SOL    HW295458   9.854   9.676   0.570 -2.3872  0.5369 -0.6679
30366SOL     OW95459   0.658   6.260   4.413  0.3648  0.3403 -0.1958
30366SOL    HW195460   0.746   6.242   4.447  0.1548  1.7281  1.1773
30366SOL    HW295461   0.654   6.356   4.407 -0.6676  0.2422 -1.3253
30367SOL     OW95462   7.078   2.746   7.270  0.3020  0.0380  0.0329
30367SOL    HW195463   7.169   2.771   7.284  0.6893 -0.6087 -1.1688
30367SOL    HW295464   7.046   2.810   7.206  0.5993 -1.0648 -1.2576
30368SOL     OW95465   6.394   0.269   7.994 -0.1448  0.0335  0.1201
30368SOL    HW195466   6.450   0.324   8.049  2.4736 -0.3937 -1.9390
30368SOL    HW295467   6.407   0.180   8.027 -2.0025  0.2083  1.4918
30369SOL     OW95468   6.473   3.617   0.478  0.2990 -0.2491 -0.7951
30369SOL    HW195469   6.518   3.550   0.426  0.7613  1.2275 -2.3841
30369SOL    HW295470   6.381   3.606   0.456  0.3785 -0.3089 -1.1041
30370SOL     OW95471   3.688   3.359   9.131  0.5717  0.1622 -0.3161
30370SOL    HW195472   3.745   3.378   9.056  0.0472  2.3158 -0.2407
30370SOL    HW295473   3.662   3.445   9.163 -0.1891 -0.7331  1.6170
30371SOL     OW95474   5.555   4.564   5.040 -0.4375 -0.0177  0.3367
30371SOL    HW195475   5.520   4.475   5.046  0.0333 -0.1727  0.8264
30371SOL    HW295476   5.536   4.591   4.950  0.1029 -0.9062 -0.0548
30372SOL     OW95477   9.411   5.220   3.462  0.5929 -0.3078 -0.3119
30372SOL    HW195478   9.406   5.172   3.545 -0.4454 -0.2954 -0.3553
30372SOL    HW295479   9.331   5.196   3.416  0.8616  0.1839 -1.0432
30373SOL     OW95480   7.516   8.773   1.844  0.2628  0.4004  0.0734
30373SOL    HW195481   7.486   8.780   1.754 -0.5850 -0.8604  0.2388
30373SOL    HW295482   7.612   8.766   1.837  0.1177 -0.9172 -0.8147
30374SOL     OW95483   2.184   5.815   2.135  0.5990  0.0114  0.7531
30374SOL    HW195484   2.144   5.846   2.216  0.0485  0.3697  0.3553
30374SOL    HW295485   2.278   5.822   2.150  0.4946  0.6115  1.1551
30375SOL     OW95486   6.998   2.273   7.445  0.0883 -0.2929 -0.0972
30375SOL    HW195487   6.903   2.279   7.450  0.2466  3.9230  3.4390
30375SOL    HW295488   7.024   2.347   7.391  1.3592  0.2219  1.1587
30376SOL     OW95489   6.402   4.589   3.666 -0.2735 -0.1221 -0.4880
30376SOL    HW195490   6.398   4.626   3.754 -1.4194  0.3558 -0.7094
30376SOL    HW295491   6.486   4.619   3.631  0.3238 -0.5623  0.5311
30377SOL     OW95492   4.157   1.415   2.927 -0.0589  0.0836 -0.1360
30377SOL    HW195493   4.126   1.384   2.843  0.8150  0.0643 -0.4612
30377SOL    HW295494   4.220   1.349   2.955 -0.6173 -0.1059  0.7161
30378SOL     OW95495   7.329   9.401   7.224 -0.1432 -0.4567 -0.0227
30378SOL    HW195496   7.251   9.347   7.209 -0.3039  0.1361 -1.4688
30378SOL    HW295497   7.370   9.362   7.301 -1.5294 -1.1639  0.3995
30379SOL     OW95498   9.405   0.012   1.635 -0.0606 -0.1511  0.0677
30379SOL    HW195499   9.331  -0.022   1.685  1.0749 -1.9991  0.5812
30379SOL    HW295500   9.372   0.017   1.545 -1.2841  0.6332  0.5311
30380SOL     OW95501   3.451   3.946   8.574 -0.3074 -0.6794 -0.5318
30380SOL    HW195502   3.407   3.861   8.577  1.0859 -1.6965 -3.8207
30380SOL    HW295503   3.381   4.010   8.580 -1.7881 -2.1489 -1.3980
30381SOL     OW95504   9.073  10.650   0.234  0.3751 -0.4126  0.3586
30381SOL    HW195505   9.100  10.559   0.229 -0.0629 -0.5530  0.4696
30381SOL    HW295506   9.135  10.690   0.295 -0.4523 -1.0318  1.6574
30382SOL     OW95507   1.225   4.346   9.260 -0.2815  0.8489  0.2322
30382SOL    HW195508   1.138   4.376   9.235  0.2220  0.9600 -1.4575
30382SOL    HW295509   1.232   4.258   9.222  0.1259  0.5933  0.8773
30383SOL     OW95510  10.257   0.022  10.697 -0.5705 -0.3673  0.2761
30383SOL    HW195511  10.162   0.012  10.694 -0.6258 -0.1821  1.2310
30383SOL    HW295512  10.272   0.116  10.706 -0.2967 -0.4067  0.2550
30384SOL     OW95513   2.626   5.122   7.724 -0.2220  0.0075  0.3734
30384SOL    HW195514   2.601   5.200   7.773 -1.5280  0.2964 -0.6843
30384SOL    HW295515   2.614   5.147   7.632  3.1882 -0.1525 -0.2370
30385SOL     OW95516   2.300   8.276   6.706  0.7199 -0.6370 -0.3567
30385SOL    HW195517   2.373   8.236   6.659 -0.7431 -0.6279 -2.8324
30385SOL    HW295518   2.308   8.369   6.688 -0.3783 -0.7251 -1.5282
30386SOL     OW95519   1.362  10.201   8.873  0.2193 -0.2130  0.3212
30386SOL    HW195520   1.453  10.171   8.866 -0.0932 -0.9704 -0.8208
30386SOL    HW295521   1.361  10.255   8.952  2.3128  2.0788 -1.0558
30387SOL     OW95522   8.404   7.718   5.284 -0.0229 -0.7072  0.3646
30387SOL    HW195523   8.427   7.805   5.317 -0.1954 -0.0460 -1.1706
30387SOL    HW295524   8.327   7.733   5.230  0.0095 -1.8006 -0.0046
30388SOL     OW95525   0.067   6.937   9.773  0.3486  0.9007 -0.2888
30388SOL    HW195526   0.004   6.952   9.843  1.2803  0.1295  0.7423
30388SOL    HW295527   0.067   6.842   9.761  1.9547  0.7865  0.3618
30389SOL     OW95528   0.773   8.082   3.684 -0.2722 -0.0378 -0.2727
30389SOL    HW195529   0.785   7.991   3.711 -3.6576 -0.0969  1.6631
30389SOL    HW295530   0.730   8.077   3.599 -2.7479 -0.5092  0.8875
30390SOL     OW95531   5.208   4.706   0.821 -0.0079 -0.0799  0.4865
30390SOL    HW195532   5.227   4.768   0.750 -2.4179  0.0244 -0.1623
30390SOL    HW295533   5.262   4.630   0.801  0.6319  0.6077 -0.5076
30391SOL     OW95534   7.660   1.590   2.806 -0.2315 -0.3624  0.2789
30391SOL    HW195535   7.746   1.590   2.849 -0.1382  2.1399  0.1978
30391SOL    HW295536   7.679   1.608   2.714 -0.9128  2.4629  0.6180
30392SOL     OW95537   9.889  10.648   1.077  0.7890 -0.3918  0.3886
30392SOL    HW195538   9.926  10.651   0.989  0.7284  1.3026  0.3736
30392SOL    HW295539   9.797  10.630   1.063  0.4613  1.3889 -0.0626
30393SOL     OW95540   3.242   4.052   2.774 -0.5153  0.1355  0.1506
30393SOL    HW195541   3.182   4.022   2.843  2.3263 -1.3864  2.1304
30393SOL    HW295542   3.201   4.132   2.742 -1.7616  1.3392  4.0678
30394SOL     OW95543   2.326  10.529   5.034 -0.2626 -0.3924 -0.1642
30394SOL    HW195544   2.291  10.474   4.964 -3.7974  0.2254  0.8914
30394SOL    HW295545   2.273  10.609   5.030 -0.0703 -0.0121  2.7032
30395SOL     OW95546   3.195   5.022   7.948  0.1822 -0.0170 -0.0661
30395SOL    HW195547   3.261   4.990   7.887 -0.4387 -1.7496  0.1136
30395SOL    HW295548   3.127   4.955   7.947  1.0051 -1.1728  3.9131
30396SOL     OW95549   9.186   7.305   9.147  0.3134  0.4216 -0.6802
30396SOL    HW195550   9.208   7.398   9.148 -0.6502  0.7300  2.3110
30396SOL    HW295551   9.108   7.298   9.092 -1.0118  1.8280  0.9381
30397SOL     OW95552   6.702   0.550   0.944  0.1890 -0.3977  0.1597
30397SOL    HW195553   6.686   0.639   0.976 -2.4661 -0.0760 -1.7038
30397SOL    HW295554   6.714   0.498   1.024 -1.0065  1.1896  1.4499
30398SOL     OW95555   3.637   1.995   7.802 -0.0709 -0.1046 -0.2134
30398SOL    HW195556   3.667   2.076   7.762  0.6300 -0.3314 -0.1654
30398SOL    HW295557   3.654   2.006   7.895 -0.1456 -0.2340 -0.1831
30399SOL     OW95558   0.818   1.259   4.026  0.0234 -0.4536 -0.7501
30399SOL    HW195559   0.736   1.229   3.989 -0.2159 -0.3885 -0.2819
30399SOL    HW295560   0.852   1.322   3.961 -1.6001  1.5537  0.2102
30400SOL     OW95561  10.173   2.509   4.382  0.2155 -0.7358 -0.3957
30400SOL    HW195562  10.239   2.473   4.441  1.1793  0.2366 -0.8464
30400SOL    HW295563  10.184   2.459   4.301 -2.7044 -3.7619  0.8401
30401SOL     OW95564   9.569   6.827   8.741 -0.2559 -0.0152 -0.0957
30401SOL    HW195565   9.565   6.762   8.670  2.4350  0.5506 -0.8727
30401SOL    HW295566   9.588   6.910   8.696  0.5937  0.5168  1.1897
30402SOL     OW95567   8.977   6.462   5.940  0.1533 -0.4281  0.2908
30402SOL    HW195568   8.891   6.446   5.980  0.0575 -0.5139  0.0525
30402SOL    HW295569   9.008   6.376   5.914 -0.2508 -0.2617 -0.7691
30403SOL     OW95570   9.288   5.331   8.547 -0.1456  0.1343  0.0286
30403SOL    HW195571   9.234   5.399   8.588 -1.1647 -0.5815 -0.0751
30403SOL    HW295572   9.261   5.331   8.455  0.4816  0.1822 -0.1587
30404SOL     OW95573   3.790   5.103   0.712 -0.2577  0.4714  0.3134
30404SOL    HW195574   3.730   5.157   0.762 -0.5180  0.0853  0.4219
30404SOL    HW295575   3.874   5.147   0.719 -0.5025  0.9554  0.2543
30405SOL     OW95576   8.616   7.587   4.027  0.4254 -0.1799  0.1117
30405SOL    HW195577   8.560   7.647   3.978  0.6515  0.0668  0.1506
30405SOL    HW295578   8.583   7.500   4.005  1.1903 -0.1387 -1.3235
30406SOL     OW95579   5.859   9.423  10.807  0.4105 -0.1671  0.5792
30406SOL    HW195580   5.766   9.442  10.794  0.5479 -0.9560 -1.9202
30406SOL    HW295581   5.865   9.402  10.901 -1.9092 -0.0887  0.8189
30407SOL     OW95582   2.937   9.445   6.236  0.1078  0.1510  0.0611
30407SOL    HW195583   2.946   9.353   6.258  0.3092  0.3771  0.9839
30407SOL    HW295584   2.864   9.476   6.290 -0.4055  0.3727 -0.7526
30408SOL     OW95585   6.708   7.037   9.228 -0.1347  0.5150  0.1090
30408SOL    HW195586   6.666   7.114   9.192 -1.7413 -0.4900 -0.2711
30408SOL    HW295587   6.692   6.968   9.164 -0.9166 -0.7168  1.5453
30409SOL     OW95588   0.603   0.039  10.654  0.2446 -0.0309  0.4277
30409SOL    HW195589   0.625   0.022  10.746  3.0197  2.6076  0.4057
30409SOL    HW295590   0.656  -0.023  10.604  0.5755  0.1419  0.5631
30410SOL     OW95591   0.667   2.265   3.032  0.0192 -0.0889 -0.0070
30410SOL    HW195592   0.747   2.272   2.981  0.2371 -0.9614  0.1947
30410SOL    HW295593   0.667   2.175   3.065  0.0327  0.5212  1.7681
30411SOL     OW95594   8.309   3.149   7.773  0.3554 -0.2681 -0.3004
30411SOL    HW195595   8.313   3.093   7.695 -0.2699 -0.3260 -0.2973
30411SOL    HW295596   8.337   3.235   7.742 -1.1853  0.0397 -0.9211
30412SOL     OW95597   3.248  10.767   4.648  0.3834  0.2353 -0.4052
30412SOL    HW195598   3.236  10.747   4.556 -0.8510 -0.9239 -0.0218
30412SOL    HW295599   3.245  10.682   4.692 -5.3469  0.9360  1.3430
30413SOL     OW95600   1.080   9.277   6.163 -0.0482  0.2347  0.2204
30413SOL    HW195601   1.112   9.304   6.077  0.1558 -0.4423  0.0744
30413SOL    HW295602   0.985   9.280   6.157 -0.0871 -1.3916 -0.5768
30414SOL     OW95603   5.767   9.402   7.936  0.1131  0.3285  0.5726
30414SOL    HW195604   5.693   9.400   7.996 -0.4500 -1.9111 -0.0844
30414SOL    HW295605   5.728   9.403   7.849  0.8600  0.0247  0.2255
30415SOL     OW95606   0.290  10.085   2.228  0.4233 -0.0625  0.2460
30415SOL    HW195607   0.290  10.043   2.142  0.5131 -0.6841  0.5437
30415SOL    HW295608   0.318  10.016   2.289 -2.1060 -0.3988  1.1391
30416SOL     OW95609   7.827   8.253   5.433  0.6205 -0.4437 -0.5960
30416SOL    HW195610   7.891   8.186   5.413  2.9432  1.9079 -1.6118
30416SOL    HW295611   7.844   8.277   5.524  0.7479 -0.2622 -0.6673
30417SOL     OW95612   9.310   2.169   8.916  0.0267 -0.3396 -0.4695
30417SOL    HW195613   9.339   2.097   8.971 -0.9387 -1.4092 -1.3092
30417SOL    HW295614   9.385   2.188   8.860  1.0585  0.8374  1.2170
30418SOL     OW95615   2.014   7.814  10.935  0.2124  0.4778 -0.3607
30418SOL    HW195616   2.095   7.810  10.885  1.1956  0.9400  1.1176
30418SOL    HW295617   1.994   7.908  10.940  0.0404  0.4272 -0.0588
30419SOL     OW95618   5.688   3.230   0.335 -0.2088 -0.2379 -0.0717
30419SOL    HW195619   5.618   3.206   0.397 -1.9710 -1.1544 -2.2628
30419SOL    HW295620   5.673   3.322   0.315 -1.2036 -0.5722 -0.9581
30420SOL     OW95621   4.583   3.873   2.020  0.1554 -0.1365 -0.3047
30420SOL    HW195622   4.614   3.894   1.932  0.0321 -1.2936 -0.6402
30420SOL    HW295623   4.604   3.780   2.031  1.0231  0.2032  1.2497
30421SOL     OW95624   3.398   3.776   4.530  0.0535 -0.3782  0.0864
30421SOL    HW195625   3.470   3.713   4.524 -2.4307 -3.4067 -0.9200
30421SOL    HW295626   3.371   3.773   4.622  1.1603  0.7940  0.4742
30422SOL     OW95627   2.826  10.120   7.915  0.1765  0.2934 -0.1280
30422SOL    HW195628   2.859  10.196   7.962 -0.7612  0.1019  0.8876
30422SOL    HW295629   2.785  10.155   7.836  3.2696  0.4912 -1.7643
30423SOL     OW95630  10.178   3.547   9.247 -0.1710  0.0683 -0.4140
30423SOL    HW195631  10.114   3.605   9.205 -0.9294 -0.2983  0.2121
30423SOL    HW295632  10.140   3.526   9.332  0.3974 -0.8277 -0.3618
30424SOL     OW95633   5.053   3.586   5.403  0.0052 -0.1567  0.1610
30424SOL    HW195634   5.020   3.664   5.448 -1.5670 -0.2199 -0.7779
30424SOL    HW295635   5.091   3.620   5.322  0.2501 -0.2843  0.2214
30425SOL     OW95636   9.839   4.632  10.010 -0.0767 -0.1604 -0.1668
30425SOL    HW195637   9.857   4.724   9.991  0.9720 -0.3745 -0.2570
30425SOL    HW295638   9.873   4.618  10.098 -1.0981 -0.2301  0.2229
30426SOL     OW95639   7.491   9.436   8.250  0.1446  0.1909  0.5745
30426SOL    HW195640   7.447   9.350   8.246 -1.4025  0.9952 -1.5515
30426SOL    HW295641   7.521   9.443   8.341 -2.0152 -1.4915  1.5201
30427SOL     OW95642   7.788   7.430   4.510  0.1670 -0.1606  0.9013
30427SOL    HW195643   7.712   7.374   4.495 -0.2654  0.4898  0.6137
30427SOL    HW295644   7.818   7.455   4.423 -0.9543  1.7639  1.0032
30428SOL     OW95645  10.173   4.835   7.285  0.8068 -0.1798 -0.0063
30428SOL    HW195646  10.109   4.787   7.233 -0.5299  0.4642  0.9926
30428SOL    HW295647  10.245   4.772   7.298  0.0446 -1.1841 -0.5092
30429SOL     OW95648   2.632   9.625   8.497  0.4931 -0.2268 -0.5979
30429SOL    HW195649   2.712   9.577   8.522  0.1735 -0.4016  0.1128
30429SOL    HW295650   2.664   9.702   8.450  1.0127 -1.1944 -1.8898
30430SOL     OW95651   2.910  10.395   2.055 -0.0905 -0.2185  0.2045
30430SOL    HW195652   2.936  10.306   2.076 -1.7314 -0.7427  0.1456
30430SOL    HW295653   2.833  10.385   1.999 -0.4422  1.2335  0.3929
30431SOL     OW95654   9.139   3.415   3.103 -0.4384  0.0012 -0.0183
30431SOL    HW195655   9.063   3.360   3.125  0.0953 -0.7752 -0.0887
30431SOL    HW295656   9.100   3.495   3.068 -1.2643 -1.1729 -2.0332
30432SOL     OW95657   1.909   1.262   5.756 -0.2841  0.9826  0.2025
30432SOL    HW195658   1.967   1.186   5.754 -1.1197  0.3416 -1.3336
30432SOL    HW295659   1.962   1.331   5.796  1.7773  0.5744 -1.6264
30433SOL     OW95660   7.492   1.319   2.813 -0.1316 -0.6094 -0.2458
30433SOL    HW195661   7.522   1.293   2.900  1.2650  1.0353 -0.1708
30433SOL    HW295662   7.541   1.399   2.794 -2.3691  0.5698 -1.4441
30434SOL     OW95663   4.513  10.174   7.730 -0.0350  0.1422  0.0540
30434SOL    HW195664   4.468  10.124   7.662 -0.1284  0.1560  0.1051
30434SOL    HW295665   4.448  10.183   7.800  1.0049 -2.5904  1.5376
30435SOL     OW95666   1.350   4.027   8.126  0.2269 -0.6779  0.1571
30435SOL    HW195667   1.268   3.993   8.161  0.5033 -3.1286 -1.3589
30435SOL    HW295668   1.323   4.102   8.072 -1.0579 -1.5137 -0.4093
30436SOL     OW95669   5.186   0.202   4.947 -0.2004 -0.4384  0.1515
30436SOL    HW195670   5.147   0.141   5.010  1.3350 -0.2725  1.3255
30436SOL    HW295671   5.280   0.197   4.964 -0.0365  3.2331  1.2691
30437SOL     OW95672   6.736  11.072   0.632 -0.2355  0.3493 -0.3010
30437SOL    HW195673   6.796  11.094   0.560 -1.6345 -2.6652 -2.6205
30437SOL    HW295674   6.788  11.017   0.690 -0.2548 -1.0594 -1.5472
30438SOL     OW95675  10.995   1.662   4.800 -0.1785 -0.3797 -0.4473
30438SOL    HW195676  10.992   1.567   4.802 -0.4951 -0.3740 -0.4881
30438SOL    HW295677  10.974   1.689   4.889  2.9576 -0.3794  0.4149
30439SOL     OW95678   3.673   3.473   9.585 -0.3382 -0.5506  0.5208
30439SOL    HW195679   3.663   3.567   9.601 -3.8836 -0.7783  0.5933
30439SOL    HW295680   3.722   3.467   9.503 -0.2752  1.3685  0.3835
30440SOL     OW95681   5.259   6.300   7.710 -0.1234 -0.4668 -0.2715
30440SOL    HW195682   5.276   6.381   7.661  0.0908 -1.9442 -2.7543
30440SOL    HW295683   5.170   6.275   7.685 -0.7279 -0.3536  1.5662
30441SOL     OW95684   8.304   6.637   8.491  0.4187  0.6236 -0.1248
30441SOL    HW195685   8.255   6.645   8.409 -0.6152 -0.8211  0.3186
30441SOL    HW295686   8.391   6.605   8.464 -0.4324 -1.4547 -0.5695
30442SOL     OW95687   2.618  10.115   4.836  0.2488 -1.0567  0.4563
30442SOL    HW195688   2.660  10.192   4.799  1.3167 -0.8117  2.1136
30442SOL    HW295689   2.536  10.107   4.787  1.5015 -0.7077 -1.8608
30443SOL     OW95690   6.202   5.244   1.481  0.0838 -0.1627 -0.3515
30443SOL    HW195691   6.114   5.255   1.445  0.2029  2.7241  0.0369
30443SOL    HW295692   6.189   5.189   1.558 -1.0276 -1.4443 -1.3788
30444SOL     OW95693   0.111   0.847   7.154 -0.1204 -0.1322  0.0891
30444SOL    HW195694   0.033   0.901   7.165 -0.0747 -0.1962  0.7428
30444SOL    HW295695   0.109   0.785   7.226  1.7697  1.4001  1.5903
30445SOL     OW95696  10.650  11.012   9.766 -0.2238 -0.4128  0.2281
30445SOL    HW195697  10.649  10.933   9.712 -0.6432  0.1297 -0.5687
30445SOL    HW295698  10.699  11.077   9.714 -0.2560 -0.0143  0.6868
30446SOL     OW95699   2.420   1.836   4.844 -0.1398 -0.6016 -0.5924
30446SOL    HW195700   2.441   1.756   4.894  2.8468 -0.0480 -0.7451
30446SOL    HW295701   2.425   1.906   4.909 -1.1031 -0.3529 -0.7787
30447SOL     OW95702   6.082   1.649   8.591  0.6664 -0.0184 -0.2571
30447SOL    HW195703   6.147   1.702   8.637 -0.9263  3.9453 -2.0914
30447SOL    HW295704   6.114   1.645   8.501 -0.0463 -0.9267 -0.4880
30448SOL     OW95705  11.093   7.370   9.045  0.1611 -0.0295 -0.7688
30448SOL    HW195706  11.002   7.351   9.023  0.0133  0.8552 -0.9715
30448SOL    HW295707  11.099   7.354   9.139 -0.3961  0.6205 -0.6150
30449SOL     OW95708   3.828  10.453   9.326  0.1518  0.3915  0.3866
30449SOL    HW195709   3.845  10.403   9.246  2.2880 -0.6543  1.4102
30449SOL    HW295710   3.915  10.479   9.357 -0.4939 -0.3054  3.0261
30450SOL     OW95711   2.456   9.717  11.009  0.2955 -0.4078  0.0910
30450SOL    HW195712   2.385   9.753  10.955 -0.1125 -1.9266 -0.4376
30450SOL    HW295713   2.533   9.769  10.985 -0.4049  0.5629 -0.1186
30451SOL     OW95714   2.153   1.180   5.959  0.5006  0.7248  0.3230
30451SOL    HW195715   2.106   1.262   5.974  2.1351  1.2252  3.8504
30451SOL    HW295716   2.235   1.207   5.916  0.7896  0.9010  0.9700
30452SOL     OW95717   4.833   5.681   7.107  0.2988  0.0921 -0.1795
30452SOL    HW195718   4.831   5.601   7.161 -0.0031 -0.6093 -1.2010
30452SOL    HW295719   4.923   5.713   7.115  0.9862 -1.4421 -1.2879
30453SOL     OW95720   2.053  10.968   4.043 -0.1124  0.4007  0.6380
30453SOL    HW195721   2.046  10.912   4.120 -0.2283 -0.1630  0.2262
30453SOL    HW295722   1.968  10.958   3.998  1.2956 -2.4952 -1.7105
30454SOL     OW95723   0.343   5.831   8.563 -0.1114  0.0606 -1.1786
30454SOL    HW195724   0.437   5.827   8.545 -0.0164  1.6771 -1.1901
30454SOL    HW295725   0.303   5.853   8.478 -0.4393 -0.0082 -1.0435
30455SOL     OW95726   0.097   0.274   2.650  0.5005 -0.8729  0.0389
30455SOL    HW195727   0.168   0.319   2.606  0.9331 -1.7716 -0.2008
30455SOL    HW295728   0.125   0.269   2.742 -0.1310  0.4653  0.3266
30456SOL     OW95729   7.692   3.598   3.612 -0.1873 -0.4714  0.1912
30456SOL    HW195730   7.736   3.575   3.694 -0.2824  0.5843  0.5478
30456SOL    HW295731   7.600   3.580   3.628 -0.3757  0.9143  0.7637
30457SOL     OW95732   4.669   2.641   9.101  0.5496 -0.4648 -0.4059
30457SOL    HW195733   4.595   2.589   9.069 -0.2000  1.4564 -2.0074
30457SOL    HW295734   4.655   2.649   9.195 -0.9068 -0.7064 -0.5884
30458SOL     OW95735   5.112   5.736   7.457 -0.0130  0.2411  0.0509
30458SOL    HW195736   5.113   5.782   7.373 -0.6451 -0.7041 -0.4942
30458SOL    HW295737   5.033   5.767   7.500 -1.7373 -1.9565 -1.3026
30459SOL     OW95738  10.884   2.891  10.937 -0.5470 -0.4047 -0.4088
30459SOL    HW195739  10.927   2.977  10.935 -2.5446  0.6772  0.2389
30459SOL    HW295740  10.894   2.861  11.027  0.5310 -1.0824 -0.7417
30460SOL     OW95741   0.982   6.373   7.549 -0.0527  0.2385 -0.7073
30460SOL    HW195742   0.959   6.436   7.480 -0.9776  0.6204 -0.0718
30460SOL    HW295743   0.898   6.345   7.584  0.3490  2.1130  2.0801
30461SOL     OW95744   0.249   7.164   0.810  0.0622  0.5039 -0.5924
30461SOL    HW195745   0.291   7.083   0.780 -1.3613  0.3213 -2.3085
30461SOL    HW295746   0.213   7.203   0.730 -1.4356  1.5342  0.5214
30462SOL     OW95747   2.265   9.346   3.186  0.2065 -0.1061 -0.6028
30462SOL    HW195748   2.209   9.397   3.129 -0.0769  1.8157  1.2727
30462SOL    HW295749   2.354   9.369   3.160  0.0994  1.9936  0.6308
30463SOL     OW95750   8.235  10.562   6.304 -0.7618 -0.2408  0.0110
30463SOL    HW195751   8.141  10.574   6.287 -0.2148  1.4457 -2.1384
30463SOL    HW295752   8.242  10.571   6.399 -2.8660 -1.3452  0.3468
30464SOL     OW95753   3.168   4.938   0.695  0.2646  0.0237  0.3043
30464SOL    HW195754   3.207   5.025   0.693  1.7619 -0.6167  0.2924
30464SOL    HW295755   3.206   4.897   0.773 -0.1417 -0.7431  0.1056
30465SOL     OW95756   5.981   6.458   5.725 -0.1358  0.2309  0.8095
30465SOL    HW195757   5.984   6.553   5.722  1.7115  0.1705  0.1008
30465SOL    HW295758   6.042   6.429   5.658 -3.1288 -1.5219 -1.4095
30466SOL     OW95759   3.906   3.390   6.766  0.1228  0.3533  0.4084
30466SOL    HW195760   3.973   3.375   6.833 -1.3395 -1.8174  1.4865
30466SOL    HW295761   3.902   3.308   6.717  0.0536  1.3679 -1.3867
30467SOL     OW95762   1.766   2.283   4.663 -0.5538  0.1338  0.0930
30467SOL    HW195763   1.839   2.330   4.702 -0.3240  0.7351 -1.0429
30467SOL    HW295764   1.782   2.191   4.686  0.9355  0.1692 -0.7369
30468SOL     OW95765   0.029   0.666   6.965  0.1331 -0.4169  0.5423
30468SOL    HW195766   0.057   0.728   7.032 -0.2496  0.2971  0.0564
30468SOL    HW295767  -0.063   0.647   6.987  0.0397 -0.2654  0.2934
30469SOL     OW95768   1.047  10.080   6.706 -0.1469 -0.3121 -0.5174
30469SOL    HW195769   1.081  10.044   6.788 -0.5793 -1.0318 -0.6520
30469SOL    HW295770   0.956  10.102   6.725 -0.4830 -1.2311 -1.0328
30470SOL     OW95771   2.215   6.592   5.587 -0.4275 -0.2200 -0.2965
30470SOL    HW195772   2.198   6.552   5.672 -0.7644 -0.8013 -0.6312
30470SOL    HW295773   2.306   6.569   5.567 -0.3938 -0.2072 -0.1581
30471SOL     OW95774   1.324   3.559   0.492  0.5621 -0.7178 -0.2817
30471SOL    HW195775   1.307   3.653   0.490 -0.3370 -0.8690 -0.2657
30471SOL    HW295776   1.416   3.550   0.468  0.9409  0.2283  0.7508
30472SOL     OW95777   4.463   5.265   6.040  0.3098 -0.1630 -0.4826
30472SOL    HW195778   4.438   5.175   6.065  0.4033 -0.0893 -0.1136
30472SOL    HW295779   4.493   5.304   6.122  0.8508  0.0166 -0.7649
30473SOL     OW95780   1.354   1.980   2.138  0.3641 -0.4994  0.3862
30473SOL    HW195781   1.338   2.009   2.048  2.2290 -0.3038  0.0773
30473SOL    HW295782   1.314   1.894   2.143 -0.5899 -0.1096 -0.3365
30474SOL     OW95783   6.655   4.479   1.853 -0.5703  0.2689 -0.0212
30474SOL    HW195784   6.682   4.429   1.776 -2.8546 -2.3059  0.6863
30474SOL    HW295785   6.579   4.530   1.824 -1.7770 -1.1258  0.5818
30475SOL     OW95786  10.671   4.769   6.021  0.2469 -0.4115  0.7847
30475SOL    HW195787  10.577   4.757   6.010  0.3226 -0.1950 -0.1662
30475SOL    HW295788  10.703   4.797   5.935  1.1171 -0.0683  1.1982
30476SOL     OW95789   1.526   8.828   1.002  0.1555  0.0569 -0.0452
30476SOL    HW195790   1.450   8.829   1.060  0.1664  1.3599 -0.0203
30476SOL    HW295791   1.594   8.875   1.050  1.2779 -1.8251  0.2816
30477SOL     OW95792  10.690   0.501   4.475 -0.2394  0.2931 -0.3753
30477SOL    HW195793  10.722   0.578   4.521  1.0555 -0.1775 -0.4445
30477SOL    HW295794  10.769   0.455   4.447 -0.9855 -0.8600 -0.6700
30478SOL     OW95795   1.998   0.804   2.464  0.5873 -0.2416 -0.4453
30478SOL    HW195796   2.054   0.860   2.410  2.1473 -1.6731 -0.4320
30478SOL    HW295797   2.004   0.718   2.422 -1.1883 -0.5673 -0.0889
30479SOL     OW95798   0.167   1.909   3.164  0.1867  0.0877 -0.4455
30479SOL    HW195799   0.260   1.934   3.167  0.1661  0.3619  3.4780
30479SOL    HW295800   0.156   1.867   3.079  4.3600 -1.4431 -0.4688
30480SOL     OW95801   0.480   6.950   5.652 -0.4391  0.5988  0.4912
30480SOL    HW195802   0.522   6.920   5.733 -0.0043  1.7677  0.7263
30480SOL    HW295803   0.552   6.959   5.590 -0.8284 -0.7147 -0.1895
30481SOL     OW95804   7.956   1.706   9.706  0.2812  0.3539 -0.1723
30481SOL    HW195805   7.925   1.797   9.710  0.1337  0.5629 -3.4080
30481SOL    HW295806   7.887   1.659   9.660  0.7831 -1.2026  0.6136
30482SOL     OW95807   3.915   1.101  10.661  0.4353  0.3899 -0.6190
30482SOL    HW195808   3.913   1.089  10.566 -0.4002  0.8414 -0.6687
30482SOL    HW295809   3.829   1.072  10.690  0.7403  0.1196  0.0214
30483SOL     OW95810   8.464   6.461   8.820  0.3184  0.3464  1.3608
30483SOL    HW195811   8.401   6.392   8.840  0.8158 -0.4371  0.3172
30483SOL    HW295812   8.412   6.541   8.816 -1.4410 -0.7429 -3.2522
30484SOL     OW95813   8.074   8.964   5.396 -0.1208 -0.2265  0.0055
30484SOL    HW195814   8.144   8.902   5.375 -0.5667 -0.1121 -2.0326
30484SOL    HW295815   8.102   9.005   5.478  1.9326 -0.5547 -0.4762
30485SOL     OW95816  10.123  10.369   2.948  0.0447  0.2641  0.6719
30485SOL    HW195817  10.113  10.441   2.885  1.3553 -0.5203 -0.5013
30485SOL    HW295818  10.133  10.413   3.033  0.0948  1.4439  0.0804
30486SOL     OW95819   8.357   2.500   1.405  0.4984 -0.2576  0.3165
30486SOL    HW195820   8.428   2.502   1.341 -0.4727 -0.1004 -0.7974
30486SOL    HW295821   8.285   2.547   1.363 -0.3527 -0.6173  1.3080
30487SOL     OW95822   8.001   3.427   3.577 -0.0428 -0.1290 -0.1258
30487SOL    HW195823   7.919   3.377   3.569 -1.3977  1.9584  0.1757
30487SOL    HW295824   8.068   3.359   3.589 -1.9450 -1.8447  1.7369
30488SOL     OW95825   4.368  10.076   6.018 -0.0464 -0.8007  0.4819
30488SOL    HW195826   4.325  10.089   6.103 -2.6372  0.3120 -0.8679
30488SOL    HW295827   4.450  10.031   6.039 -0.7508 -0.9026  3.5116
30489SOL     OW95828   6.603   5.744   5.105 -0.3006 -0.2015  0.4782
30489SOL    HW195829   6.657   5.665   5.110  0.2373  0.1757  0.7280
30489SOL    HW295830   6.551   5.732   5.026 -1.2551 -1.4412  1.2773
30490SOL     OW95831   9.690  10.088   7.865  0.2076 -0.0575 -0.7485
30490SOL    HW195832   9.642  10.165   7.832  0.5303  0.4510 -0.0428
30490SOL    HW295833   9.694  10.101   7.959 -0.3047 -1.2830 -0.5537
30491SOL     OW95834   1.013   0.816  10.556  0.3471  0.4558  0.0092
30491SOL    HW195835   1.015   0.771  10.641  0.9044  2.0211  0.8502
30491SOL    HW295836   0.928   0.860  10.554  0.6502  1.0471  0.0913
30492SOL     OW95837   8.746   7.950   6.981  0.0690 -0.6362 -0.1675
30492SOL    HW195838   8.742   7.866   6.935  0.1432 -0.2192 -0.9467
30492SOL    HW295839   8.794   7.931   7.061 -0.0426 -1.3695 -0.2706
30493SOL     OW95840   6.033   4.551   4.460 -0.7845 -0.1891 -0.0196
30493SOL    HW195841   5.962   4.518   4.517 -2.7347  1.1816 -1.5198
30493SOL    HW295842   6.021   4.646   4.460  0.3207 -0.0320 -1.2641
30494SOL     OW95843   5.602   6.851   6.642 -0.1900  0.4244  0.2217
30494SOL    HW195844   5.664   6.923   6.651  2.2311 -1.4124 -0.5386
30494SOL    HW295845   5.554   6.850   6.724  0.9235  1.8323  0.9434
30495SOL     OW95846   6.631   2.302   5.608  0.2479  0.0624 -0.3116
30495SOL    HW195847   6.641   2.216   5.567 -1.5273  0.9334 -2.7779
30495SOL    HW295848   6.536   2.314   5.615  0.4799  1.1756  1.5217
30496SOL     OW95849   4.685   3.694   9.747 -0.4595 -0.4884  0.3833
30496SOL    HW195850   4.627   3.622   9.771 -0.0239 -1.0001 -0.0648
30496SOL    HW295851   4.773   3.659   9.757 -0.2239  0.1817  0.7551
30497SOL     OW95852   1.021   4.116   5.956 -0.0494  0.3049  0.5215
30497SOL    HW195853   0.959   4.182   5.925 -0.2727 -0.2477 -0.2542
30497SOL    HW295854   1.038   4.139   6.047 -1.7923  0.1806  0.9094
30498SOL     OW95855   9.832   7.655   3.777 -0.2337 -0.2730 -0.1617
30498SOL    HW195856   9.752   7.633   3.825 -0.5327  1.0112 -0.0415
30498SOL    HW295857   9.845   7.749   3.793  0.7996 -0.2693 -0.9172
30499SOL     OW95858   1.579   9.552   8.094  0.1364  0.2620 -0.3209
30499SOL    HW195859   1.591   9.571   8.187  0.0985 -4.0744  0.7992
30499SOL    HW295860   1.493   9.589   8.073 -1.2479 -1.1419  2.2925
30500SOL     OW95861   9.087   6.605   5.012  0.1138 -0.2613 -0.3155
30500SOL    HW195862   9.044   6.690   5.000  2.5258  1.8128  3.7323
30500SOL    HW295863   9.169   6.613   4.964 -0.2994 -1.0028 -1.1896
30501SOL     OW95864   2.483   7.000   0.180  0.2722 -0.5486  0.1517
30501SOL    HW195865   2.450   7.087   0.201  0.9941 -0.6553  1.8834
30501SOL    HW295866   2.509   7.005   0.087 -0.1378  0.9199  0.1023
30502SOL     OW95867  10.341   9.789   8.339  0.3096  0.1050  0.3358
30502SOL    HW195868  10.272   9.832   8.389  0.7523  0.6159  0.5185
30502SOL    HW295869  10.332   9.824   8.251 -0.7311 -1.1009 -0.0688
30503SOL     OW95870   5.830   2.034   0.949 -0.6377 -0.4008  0.2052
30503SOL    HW195871   5.844   2.008   0.858 -2.7789 -2.0256  0.2351
30503SOL    HW295872   5.740   2.007   0.967 -1.1731  2.2510  2.0454
30504SOL     OW95873   6.942   6.547   3.473  0.1091 -0.0803  0.1858
30504SOL    HW195874   6.846   6.555   3.476 -0.1375 -1.4238 -2.0724
30504SOL    HW295875   6.965   6.565   3.382  1.5176 -3.7401 -0.3306
30505SOL     OW95876   6.423   5.437   3.197 -0.0106  0.3173  0.5403
30505SOL    HW195877   6.379   5.499   3.255 -0.1590 -0.8407  1.7062
30505SOL    HW295878   6.455   5.368   3.255  0.0225 -0.7781 -0.7298
30506SOL     OW95879   4.249   8.734  10.743  0.1617  0.0053  0.6438
30506SOL    HW195880   4.193   8.717  10.819  0.5051  0.4292  1.0011
30506SOL    HW295881   4.328   8.683  10.760 -0.0610 -0.4903  0.2037
30507SOL     OW95882  10.820   6.396   7.290 -0.3118  0.0538  0.0231
30507SOL    HW195883  10.784   6.319   7.246  1.9391 -1.2380  0.2811
30507SOL    HW295884  10.832   6.460   7.219  0.6326 -0.9810 -0.8022
30508SOL     OW95885   9.178   4.127   5.535  0.5475 -0.7013 -0.1399
30508SOL    HW195886   9.132   4.112   5.617 -0.3009  0.4643 -0.3745
30508SOL    HW295887   9.270   4.135   5.560  0.4946 -1.8238  0.4897
30509SOL     OW95888   1.656   9.332   0.067 -0.1357  0.2041  0.7987
30509SOL    HW195889   1.691   9.243   0.070  0.2901  0.3922  1.5480
30509SOL    HW295890   1.704   9.374  -0.005  1.0048  0.3798  1.6407
30510SOL     OW95891   1.612   2.916   1.321  0.9018 -0.1916  0.3122
30510SOL    HW195892   1.582   2.967   1.396  2.5437 -0.6073  1.2994
30510SOL    HW295893   1.558   2.946   1.249  0.7815  1.8487  1.1837
30511SOL     OW95894   7.070   1.266   8.754 -0.3770  0.0872  0.3734
30511SOL    HW195895   7.097   1.242   8.843 -0.8691 -0.1858  0.4503
30511SOL    HW295896   6.977   1.245   8.751 -0.4861  0.6097 -0.0336
30512SOL     OW95897   3.450   7.687   6.838 -0.6242 -0.6052 -0.5749
30512SOL    HW195898   3.475   7.731   6.756  1.4549  0.0980  0.3770
30512SOL    HW295899   3.402   7.753   6.887  0.6395 -0.0504 -0.0469
30513SOL     OW95900   7.401  10.859   3.627  0.1772  0.3009 -0.2463
30513SOL    HW195901   7.414  10.953   3.623 -2.5255  0.8167  0.9148
30513SOL    HW295902   7.337  10.841   3.559 -2.1876 -0.0040  1.9062
30514SOL     OW95903   6.239   7.004   9.266  0.4253  0.1367  0.1131
30514SOL    HW195904   6.187   7.063   9.212 -0.2969 -1.7767 -1.3965
30514SOL    HW295905   6.277   7.060   9.334  0.6962  2.5170 -1.8691
30515SOL     OW95906   6.663   4.275   2.144  0.1790 -0.5886  0.6071
30515SOL    HW195907   6.649   4.275   2.239 -0.0248 -1.3045  0.5822
30515SOL    HW295908   6.576   4.287   2.106  0.4231  1.1091  0.5106
30516SOL     OW95909   0.308   0.092   5.119 -0.2166  0.3907 -0.1053
30516SOL    HW195910   0.235   0.147   5.146  0.8183  2.0746 -0.5559
30516SOL    HW295911   0.357   0.076   5.200 -1.1682 -0.9319  0.2361
30517SOL     OW95912   9.314   6.928  10.716  0.6553  0.1480 -1.0340
30517SOL    HW195913   9.323   6.933  10.812 -1.1107  1.1124 -0.8801
30517SOL    HW295914   9.367   6.852  10.692  1.4871  0.1339  0.6525
30518SOL     OW95915   6.818  10.425   2.541  0.3424 -0.2664 -0.3265
30518SOL    HW195916   6.897  10.417   2.487  0.8495 -0.7610  0.4649
30518SOL    HW295917   6.751  10.375   2.494  0.6859 -0.4169 -0.6587
30519SOL     OW95918   9.927   5.319   8.217  0.0416  0.1844 -0.7710
30519SOL    HW195919   9.877   5.364   8.285  1.5126  1.1838 -0.3028
30519SOL    HW295920   9.867   5.253   8.183 -1.2361  0.6586  0.4606
30520SOL     OW95921   0.110   7.808   2.951 -0.2559  0.1980 -0.4059
30520SOL    HW195922   0.157   7.803   3.034 -0.4237 -0.8611 -0.3575
30520SOL    HW295923   0.025   7.770   2.969 -0.7370  1.0646 -0.7794
30521SOL     OW95924   1.411   8.806   9.340 -0.2048  0.1700  0.0862
30521SOL    HW195925   1.452   8.754   9.409 -0.9159  0.0867  0.4492
30521SOL    HW295926   1.364   8.743   9.287 -1.7408  0.4975  0.9950
30522SOL     OW95927   5.885   0.512   6.456  0.6367 -0.0862 -0.3767
30522SOL    HW195928   5.951   0.463   6.504  0.7371 -0.1654 -0.5939
30522SOL    HW295929   5.909   0.501   6.364  1.1622  1.0905 -0.3854
30523SOL     OW95930   8.574   1.731   1.455 -0.9530  0.4698  0.1466
30523SOL    HW195931   8.579   1.822   1.486 -0.7529  0.3639  0.4234
30523SOL    HW295932   8.630   1.729   1.377 -0.8073  0.5384  0.2490
30524SOL     OW95933   4.553   1.755  10.315 -0.0960 -0.1097 -0.2107
30524SOL    HW195934   4.542   1.690  10.385 -2.1810  0.5646  0.1708
30524SOL    HW295935   4.513   1.714  10.239  1.2191 -0.4132 -0.7589
30525SOL     OW95936   4.808   3.810   5.257 -0.0553  0.0656  0.0981
30525SOL    HW195937   4.828   3.739   5.197 -2.1253 -0.7271  0.2627
30525SOL    HW295938   4.720   3.791   5.289  0.5136  1.0386  2.5497
30526SOL     OW95939   8.676   2.517  10.921  0.4584  0.0599  0.4559
30526SOL    HW195940   8.662   2.424  10.903 -1.4311  0.4474 -0.2718
30526SOL    HW295941   8.642   2.530  11.010  1.0553 -0.0119  0.6959
30527SOL     OW95942   3.696   7.767   6.086 -0.1886 -0.0855  0.0764
30527SOL    HW195943   3.630   7.827   6.119  0.9882  0.9954  0.5245
30527SOL    HW295944   3.670   7.750   5.995  1.1160  3.6447 -1.1638
30528SOL     OW95945   3.765   3.709   5.341 -0.7827  0.1633  0.3581
30528SOL    HW195946   3.737   3.684   5.253  0.2527  0.9815 -0.2216
30528SOL    HW295947   3.821   3.637   5.369  0.4646  0.7896 -0.4517
30529SOL     OW95948   8.144   5.042  10.904 -0.1094  0.2809 -0.3003
30529SOL    HW195949   8.163   5.133  10.881 -1.6075  1.0564  1.2409
30529SOL    HW295950   8.119   5.046  10.997 -0.0543 -1.7434 -0.1484
30530SOL     OW95951   5.734   6.167  10.323 -0.6017  0.1186 -0.7091
30530SOL    HW195952   5.747   6.261  10.332  0.7137 -0.1613  0.7823
30530SOL    HW295953   5.680   6.143  10.399 -1.0762 -0.3203 -1.1709
30531SOL     OW95954   0.850   4.629   5.424  0.3673  0.0728 -0.0636
30531SOL    HW195955   0.937   4.601   5.452  0.1955 -1.1621 -0.6847
30531SOL    HW295956   0.803   4.547   5.407 -0.2508  0.7235 -1.7501
30532SOL     OW95957   9.348  10.198   5.988  0.0051 -0.0377 -0.1016
30532SOL    HW195958   9.369  10.206   5.895 -1.1428  0.5050 -0.3254
30532SOL    HW295959   9.421  10.241   6.032 -0.1209  0.9631 -0.8197
30533SOL     OW95960   7.877   1.746   3.212  0.4658 -0.2171 -0.2479
30533SOL    HW195961   7.783   1.732   3.222  0.6471 -0.6286  1.0097
30533SOL    HW295962   7.915   1.658   3.216  1.1429  0.1352  2.2871
30534SOL     OW95963   8.474   0.116   6.898 -0.5255  0.1368 -0.1520
30534SOL    HW195964   8.458   0.112   6.992  1.3756  1.6088  0.2904
30534SOL    HW295965   8.387   0.111   6.858 -1.2933 -1.6942  1.5949
30535SOL     OW95966   1.401   8.077   8.630 -0.5044 -0.4396 -0.2332
30535SOL    HW195967   1.365   8.047   8.547 -0.6496 -1.3330  0.1434
30535SOL    HW295968   1.495   8.089   8.612 -0.7268  0.4984 -0.8258
30536SOL     OW95969   8.926   8.448   4.193 -0.0061 -0.6421 -0.2928
30536SOL    HW195970   9.001   8.436   4.251 -0.0370 -0.1660 -0.1532
30536SOL    HW295971   8.950   8.521   4.137 -1.9187  2.2891  2.3762
30537SOL     OW95972   0.986   1.558   9.080 -0.5355 -0.2301 -0.2153
30537SOL    HW195973   0.903   1.604   9.069 -0.1592  0.3362 -0.7704
30537SOL    HW295974   0.974   1.475   9.034 -0.8484 -0.2235 -0.1479
30538SOL     OW95975   2.884  10.042   5.150 -0.0666  0.3108  0.1755
30538SOL    HW195976   2.879   9.962   5.203  2.7343 -0.3638 -0.4218
30538SOL    HW295977   2.878  10.114   5.212 -2.6768 -0.2776  0.7248
30539SOL     OW95978   6.576   4.348   6.290  0.2783  0.2527  0.5371
30539SOL    HW195979   6.593   4.291   6.215  0.3044  0.0474  0.6981
30539SOL    HW295980   6.536   4.291   6.355 -0.4438  0.5904  0.4008
30540SOL     OW95981   2.764   6.965   4.076  0.4173 -0.1981 -0.6669
30540SOL    HW195982   2.837   6.932   4.129  0.3190 -0.3028 -0.5969
30540SOL    HW295983   2.806   7.013   4.005  0.6026 -1.2593 -1.3051
30541SOL     OW95984   3.190   2.282   6.146 -0.4665 -0.6672  0.1547
30541SOL    HW195985   3.217   2.242   6.228 -0.3749 -1.6343 -0.3264
30541SOL    HW295986   3.197   2.211   6.082  0.3216  0.2813 -0.8551
30542SOL     OW95987   0.159   7.717   1.492 -0.4021 -0.2036 -0.2220
30542SOL    HW195988   0.185   7.626   1.478 -1.4566 -0.9923  2.3044
30542SOL    HW295989   0.065   7.712   1.511 -0.5292  1.4494 -0.3222
30543SOL     OW95990   9.705   4.253   0.754  0.0085  0.3061  0.2961
30543SOL    HW195991   9.632   4.243   0.692 -0.1206 -0.0328  0.5048
30543SOL    HW295992   9.669   4.225   0.838  1.2401 -2.8133 -0.1112
30544SOL     OW95993   2.367   9.233   8.010  0.3684 -0.1729 -0.0163
30544SOL    HW195994   2.329   9.311   8.051 -0.2897  0.7478 -2.2175
30544SOL    HW295995   2.438   9.267   7.955  1.3714 -1.3804  0.4891
30545SOL     OW95996   9.531   2.345  11.108 -0.0633  0.0689  0.2238
30545SOL    HW195997   9.458   2.303  11.154  0.5612 -2.3409 -0.8273
30545SOL    HW295998   9.610   2.306  11.147  0.7400  2.6299  1.3512
30546SOL     OW95999   5.849   4.043   9.856 -0.1371 -0.1265 -0.8110
30546SOL    HW196000   5.756   4.064   9.868 -0.0636 -0.2633  0.1402
30546SOL    HW296001   5.893   4.092   9.926  0.4470 -0.4504 -0.9489
30547SOL     OW96002   3.264   4.738   7.453  0.1984  0.2384 -0.0204
30547SOL    HW196003   3.294   4.723   7.543  3.0034 -0.6905 -1.0101
30547SOL    HW296004   3.172   4.710   7.454 -0.1321  1.0903  2.7126
30548SOL     OW96005   6.790   4.959   9.961 -0.4919  0.1976 -0.4518
30548SOL    HW196006   6.860   4.902   9.992  1.1748  1.4374 -1.7181
30548SOL    HW296007   6.794   4.951   9.865 -0.8551  1.6376 -0.6136
30549SOL     OW96008   9.598   5.962   9.747 -0.0456  0.0007 -0.1989
30549SOL    HW196009   9.614   5.999   9.661  1.0290 -2.0271 -0.9557
30549SOL    HW296010   9.671   5.901   9.761 -0.4487 -0.0833  1.9367
30550SOL     OW96011   4.053   5.885   6.593  0.8693 -0.3749 -0.3491
30550SOL    HW196012   4.042   5.980   6.580 -0.2542 -0.7365 -2.4998
30550SOL    HW296013   3.965   5.852   6.605  1.3923 -0.9735  2.4691
30551SOL     OW96014   3.060  10.430   4.213  0.5997 -0.5367 -0.1797
30551SOL    HW196015   3.013  10.398   4.290 -0.3461 -1.1455 -0.9752
30551SOL    HW296016   3.027  10.519   4.200  0.5210 -0.5491 -0.0602
30552SOL     OW96017   4.017   2.224   9.740 -0.0546  0.0689 -0.0578
30552SOL    HW196018   4.024   2.129   9.730 -1.2292  0.1208 -1.8462
30552SOL    HW296019   4.095   2.259   9.696  1.8476 -0.0643  2.9360
30553SOL     OW96020   0.666   2.088   2.747 -0.0805 -0.2937 -0.1900
30553SOL    HW196021   0.701   2.130   2.668 -1.3745 -0.5287 -0.9224
30553SOL    HW296022   0.644   1.999   2.719 -1.0043 -0.2301  0.2892
30554SOL     OW96023   1.632   8.439   5.902  0.5546 -0.0778 -0.0498
30554SOL    HW196024   1.691   8.440   5.826 -0.2482 -1.6876 -0.7326
30554SOL    HW296025   1.683   8.480   5.972  1.6891  0.5171 -1.1834
30555SOL     OW96026   8.672   9.161   8.428 -0.2501 -0.3801 -0.6117
30555SOL    HW196027   8.637   9.084   8.474 -0.7238 -1.4270 -2.5968
30555SOL    HW296028   8.597   9.220   8.420 -0.1746 -0.2086 -0.1193
30556SOL     OW96029   2.233   9.942   1.738  0.4151  0.1986  0.9714
30556SOL    HW196030   2.211  10.010   1.674 -0.7541 -0.1072  1.0230
30556SOL    HW296031   2.183   9.865   1.710  0.6633 -0.2322  1.6853
30557SOL     OW96032   6.883   6.257  10.359 -0.2129 -0.4303 -0.6155
30557SOL    HW196033   6.869   6.210  10.277  2.0556  0.6687 -1.7343
30557SOL    HW296034   6.873   6.349  10.335  0.4118 -0.1051  0.3610
30558SOL     OW96035  11.008   2.051   9.048  0.5016  0.6074  0.1863
30558SOL    HW196036  10.915   2.070   9.057  0.2344 -0.3026 -0.5503
30558SOL    HW296037  11.030   2.001   9.127  0.5105  1.3261  0.6450
30559SOL     OW96038   4.736   5.029   4.191  0.1390  0.0665  0.2135
30559SOL    HW196039   4.774   5.031   4.278  3.9539 -0.1329 -1.2797
30559SOL    HW296040   4.731   5.121   4.164  1.3006  0.0238 -0.2105
30560SOL     OW96041   2.254   4.007  10.257 -0.0094  0.7501 -0.0959
30560SOL    HW196042   2.190   4.078  10.267 -1.0850 -0.2413  0.2827
30560SOL    HW296043   2.204   3.934  10.221  0.8539 -0.1343  0.4441
30561SOL     OW96044   6.282   7.418   7.231  0.1077 -0.1818 -0.3173
30561SOL    HW196045   6.214   7.466   7.184 -1.7447 -1.6789  0.6622
30561SOL    HW296046   6.242   7.398   7.316  2.4844  0.4635  1.0225
30562SOL     OW96047  10.127   4.140  10.588 -0.0666  0.0247 -0.2853
30562SOL    HW196048  10.187   4.192  10.642 -0.2645  0.3996 -0.4246
30562SOL    HW296049  10.040   4.162  10.620 -0.0969 -1.5590  0.8458
30563SOL     OW96050   3.095   8.693   4.415  0.5766  0.1158 -0.5611
30563SOL    HW196051   3.112   8.613   4.365 -0.0610 -1.0035  0.9138
30563SOL    HW296052   3.100   8.665   4.506 -0.7381  1.5345 -0.0116
30564SOL     OW96053   4.459   3.020   5.022  0.5090 -1.1704  0.4776
30564SOL    HW196054   4.429   2.976   4.942  0.7078  1.0473 -0.9200
30564SOL    HW296055   4.380   3.056   5.061  0.6321 -0.3309 -0.0044
30565SOL     OW96056  10.071   9.415   6.620  0.2257 -0.1397 -0.1082
30565SOL    HW196057  10.033   9.476   6.557  0.1132 -0.1863 -0.0862
30565SOL    HW296058  10.155   9.389   6.580  0.7153  0.7358  0.3158
30566SOL     OW96059  10.116  10.861   7.191  0.0102 -0.1895 -0.0549
30566SOL    HW196060  10.189  10.912   7.154  1.4452  0.6166  3.5069
30566SOL    HW296061  10.154  10.776   7.211 -1.1416 -1.1257 -1.6763
30567SOL     OW96062   7.232   1.555   4.820 -0.2921 -0.1395 -0.4300
30567SOL    HW196063   7.270   1.603   4.746  0.8825 -2.5995 -1.5531
30567SOL    HW296064   7.259   1.464   4.805 -2.4486 -1.1848  1.5206
30568SOL     OW96065   9.222   0.128  10.676  0.0711 -0.6763  0.0266
30568SOL    HW196066   9.167   0.070  10.623  0.1727  0.1624 -1.0459
30568SOL    HW296067   9.257   0.072  10.745  0.0421 -1.8592 -0.8786
30569SOL     OW96068   2.980   9.176  10.584  0.6636  0.2453 -0.3311
30569SOL    HW196069   2.965   9.114  10.656  0.6694 -1.8512 -2.0398
30569SOL    HW296070   2.899   9.175  10.534  1.5604 -0.4123 -1.8386
30570SOL     OW96071   6.266   4.941   2.213 -0.3451 -0.0427  0.3169
30570SOL    HW196072   6.306   4.886   2.280 -0.1775 -0.3929 -0.0644
30570SOL    HW296073   6.260   5.028   2.253  1.6342  0.2583  0.0609
30571SOL     OW96074   3.099   2.667   5.214 -0.4659  0.3796 -0.3911
30571SOL    HW196075   3.149   2.594   5.179 -1.6492  0.1589 -1.7299
30571SOL    HW296076   3.025   2.677   5.153 -1.4984  1.3103  0.9415
30572SOL     OW96077   3.948   1.329   6.584 -0.3164 -0.7035 -0.3548
30572SOL    HW196078   3.968   1.379   6.663  1.0318 -2.1995  0.3252
30572SOL    HW296079   4.027   1.337   6.530 -1.4847  0.8662 -1.9079
30573SOL     OW96080   3.818   8.526   6.845 -0.0799  0.3468  0.2690
30573SOL    HW196081   3.851   8.522   6.935  1.3085  0.1057 -0.2294
30573SOL    HW296082   3.863   8.454   6.800 -0.8889  0.3558 -0.5816
30574SOL     OW96083   0.598   9.332   1.712 -0.0434 -0.2278  0.6437
30574SOL    HW196084   0.507   9.351   1.734 -0.5684 -0.7209 -0.8984
30574SOL    HW296085   0.633   9.416   1.681 -0.9763 -0.6208 -1.7659
30575SOL     OW96086   7.082   0.593   2.396  0.4432  0.5157  0.6530
30575SOL    HW196087   7.118   0.582   2.484 -0.0125  1.0378  0.9126
30575SOL    HW296088   7.079   0.504   2.360  0.4238  0.2681  1.2527
30576SOL     OW96089   6.759   7.115   2.718  0.3633 -0.1647  0.4587
30576SOL    HW196090   6.834   7.084   2.667  0.2216  1.7492 -0.9771
30576SOL    HW296091   6.683   7.078   2.674  0.2398  1.5024 -0.8067
30577SOL     OW96092   4.885   8.741   6.603 -0.8551 -0.7102 -0.1780
30577SOL    HW196093   4.820   8.788   6.655 -1.8891 -1.7537 -0.4775
30577SOL    HW296094   4.854   8.650   6.602 -0.0704 -0.9906 -1.3945
30578SOL     OW96095   2.786   4.001   5.426  0.3587  0.1035  0.0606
30578SOL    HW196096   2.709   3.964   5.383  2.2663 -0.7686 -2.9918
30578SOL    HW296097   2.778   4.095   5.414  0.8133 -0.1012 -2.4761
30579SOL     OW96098   2.861   1.776   0.043 -0.1666  0.0278  0.1615
30579SOL    HW196099   2.953   1.781   0.017 -0.2245 -0.0973 -0.0657
30579SOL    HW296100   2.821   1.715  -0.019 -0.7630  1.3172 -0.7989
30580SOL     OW96101   3.211   2.762   2.746 -0.0626 -0.4957  0.1146
30580SOL    HW196102   3.271   2.760   2.821 -1.0308 -0.6366  0.8979
30580SOL    HW296103   3.269   2.755   2.669  0.9635 -0.0938  0.8264
30581SOL     OW96104   3.477   3.472   7.449  0.0064  0.1273  0.3852
30581SOL    HW196105   3.409   3.439   7.508 -0.3951 -0.5547 -0.4318
30581SOL    HW296106   3.551   3.491   7.506 -0.3446 -0.6065  1.1078
30582SOL     OW96107  10.737   4.740   8.777 -0.5865  0.1556  0.3990
30582SOL    HW196108  10.775   4.679   8.840 -1.0649  0.3344  0.8601
30582SOL    HW296109  10.645   4.746   8.800 -0.5494  1.0620  0.3735
30583SOL     OW96110   5.012   8.504   4.124  0.3733 -0.3611  0.5367
30583SOL    HW196111   5.002   8.567   4.053 -1.0234  0.2867  1.2756
30583SOL    HW296112   5.030   8.421   4.079 -1.4678 -0.1716 -0.6637
30584SOL     OW96113  11.034   8.059   7.532  0.5777  0.0800 -0.5057
30584SOL    HW196114  11.057   7.985   7.475  0.3770  0.7343 -1.4372
30584SOL    HW296115  10.966   8.106   7.485 -1.0869 -0.5006  1.1790
30585SOL     OW96116   8.055   4.590   5.017  0.0949  0.5712 -0.2233
30585SOL    HW196117   8.029   4.655   4.952 -0.7953  0.6871  0.2343
30585SOL    HW296118   8.085   4.641   5.092 -1.1307  0.4889  0.3510
30586SOL     OW96119   9.917   2.593   5.191  0.3181 -0.2629 -0.0913
30586SOL    HW196120   9.944   2.502   5.201  0.0980 -0.2856  0.3123
30586SOL    HW296121   9.839   2.588   5.136 -0.6627 -0.4776  1.2572
30587SOL     OW96122  10.857  10.790   5.711 -0.6724  0.3625 -0.1659
30587SOL    HW196123  10.892  10.701   5.717 -1.1183  0.0424 -1.8160
30587SOL    HW296124  10.769  10.779   5.676 -1.5228  1.3412  1.5356
30588SOL     OW96125   9.769   0.289  10.321  0.2802  1.3286  0.4592
30588SOL    HW196126   9.756   0.324  10.410 -1.6782  1.7208  0.0628
30588SOL    HW296127   9.707   0.338  10.267  1.6962  1.3499 -1.2262
30589SOL     OW96128   0.999   2.537   6.374 -0.3751  0.3566 -0.0693
30589SOL    HW196129   0.960   2.476   6.312 -0.0456 -0.1315  0.1952
30589SOL    HW296130   1.092   2.511   6.379 -0.4317  0.2665  0.7510
30590SOL     OW96131   0.355   6.102   3.050  0.3251 -0.5634  0.1446
30590SOL    HW196132   0.350   6.147   2.966 -0.2367 -0.8502  0.0139
30590SOL    HW296133   0.271   6.122   3.093  0.1663 -1.2838  0.1799
30591SOL     OW96134   9.118   3.322   5.962 -0.5144 -0.0479  0.1819
30591SOL    HW196135   9.033   3.282   5.944  0.0572 -0.8147 -0.9627
30591SOL    HW296136   9.176   3.248   5.980  0.0312  0.4233  0.3840
30592SOL     OW96137   0.563   8.138   2.199 -0.5549  0.2847  0.4309
30592SOL    HW196138   0.647   8.184   2.198 -0.0255 -0.6577 -1.2960
30592SOL    HW296139   0.569   8.078   2.273  0.2543  0.2977  0.3773
30593SOL     OW96140   0.378   9.106   3.695  0.1655  0.5253  0.3895
30593SOL    HW196141   0.354   9.051   3.770 -0.2056  0.7239  0.4167
30593SOL    HW296142   0.309   9.090   3.631  0.3608  0.5329  0.1778
30594SOL     OW96143   8.399   9.058   8.157  0.0181 -0.1558  0.2378
30594SOL    HW196144   8.360   9.025   8.076 -0.6814  2.3577 -0.5195
30594SOL    HW296145   8.386   8.987   8.220 -0.2445 -1.8084 -1.5876
30595SOL     OW96146   6.849   0.388   1.630 -0.0590  0.5418  0.2449
30595SOL    HW196147   6.827   0.464   1.684 -1.1822  1.6287 -1.6211
30595SOL    HW296148   6.840   0.419   1.540  2.2490 -1.0414 -0.6331
30596SOL     OW96149  10.216   5.303   7.690  0.1757 -0.3445 -0.4323
30596SOL    HW196150  10.131   5.264   7.708 -0.1934  1.1555  1.4174
30596SOL    HW296151  10.252   5.323   7.777  0.8710  2.2199 -1.2196
30597SOL     OW96152   5.786   3.182   0.920  0.0094  0.7837 -0.1907
30597SOL    HW196153   5.819   3.196   0.831 -2.9560  0.4432 -1.4338
30597SOL    HW296154   5.705   3.232   0.923 -0.8017 -0.5731  1.7813
30598SOL     OW96155   8.349   6.409   4.686 -0.7179  0.0864 -0.3089
30598SOL    HW196156   8.404   6.387   4.611 -1.5038 -2.1310 -0.2907
30598SOL    HW296157   8.259   6.400   4.654 -1.0933  1.3965  0.2955
30599SOL     OW96158   0.381   9.190   1.357  0.0894 -0.1122 -0.3485
30599SOL    HW196159   0.417   9.276   1.332 -1.7176  0.4213 -1.2913
30599SOL    HW296160   0.341   9.157   1.276 -1.3415 -0.7523  0.5926
30600SOL     OW96161   5.220   2.700   4.315 -0.1118 -0.1905 -0.2903
30600SOL    HW196162   5.308   2.667   4.331  0.2544  0.7946 -0.2271
30600SOL    HW296163   5.201   2.755   4.391 -0.4407  0.2786 -0.7042
30601SOL     OW96164  10.594   5.607   1.583  0.5497 -0.0903 -0.9572
30601SOL    HW196165  10.525   5.609   1.517  0.0563  3.5077 -0.5673
30601SOL    HW296166  10.600   5.698   1.614  0.2051 -1.6011  4.5728
30602SOL     OW96167   8.312   4.967   0.969 -0.2739  0.4113 -0.6249
30602SOL    HW196168   8.220   4.976   0.992 -0.3490  2.5945 -1.5265
30602SOL    HW296169   8.359   4.993   1.048 -0.3667 -1.8100  0.2160
30603SOL     OW96170   7.030   7.074   6.293 -0.0011  0.8373 -0.1070
30603SOL    HW196171   6.994   7.055   6.379 -0.1856  0.2381 -0.3162
30603SOL    HW296172   6.971   7.140   6.256 -0.6736  0.1496 -0.2905
30604SOL     OW96173   4.429   4.909   5.473 -0.2889  0.0357  0.0451
30604SOL    HW196174   4.412   4.996   5.510  0.8659 -0.5977  2.2711
30604SOL    HW296175   4.520   4.913   5.443 -0.1873 -0.4129  0.2756
30605SOL     OW96176   9.484   1.907   7.241 -0.3380  0.4002  0.0207
30605SOL    HW196177   9.499   1.893   7.147 -0.7766 -2.5392  0.2868
30605SOL    HW296178   9.417   1.975   7.245 -1.6833 -0.7143 -1.9121
30606SOL     OW96179   5.615   8.329   5.536 -0.3737 -0.4925  0.4041
30606SOL    HW196180   5.579   8.263   5.477 -0.2000  0.0171 -0.2933
30606SOL    HW296181   5.683   8.284   5.585  0.9736 -0.4378 -1.3169
30607SOL     OW96182   2.901   3.861   8.903 -0.0811  0.0094 -0.1689
30607SOL    HW196183   2.812   3.874   8.870 -0.8266  0.9517  2.0276
30607SOL    HW296184   2.892   3.793   8.970  1.3882 -1.9184 -1.8146
30608SOL     OW96185   7.801   5.735   4.981  0.4237 -0.0847  0.3537
30608SOL    HW196186   7.802   5.640   4.989  0.7938  0.0589  2.5701
30608SOL    HW296187   7.709   5.759   4.987  0.1636 -0.3507 -1.7675
30609SOL     OW96188   2.554   8.801   4.817  0.4719  0.1241 -0.3281
30609SOL    HW196189   2.548   8.804   4.913  2.1365  1.0348 -0.2035
30609SOL    HW296190   2.625   8.739   4.799 -0.0942 -0.3401 -0.9966
30610SOL     OW96191  10.437   0.529   4.407  0.5146  0.5406  0.1284
30610SOL    HW196192  10.529   0.532   4.431 -0.0021  1.4071  2.1513
30610SOL    HW296193  10.417   0.617   4.375  0.4273  0.2946 -0.5091
30611SOL     OW96194   6.797   3.614   0.336  0.3924  0.4590  0.3386
30611SOL    HW196195   6.859   3.541   0.340  0.4010  0.2680 -2.0889
30611SOL    HW296196   6.819   3.667   0.413  0.6239 -1.8590  1.9834
30612SOL     OW96197   0.856   6.446   7.168 -0.0158  1.2148  0.2067
30612SOL    HW196198   0.881   6.438   7.076  1.6401 -0.2830  0.7211
30612SOL    HW296199   0.916   6.510   7.204  2.5400 -1.4853  1.1674
30613SOL     OW96200   9.458   2.466   7.614 -0.1642  0.1381  0.3852
30613SOL    HW196201   9.464   2.426   7.701 -0.7346  1.6700  1.1738
30613SOL    HW296202   9.456   2.393   7.553 -1.8343 -1.0620  1.7891
30614SOL     OW96203   7.749   0.597   9.964  0.3211 -0.1908  0.6985
30614SOL    HW196204   7.680   0.566  10.023 -1.1314 -1.7962 -1.6632
30614SOL    HW296205   7.732   0.690   9.954 -1.0863 -0.4214  0.7378
30615SOL     OW96206   7.021   7.630   6.084 -0.2208  0.4029  0.0653
30615SOL    HW196207   6.942   7.655   6.132 -0.5329 -1.6049  0.6844
30615SOL    HW296208   7.029   7.696   6.015 -0.4058  2.7369  2.1271
30616SOL     OW96209   1.012   6.445   8.040 -0.1713 -0.1086  0.7460
30616SOL    HW196210   0.946   6.469   7.974  0.9180  1.2823  0.1136
30616SOL    HW296211   0.961   6.433   8.120 -1.2478  0.7092  0.2271
30617SOL     OW96212   0.483  10.000  10.255  0.6387 -0.6254 -0.2828
30617SOL    HW196213   0.451   9.979  10.167 -0.6589 -0.8419  0.2191
30617SOL    HW296214   0.404  10.008  10.308  1.2803  1.6395  0.4280
30618SOL     OW96215   6.571   5.711   4.711  0.3351  0.6562  0.3830
30618SOL    HW196216   6.513   5.728   4.785  1.6095  0.7198  1.3838
30618SOL    HW296217   6.659   5.709   4.748  0.8879 -0.7945 -0.8698
30619SOL     OW96218  10.234   3.161   8.299 -0.4133  0.5054  0.4096
30619SOL    HW196219  10.216   3.251   8.326  0.5016  0.8422 -0.0543
30619SOL    HW296220  10.297   3.129   8.364 -1.7900 -0.2894  1.3923
30620SOL     OW96221   6.920   9.707   7.830  0.1560 -0.5614 -0.1643
30620SOL    HW196222   6.880   9.692   7.744 -0.3123  0.0793 -0.0692
30620SOL    HW296223   6.905   9.800   7.847  0.4405 -0.6348  0.5113
30621SOL     OW96224   2.377   3.745   3.993 -0.2136  0.6159 -0.2443
30621SOL    HW196225   2.424   3.725   3.912 -0.0135 -0.4079  0.1102
30621SOL    HW296226   2.443   3.740   4.062 -0.9131 -1.6713  0.3724
30622SOL     OW96227  10.206   7.015   8.274 -0.2881 -1.1548  0.3670
30622SOL    HW196228  10.193   7.001   8.180  2.4724  0.1407 -0.3290
30622SOL    HW296229  10.253   6.936   8.303  1.5178 -0.3106 -0.0908
30623SOL     OW96230   6.316   2.095   3.446 -0.1711 -1.0703 -0.2138
30623SOL    HW196231   6.365   2.079   3.527  0.1716 -0.5553 -0.3146
30623SOL    HW296232   6.281   2.183   3.456 -1.3082 -1.5173 -0.0404
30624SOL     OW96233  10.819   3.707   6.415  0.6361 -0.1042  0.5650
30624SOL    HW196234  10.807   3.677   6.325  0.6672 -1.9695  1.1400
30624SOL    HW296235  10.857   3.794   6.406 -1.7384  0.8419 -1.2179
30625SOL     OW96236   9.588   0.739   9.963  0.1920 -0.3035 -0.0612
30625SOL    HW196237   9.530   0.689   9.906 -0.1138  0.5128 -0.4899
30625SOL    HW296238   9.561   0.830   9.951  1.8903  0.1723 -0.6978
30626SOL     OW96239  10.626   3.340   2.738 -0.2213 -0.9696 -0.2477
30626SOL    HW196240  10.660   3.396   2.668 -1.3199 -1.6334 -1.3578
30626SOL    HW296241  10.689   3.350   2.809 -0.0139  1.1394 -0.6420
30627SOL     OW96242   7.055   8.830   4.653 -0.4030  0.2598  0.4105
30627SOL    HW196243   7.140   8.838   4.696 -0.9485 -0.3946  1.6730
30627SOL    HW296244   6.994   8.871   4.714 -0.9420  1.2257 -0.7353
30628SOL     OW96245   9.355   4.412   7.345 -0.1567  0.1727  0.8805
30628SOL    HW196246   9.324   4.471   7.276 -0.4679 -2.1719 -1.1283
30628SOL    HW296247   9.441   4.446   7.368  1.0902 -0.3123 -2.5265
30629SOL     OW96248   8.589   6.119   6.922  0.2102 -0.1669  0.2671
30629SOL    HW196249   8.559   6.209   6.917 -0.7671 -0.3917  1.4708
30629SOL    HW296250   8.517   6.067   6.887 -0.3967 -0.6393  2.1088
30630SOL     OW96251  10.021   3.030   3.022 -0.1112  0.3911 -0.3549
30630SOL    HW196252   9.996   2.949   3.067  2.6379 -0.7671 -0.7213
30630SOL    HW296253   9.989   3.018   2.932  1.7823 -1.1554 -0.8849
30631SOL     OW96254   9.131   0.423   3.826 -0.8994 -0.0157  0.5177
30631SOL    HW196255   9.051   0.407   3.775  0.0868 -2.7785 -0.3351
30631SOL    HW296256   9.102   0.416   3.917 -1.5062 -2.1852  0.2181
30632SOL     OW96257   0.777   2.918   7.175  0.5099  0.3091 -0.1181
30632SOL    HW196258   0.724   2.898   7.098  2.0078 -1.1103 -0.8229
30632SOL    HW296259   0.824   2.998   7.152 -1.1356  1.5131  0.4669
30633SOL     OW96260   6.819   1.298   9.027  0.2319 -0.2642  0.1042
30633SOL    HW196261   6.878   1.229   9.056  0.1971 -0.8292 -1.0807
30633SOL    HW296262   6.789   1.269   8.941  2.4509  2.4945 -1.8054
30634SOL     OW96263   7.980   1.507   1.770  0.4117 -0.2870  0.2190
30634SOL    HW196264   8.060   1.516   1.719  1.5012  1.4511  2.0897
30634SOL    HW296265   7.977   1.414   1.793  0.2449 -0.9775 -2.3223
30635SOL     OW96266   5.205   9.419   4.665 -0.0365 -0.2149  0.1591
30635SOL    HW196267   5.162   9.338   4.693  0.2410 -0.9084 -1.2996
30635SOL    HW296268   5.139   9.463   4.611 -0.0722  0.3946  0.6811
30636SOL     OW96269   6.435   0.162   1.201 -0.2221 -0.6787 -0.1083
30636SOL    HW196270   6.375   0.093   1.175 -0.2603 -1.0839  0.9962
30636SOL    HW296271   6.397   0.242   1.164 -0.6369 -1.1277 -0.6665
30637SOL     OW96272  10.737   9.463  10.376  0.3666  0.1417  0.2226
30637SOL    HW196273  10.827   9.458  10.408  1.0783  0.0706 -1.6449
30637SOL    HW296274  10.712   9.373  10.358 -0.0295  0.1753  0.5885
30638SOL     OW96275   4.455   0.710   3.189  0.3559 -0.2378  0.0082
30638SOL    HW196276   4.421   0.707   3.100  1.0384  0.0372 -0.2711
30638SOL    HW296277   4.442   0.622   3.223  0.2203 -0.3834 -0.4148
30639SOL     OW96278  10.719   9.192   1.608 -0.1010 -0.2241 -0.4426
30639SOL    HW196279  10.782   9.154   1.670 -0.2777  1.6032  0.9515
30639SOL    HW296280  10.707   9.124   1.541  0.6046 -2.0373  1.1664
30640SOL     OW96281   8.925   2.386   7.819 -0.3089  0.3066  0.1683
30640SOL    HW196282   9.003   2.418   7.775  0.2447  0.9539  1.5599
30640SOL    HW296283   8.868   2.463   7.826 -0.0551  0.4173  1.2487
30641SOL     OW96284   1.768  10.974   8.902  0.1214  0.0502  0.2729
30641SOL    HW196285   1.714  10.985   8.823  0.7518 -0.6813 -0.2754
30641SOL    HW296286   1.817  10.894   8.886  1.1091  0.5073  0.9236
30642SOL     OW96287  10.252   2.181   9.869  0.5272 -0.3039 -0.4087
30642SOL    HW196288  10.233   2.260   9.819  0.8440 -0.5063 -0.8552
30642SOL    HW296289  10.230   2.109   9.810 -0.4617 -0.5674  0.2533
30643SOL     OW96290   7.423  10.552  10.491 -0.2530  0.1516 -0.0582
30643SOL    HW196291   7.408  10.646  10.489  0.9339  0.3468 -1.6776
30643SOL    HW296292   7.503  10.542  10.544 -0.9910 -0.0661  1.0399
30644SOL     OW96293   8.734   5.276   2.771  0.3764 -0.5464 -0.3863
30644SOL    HW196294   8.812   5.247   2.724  0.1425 -2.5023  0.3616
30644SOL    HW296295   8.764   5.288   2.861  0.0972 -0.0023 -0.3632
30645SOL     OW96296   5.006   5.445   3.959  0.4529  0.1271  0.0156
30645SOL    HW196297   5.017   5.530   4.002 -2.5534  1.0327 -0.8030
30645SOL    HW296298   5.061   5.451   3.881  0.1074  1.4377 -0.1535
30646SOL     OW96299   1.220  10.009   2.631 -0.1092 -0.1650 -0.0196
30646SOL    HW196300   1.297   9.962   2.599 -1.0813 -1.5752 -0.3965
30646SOL    HW296301   1.150   9.981   2.573 -1.2357 -0.1744  1.3046
30647SOL     OW96302   1.402   3.419   1.167  0.1705 -0.0205 -0.2720
30647SOL    HW196303   1.341   3.404   1.095 -1.2200  3.9882 -0.1600
30647SOL    HW296304   1.379   3.352   1.231 -2.0145 -0.5722 -1.5137
30648SOL     OW96305   7.698   0.227   3.759  0.6443 -0.9326  0.2166
30648SOL    HW196306   7.683   0.227   3.853  1.2618 -1.4720  0.3244
30648SOL    HW296307   7.790   0.201   3.749  1.6822  2.4547 -0.3821
30649SOL     OW96308   5.113   8.756   6.413 -0.0687 -0.2813 -0.2497
30649SOL    HW196309   5.057   8.781   6.486  0.3852 -0.6776  0.2380
30649SOL    HW296310   5.199   8.738   6.452 -0.0897 -1.5276 -0.7102
30650SOL     OW96311   6.875   8.378   6.971  0.1969 -0.3112  0.6664
30650SOL    HW196312   6.963   8.390   6.935 -0.7327  2.3894 -1.0469
30650SOL    HW296313   6.868   8.445   7.040 -0.5523 -0.3777  0.6653
30651SOL     OW96314   9.210   0.433   9.189 -0.2043  0.3314 -0.1443
30651SOL    HW196315   9.300   0.460   9.206  0.7207 -2.7972  0.4369
30651SOL    HW296316   9.217   0.348   9.146 -2.8891  0.1748 -0.4723
30652SOL     OW96317   9.549   3.080   8.539 -0.3412  0.1433 -0.4323
30652SOL    HW196318   9.480   3.091   8.605  0.7050  0.2154  0.6924
30652SOL    HW296319   9.608   3.154   8.555  0.7206 -0.6825 -0.4473
30653SOL     OW96320   3.078   4.574   0.670 -0.0617  0.0160 -0.4959
30653SOL    HW196321   3.075   4.481   0.648 -1.4441 -0.4769  1.4777
30653SOL    HW296322   3.168   4.589   0.697  0.4562 -0.4500 -1.8753
30654SOL     OW96323   5.921   0.281   9.558  0.3144 -0.3085 -0.1139
30654SOL    HW196324   5.957   0.223   9.490 -0.9960 -1.5056  0.1550
30654SOL    HW296325   5.952   0.244   9.640  0.5824  0.1903  0.0138
30655SOL     OW96326   9.568  10.458   5.254 -0.1481 -0.4018 -0.3952
30655SOL    HW196327   9.633  10.393   5.229  1.4055  1.2831 -0.9490
30655SOL    HW296328   9.612  10.542   5.242 -1.9905  0.7651  0.5254
30656SOL     OW96329   9.033  10.472   4.978  0.0351 -0.0068 -0.4281
30656SOL    HW196330   8.956  10.528   4.990 -0.7726 -1.3362  0.9763
30656SOL    HW296331   9.021  10.433   4.891 -0.5769  0.2616 -0.4691
30657SOL     OW96332   3.565   2.329   2.301  0.1499 -0.3151  0.1195
30657SOL    HW196333   3.537   2.316   2.211  1.6930  1.0629 -0.6167
30657SOL    HW296334   3.567   2.242   2.339 -2.1671 -0.7716 -0.6282
30658SOL     OW96335  11.041   9.188   1.607 -0.1276  0.3059  0.5429
30658SOL    HW196336  11.130   9.195   1.574  0.6092 -2.7866  1.5880
30658SOL    HW296337  11.050   9.171   1.701 -1.7684 -0.3945  0.6194
30659SOL     OW96338   6.478   0.082   0.679 -0.2091  0.8226 -0.3401
30659SOL    HW196339   6.430   0.038   0.609  0.5283  2.0639 -1.6783
30659SOL    HW296340   6.570   0.063   0.660  0.0065  1.3642  0.1455
30660SOL     OW96341   2.276   4.856   4.830 -0.0273 -0.3639 -0.2027
30660SOL    HW196342   2.197   4.866   4.777 -1.7486  0.0164  2.2851
30660SOL    HW296343   2.333   4.928   4.803 -0.4783 -0.6436 -2.0271
30661SOL     OW96344   3.011   2.509   1.742  0.1232  0.8554 -0.4309
30661SOL    HW196345   3.089   2.557   1.771 -0.2024  1.0090  0.1930
30661SOL    HW296346   3.011   2.520   1.647 -0.0912  2.3209 -0.2757
30662SOL     OW96347   8.945   9.917   8.315  0.3729 -0.4056 -0.6100
30662SOL    HW196348   8.928   9.828   8.283  2.5389 -0.7805 -0.8761
30662SOL    HW296349   8.901   9.920   8.400  1.7880 -2.4456  0.2970
30663SOL     OW96350   1.242   3.728   2.523 -0.7570  0.0786 -0.4941
30663SOL    HW196351   1.327   3.700   2.491 -0.2707  1.2371 -0.2663
30663SOL    HW296352   1.224   3.671   2.598 -0.4322 -0.5198 -0.8687
30664SOL     OW96353   3.035   4.478   0.189 -0.5110  0.0432 -0.0599
30664SOL    HW196354   3.126   4.490   0.217 -0.3609  0.7237 -0.7893
30664SOL    HW296355   2.983   4.524   0.255 -0.2428  0.5982 -0.2240
30665SOL     OW96356   6.106  10.135   7.452 -0.1557 -0.1092  0.2118
30665SOL    HW196357   6.046  10.186   7.397  0.6265 -0.4204 -0.9732
30665SOL    HW296358   6.136  10.197   7.519 -1.7746  0.0469  0.8272
30666SOL     OW96359   2.507  10.332   4.518  0.2969 -0.6562  0.0278
30666SOL    HW196360   2.476  10.244   4.541  0.7089 -0.9173 -0.4028
30666SOL    HW296361   2.446  10.391   4.563  1.0067 -1.1436  1.7333
30667SOL     OW96362   7.657   4.505   9.946 -0.1601 -0.6949 -0.0527
30667SOL    HW196363   7.570   4.500   9.985  0.0162  0.3605  0.5051
30667SOL    HW296364   7.649   4.455   9.865 -1.3505 -0.4257 -0.1264
30668SOL     OW96365   0.558   5.333   5.436 -0.0176  0.2179  0.2932
30668SOL    HW196366   0.626   5.265   5.437  0.8825  1.0542 -1.0760
30668SOL    HW296367   0.599   5.408   5.394 -1.7203  0.8351 -0.3731
30669SOL     OW96368   0.344  10.542   8.501 -0.3746  0.0590 -0.7679
30669SOL    HW196369   0.431  10.511   8.476 -0.7174 -0.7261 -1.0359
30669SOL    HW296370   0.286  10.471   8.474 -1.1818  0.8902 -1.2606
30670SOL     OW96371   9.827   3.090   5.982  0.1086  0.5010  0.2389
30670SOL    HW196372   9.761   3.021   5.976  0.0340  0.6415 -0.8058
30670SOL    HW296373   9.782   3.169   5.952  0.7272  0.6057 -0.4411
30671SOL     OW96374  10.838   6.376   9.674 -0.2191 -0.3198 -0.0485
30671SOL    HW196375  10.927   6.411   9.674  1.0951 -3.3363 -0.8619
30671SOL    HW296376  10.805   6.395   9.586 -0.5481  1.0536  0.3442
30672SOL     OW96377   1.378   8.112   0.410  0.0879  0.4109 -0.2843
30672SOL    HW196378   1.291   8.139   0.382  0.0795  0.7566  0.0747
30672SOL    HW296379   1.377   8.119   0.506 -0.0618 -1.2762 -0.1241
30673SOL     OW96380   8.387   0.512   0.620 -0.3617  0.6028  0.9096
30673SOL    HW196381   8.304   0.561   0.621 -0.3153  0.7481 -0.3806
30673SOL    HW296382   8.432   0.543   0.542 -0.5458 -1.8136 -0.2758
30674SOL     OW96383  10.877   3.250   2.626  0.2072  0.1232  0.1646
30674SOL    HW196384  10.937   3.324   2.632  0.0554  0.2900 -0.3352
30674SOL    HW296385  10.896   3.197   2.703  1.5003 -0.2149 -0.3615
30675SOL     OW96386   2.973   6.032   7.824  0.1038  0.2495 -0.4249
30675SOL    HW196387   3.035   6.099   7.793 -0.7587  1.8630  1.1079
30675SOL    HW296388   3.016   5.949   7.806  3.2186  1.2874  1.4056
30676SOL     OW96389   1.316   1.303   6.974 -0.0118  0.5803  0.3907
30676SOL    HW196390   1.331   1.214   6.942 -0.4006  1.1692 -1.5053
30676SOL    HW296391   1.294   1.291   7.067 -3.3728 -1.6508 -0.5048
30677SOL     OW96392   2.637   3.960   3.536  0.4078  0.5638  0.3483
30677SOL    HW196393   2.706   3.984   3.597  1.3978  0.8043 -0.8267
30677SOL    HW296394   2.618   4.040   3.488 -0.1491  0.3066  0.1262
30678SOL     OW96395   8.095   2.158   3.321 -0.3122  0.0448  0.4075
30678SOL    HW196396   8.140   2.144   3.238  0.2731  1.0784  0.5247
30678SOL    HW296397   8.002   2.156   3.299 -0.1609  0.3955 -0.2881
30679SOL     OW96398   9.331   6.592   1.727  0.4474  0.4547  0.2902
30679SOL    HW196399   9.308   6.681   1.751  1.1063  0.6340  0.2889
30679SOL    HW296400   9.266   6.537   1.772 -0.1378  0.9458  0.0453
30680SOL     OW96401   3.360   0.187   4.213 -0.0534  0.3656 -0.3344
30680SOL    HW196402   3.355   0.094   4.233 -1.5637  0.2544 -1.0985
30680SOL    HW296403   3.383   0.191   4.120  0.0099  0.7633 -0.3049
30681SOL     OW96404   0.249   1.122   7.237  0.5492 -0.2625 -0.0564
30681SOL    HW196405   0.187   1.126   7.310  0.9903 -1.3379  0.3970
30681SOL    HW296406   0.210   1.060   7.175  0.5047  0.1326 -0.4308
30682SOL     OW96407   0.856   0.447   3.920 -0.1897  0.0942 -0.5247
30682SOL    HW196408   0.817   0.521   3.967  0.4224  0.3299 -0.3691
30682SOL    HW296409   0.813   0.370   3.956  2.4650 -0.0535  2.8688
30683SOL     OW96410   4.605  10.709   6.860  0.0163  0.6968 -0.4408
30683SOL    HW196411   4.590  10.624   6.820 -0.1591  1.1908 -1.4510
30683SOL    HW296412   4.643  10.689   6.946 -2.0716 -0.4518  0.2752
30684SOL     OW96413   9.782   2.544   7.585  0.0022  0.2088  0.0071
30684SOL    HW196414   9.771   2.533   7.679  2.1344 -1.3453  0.1425
30684SOL    HW296415   9.732   2.472   7.547 -0.3436  0.4621 -0.0185
30685SOL     OW96416   7.180   2.445   3.603 -0.3232 -0.3601 -0.0815
30685SOL    HW196417   7.098   2.416   3.564  0.4176 -1.6849 -0.7375
30685SOL    HW296418   7.202   2.378   3.667 -0.6737  0.9498  1.4617
30686SOL     OW96419   9.401   2.434   6.634 -0.1755  0.4352 -0.1688
30686SOL    HW196420   9.391   2.477   6.719  0.2260 -0.6853  0.4646
30686SOL    HW296421   9.494   2.415   6.627 -0.2081  0.5070 -0.8598
30687SOL     OW96422   4.507   4.399   2.177 -0.2760 -0.1975 -0.4166
30687SOL    HW196423   4.586   4.430   2.223 -0.4384 -0.8368  0.3007
30687SOL    HW296424   4.477   4.476   2.128  1.4030 -0.2204 -1.5919
30688SOL     OW96425   7.799   1.196   0.177  0.2408  0.0997  0.1880
30688SOL    HW196426   7.796   1.120   0.235 -1.5718 -0.1314 -0.1352
30688SOL    HW296427   7.801   1.272   0.236  0.8160 -0.1728  0.5217
30689SOL     OW96428   4.934   7.098   7.749  0.2184  0.4567 -0.4274
30689SOL    HW196429   4.999   7.127   7.686  1.9160  1.6034  1.7177
30689SOL    HW296430   4.946   7.155   7.825 -2.7200  0.1361  0.4296
30690SOL     OW96431   5.314   7.113   4.175 -0.0750  0.1505  0.4812
30690SOL    HW196432   5.349   7.156   4.253 -1.7847  0.5274  1.0670
30690SOL    HW296433   5.277   7.184   4.123 -0.7732 -0.3317  0.3062
30691SOL     OW96434   1.205   1.556   7.104 -0.2737 -0.4712  0.0388
30691SOL    HW196435   1.225   1.641   7.064 -1.4750  0.0658  0.5305
30691SOL    HW296436   1.226   1.492   7.036 -1.2580  0.3510 -1.0773
30692SOL     OW96437   3.445   7.452  10.566 -0.5684  0.8017  0.4100
30692SOL    HW196438   3.366   7.485  10.525 -1.0002 -0.9427 -0.2641
30692SOL    HW296439   3.478   7.525  10.619 -0.8814  2.5969 -1.7467
30693SOL     OW96440   3.801  10.737  11.115 -0.5757 -0.1810 -0.4637
30693SOL    HW196441   3.804  10.811  11.176  0.0922  0.3170 -1.0850
30693SOL    HW296442   3.808  10.660  11.172  1.7672  0.3011  0.0377
30694SOL     OW96443   1.639   4.739   4.639  0.5529 -0.5536 -0.3758
30694SOL    HW196444   1.656   4.748   4.733  0.7579 -0.0386 -0.4597
30694SOL    HW296445   1.550   4.702   4.634 -0.1076  0.9104  0.0026
30695SOL     OW96446   9.411   4.552   8.404 -0.1546 -0.3716 -0.0060
30695SOL    HW196447   9.458   4.538   8.322  0.7936  1.5328  0.1470
30695SOL    HW296448   9.428   4.644   8.425  0.7781 -1.1383  3.0366
30696SOL     OW96449   1.314   9.662   0.403  0.0947  0.4910 -0.3480
30696SOL    HW196450   1.243   9.689   0.462  1.7928  2.8874  0.7378
30696SOL    HW296451   1.302   9.715   0.325 -1.0497 -1.3412 -1.4771
30697SOL     OW96452   0.908   9.194  10.392  0.3601 -0.1444 -0.5265
30697SOL    HW196453   0.978   9.170  10.331  0.1732  0.1574 -0.8650
30697SOL    HW296454   0.920   9.288  10.405 -0.5034  0.0841 -1.2689
30698SOL     OW96455   0.554  10.585   1.394  0.7150 -0.1158 -0.0482
30698SOL    HW196456   0.485  10.652   1.394 -1.5348 -2.3054  0.0642
30698SOL    HW296457   0.547  10.545   1.308  0.8790 -1.3051  0.4815
30699SOL     OW96458   4.986   4.681   4.751 -0.5549 -0.2601  0.1385
30699SOL    HW196459   4.994   4.586   4.743  0.4215 -0.1097 -0.9786
30699SOL    HW296460   4.954   4.710   4.666 -0.0564  0.4832  0.1935
30700SOL     OW96461   3.228   8.082   2.515 -0.4658 -0.2881  0.1885
30700SOL    HW196462   3.136   8.059   2.533 -0.7631  1.6355  1.4362
30700SOL    HW296463   3.231   8.176   2.527  1.4845 -0.1834 -0.8806
30701SOL     OW96464   3.113   5.582  10.857  0.2327  0.1412  0.0125
30701SOL    HW196465   3.184   5.571  10.793  1.6952  0.4157  1.5393
30701SOL    HW296466   3.125   5.670  10.892 -1.6291  0.6769 -0.5339
30702SOL     OW96467   1.875   0.376   1.636  0.3047 -0.0929 -0.2706
30702SOL    HW196468   1.845   0.288   1.615  0.4553 -0.5240  1.2155
30702SOL    HW296469   1.944   0.364   1.701  2.9899  0.9405 -2.7065
30703SOL     OW96470   1.971   8.913   1.054 -0.4328 -0.0244 -0.2524
30703SOL    HW196471   2.027   8.948   1.123 -0.0941 -1.0971  0.0256
30703SOL    HW296472   2.006   8.826   1.036 -2.6659 -1.2012  0.7266
30704SOL     OW96473  10.302   5.358   0.534 -0.2630  0.1758 -0.4673
30704SOL    HW196474  10.294   5.408   0.614 -0.2384  0.5706 -0.7096
30704SOL    HW296475  10.224   5.380   0.483 -1.1984 -1.4507  0.2008
30705SOL     OW96476   2.354  10.832   3.996 -0.4550  0.3754 -0.0388
30705SOL    HW196477   2.325  10.923   3.988 -0.2988  0.3402 -1.0758
30705SOL    HW296478   2.441  10.831   3.955 -1.0403 -0.5350 -1.2979
30706SOL     OW96479   1.543  10.584   5.338 -0.2283  0.4254 -0.5039
30706SOL    HW196480   1.516  10.664   5.293  1.2315  0.6163 -1.0941
30706SOL    HW296481   1.473  10.522   5.321 -1.9537  1.8506  0.8682
30707SOL     OW96482   3.590   8.020   5.827 -0.3583  0.1005  0.3352
30707SOL    HW196483   3.577   8.094   5.767  1.6266 -0.5754 -1.0557
30707SOL    HW296484   3.502   7.995   5.854 -1.7281 -1.2171 -4.4293
30708SOL     OW96485   4.811   1.778  10.664 -0.2782 -0.6933 -0.4869
30708SOL    HW196486   4.813   1.792  10.569  1.5226  0.5795 -0.3250
30708SOL    HW296487   4.772   1.858  10.699  0.6892 -0.3750 -0.0902
30709SOL     OW96488   2.155   3.673   5.357  0.1847 -0.4283 -1.2071
30709SOL    HW196489   2.088   3.608   5.376  0.4843  0.0045  1.8653
30709SOL    HW296490   2.238   3.627   5.374  0.4801  0.1500 -1.0579
30710SOL     OW96491   8.946   1.049   7.489 -0.1516 -0.5775 -0.4661
30710SOL    HW196492   8.882   0.990   7.449 -0.5842 -0.4048 -0.0409
30710SOL    HW296493   8.928   1.134   7.449 -1.1942 -0.2011  0.7232
30711SOL     OW96494   0.438   9.521   5.883 -0.0477 -0.4463 -0.2334
30711SOL    HW196495   0.383   9.536   5.807 -0.5997  0.5349  0.3271
30711SOL    HW296496   0.517   9.573   5.865 -1.0054  1.4627  0.6927
30712SOL     OW96497   7.095   6.631   8.186  0.6946 -0.2066  0.3860
30712SOL    HW196498   7.057   6.602   8.268 -0.8103  1.6300  0.3939
30712SOL    HW296499   7.036   6.699   8.154  2.7345  1.1009 -0.8181
30713SOL     OW96500   5.815   3.127   4.516  0.3753  0.1500 -0.1269
30713SOL    HW196501   5.750   3.122   4.586  0.3744 -1.8537 -0.2135
30713SOL    HW296502   5.813   3.040   4.476  0.5770  1.1687 -2.4562
30714SOL     OW96503   5.802   1.799   4.091 -0.4098 -0.0525 -0.7990
30714SOL    HW196504   5.722   1.772   4.045 -1.6846  1.5705  0.3690
30714SOL    HW296505   5.820   1.727   4.151 -2.0897  0.3417  0.2395
30715SOL     OW96506   5.873  10.578   9.707  0.2620  0.6445 -0.5366
30715SOL    HW196507   5.808  10.532   9.655  1.6707 -0.3714 -1.4738
30715SOL    HW296508   5.957  10.554   9.668  1.3739  0.2839  1.8729
30716SOL     OW96509   8.294   1.261   2.509  0.2065  0.5059  0.2703
30716SOL    HW196510   8.267   1.243   2.599 -2.8217 -1.1474 -0.8188
30716SOL    HW296511   8.250   1.343   2.487 -1.4400 -0.5060 -0.4700
30717SOL     OW96512   1.408   9.091   5.395 -0.8414 -0.2422  0.2175
30717SOL    HW196513   1.469   9.023   5.364 -0.2650 -1.0153  2.7873
30717SOL    HW296514   1.326   9.071   5.350  0.0427 -0.8805 -1.2268
30718SOL     OW96515   3.378   4.797   1.456 -0.1013  0.3740 -0.3608
30718SOL    HW196516   3.344   4.805   1.367 -1.2040 -3.2981 -0.4242
30718SOL    HW296517   3.304   4.761   1.507  1.5301 -0.9832  1.1866
30719SOL     OW96518   8.472   1.652   9.761 -0.0389  0.1862 -0.1658
30719SOL    HW196519   8.427   1.736   9.774  1.5926  0.7430  2.4273
30719SOL    HW296520   8.531   1.668   9.687 -1.5229  0.4793 -1.3522
30720SOL     OW96521   4.704   4.215   0.492 -0.6795 -0.0143  0.3282
30720SOL    HW196522   4.735   4.266   0.566  0.7572 -2.4132  1.5324
30720SOL    HW296523   4.686   4.128   0.528 -1.7304 -0.7757 -1.8049
30721SOL     OW96524   6.317   2.614   8.391  0.1816  0.1019 -0.0361
30721SOL    HW196525   6.339   2.618   8.298  0.7451 -0.2500  0.0776
30721SOL    HW296526   6.260   2.689   8.405  2.9895  2.4048  0.0906
30722SOL     OW96527   3.585   9.855   2.979  0.0704  0.0830  0.1884
30722SOL    HW196528   3.496   9.868   2.946 -0.4433 -0.7899  1.1866
30722SOL    HW296529   3.590   9.909   3.057  0.8379  1.0791 -0.5263
30723SOL     OW96530   1.989   0.256   9.154 -0.2372 -0.5291  0.3242
30723SOL    HW196531   1.992   0.230   9.247 -0.6995  1.6382  0.9907
30723SOL    HW296532   1.963   0.176   9.109  1.2300 -1.9890  1.8889
30724SOL     OW96533   5.288   4.021   9.513 -0.3642  0.3777  0.3446
30724SOL    HW196534   5.375   4.034   9.550 -0.0638 -0.1369 -0.1649
30724SOL    HW296535   5.293   4.059   9.426  0.1870 -1.9610 -0.7386
30725SOL     OW96536   3.781   7.990   0.780  0.3461 -0.3479  0.2383
30725SOL    HW196537   3.809   7.942   0.702  2.5441  0.7493  0.2881
30725SOL    HW296538   3.763   8.079   0.748 -2.2113 -0.7149  0.4186
30726SOL     OW96539  10.686   8.376  11.064 -0.0056  0.0794  0.1700
30726SOL    HW196540  10.764   8.366  11.119  1.6802 -2.5649 -2.4081
30726SOL    HW296541  10.614   8.347  11.120  1.4975 -1.6720  1.3084
30727SOL     OW96542   3.355   7.670   4.676  0.3309 -0.1246 -0.2727
30727SOL    HW196543   3.293   7.612   4.633 -0.2975  0.9517 -0.8597
30727SOL    HW296544   3.306   7.708   4.750  1.0245 -1.0208  0.6850
30728SOL     OW96545   0.107   5.550   3.410 -0.5166 -0.1986 -1.0628
30728SOL    HW196546   0.192   5.574   3.373 -0.1633  1.2639  0.5606
30728SOL    HW296547   0.044   5.596   3.357 -0.1556  0.2509 -1.1062
30729SOL     OW96548   0.814   2.748   8.304 -0.7601 -0.2529  0.4475
30729SOL    HW196549   0.846   2.830   8.343 -3.9644  1.8852 -0.9579
30729SOL    HW296550   0.878   2.727   8.236 -0.9381  2.4804 -0.6982
30730SOL     OW96551   3.823   8.145   9.082  0.0537  0.3278  0.2828
30730SOL    HW196552   3.790   8.104   9.162  1.9027 -1.1935  0.3252
30730SOL    HW296553   3.820   8.076   9.016  1.7351  0.5275 -0.0568
30731SOL     OW96554   2.127   7.010   8.850 -0.0021 -0.9372 -0.3689
30731SOL    HW196555   2.043   7.025   8.894 -0.1836 -1.7613 -0.4294
30731SOL    HW296556   2.136   7.084   8.790  0.4760  0.5022  1.3441
30732SOL     OW96557  10.620   8.066   6.780 -0.0027  0.1004 -0.2172
30732SOL    HW196558  10.690   8.125   6.753 -0.0998  0.2473 -0.1506
30732SOL    HW296559  10.587   8.029   6.698  0.1706  0.0103 -0.2462
30733SOL     OW96560   9.606  10.939   8.242 -0.0173  0.3809  0.0660
30733SOL    HW196561   9.641  10.946   8.331 -0.5637  0.0179  0.3141
30733SOL    HW296562   9.540  10.870   8.247 -0.5330  0.8198 -0.4701
30734SOL     OW96563   9.371   7.147   7.408  0.2428  0.0448  0.3057
30734SOL    HW196564   9.306   7.121   7.342  0.7138  0.0973 -0.1878
30734SOL    HW296565   9.397   7.236   7.382  0.0296  0.2816  0.8865
30735SOL     OW96566   5.590   3.722   0.482 -0.1318 -0.0956  0.4739
30735SOL    HW196567   5.511   3.757   0.523 -0.9192  0.0210 -1.0962
30735SOL    HW296568   5.662   3.763   0.530 -1.0214  1.3412  0.6405
30736SOL     OW96569   2.799   7.375   3.448 -0.0233  1.0040 -0.1525
30736SOL    HW196570   2.740   7.313   3.492  1.8675 -0.3159  0.6752
30736SOL    HW296571   2.813   7.338   3.361  2.2696 -0.6974  0.8239
30737SOL     OW96572   5.302   5.552   4.848 -0.4651  0.5350 -0.2075
30737SOL    HW196573   5.209   5.572   4.861 -0.7194 -0.8267  0.2304
30737SOL    HW296574   5.311   5.461   4.876  1.0940  0.7797  0.1795
30738SOL     OW96575   6.969   7.824   4.607  0.2901 -0.2352  0.7128
30738SOL    HW196576   7.011   7.738   4.605 -2.2888 -1.5680 -0.1839
30738SOL    HW296577   7.021   7.878   4.547  0.8468 -1.7344 -0.2099
30739SOL     OW96578   9.946   9.035   3.028  0.2294 -0.3171  0.0353
30739SOL    HW196579   9.930   9.112   2.973  0.3335 -0.8389 -0.7375
30739SOL    HW296580   9.867   9.027   3.082 -0.1999 -0.2513 -0.5813
30740SOL     OW96581   9.770   6.480   5.200 -0.3800  0.5408 -0.3497
30740SOL    HW196582   9.714   6.485   5.277  0.4927 -0.3329  0.3781
30740SOL    HW296583   9.815   6.564   5.198 -1.9642  1.4084 -1.1722
30741SOL     OW96584   9.597   2.320   1.995 -0.3654  0.3665  0.1858
30741SOL    HW196585   9.641   2.316   2.080 -0.7090 -3.5964  0.3606
30741SOL    HW296586   9.667   2.312   1.931 -0.2198  2.2501  0.0346
30742SOL     OW96587   6.830  11.045  10.139 -0.1309 -0.1122 -0.1755
30742SOL    HW196588   6.893  11.116  10.134 -1.5493  1.1260 -1.7613
30742SOL    HW296589   6.864  10.978  10.079 -1.0327  1.2198 -2.2837
30743SOL     OW96590   0.027   6.963   3.725  0.4002 -0.1738 -0.2066
30743SOL    HW196591   0.008   6.945   3.817 -0.8637  0.6671 -0.2821
30743SOL    HW296592   0.123   6.970   3.721  0.3838  1.9082  1.4580
30744SOL     OW96593   5.588   3.848   4.200  0.2052  0.0985  0.4446
30744SOL    HW196594   5.634   3.818   4.121 -0.1976  1.7609 -0.4685
30744SOL    HW296595   5.508   3.796   4.202  0.5083 -0.3884  0.1007
30745SOL     OW96596   7.311  10.975   5.006 -0.1014  0.3004  0.3697
30745SOL    HW196597   7.329  10.881   5.009 -1.0107  0.0724 -0.7156
30745SOL    HW296598   7.394  11.014   4.978  0.4518 -0.0964  1.3812
30746SOL     OW96599   9.773   4.831   4.141 -0.1307 -0.1528 -0.6257
30746SOL    HW196600   9.815   4.847   4.056  1.6780  0.0948  0.2748
30746SOL    HW296601   9.688   4.794   4.118  0.9984 -1.8017 -2.5324
30747SOL     OW96602   2.296   9.084   7.397 -0.1444 -0.0119 -0.0567
30747SOL    HW196603   2.226   9.074   7.462 -1.5719 -0.6398 -1.6201
30747SOL    HW296604   2.311   9.178   7.393  0.1535  0.0248  1.3505
30748SOL     OW96605   6.349   3.267   3.807 -0.4802  0.3218  0.1571
30748SOL    HW196606   6.335   3.339   3.869  1.7046  0.7085  0.2697
30748SOL    HW296607   6.388   3.198   3.860  0.4728  0.2836 -0.5793
30749SOL     OW96608   9.195  11.034   8.257  0.2085  0.2260  0.1490
30749SOL    HW196609   9.276  11.002   8.296 -0.1122 -1.3918 -0.4391
30749SOL    HW296610   9.166  11.104   8.316  0.9461 -0.5664  1.4963
30750SOL     OW96611  11.049   9.374   8.468  0.5911 -0.5209 -0.0502
30750SOL    HW196612  11.095   9.324   8.401 -0.0483 -2.0618  0.6071
30750SOL    HW296613  10.984   9.313   8.503 -0.0724  0.7130  0.9596
30751SOL     OW96614   5.104   7.290   5.329  0.0087 -0.0041  0.5296
30751SOL    HW196615   5.026   7.302   5.383  0.2797 -0.9665  1.1500
30751SOL    HW296616   5.080   7.329   5.245 -1.0841 -0.1368  0.7607
30752SOL     OW96617   9.871  10.725  10.803  0.4884  0.2140 -0.2757
30752SOL    HW196618   9.793  10.777  10.820 -0.0478 -0.6378 -0.0579
30752SOL    HW296619   9.927  10.738  10.880  0.8365  1.2803 -0.6853
30753SOL     OW96620   3.630  10.782   2.165  0.4833  0.2707  0.0532
30753SOL    HW196621   3.550  10.835   2.167  1.0148  1.0676  1.1146
30753SOL    HW296622   3.681  10.812   2.240  0.4125 -2.3804  1.2949
30754SOL     OW96623   8.812   1.363   2.475 -0.1043  0.0452 -0.2889
30754SOL    HW196624   8.727   1.359   2.431 -0.0884  0.0957 -0.3248
30754SOL    HW296625   8.802   1.306   2.551 -0.5281  0.9193  0.3201
30755SOL     OW96626   1.971   7.207   4.420  0.6366 -0.0740  0.7436
30755SOL    HW196627   2.067   7.211   4.410  1.0879  0.9079  4.2282
30755SOL    HW296628   1.950   7.114   4.413  1.8221 -0.3148 -0.0023
30756SOL     OW96629   2.827   9.532   3.795  0.3488 -0.3407  0.1271
30756SOL    HW196630   2.828   9.603   3.731 -0.9252  0.1000  0.5731
30756SOL    HW296631   2.848   9.574   3.878 -0.4181 -0.4670  0.3948
30757SOL     OW96632   7.764   5.206   4.219  0.6712  0.1973  0.5888
30757SOL    HW196633   7.703   5.219   4.147  1.0659 -0.4328  0.1248
30757SOL    HW296634   7.842   5.168   4.178  0.9206 -0.1238  1.3361
30758SOL     OW96635   7.733  10.699   1.720  0.5346  0.6499 -0.2738
30758SOL    HW196636   7.737  10.705   1.815 -0.1972  0.4401 -0.2252
30758SOL    HW296637   7.823  10.717   1.691  0.6310  1.3138  0.4177
30759SOL     OW96638  10.479   2.850   1.791 -0.1270  0.1684  0.2274
30759SOL    HW196639  10.463   2.941   1.817 -0.2304  0.4644 -0.8382
30759SOL    HW296640  10.424   2.837   1.714 -1.2687 -1.2700  1.2161
30760SOL     OW96641   9.195   4.052   6.455  0.7128 -0.3168 -0.1090
30760SOL    HW196642   9.113   4.010   6.429  0.2220  0.8676 -0.5894
30760SOL    HW296643   9.169   4.142   6.476  1.6871 -0.3017  1.0718
30761SOL     OW96644   9.973   2.299   0.994  0.0923 -0.3069 -0.5450
30761SOL    HW196645  10.004   2.385   1.023 -0.0256 -0.0588 -1.1431
30761SOL    HW296646  10.021   2.237   1.050 -1.4972  0.1826  1.4712
30762SOL     OW96647   5.166   6.418   9.182  0.5941 -0.2195  0.0123
30762SOL    HW196648   5.173   6.453   9.271 -0.4282 -0.7599  0.3179
30762SOL    HW296649   5.130   6.491   9.131 -0.5861 -0.4865  0.4405
30763SOL     OW96650   5.441   9.538   1.964 -0.1420 -0.0216  0.2446
30763SOL    HW196651   5.355   9.495   1.964 -0.6790  1.0207 -0.1357
30763SOL    HW296652   5.422   9.631   1.952  1.1028  0.0802 -1.3327
30764SOL     OW96653  10.810   6.743   2.985 -0.7608  0.4390 -0.0970
30764SOL    HW196654  10.840   6.704   2.903  2.3562 -0.5147  1.3194
30764SOL    HW296655  10.749   6.678   3.021  1.6725 -1.6459  0.5641
30765SOL     OW96656   8.329   8.791   1.206 -0.2719  0.7320  0.0952
30765SOL    HW196657   8.398   8.845   1.243  1.0775 -0.8816  0.0687
30765SOL    HW296658   8.284   8.848   1.144  0.3461  2.1330  0.8928
30766SOL     OW96659   7.055   6.201  10.577 -0.1081 -0.3452  0.3381
30766SOL    HW196660   7.018   6.241  10.498 -1.4324  0.1762  1.1778
30766SOL    HW296661   7.108   6.269  10.616  0.3287 -0.5142  0.0425
30767SOL     OW96662   4.486   8.943   0.118  0.3880  0.0822 -0.0908
30767SOL    HW196663   4.563   8.977   0.073  0.2559 -0.6822 -0.9201
30767SOL    HW296664   4.515   8.859   0.155 -0.0578 -0.2372 -0.4565
30768SOL     OW96665   7.318   9.015   3.473  0.0891 -0.1907 -0.5070
30768SOL    HW196666   7.271   9.034   3.392  1.3775  1.8791 -0.8430
30768SOL    HW296667   7.402   8.978   3.444  1.5407  2.7054 -0.3460
30769SOL     OW96668   0.677   8.165   8.020 -0.3355  0.1230  0.4727
30769SOL    HW196669   0.728   8.221   8.077 -1.5188  1.3373  0.3936
30769SOL    HW296670   0.661   8.218   7.941  1.4777 -1.5973 -1.1557
30770SOL     OW96671   2.935   9.534   7.378 -0.1824  0.0937 -0.6263
30770SOL    HW196672   2.847   9.506   7.354  0.6556 -1.6432 -1.9304
30770SOL    HW296673   2.983   9.452   7.392  1.3591  0.9858 -0.4801
30771SOL     OW96674  11.014   8.467   6.553 -0.0827 -0.1585 -0.2943
30771SOL    HW196675  10.980   8.389   6.510 -2.2983  0.2864  0.4738
30771SOL    HW296676  10.938   8.525   6.559  0.2655  0.1767  3.3023
30772SOL     OW96677   8.361   6.736   8.838 -0.0581  0.4891  0.0555
30772SOL    HW196678   8.453   6.762   8.840  0.3681 -0.9148 -0.3409
30772SOL    HW296679   8.325   6.782   8.763  0.4914  0.4977 -0.2057
30773SOL     OW96680   3.990   1.464   2.027  0.2037 -0.1269  0.1883
30773SOL    HW196681   3.973   1.373   2.003 -2.9257  0.5173 -0.5387
30773SOL    HW296682   3.984   1.464   2.123  0.6645 -0.7522  0.2251
30774SOL     OW96683   0.666  10.978   0.571 -0.3679  0.3934 -0.4395
30774SOL    HW196684   0.722  10.906   0.601  2.3328  1.9451 -1.3865
30774SOL    HW296685   0.577  10.942   0.574  0.5630 -2.0592  1.6689
30775SOL     OW96686   8.631   5.776   1.378 -0.3338 -0.1600  0.7183
30775SOL    HW196687   8.663   5.688   1.398  1.6750  0.3999  0.1612
30775SOL    HW296688   8.610   5.814   1.463 -1.1646 -1.1174  0.9707
30776SOL     OW96689   8.787  10.223   8.384 -0.2147 -0.2653 -0.3012
30776SOL    HW196690   8.748  10.143   8.419  1.3439 -0.4788  1.0441
30776SOL    HW296691   8.856  10.192   8.324 -0.8769  0.0994 -1.2814
30777SOL     OW96692   1.435   0.420   1.433  0.9883 -0.1409 -0.5171
30777SOL    HW196693   1.487   0.458   1.504 -1.4945  0.4354  1.1171
30777SOL    HW296694   1.385   0.494   1.398 -0.1561 -0.9757 -0.7151
30778SOL     OW96695   5.545   4.070   9.628  0.1597 -0.1317 -0.6924
30778SOL    HW196696   5.608   4.131   9.589  0.4457 -1.7671 -2.9876
30778SOL    HW296697   5.570   3.984   9.594 -2.5584 -1.0231 -0.6848
30779SOL     OW96698   7.897   6.042   6.882 -0.0790 -0.0202 -0.3776
30779SOL    HW196699   7.939   6.066   6.965  1.7171 -2.0598 -0.6100
30779SOL    HW296700   7.893   5.946   6.885 -1.3851 -0.0444 -2.0145
30780SOL     OW96701   1.686   8.522   6.846 -0.3535 -0.2018  0.4807
30780SOL    HW196702   1.641   8.450   6.892 -0.3034  0.0646  0.9526
30780SOL    HW296703   1.644   8.601   6.879  0.4345  0.0540  0.9044
30781SOL     OW96704   0.418   5.014   8.223 -0.6432  0.4127 -0.0173
30781SOL    HW196705   0.344   5.068   8.196  0.1545  1.1188 -0.8327
30781SOL    HW296706   0.415   5.017   8.319 -0.8557  1.5755 -0.0454
30782SOL     OW96707   5.434   3.612   2.217  0.1204 -0.2721  0.7771
30782SOL    HW196708   5.386   3.662   2.151  2.4568 -0.3025 -1.1187
30782SOL    HW296709   5.368   3.559   2.261 -1.6459  0.2345 -1.1208
30783SOL     OW96710   6.224   8.940   3.907 -0.6410 -0.1442  0.2360
30783SOL    HW196711   6.300   8.939   3.848 -1.0587 -1.7157 -0.3116
30783SOL    HW296712   6.261   8.935   3.995  0.0942  3.8466  0.3655
30784SOL     OW96713   1.871   2.864   8.540 -0.8323  0.5967 -0.0056
30784SOL    HW196714   1.966   2.874   8.532 -0.6666 -0.9491 -0.1994
30784SOL    HW296715   1.854   2.776   8.508 -2.3793  0.9613 -0.2376
30785SOL     OW96716   1.356   7.778   9.164 -0.3714 -0.1872  0.0785
30785SOL    HW196717   1.432   7.821   9.125 -0.8992  1.4207  0.7235
30785SOL    HW296718   1.347   7.819   9.251 -2.4066  0.2443 -0.2803
30786SOL     OW96719   3.814   8.830   3.843  0.3310 -0.3224  1.1245
30786SOL    HW196720   3.772   8.837   3.758 -1.0545 -1.5964  1.6567
30786SOL    HW296721   3.880   8.761   3.832  0.0909 -0.5500  1.0892
30787SOL     OW96722   7.661   5.394   9.385  0.7135 -0.3295 -0.3058
30787SOL    HW196723   7.727   5.437   9.331  1.1302 -2.4702 -1.6066
30787SOL    HW296724   7.711   5.349   9.453  0.2768  1.1341  1.0659
30788SOL     OW96725   1.094   5.021   0.572 -0.0902  0.1815  0.1239
30788SOL    HW196726   1.131   4.936   0.598 -0.3289  0.2745  0.7990
30788SOL    HW296727   1.067   5.008   0.481 -0.4159 -0.5778  0.3128
30789SOL     OW96728   5.967   9.941   5.081  0.1944 -0.0423 -0.2478
30789SOL    HW196729   6.050   9.962   5.123 -0.5436  1.6682  0.4450
30789SOL    HW296730   5.933   9.865   5.130  0.9567 -0.2344 -0.0128
30790SOL     OW96731   8.180   4.628   5.942 -0.3077  0.0043  0.2381
30790SOL    HW196732   8.124   4.569   5.992 -2.8104  0.7720 -1.5053
30790SOL    HW296733   8.171   4.713   5.985  0.0159  0.0126  0.2956
30791SOL     OW96734   1.054   6.227   2.682 -0.2948 -0.2526  0.0421
30791SOL    HW196735   1.134   6.220   2.733 -1.0655 -0.3529  1.2671
30791SOL    HW296736   1.031   6.137   2.661 -1.2081 -0.4009  1.5230
30792SOL     OW96737   0.640   6.816  10.810  0.2607  0.2032 -0.3532
30792SOL    HW196738   0.721   6.862  10.833 -0.5668  1.8680 -0.6278
30792SOL    HW296739   0.587   6.882  10.764 -2.2922 -0.0567  1.9943
30793SOL     OW96740   8.744   9.259   4.053  0.0602 -0.6721 -0.1956
30793SOL    HW196741   8.655   9.233   4.027 -0.3276  1.0878 -0.7348
30793SOL    HW296742   8.737   9.275   4.148 -0.8683  1.7954 -0.6043
30794SOL     OW96743   9.250   3.370   6.472  0.0977 -0.1241 -0.2802
30794SOL    HW196744   9.312   3.436   6.503 -0.4607  0.6764 -0.8287
30794SOL    HW296745   9.257   3.374   6.377 -0.2956 -0.5069 -0.3252
30795SOL     OW96746   8.793   0.386  10.519  0.7347 -0.2636  0.2978
30795SOL    HW196747   8.849   0.457  10.486  0.4127 -0.2698 -0.2695
30795SOL    HW296748   8.704   0.421  10.512  0.7143  0.1370  2.1482
30796SOL     OW96749   6.381  10.643   2.738 -0.3799  0.0677  0.0535
30796SOL    HW196750   6.327  10.611   2.665  0.7324 -0.5084 -0.5345
30796SOL    HW296751   6.416  10.726   2.706 -1.6953  0.9545  0.8271
30797SOL     OW96752   4.915   0.337   7.748 -0.3048 -0.2007  0.1711
30797SOL    HW196753   4.843   0.396   7.770 -1.6562 -1.4271 -0.7679
30797SOL    HW296754   4.930   0.285   7.828 -0.1122  0.3734  0.5171
30798SOL     OW96755   6.305  10.955   5.698 -0.0273 -0.1887  0.6205
30798SOL    HW196756   6.250  10.979   5.773 -1.6063  0.9560 -0.8377
30798SOL    HW296757   6.345  11.037   5.671  0.6287 -0.6193  0.2570
30799SOL     OW96758  10.994   6.264   8.097 -0.6617 -0.4611 -0.6903
30799SOL    HW196759  11.016   6.225   8.182 -1.4469  0.3990 -0.0785
30799SOL    HW296760  11.049   6.216   8.035  0.9596 -0.1932  0.4549
30800SOL     OW96761   8.786   7.894   8.093 -0.8838  0.7514 -0.2352
30800SOL    HW196762   8.757   7.926   8.008  3.1522  1.0104 -1.7616
30800SOL    HW296763   8.822   7.807   8.075  0.8951  1.1890  0.9354
30801SOL     OW96764   7.233   9.189   1.815 -0.4317  0.3838  0.0990
30801SOL    HW196765   7.185   9.270   1.799  1.0865  1.6360  1.4482
30801SOL    HW296766   7.266   9.199   1.905  2.1993 -0.4023 -0.6924
30802SOL     OW96767   8.760   4.202   9.644 -0.2333  0.3677  0.7767
30802SOL    HW196768   8.855   4.206   9.630 -0.2337 -1.2298  0.1218
30802SOL    HW296769   8.729   4.289   9.618  0.9204  0.5159 -0.2209
30803SOL     OW96770  10.739   0.536   5.351  0.2978  0.6099 -0.3664
30803SOL    HW196771  10.750   0.623   5.312 -1.3877  1.2330  0.4580
30803SOL    HW296772  10.829   0.503   5.359  0.8235  1.2521 -2.8680
30804SOL     OW96773   0.507   7.629   9.104  0.0464 -1.2323 -0.7911
30804SOL    HW196774   0.589   7.584   9.083 -0.3302 -1.6868 -1.3039
30804SOL    HW296775   0.466   7.573   9.169  0.5721 -0.5218  0.1823
30805SOL     OW96776   0.295   0.129   4.858 -0.6049 -0.2662  0.0010
30805SOL    HW196777   0.200   0.144   4.856 -0.7249 -0.4171  1.9619
30805SOL    HW296778   0.314   0.111   4.951  1.5413  1.0635 -0.1136
30806SOL     OW96779   9.524  10.772   3.081 -0.0236 -0.0796  0.2278
30806SOL    HW196780   9.451  10.715   3.059 -1.2207  1.7076 -0.7381
30806SOL    HW296781   9.593  10.749   3.018 -0.9444  0.3353 -0.9733
30807SOL     OW96782   9.026   2.817   2.333  0.3699 -0.0094 -0.0076
30807SOL    HW196783   9.034   2.725   2.310  0.5953 -0.1193  0.5013
30807SOL    HW296784   8.942   2.823   2.379  0.7341 -0.1224  0.6930
30808SOL     OW96785   4.181   0.216   6.254 -0.0371 -0.2419 -0.2672
30808SOL    HW196786   4.106   0.183   6.205  0.7676 -0.4816 -1.3739
30808SOL    HW296787   4.185   0.161   6.333 -1.0373 -0.1927 -0.1777
30809SOL     OW96788   5.628   9.205  10.537  0.3620 -0.3403 -0.0508
30809SOL    HW196789   5.714   9.193  10.496 -0.3068 -1.0958 -1.2908
30809SOL    HW296790   5.589   9.118  10.536 -0.7944  0.1723 -0.3546
30810SOL     OW96791   9.477   9.598   7.010 -0.0908 -0.4921  0.2714
30810SOL    HW196792   9.384   9.587   6.994 -0.0843  0.4267 -0.5257
30810SOL    HW296793   9.482   9.657   7.085 -0.1459 -0.7335  0.4655
30811SOL     OW96794   0.429   7.139   1.857 -0.5146 -0.0236 -0.0891
30811SOL    HW196795   0.488   7.159   1.784 -0.8133  0.5623 -0.1765
30811SOL    HW296796   0.379   7.064   1.827 -1.6853  1.1175 -1.1216
30812SOL     OW96797   0.439  10.742   9.433  0.3093  0.5524 -0.3423
30812SOL    HW196798   0.415  10.713   9.521  0.2711  0.6637 -0.3165
30812SOL    HW296799   0.398  10.677   9.375 -1.3983  1.6058 -0.3788
30813SOL     OW96800   1.872  10.446   8.096 -0.3341 -0.3210  0.2061
30813SOL    HW196801   1.780  10.466   8.078  0.1615  0.3876 -1.8438
30813SOL    HW296802   1.877  10.350   8.095 -0.8782 -0.3533 -0.7782
30814SOL     OW96803   9.192  10.684   2.295  0.1014  0.5699  0.0328
30814SOL    HW196804   9.176  10.747   2.365  2.1615 -0.1791  1.2642
30814SOL    HW296805   9.251  10.729   2.235  0.2687  0.3912  0.0606
30815SOL     OW96806   8.878   9.313   1.454  0.5949 -0.4509 -0.4557
30815SOL    HW196807   8.850   9.228   1.489  0.7128  0.5206  2.2529
30815SOL    HW296808   8.962   9.296   1.413  0.0252 -1.8583 -1.0847
30816SOL     OW96809   0.664   2.903   2.722 -0.5206 -0.1078 -0.4754
30816SOL    HW196810   0.659   2.826   2.779 -2.5356  0.1670 -0.2103
30816SOL    HW296811   0.729   2.960   2.764 -0.4111 -0.8330  0.3673
30817SOL     OW96812   5.974   5.183   8.803  0.4934  0.4634 -0.2243
30817SOL    HW196813   5.879   5.187   8.790  0.3426 -2.1087 -0.4211
30817SOL    HW296814   5.994   5.259   8.858 -1.6116  1.2647 -0.4667
30818SOL     OW96815   0.241   1.900   3.976  0.5305  0.1982 -0.1336
30818SOL    HW196816   0.201   1.976   3.934 -0.6810  0.1205  0.8239
30818SOL    HW296817   0.283   1.935   4.055  0.1180 -0.0879  0.2173
30819SOL     OW96818   3.183   3.819   3.981 -0.1092 -0.3630  0.1862
30819SOL    HW196819   3.226   3.772   4.053  1.1996  1.4905  0.6943
30819SOL    HW296820   3.172   3.908   4.014  0.5835  0.5603 -1.9257
30820SOL     OW96821   4.326   9.111   4.978 -0.6470  0.1728 -0.2979
30820SOL    HW196822   4.345   9.029   5.024 -1.1084  0.3202  0.1822
30820SOL    HW296823   4.347   9.180   5.042  2.7359  0.6427 -1.7083
30821SOL     OW96824   0.626   1.447   0.443 -0.1681 -0.2345  0.0076
30821SOL    HW196825   0.650   1.389   0.371  1.9015 -0.2706  0.6396
30821SOL    HW296826   0.652   1.534   0.413 -2.3274  0.2797 -0.5343
30822SOL     OW96827   2.642   8.585  10.819  0.1907 -0.3986  0.4405
30822SOL    HW196828   2.668   8.497  10.848  1.1949  0.5190  2.4681
30822SOL    HW296829   2.634   8.636  10.900  0.1210  1.5284 -0.7249
30823SOL     OW96830   9.764   5.581   0.535 -0.2978 -0.2202  0.5892
30823SOL    HW196831   9.810   5.648   0.485 -1.8881  0.9491  0.6079
30823SOL    HW296832   9.733   5.519   0.470  0.5042 -0.5342  0.4921
30824SOL     OW96833   3.898   3.633   3.909  0.0183 -0.2680  0.4264
30824SOL    HW196834   3.867   3.712   3.864 -0.0298 -0.2919  0.4175
30824SOL    HW296835   3.974   3.604   3.858  0.4800  0.1835  0.8488
30825SOL     OW96836   7.268  10.885   7.749 -0.4327  0.2264 -0.1947
30825SOL    HW196837   7.286  10.792   7.764 -2.0712  0.3308  3.3019
30825SOL    HW296838   7.349  10.929   7.775  0.6292 -0.1558 -2.6007
30826SOL     OW96839   6.711   9.182   9.322  0.3292  0.0547 -0.7052
30826SOL    HW196840   6.764   9.215   9.249  0.4363  1.1718 -0.1455
30826SOL    HW296841   6.635   9.142   9.280 -0.2549  1.8034 -1.4352
30827SOL     OW96842   7.801   4.851   4.102  0.1080 -0.5830 -0.6249
30827SOL    HW196843   7.865   4.873   4.170  0.3526 -1.7033 -0.4762
30827SOL    HW296844   7.716   4.860   4.145  0.2818 -1.8607  0.0167
30828SOL     OW96845  10.812  10.308   0.474  0.4617  0.5211  0.1154
30828SOL    HW196846  10.885  10.336   0.418  0.5453  0.1691  0.0486
30828SOL    HW296847  10.846  10.232   0.521 -1.2107 -2.4064 -3.0407
30829SOL     OW96848   5.917   7.677   4.816  0.5613  0.7615 -0.0843
30829SOL    HW196849   5.957   7.593   4.841  0.2088 -0.0199 -1.9985
30829SOL    HW296850   5.983   7.721   4.763 -0.0510  0.7321 -0.8799
30830SOL     OW96851   4.700   9.223   1.672  0.4696  0.2898  0.3566
30830SOL    HW196852   4.636   9.291   1.690  1.0773  0.4255  2.2249
30830SOL    HW296853   4.784   9.264   1.688  0.9099 -0.5453  0.2491
30831SOL     OW96854   7.406   2.015   9.366  0.5023  0.0742 -0.4858
30831SOL    HW196855   7.364   1.930   9.380  0.4954  0.2508  0.7216
30831SOL    HW296856   7.385   2.039   9.276 -0.5335 -0.6432 -0.4463
30832SOL     OW96857   6.711   7.215  10.664 -0.2196  0.4939  0.3987
30832SOL    HW196858   6.664   7.297  10.684 -0.1558  1.2474 -2.1988
30832SOL    HW296859   6.641   7.151  10.650 -0.3124  0.4361  1.1008
30833SOL     OW96860   5.316   6.271   5.576 -0.0265 -0.4351 -0.0127
30833SOL    HW196861   5.384   6.215   5.536  0.3298 -1.8546  2.3944
30833SOL    HW296862   5.352   6.295   5.661 -2.1755 -0.5032  0.9748
30834SOL     OW96863   7.650   4.410   2.779 -0.7485 -0.4491  0.4247
30834SOL    HW196864   7.589   4.354   2.826 -0.1196 -0.0417  1.7935
30834SOL    HW296865   7.638   4.497   2.818  0.8281 -0.4029  0.9003
30835SOL     OW96866   5.329   7.771   6.902 -0.0603  0.2466 -0.0426
30835SOL    HW196867   5.392   7.734   6.964  0.9502  2.6164  0.4654
30835SOL    HW296868   5.254   7.797   6.956  0.6270  1.8844  0.1912
30836SOL     OW96869   7.616   1.668   9.856  0.5930  0.3279 -0.2635
30836SOL    HW196870   7.659   1.583   9.851  0.3340 -0.1868  3.3715
30836SOL    HW296871   7.547   1.664   9.790  1.4365 -1.7136 -1.1144
30837SOL     OW96872   0.718   2.033   6.165  0.9166  0.0642  0.5211
30837SOL    HW196873   0.735   2.050   6.258  2.1570  0.2109  0.2946
30837SOL    HW296874   0.805   2.040   6.124  0.4389 -0.3570 -0.5907
30838SOL     OW96875   9.778   4.190   5.587 -0.3387  0.0093 -0.3687
30838SOL    HW196876   9.783   4.124   5.517 -1.3797 -0.1085 -0.3401
30838SOL    HW296877   9.712   4.252   5.557  0.3099  0.8035 -0.1836
30839SOL     OW96878   3.102  10.462   5.509  0.5492 -0.3004  0.2107
30839SOL    HW196879   3.088  10.526   5.579  2.5712  0.5399 -0.0861
30839SOL    HW296880   3.145  10.388   5.553  2.2610  0.4282 -0.1866
30840SOL     OW96881   5.855   8.238   4.098  0.1950 -0.0587 -0.0497
30840SOL    HW196882   5.863   8.249   4.193  1.6238  0.5718 -0.2228
30840SOL    HW296883   5.927   8.179   4.075  1.0702  1.3070 -0.9729
30841SOL     OW96884   4.349   4.884   6.434  0.1414  0.6044 -0.0924
30841SOL    HW196885   4.355   4.973   6.401 -0.1749  0.2361 -1.1742
30841SOL    HW296886   4.417   4.836   6.388 -1.2861 -0.2509 -1.4081
30842SOL     OW96887  10.591   2.617   7.977  0.1172  0.4813 -0.5930
30842SOL    HW196888  10.622   2.693   7.927 -0.6327  0.8185 -0.5539
30842SOL    HW296889  10.655   2.549   7.959 -1.2183 -0.0905 -3.7044
30843SOL     OW96890   4.811  10.440   8.627 -0.2288  0.5074  0.1714
30843SOL    HW196891   4.765  10.454   8.544  0.3782 -2.0209 -0.6873
30843SOL    HW296892   4.748  10.393   8.681  0.4661 -0.8163 -0.1266
30844SOL     OW96893   1.648   1.115   3.739 -0.3526 -0.1025  0.0552
30844SOL    HW196894   1.553   1.117   3.747 -0.3358 -0.8181  0.6035
30844SOL    HW296895   1.676   1.203   3.764 -0.6543 -0.8775  3.6764
30845SOL     OW96896  10.227   4.642   3.633  0.6691  0.0133  0.0983
30845SOL    HW196897  10.261   4.666   3.547  1.7790 -1.1795  0.1687
30845SOL    HW296898  10.288   4.576   3.665 -0.5011 -0.5709  1.2181
30846SOL     OW96899  10.509   9.268  10.762 -0.6575  0.2575  0.4930
30846SOL    HW196900  10.511   9.294  10.854  1.9603  1.6395  0.1217
30846SOL    HW296901  10.534   9.176  10.763  0.7232  0.6136  1.1062
30847SOL     OW96902   4.406   1.572   1.499 -0.2116  0.0501 -0.1224
30847SOL    HW196903   4.342   1.589   1.430 -0.2021 -0.9398 -0.3871
30847SOL    HW296904   4.490   1.599   1.462 -0.3104  0.2278 -0.2147
30848SOL     OW96905   8.939   3.602   6.978 -0.9129 -0.1318  0.4515
30848SOL    HW196906   8.949   3.583   6.885 -1.7653 -1.5243  0.6136
30848SOL    HW296907   9.011   3.554   7.020 -0.0245  1.1693  0.4625
30849SOL     OW96908   4.496   7.723   7.140  0.0953  0.2575  0.1343
30849SOL    HW196909   4.538   7.748   7.057  0.6400  0.8013  0.5623
30849SOL    HW296910   4.410   7.692   7.114  1.0793 -1.8696 -0.8922
30850SOL     OW96911   5.889   0.448   9.830 -0.3283  0.0786  0.3570
30850SOL    HW196912   5.947   0.501   9.885 -0.6168 -0.3798  1.1304
30850SOL    HW296913   5.935   0.364   9.821 -0.6149 -0.1007  0.5261
30851SOL     OW96914  10.731   6.240   0.819 -0.3716  0.4851  1.2633
30851SOL    HW196915  10.747   6.310   0.755  1.4475 -1.4709 -0.5746
30851SOL    HW296916  10.805   6.246   0.880  2.4247 -2.3413 -1.4474
30852SOL     OW96917   2.247   8.997   1.659  0.7655  0.1900  0.0988
30852SOL    HW196918   2.305   8.941   1.607  1.0342  1.5399 -1.0959
30852SOL    HW296919   2.217   9.065   1.599 -1.0554  0.2808  1.0309
30853SOL     OW96920   4.796   8.596   4.286  0.0628  0.3843  0.1010
30853SOL    HW196921   4.866   8.605   4.352  0.8782 -1.6593 -0.4023
30853SOL    HW296922   4.838   8.551   4.213 -1.0748  1.7419 -1.4738
30854SOL     OW96923   3.325   9.034   4.685 -0.3770  0.2404  0.3121
30854SOL    HW196924   3.322   9.031   4.589 -1.2231 -1.0883  0.3570
30854SOL    HW296925   3.390   8.968   4.709  1.3309  1.9530  0.6319
30855SOL     OW96926  10.524   0.656  10.109  0.4993 -0.2200  0.0843
30855SOL    HW196927  10.430   0.667  10.121  0.6062  2.8752 -0.9965
30855SOL    HW296928  10.540   0.686  10.019  2.5776 -0.1897  0.4130
30856SOL     OW96929   5.978   1.598   5.082 -0.2856 -0.6230 -0.2786
30856SOL    HW196930   5.973   1.505   5.059  0.6253 -0.3893 -1.5288
30856SOL    HW296931   6.067   1.609   5.116 -0.9855 -0.5588  1.6296
30857SOL     OW96932   3.600   1.824   9.984 -0.1105  0.1864 -0.8605
30857SOL    HW196933   3.538   1.832  10.056  1.4251 -0.9138  0.6788
30857SOL    HW296934   3.582   1.899   9.928 -0.4078  1.9306  1.4218
30858SOL     OW96935   9.640   0.305   7.830  0.3897 -0.7462  0.6500
30858SOL    HW196936   9.734   0.320   7.839  0.5112 -0.2017 -1.1374
30858SOL    HW296937   9.624   0.224   7.878  1.9185 -1.2744  0.3143
30859SOL     OW96938   7.159   3.854   6.094 -0.3792  0.1540 -0.2102
30859SOL    HW196939   7.081   3.822   6.049  0.7472 -0.6759 -1.6521
30859SOL    HW296940   7.182   3.783   6.154  0.0580 -0.2329 -0.8177
30860SOL     OW96941   4.966   6.996   0.564  0.1998 -0.2513  0.1048
30860SOL    HW196942   4.902   7.014   0.633  0.1881  0.2934 -0.0404
30860SOL    HW296943   5.004   6.912   0.587  0.5608  0.1596  1.0545
30861SOL     OW96944   9.906   9.296  10.807 -0.1577  0.2771  0.1191
30861SOL    HW196945   9.906   9.304  10.903 -2.4367  2.1073  0.0595
30861SOL    HW296946   9.815   9.311  10.782  0.2900 -0.6509 -2.3389
30862SOL     OW96947   0.745   0.495   9.681 -0.0282 -0.1648  0.2061
30862SOL    HW196948   0.711   0.494   9.770 -0.3133 -1.1586  0.0999
30862SOL    HW296949   0.753   0.402   9.657  0.7942  0.0756 -0.5171
30863SOL     OW96950   1.923   5.148  10.968 -0.1432  0.4900 -0.3287
30863SOL    HW196951   1.895   5.057  10.976 -1.3216  0.7829 -0.9461
30863SOL    HW296952   2.018   5.143  10.958 -0.1652 -0.6487 -0.1051
30864SOL     OW96953   4.438   5.654  10.788  0.2916  0.4758  0.0539
30864SOL    HW196954   4.525   5.674  10.824 -0.0398  2.0160  0.0677
30864SOL    HW296955   4.433   5.559  10.791  1.5289  0.4020  1.1356
30865SOL     OW96956   9.882   9.599   3.682 -0.2217 -0.0616 -0.3599
30865SOL    HW196957   9.827   9.638   3.749  1.0365 -0.1668  0.7820
30865SOL    HW296958   9.917   9.673   3.633  1.2795  0.2559  1.0918
30866SOL     OW96959   4.550   1.576   8.326  0.1143 -0.2986 -0.0425
30866SOL    HW196960   4.589   1.632   8.259  0.5683 -0.5089  0.0447
30866SOL    HW296961   4.616   1.509   8.343 -0.3052 -0.6886  0.0681
30867SOL     OW96962   0.241   1.487  10.059 -0.4728 -0.2614 -0.0890
30867SOL    HW196963   0.220   1.506   9.967  0.3352 -0.4330 -0.3208
30867SOL    HW296964   0.303   1.414  10.055 -0.1905 -0.0720  0.5711
30868SOL     OW96965   6.285   7.304   2.931  0.4552  0.1535 -0.6566
30868SOL    HW196966   6.347   7.361   2.977 -1.3217  2.7899 -1.3033
30868SOL    HW296967   6.337   7.263   2.862  1.4578  2.7876 -1.6084
30869SOL     OW96968  10.490   2.312  11.023 -0.4577 -0.3822 -0.5300
30869SOL    HW196969  10.558   2.379  11.031 -0.3679 -0.5488  0.2035
30869SOL    HW296970  10.520   2.256  10.951 -0.2145 -0.0082 -0.7259
30870SOL     OW96971   7.210   4.016   2.178  0.0536 -0.5028 -0.6707
30870SOL    HW196972   7.248   3.969   2.103  3.1772  1.4753 -0.4998
30870SOL    HW296973   7.245   4.105   2.170 -1.5877  0.4495  1.7711
30871SOL     OW96974   6.559   0.760   3.322 -0.1346  0.2740  0.0019
30871SOL    HW196975   6.603   0.841   3.297  0.1598 -0.0847 -0.6754
30871SOL    HW296976   6.608   0.691   3.277 -2.1378 -0.0598 -1.8985
30872SOL     OW96977   4.420   7.615   6.453  0.2661 -0.7735  0.5580
30872SOL    HW196978   4.361   7.559   6.404  0.7852 -0.7287 -0.1247
30872SOL    HW296979   4.368   7.643   6.529 -0.0598 -2.0278  0.8331
30873SOL     OW96980   5.482   5.996   2.673  0.0424 -0.2760 -0.1991
30873SOL    HW196981   5.524   6.056   2.734  0.8628 -0.4962 -0.5329
30873SOL    HW296982   5.443   6.053   2.606 -1.6061  0.0157  0.9496
30874SOL     OW96983  11.009   6.282   2.680  0.2362 -0.4304 -0.2103
30874SOL    HW196984  10.968   6.283   2.767  1.0365 -0.3081  0.1661
30874SOL    HW296985  11.102   6.271   2.697  0.1678 -3.2753 -1.1439
30875SOL     OW96986   3.276   1.712   6.802 -0.3720  0.6231  0.1971
30875SOL    HW196987   3.351   1.680   6.751 -1.2223  2.0056 -2.0367
30875SOL    HW296988   3.232   1.632   6.832  0.0206 -0.2672 -1.4813
30876SOL     OW96989   9.007   9.142   6.964  0.4562  0.1798 -0.1682
30876SOL    HW196990   9.100   9.136   6.940  0.6132  0.8320  0.2315
30876SOL    HW296991   8.978   9.052   6.969  1.0962 -0.0391 -0.2279
30877SOL     OW96992   4.446   0.929   5.450 -0.2209  0.2941 -0.0295
30877SOL    HW196993   4.372   0.894   5.500 -1.1209 -0.0744 -1.5449
30877SOL    HW296994   4.514   0.944   5.515 -1.3548 -0.1071  1.3029
30878SOL     OW96995   8.446   0.538   6.172  0.3892 -0.1446  0.0541
30878SOL    HW196996   8.530   0.549   6.215  0.4156  1.3742 -0.3074
30878SOL    HW296997   8.434   0.444   6.164  2.8340 -0.4196 -1.3859
30879SOL     OW96998   3.955   3.721   9.739 -0.1007  0.3050 -0.0517
30879SOL    HW196999   3.897   3.710   9.663 -0.4591  1.0693  0.1040
30879SOL    HW297000   3.981   3.632   9.762  1.8565  0.1527 -2.4833
30880SOL     OW97001   2.824   9.551   1.139  0.4451  0.1919 -0.2402
30880SOL    HW197002   2.810   9.644   1.122  1.4212  0.2538 -0.8199
30880SOL    HW297003   2.893   9.526   1.077  0.6407 -0.7667  0.3466
30881SOL     OW97004   9.340   1.431   4.061  0.7282 -0.2788 -0.3446
30881SOL    HW197005   9.337   1.455   3.969  1.3213 -1.0272 -0.5673
30881SOL    HW297006   9.431   1.447   4.087  0.7979 -0.9828 -0.1471
30882SOL     OW97007   4.876   2.066  10.240 -0.0555  0.5123 -0.9412
30882SOL    HW197008   4.894   2.015  10.161 -2.1354  1.5036 -2.1346
30882SOL    HW297009   4.962   2.082  10.278  0.8799 -1.2506 -2.1871
30883SOL     OW97010   2.861   8.784   9.953  0.6130 -0.1159  0.1292
30883SOL    HW197011   2.814   8.803   9.872 -0.4041  1.2545  1.0063
30883SOL    HW297012   2.953   8.779   9.926  0.2955  0.3000 -1.1030
30884SOL     OW97013   5.821   2.131   7.938 -0.0021 -0.2981  0.1250
30884SOL    HW197014   5.849   2.134   7.846  0.5833 -3.3478  0.0933
30884SOL    HW297015   5.903   2.131   7.988 -0.3086  0.7337  0.6666
30885SOL     OW97016   2.011   8.093  10.997 -0.0536  0.4136  0.0897
30885SOL    HW197017   2.026   8.113  11.089 -1.1917 -0.2886  0.4433
30885SOL    HW297018   2.076   8.146  10.950  1.2309 -0.0075  1.3304
30886SOL     OW97019  10.166   1.467   4.955  0.1596 -0.5508 -0.0587
30886SOL    HW197020  10.131   1.430   4.874  2.6402  0.5581 -1.7615
30886SOL    HW297021  10.230   1.532   4.927  1.0969 -0.0597  2.8033
30887SOL     OW97022   0.032   9.487   8.735 -1.1211 -0.2075 -0.4719
30887SOL    HW197023   0.117   9.526   8.716  0.0637 -0.9278  2.6285
30887SOL    HW297024  -0.006   9.467   8.650  2.7260 -1.7454 -2.0251
30888SOL     OW97025   9.380   9.967   7.959  0.3606 -0.7526  0.0853
30888SOL    HW197026   9.420   9.947   7.874 -1.1036  0.3952 -0.9202
30888SOL    HW297027   9.412  10.054   7.981 -0.0814 -0.6143  0.1947
30889SOL     OW97028   4.037   5.971   8.282 -0.0907  0.3029 -0.2198
30889SOL    HW197029   4.012   5.901   8.342  0.8481 -0.0705 -0.2583
30889SOL    HW297030   4.133   5.968   8.280 -0.1032  0.2884 -1.7497
30890SOL     OW97031  10.764   6.626   5.104 -0.8814 -0.6496 -0.1070
30890SOL    HW197032  10.747   6.702   5.160 -0.9288  0.6071 -1.7610
30890SOL    HW297033  10.677   6.588   5.089 -0.8962 -0.8467  0.4443
30891SOL     OW97034   3.879   9.277   7.179  0.1461 -0.1760  0.0491
30891SOL    HW197035   3.968   9.266   7.146  0.3666 -2.5857  1.1951
30891SOL    HW297036   3.884   9.352   7.239  1.0136  0.6550 -1.0294
30892SOL     OW97037   3.948  10.912   6.961  0.0984  0.4674 -0.3337
30892SOL    HW197038   3.917  10.969   7.032 -0.2037 -0.5658  0.3903
30892SOL    HW297039   4.031  10.951   6.934 -0.1368  1.2926  0.0912
30893SOL     OW97040   8.638   7.781   6.574  0.0898 -0.2791 -0.3196
30893SOL    HW197041   8.652   7.699   6.622 -1.9851  0.0280  0.9167
30893SOL    HW297042   8.687   7.769   6.492 -0.4097 -2.8929 -0.3261
30894SOL     OW97043  10.217   3.433   1.930 -0.0720 -0.6594  0.1769
30894SOL    HW197044  10.260   3.472   2.006  0.6112  1.6041 -1.2644
30894SOL    HW297045  10.157   3.368   1.967 -1.4692  1.9094  2.8551
30895SOL     OW97046   8.695   6.489   7.446  0.6874  0.4746 -0.0042
30895SOL    HW197047   8.683   6.532   7.531 -1.3608  0.1497 -0.0899
30895SOL    HW297048   8.659   6.551   7.383  1.7061  0.4752 -0.6187
30896SOL     OW97049   7.540   3.860   2.587  0.2830  0.4131  0.1594
30896SOL    HW197050   7.615   3.914   2.612 -0.2820  1.3869 -0.2056
30896SOL    HW297051   7.510   3.897   2.505 -1.4420  0.9272  0.9749
30897SOL     OW97052   2.038   0.644   0.519  0.7105 -0.4938 -0.2920
30897SOL    HW197053   1.993   0.566   0.553  0.9823 -0.4987  0.0575
30897SOL    HW297054   2.084   0.680   0.594 -1.0023  1.1621  0.0315
30898SOL     OW97055   2.605   6.433   0.153 -0.2760 -0.2482 -0.2459
30898SOL    HW197056   2.584   6.501   0.088 -4.2050 -0.3154  0.7152
30898SOL    HW297057   2.672   6.474   0.208 -0.5002  1.7595 -1.3321
30899SOL     OW97058   4.437   2.378   4.093 -0.2251  0.1056 -0.0992
30899SOL    HW197059   4.506   2.358   4.029  0.3840 -1.7221  1.0758
30899SOL    HW297060   4.396   2.294   4.112 -2.1520  1.0087 -0.0015
30900SOL     OW97061   1.615   2.680   0.817  0.3022 -0.3980  0.6670
30900SOL    HW197062   1.636   2.651   0.906 -0.3816 -0.6909  0.7345
30900SOL    HW297063   1.697   2.720   0.785  0.3167  0.4627  1.7195
30901SOL     OW97064   0.002   1.243   8.206 -0.3087 -0.1523 -0.0008
30901SOL    HW197065   0.017   1.149   8.219  3.0209 -0.3778 -3.5460
30901SOL    HW297066   0.089   1.283   8.218 -1.0176  1.9926 -1.3970
30902SOL     OW97067   2.468   2.837   2.803  0.2375 -0.0458  0.1455
30902SOL    HW197068   2.555   2.874   2.787 -0.3777  1.5625  0.3512
30902SOL    HW297069   2.439   2.806   2.717 -0.1807  2.1601 -0.5904
30903SOL     OW97070   9.337   3.096   4.771 -0.1169 -1.1356 -0.2969
30903SOL    HW197071   9.358   3.181   4.733  0.9110 -0.0196  2.4450
30903SOL    HW297072   9.243   3.087   4.758 -0.3006  0.5742 -0.4624
30904SOL     OW97073  10.832   7.059   3.646  0.3839 -0.1573 -0.2657
30904SOL    HW197074  10.821   6.968   3.616  0.6765 -0.2386 -0.1260
30904SOL    HW297075  10.851   7.108   3.566  0.0910 -0.1967 -0.3601
30905SOL     OW97076   6.236   8.255   1.121  0.1908  0.1677 -0.4058
30905SOL    HW197077   6.283   8.330   1.157  0.7200 -0.9622  1.3578
30905SOL    HW297078   6.160   8.244   1.179 -0.9664  0.5087 -1.8094
30906SOL     OW97079  10.309   3.101   0.785 -0.3148 -0.0817  0.0507
30906SOL    HW197080  10.368   3.176   0.789 -0.2088 -0.1713  0.1676
30906SOL    HW297081  10.326   3.061   0.700  0.1402 -0.3910  0.2819
30907SOL     OW97082   4.958   6.900   1.161  0.1392  0.6923 -0.0957
30907SOL    HW197083   4.974   6.961   1.233  0.2908 -0.7413  1.1462
30907SOL    HW297084   4.993   6.816   1.193 -2.2671 -0.6328 -0.6960
30908SOL     OW97085  11.059   4.970   0.157 -0.4435 -0.0886  0.4386
30908SOL    HW197086  11.031   5.059   0.136 -0.6475 -0.0927  0.6991
30908SOL    HW297087  11.044   4.961   0.251 -0.9820 -0.5994  0.3114
30909SOL     OW97088   5.064   9.548   4.459  0.5704 -0.7375 -0.1384
30909SOL    HW197089   5.022   9.516   4.379  0.9684 -1.0208 -0.2388
30909SOL    HW297090   5.002   9.527   4.529  1.0852 -2.3087 -0.1234
30910SOL     OW97091   2.592   7.190   7.788 -0.7473  0.4854 -0.0699
30910SOL    HW197092   2.666   7.145   7.829 -0.5247 -0.8572 -1.8268
30910SOL    HW297093   2.514   7.146   7.822 -0.6386  0.4206  0.0941
30911SOL     OW97094   7.496   7.465   3.867  0.3468 -0.3264  0.0149
30911SOL    HW197095   7.591   7.454   3.868  0.6353  1.5961 -1.1667
30911SOL    HW297096   7.481   7.535   3.804 -1.8096 -0.0119  0.7996
30912SOL     OW97097   7.657  10.320   3.806  0.4077  0.4415  0.4076
30912SOL    HW197098   7.640  10.232   3.840 -0.6108 -0.0649 -1.3016
30912SOL    HW297099   7.654  10.310   3.711  1.5512  2.1017  0.1525
30913SOL     OW97100   0.984  10.773   0.937 -0.2997  0.0539 -0.3621
30913SOL    HW197101   1.072  10.744   0.915  0.9430 -1.0247  4.6758
30913SOL    HW297102   0.994  10.862   0.969 -0.3289 -0.9116  2.6975
30914SOL     OW97103   2.395   6.323   8.038  0.0604 -0.3103 -0.0489
30914SOL    HW197104   2.402   6.411   8.001 -0.5325 -0.0999  0.3242
30914SOL    HW297105   2.435   6.330   8.125  1.1839 -0.7311 -0.5081
30915SOL     OW97106   2.606   6.291   3.834 -0.5953 -0.2241 -0.1544
30915SOL    HW197107   2.615   6.197   3.818 -1.0123 -0.8430  2.7515
30915SOL    HW297108   2.695   6.326   3.825 -0.2752 -1.0734 -0.3266
30916SOL     OW97109   6.399   3.354   6.343  0.3952  0.4174  0.1680
30916SOL    HW197110   6.471   3.291   6.352 -0.1345 -0.6527 -2.2426
30916SOL    HW297111   6.320   3.302   6.356 -0.0168  1.2965  1.3757
30917SOL     OW97112   0.492  10.631   7.431  0.1357 -0.7444  0.0250
30917SOL    HW197113   0.493  10.597   7.520 -3.0074 -0.0479  0.4495
30917SOL    HW297114   0.552  10.574   7.383  3.1507 -0.2102  2.8015
30918SOL     OW97115   7.340  10.974   6.490  0.3311  0.2196 -0.1892
30918SOL    HW197116   7.352  10.943   6.579 -0.5222  1.4100  0.3694
30918SOL    HW297117   7.330  10.895   6.438  2.1143 -0.5302  0.5469
30919SOL     OW97118   1.226   4.971   8.052  0.0106  0.8524 -0.1184
30919SOL    HW197119   1.269   5.009   7.975  0.1926 -0.5795 -0.7498
30919SOL    HW297120   1.147   4.928   8.017 -0.0895  0.4830  0.5427
30920SOL     OW97121   7.950   2.861   6.220  0.2107 -0.1814 -0.2726
30920SOL    HW197122   7.866   2.836   6.256 -0.6734  0.5367 -1.7444
30920SOL    HW297123   8.014   2.807   6.267 -1.1047 -1.0369  0.5696
30921SOL     OW97124   3.783   1.555   6.292 -0.2918 -0.2743 -0.4498
30921SOL    HW197125   3.732   1.498   6.235  1.6779 -0.4055 -2.1744
30921SOL    HW297126   3.873   1.524   6.284  0.4352  1.3763  0.7018
30922SOL     OW97127   0.806   2.989   5.977  0.3217 -0.0445  0.0772
30922SOL    HW197128   0.820   3.049   6.050 -0.9194  1.1256 -0.5988
30922SOL    HW297129   0.735   2.931   6.006  0.0634  0.1995 -0.0619
30923SOL     OW97130   1.882   5.221   7.894  0.0918 -0.1834 -0.3504
30923SOL    HW197131   1.887   5.138   7.940  1.8446  0.1001  0.0486
30923SOL    HW297132   1.968   5.230   7.852 -0.0165  1.4557 -0.2859
30924SOL     OW97133   7.211   4.264  10.712  0.3741  0.0163  0.1002
30924SOL    HW197134   7.259   4.194  10.667  0.0507  1.0628 -2.0204
30924SOL    HW297135   7.120   4.235  10.712  0.3826 -0.0106  0.1366
30925SOL     OW97136   2.123   5.586   0.505 -0.6052  0.0857  0.0173
30925SOL    HW197137   2.118   5.575   0.600 -0.5050  0.3639  0.0548
30925SOL    HW297138   2.056   5.651   0.484 -0.5113  0.1532 -0.0797
30926SOL     OW97139   1.817   8.715  10.891  0.0781  0.1236 -0.1464
30926SOL    HW197140   1.789   8.659  10.818 -0.6075  0.9816 -0.5662
30926SOL    HW297141   1.834   8.654  10.963  1.3362 -0.7976 -1.1754
30927SOL     OW97142  10.191   7.956   9.881  0.0590 -0.3459 -0.0400
30927SOL    HW197143  10.144   7.961   9.965  1.3519 -1.3135  0.7773
30927SOL    HW297144  10.283   7.947   9.906  0.2758 -3.2679 -1.4805
30928SOL     OW97145   9.163   3.386  10.079  0.4124  0.0489 -0.1923
30928SOL    HW197146   9.077   3.415  10.046 -0.6878 -2.4515  0.2167
30928SOL    HW297147   9.162   3.410  10.172  0.3913  0.5110 -0.3100
30929SOL     OW97148   0.591   7.897   0.781 -0.4271  0.3471 -0.2808
30929SOL    HW197149   0.588   7.805   0.756  0.1194  0.4423 -0.7316
30929SOL    HW297150   0.683   7.913   0.801 -0.7803  0.3853  1.4087
30930SOL     OW97151   2.266   7.063   4.151  0.5325 -0.5185  0.1966
30930SOL    HW197152   2.350   7.040   4.111  1.2091  0.3133  1.0968
30930SOL    HW297153   2.285   7.140   4.204 -0.0032 -2.2113  3.1180
30931SOL     OW97154   4.373   2.031   2.154 -0.2742  0.2072 -0.0542
30931SOL    HW197155   4.335   1.959   2.204 -1.2140  0.9255  0.2936
30931SOL    HW297156   4.465   2.033   2.180  0.2407 -1.9615 -1.3639
30932SOL     OW97157   8.586   2.100  10.248 -0.3408 -0.3899  0.1963
30932SOL    HW197158   8.643   2.073  10.321  0.0213 -0.7532 -0.2171
30932SOL    HW297159   8.527   2.026  10.235 -0.2675 -0.4114 -0.0159
30933SOL     OW97160   0.661   8.500   0.204  0.6038  0.0454  0.2167
30933SOL    HW197161   0.744   8.530   0.167  0.6352 -1.2563 -0.8323
30933SOL    HW297162   0.608   8.579   0.209  1.4870  0.6903 -0.2683
30934SOL     OW97163   5.516  11.072   7.542 -0.1772 -0.7141 -0.7009
30934SOL    HW197164   5.435  11.053   7.495  0.2143  0.8706 -2.1205
30934SOL    HW297165   5.582  11.084   7.474  0.6447  0.6381  0.2726
30935SOL     OW97166   4.754   4.605   7.592 -0.1201  0.9772 -0.2836
30935SOL    HW197167   4.706   4.591   7.510  1.7968 -1.9174 -1.0508
30935SOL    HW297168   4.845   4.616   7.565  0.6599 -0.7095  1.4139
30936SOL     OW97169   4.754   6.977   2.225 -0.7533  0.5198  0.3713
30936SOL    HW197170   4.815   6.979   2.151  0.1825 -1.5036  0.9960
30936SOL    HW297171   4.673   7.014   2.191  0.4145  2.0557 -0.8909
30937SOL     OW97172   7.743   2.994   5.917 -0.0327  0.5871  0.0484
30937SOL    HW197173   7.672   2.930   5.918  0.0239  0.5257  0.3306
30937SOL    HW297174   7.812   2.952   5.866 -0.8518  1.3769 -1.7611
30938SOL     OW97175   0.569   6.171   3.667  0.4953 -0.1061  0.1701
30938SOL    HW197176   0.631   6.099   3.681 -0.2565 -0.9855 -0.7990
30938SOL    HW297177   0.506   6.136   3.604 -0.2498  1.2070  0.1453
30939SOL     OW97178   5.653   2.902   9.159  0.0050  0.2861  0.2963
30939SOL    HW197179   5.631   2.812   9.136  0.8670  0.3856 -0.9973
30939SOL    HW297180   5.569   2.948   9.160 -0.4158 -0.4776  0.7767
30940SOL     OW97181   9.525   4.202   0.991  0.0693  0.3821  0.3189
30940SOL    HW197182   9.487   4.114   0.984  0.4555  0.3006 -0.9937
30940SOL    HW297183   9.459   4.253   1.039 -2.4027  0.5902 -2.9092
30941SOL     OW97184   1.567   8.184  10.364 -0.0053  0.0610  0.2069
30941SOL    HW197185   1.528   8.251  10.420  0.7355  0.9760 -0.3464
30941SOL    HW297186   1.657   8.214  10.350  0.2479 -0.8977 -0.2999
30942SOL     OW97187   0.153   1.502   3.293 -0.6459  0.2502 -0.0327
30942SOL    HW197188   0.206   1.447   3.236  0.6184  1.1904  0.1881
30942SOL    HW297189   0.085   1.444   3.326 -0.5055 -0.6833 -1.3036
30943SOL     OW97190   2.987   6.694   2.097 -0.1994  0.2385  0.0859
30943SOL    HW197191   2.943   6.768   2.054 -0.7880 -0.0822  0.1361
30943SOL    HW297192   2.993   6.627   2.029  0.5699  0.4108 -0.0371
30944SOL     OW97193   3.134   2.899   3.357 -0.4461  0.5224  0.5418
30944SOL    HW197194   3.185   2.823   3.385  0.0593 -0.1832 -2.0092
30944SOL    HW297195   3.043   2.869   3.357 -0.2139 -0.2921 -0.8459
30945SOL     OW97196   0.897   6.226   1.232  0.1484  0.1413 -0.0119
30945SOL    HW197197   0.818   6.279   1.243  0.5181  0.7085 -0.0472
30945SOL    HW297198   0.941   6.230   1.317 -0.5643 -1.3479  0.4513
30946SOL     OW97199   0.901   4.034   4.161 -0.0414  0.0911  0.5945
30946SOL    HW197200   0.970   3.990   4.209  0.9001  0.7978 -0.0777
30946SOL    HW297201   0.821   3.987   4.185  0.7543 -1.1635  0.8597
30947SOL     OW97202  10.072   1.811   2.529 -0.3866  0.3410 -0.1205
30947SOL    HW197203  10.112   1.898   2.531 -0.0571  0.4006 -3.6335
30947SOL    HW297204  10.142   1.752   2.554 -0.3633  0.9612  1.3968
30948SOL     OW97205   0.051   5.278   1.462 -0.3242  0.0704 -0.0678
30948SOL    HW197206   0.138   5.301   1.429  0.5202  3.5693  3.7788
30948SOL    HW297207   0.066   5.239   1.548 -2.5290  0.9411  0.8039
30949SOL     OW97208   2.035   7.160   3.098 -0.1687  0.4259  0.0183
30949SOL    HW197209   2.098   7.191   3.163  0.6665  1.1399 -1.0937
30949SOL    HW297210   1.978   7.236   3.082  0.1326  0.5091 -0.6706
30950SOL     OW97211   9.948   0.745   5.320 -0.1088  0.2494  0.3614
30950SOL    HW197212   9.986   0.832   5.316 -0.6612  0.4845  0.0142
30950SOL    HW297213   9.856   0.760   5.342 -0.2693 -0.2239  0.0359
30951SOL     OW97214   8.686   9.340   8.148 -0.6068  0.2095 -0.0246
30951SOL    HW197215   8.723   9.345   8.060  0.2068  0.4804  0.3283
30951SOL    HW297216   8.717   9.257   8.183 -0.7903  0.1847  0.0822
30952SOL     OW97217   9.817   6.855   8.304 -0.0845 -0.1962 -0.1232
30952SOL    HW197218   9.890   6.892   8.355  0.0062 -0.6908  0.1186
30952SOL    HW297219   9.850   6.771   8.272 -0.1608  0.0882 -0.9725
30953SOL     OW97220   0.009   3.038   6.225  0.1433 -0.0375 -0.0572
30953SOL    HW197221  -0.013   2.949   6.198  1.5725 -1.2199  2.3455
30953SOL    HW297222   0.091   3.057   6.179  0.9903 -0.8682  1.0523
30954SOL     OW97223   6.249  10.030   6.221  0.0505  0.1226  0.2728
30954SOL    HW197224   6.304  10.100   6.255  0.4265  0.2371 -0.5440
30954SOL    HW297225   6.307   9.954   6.215  0.3926  0.4802 -1.4476
30955SOL     OW97226   1.089   4.402   3.643  0.2643  0.5417 -0.1977
30955SOL    HW197227   1.049   4.315   3.638 -0.1708  0.7203  0.1174
30955SOL    HW297228   1.182   4.385   3.656 -0.0836  0.1028  2.0911
30956SOL     OW97229   4.888  10.864   5.538  0.1253 -0.5292 -0.1390
30956SOL    HW197230   4.959  10.839   5.597 -1.7407 -1.1887  1.9917
30956SOL    HW297231   4.882  10.959   5.548  0.5185 -0.5059 -0.1130
30957SOL     OW97232   6.520   7.626   6.362  0.0623  0.5075  0.2529
30957SOL    HW197233   6.514   7.681   6.440 -0.7478 -0.8093  1.1794
30957SOL    HW297234   6.438   7.641   6.316  0.8715  1.8865 -0.8172
30958SOL     OW97235  10.137   5.439   9.919 -0.0123  0.3716 -0.2891
30958SOL    HW197236  10.128   5.353   9.877 -1.6922  0.4769 -0.2496
30958SOL    HW297237  10.219   5.474   9.886  0.4967 -1.0834 -0.6255
30959SOL     OW97238   6.002   7.380   4.851  0.1844  0.2006  0.2147
30959SOL    HW197239   6.022   7.382   4.757  0.5648 -2.3191  0.1692
30959SOL    HW297240   5.923   7.325   4.857  0.1267  0.3932  1.3712
30960SOL     OW97241   3.188   2.502   3.209  0.8936  0.2717  0.3168
30960SOL    HW197242   3.129   2.498   3.133 -0.4168 -2.4778  1.3415
30960SOL    HW297243   3.163   2.583   3.253  0.9910  1.4162 -1.5917
30961SOL     OW97244   6.253   2.131  10.110  0.4071  0.3825 -0.6258
30961SOL    HW197245   6.267   2.210  10.058 -1.4071  0.7398 -0.6130
30961SOL    HW297246   6.164   2.139  10.144  0.7398 -0.9360  0.6620
30962SOL     OW97247   6.953   8.419  10.208  0.1422 -0.0409  0.2084
30962SOL    HW197248   6.983   8.386  10.123  0.2509  1.4768 -0.3722
30962SOL    HW297249   6.866   8.381  10.218  0.4402 -0.8719 -0.1976
30963SOL     OW97250   4.161   2.273   2.565 -0.1044  0.1381 -0.0548
30963SOL    HW197251   4.096   2.203   2.574  0.6924 -0.6532 -0.3553
30963SOL    HW297252   4.192   2.289   2.654  0.9854 -1.1402 -0.1807
30964SOL     OW97253   3.008   7.072   5.971  0.1277 -0.5107  0.3059
30964SOL    HW197254   3.009   7.025   6.054  0.3473 -0.8995  0.0846
30964SOL    HW297255   3.031   7.006   5.905  0.9902  0.0124  0.0576
30965SOL     OW97256   2.638   6.467   1.423 -1.0597  0.3605  0.0335
30965SOL    HW197257   2.572   6.535   1.434 -0.1965  1.4595 -1.2529
30965SOL    HW297258   2.660   6.470   1.330 -0.1981 -0.9334  0.1706
30966SOL     OW97259   8.580   5.842   0.932  0.2604 -0.2769 -0.1255
30966SOL    HW197260   8.499   5.846   0.983 -0.5765  1.6151 -1.5132
30966SOL    HW297261   8.572   5.760   0.882  1.0255 -2.0898  2.4977
30967SOL     OW97262   8.546   8.953  10.473  0.4590 -0.3237 -0.0699
30967SOL    HW197263   8.610   9.015  10.438  1.2757 -1.0926  0.0219
30967SOL    HW297264   8.464   9.001  10.475  1.1883  0.9303  0.5227
30968SOL     OW97265   4.639   8.728   8.109  0.5203 -0.5652  0.2039
30968SOL    HW197266   4.664   8.783   8.183  0.4644 -1.7495  1.1301
30968SOL    HW297267   4.546   8.746   8.096  0.4344 -0.6550  0.6923
30969SOL     OW97268   0.237   0.672   1.657  0.1867  0.3482  0.5605
30969SOL    HW197269   0.295   0.740   1.692  0.1165  1.0681 -0.6658
30969SOL    HW297270   0.280   0.643   1.577 -0.5136 -0.0254  0.3147
30970SOL     OW97271   0.844   4.162   1.231  0.1124  0.6689  0.7860
30970SOL    HW197272   0.811   4.170   1.142  1.0790  3.1387  0.5645
30970SOL    HW297273   0.938   4.175   1.223  0.6843 -2.0622  1.8886
30971SOL     OW97274   2.900   8.424   9.544 -0.3488 -0.1022 -0.5202
30971SOL    HW197275   2.965   8.478   9.589  0.2660  0.1309 -1.6553
30971SOL    HW297276   2.897   8.343   9.594  1.0648 -0.2391 -0.6337
30972SOL     OW97277   5.157   6.894   3.612  0.5543 -0.0870 -0.4178
30972SOL    HW197278   5.151   6.968   3.673  0.5398  0.4134 -1.0196
30972SOL    HW297279   5.066   6.867   3.600  0.6900 -1.3503  1.1760
30973SOL     OW97280   0.999   9.633   0.512  0.1087 -0.3006  0.2564
30973SOL    HW197281   0.994   9.538   0.515 -2.8962 -0.3666 -2.1045
30973SOL    HW297282   1.004   9.660   0.603 -0.3324 -2.6701  1.0521
30974SOL     OW97283   7.591   5.756  10.918  0.0481  0.4800 -0.0976
30974SOL    HW197284   7.588   5.804  11.001 -0.9961 -0.4130  0.4071
30974SOL    HW297285   7.680   5.768  10.886  0.8025 -0.0545  1.7022
30975SOL     OW97286   0.756  11.083   2.991 -0.3078 -0.1244  0.5500
30975SOL    HW197287   0.736  11.170   2.957 -1.6582 -0.6848 -0.1639
30975SOL    HW297288   0.815  11.045   2.925 -0.5194 -0.1117  0.3521
30976SOL     OW97289   5.076   0.182   6.999  0.7601  0.1475 -0.6399
30976SOL    HW197290   5.008   0.157   7.061  1.7843  1.1592  0.9590
30976SOL    HW297291   5.111   0.099   6.967  0.6126 -0.4168  0.6104
30977SOL     OW97292   2.716   9.791   7.301  0.1819 -0.1164  0.2372
30977SOL    HW197293   2.761   9.837   7.372 -2.4688  2.2026  0.5988
30977SOL    HW297294   2.690   9.860   7.240 -1.3493 -1.5155 -0.7962
30978SOL     OW97295   2.791   9.612   5.136  0.3151  0.1348 -0.2134
30978SOL    HW197296   2.788   9.517   5.148 -2.6614  0.2562  1.0027
30978SOL    HW297297   2.716   9.631   5.080  1.2772  1.7436 -1.0191
30979SOL     OW97298  10.549   3.043   3.543  0.1439 -0.4991  0.4493
30979SOL    HW197299  10.610   3.108   3.510  1.0409 -0.2296  2.5067
30979SOL    HW297300  10.463   3.084   3.535  0.2697 -0.5429 -1.6507
30980SOL     OW97301   7.522  10.776   2.782 -0.1802 -0.3357  1.0156
30980SOL    HW197302   7.459  10.747   2.716 -0.7204  0.8915  0.9681
30980SOL    HW297303   7.481  10.851   2.823  1.4271  0.7707  0.6896
30981SOL     OW97304   0.109   9.549  10.256 -0.0448 -0.1863 -0.1256
30981SOL    HW197305   0.124   9.456  10.241  0.9361  0.0592 -0.7403
30981SOL    HW297306   0.175   9.593  10.202  0.2608  0.8366  1.0448
30982SOL     OW97307  10.241   4.290   5.956  0.0955  0.0328 -0.2469
30982SOL    HW197308  10.274   4.372   5.992 -0.0570  0.2351 -0.5674
30982SOL    HW297309  10.319   4.240   5.933  0.1834  0.4073 -0.7724
30983SOL     OW97310   5.635   3.989   6.610  0.4827  0.5273 -0.1822
30983SOL    HW197311   5.634   3.946   6.695 -0.1630  0.9605  0.0414
30983SOL    HW297312   5.595   4.075   6.626  1.4214  1.0762 -0.6811
30984SOL     OW97313   0.803  10.124   7.858  0.6750  0.0235  0.2354
30984SOL    HW197314   0.840  10.115   7.770  0.4869 -1.1926  0.2727
30984SOL    HW297315   0.710  10.142   7.843  0.9084  1.2605  0.1754
30985SOL     OW97316   9.376   7.679   5.402 -0.4918 -0.0779 -0.7161
30985SOL    HW197317   9.463   7.655   5.434 -0.7844 -1.7394 -1.0939
30985SOL    HW297318   9.391   7.758   5.350  0.4165  0.9808  1.0856
30986SOL     OW97319   5.889   1.510   3.415  0.1324  0.0358  0.5224
30986SOL    HW197320   5.974   1.505   3.370 -0.8758 -0.1621 -1.5033
30986SOL    HW297321   5.850   1.424   3.401 -1.3671  0.8651 -0.7126
30987SOL     OW97322   9.368   8.780   9.247  0.0354 -0.0336 -0.0005
30987SOL    HW197323   9.425   8.835   9.300  0.6455 -0.1313 -0.5357
30987SOL    HW297324   9.405   8.785   9.159 -0.4933 -0.4973 -0.2564
30988SOL     OW97325   7.113   1.764   7.792 -0.1061  0.1345  0.7205
30988SOL    HW197326   7.074   1.836   7.742  0.1058 -0.4792 -0.3602
30988SOL    HW297327   7.042   1.702   7.805 -0.3257  0.5823  1.7819
30989SOL     OW97328   0.599   7.120  10.137 -0.2825  0.4878 -0.1352
30989SOL    HW197329   0.576   7.141  10.046  2.3058  0.3371 -0.8858
30989SOL    HW297330   0.660   7.047  10.130  0.3039  0.7677  1.7202
30990SOL     OW97331  10.108   3.082   7.702  0.4875  0.1343 -0.0662
30990SOL    HW197332  10.093   3.015   7.635  0.5462  1.0530 -1.0375
30990SOL    HW297333  10.164   3.040   7.767 -0.0007 -0.9480 -0.3267
30991SOL     OW97334   0.499   7.153   9.531  0.3414  0.1306  0.1396
30991SOL    HW197335   0.530   7.228   9.582 -2.7467  1.7647 -0.0999
30991SOL    HW297336   0.433   7.112   9.587 -0.3919 -0.3492 -1.0465
30992SOL     OW97337   6.622  10.315  10.682  0.0598 -0.2373 -0.4144
30992SOL    HW197338   6.598  10.308  10.775 -0.3792  0.0570 -0.5029
30992SOL    HW297339   6.583  10.238  10.641 -0.3371  0.0001 -0.4782
30993SOL     OW97340   5.516   2.285   9.633 -0.3844 -0.2556 -0.1508
30993SOL    HW197341   5.533   2.242   9.717 -0.4695  0.6963  0.3665
30993SOL    HW297342   5.448   2.350   9.652 -2.4396 -1.8694 -1.5333
30994SOL     OW97343   9.658   6.516   2.865  0.0444  0.1979 -0.3196
30994SOL    HW197344   9.729   6.519   2.801 -0.4009  2.5273 -0.7860
30994SOL    HW297345   9.596   6.453   2.828  1.0307 -0.5445 -0.7773
30995SOL     OW97346  10.707   3.927   8.509  0.3152  0.1991  0.5376
30995SOL    HW197347  10.712   3.847   8.457  0.0286  0.1672  0.5541
30995SOL    HW297348  10.798   3.951   8.526  0.4107  0.2423 -0.0239
30996SOL     OW97349   3.130   6.371   5.241 -0.8777  0.0952 -0.0847
30996SOL    HW197350   3.071   6.372   5.316 -0.2180 -1.2225  0.4820
30996SOL    HW297351   3.086   6.316   5.176 -0.7532 -0.0451 -0.0529
30997SOL     OW97352   1.426   4.392   1.916 -0.7311 -0.0852 -0.1481
30997SOL    HW197353   1.430   4.404   1.821  0.8526 -0.8743 -0.2116
30997SOL    HW297354   1.495   4.328   1.935  0.2291  1.3919  1.7245
30998SOL     OW97355   6.675   1.323   0.263 -0.2183 -0.0507 -0.7860
30998SOL    HW197356   6.750   1.285   0.310 -0.2817  0.1840 -0.4928
30998SOL    HW297357   6.678   1.281   0.177  0.1317 -0.1950 -0.7085
30999SOL     OW97358  10.591   9.473   6.037 -0.3789  0.5343 -0.4072
30999SOL    HW197359  10.590   9.564   6.066 -1.5592  0.2370  0.5827
30999SOL    HW297360  10.659   9.431   6.091 -3.1686 -0.2265  2.8732
31000SOL     OW97361   5.816   5.916   8.220  0.2505 -0.4446 -0.5178
31000SOL    HW197362   5.901   5.898   8.262  0.6617  0.8572 -0.7440
31000SOL    HW297363   5.778   5.830   8.206  1.2295 -1.0270  0.2289
31001SOL     OW97364   7.865   9.255   6.833  0.0612 -0.5339 -0.2636
31001SOL    HW197365   7.822   9.248   6.918  0.8564  1.3311  0.3617
31001SOL    HW297366   7.901   9.168   6.816 -1.1984 -1.2650  0.6986
31002SOL     OW97367   6.985  11.083   6.297  0.2266  0.0995 -0.2847
31002SOL    HW197368   6.917  11.090   6.230  0.8594  1.4395 -0.8257
31002SOL    HW297369   6.984  10.991   6.323 -3.7783  0.5772  1.8614
31003SOL     OW97370   0.263   4.127   7.486 -0.5091  0.5108  0.1190
31003SOL    HW197371   0.341   4.092   7.528 -0.3765  1.1162  0.3911
31003SOL    HW297372   0.273   4.222   7.492 -1.0635  0.5953 -0.2160
31004SOL     OW97373   0.752   2.065   6.445  0.0805  0.3734  0.4736
31004SOL    HW197374   0.722   1.999   6.508  0.9389 -0.9619 -0.4623
31004SOL    HW297375   0.806   2.125   6.498  0.6233 -0.6109  1.0724
31005SOL     OW97376   2.555   7.306   3.880  0.3030  0.1380 -0.1657
31005SOL    HW197377   2.591   7.361   3.950  0.2336  0.2610 -0.2254
31005SOL    HW297378   2.495   7.364   3.833  0.6471  0.1798 -0.5693
31006SOL     OW97379   8.014   9.413   1.402 -0.3216 -0.5975 -0.2518
31006SOL    HW197380   8.105   9.443   1.399 -0.5385  0.5013  1.9669
31006SOL    HW297381   7.977   9.439   1.318  1.2314 -0.4733 -0.9254
31007SOL     OW97382   3.661   1.276  10.777  0.0750 -0.4618  0.1457
31007SOL    HW197383   3.682   1.185  10.760  0.8771 -0.2619 -0.0086
31007SOL    HW297384   3.607   1.303  10.703  1.9277 -0.1352 -1.1629
31008SOL     OW97385   8.300   6.594   7.401 -0.1149 -0.3040  0.1370
31008SOL    HW197386   8.330   6.578   7.490  0.5987  2.5525  0.5157
31008SOL    HW297387   8.226   6.653   7.411 -0.9102 -1.0360 -1.1422
31009SOL     OW97388  10.532   9.360   2.217 -0.3237  0.1600 -0.3101
31009SOL    HW197389  10.447   9.316   2.221  0.5096 -1.4168  1.0831
31009SOL    HW297390  10.572   9.343   2.302  1.1756  1.3624 -0.7283
31010SOL     OW97391   2.827   7.746   1.565 -0.3273  0.3559 -0.1102
31010SOL    HW197392   2.871   7.663   1.583  0.4948  0.9469  0.7209
31010SOL    HW297393   2.734   7.728   1.579 -0.1523 -0.4133  0.1067
31011SOL     OW97394   3.849   0.805   1.112  0.0507 -0.0956  0.2062
31011SOL    HW197395   3.855   0.787   1.206 -1.0406  1.1643  0.5565
31011SOL    HW297396   3.907   0.879   1.098  0.3014 -0.3574 -0.1349
31012SOL     OW97397   3.560   2.808   6.980 -0.3399 -0.2359  0.5504
31012SOL    HW197398   3.622   2.766   7.040  0.6537  0.5173  0.0763
31012SOL    HW297399   3.584   2.901   6.981 -0.7015 -0.1140 -0.5305
31013SOL     OW97400   2.329   2.801   9.984 -0.0324 -0.1736  0.5144
31013SOL    HW197401   2.278   2.865   9.935  0.5579 -0.1495 -0.0921
31013SOL    HW297402   2.416   2.803   9.943 -0.0021 -1.3610  0.4647
31014SOL     OW97403   5.523   5.905   3.052 -0.1551 -0.4611  0.6964
31014SOL    HW197404   5.508   5.828   3.106 -0.9009 -1.2890 -0.6337
31014SOL    HW297405   5.445   5.912   2.997 -0.9185  2.2909  1.9440
31015SOL     OW97406   9.240   0.283   4.973  0.6686 -0.7224  0.1791
31015SOL    HW197407   9.274   0.372   4.973 -0.4107 -0.1724 -2.9940
31015SOL    HW297408   9.171   0.284   5.040  1.2740  0.5645  0.8090
31016SOL     OW97409  10.695   3.206   7.353  0.5561  0.4973  0.7873
31016SOL    HW197410  10.697   3.114   7.327 -0.1728  0.3505  1.2248
31016SOL    HW297411  10.685   3.254   7.271 -1.7398  0.0374  0.7228
31017SOL     OW97412   0.246   7.760   7.672  0.0904 -0.1176  0.6148
31017SOL    HW197413   0.224   7.683   7.726  0.4241 -0.2249  0.5996
31017SOL    HW297414   0.341   7.768   7.680  0.3192 -0.9093 -1.0025
31018SOL     OW97415   3.195   7.603   6.245 -0.3624  0.6649  0.3570
31018SOL    HW197416   3.232   7.573   6.328 -1.7383 -0.3874  0.6324
31018SOL    HW297417   3.189   7.698   6.255  2.0406  0.8786  0.3402
31019SOL     OW97418   2.833   7.820   4.207  0.6487  0.3621 -0.3809
31019SOL    HW197419   2.927   7.805   4.199  0.9637  1.3715  0.9742
31019SOL    HW297420   2.795   7.733   4.219  1.6735  0.0710  1.0843
31020SOL     OW97421   4.368   1.272   3.730 -0.3519 -0.3351  0.1723
31020SOL    HW197422   4.461   1.271   3.755 -0.0853 -2.0975 -0.6933
31020SOL    HW297423   4.331   1.195   3.773 -0.9727 -0.6949 -0.9641
31021SOL     OW97424   4.796   3.369   4.225 -0.1470 -0.0108 -0.3366
31021SOL    HW197425   4.738   3.407   4.159 -0.4562  0.6988  0.3371
31021SOL    HW297426   4.759   3.396   4.309  2.1945  2.0991  0.1092
31022SOL     OW97427   3.804   9.472   4.341 -0.2490 -0.5355 -0.8580
31022SOL    HW197428   3.811   9.461   4.436 -0.7328  0.8485 -0.6264
31022SOL    HW297429   3.887   9.440   4.306  0.2920 -0.2511  0.1233
31023SOL     OW97430   9.566   1.166   2.956  0.5127 -0.2394  0.6633
31023SOL    HW197431   9.550   1.209   2.872  1.5893 -2.3157 -0.6943
31023SOL    HW297432   9.551   1.235   3.021 -1.6813  1.1054 -1.0908
31024SOL     OW97433   9.880  10.905   1.903 -0.4718 -0.1764 -0.6943
31024SOL    HW197434   9.934  10.835   1.867  1.5708  1.1158 -0.3090
31024SOL    HW297435   9.803  10.907   1.846 -0.9622 -3.1274 -0.3096
31025SOL     OW97436  10.321   2.936   5.720  0.0569  0.3935  0.1263
31025SOL    HW197437  10.301   2.997   5.648 -1.1529 -0.9409 -0.7367
31025SOL    HW297438  10.253   2.954   5.785  0.4777  0.8336  0.4498
31026SOL     OW97439   3.823   5.315   4.642 -1.1508  0.2685 -0.1651
31026SOL    HW197440   3.852   5.397   4.680  0.4303 -0.4937  0.3369
31026SOL    HW297441   3.743   5.337   4.594 -0.4125  2.2082 -0.5652
31027SOL     OW97442   4.871   1.246  10.924  0.5127  0.8864  0.3051
31027SOL    HW197443   4.875   1.340  10.908  1.1450  0.5647 -1.6723
31027SOL    HW297444   4.777   1.224  10.918  0.5034  1.1659 -0.8916
31028SOL     OW97445  10.553   3.837   3.109 -0.3283  0.4379  0.5085
31028SOL    HW197446  10.576   3.745   3.100 -0.7266  0.3942 -0.1075
31028SOL    HW297447  10.462   3.842   3.082 -0.7876  0.7664  2.0178
31029SOL     OW97448   1.372   6.725   0.478 -0.0068 -0.4479 -0.3811
31029SOL    HW197449   1.341   6.738   0.567  0.4507 -0.9173 -0.1503
31029SOL    HW297450   1.310   6.661   0.441  0.5477 -1.2305  0.0157
31030SOL     OW97451   6.078   4.315   0.121 -0.6325  0.0277 -0.4702
31030SOL    HW197452   6.048   4.328   0.211  0.4257 -1.2639  0.1098
31030SOL    HW297453   6.112   4.225   0.120  1.0584  0.6273 -1.6517
31031SOL     OW97454   6.059   9.005   1.852  0.3698  0.1426  0.0194
31031SOL    HW197455   6.023   9.094   1.844 -1.0795 -0.2455  1.6418
31031SOL    HW297456   6.154   9.018   1.858  0.1299  1.6851  1.1765
31032SOL     OW97457   1.068  11.097   9.858 -0.0994  0.0430  0.2896
31032SOL    HW197458   0.972  11.096   9.855 -0.0893  0.9627 -0.9149
31032SOL    HW297459   1.094  11.019   9.809 -0.2275  0.2232 -0.0680
31033SOL     OW97460   5.888   7.379   2.342 -0.2293 -0.2172 -0.2874
31033SOL    HW197461   5.876   7.315   2.412  1.8224 -0.9190 -0.4983
31033SOL    HW297462   5.884   7.464   2.385  2.3755 -0.6498  1.0335
31034SOL     OW97463   0.632   4.338   1.831 -0.0933 -0.5270 -0.2338
31034SOL    HW197464   0.626   4.273   1.901  0.8430  0.5969  0.9338
31034SOL    HW297465   0.724   4.337   1.806 -0.1190  0.1620 -0.3701
31035SOL     OW97466   5.954   0.343   4.019 -0.7924  0.0031  0.1209
31035SOL    HW197467   6.028   0.402   4.032  0.2550 -0.8802 -1.4876
31035SOL    HW297468   5.878   0.392   4.052  0.3189  1.4113  0.6894
31036SOL     OW97469   6.796   6.298   7.845  0.3787  0.0209 -0.6001
31036SOL    HW197470   6.881   6.305   7.888  1.0721  1.9387 -2.1383
31036SOL    HW297471   6.814   6.248   7.765  0.1493  0.7729 -1.1246
31037SOL     OW97472   5.514   7.146   0.960 -0.3795 -0.4109 -0.1717
31037SOL    HW197473   5.526   7.240   0.944  0.3597 -0.6846 -1.3197
31037SOL    HW297474   5.579   7.103   0.905  0.3851 -1.5560  1.5338
31038SOL     OW97475   8.203   5.144  10.377 -0.8320  0.0834 -0.0868
31038SOL    HW197476   8.264   5.199  10.328  3.4994 -2.9364  1.3303
31038SOL    HW297477   8.207   5.179  10.467 -0.2357 -0.8043  0.2420
31039SOL     OW97478   7.017   2.399   0.788  0.5328  0.0526 -0.1823
31039SOL    HW197479   7.097   2.412   0.840  0.9591 -2.1485 -0.1632
31039SOL    HW297480   6.971   2.483   0.793  2.2722  1.0155  0.7870
31040SOL     OW97481   2.116   7.908   6.188  0.2592 -0.4819 -0.7328
31040SOL    HW197482   2.158   7.994   6.180  1.1258 -0.7805  0.4024
31040SOL    HW297483   2.022   7.928   6.189  0.4647  0.6240  0.9616
31041SOL     OW97484   2.558  10.604   7.292  0.2695  0.4387 -0.7245
31041SOL    HW197485   2.624  10.663   7.328  0.9288 -0.6560 -0.0754
31041SOL    HW297486   2.475  10.636   7.326  0.6993  0.5389  0.2606
31042SOL     OW97487   3.149   1.153   7.926 -0.0661 -0.1970 -0.2376
31042SOL    HW197488   3.068   1.132   7.973  0.9307  0.0811  1.7363
31042SOL    HW297489   3.152   1.249   7.926  0.3589 -0.2064 -0.0751
31043SOL     OW97490   8.479  10.280   6.572  0.1650  0.3660  0.8440
31043SOL    HW197491   8.391  10.251   6.596  0.0734 -0.5772 -0.4990
31043SOL    HW297492   8.479  10.279   6.476  2.5473 -2.6248  0.7364
31044SOL     OW97493   8.422   8.033  11.106 -0.0169  0.5430 -0.7178
31044SOL    HW197494   8.433   8.048  11.012 -0.1134  1.2248 -0.6301
31044SOL    HW297495   8.422   8.121  11.144 -0.7966  0.3169 -0.1649
31045SOL     OW97496   0.410   1.407  11.009 -0.2233  0.2241 -0.2598
31045SOL    HW197497   0.468   1.446  11.075  0.8564 -0.1113 -0.9835
31045SOL    HW297498   0.395   1.478  10.945 -0.5916  0.2994 -0.0932
31046SOL     OW97499   3.518   7.433   6.875  0.0175 -0.1645 -0.6508
31046SOL    HW197500   3.440   7.378   6.883 -0.0927  0.1385  0.7109
31046SOL    HW297501   3.484   7.521   6.860 -0.0800  0.3787  2.1579
31047SOL     OW97502   6.127   7.668   9.772 -0.1967  0.1226  0.3937
31047SOL    HW197503   6.201   7.724   9.797  0.3020 -0.3661  0.0439
31047SOL    HW297504   6.104   7.697   9.684  1.3612 -1.4855 -0.6281
31048SOL     OW97505   0.130   6.321   5.764 -0.1706  0.0091  0.1397
31048SOL    HW197506   0.165   6.289   5.681 -1.9672  0.8313 -0.9809
31048SOL    HW297507   0.145   6.249   5.825  0.3589 -0.9770 -1.0978
31049SOL     OW97508   0.217  10.310   2.386 -0.0972  0.5446 -0.0601
31049SOL    HW197509   0.228  10.231   2.334 -0.7940  0.3078  0.1368
31049SOL    HW297510   0.278  10.300   2.459  0.1704  0.4182 -0.3018
31050SOL     OW97511   7.769   9.003   9.031  0.4033  0.0691 -0.4242
31050SOL    HW197512   7.823   9.082   9.038 -0.3013  0.5055  0.3327
31050SOL    HW297513   7.789   8.953   9.110 -0.2511  0.2218 -0.1501
31051SOL     OW97514   7.667   3.096   6.980 -0.2620 -0.1789  0.2640
31051SOL    HW197515   7.622   3.148   6.914 -1.2716  1.2591  1.9711
31051SOL    HW297516   7.597   3.046   7.023  0.1935 -0.2797  0.9077
31052SOL     OW97517   5.215   4.577   6.238 -0.5427  0.0640  0.6840
31052SOL    HW197518   5.263   4.582   6.155 -0.8467  1.7809  0.5682
31052SOL    HW297519   5.130   4.541   6.215 -0.7920  0.9662  0.1554
31053SOL     OW97520   7.025   8.049   9.977  0.3913  0.5391 -0.2716
31053SOL    HW197521   6.996   8.014  10.061  1.5882 -0.8118 -0.3878
31053SOL    HW297522   7.057   7.973   9.929 -1.9622  0.9482 -2.7222
31054SOL     OW97523   6.354   1.414   4.278 -0.4541  0.0171 -0.0350
31054SOL    HW197524   6.302   1.364   4.341 -2.5252  1.2863 -0.6304
31054SOL    HW297525   6.291   1.437   4.209  1.0107  1.3060 -0.9958
31055SOL     OW97526  10.007   0.970   1.228  0.0935  0.1780  0.0636
31055SOL    HW197527  10.006   0.960   1.323  1.6711 -0.9318  0.0039
31055SOL    HW297528   9.982   0.884   1.195  1.6198 -0.0793 -0.5012
31056SOL     OW97529   6.864   1.262   1.526  0.6493 -0.0193 -0.0416
31056SOL    HW197530   6.857   1.292   1.617  0.4551  1.9920 -0.6852
31056SOL    HW297531   6.853   1.167   1.532  0.3219  0.1003  1.9987
31057SOL     OW97532   2.297  10.585   0.086 -0.0609  0.0852 -0.1043
31057SOL    HW197533   2.355  10.591   0.010  0.5204 -1.3267  0.1832
31057SOL    HW297534   2.330  10.650   0.147  0.3600  0.2446 -0.4957
31058SOL     OW97535   4.401   1.364   7.814  0.5882  0.3018 -0.3256
31058SOL    HW197536   4.466   1.432   7.829  0.1691  0.6092  0.1598
31058SOL    HW297537   4.447   1.282   7.829  0.6287  0.5444  1.0558
31059SOL     OW97538   0.114  10.840   5.629  0.0001  0.2246  0.2851
31059SOL    HW197539   0.080  10.849   5.540  0.5446  0.2860  0.0777
31059SOL    HW297540   0.068  10.906   5.680 -0.6605 -0.1271  0.1526
31060SOL     OW97541   8.376   2.983   4.105  0.4979 -0.0218  0.4618
31060SOL    HW197542   8.344   3.064   4.065  2.9825  1.0258  0.3933
31060SOL    HW297543   8.360   2.915   4.039 -1.4443  0.4138  0.4458
31061SOL     OW97544   3.237   1.457   4.544 -0.1232  0.6673  0.3933
31061SOL    HW197545   3.165   1.437   4.485 -1.0462  2.3117  0.8906
31061SOL    HW297546   3.219   1.404   4.622 -0.2814  0.3859  0.1696
31062SOL     OW97547   2.334   3.214   4.072  0.2858  0.3588 -0.7532
31062SOL    HW197548   2.388   3.180   4.144 -2.1562  0.1772  1.1299
31062SOL    HW297549   2.347   3.309   4.077 -0.6352  0.4362  0.6467
31063SOL     OW97550   9.151   7.913   5.997 -0.4703 -0.4358 -0.1468
31063SOL    HW197551   9.196   7.850   6.053 -1.5546 -1.6896 -0.6296
31063SOL    HW297552   9.181   7.893   5.908 -3.0548 -2.4132 -0.7104
31064SOL     OW97553  11.027   7.578   3.006  0.1771 -0.1107  0.0543
31064SOL    HW197554  10.979   7.652   3.044  0.8724  1.2408 -1.5233
31064SOL    HW297555  10.997   7.502   3.054 -0.3772  1.2331  1.9426
31065SOL     OW97556   1.385   0.567   6.907  0.3451 -0.2721 -0.1403
31065SOL    HW197557   1.464   0.527   6.871  0.2931 -0.0294 -0.5244
31065SOL    HW297558   1.363   0.513   6.983  0.3338 -0.8969 -0.5895
31066SOL     OW97559   1.731   9.788  11.026 -0.3741  0.6057  0.4403
31066SOL    HW197560   1.820   9.823  11.021 -0.5730  1.1627  0.7318
31066SOL    HW297561   1.680   9.843  10.966 -0.5731  0.4615  0.4751
31067SOL     OW97562   4.902   3.752   6.344  0.2025 -0.1903  0.6343
31067SOL    HW197563   4.852   3.714   6.271  3.8179 -1.9241 -1.2299
31067SOL    HW297564   4.949   3.678   6.382  1.9055  1.3499  1.6955
31068SOL     OW97565   0.406   6.490   6.197 -0.1443  0.5260  0.4533
31068SOL    HW197566   0.443   6.403   6.207 -0.5775  0.2314 -0.4014
31068SOL    HW297567   0.347   6.500   6.272 -1.0713 -0.4288 -0.1281
31069SOL     OW97568   5.177   8.368   3.573 -0.1948 -0.1020 -0.4631
31069SOL    HW197569   5.161   8.274   3.579 -3.3196  0.3610  0.6222
31069SOL    HW297570   5.178   8.387   3.479 -0.9286 -1.0392 -0.6676
31070SOL     OW97571   7.310  10.724   0.247 -0.3072  0.2562 -0.3934
31070SOL    HW197572   7.365  10.797   0.219 -0.0613  0.3711  0.3746
31070SOL    HW297573   7.357  10.684   0.319 -0.7031 -0.3355 -0.4492
31071SOL     OW97574   5.754  10.349   1.003  0.3428 -0.3026  0.5503
31071SOL    HW197575   5.761  10.282   1.071  0.5640  0.6349  1.4883
31071SOL    HW297576   5.821  10.414   1.027 -0.0542  0.3889 -0.1621
31072SOL     OW97577   8.079   8.007   8.044  0.1429 -0.0208  0.1174
31072SOL    HW197578   8.000   8.058   8.064  2.1222  3.3669  0.2150
31072SOL    HW297579   8.084   8.007   7.948 -1.0280 -2.1965 -0.0011
31073SOL     OW97580  10.570   5.984  10.820  0.1202 -0.3081 -0.1454
31073SOL    HW197581  10.558   6.021  10.908 -1.3566 -0.1125 -0.4095
31073SOL    HW297582  10.511   6.034  10.764 -0.8078 -2.0278 -0.7977
31074SOL     OW97583  10.050   2.531   3.606 -0.2730 -0.8151  0.0729
31074SOL    HW197584  10.021   2.504   3.519  0.7235 -0.3548 -0.4192
31074SOL    HW297585   9.974   2.575   3.643 -0.7307 -1.0633 -0.5470
31075SOL     OW97586   0.003   5.422   4.317  0.5613  0.2619  0.7319
31075SOL    HW197587   0.060   5.496   4.338  1.8210 -0.0702 -1.2860
31075SOL    HW297588   0.062   5.347   4.308 -0.3032 -0.3114 -0.4642
31076SOL     OW97589   5.433  10.233   2.127  0.0563 -0.3366 -0.1163
31076SOL    HW197590   5.436  10.275   2.213  0.3821 -0.6719  0.0360
31076SOL    HW297591   5.512  10.179   2.124  0.8205  0.7571 -1.1695
31077SOL     OW97592  10.723   1.267   5.803  0.1118 -0.6671  0.2201
31077SOL    HW197593  10.726   1.173   5.820 -0.8120 -0.4807  1.5381
31077SOL    HW297594  10.765   1.306   5.880 -1.1152  0.0671  0.5443
31078SOL     OW97595   0.188   5.027   1.220  0.1021 -0.0264  0.2788
31078SOL    HW197596   0.171   4.934   1.203  1.4984 -0.3789  0.6876
31078SOL    HW297597   0.111   5.072   1.185  0.7368 -1.0662 -2.7521
31079SOL     OW97598   8.183   1.889   7.462  0.0527 -0.1625  0.4128
31079SOL    HW197599   8.224   1.888   7.376  0.2877  0.2015  0.5179
31079SOL    HW297600   8.148   1.800   7.473 -0.8249  0.0602 -0.4496
31080SOL     OW97601  10.951   4.994   6.656  0.2871 -0.8103 -0.0604
31080SOL    HW197602  10.953   5.067   6.594 -0.3792 -0.0020  0.8383
31080SOL    HW297603  10.935   5.035   6.741 -0.5091 -2.0278  0.4073
31081SOL     OW97604   3.389  10.428   6.954  0.1863 -0.0380 -0.0387
31081SOL    HW197605   3.397  10.409   7.047  0.2047 -0.9581 -0.2205
31081SOL    HW297606   3.296  10.414   6.935  0.6772 -2.9806 -0.7833
31082SOL     OW97607   1.738   3.458   5.405  0.3944 -0.1151  0.6160
31082SOL    HW197608   1.672   3.388   5.402  2.2546 -1.9532 -0.4941
31082SOL    HW297609   1.760   3.474   5.313  1.8994 -0.0024  0.9667
31083SOL     OW97610   7.124   5.253   7.791 -0.2161  0.1301  0.1255
31083SOL    HW197611   7.210   5.215   7.810  0.2011 -0.0069 -1.9001
31083SOL    HW297612   7.143   5.330   7.737 -1.3529  0.2646 -0.1151
31084SOL     OW97613   3.753   3.285   3.905  0.5220 -0.1670 -0.5729
31084SOL    HW197614   3.674   3.337   3.893  0.6754  0.2974  0.3413
31084SOL    HW297615   3.802   3.331   3.973 -0.2309 -2.5211  1.7627
31085SOL     OW97616   5.723   4.665   2.605  0.2549  0.0452  0.1595
31085SOL    HW197617   5.801   4.664   2.662 -1.2125 -1.7720  2.3062
31085SOL    HW297618   5.701   4.758   2.597  1.1922  0.4383  1.6499
31086SOL     OW97619   5.349   1.561   5.205  0.0432  0.1115 -0.2762
31086SOL    HW197620   5.284   1.621   5.169 -0.0993  0.7119  0.9164
31086SOL    HW297621   5.366   1.595   5.293  2.2649  0.1947 -0.6829
31087SOL     OW97622   5.982   4.778   6.011 -0.1613  0.6577  0.8610
31087SOL    HW197623   6.030   4.786   6.094  0.7594  1.7154  0.2332
31087SOL    HW297624   5.933   4.859   6.004  1.0223  1.2855 -0.4106
31088SOL     OW97625   3.168  10.502   4.800  0.3164  0.2907 -0.1859
31088SOL    HW197626   3.222  10.424   4.789  1.0135  0.9531 -1.7192
31088SOL    HW297627   3.078  10.470   4.796  0.5717 -0.3276 -2.1295
31089SOL     OW97628   2.021  11.115   8.076  0.0459 -0.3025 -0.5250
31089SOL    HW197629   2.021  11.092   7.983  1.0661  2.0337 -1.1649
31089SOL    HW297630   2.108  11.091   8.107 -0.0390 -0.3881 -0.3501
31090SOL     OW97631   3.853   4.100   6.320  0.1616 -0.4551  0.2390
31090SOL    HW197632   3.782   4.128   6.377  1.3065  0.4881  1.2595
31090SOL    HW297633   3.855   4.005   6.329 -0.6507 -0.4453  0.5747
31091SOL     OW97634   7.746  10.812   8.589  0.2100 -0.8423 -0.3017
31091SOL    HW197635   7.795  10.887   8.554  0.4096 -1.4183 -1.3146
31091SOL    HW297636   7.724  10.759   8.511 -1.3449 -1.0081  0.2105
31092SOL     OW97637   7.696   9.797   6.086  0.2320 -0.1337 -0.5503
31092SOL    HW197638   7.652   9.727   6.133  0.7388 -1.5189 -2.0440
31092SOL    HW297639   7.789   9.783   6.105  0.2283  2.0739  1.6506
31093SOL     OW97640   6.344   2.854   9.334 -0.1904  0.4091 -0.3761
31093SOL    HW197641   6.382   2.799   9.402  1.4248  0.8971 -0.8373
31093SOL    HW297642   6.403   2.929   9.328  0.6008 -0.3007 -3.3002
31094SOL     OW97643   9.761   0.193   3.813  0.0658 -0.3304 -0.0013
31094SOL    HW197644   9.818   0.118   3.796  1.9422  1.1863 -0.7674
31094SOL    HW297645   9.680   0.173   3.766  0.5846 -1.8067 -0.3060
31095SOL     OW97646   5.277   3.006   9.432  0.0210  0.0205 -0.5324
31095SOL    HW197647   5.294   2.986   9.339  4.0290 -2.1831  0.3971
31095SOL    HW297648   5.247   2.923   9.469  0.0851  0.4134  0.4287
31096SOL     OW97649   7.092   1.342  10.561 -0.4352  0.0732  0.1996
31096SOL    HW197650   7.030   1.408  10.531  1.4860  1.4308 -1.0788
31096SOL    HW297651   7.061   1.316  10.648 -2.1592  1.4422  0.0378
31097SOL     OW97652   7.681   2.329   7.889  0.3785 -0.7190  0.4918
31097SOL    HW197653   7.640   2.358   7.808  2.2760 -1.5639 -0.8522
31097SOL    HW297654   7.617   2.271   7.930 -1.0272  0.5520  0.1738
31098SOL     OW97655   3.510   0.461   5.389 -0.3613 -0.5776  0.7174
31098SOL    HW197656   3.500   0.469   5.294  0.8066 -2.7792  0.3432
31098SOL    HW297657   3.436   0.511   5.425 -2.6730 -2.1657 -1.4410
31099SOL     OW97658   0.890   9.633   8.056  0.0690 -0.2041  0.0221
31099SOL    HW197659   0.985   9.648   8.060  0.2634 -1.4803  3.2488
31099SOL    HW297660   0.880   9.556   8.001  0.7793  0.3691 -0.9553
31100SOL     OW97661   5.190   1.862   1.044 -0.5949  0.5242 -0.0850
31100SOL    HW197662   5.277   1.884   1.077 -0.8818  1.6758 -0.0852
31100SOL    HW297663   5.190   1.891   0.953 -1.5363  2.1002  0.3893
31101SOL     OW97664   7.825   4.920   0.388 -0.6566  0.3358  0.0962
31101SOL    HW197665   7.763   4.945   0.319 -0.3354  2.0272  0.3624
31101SOL    HW297666   7.817   4.989   0.453  0.3471 -0.2794  0.9013
31102SOL     OW97667   4.546   3.487   3.510 -0.2253  0.3765 -0.1634
31102SOL    HW197668   4.604   3.458   3.439 -0.9502  0.4476 -0.8061
31102SOL    HW297669   4.501   3.407   3.537 -0.0199  0.3681  0.1546
31103SOL     OW97670   5.054   5.098   4.338  0.0331 -0.1272 -0.1215
31103SOL    HW197671   5.066   5.004   4.323  0.8766  0.1300 -1.2538
31103SOL    HW297672   5.085   5.139   4.257  2.5365  1.2901  1.4164
31104SOL     OW97673   4.491  10.169  10.526 -0.0081 -0.0449 -0.7768
31104SOL    HW197674   4.573  10.121  10.513  0.9754  1.1859  0.5734
31104SOL    HW297675   4.464  10.195  10.438  1.2141 -0.2128 -1.2118
31105SOL     OW97676   9.820   2.956   5.004 -0.1760  0.4402 -0.3760
31105SOL    HW197677   9.874   2.896   4.953  0.2402  0.0392  0.5119
31105SOL    HW297678   9.772   3.007   4.938  0.8510  0.4084 -1.1717
31106SOL     OW97679  10.775   5.571   7.956  0.0501  0.2442  0.1027
31106SOL    HW197680  10.785   5.477   7.973  1.1776  0.6176  1.7400
31106SOL    HW297681  10.865   5.604   7.951 -0.3220  1.4424  0.8728
31107SOL     OW97682   4.877   9.311   3.478  0.3746  0.3855 -0.1434
31107SOL    HW197683   4.850   9.400   3.455  0.7585  0.7167  0.6331
31107SOL    HW297684   4.903   9.317   3.570 -0.8289 -0.8229  0.3076
31108SOL     OW97685   7.871   0.286  10.396 -0.2037 -0.0318  0.4550
31108SOL    HW197686   7.850   0.195  10.374  1.0110 -0.5598  1.3550
31108SOL    HW297687   7.796   0.336  10.365 -0.5961 -1.2569 -0.6780
31109SOL     OW97688   0.465   8.070   5.281 -0.0251  0.1907 -0.1679
31109SOL    HW197689   0.375   8.075   5.315 -0.5592 -1.3942 -1.2435
31109SOL    HW297690   0.461   8.117   5.198  0.0739 -0.1244 -0.3490
31110SOL     OW97691   9.393   1.819   9.669 -0.3291 -0.5253 -0.4020
31110SOL    HW197692   9.373   1.899   9.717 -1.6070 -1.0900  0.0455
31110SOL    HW297693   9.486   1.827   9.647 -0.4015  1.0155 -0.2695
31111SOL     OW97694  10.322   2.702  10.860 -0.1955 -0.0400  0.0553
31111SOL    HW197695  10.285   2.616  10.877  0.3776 -0.4068 -0.4988
31111SOL    HW297696  10.417   2.689  10.865  0.1032 -0.2804 -3.5078
31112SOL     OW97697   1.099   4.985   1.777  0.1918 -0.1005 -0.1731
31112SOL    HW197698   1.041   4.910   1.794  2.2390 -1.0644  3.5468
31112SOL    HW297699   1.048   5.061   1.805 -0.6775 -0.4328 -0.7877
31113SOL     OW97700  10.165   1.977   7.871 -0.0330 -0.2942  0.0568
31113SOL    HW197701  10.069   1.982   7.868 -0.0803 -0.0872  1.2788
31113SOL    HW297702  10.194   2.065   7.845 -0.1761 -0.3274 -0.2181
31114SOL     OW97703   8.279  10.753   4.890 -0.2720  0.1309 -0.2512
31114SOL    HW197704   8.239  10.678   4.935 -0.2793 -0.4470 -1.1793
31114SOL    HW297705   8.246  10.830   4.936 -0.5673 -0.4266  0.4853
31115SOL     OW97706   9.043   2.861   4.246 -0.6024 -0.6136  0.2593
31115SOL    HW197707   9.022   2.905   4.163  1.8363  1.2168  0.5165
31115SOL    HW297708   9.001   2.916   4.313  0.7914  0.2535  0.4532
31116SOL     OW97709   6.806   0.589  10.858  0.1339  0.1057 -0.2578
31116SOL    HW197710   6.758   0.516  10.895  0.1268  0.1885 -0.1010
31116SOL    HW297711   6.753   0.666  10.878  0.2801  0.1858 -0.1738
31117SOL     OW97712   6.711   3.340   8.679 -0.3982 -0.2207 -0.2021
31117SOL    HW197713   6.687   3.412   8.621  0.5028 -0.3924 -0.7966
31117SOL    HW297714   6.715   3.264   8.622  0.1258 -0.4614  0.1549
31118SOL     OW97715   6.252   2.054  10.380 -0.9409  0.0448  0.6050
31118SOL    HW197716   6.183   2.061  10.313 -0.9348 -0.7333  0.5035
31118SOL    HW297717   6.296   1.971  10.360  0.6389  0.9749  0.1031
31119SOL     OW97718   2.345   5.152   8.263  0.4598  0.3242  0.2597
31119SOL    HW197719   2.414   5.217   8.276  1.3929 -0.5956  0.0412
31119SOL    HW297720   2.390   5.068   8.269 -0.3453 -0.2761 -1.5242
31120SOL     OW97721   5.853   1.306   8.502 -0.7199  0.4213  0.1167
31120SOL    HW197722   5.897   1.285   8.420  0.9191  0.6826  0.8739
31120SOL    HW297723   5.841   1.401   8.500  0.2119  0.5683  0.5511
31121SOL     OW97724   2.597   1.772   7.206 -0.4457 -0.2158  0.2789
31121SOL    HW197725   2.558   1.686   7.224  0.5819 -1.0163 -1.1131
31121SOL    HW297726   2.688   1.752   7.183  0.4018  1.4489  1.9048
31122SOL     OW97727   0.004   4.372   3.015 -0.2370  0.7883 -0.5062
31122SOL    HW197728   0.053   4.450   2.989  1.2363  0.4133  0.9565
31122SOL    HW297729   0.011   4.371   3.111 -0.3311 -1.0561 -0.4904
31123SOL     OW97730   2.843   3.427   9.602  0.0381  0.4982 -0.0476
31123SOL    HW197731   2.817   3.389   9.517 -0.5793  0.8228 -0.0078
31123SOL    HW297732   2.897   3.502   9.579  1.1905 -0.3309 -0.1287
31124SOL     OW97733  10.020   4.073   8.123  0.0567 -0.2004  0.7679
31124SOL    HW197734   9.967   4.062   8.044  2.1213  1.1018 -0.9105
31124SOL    HW297735  10.039   4.166   8.127  2.5492 -0.6454  0.9936
31125SOL     OW97736   2.736   1.634   0.941 -0.3178  0.3039  0.0491
31125SOL    HW197737   2.828   1.615   0.921  0.5011  1.3553  2.3859
31125SOL    HW297738   2.698   1.548   0.960  0.7084  0.0057  0.8680
31126SOL     OW97739   0.288   8.676   2.154 -0.4627  0.0743 -0.1805
31126SOL    HW197740   0.300   8.592   2.111 -2.3439 -0.4865  0.2960
31126SOL    HW297741   0.288   8.655   2.248  3.5119  1.2587  0.2659
31127SOL     OW97742   2.545  10.575   6.377 -0.3685  0.3493  0.7512
31127SOL    HW197743   2.562  10.621   6.294 -0.9421 -0.6754  0.0391
31127SOL    HW297744   2.535  10.484   6.352 -1.4915  0.1508  1.8279
31128SOL     OW97745   9.747   4.174   6.168 -0.0217 -0.2064 -0.0399
31128SOL    HW197746   9.657   4.193   6.143 -0.6637 -1.4063  1.1712
31128SOL    HW297747   9.748   4.079   6.180  1.3830 -0.1974  0.0398
31129SOL     OW97748   2.833   8.021   9.506 -0.3170  0.3834 -0.2053
31129SOL    HW197749   2.848   7.957   9.576 -1.4425 -0.0148 -0.3123
31129SOL    HW297750   2.811   8.102   9.552  0.3495  0.4991 -0.0815
31130SOL     OW97751   5.268   8.082   2.012 -0.3188 -0.1330  0.1444
31130SOL    HW197752   5.318   8.066   2.092  0.4684  0.6951 -0.1659
31130SOL    HW297753   5.328   8.060   1.941 -0.7315 -0.0940 -0.2212
31131SOL     OW97754   9.246   6.491   7.385 -0.1477 -0.2728 -0.1724
31131SOL    HW197755   9.306   6.488   7.310  0.5627  0.9941  0.3214
31131SOL    HW297756   9.206   6.577   7.381 -0.1487 -0.2125  0.8648
31132SOL     OW97757   5.218   4.575  10.004  0.1510  1.0807  0.3175
31132SOL    HW197758   5.277   4.500  10.015 -1.9517 -0.4067  2.4919
31132SOL    HW297759   5.189   4.569   9.913 -1.5759 -2.1870  0.9217
31133SOL     OW97760   7.005  10.754   6.648 -0.3588 -0.5609 -0.3669
31133SOL    HW197761   7.022  10.672   6.694  1.3700 -0.0086  0.0709
31133SOL    HW297762   7.044  10.821   6.703  1.6086  0.1520 -2.4644
31134SOL     OW97763   6.418   3.629   6.274  0.3176 -0.3829  0.1757
31134SOL    HW197764   6.432   3.540   6.241  1.9607  0.2565 -1.0167
31134SOL    HW297765   6.471   3.634   6.354 -0.2624 -0.6561  0.5781
31135SOL     OW97766   0.308   6.265   5.543 -0.3541  0.5603 -0.2879
31135SOL    HW197767   0.295   6.320   5.466  0.1513  1.4072  0.2209
31135SOL    HW297768   0.403   6.266   5.558 -0.6029  2.0800  1.5341
31136SOL     OW97769   5.766   0.882   5.685  0.1627  0.4817  0.5464
31136SOL    HW197770   5.689   0.857   5.736  1.5215 -0.3494  2.3365
31136SOL    HW297771   5.796   0.964   5.724  1.2301 -0.1729  1.1885
31137SOL     OW97772   4.019   0.775   9.756  0.4296  0.4667 -0.0938
31137SOL    HW197773   3.940   0.818   9.788  0.9979  1.7573 -0.3545
31137SOL    HW297774   4.021   0.691   9.802 -1.5620 -0.0186 -0.7621
31138SOL     OW97775  10.726   6.367  10.574  0.3024 -0.1172  0.0113
31138SOL    HW197776  10.704   6.460  10.561 -1.7181 -0.2051  2.0527
31138SOL    HW297777  10.647   6.320  10.547 -0.0387 -0.9426  2.2483
31139SOL     OW97778   1.446   5.409   9.138 -0.2405 -0.4138  0.2547
31139SOL    HW197779   1.408   5.443   9.219  0.4822 -1.5057  1.0769
31139SOL    HW297780   1.520   5.356   9.167  1.9080  1.5617 -1.2881
31140SOL     OW97781  11.060   6.267   5.529  0.0082 -0.4086  0.1739
31140SOL    HW197782  11.125   6.331   5.558 -0.9935  0.7739 -0.1261
31140SOL    HW297783  11.097   6.230   5.449  0.8436 -0.6337  0.6420
31141SOL     OW97784   8.823   6.623   8.630  0.1738  0.3221  0.0168
31141SOL    HW197785   8.916   6.645   8.634  0.6391 -1.6875  1.0807
31141SOL    HW297786   8.780   6.706   8.605  2.2309  1.2269 -0.7184
31142SOL     OW97787   9.505   1.364   2.743 -0.1642 -0.2020  0.5670
31142SOL    HW197788   9.442   1.352   2.672 -0.1670  1.6102  0.2213
31142SOL    HW297789   9.579   1.309   2.719 -0.0121  0.6542 -1.0643
31143SOL     OW97790   7.412   2.623   6.227  0.4680  0.0878 -0.0904
31143SOL    HW197791   7.392   2.625   6.133 -1.4008 -0.8886  0.2406
31143SOL    HW297792   7.337   2.665   6.268  1.1506  0.2706  0.9993
31144SOL     OW97793   6.511   1.086   9.362 -0.4529 -0.0468  0.1552
31144SOL    HW197794   6.571   1.129   9.423  1.9442 -1.8317 -0.7728
31144SOL    HW297795   6.548   0.998   9.350 -2.0814 -0.5100 -2.1274
31145SOL     OW97796   0.350  10.582   9.238  0.3042  0.4180  0.4381
31145SOL    HW197797   0.386  10.569   9.151 -1.0268 -3.0169  0.2079
31145SOL    HW297798   0.259  10.610   9.223  0.0032 -0.3912  0.6449
31146SOL     OW97799   1.893   9.882   7.439  0.1412  0.1485 -0.1988
31146SOL    HW197800   1.859   9.969   7.421  0.0682  0.1005 -0.2985
31146SOL    HW297801   1.988   9.893   7.444  0.0238  0.6049  1.8228
31147SOL     OW97802   5.950   7.620   3.429  0.3005  0.3102 -0.0805
31147SOL    HW197803   6.018   7.590   3.368 -0.7247  0.6633 -1.4339
31147SOL    HW297804   5.998   7.670   3.495  1.4044  0.2522 -0.8018
31148SOL     OW97805   1.554  10.290   8.294 -0.5643  0.2523 -0.1875
31148SOL    HW197806   1.513  10.221   8.347  0.4610 -0.6790 -0.5887
31148SOL    HW297807   1.529  10.371   8.339 -2.9641 -0.2276 -0.4807
31149SOL     OW97808   1.861   8.198   4.057  0.5089 -0.2981  0.0051
31149SOL    HW197809   1.819   8.112   4.050 -1.7532  0.6880  0.5228
31149SOL    HW297810   1.904   8.211   3.973  0.4581 -1.7076 -0.2664
31150SOL     OW97811   6.822   3.467   9.310  0.3407 -0.0817  0.1183
31150SOL    HW197812   6.806   3.400   9.244 -1.0820  0.7494 -0.4336
31150SOL    HW297813   6.843   3.545   9.260 -0.0445  0.3809  0.6706
31151SOL     OW97814   5.648   2.079   6.283  0.2463  0.0827 -0.3998
31151SOL    HW197815   5.556   2.096   6.263  0.2917 -0.9734 -1.6086
31151SOL    HW297816   5.696   2.151   6.241  0.0694 -0.1199 -0.9513
31152SOL     OW97817  10.034   2.964   9.126  0.3231  0.3578 -0.3485
31152SOL    HW197818  10.040   2.885   9.072 -0.2557  0.9654 -1.3348
31152SOL    HW297819  10.080   3.031   9.074 -0.1614  0.9301 -0.0468
31153SOL     OW97820   6.104   5.022   1.931 -0.0460  0.2711 -0.4532
31153SOL    HW197821   6.175   4.958   1.923 -0.3306 -0.0391 -0.5379
31153SOL    HW297822   6.028   4.970   1.957 -0.7746  0.2445 -2.4537
31154SOL     OW97823   3.053   8.862   0.093 -0.3682 -0.1483  0.1732
31154SOL    HW197824   2.962   8.883   0.115 -0.5856  0.3392 -1.1481
31154SOL    HW297825   3.052   8.769   0.071 -0.7275  0.0595 -0.7147
31155SOL     OW97826   2.823   8.756   3.284 -0.0870 -0.5656  0.0460
31155SOL    HW197827   2.883   8.803   3.342 -1.6138 -0.1486  1.3493
31155SOL    HW297828   2.784   8.688   3.339 -0.9624 -0.7129 -0.7216
31156SOL     OW97829   3.164  10.599   0.503  0.0178 -0.5213 -0.2552
31156SOL    HW197830   3.165  10.504   0.490  0.7432 -0.6786  0.7184
31156SOL    HW297831   3.127  10.635   0.423  2.2017 -1.4697 -1.7997
31157SOL     OW97832   3.773  10.954   2.613  0.3363  0.2642 -0.1810
31157SOL    HW197833   3.718  10.993   2.681 -0.8294 -0.0515 -0.9064
31157SOL    HW297834   3.814  10.879   2.655 -1.5380 -0.8234 -0.1855
31158SOL     OW97835   8.497   9.524  10.961  0.3591  0.5648 -0.1598
31158SOL    HW197836   8.492   9.539  11.056  2.6301  0.5741  0.0089
31158SOL    HW297837   8.584   9.488  10.947 -0.5435 -1.0274 -2.0742
31159SOL     OW97838  10.198   5.429   6.468  0.1109 -0.3825  0.1866
31159SOL    HW197839  10.219   5.448   6.376 -0.1860  1.7609  0.5120
31159SOL    HW297840  10.255   5.485   6.519 -2.2851  1.3266  1.1922
31160SOL     OW97841   4.794   7.621   5.908 -0.6189  0.3988  0.7947
31160SOL    HW197842   4.878   7.587   5.939  0.8476  1.5185 -1.6813
31160SOL    HW297843   4.782   7.703   5.956  1.7178  2.2198 -1.4339
31161SOL     OW97844   6.511   6.945   4.553 -0.3338  0.1281  0.1918
31161SOL    HW197845   6.559   6.895   4.619  0.3950 -0.5846 -0.8603
31161SOL    HW297846   6.487   7.026   4.599  1.0565  0.1052  1.0503
31162SOL     OW97847   3.934   9.065   7.966  0.5165  0.0716  0.1755
31162SOL    HW197848   4.018   9.073   7.922  1.4162 -1.0397  1.5930
31162SOL    HW297849   3.936   9.132   8.034 -0.8413  1.7443 -1.3441
31163SOL     OW97850   0.174   9.903   7.293 -0.0164  0.0658  0.3006
31163SOL    HW197851   0.161   9.861   7.208  0.5293  1.3315 -0.4378
31163SOL    HW297852   0.101   9.963   7.301  0.6189  0.8821  0.1186
31164SOL     OW97853   8.235   7.386   3.176  0.3876 -0.7971 -0.4476
31164SOL    HW197854   8.243   7.291   3.176  0.4030 -0.7957 -0.4472
31164SOL    HW297855   8.325   7.417   3.190  0.4481 -0.7760 -0.8663
31165SOL     OW97856   0.095   9.144   4.951 -0.4512  0.1654 -0.3321
31165SOL    HW197857   0.075   9.236   4.932  0.7658  0.5132 -0.0743
31165SOL    HW297858   0.183   9.147   4.990  0.5043 -1.2962 -2.2385
31166SOL     OW97859   2.076   5.293   0.161 -0.8330  0.1348 -0.0722
31166SOL    HW197860   2.076   5.385   0.132 -2.0924 -0.0629 -0.7647
31166SOL    HW297861   2.134   5.293   0.238  1.4138  0.9558 -1.6533
31167SOL     OW97862   7.178   8.119   5.071 -0.1983  0.1725 -0.1304
31167SOL    HW197863   7.161   8.119   4.977 -1.9549  0.3151  0.1585
31167SOL    HW297864   7.181   8.026   5.095 -0.0335  0.1384 -0.2841
31168SOL     OW97865   9.199   1.887   4.521  0.4901 -0.2847 -0.0442
31168SOL    HW197866   9.281   1.865   4.564 -0.3287 -1.2105  1.1076
31168SOL    HW297867   9.167   1.804   4.485 -0.3713 -0.1105  0.2988
31169SOL     OW97868   7.002   1.553   5.413  0.4684  0.3150  1.0651
31169SOL    HW197869   6.980   1.641   5.380 -0.9185  0.1848  1.5738
31169SOL    HW297870   7.094   1.559   5.436  0.0302  2.1833  2.6643
31170SOL     OW97871   3.772   2.733   9.082 -0.7687 -0.0653 -0.0864
31170SOL    HW197872   3.858   2.750   9.043  0.3946 -2.1656  1.4043
31170SOL    HW297873   3.733   2.820   9.091  1.1416  0.9454 -0.8623
31171SOL     OW97874   7.336   1.740   9.359 -0.0272 -0.0755  0.3144
31171SOL    HW197875   7.350   1.737   9.264  2.4221 -1.1922  0.6288
31171SOL    HW297876   7.248   1.707   9.371 -0.3536 -0.0159 -1.5673
31172SOL     OW97877   6.157   2.083   6.483 -0.0100  0.8036 -0.0434
31172SOL    HW197878   6.082   2.055   6.536 -1.2544  2.4084 -0.8609
31172SOL    HW297879   6.222   2.111   6.547 -0.7206  0.8673  0.6706
31173SOL     OW97880   3.585  10.096   2.485  0.2009  0.5763  0.2991
31173SOL    HW197881   3.535  10.018   2.509 -0.0674  0.1378 -1.5320
31173SOL    HW297882   3.661  10.095   2.543 -0.2536 -0.5620  0.9017
31174SOL     OW97883   5.151  10.358   6.634 -0.5507 -0.3934 -0.1937
31174SOL    HW197884   5.096  10.312   6.697 -0.1932  0.0767  0.4624
31174SOL    HW297885   5.094  10.369   6.557 -1.3138 -0.0818  0.3998
31175SOL     OW97886   2.373   4.259   9.715 -0.3456 -0.4126  0.1561
31175SOL    HW197887   2.453   4.302   9.685 -1.0014 -0.8523 -2.5022
31175SOL    HW297888   2.324   4.327   9.761 -0.3119  1.1192 -1.9236
31176SOL     OW97889   8.044   2.684   5.480 -0.0587 -0.8067  0.6896
31176SOL    HW197890   8.101   2.679   5.557 -1.0963 -0.9268  1.4656
31176SOL    HW297891   7.960   2.649   5.510 -0.8247  0.2427 -0.1790
31177SOL     OW97892   5.054   4.375  10.361  0.6468 -0.0817 -0.0736
31177SOL    HW197893   5.103   4.366  10.280 -0.6440  1.1828 -1.0344
31177SOL    HW297894   5.082   4.301  10.415  2.0103 -0.5659 -1.3980
31178SOL     OW97895   0.148   9.155   9.034 -0.0517  0.1063 -0.0703
31178SOL    HW197896   0.093   9.204   8.973  1.5185  0.6191 -1.1320
31178SOL    HW297897   0.087   9.117   9.096 -1.5264  1.3942 -0.6698
31179SOL     OW97898   1.533   2.696   7.053  0.1147  0.3296  0.3665
31179SOL    HW197899   1.463   2.635   7.030  0.3556  0.6212 -1.2665
31179SOL    HW297900   1.524   2.767   6.990  1.8328  0.4144  0.1761
31180SOL     OW97901   7.477   2.241   4.554 -0.1898 -0.0254  0.1899
31180SOL    HW197902   7.543   2.229   4.486  0.7735 -0.3420  1.1501
31180SOL    HW297903   7.405   2.183   4.528 -0.1808  0.4560 -0.9646
31181SOL     OW97904   7.219   3.953   0.673 -0.2606  0.0089  0.2182
31181SOL    HW197905   7.239   3.958   0.766 -1.2227 -0.9315  0.4927
31181SOL    HW297906   7.193   4.042   0.649  2.7933  1.0070  0.1247
31182SOL     OW97907   1.264   1.137   0.018 -0.4624  0.2282 -0.6218
31182SOL    HW197908   1.177   1.167  -0.006 -0.2705  1.1209 -0.2320
31182SOL    HW297909   1.282   1.179   0.102 -0.1548 -0.9270 -0.0819
31183SOL     OW97910   4.547   9.298   3.266 -0.4205 -0.4214 -0.0231
31183SOL    HW197911   4.561   9.387   3.300  1.7035 -1.0017  0.7938
31183SOL    HW297912   4.453   9.284   3.272 -0.7743  1.6908  0.0355
31184SOL     OW97913   0.674   2.274   7.872  0.3558  0.2401  0.0200
31184SOL    HW197914   0.667   2.336   7.944  0.1792  0.2651 -0.0187
31184SOL    HW297915   0.687   2.189   7.914 -2.5603 -0.2022  0.2061
31185SOL     OW97916  10.798   8.665   6.930  0.5476  0.1088  0.0227
31185SOL    HW197917  10.790   8.703   7.017  0.9334 -1.2497  0.6745
31185SOL    HW297918  10.795   8.570   6.944  1.1182 -0.1502 -1.3810
31186SOL     OW97919   3.356   3.440   5.097 -0.7487 -0.5661  0.1756
31186SOL    HW197920   3.432   3.465   5.149 -1.3635  0.3406  0.6663
31186SOL    HW297921   3.357   3.344   5.098 -0.4618 -0.5693  1.4594
31187SOL     OW97922   6.323   8.987   0.484 -0.1360 -0.2453  0.0963
31187SOL    HW197923   6.383   8.948   0.421  0.1162 -0.2988  0.3709
31187SOL    HW297924   6.356   9.076   0.497 -0.2565 -0.1950  0.0649
31188SOL     OW97925   4.693   5.296   9.615 -0.1286  0.0167 -0.1184
31188SOL    HW197926   4.696   5.390   9.599  2.7438 -0.0229 -0.3976
31188SOL    HW297927   4.697   5.287   9.711 -2.0535  0.1378  0.0081
31189SOL     OW97928   5.067   7.228   8.816  0.5461  0.1206  0.7965
31189SOL    HW197929   5.139   7.282   8.784  1.1508 -1.3678 -0.4849
31189SOL    HW297930   5.065   7.244   8.910  2.1090  0.7145  0.7565
31190SOL     OW97931   5.869   5.632   1.154 -0.2611 -0.0723  0.0021
31190SOL    HW197932   5.816   5.566   1.198 -0.5400  1.1688  1.6147
31190SOL    HW297933   5.813   5.710   1.150  1.4051  1.3083  1.8477
31191SOL     OW97934   3.197   3.961   2.043  0.4614 -0.5145  0.7165
31191SOL    HW197935   3.131   3.983   1.978  0.3420 -2.2474  0.2064
31191SOL    HW297936   3.211   4.042   2.092 -1.9261 -0.0632  0.7545
31192SOL     OW97937   0.470  11.003   1.472 -0.1907  0.1401 -0.0417
31192SOL    HW197938   0.515  11.073   1.426  0.0979  1.2654  1.8339
31192SOL    HW297939   0.533  10.971   1.536 -0.8348 -0.8089  0.1465
31193SOL     OW97940   7.572   0.567   8.570  0.0276  0.2273 -0.6292
31193SOL    HW197941   7.636   0.504   8.601  1.1598  1.1971 -0.9136
31193SOL    HW297942   7.530   0.525   8.494 -1.9193 -1.6753  1.3466
31194SOL     OW97943  10.196   4.288   7.275 -0.0901  0.0222  0.0032
31194SOL    HW197944  10.179   4.195   7.288 -1.0692  0.4252  2.1707
31194SOL    HW297945  10.111   4.330   7.291  0.2196  1.2720 -1.4339
31195SOL     OW97946   5.106   2.679   8.364  0.2691 -0.0010 -0.3655
31195SOL    HW197947   5.193   2.713   8.345 -0.0641 -0.4442 -2.9858
31195SOL    HW297948   5.046   2.738   8.318 -0.9902  0.9928  2.3251
31196SOL     OW97949   6.797   6.465   7.341  0.1515 -0.5243  0.1496
31196SOL    HW197950   6.775   6.372   7.346 -0.4328 -0.3671  0.6373
31196SOL    HW297951   6.890   6.469   7.361  0.6591 -1.1934 -1.8183
31197SOL     OW97952   4.270   9.393   2.761  0.1745  0.1116 -0.3592
31197SOL    HW197953   4.205   9.367   2.696  2.2031 -1.0001 -2.1009
31197SOL    HW297954   4.248   9.483   2.784 -2.3158 -0.4387 -0.3504
31198SOL     OW97955   8.830   3.619   1.838  0.7663 -0.1961 -0.2697
31198SOL    HW197956   8.904   3.675   1.860  0.4107  0.1832 -0.0431
31198SOL    HW297957   8.811   3.572   1.919  0.6519 -0.1704 -0.2815
31199SOL     OW97958   3.654   5.781   1.327  0.0079 -0.2960  0.6926
31199SOL    HW197959   3.698   5.825   1.254 -2.5688 -0.5497 -1.1341
31199SOL    HW297960   3.676   5.688   1.315  0.5367 -0.2088  0.9586
31200SOL     OW97961   4.131   5.922   4.370  0.7124 -0.1197 -0.3386
31200SOL    HW197962   4.222   5.927   4.340  0.7568  0.6821 -0.0844
31200SOL    HW297963   4.097   6.011   4.360 -0.7349 -0.8320 -2.5291
31201SOL     OW97964   9.447   0.079   7.087  0.0177  0.0764 -0.1163
31201SOL    HW197965   9.399   0.122   7.017  0.7213  1.2774  0.0984
31201SOL    HW297966   9.384   0.072   7.159 -0.3839 -0.1485 -0.4900
31202SOL     OW97967   1.265  10.343   4.595  0.2866  0.2014 -0.5631
31202SOL    HW197968   1.345  10.349   4.647 -0.4322 -2.4781  1.0181
31202SOL    HW297969   1.287  10.387   4.512  3.6987 -1.2482 -0.5679
31203SOL     OW97970  10.755   6.430   9.118  0.0050 -0.3881 -0.0262
31203SOL    HW197971  10.667   6.469   9.112  0.0224 -0.2598  0.5060
31203SOL    HW297972  10.812   6.502   9.144  0.5932 -0.0576 -2.1029
31204SOL     OW97973   8.561   1.334   2.407 -0.5767  0.3668  0.0925
31204SOL    HW197974   8.480   1.288   2.427 -0.8443  1.3837  1.4347
31204SOL    HW297975   8.533   1.422   2.381  0.0760  0.6131  0.2061
31205SOL     OW97976   5.363   1.469   4.956 -0.2150 -0.1495  0.0431
31205SOL    HW197977   5.368   1.497   5.048 -1.8099 -0.7922  0.3490
31205SOL    HW297978   5.287   1.515   4.920  0.3521  0.0434 -0.9549
31206SOL     OW97979   9.716   9.192   1.401 -0.5272  0.1116 -0.9959
31206SOL    HW197980   9.764   9.273   1.387 -0.2708  0.0817 -0.3100
31206SOL    HW297981   9.698   9.190   1.495  2.2284 -2.1227 -0.3764
31207SOL     OW97982   0.347  10.347   6.545 -0.2214 -0.7057  0.0023
31207SOL    HW197983   0.324  10.284   6.476 -2.5550  0.1113 -0.0562
31207SOL    HW297984   0.368  10.427   6.498  0.4458 -0.7856  0.1637
31208SOL     OW97985   4.390   1.467   5.166  0.2191 -1.1881  0.1404
31208SOL    HW197986   4.436   1.461   5.250 -1.2012 -1.2288  0.9444
31208SOL    HW297987   4.352   1.555   5.166  0.4517 -1.0843 -0.5972
31209SOL     OW97988   1.263   4.195   6.665  0.4711  0.1920  0.3865
31209SOL    HW197989   1.305   4.109   6.669  0.9570  0.0262 -4.0661
31209SOL    HW297990   1.327   4.254   6.706  0.6458 -1.3022  2.4437
31210SOL     OW97991   6.874   9.696   4.734  0.5303  0.2855 -0.2472
31210SOL    HW197992   6.826   9.614   4.748 -0.1312  1.0444  2.6828
31210SOL    HW297993   6.806   9.763   4.732  1.0300  0.8241 -2.9868
31211SOL     OW97994   5.483   0.241   7.291  0.0439 -0.1175 -0.0269
31211SOL    HW197995   5.448   0.168   7.239 -0.2014 -0.9715  1.2983
31211SOL    HW297996   5.416   0.256   7.358  1.0362 -0.0600  0.9700
31212SOL     OW97997   6.053   2.049   7.188 -0.4290  0.2824 -0.0088
31212SOL    HW197998   6.076   1.959   7.165 -0.2842  0.0665  0.9441
31212SOL    HW297999   5.957   2.048   7.192 -0.4370  0.2225 -0.1966
31213SOL     OW98000   9.127   7.664   3.464  0.6002  0.8293  0.0329
31213SOL    HW198001   9.172   7.598   3.413 -1.1906 -0.0091 -0.5364
31213SOL    HW298002   9.115   7.624   3.550 -1.1537  0.0351 -0.5296
31214SOL     OW98003   7.023   9.719   0.435  0.3373 -0.1426 -0.2551
31214SOL    HW198004   7.077   9.750   0.507 -1.7668  0.7542  1.0340
31214SOL    HW298005   7.014   9.795   0.377 -0.7265  0.2085  0.3320
31215SOL     OW98006   0.589   4.383   4.166  0.3660  1.0319  0.0975
31215SOL    HW198007   0.667   4.372   4.221  0.6346  1.1394 -0.2557
31215SOL    HW298008   0.530   4.314   4.194 -0.1616  2.0297  1.6294
31216SOL     OW98009   5.932   2.737   6.134 -0.5414  0.1817  0.8070
31216SOL    HW198010   5.939   2.650   6.173  0.7725 -0.0948  0.0197
31216SOL    HW298011   5.932   2.796   6.209 -2.2649 -0.5041  1.3923
31217SOL     OW98012   8.099   8.013   1.871  0.2097  0.4503 -0.0426
31217SOL    HW198013   8.100   8.102   1.906 -2.1264  1.9434 -3.2685
31217SOL    HW298014   8.079   7.958   1.946 -2.4028  3.1296  1.4184
31218SOL     OW98015   2.554   2.923   6.298  0.8470  0.1273  0.2140
31218SOL    HW198016   2.522   2.838   6.268 -1.3698  1.1141 -0.4471
31218SOL    HW298017   2.640   2.933   6.257  1.0499 -1.6737  0.1283
31219SOL     OW98018  10.567   6.311   1.675  0.3553 -0.4003 -0.5038
31219SOL    HW198019  10.575   6.404   1.693 -3.2093 -0.6929  4.9095
31219SOL    HW298020  10.490   6.304   1.617 -0.0400  0.0138 -0.0355
31220SOL     OW98021   0.757   3.324   9.529 -0.5319 -0.1903  0.0297
31220SOL    HW198022   0.674   3.307   9.574 -0.0653  0.2190  1.0560
31220SOL    HW298023   0.732   3.333   9.437 -1.6554  0.1540  0.3509
31221SOL     OW98024   4.616   2.271   3.916  0.0362  0.6432  0.0106
31221SOL    HW198025   4.644   2.349   3.868 -1.5994  1.6826  0.6484
31221SOL    HW298026   4.697   2.228   3.941  1.0449  2.7237  0.5354
31222SOL     OW98027   3.715   0.772   3.730  0.0391 -0.4012  0.1493
31222SOL    HW198028   3.710   0.865   3.709 -1.0897 -0.2239  1.1178
31222SOL    HW298029   3.667   0.729   3.659 -1.6950 -0.0063  1.0404
31223SOL     OW98030   5.222   0.293  10.951  0.1306 -0.2181 -0.1606
31223SOL    HW198031   5.301   0.347  10.950  1.5027 -1.9722  1.9458
31223SOL    HW298032   5.202   0.283  11.045 -1.2104 -1.7287 -0.5678
31224SOL     OW98033   1.109   0.291   2.082 -0.0311  0.9119 -0.1535
31224SOL    HW198034   1.030   0.268   2.131 -0.5525 -1.1907 -1.7911
31224SOL    HW298035   1.078   0.339   2.006  0.1519 -0.4011 -1.0954
31225SOL     OW98036  10.927   4.152   8.297 -0.2206 -0.4031 -0.1618
31225SOL    HW198037  10.961   4.168   8.385  0.3362 -0.1477 -0.4258
31225SOL    HW298038  10.832   4.166   8.305 -0.2307 -0.8122  0.4954
31226SOL     OW98039  10.792   0.548   8.314 -0.0260 -0.4716 -0.1841
31226SOL    HW198040  10.793   0.629   8.262  1.7291 -1.6656 -2.1632
31226SOL    HW298041  10.703   0.543   8.349 -0.1971  2.2764 -0.0042
31227SOL     OW98042   8.214   2.829   2.490 -0.3682  0.5706 -0.1061
31227SOL    HW198043   8.248   2.762   2.431  1.1617 -0.1937  1.5214
31227SOL    HW298044   8.255   2.910   2.462 -0.3804  0.3831 -0.6644
31228SOL     OW98045   0.270   2.526   1.336  0.4799 -0.2777 -0.0714
31228SOL    HW198046   0.251   2.437   1.306  1.6378  0.0724 -2.0261
31228SOL    HW298047   0.185   2.570   1.337  0.0004 -1.1837  0.1447
31229SOL     OW98048   1.409   2.010   7.393 -0.1864  0.4650 -0.1501
31229SOL    HW198049   1.494   1.978   7.420  0.3415  1.6696 -0.3135
31229SOL    HW298050   1.362   1.932   7.363  0.4164 -0.3853  1.0398
31230SOL     OW98051   9.357   3.261   6.734  0.3337 -0.5064  0.1790
31230SOL    HW198052   9.449   3.243   6.756  0.5855  0.9058  0.3803
31230SOL    HW298053   9.361   3.335   6.674 -0.6631 -0.6923 -0.1236
31231SOL     OW98054  10.265   3.472  10.302 -0.2162 -0.1002 -0.0666
31231SOL    HW198055  10.197   3.535  10.278  1.1095  1.4083 -0.0176
31231SOL    HW298056  10.254   3.400  10.240 -0.9419  0.7772 -0.9898
31232SOL     OW98057   1.828   4.033  10.326  0.8332  0.0816 -0.2546
31232SOL    HW198058   1.792   4.102  10.271 -0.8457  0.6663  1.4804
31232SOL    HW298059   1.863   3.969  10.264  2.3685  2.3784 -1.9361
31233SOL     OW98060   8.696   4.696   6.119 -0.1945 -0.2237  0.0993
31233SOL    HW198061   8.607   4.673   6.143 -0.6748  1.1817 -0.2434
31233SOL    HW298062   8.729   4.619   6.072 -1.6824 -0.2810 -0.9084
31234SOL     OW98063   5.130   3.632   7.094  0.9062 -0.3145 -0.5500
31234SOL    HW198064   5.189   3.674   7.032  0.3934 -1.4436 -1.8520
31234SOL    HW298065   5.136   3.538   7.074  1.9022 -0.9355  2.1473
31235SOL     OW98066   1.767   0.130   1.587  0.2299 -0.1563  0.1765
31235SOL    HW198067   1.693   0.151   1.530 -0.7613  1.7631  2.0202
31235SOL    HW298068   1.727   0.092   1.665  1.3431 -0.5430  0.5843
31236SOL     OW98069   8.148   3.291   9.679 -0.2408  0.0879 -0.0120
31236SOL    HW198070   8.205   3.289   9.602 -1.1813 -0.2238 -0.7149
31236SOL    HW298071   8.076   3.232   9.657  0.9068 -2.3918  2.2518
31237SOL     OW98072  10.121   3.030   6.172 -0.3598 -0.2299  0.1728
31237SOL    HW198073  10.046   3.059   6.223  0.5011  0.3555  1.1220
31237SOL    HW298074  10.141   3.103   6.114 -0.3683 -0.2904  0.0933
31238SOL     OW98075   7.548   1.179  10.666 -0.3670 -0.2184 -0.1753
31238SOL    HW198076   7.538   1.243  10.595  3.4872  0.5520 -0.2495
31238SOL    HW298077   7.516   1.225  10.743 -0.7569  0.5494 -0.7801
31239SOL     OW98078   3.155   5.070   2.604  0.0138  0.0668 -0.8108
31239SOL    HW198079   3.079   5.083   2.661  0.3953  0.8755 -0.4790
31239SOL    HW298080   3.210   5.008   2.652 -0.9262 -1.3833 -1.5438
31240SOL     OW98081   3.649   4.085   7.704  0.3926  0.2413 -0.2421
31240SOL    HW198082   3.656   4.152   7.771  2.5360  0.1487 -0.3187
31240SOL    HW298083   3.737   4.075   7.669 -0.3672 -0.7667 -2.0611
31241SOL     OW98084   5.921   6.045   9.878  0.2850  0.0534 -0.4153
31241SOL    HW198085   5.904   6.019   9.969  1.3420  1.6042  0.2719
31241SOL    HW298086   5.972   5.972   9.841  0.3194 -0.3497  0.4040
31242SOL     OW98087   8.191   0.889   0.411 -0.3519  0.0551 -0.0685
31242SOL    HW198088   8.209   0.814   0.354 -1.6441  0.2706 -0.8282
31242SOL    HW298089   8.222   0.965   0.361 -0.7790  0.1752 -0.1636
31243SOL     OW98090  10.780  10.374   0.157  0.0830 -0.6408  0.7117
31243SOL    HW198091  10.771  10.284   0.125  1.8303 -0.4879 -0.3509
31243SOL    HW298092  10.869  10.378   0.192  0.6949  1.1015 -0.8644
31244SOL     OW98093   6.202   2.551   0.260  0.2336  0.1771  0.2280
31244SOL    HW198094   6.264   2.499   0.312 -0.1618 -0.6615 -0.1219
31244SOL    HW298095   6.133   2.489   0.236 -0.2724  0.8800 -0.1650
31245SOL     OW98096   0.556   8.972   5.071  0.1350 -0.4737 -0.2380
31245SOL    HW198097   0.546   8.980   5.166 -1.4225 -2.4134 -0.1478
31245SOL    HW298098   0.518   8.886   5.051 -0.7416  0.4053 -2.7733
31246SOL     OW98099   3.935   7.480   2.574  0.6776 -0.3384  0.1622
31246SOL    HW198100   3.996   7.520   2.511 -1.0917  0.6233 -1.0339
31246SOL    HW298101   3.917   7.394   2.538 -1.5821  0.7902 -1.6728
31247SOL     OW98102   3.350   5.290   3.216 -0.1115  0.2656  0.4195
31247SOL    HW198103   3.348   5.250   3.303 -0.8818 -0.1872  0.1975
31247SOL    HW298104   3.260   5.284   3.184 -0.1440  1.7080  0.1542
31248SOL     OW98105   6.576   4.746   0.529 -0.0001 -0.3845 -0.2322
31248SOL    HW198106   6.640   4.722   0.596 -0.6107  0.3055  0.6194
31248SOL    HW298107   6.517   4.806   0.574 -1.6177 -1.4907 -0.7994
31249SOL     OW98108   4.163   3.236   4.705 -0.2837  0.0682 -0.1462
31249SOL    HW198109   4.083   3.207   4.749  0.3722 -0.7491  0.5403
31249SOL    HW298110   4.135   3.260   4.617 -1.2056 -0.6567 -0.0595
31250SOL     OW98111   1.595   9.783   3.428 -0.0979 -0.2184 -0.7462
31250SOL    HW198112   1.499   9.787   3.432 -0.0830 -0.1360 -0.4528
31250SOL    HW298113   1.614   9.703   3.379 -0.3065 -0.8262  0.1405
31251SOL     OW98114   2.948  11.098   5.070  0.4871 -0.1575 -0.8122
31251SOL    HW198115   3.022  11.156   5.087 -0.7067  1.0025  0.6873
31251SOL    HW298116   2.893  11.147   5.008  1.1973 -1.2628 -2.3954
31252SOL     OW98117   0.308   2.312   4.970  0.2129 -0.4598  0.0786
31252SOL    HW198118   0.384   2.254   4.974  0.3511 -0.3924 -1.1493
31252SOL    HW298119   0.344   2.400   4.984  0.4481 -0.3807 -0.9259
31253SOL     OW98120   2.664   1.342   2.546 -0.2526 -0.0218 -0.4676
31253SOL    HW198121   2.741   1.393   2.570 -1.3432  0.7151  1.7161
31253SOL    HW298122   2.601   1.407   2.515 -1.6031  0.0648  2.1970
31254SOL     OW98123   1.409   0.883   4.777  0.3050 -0.3757 -0.2889
31254SOL    HW198124   1.490   0.919   4.741 -0.3341  0.9745 -0.4382
31254SOL    HW298125   1.384   0.813   4.716 -0.2500  1.2331 -2.0114
31255SOL     OW98126   0.364   8.437   6.662  0.0628  0.2760  0.0144
31255SOL    HW198127   0.377   8.375   6.591  2.8690  3.3544 -2.5132
31255SOL    HW298128   0.451   8.473   6.679 -1.2915  3.2244  1.4991
31256SOL     OW98129   7.674   6.826   7.708 -0.1555  0.5639  0.5551
31256SOL    HW198130   7.594   6.877   7.704 -1.7273 -1.7559  0.1547
31256SOL    HW298131   7.686   6.807   7.801  0.2836  1.3882  0.6757
31257SOL     OW98132   9.777   7.319   5.919  0.1317 -0.4458 -0.0346
31257SOL    HW198133   9.800   7.258   5.849  0.8482  0.8435 -0.9704
31257SOL    HW298134   9.785   7.267   6.000  0.4192 -1.6559 -0.8067
31258SOL     OW98135   8.932   9.587   3.662 -0.2448  0.2783 -0.5888
31258SOL    HW198136   8.853   9.640   3.668  1.2897  2.7873 -0.7506
31258SOL    HW298137   8.935   9.539   3.744 -1.1569  1.3539  0.1126
31259SOL     OW98138   6.155   2.221   1.900  0.2822  0.4231  0.3630
31259SOL    HW198139   6.191   2.155   1.842  1.7878  0.9380  0.6837
31259SOL    HW298140   6.060   2.214   1.888  0.5294  0.1799 -1.7589
31260SOL     OW98141   3.487   1.729   6.576  0.0374 -0.0563  0.3655
31260SOL    HW198142   3.434   1.664   6.530 -0.3704 -1.7387  3.0298
31260SOL    HW298143   3.567   1.681   6.600  0.0673  0.6234  1.6955
31261SOL     OW98144   6.216   2.268   4.299  0.4362  0.1558 -0.4560
31261SOL    HW198145   6.303   2.304   4.312 -0.5271  2.5100  0.1612
31261SOL    HW298146   6.195   2.288   4.207  0.6608 -0.7120 -0.7016
31262SOL     OW98147   5.611   4.639   7.775  0.3647  0.4722  0.1096
31262SOL    HW198148   5.522   4.655   7.806 -0.2942  1.7257 -2.1648
31262SOL    HW298149   5.631   4.716   7.721  2.2751 -0.4680 -0.5916
31263SOL     OW98150   1.286   3.024   0.693  0.2273  0.0053  0.2641
31263SOL    HW198151   1.193   3.028   0.673  0.0956  0.4757  0.9405
31263SOL    HW298152   1.325   3.097   0.644 -0.1046  1.1966  1.7039
31264SOL     OW98153   3.989   6.007   3.552 -0.0162  0.4646 -0.2198
31264SOL    HW198154   3.916   5.951   3.580  1.7598 -1.0766  1.6544
31264SOL    HW298155   3.959   6.046   3.470 -1.7616 -2.5114 -1.1778
31265SOL     OW98156   6.509   4.897   1.433 -0.0324  0.0865 -0.0320
31265SOL    HW198157   6.476   4.904   1.343 -0.1497  0.5656  0.0417
31265SOL    HW298158   6.581   4.960   1.436 -1.0184  1.2336  0.6361
31266SOL     OW98159   5.096  10.247   7.358 -0.1058  0.3400  0.1181
31266SOL    HW198160   5.110  10.181   7.427  0.3248 -1.2550 -1.4199
31266SOL    HW298161   5.001  10.246   7.344 -0.0099 -0.7485 -0.5965
31267SOL     OW98162   9.670   8.065   8.995  0.0760  0.7674  0.3246
31267SOL    HW198163   9.679   8.032   9.084  0.4863  1.0146  0.3766
31267SOL    HW298164   9.641   7.989   8.944  2.3824 -0.0870  0.1570
31268SOL     OW98165   3.542  11.067   7.260  0.5728  0.3965 -0.0791
31268SOL    HW198166   3.601  11.111   7.200  1.0379 -0.2782 -0.1310
31268SOL    HW298167   3.467  11.041   7.205  0.2538  1.1819 -0.0276
31269SOL     OW98168  11.078   4.182   4.571 -0.0295  0.0581 -0.0843
31269SOL    HW198169  11.173   4.186   4.564  0.1443 -0.6534  1.4104
31269SOL    HW298170  11.049   4.272   4.554  0.9210  0.3306 -0.3268
31270SOL     OW98171   3.704   8.425   8.153  0.1093 -0.3545 -0.2902
31270SOL    HW198172   3.627   8.480   8.137 -0.7198 -0.8464  1.6479
31270SOL    HW298173   3.687   8.386   8.239  2.0234 -1.3668 -0.3297
31271SOL     OW98174   5.834  10.034   9.315  0.2827 -0.4935 -0.2600
31271SOL    HW198175   5.764  10.060   9.375 -0.1439 -1.3922 -0.3535
31271SOL    HW298176   5.902  10.100   9.327 -1.0240  1.0532 -0.9808
31272SOL     OW98177   9.445   3.082   5.097  0.0841 -0.0565  0.2430
31272SOL    HW198178   9.470   3.096   5.188  1.6736 -1.4339  0.0719
31272SOL    HW298179   9.467   3.164   5.053  2.2199 -0.3977  0.5628
31273SOL     OW98180   8.091   4.054  10.689  0.8866 -0.2592  0.2685
31273SOL    HW198181   8.104   4.052  10.783  0.8079  0.1717  0.2904
31273SOL    HW298182   8.104   4.145  10.664  1.9189 -0.5437 -0.2908
31274SOL     OW98183  10.174   8.212   2.514 -0.2644 -0.4548 -0.1465
31274SOL    HW198184  10.200   8.133   2.561 -0.3116 -0.8487 -0.7718
31274SOL    HW298185  10.199   8.284   2.573  1.9893 -0.8175 -0.5675
31275SOL     OW98186  10.490   5.798   9.789  0.0831  0.4077  0.3701
31275SOL    HW198187  10.540   5.834   9.717  1.7831 -0.4940  1.0496
31275SOL    HW298188  10.546   5.730   9.827 -1.8499 -1.0397  0.8479
31276SOL     OW98189   0.863   0.886   1.546  0.2719 -0.0360 -0.2570
31276SOL    HW198190   0.900   0.971   1.521 -0.7457  0.6823  0.5628
31276SOL    HW298191   0.808   0.861   1.473  0.5767  0.0075 -0.5023
31277SOL     OW98192  10.973   2.728   9.165 -0.0490 -0.3441 -0.6714
31277SOL    HW198193  10.948   2.640   9.139 -1.5208  0.3647 -1.8314
31277SOL    HW298194  11.037   2.756   9.100 -1.0667  0.1310 -1.5018
31278SOL     OW98195   6.458   8.957   3.201 -0.0001 -0.2207 -0.4601
31278SOL    HW198196   6.474   8.947   3.295  0.2880  0.0434 -0.4783
31278SOL    HW298197   6.482   9.048   3.183 -0.4757 -0.1410 -0.7054
31279SOL     OW98198   8.432   2.472   5.082  0.3152 -0.1731  0.0757
31279SOL    HW198199   8.444   2.528   5.005  1.4474  0.3506  0.5991
31279SOL    HW298200   8.512   2.420   5.086 -0.5026 -1.4839 -0.1009
31280SOL     OW98201   3.357   7.375   0.279  0.4573  0.4147 -0.3131
31280SOL    HW198202   3.365   7.297   0.224  1.2818  1.3964 -1.6486
31280SOL    HW298203   3.302   7.347   0.352  1.7501 -1.7659 -0.0697
31281SOL     OW98204   9.766   8.131   4.766  0.4560  0.5936  0.3776
31281SOL    HW198205   9.685   8.172   4.798  0.1354 -0.6714  1.2558
31281SOL    HW298206   9.821   8.205   4.741  0.1293  1.6398  2.4505
31282SOL     OW98207  10.320   7.308   0.891  0.3247 -0.3667 -0.0565
31282SOL    HW198208  10.315   7.346   0.978  2.4848  0.0909 -0.0828
31282SOL    HW298209  10.257   7.358   0.839  0.6134  0.8665  0.7340
31283SOL     OW98210   2.517   7.739   4.380 -0.7707 -0.3081 -0.8857
31283SOL    HW198211   2.531   7.808   4.314 -0.7334 -0.2297 -0.7956
31283SOL    HW298212   2.573   7.667   4.352 -0.6993 -0.2471 -0.8974
31284SOL     OW98213   5.794   4.395   1.535 -0.2286 -0.1947 -0.2182
31284SOL    HW198214   5.705   4.370   1.558  0.1730 -2.7116 -1.1314
31284SOL    HW298215   5.784   4.452   1.459 -1.0598 -0.2997 -0.1941
31285SOL     OW98216   0.995  10.679  11.074 -0.5780  0.2182 -0.1058
31285SOL    HW198217   1.003  10.723  11.159  1.7214  0.2534 -0.2814
31285SOL    HW298218   1.042  10.735  11.013 -0.7764 -0.6389 -1.0764
31286SOL     OW98219  10.541   3.121   5.024 -0.2634  0.1357  0.1885
31286SOL    HW198220  10.579   3.199   5.064 -1.0996  1.3597 -1.2893
31286SOL    HW298221  10.451   3.146   5.003 -0.7531 -1.4534  0.2741
31287SOL     OW98222   4.392   0.996   3.139 -0.2853 -0.3835  0.1183
31287SOL    HW198223   4.471   0.947   3.117 -0.6873 -1.2140  0.4892
31287SOL    HW298224   4.382   0.985   3.234  0.2892  1.4416  0.4327
31288SOL     OW98225   2.637   3.093   4.658  0.0823 -0.6969 -0.0503
31288SOL    HW198226   2.572   3.131   4.599  1.3630 -0.3720 -1.3152
31288SOL    HW298227   2.595   3.015   4.693 -0.7819 -0.8395 -1.3277
31289SOL     OW98228   4.581   2.113   0.209  0.6448 -0.0345  0.3746
31289SOL    HW198229   4.545   2.083   0.293 -0.8512 -2.3758 -0.9824
31289SOL    HW298230   4.675   2.117   0.223  0.6255 -2.4007  1.6545
31290SOL     OW98231   8.510   0.580   0.364 -0.0493 -0.1475  0.2857
31290SOL    HW198232   8.595   0.596   0.405 -1.1765 -1.2957  3.4019
31290SOL    HW298233   8.531   0.545   0.278  2.6530 -0.7350  1.0816
31291SOL     OW98234   0.037  10.550   2.868  0.3086 -0.1086  0.3414
31291SOL    HW198235   0.039  10.614   2.939  0.6000 -1.9008  2.0520
31291SOL    HW298236  -0.056  10.530   2.857  0.1336  1.2903 -0.8839
31292SOL     OW98237   5.743   9.647   1.875  0.3129  0.3519  0.4376
31292SOL    HW198238   5.714   9.557   1.865 -0.2312  0.2276  2.5848
31292SOL    HW298239   5.828   9.641   1.919 -0.4045  0.8573  1.9861
31293SOL     OW98240   3.310   8.927   7.964  0.0178 -0.5688 -0.0596
31293SOL    HW198241   3.227   8.965   7.992  1.8361  2.3243  2.0191
31293SOL    HW298242   3.308   8.933   7.869 -1.7011  0.5154  0.0016
31294SOL     OW98243  10.938  10.289   4.612  0.0377  0.1632 -0.0383
31294SOL    HW198244  10.911  10.350   4.681  0.0965  0.0626  0.0731
31294SOL    HW298245  10.988  10.342   4.551  0.6799  0.0837  0.4135
31295SOL     OW98246   7.715   8.012   0.555  0.1295  0.4189  0.6212
31295SOL    HW198247   7.621   8.015   0.573 -0.0647 -1.9542  0.3154
31295SOL    HW298248   7.723   7.959   0.476  1.8222 -1.8011  2.1501
31296SOL     OW98249   9.212   2.145   4.431  0.8588  0.1473  0.1498
31296SOL    HW198250   9.214   2.053   4.457  1.7812  0.2781  0.5705
31296SOL    HW298251   9.142   2.149   4.366 -2.0583 -0.0392  3.0282
31297SOL     OW98252   7.510  10.596   4.555  0.0797  0.5463  0.3754
31297SOL    HW198253   7.518  10.591   4.650  0.3247  1.1951  0.3938
31297SOL    HW298254   7.582  10.543   4.522 -0.0145  0.3059  0.5506
31298SOL     OW98255   5.295   0.780   1.341  0.9793 -0.6275  0.8156
31298SOL    HW198256   5.281   0.780   1.247  0.0940  0.4300  0.9175
31298SOL    HW298257   5.278   0.871   1.367  1.1693 -0.9156  1.9954
31299SOL     OW98258   7.264   9.562   3.147 -0.2998  0.3380  0.3499
31299SOL    HW198259   7.249   9.621   3.074 -1.3481 -1.9688 -1.4330
31299SOL    HW298260   7.352   9.528   3.133  0.4475  1.6461  1.5768
31300SOL     OW98261   7.368   0.031   3.818  0.0466 -0.6305  0.9185
31300SOL    HW198262   7.283   0.027   3.775  0.4875  0.3027 -0.0876
31300SOL    HW298263   7.431   0.013   3.748  0.7831  1.0024  1.1103
31301SOL     OW98264   6.533   4.248   2.719  0.0791 -0.6434  0.0361
31301SOL    HW198265   6.499   4.159   2.718  0.9552 -0.9804 -0.2871
31301SOL    HW298266   6.459   4.302   2.690 -0.1098 -1.3846 -0.8956
31302SOL     OW98267   6.549   1.994   4.285  0.0891  0.1666 -0.2141
31302SOL    HW198268   6.524   1.991   4.377  0.7520  1.4333  0.0210
31302SOL    HW298269   6.514   1.913   4.248 -0.4118 -0.2282  1.0878
31303SOL     OW98270   9.122   4.885   1.177 -0.1384 -0.1036  0.1378
31303SOL    HW198271   9.119   4.898   1.082  0.7450 -0.9668 -0.0236
31303SOL    HW298272   9.168   4.961   1.210 -1.5570  0.8372  0.0284
31304SOL     OW98273   9.072  10.085  10.438 -0.1807  0.1597 -0.1193
31304SOL    HW198274   9.155  10.065  10.481  0.1805 -0.6783 -1.1684
31304SOL    HW298275   9.036  10.000  10.414 -0.7935  0.5710 -0.6879
31305SOL     OW98276   3.110   8.263   4.684 -0.0857  0.2919  0.3000
31305SOL    HW198277   3.087   8.256   4.591 -0.9502  1.3990  0.4102
31305SOL    HW298278   3.055   8.197   4.726 -0.8878  0.8771  0.1984
31306SOL     OW98279   0.190   8.588   9.172  0.5034 -0.0847 -0.2866
31306SOL    HW198280   0.188   8.616   9.080 -0.0021 -0.8923 -0.5272
31306SOL    HW298281   0.229   8.501   9.170  1.5198  0.3333  0.3950
31307SOL     OW98282   1.134   7.571   2.275 -0.0510  0.4378 -0.1704
31307SOL    HW198283   1.194   7.607   2.209  2.2903 -1.0782  0.9976
31307SOL    HW298284   1.140   7.631   2.349 -1.0465  0.9821 -0.5037
31308SOL     OW98285   2.899   8.569   1.536  0.6687 -0.1546  0.2143
31308SOL    HW198286   2.869   8.632   1.471  2.2901 -0.2763 -0.6867
31308SOL    HW298287   2.981   8.534   1.501  1.5844 -0.2608  2.2906
31309SOL     OW98288  10.501   8.374   8.378  0.5563  0.3426 -0.6584
31309SOL    HW198289  10.469   8.284   8.382  1.6513 -0.1365 -1.8284
31309SOL    HW298290  10.553   8.377   8.298  0.5933  2.0091 -0.6014
31310SOL     OW98291   9.429   3.121  10.980 -0.2948  0.2754  0.1437
31310SOL    HW198292   9.497   3.134  11.046  0.4783 -0.8001 -0.4036
31310SOL    HW298293   9.451   3.037  10.940 -1.0981  0.6169 -1.0582
31311SOL     OW98294   6.672   7.132   6.983  0.0213 -0.4366 -0.0250
31311SOL    HW198295   6.739   7.128   7.052 -0.7820 -0.8003  0.7463
31311SOL    HW298296   6.594   7.163   7.028 -0.1582  0.6779 -1.0644
31312SOL     OW98297  10.881  10.340   8.122 -0.8731  0.9341 -0.5401
31312SOL    HW198298  10.920  10.418   8.083  1.2232  0.7108  0.9695
31312SOL    HW298299  10.956  10.288   8.152 -2.1611 -1.7992 -1.6990
31313SOL     OW98300   8.661   3.419   7.988 -0.5509 -0.3356  0.2486
31313SOL    HW198301   8.689   3.505   7.957 -1.4757 -0.3897 -0.7797
31313SOL    HW298302   8.605   3.437   8.063 -1.5814  0.0383 -0.5857
31314SOL     OW98303   7.074   8.787   0.486  0.0356  0.3201 -0.5971
31314SOL    HW198304   7.133   8.715   0.465  0.0089 -0.1657  0.9127
31314SOL    HW298305   7.096   8.855   0.422  0.3814 -0.8326 -1.7504
31315SOL     OW98306   4.853   1.644   7.235 -0.3281 -0.4080  0.3387
31315SOL    HW198307   4.935   1.633   7.186 -0.0427  0.2037  0.6628
31315SOL    HW298308   4.876   1.619   7.325 -0.4480 -0.0583  0.4672
31316SOL     OW98309   9.207   4.886   7.756  0.2197  0.4537  0.1971
31316SOL    HW198310   9.210   4.793   7.776  0.3222  0.2840 -0.5872
31316SOL    HW298311   9.295   4.906   7.723  0.4335  0.9946  1.0505
31317SOL     OW98312  10.924   6.949  10.442 -0.2361  0.7869  0.2927
31317SOL    HW198313  10.898   6.886  10.375 -0.6880 -1.8094  2.6893
31317SOL    HW298314  11.018   6.937  10.451 -0.2247  0.8995  0.3300
31318SOL     OW98315   3.839   6.914   2.520  0.5476 -0.0460 -0.2741
31318SOL    HW198316   3.774   6.974   2.484  0.6315  0.5937  0.5948
31318SOL    HW298317   3.825   6.832   2.473  1.1052  0.9202 -2.2325
31319SOL     OW98318   8.374   7.899   9.443  0.0864  0.1859  0.2927
31319SOL    HW198319   8.446   7.939   9.493 -0.0182 -0.1818  0.7409
31319SOL    HW298320   8.305   7.886   9.508 -1.0060  1.9834 -0.4371
31320SOL     OW98321   6.655   5.673   9.098 -0.6161  0.6116 -0.5135
31320SOL    HW198322   6.574   5.635   9.132 -1.1364  0.6908 -1.6179
31320SOL    HW298323   6.677   5.618   9.023  1.1381 -0.2719  0.5991
31321SOL     OW98324   6.272   9.287  10.878  0.1618 -0.3909  0.1264
31321SOL    HW198325   6.271   9.377  10.909 -3.0904 -0.2678 -0.0707
31321SOL    HW298326   6.285   9.235  10.958  1.4582  0.1933  0.3171
31322SOL     OW98327   8.394   5.841   4.657 -0.1522 -0.3019 -0.4179
31322SOL    HW198328   8.486   5.856   4.679  0.2083 -1.7591 -0.8337
31322SOL    HW298329   8.391   5.853   4.562 -0.5976  0.6372 -0.2976
31323SOL     OW98330   9.369  10.679   8.753 -0.1943 -0.1593 -0.0039
31323SOL    HW198331   9.391  10.771   8.737 -1.3642 -0.1339 -1.7092
31323SOL    HW298332   9.440  10.647   8.808  0.6950  1.5292 -0.0996
31324SOL     OW98333   2.871   2.332   8.541 -0.1784 -0.3199 -0.4822
31324SOL    HW198334   2.900   2.318   8.451 -0.8508 -0.6318 -0.6568
31324SOL    HW298335   2.906   2.418   8.564 -0.4686  0.0073 -1.2348
31325SOL     OW98336   1.081   3.474   7.856  0.6956  0.4374  0.1846
31325SOL    HW198337   1.095   3.512   7.943  3.1493  3.6612 -1.3701
31325SOL    HW298338   1.127   3.390   7.859 -1.7600 -0.9578  2.7348
31326SOL     OW98339   4.589   7.451   7.272  0.5068 -0.3074 -0.3209
31326SOL    HW198340   4.556   7.364   7.293  1.0068  0.1632  2.8728
31326SOL    HW298341   4.511   7.506   7.269  0.3008 -0.6330 -1.1095
31327SOL     OW98342   3.086  10.974  11.031  0.3670  0.1173  0.4773
31327SOL    HW198343   3.126  10.888  11.048 -0.1075  0.1081  1.6627
31327SOL    HW298344   3.150  11.037  11.067 -0.8068  0.0845  2.8441
31328SOL     OW98345  10.209   2.449   8.733  0.5315  0.1383  0.2542
31328SOL    HW198346  10.300   2.422   8.720  0.4704  0.3186 -0.5763
31328SOL    HW298347  10.158   2.370   8.716  0.4112  0.5155 -1.3153
31329SOL     OW98348   0.669   0.543   0.382 -0.5332 -0.3083 -0.4884
31329SOL    HW198349   0.701   0.453   0.390  1.1628  0.2102 -1.1050
31329SOL    HW298350   0.690   0.568   0.292 -0.8913  0.7447 -0.2853
31330SOL     OW98351   6.232   5.136   0.000 -0.0871  0.4771 -0.0685
31330SOL    HW198352   6.318   5.154  -0.037 -0.0690 -0.3972 -0.4830
31330SOL    HW298353   6.173   5.195  -0.046  0.2492  0.8988  0.0353
31331SOL     OW98354   6.287   4.966   0.453 -0.2082 -0.3070 -0.3651
31331SOL    HW198355   6.355   4.901   0.435 -0.3274 -0.4033 -0.4664
31331SOL    HW298356   6.295   4.982   0.548  0.2035 -0.0373 -0.4402
31332SOL     OW98357   7.358   9.182   1.037 -0.3300  0.1440  0.4459
31332SOL    HW198358   7.277   9.221   1.070 -0.0407  1.8213 -0.7137
31332SOL    HW298359   7.381   9.235   0.961  2.1180  0.0275  1.0243
31333SOL     OW98360   4.862  10.872   2.616  0.9102  0.5175 -0.4059
31333SOL    HW198361   4.916  10.947   2.641  0.0392  0.8125  0.6282
31333SOL    HW298362   4.792  10.910   2.562  0.5798  0.4216 -0.0450
31334SOL     OW98363   4.821   4.690   9.176  0.4021  0.0979  0.9007
31334SOL    HW198364   4.888   4.737   9.126 -1.6724  2.6358  0.2595
31334SOL    HW298365   4.747   4.684   9.116 -1.8359  2.3167  3.1573
31335SOL     OW98366   3.290   9.610   1.484 -0.2753 -0.4024  0.3537
31335SOL    HW198367   3.205   9.650   1.464 -0.9288 -2.1401 -0.5691
31335SOL    HW298368   3.268   9.534   1.538  0.4643 -1.9347 -1.3992
31336SOL     OW98369   7.645   1.700   5.736  0.3583 -0.3489 -0.2329
31336SOL    HW198370   7.711   1.744   5.789  1.0489 -0.0236 -1.3505
31336SOL    HW298371   7.599   1.771   5.691  1.5823 -0.7313 -2.1703
31337SOL     OW98372   3.950   2.931   2.950  0.1330 -0.0119 -0.2347
31337SOL    HW198373   3.923   2.839   2.939  0.5059 -0.2248  0.5718
31337SOL    HW298374   3.945   2.968   2.861  0.2675 -0.8901 -0.6218
31338SOL     OW98375   4.406  10.997   7.880  0.0902 -0.3018 -0.1210
31338SOL    HW198376   4.448  10.917   7.910 -0.4259 -0.1075  1.1695
31338SOL    HW298377   4.328  11.006   7.934  0.7440  1.6772  0.5940
31339SOL     OW98378   4.836   7.317   3.521  0.0299 -0.4198 -0.0305
31339SOL    HW198379   4.916   7.276   3.489 -0.6629 -2.2328  0.4139
31339SOL    HW298380   4.814   7.383   3.455  1.4267 -0.4705 -0.5666
31340SOL     OW98381   1.870   3.636   9.703 -0.1700 -0.2709  0.6051
31340SOL    HW198382   1.958   3.651   9.737 -0.9338  1.3430  2.0489
31340SOL    HW298383   1.825   3.720   9.714 -1.8415 -0.9807 -0.2866
31341SOL     OW98384   9.766   5.601   0.088  0.4912  0.2336  0.2311
31341SOL    HW198385   9.707   5.570   0.020 -0.0912 -0.2728  0.9441
31341SOL    HW298386   9.709   5.624   0.161  1.1459 -0.0737  0.8635
31342SOL     OW98387   3.234   0.742   9.218 -0.6558 -0.2716  0.0622
31342SOL    HW198388   3.216   0.665   9.163 -0.1965  0.4505 -1.1484
31342SOL    HW298389   3.204   0.717   9.305 -2.6192 -1.0045 -0.7650
31343SOL     OW98390   8.752   9.389   1.236 -0.0351 -0.5445 -0.0090
31343SOL    HW198391   8.829   9.446   1.224 -0.5441 -0.0096 -0.8025
31343SOL    HW298392   8.751   9.371   1.330 -0.0432  1.0479  0.3241
31344SOL     OW98393   3.923  10.051   8.027 -0.3369  0.5990  0.1967
31344SOL    HW198394   3.994  10.062   8.090  1.3278 -1.5177 -1.2072
31344SOL    HW298395   3.864  10.125   8.045  2.6667  3.0820  0.7438
31345SOL     OW98396  10.531   6.192   7.654  0.1377 -0.1128  0.7330
31345SOL    HW198397  10.515   6.198   7.560  0.1183  2.5799  0.8147
31345SOL    HW298398  10.547   6.099   7.670  0.6095 -0.5900 -1.9927
31346SOL     OW98399   4.425  11.012   3.432  0.0761  0.0329 -0.5595
31346SOL    HW198400   4.332  11.031   3.444  0.1384  0.9592 -1.4448
31346SOL    HW298401   4.435  10.921   3.460 -0.5775  0.7172  2.1072
31347SOL     OW98402   0.415   8.708   5.114  0.5697 -0.0744 -0.5809
31347SOL    HW198403   0.383   8.623   5.084 -0.8614  0.3790 -0.4575
31347SOL    HW298404   0.349   8.736   5.178  2.1859  0.1377  1.0434
31348SOL     OW98405   8.829   9.769   1.861  0.0495  0.2156  0.1047
31348SOL    HW198406   8.756   9.735   1.913  0.7090  0.1492  1.0279
31348SOL    HW298407   8.797   9.853   1.827  0.1937  1.1900  2.1855
31349SOL     OW98408   2.960   7.834   0.096  0.5440  0.1776  0.0771
31349SOL    HW198409   2.972   7.760   0.156 -0.6547  0.7019  0.9936
31349SOL    HW298410   3.048   7.871   0.086  0.5672  1.0453  2.7761
31350SOL     OW98411   9.412   7.943   5.284  0.2155 -0.0668  0.2634
31350SOL    HW198412   9.419   8.013   5.219  4.9303  0.4694  0.9487
31350SOL    HW298413   9.465   7.974   5.358 -2.0153 -2.1414  2.9766
31351SOL     OW98414   7.841   7.435  10.690  0.0786 -0.1973  0.3255
31351SOL    HW198415   7.799   7.361  10.645 -0.2790  0.9271 -1.2801
31351SOL    HW298416   7.793   7.512  10.660  2.1595  0.9726 -0.1957
31352SOL     OW98417   4.360   4.522   8.364 -0.5557 -0.1755 -0.0122
31352SOL    HW198418   4.439   4.539   8.312 -0.7328 -0.7126 -0.4567
31352SOL    HW298419   4.305   4.599   8.351 -1.0887 -0.7766 -1.5315
31353SOL     OW98420  10.901   1.077   8.820 -0.6608  0.1610 -0.5748
31353SOL    HW198421  10.847   1.146   8.859 -1.1215 -1.6112  2.2841
31353SOL    HW298422  10.838   1.008   8.796 -0.0211 -0.2381 -1.1459
31354SOL     OW98423  10.384  10.867   4.267  0.5968  0.1628  0.0501
31354SOL    HW198424  10.409  10.945   4.218  0.5065 -0.4533 -1.0045
31354SOL    HW298425  10.301  10.840   4.228  0.1115  0.1103  1.0847
31355SOL     OW98426   5.210   9.400   1.759 -0.3357 -1.1219 -0.1309
31355SOL    HW198427   5.288   9.354   1.727  1.6815  1.2049  1.0495
31355SOL    HW298428   5.197   9.366   1.848  0.6700 -0.0661  0.4469
31356SOL     OW98429   3.529   9.583   3.984 -0.1002 -0.2054  0.4703
31356SOL    HW198430   3.565   9.514   4.040 -0.8353  0.1961  1.4740
31356SOL    HW298431   3.455   9.542   3.939  0.3598 -0.4679 -0.0628
31357SOL     OW98432   1.868   0.175   5.171  0.5329 -0.1321 -0.2014
31357SOL    HW198433   1.865   0.269   5.189 -0.4241 -0.1449 -0.2049
31357SOL    HW298434   1.928   0.140   5.236  1.5929  0.5983 -0.7681
31358SOL     OW98435   8.855   0.675   8.486  0.1322 -1.0786  0.5023
31358SOL    HW198436   8.815   0.748   8.439 -0.3935 -0.3389  2.0428
31358SOL    HW298437   8.859   0.605   8.421 -1.9769 -0.5977 -0.2387
31359SOL     OW98438   3.635  10.016   0.701  0.1681 -0.2739 -0.2426
31359SOL    HW198439   3.599  10.102   0.721  1.3455  0.2243 -0.1767
31359SOL    HW298440   3.562   9.966   0.666 -1.0633  0.0509  1.7315
31360SOL     OW98441   9.787   1.494   1.786  0.6501  0.1608 -0.0206
31360SOL    HW198442   9.702   1.491   1.831  0.8356 -3.5752  0.3878
31360SOL    HW298443   9.764   1.496   1.693  0.1853  1.0447  0.0987
31361SOL     OW98444   4.956   1.376   5.637 -1.0211  0.3184 -0.4276
31361SOL    HW198445   4.998   1.455   5.670 -2.4370  0.7095  0.5321
31361SOL    HW298446   4.987   1.306   5.695 -1.1723  0.4942 -0.1314
31362SOL     OW98447   6.533   1.234   5.897 -0.0536 -0.5310  0.1510
31362SOL    HW198448   6.513   1.328   5.904 -0.1691 -0.4808 -0.7725
31362SOL    HW298449   6.598   1.219   5.965  0.3028  0.3210  0.0129
31363SOL     OW98450  10.852   5.528   7.492  0.0310 -0.3251 -0.3799
31363SOL    HW198451  10.904   5.548   7.570 -0.7328 -1.3856  0.4360
31363SOL    HW298452  10.789   5.600   7.487 -0.2500 -0.5205  0.2877
31364SOL     OW98453   1.227   3.264   1.626 -0.0974  0.0821 -0.2691
31364SOL    HW198454   1.176   3.246   1.705 -0.0951 -0.3533 -0.3625
31364SOL    HW298455   1.308   3.304   1.658 -0.4228  0.6116 -0.1080
31365SOL     OW98456   1.093   7.697   4.030  0.3087 -0.8486  0.0990
31365SOL    HW198457   1.069   7.788   4.015 -0.7389 -1.1555 -0.1942
31365SOL    HW298458   1.088   7.685   4.125  0.3257 -0.6293  0.1260
31366SOL     OW98459   9.425   4.077   3.195 -0.4921 -0.1426  0.0023
31366SOL    HW198460   9.412   4.065   3.289  0.8061  1.4303  0.4187
31366SOL    HW298461   9.393   4.166   3.177 -0.0757 -0.1633 -0.9169
31367SOL     OW98462  10.227   8.813   5.830  0.4891  0.2469  0.1204
31367SOL    HW198463  10.173   8.762   5.890  0.9223 -0.7382 -0.3146
31367SOL    HW298464  10.164   8.863   5.778 -0.1842 -2.1323 -1.5366
31368SOL     OW98465   4.964   2.279   0.625 -0.3311 -0.4270 -0.4694
31368SOL    HW198466   5.044   2.250   0.580  0.1776 -0.2339  0.2918
31368SOL    HW298467   4.946   2.210   0.689 -0.8256 -0.5084 -0.6913
31369SOL     OW98468  10.789   9.175   2.331 -0.5965 -0.1942 -0.2468
31369SOL    HW198469  10.791   9.082   2.351  0.3943 -0.5012 -1.6171
31369SOL    HW298470  10.727   9.212   2.394 -1.0841 -1.7830  0.2500
31370SOL     OW98471   9.352   6.403   7.637  0.1263 -0.1376  0.1572
31370SOL    HW198472   9.340   6.470   7.704  0.7726 -0.8399  0.9906
31370SOL    HW298473   9.313   6.442   7.558  1.2058  1.5520  0.4068
31371SOL     OW98474   7.221  10.454   9.385 -0.4288  0.4436  0.2173
31371SOL    HW198475   7.247  10.520   9.322  0.9329  0.6795  0.9961
31371SOL    HW298476   7.253  10.486   9.469 -1.8589 -0.0510  0.9955
31372SOL     OW98477   7.406   7.114   8.534  0.0268 -0.0718  0.2811
31372SOL    HW198478   7.409   7.069   8.450 -1.1549 -2.6552  1.4944
31372SOL    HW298479   7.351   7.191   8.518  2.5424  1.4051 -1.9991
31373SOL     OW98480   2.528   1.729   7.816  0.0260 -0.1667  0.0213
31373SOL    HW198481   2.592   1.784   7.771  0.5536 -0.3062  0.5821
31373SOL    HW298482   2.559   1.726   7.907  0.6491 -2.2925 -0.2184
31374SOL     OW98483   2.698   1.900   8.450  0.0755  0.1602 -0.0711
31374SOL    HW198484   2.641   1.831   8.483  0.3859 -0.1691 -0.2148
31374SOL    HW298485   2.676   1.977   8.502  2.0647 -0.8644  2.4563
31375SOL     OW98486   8.098   2.903   8.874 -0.2896 -0.2899  0.0316
31375SOL    HW198487   8.175   2.955   8.849  0.3040 -1.2092 -0.0922
31375SOL    HW298488   8.082   2.846   8.799 -0.1204 -1.2069  0.6743
31376SOL     OW98489   0.208   1.200   4.695 -0.5531  0.0679 -0.1256
31376SOL    HW198490   0.168   1.226   4.778 -0.9022 -2.0744  0.4506
31376SOL    HW298491   0.302   1.196   4.715 -0.4477  1.1702 -0.3340
31377SOL     OW98492   6.088   3.590   3.861  0.5156 -0.4673  0.0298
31377SOL    HW198493   6.080   3.499   3.890 -0.8649  0.0974  1.5209
31377SOL    HW298494   6.051   3.642   3.932 -3.8327  0.9805 -2.9024
31378SOL     OW98495   9.545   7.030   3.212  0.0940  0.0410 -0.3835
31378SOL    HW198496   9.615   6.994   3.267 -0.8344 -1.4447 -0.1215
31378SOL    HW298497   9.558   6.990   3.126  2.1774  3.1504 -1.7125
31379SOL     OW98498   0.350   3.430   8.760  0.0389  0.0163  0.3926
31379SOL    HW198499   0.421   3.368   8.747  0.6485  0.3668  1.8173
31379SOL    HW298500   0.297   3.393   8.830  0.1291  0.8438  0.9215
31380SOL     OW98501   9.345   2.216   4.116  0.2204  0.1169 -0.2135
31380SOL    HW198502   9.352   2.161   4.194  0.0680  1.4356  0.7827
31380SOL    HW298503   9.419   2.191   4.061  0.5710 -0.5590  0.5527
31381SOL     OW98504   9.279   3.216   1.096 -0.1300  0.3367  0.5425
31381SOL    HW198505   9.349   3.242   1.156  0.5642  1.2602 -0.6079
31381SOL    HW298506   9.324   3.165   1.028 -1.0172 -1.3780  1.1814
31382SOL     OW98507   7.724   0.243   6.050 -0.2209  0.1510  0.0256
31382SOL    HW198508   7.672   0.302   6.105  0.4191  0.6649  0.0949
31382SOL    HW298509   7.666   0.168   6.033 -0.4497  0.0082  1.3467
31383SOL     OW98510  10.059   6.120  10.834  0.4944 -0.3150  0.0946
31383SOL    HW198511  10.139   6.093  10.789  0.3756 -0.4516 -0.0361
31383SOL    HW298512   9.994   6.053  10.811  0.4895 -0.5021  0.6381
31384SOL     OW98513   7.830   2.299   1.635  0.4154 -0.2260 -0.0594
31384SOL    HW198514   7.783   2.375   1.669  1.0054  0.4945 -0.7953
31384SOL    HW298515   7.919   2.310   1.669  0.5353 -0.5088 -0.2864
31385SOL     OW98516   4.552   0.036   4.426  0.1204 -0.1792  0.1932
31385SOL    HW198517   4.537   0.130   4.413 -2.1623 -0.4144  0.6230
31385SOL    HW298518   4.643   0.030   4.456  0.5915  1.7890 -0.6815
31386SOL     OW98519   2.825   6.229   5.219  0.3940 -0.1898 -0.5915
31386SOL    HW198520   2.838   6.278   5.138 -1.0027  1.3206  0.0462
31386SOL    HW298521   2.870   6.280   5.286 -0.3394 -0.2183 -0.0600
31387SOL     OW98522   2.887   7.079   3.526 -0.4160 -0.6383 -0.1867
31387SOL    HW198523   2.843   7.142   3.583  0.2247 -0.3002 -0.0626
31387SOL    HW298524   2.947   7.032   3.584 -1.6090 -2.1044 -0.0467
31388SOL     OW98525   1.685   0.619   4.099  0.0855  0.3740  0.5431
31388SOL    HW198526   1.615   0.555   4.085  1.3799 -1.1642  0.8127
31388SOL    HW298527   1.683   0.674   4.021 -0.3552 -0.6852 -0.2231
31389SOL     OW98528   2.012   1.235   4.351  0.2918 -0.3695 -0.3848
31389SOL    HW198529   1.991   1.238   4.258 -0.5124 -3.1870 -0.3786
31389SOL    HW298530   1.928   1.214   4.394  1.1253 -1.7352  0.6702
31390SOL     OW98531   8.178  10.830   9.806 -0.5654 -0.2949 -0.4910
31390SOL    HW198532   8.145  10.745   9.835 -1.4796  0.3283  0.3643
31390SOL    HW298533   8.152  10.836   9.714 -1.8819 -0.2924 -0.1337
31391SOL     OW98534  10.574   0.206  10.032 -0.4651 -0.0101  0.1902
31391SOL    HW198535  10.598   0.242  10.117 -0.0940 -1.0420  0.5432
31391SOL    HW298536  10.574   0.111  10.045 -3.0264 -0.1397 -0.2742
31392SOL     OW98537   5.954   5.097   9.177  0.5170 -0.3415  0.0727
31392SOL    HW198538   5.919   5.071   9.263  0.1864 -1.8171 -0.4781
31392SOL    HW298539   5.876   5.109   9.122  0.7690 -0.8778 -0.4100
31393SOL     OW98540   7.743   7.387   7.558 -0.0574 -0.1509  0.1037
31393SOL    HW198541   7.792   7.310   7.587  0.1312  0.0048  0.1994
31393SOL    HW298542   7.771   7.457   7.617 -2.3509 -0.6404  1.8900
31394SOL     OW98543   3.910   9.626   1.258  0.0320 -0.1251 -0.5101
31394SOL    HW198544   3.980   9.692   1.259  0.6147 -0.7198 -0.9513
31394SOL    HW298545   3.830   9.677   1.241  0.5349  0.4270 -1.3524
31395SOL     OW98546  10.006   0.322   9.174  0.1610 -0.4282 -0.3375
31395SOL    HW198547   9.914   0.303   9.157  0.1825  1.1562 -2.6948
31395SOL    HW298548  10.006   0.375   9.253 -0.6748 -2.3181  1.0045
31396SOL     OW98549   0.455   0.929   8.933  0.0304  0.5941 -0.5933
31396SOL    HW198550   0.400   0.878   8.993 -1.4876  1.0894 -1.4832
31396SOL    HW298551   0.464   1.014   8.976 -0.8526  0.8691 -0.9181
31397SOL     OW98552   0.150   4.334   3.532  0.1297 -0.4380  0.3458
31397SOL    HW198553   0.208   4.372   3.466 -0.0045 -0.1164  0.4086
31397SOL    HW298554   0.203   4.332   3.612  0.5673 -1.6017  0.0401
31398SOL     OW98555   3.730   0.126   7.751 -0.1723 -0.0314  0.0428
31398SOL    HW198556   3.739   0.124   7.846  0.6411 -1.7513 -0.0327
31398SOL    HW298557   3.791   0.059   7.720 -0.0195  0.8720 -1.7309
31399SOL     OW98558   8.390   7.749   9.943  0.4866  0.5398  0.7000
31399SOL    HW198559   8.366   7.838   9.915 -0.7911 -0.0611 -0.1790
31399SOL    HW298560   8.364   7.693   9.870  0.3811 -0.6657  1.6404
31400SOL     OW98561   0.920   9.639   6.415 -0.0332  0.2602  0.1071
31400SOL    HW198562   1.011   9.611   6.425  0.5346  1.7948 -0.4709
31400SOL    HW298563   0.877   9.565   6.372  1.2262 -0.0342 -0.7063
31401SOL     OW98564   2.661   2.698   9.131  0.0696 -0.6117 -0.6976
31401SOL    HW198565   2.736   2.653   9.092  0.4689 -0.7604  0.1954
31401SOL    HW298566   2.597   2.628   9.145 -0.0415 -0.5725 -1.0040
31402SOL     OW98567   0.690  10.960   8.396 -0.2000 -0.2133 -0.3063
31402SOL    HW198568   0.718  10.987   8.308 -0.5592  2.1105  0.2258
31402SOL    HW298569   0.749  11.007   8.455 -0.5568 -1.0237  0.7235
31403SOL     OW98570   9.366   9.236   2.687  0.5679 -0.5180 -0.0085
31403SOL    HW198571   9.271   9.239   2.686  0.4807 -2.1515  0.3685
31403SOL    HW298572   9.393   9.307   2.628 -0.8364  0.5253  0.5330
31404SOL     OW98573   7.439   2.960   7.089 -0.2599 -0.2398  0.3538
31404SOL    HW198574   7.421   2.868   7.109  0.1905 -0.3952  0.0362
31404SOL    HW298575   7.387   3.009   7.154  1.3620 -0.7359  2.1176
31405SOL     OW98576   3.533   9.330   0.448 -0.3098 -0.6575  0.0579
31405SOL    HW198577   3.459   9.376   0.486 -0.9702 -1.3114 -0.4171
31405SOL    HW298578   3.607   9.391   0.457 -0.5805 -0.5508  1.8026
31406SOL     OW98579   9.473   3.580   0.408  0.6645  0.5672 -0.6994
31406SOL    HW198580   9.468   3.664   0.455  1.9982 -0.7679  2.0363
31406SOL    HW298581   9.543   3.592   0.345  0.0224  1.8712 -1.2039
31407SOL     OW98582   6.761   5.731   1.255 -1.0034 -0.3205  0.0140
31407SOL    HW198583   6.697   5.787   1.211 -0.6226  1.0060  1.0523
31407SOL    HW298584   6.808   5.791   1.313 -1.6243 -1.9628  2.3773
31408SOL     OW98585   7.185   0.238  10.435 -0.5072 -0.0413 -0.0581
31408SOL    HW198586   7.189   0.332  10.451  0.7934  0.2476 -1.7823
31408SOL    HW298587   7.111   0.208  10.488 -1.4742  2.0734 -0.0972
31409SOL     OW98588   9.616   5.316   0.482 -0.1673 -0.3963 -0.2681
31409SOL    HW198589   9.703   5.301   0.517 -0.5729 -1.1908  0.4262
31409SOL    HW298590   9.628   5.315   0.387  0.6604  0.0373 -0.1752
31410SOL     OW98591   4.292   5.235   1.062 -0.7905  0.1602  0.0393
31410SOL    HW198592   4.304   5.185   0.981  0.6602 -1.3594  1.1145
31410SOL    HW298593   4.255   5.318   1.034  2.2935  0.8496 -2.5518
31411SOL     OW98594   0.769   2.891  10.278 -0.6148 -0.4020 -0.5643
31411SOL    HW198595   0.787   2.887  10.372  0.0125  4.6428 -0.1981
31411SOL    HW298596   0.851   2.862  10.237  0.4276  0.7572  0.5992
31412SOL     OW98597   5.164   1.934   3.447 -0.1746  0.1848  0.2957
31412SOL    HW198598   5.259   1.930   3.438 -0.2969  0.4868 -1.3923
31412SOL    HW298599   5.130   1.896   3.366 -1.4748  2.0099 -0.0931
31413SOL     OW98600  10.049   6.059   0.353  0.0952  0.5803  0.1407
31413SOL    HW198601  10.044   6.001   0.278 -0.8809  1.5292 -0.5466
31413SOL    HW298602  10.142   6.081   0.360  0.0454  1.4496 -1.5549
31414SOL     OW98603   1.194   1.285   4.287  0.1226  0.0275  0.2113
31414SOL    HW198604   1.200   1.375   4.318 -1.6993  0.2315  0.0504
31414SOL    HW298605   1.277   1.270   4.240  0.3130  1.7069 -0.0364
31415SOL     OW98606   2.319   0.973   4.805  0.4274 -0.4270 -0.3570
31415SOL    HW198607   2.375   0.991   4.730  0.7685 -1.9875 -0.5272
31415SOL    HW298608   2.362   1.016   4.879  0.4283  0.5810 -0.9264
31416SOL     OW98609   4.741   0.021   5.163  0.4536 -0.1243  0.1088
31416SOL    HW198610   4.751  -0.003   5.070  0.8698 -0.6429  0.2840
31416SOL    HW298611   4.795   0.098   5.174  2.5647 -1.5791  0.5181
31417SOL     OW98612   6.403   8.899   1.160 -0.1416  0.1328 -0.0664
31417SOL    HW198613   6.312   8.868   1.168 -0.2118 -0.4152 -2.3447
31417SOL    HW298614   6.402   8.985   1.202 -1.5589 -0.1515  0.5492
31418SOL     OW98615   8.513   1.749   1.740 -0.5761 -0.1010  0.3578
31418SOL    HW198616   8.566   1.763   1.661  0.8298  2.0240  1.5810
31418SOL    HW298617   8.518   1.655   1.756  0.7855 -0.2823 -0.9575
31419SOL     OW98618   6.723   9.508   2.957  0.5151  0.0600  0.2534
31419SOL    HW198619   6.662   9.571   2.994  1.1017  1.1132 -0.5100
31419SOL    HW298620   6.746   9.544   2.871  1.1019 -1.0411 -0.0788
31420SOL     OW98621  10.160   5.259   8.871  0.7457  0.7985 -0.7587
31420SOL    HW198622  10.088   5.321   8.863 -0.9036 -1.0918 -1.3467
31420SOL    HW298623  10.200   5.256   8.784  0.9877  1.1939 -0.6644
31421SOL     OW98624   5.117   0.064   1.807  0.5507  0.0237 -0.0142
31421SOL    HW198625   5.178  -0.001   1.842 -0.5160 -1.8505 -1.4312
31421SOL    HW298626   5.043   0.063   1.869  0.5186 -0.1259 -0.0561
31422SOL     OW98627   7.009   9.388   3.550  0.5082  0.3202  0.2967
31422SOL    HW198628   7.010   9.413   3.642  1.3747  1.4238  0.0227
31422SOL    HW298629   7.065   9.453   3.507  0.6149 -0.5255 -0.9160
31423SOL     OW98630   2.311   3.351   7.054  0.2264  0.3852 -0.4796
31423SOL    HW198631   2.217   3.365   7.059  0.3867  1.9226 -1.2558
31423SOL    HW298632   2.320   3.262   7.019 -0.9041 -0.2246  0.6958
31424SOL     OW98633   2.481   9.932   1.849  0.2891 -0.0638 -0.2018
31424SOL    HW198634   2.390   9.948   1.826  0.6663 -1.2213 -2.8520
31424SOL    HW298635   2.531   9.982   1.784  1.5452 -0.4567  0.4315
31425SOL     OW98636   1.073   4.161   5.262 -0.4152 -0.3025  0.1650
31425SOL    HW198637   1.024   4.210   5.196 -1.6063 -0.4075  0.9438
31425SOL    HW298638   1.007   4.133   5.325  0.6772 -0.3630  1.3114
31426SOL     OW98639   6.052   0.148   4.833 -0.6551 -0.3394 -0.2134
31426SOL    HW198640   6.064   0.190   4.748  2.8395  0.3103  0.4092
31426SOL    HW298641   6.040   0.055   4.812  0.5162 -0.2552 -1.4681
31427SOL     OW98642   5.334   3.821   2.516 -0.5980  0.2303  0.1829
31427SOL    HW198643   5.329   3.734   2.478 -0.7268 -0.5034  1.8027
31427SOL    HW298644   5.252   3.831   2.564 -0.6142  1.2786 -0.0393
31428SOL     OW98645   8.778   0.220   9.980 -0.5072 -0.1618  0.4662
31428SOL    HW198646   8.725   0.142   9.962 -2.9728  1.8247 -1.8126
31428SOL    HW298647   8.731   0.264  10.051 -2.4049  1.7821 -1.7889
31429SOL     OW98648   8.285   4.918   0.525 -0.4787 -0.1646  0.2022
31429SOL    HW198649   8.329   4.835   0.504  0.3416  0.7273 -1.9322
31429SOL    HW298650   8.213   4.923   0.462 -1.0755  0.3400  0.9157
31430SOL     OW98651   3.115   7.913   2.877 -0.1867 -0.2550 -0.5428
31430SOL    HW198652   3.082   7.868   2.800 -0.0496 -0.5479 -0.4326
31430SOL    HW298653   3.174   7.980   2.843 -0.3173 -0.2195 -0.7014
31431SOL     OW98654   4.284   8.839   3.258  0.9727 -0.1142 -0.2075
31431SOL    HW198655   4.294   8.919   3.309 -0.9503 -0.1528  0.3177
31431SOL    HW298656   4.221   8.862   3.189  1.3455 -0.8382 -0.8000
31432SOL     OW98657   9.768   1.815   2.222  0.1092  0.2313  0.2338
31432SOL    HW198658   9.705   1.743   2.211  0.9222 -0.5559  0.6446
31432SOL    HW298659   9.713   1.893   2.228 -0.7436 -0.0346 -2.3931
31433SOL     OW98660   3.982   0.689   3.851 -0.3388 -0.1379 -0.1314
31433SOL    HW198661   3.886   0.683   3.859 -0.3978  0.7936 -0.0244
31433SOL    HW298662   4.011   0.598   3.846 -1.1247 -0.4781  1.0906
31434SOL     OW98663   8.596   0.116   8.487 -0.4267  0.0253 -0.4040
31434SOL    HW198664   8.635   0.072   8.411  0.4664  1.4245 -0.7953
31434SOL    HW298665   8.589   0.207   8.461 -1.2164  0.3257  0.7808
31435SOL     OW98666   3.105   1.277   6.211  0.4666 -0.8316 -0.4041
31435SOL    HW198667   3.200   1.280   6.219  0.5659  0.2235 -1.6771
31435SOL    HW298668   3.089   1.268   6.117 -0.6959 -1.1868 -0.1933
31436SOL     OW98669   1.712   0.976   2.536 -0.1573  0.2520  0.7137
31436SOL    HW198670   1.693   0.888   2.503  2.1192 -1.1004  2.6339
31436SOL    HW298671   1.781   1.009   2.477 -0.2444  0.3119  0.6442
31437SOL     OW98672   3.268   4.689   2.986 -0.5718  0.0247  0.3202
31437SOL    HW198673   3.285   4.676   3.079  1.8687 -0.9026 -0.1982
31437SOL    HW298674   3.175   4.668   2.976 -1.2021  1.2859  2.6863
31438SOL     OW98675   1.138   5.929  10.557 -0.1814 -0.3596  0.0485
31438SOL    HW198676   1.138   5.989  10.483  1.6347 -0.3315  0.0274
31438SOL    HW298677   1.191   5.973  10.623 -1.8715 -0.3208  1.4652
31439SOL     OW98678   2.735   3.175   3.980 -0.2262  0.2181 -0.8530
31439SOL    HW198679   2.645   3.146   3.966 -0.0174 -0.9193 -0.0167
31439SOL    HW298680   2.729   3.270   3.990 -1.3997  0.1015 -0.2781
31440SOL     OW98681   8.519   0.483  10.696 -0.2926 -0.7026 -0.1696
31440SOL    HW198682   8.483   0.568  10.673  0.3034 -0.9381 -2.1165
31440SOL    HW298683   8.442   0.429  10.717 -0.7258  0.0278  0.1511
31441SOL     OW98684   6.442  10.887   7.660  0.1443  0.2831 -0.0264
31441SOL    HW198685   6.534  10.891   7.685  0.4422 -0.4387 -0.9517
31441SOL    HW298686   6.424  10.794   7.649 -0.1662  0.5054 -1.7180
31442SOL     OW98687   3.342   9.536   5.594 -0.6546 -0.3877 -0.7889
31442SOL    HW198688   3.374   9.474   5.659 -1.1650  0.4990  0.3480
31442SOL    HW298689   3.329   9.484   5.514  1.2118 -1.2339 -0.5715
31443SOL     OW98690  10.891   7.560   8.494  0.3094  0.2230  0.0104
31443SOL    HW198691  10.949   7.522   8.428  0.0560 -1.7623  0.8590
31443SOL    HW298692  10.803   7.545   8.460  0.2099  1.8423 -0.5423
31444SOL     OW98693  10.037   1.888   3.830 -0.2202 -0.0381  0.3076
31444SOL    HW198694  10.080   1.824   3.773 -0.0744 -0.0996  0.4840
31444SOL    HW298695  10.086   1.884   3.912 -1.4231 -1.1239  1.0103
31445SOL     OW98696  11.003   0.381   8.711  0.5332 -0.6660  0.8884
31445SOL    HW198697  11.003   0.388   8.616  1.5755  0.5897  0.9444
31445SOL    HW298698  10.916   0.349   8.734 -0.7129  1.6378 -0.3269
31446SOL     OW98699   4.965   9.564   7.482 -0.0826  0.2756 -0.1815
31446SOL    HW198700   4.971   9.470   7.470  0.4921  0.4454 -1.5276
31446SOL    HW298701   4.923   9.595   7.401  0.8531  1.2680 -0.3153
31447SOL     OW98702   9.138   5.008   4.547 -0.5483 -0.1416 -0.4311
31447SOL    HW198703   9.077   5.006   4.620 -1.3990 -0.4668 -1.1396
31447SOL    HW298704   9.131   4.921   4.508  1.2223 -0.5957  0.1572
31448SOL     OW98705   2.720  10.403   9.661  0.3356 -0.3906  0.2839
31448SOL    HW198706   2.723  10.316   9.621 -2.2472 -0.1235 -0.7195
31448SOL    HW298707   2.674  10.390   9.744 -1.1765  0.1279 -0.4304
31449SOL     OW98708   3.812   6.183   0.625  0.2524  0.7662 -0.3386
31449SOL    HW198709   3.881   6.180   0.559 -0.1159  2.0612 -0.8090
31449SOL    HW298710   3.732   6.200   0.575 -0.2365  0.4383  0.3186
31450SOL     OW98711   4.569   8.876   0.838  0.2202  0.0661 -0.2553
31450SOL    HW198712   4.478   8.860   0.813  0.3412  0.3340 -0.8591
31450SOL    HW298713   4.580   8.971   0.834  0.3411  0.0950  0.4851
31451SOL     OW98714   9.864   8.374   6.693  0.0340 -0.3668  0.5736
31451SOL    HW198715   9.856   8.307   6.761  1.4631 -2.1610 -0.9336
31451SOL    HW298716   9.951   8.412   6.707 -0.6947  1.1246  1.3040
31452SOL     OW98717   1.730   8.236   0.656 -0.7682  0.1066  0.1356
31452SOL    HW198718   1.716   8.266   0.567 -0.0661 -1.2002 -0.4540
31452SOL    HW298719   1.785   8.303   0.696  0.6316 -0.2587 -1.0812
31453SOL     OW98720  10.380   7.717   8.090 -0.9821  0.0092  0.0829
31453SOL    HW198721  10.416   7.715   8.001  0.2187 -1.8322  0.5487
31453SOL    HW298722  10.403   7.804   8.123  0.2173  0.0486 -0.7664
31454SOL     OW98723   6.376  10.780   8.681  0.5357  0.2008  0.7437
31454SOL    HW198724   6.449  10.722   8.701  1.4197  0.7739 -0.6087
31454SOL    HW298725   6.300  10.739   8.721  1.5076 -0.6933  1.7393
31455SOL     OW98726  10.877   9.250   8.632  0.7815  0.4671 -0.5308
31455SOL    HW198727  10.904   9.164   8.665 -0.1933  0.5745  0.5843
31455SOL    HW298728  10.828   9.290   8.704  1.7561  2.2367 -0.7943
31456SOL     OW98729   3.397   1.183   3.165  0.4700 -0.0286 -0.3070
31456SOL    HW198730   3.453   1.135   3.104  0.8586  0.7501 -0.5704
31456SOL    HW298731   3.381   1.121   3.236 -0.1460 -1.0166 -1.2790
31457SOL     OW98732   2.418   5.311   4.474  0.3425 -0.5679 -0.3905
31457SOL    HW198733   2.446   5.396   4.440  1.4415 -1.3930 -1.6611
31457SOL    HW298734   2.416   5.255   4.397  0.0451 -1.8069  0.4985
31458SOL     OW98735  10.993   8.170   3.616  0.4186  0.0745 -0.5337
31458SOL    HW198736  10.923   8.111   3.642  0.4297 -0.2239 -1.1659
31458SOL    HW298737  10.953   8.227   3.550  0.3527  0.9075  0.2006
31459SOL     OW98738   5.294   4.007   4.390  0.0761 -0.6375  0.5200
31459SOL    HW198739   5.240   4.026   4.313  0.7542 -0.2926  0.1192
31459SOL    HW298740   5.384   4.004   4.356  0.3511 -0.7939  1.2467
31460SOL     OW98741   2.024   5.439   9.237  0.0036  0.4545  0.2460
31460SOL    HW198742   2.017   5.509   9.172 -0.7138  0.4117  0.2708
31460SOL    HW298743   2.059   5.482   9.315  1.0111  0.4770 -0.2042
31461SOL     OW98744   5.843   4.368   1.214  0.7044  0.0071 -1.3807
31461SOL    HW198745   5.850   4.453   1.257 -2.3167 -1.9162  3.8657
31461SOL    HW298746   5.777   4.381   1.146 -3.2336  1.3142  2.2486
31462SOL     OW98747   6.250   4.680  10.994 -0.5459 -0.5272  0.2109
31462SOL    HW198748   6.213   4.625  11.063 -2.3843 -0.5880 -0.7447
31462SOL    HW298749   6.279   4.617  10.927  1.4792 -0.4851  0.9824
31463SOL     OW98750   7.615   0.717   6.664  0.0438 -0.8226 -0.1807
31463SOL    HW198751   7.630   0.690   6.574  0.3126 -0.4776 -0.2393
31463SOL    HW298752   7.602   0.635   6.712  0.7422 -1.0562 -0.3798
31464SOL     OW98753   7.731   7.426   0.291 -0.2579  0.6929 -0.3997
31464SOL    HW198754   7.708   7.514   0.320 -0.7550  0.4591 -0.0664
31464SOL    HW298755   7.703   7.422   0.200  0.8141  1.2522 -0.7719
31465SOL     OW98756   3.679   1.482   3.557  0.1535 -0.1024  0.2445
31465SOL    HW198757   3.772   1.474   3.534  0.1247  0.9986 -0.3240
31465SOL    HW298758   3.667   1.575   3.575 -0.8727 -0.2220  0.2177
31466SOL     OW98759   4.406   8.520   5.102 -0.3534 -0.2301 -0.2962
31466SOL    HW198760   4.369   8.432   5.106  0.5735 -0.6128  0.4372
31466SOL    HW298761   4.368   8.566   5.178 -0.8968  0.0346 -0.7229
31467SOL     OW98762   8.643   2.468   3.023 -0.0907  0.2218  0.3163
31467SOL    HW198763   8.562   2.496   2.982 -0.9223 -0.3777  1.4957
31467SOL    HW298764   8.701   2.447   2.949 -0.5941  1.7135 -0.5481
31468SOL     OW98765  11.037   9.620   3.104  0.2200  0.3377 -0.1532
31468SOL    HW198766  10.948   9.585   3.111  0.0602  0.8732  0.6569
31468SOL    HW298767  11.025   9.714   3.090  0.6524  0.4592  0.2685
31469SOL     OW98768   5.143   1.669   1.235 -0.0391 -0.1465 -0.6890
31469SOL    HW198769   5.159   1.740   1.173  2.2079  0.6686  0.7243
31469SOL    HW298770   5.219   1.612   1.227 -0.8643 -1.3329 -0.3586
31470SOL     OW98771   9.324   3.674  10.958 -0.1542 -0.0195  0.2695
31470SOL    HW198772   9.419   3.690  10.959  0.0803 -1.2826 -0.3518
31470SOL    HW298773   9.309   3.623  10.879 -1.1353 -1.2032  1.1830
31471SOL     OW98774  11.111   4.501   9.361 -0.0277  0.4544 -0.4313
31471SOL    HW198775  11.201   4.479   9.385 -0.5680 -0.5410  0.8308
31471SOL    HW298776  11.061   4.486   9.441 -0.9050  3.9349 -0.1713
31472SOL     OW98777   9.818   4.108   8.307 -0.0212 -0.0228 -0.6661
31472SOL    HW198778   9.728   4.088   8.281 -0.0675 -0.8203  0.0560
31472SOL    HW298779   9.870   4.035   8.272  0.3869  0.5291 -1.2436
31473SOL     OW98780   2.952   0.619   3.145 -0.7449 -0.0258  0.2655
31473SOL    HW198781   2.991   0.637   3.060 -1.2100  0.4147  0.1432
31473SOL    HW298782   2.899   0.541   3.132 -1.3367  0.4154 -0.0154
31474SOL     OW98783   2.220   3.974   3.674  0.4413 -0.1432 -0.1314
31474SOL    HW198784   2.130   3.959   3.645 -1.2968  3.3954  2.6772
31474SOL    HW298785   2.262   4.017   3.599 -0.8958  0.1671 -0.7427
31475SOL     OW98786   4.475   7.564   9.035 -0.5217  0.2696 -0.9007
31475SOL    HW198787   4.497   7.588   8.945 -0.3291 -1.4043 -1.3386
31475SOL    HW298788   4.486   7.469   9.037 -0.2153  0.3185  0.9840
31476SOL     OW98789   1.311   5.202  11.044 -0.0845  0.1651 -1.0280
31476SOL    HW198790   1.384   5.166  10.993 -0.6966 -2.4288 -0.2391
31476SOL    HW298791   1.238   5.206  10.983 -0.3713 -1.3325 -0.8148
31477SOL     OW98792   0.003   0.005  10.519  0.3153 -0.1783  0.1936
31477SOL    HW198793   0.071   0.034  10.579  1.1853 -0.8317 -0.4472
31477SOL    HW298794   0.049  -0.050  10.455 -0.5663  0.5531 -1.1173
31478SOL     OW98795   4.915   3.933   2.408 -0.1036  0.2012  0.3442
31478SOL    HW198796   4.846   3.934   2.342  0.3430 -1.0484 -0.1685
31478SOL    HW298797   4.871   3.957   2.489 -0.9496  0.3245 -0.1432
31479SOL     OW98798   1.641   1.601   9.811 -0.2799  0.3707 -0.2322
31479SOL    HW198799   1.735   1.586   9.820 -0.0215  1.3637 -1.1487
31479SOL    HW298800   1.632   1.695   9.799 -1.4897  0.4350  0.8390
31480SOL     OW98801  10.383   3.261   8.084 -0.0187  0.6496 -0.2030
31480SOL    HW198802  10.391   3.200   8.010 -0.4632  1.6690 -1.1232
31480SOL    HW298803  10.326   3.216   8.146  1.4381 -0.7951  0.1471
31481SOL     OW98804   1.057   5.575   1.840  0.3548 -0.0324  0.1474
31481SOL    HW198805   1.091   5.494   1.877 -1.1235 -0.1926  1.2304
31481SOL    HW298806   0.994   5.546   1.773  0.7352  0.2323 -0.3274
31482SOL     OW98807   9.182   7.846   5.064  0.3002  0.3578  0.4306
31482SOL    HW198808   9.224   7.776   5.014  1.1489  0.5226  0.8842
31482SOL    HW298809   9.105   7.805   5.103  1.4684 -0.6933  1.7397
31483SOL     OW98810   0.626   1.255   1.168 -0.0583 -0.1075  0.6602
31483SOL    HW198811   0.598   1.164   1.175  0.1438 -0.1603  0.7964
31483SOL    HW298812   0.618   1.290   1.256  0.7243 -0.2497  0.7967
31484SOL     OW98813   9.222   6.622   0.119  0.3461 -0.5886 -0.0879
31484SOL    HW198814   9.202   6.704   0.074  0.4769  0.0728  1.0046
31484SOL    HW298815   9.302   6.591   0.078  0.3845 -0.0724 -0.4123
31485SOL     OW98816   1.811   5.711   8.570  0.3356 -0.4726 -0.2103
31485SOL    HW198817   1.777   5.632   8.613  3.3341 -0.6230  2.2807
31485SOL    HW298818   1.743   5.777   8.583  0.3248 -1.0044  3.5334
31486SOL     OW98819   5.849   3.634   5.252 -0.2879 -0.0042 -1.0684
31486SOL    HW198820   5.759   3.659   5.276  0.3160  0.9797  0.2841
31486SOL    HW298821   5.879   3.582   5.327  0.6549  0.6243 -1.0077
31487SOL     OW98822   2.390  10.488   6.970 -0.0095 -0.6597 -0.3521
31487SOL    HW198823   2.403  10.513   6.878  0.6094 -0.7377 -0.2895
31487SOL    HW298824   2.393  10.571   7.018 -1.1066 -0.5333 -0.4753
31488SOL     OW98825   3.306   9.708   5.076 -0.1199 -0.4573 -0.3866
31488SOL    HW198826   3.328   9.651   5.003 -0.2110  0.6843 -1.3309
31488SOL    HW298827   3.211   9.699   5.086 -0.5121  1.1508 -2.0076
31489SOL     OW98828   1.888   7.635   1.299  0.2522  0.3610 -0.2753
31489SOL    HW198829   1.861   7.665   1.386  0.9702  0.7275 -0.1733
31489SOL    HW298830   1.917   7.715   1.254  0.3521  0.1001 -0.6822
31490SOL     OW98831   7.283   5.237   6.662 -0.9044  0.1752  0.1703
31490SOL    HW198832   7.202   5.277   6.632 -0.8319  0.1485 -0.0586
31490SOL    HW298833   7.349   5.264   6.599 -1.0039 -0.9353 -0.4419
31491SOL     OW98834   4.548   2.846   8.098 -0.1357  0.3471 -0.3178
31491SOL    HW198835   4.550   2.909   8.027 -2.3667  0.4881 -0.3281
31491SOL    HW298836   4.537   2.761   8.055 -3.0920  0.5692 -0.2158
31492SOL     OW98837  10.710   6.359   9.432 -0.6133  0.8866  0.4556
31492SOL    HW198838  10.632   6.305   9.432 -0.4446  0.6316 -0.3845
31492SOL    HW298839  10.744   6.352   9.342 -0.6361  2.4400  0.3007
31493SOL     OW98840   0.515   9.855   3.611 -0.5598  0.3716 -0.0178
31493SOL    HW198841   0.519   9.917   3.538 -1.6738 -1.1161 -1.4244
31493SOL    HW298842   0.605   9.823   3.621 -0.6127 -0.4177 -1.7242
31494SOL     OW98843   6.812   8.385   3.657 -0.3889  0.8741  0.3002
31494SOL    HW198844   6.767   8.389   3.573  1.1737  1.7229 -0.5267
31494SOL    HW298845   6.803   8.473   3.694  0.2723  0.9636  0.2713
31495SOL     OW98846  11.001   0.958  10.673 -0.2827  0.1763 -0.7518
31495SOL    HW198847  10.921   0.906  10.680  0.3973 -0.7927  0.2735
31495SOL    HW298848  10.983   1.037  10.724 -0.2168 -0.5640  0.4733
31496SOL     OW98849   5.618   9.555   6.037 -0.4655 -0.2473 -0.7399
31496SOL    HW198850   5.657   9.585   6.119  0.7869  0.9280 -1.7041
31496SOL    HW298851   5.577   9.472   6.059  1.2101 -0.7592  0.7519
31497SOL     OW98852   4.524   1.584   5.620  0.0465 -0.4346  0.3277
31497SOL    HW198853   4.595   1.621   5.672  0.4708  0.2951 -0.7391
31497SOL    HW298854   4.449   1.582   5.680  0.5557  0.2313  1.0069
31498SOL     OW98855   6.484   3.435   1.760 -0.0383 -0.0669  0.5377
31498SOL    HW198856   6.487   3.465   1.669  1.5228 -1.1221  0.2034
31498SOL    HW298857   6.539   3.497   1.808 -0.8988  0.5168  0.7965
31499SOL     OW98858   6.062   6.538   9.005 -0.3747 -0.1514  0.1384
31499SOL    HW198859   6.011   6.548   8.925  1.2302  0.4741 -0.8506
31499SOL    HW298860   6.074   6.627   9.038  1.0237 -0.1458 -0.2968
31500SOL     OW98861   8.345   1.203   9.038 -0.4410 -0.1068 -0.1134
31500SOL    HW198862   8.276   1.211   9.103 -0.0900 -1.7533  0.5127
31500SOL    HW298863   8.418   1.254   9.074 -0.7509  0.2331  0.0391
31501SOL     OW98864   9.574   4.861   8.845 -0.0529  0.2049 -0.3268
31501SOL    HW198865   9.562   4.956   8.844  1.6395  0.4650  0.4257
31501SOL    HW298866   9.669   4.849   8.836 -0.3656 -1.4772 -1.8645
31502SOL     OW98867   7.326   4.274   2.284  0.1709  0.2533 -0.4879
31502SOL    HW198868   7.356   4.356   2.245  0.4920  0.4619  0.1747
31502SOL    HW298869   7.231   4.286   2.295  0.0851  0.2144 -1.1250
31503SOL     OW98870   0.050   7.463   6.555 -0.1545  0.0192 -0.3018
31503SOL    HW198871   0.093   7.460   6.469 -0.8900 -2.2956 -0.6651
31503SOL    HW298872   0.108   7.412   6.612 -1.8101 -2.3550 -0.5826
31504SOL     OW98873   5.010   5.942   2.857 -0.1569 -0.2167  0.3474
31504SOL    HW198874   4.940   5.879   2.878 -0.5508 -0.0382 -0.3843
31504SOL    HW298875   5.034   5.921   2.766  0.0812  0.3469  0.2801
31505SOL     OW98876   5.113   3.323   5.522 -0.0880  0.3536 -0.6978
31505SOL    HW198877   5.096   3.407   5.479 -2.3351  0.0257 -0.5300
31505SOL    HW298878   5.116   3.259   5.451  1.6601  0.5134 -0.8292
31506SOL     OW98879  10.123   2.948   8.830  0.4480  0.2606  0.0145
31506SOL    HW198880  10.061   2.877   8.847  1.0381 -0.2764 -0.0408
31506SOL    HW298881  10.206   2.903   8.815  0.9728  1.0025  0.6633
31507SOL     OW98882   7.879   0.777   7.751 -0.3896 -0.4159  0.2043
31507SOL    HW198883   7.900   0.835   7.678 -2.2200  0.9953  0.7334
31507SOL    HW298884   7.916   0.692   7.726  1.8207  0.7978 -0.8679
31508SOL     OW98885   8.970   4.942   7.641 -0.3128 -0.0764  0.2153
31508SOL    HW198886   8.986   5.021   7.691 -1.4174 -0.7505  1.7311
31508SOL    HW298887   9.050   4.890   7.650  1.9621  2.2096 -3.7913
31509SOL     OW98888   0.126   6.868   3.142  0.3265 -0.0167 -0.1004
31509SOL    HW198889   0.169   6.898   3.062  1.3427 -0.7874  0.1486
31509SOL    HW298890   0.187   6.890   3.212 -0.6752  0.9132  0.5260
31510SOL     OW98891   4.201   8.686   6.660  0.0661 -0.2529 -0.1185
31510SOL    HW198892   4.217   8.596   6.688 -1.4248 -0.3397  0.5265
31510SOL    HW298893   4.160   8.728   6.736 -1.0233  0.4359 -1.0490
31511SOL     OW98894   1.547   9.668   0.852 -0.5480 -0.2822 -0.3941
31511SOL    HW198895   1.563   9.630   0.939 -1.4258  0.9879  0.3601
31511SOL    HW298896   1.529   9.593   0.796  1.6391 -1.2818  0.1145
31512SOL     OW98897  10.584   1.366   6.643  0.2652  0.1767 -0.3816
31512SOL    HW198898  10.605   1.459   6.633  0.0031  0.1869 -0.8729
31512SOL    HW298899  10.509   1.365   6.703 -0.1886  0.3307 -0.9431
31513SOL     OW98900   6.989  10.627   5.148 -0.2005 -0.0097 -0.2454
31513SOL    HW198901   6.970  10.720   5.138 -0.3249  0.2330  1.8653
31513SOL    HW298902   6.903  10.585   5.150 -0.3528  0.2676  2.1174
31514SOL     OW98903   0.294   3.130   5.024  0.0086  0.1493 -0.1908
31514SOL    HW198904   0.206   3.158   5.051 -0.2998 -1.0161  0.0980
31514SOL    HW298905   0.289   3.034   5.026  0.6185  0.0391 -2.3815
31515SOL     OW98906   5.425   8.642   1.355 -0.0335  0.1892 -0.1909
31515SOL    HW198907   5.349   8.585   1.369  0.8714 -1.1070 -0.3274
31515SOL    HW298908   5.407   8.721   1.405 -1.5932  0.0228 -0.4635
31516SOL     OW98909   7.742   1.207   1.782  0.7638  0.5469  0.1047
31516SOL    HW198910   7.838   1.214   1.773  0.6832  0.1808 -1.2508
31516SOL    HW298911   7.709   1.286   1.739  0.4225  0.2148 -0.2377
31517SOL     OW98912   3.066  10.651   8.635  0.0789 -0.0041 -0.2634
31517SOL    HW198913   3.061  10.746   8.630 -0.5477 -0.0613 -0.9930
31517SOL    HW298914   3.158  10.632   8.656 -0.0550  0.7843  1.1193
31518SOL     OW98915   1.798   2.569   2.962 -0.0858  0.3609  0.1492
31518SOL    HW198916   1.734   2.565   2.891 -1.1109 -1.4461  1.1200
31518SOL    HW298917   1.883   2.560   2.918 -0.7202 -1.2138 -0.8388
31519SOL     OW98918   8.979   4.552   6.304  0.6932 -0.0703  0.4706
31519SOL    HW198919   8.962   4.632   6.354  0.6885  0.6698 -0.6648
31519SOL    HW298920   9.073   4.537   6.315  0.6002 -0.2130  1.1093
31520SOL     OW98921   6.116   6.852   9.991  0.3166  0.8574 -0.3980
31520SOL    HW198922   6.122   6.909  10.068 -0.9436  1.9409 -1.0700
31520SOL    HW298923   6.031   6.872   9.953 -0.2200 -1.5429 -0.6360
31521SOL     OW98924  10.354   0.951   6.039  0.0722 -0.6152  0.0356
31521SOL    HW198925  10.289   1.021   6.034  0.9066  0.0916 -1.6203
31521SOL    HW298926  10.309   0.880   6.085 -0.9651  0.7946  1.2810
31522SOL     OW98927   4.678   0.397   3.762  0.1948  0.1848 -0.1287
31522SOL    HW198928   4.677   0.389   3.667 -3.7088  0.9445 -0.3417
31522SOL    HW298929   4.684   0.491   3.778 -2.2718  0.3842  0.1066
31523SOL     OW98930   6.113   1.896   0.841  0.7012 -0.8094  0.3113
31523SOL    HW198931   6.050   1.825   0.827 -2.4671  1.4764  1.8161
31523SOL    HW298932   6.093   1.960   0.773  0.1407  0.6929  1.8111
31524SOL     OW98933   9.749   0.507   3.285 -0.2469 -0.3949 -0.6889
31524SOL    HW198934   9.693   0.456   3.345 -0.4392  0.8083  0.1913
31524SOL    HW298935   9.741   0.597   3.316  2.8794 -0.2566  0.0491
31525SOL     OW98936   2.233   9.966   1.270  0.1379 -0.5806 -0.4232
31525SOL    HW198937   2.199   9.878   1.284 -0.8688 -0.1638 -0.2005
31525SOL    HW298938   2.209   9.988   1.180  0.0580 -0.3913 -0.3577
31526SOL     OW98939   1.149  10.658   0.675  0.0687  0.3347 -0.2445
31526SOL    HW198940   1.160  10.642   0.582 -2.9831  0.2262 -0.7083
31526SOL    HW298941   1.094  10.585   0.705 -1.2754  1.7862  0.9942
31527SOL     OW98942   3.660   8.914   4.042  0.0384  0.4314 -0.0900
31527SOL    HW198943   3.707   8.889   3.961 -1.7835  0.8291 -1.3281
31527SOL    HW298944   3.653   8.832   4.091  1.3398  0.2138 -0.2231
31528SOL     OW98945  10.318   4.605   4.864 -0.0816 -0.1029 -0.1752
31528SOL    HW198946  10.337   4.699   4.861 -3.3133  0.6851 -0.2804
31528SOL    HW298947  10.393   4.566   4.909  0.2718  2.8752  2.1152
31529SOL     OW98948   5.298   3.746   6.319 -0.0725  0.3711 -0.0691
31529SOL    HW198949   5.358   3.810   6.357  1.3760 -1.0939  0.2127
31529SOL    HW298950   5.340   3.662   6.334 -0.3375 -0.4586 -3.2444
31530SOL     OW98951   9.430   3.358   7.408  0.2139  0.0762 -0.3834
31530SOL    HW198952   9.489   3.419   7.363 -1.0455  0.6827 -1.2852
31530SOL    HW298953   9.342   3.385   7.379 -0.6764  0.4593  2.3829
31531SOL     OW98954   7.352   0.553  11.093  0.1718 -0.4102  0.0490
31531SOL    HW198955   7.435   0.511  11.071 -0.9752 -2.3797 -0.7189
31531SOL    HW298956   7.295   0.534  11.019 -0.9546  1.0455  0.4921
31532SOL     OW98957   5.213   8.691   4.285  0.2696  0.5528 -0.2560
31532SOL    HW198958   5.227   8.677   4.191  0.6869  0.3936 -0.1745
31532SOL    HW298959   5.136   8.638   4.306  1.2455 -0.8752 -0.1541
31533SOL     OW98960  10.132   2.896   4.471 -0.2498 -0.8184  0.3205
31533SOL    HW198961  10.041   2.922   4.488  0.0750  0.7052 -0.0396
31533SOL    HW298962  10.177   2.911   4.554 -0.1502 -0.6818  0.2419
31534SOL     OW98963   1.148   2.950   2.881  0.5931  0.5314  0.3179
31534SOL    HW198964   1.091   2.892   2.831 -0.1795  0.1095  1.6599
31534SOL    HW298965   1.090   2.996   2.941  1.3847  1.7222  0.2102
31535SOL     OW98966   1.141   1.191   6.477  0.0543 -0.5116 -0.0530
31535SOL    HW198967   1.231   1.198   6.445 -0.4730  1.5306 -1.2796
31535SOL    HW298968   1.124   1.097   6.480  2.2814 -0.9520  0.4215
31536SOL     OW98969   7.601   4.749   9.587  0.1825  0.3348 -0.0160
31536SOL    HW198970   7.665   4.689   9.625  0.4905  1.0308  0.5821
31536SOL    HW298971   7.650   4.830   9.570 -0.3047  0.5463 -0.4923
31537SOL     OW98972   2.877   6.427   6.373  0.0260  0.4401 -0.4486
31537SOL    HW198973   2.844   6.503   6.421  0.6958  0.5137 -0.0941
31537SOL    HW298974   2.824   6.353   6.405 -0.5419  0.7313 -0.7050
31538SOL     OW98975  10.960   8.167   1.641 -0.2370  0.0913 -0.1783
31538SOL    HW198976  10.895   8.206   1.700  0.6368  0.0450  0.8393
31538SOL    HW298977  11.009   8.106   1.696 -0.2562 -0.9511 -1.2698
31539SOL     OW98978   5.163   6.912   4.547 -0.5030  0.5659 -0.2899
31539SOL    HW198979   5.179   6.828   4.590 -0.4201  0.5121 -0.4246
31539SOL    HW298980   5.106   6.960   4.607  0.5781  0.9672  0.4566
31540SOL     OW98981  10.060   4.582   9.058  0.1598 -0.0982  0.3872
31540SOL    HW198982  10.104   4.667   9.060 -2.1063  1.1479  1.5908
31540SOL    HW298983  10.008   4.584   8.978 -0.2857 -0.1416  0.6762
31541SOL     OW98984   0.988   2.932   0.700  0.0081  0.1511 -0.8231
31541SOL    HW198985   1.001   2.964   0.789 -1.0919 -1.8863  0.1609
31541SOL    HW298986   0.983   3.010   0.646 -1.4264  1.5906  1.2207
31542SOL     OW98987   3.792   2.015   9.640 -0.6564 -0.6790  0.7410
31542SOL    HW198988   3.813   2.097   9.595  0.2707 -1.8395 -1.0595
31542SOL    HW298989   3.720   1.977   9.589  0.4733 -2.0742  0.1461
31543SOL     OW98990   5.457   3.747  10.305  0.0170  0.3909 -0.0669
31543SOL    HW198991   5.524   3.712  10.364 -0.2451  0.0447  0.0302
31543SOL    HW298992   5.506   3.789  10.235  0.3797 -1.0581 -0.7322
31544SOL     OW98993   5.054   2.296   4.303 -0.3016 -0.1793  0.2588
31544SOL    HW198994   5.096   2.275   4.387 -0.8439  0.6201  0.7491
31544SOL    HW298995   4.962   2.273   4.317 -0.6838  1.3464  0.4138
31545SOL     OW98996   0.881   5.983   6.315  0.3524  0.3918 -0.3254
31545SOL    HW198997   0.897   5.898   6.357  0.0340  0.2645 -0.4628
31545SOL    HW298998   0.836   6.035   6.382  0.9618  0.6121 -0.0792
31546SOL     OW98999   4.760   7.272   9.139  0.0222  0.2796 -0.0326
31546SOL    HW199000   4.799   7.355   9.167  3.1665 -0.9192 -0.4067
31546SOL    HW299001   4.666   7.288   9.139  0.4565  3.5216  0.8461
31547SOL     OW99002   3.452   6.944   5.705  0.2667 -0.1119  0.2706
31547SOL    HW199003   3.527   6.934   5.764 -1.9081  0.3867  3.3849
31547SOL    HW299004   3.409   6.859   5.706 -0.3620  0.2029  0.2718
31548SOL     OW99005  10.348   9.508   4.869 -0.2812  0.2899 -0.0384
31548SOL    HW199006  10.300   9.477   4.946 -1.1049  1.3453 -0.1128
31548SOL    HW299007  10.287   9.496   4.796  0.7248 -1.3306 -0.6823
31549SOL     OW99008   1.148  10.634   9.574 -0.6032 -0.0220 -0.6226
31549SOL    HW199009   1.078  10.648   9.510 -1.2676 -0.2932  0.0276
31549SOL    HW299010   1.182  10.547   9.553  1.1448  1.0018 -2.4159
31550SOL     OW99011   6.053   2.980   2.245 -0.6873  0.2871 -0.2241
31550SOL    HW199012   5.976   3.036   2.253 -0.4864  0.4668  0.5867
31550SOL    HW299013   6.053   2.950   2.154 -2.5913 -0.9976  0.1506
31551SOL     OW99014   8.357   8.775   1.538 -0.1021 -0.1460 -0.1329
31551SOL    HW199015   8.359   8.837   1.465 -0.5197 -1.6010 -1.4365
31551SOL    HW299016   8.311   8.698   1.503 -0.9538 -0.6261  1.8982
31552SOL     OW99017   5.621   3.253   4.042 -0.0514 -0.0787 -0.0894
31552SOL    HW199018   5.704   3.266   4.088  0.5633 -0.9056 -0.9280
31552SOL    HW299019   5.627   3.165   4.005 -1.9385 -0.7821  1.1059
31553SOL     OW99020   1.180   7.975   8.164 -0.2041  0.2338  0.3768
31553SOL    HW199021   1.154   8.047   8.107 -0.4300 -2.2911 -2.9880
31553SOL    HW299022   1.267   7.950   8.133 -0.2162 -1.0740  1.3130
31554SOL     OW99023   5.119   3.030   0.102  0.1414  0.6281 -0.0204
31554SOL    HW199024   5.069   3.045   0.021 -1.7393 -0.0198  0.9665
31554SOL    HW299025   5.170   2.951   0.084  0.3908  0.9652 -0.8548
31555SOL     OW99026  10.254  10.475   8.302  0.3122  0.4101 -0.7715
31555SOL    HW199027  10.194  10.549   8.310 -2.2392 -1.6326  0.8232
31555SOL    HW299028  10.243  10.445   8.212 -0.8897  0.2881 -0.6096
31556SOL     OW99029  10.963   7.043   6.842  0.5796 -0.1304  0.1369
31556SOL    HW199030  10.883   7.093   6.825  1.8361  1.7502 -0.5210
31556SOL    HW299031  10.950   6.961   6.794 -1.0107  0.0549  0.1942
31557SOL     OW99032   6.581   1.952   4.542  0.6920  0.6027 -0.9252
31557SOL    HW199033   6.493   1.968   4.575  1.8047  2.0081  1.6298
31557SOL    HW299034   6.608   1.870   4.583  1.3607  1.3242  0.1064
31558SOL     OW99035   0.459   7.946   7.952 -0.1280 -0.5412 -0.1383
31558SOL    HW199036   0.460   7.878   8.020  0.6842 -2.0176 -1.5455
31558SOL    HW299037   0.538   7.997   7.967  0.4845 -1.3752 -0.4299
31559SOL     OW99038   6.088   0.541   8.351 -0.0983 -0.5665  0.2838
31559SOL    HW199039   6.057   0.632   8.358  1.0164  0.0046 -1.4960
31559SOL    HW299040   6.171   0.541   8.399  0.8734 -0.1030 -1.3330
31560SOL     OW99041   3.581   5.531   6.345 -0.1792  0.0826  0.1106
31560SOL    HW199042   3.588   5.559   6.253  0.4653 -0.3166  0.0318
31560SOL    HW299043   3.671   5.537   6.378  0.0772 -2.2593 -0.0148
31561SOL     OW99044   8.083   3.612   6.849  0.3893  0.2542  0.2584
31561SOL    HW199045   8.010   3.595   6.789  0.7609  1.1397 -0.4587
31561SOL    HW299046   8.107   3.526   6.882 -0.9100 -0.0645  0.4232
31562SOL     OW99047   9.537   4.038   6.845 -0.1128  0.2744  0.1143
31562SOL    HW199048   9.529   4.104   6.776  0.6049  0.3450  0.0869
31562SOL    HW299049   9.472   3.972   6.823 -0.0489  0.4123 -0.5003
31563SOL     OW99050   2.681   4.521   4.987 -0.0992  0.5301  0.0487
31563SOL    HW199051   2.700   4.614   4.978  1.6396  0.0957 -1.2799
31563SOL    HW299052   2.623   4.501   4.913  0.3383  0.3643 -0.2515
31564SOL     OW99053   2.515   8.434   2.719  0.6891  0.0000 -0.5356
31564SOL    HW199054   2.513   8.411   2.626  0.4000  1.9450 -1.0362
31564SOL    HW299055   2.448   8.502   2.729  0.4897 -0.4024  1.1706
31565SOL     OW99056   3.416   4.910  11.094 -0.2712 -0.1826  0.0812
31565SOL    HW199057   3.353   4.940  11.028  0.2015  0.9246  0.1128
31565SOL    HW299058   3.501   4.916  11.050 -0.0597 -0.4644  0.4485
31566SOL     OW99059   6.744   3.312   9.121 -0.1352  0.0982 -0.4247
31566SOL    HW199060   6.680   3.345   9.058 -0.2346 -1.6821 -1.3238
31566SOL    HW299061   6.710   3.226   9.147  1.4681 -0.5380 -0.3104
31567SOL     OW99062   0.833   8.308   4.192 -0.1511 -0.5318  0.1078
31567SOL    HW199063   0.855   8.401   4.190  2.7024 -1.1066 -1.2582
31567SOL    HW299064   0.756   8.301   4.136 -0.3646  0.9883  0.1599
31568SOL     OW99065   8.113   9.933   4.304  0.2524  0.1266 -0.0886
31568SOL    HW199066   8.138   9.970   4.389  1.1514 -1.8490  0.5788
31568SOL    HW299067   8.177   9.864   4.288 -1.3297 -1.1696 -1.2073
31569SOL     OW99068   0.034  10.786   2.715 -0.6430  0.0371 -0.3575
31569SOL    HW199069   0.026  10.691   2.711 -2.5632  0.1427  0.1697
31569SOL    HW299070  -0.051  10.816   2.746  0.4686  1.8192  1.2032
31570SOL     OW99071   7.533   8.609   2.762  0.3412  0.2166 -0.4254
31570SOL    HW199072   7.572   8.559   2.834 -1.6042 -2.0535 -0.7953
31570SOL    HW299073   7.598   8.604   2.692  0.2386 -1.9566 -0.4525
31571SOL     OW99074   9.949   8.522   7.142  0.1606 -0.3716  0.1712
31571SOL    HW199075  10.028   8.567   7.114  0.0906 -0.0764  0.4475
31571SOL    HW299076   9.945   8.535   7.236 -0.6158  0.2655  0.0649
31572SOL     OW99077   7.370  10.872   5.405 -0.1918  0.1100  0.5445
31572SOL    HW199078   7.358  10.777   5.412 -0.4374  0.1683  0.9452
31572SOL    HW299079   7.293  10.902   5.356  0.1041  0.0542  0.0323
31573SOL     OW99080   4.432   7.446   9.460  0.3271 -0.4257 -0.1333
31573SOL    HW199081   4.494   7.497   9.407  0.0979  0.4700  0.4303
31573SOL    HW299082   4.346   7.467   9.422  0.1497  0.3339  0.6561
31574SOL     OW99083  10.845  10.806   0.454  0.3808 -0.0066  0.2722
31574SOL    HW199084  10.926  10.794   0.504  0.8316  0.6668 -0.2746
31574SOL    HW299085  10.869  10.784   0.364 -0.0918  0.0184  0.1351
31575SOL     OW99086   7.641   2.615   8.138 -0.2300 -0.2025 -0.2772
31575SOL    HW199087   7.652   2.634   8.045  0.2979  0.3076 -0.1153
31575SOL    HW299088   7.584   2.685   8.170 -0.0376 -0.1135 -0.1253
31576SOL     OW99089   5.836   7.419   9.444 -0.0584  0.3032 -0.1381
31576SOL    HW199090   5.809   7.427   9.352 -1.0841 -0.2567  0.0912
31576SOL    HW299091   5.853   7.326   9.456 -0.8405  0.2210  0.4604
31577SOL     OW99092   8.894   0.179   1.169  0.0807  0.4626  0.0708
31577SOL    HW199093   8.857   0.093   1.190  1.0530  0.1853  0.6918
31577SOL    HW299094   8.838   0.241   1.215  1.6115 -0.0751  2.8502
31578SOL     OW99095   6.007  10.529   4.865 -0.0775  0.0787 -0.2547
31578SOL    HW199096   6.029  10.565   4.951  1.3457 -0.5805 -0.3041
31578SOL    HW299097   6.018  10.435   4.875  0.7939  0.0406 -1.3134
31579SOL     OW99098   5.648   9.730   1.399 -0.2771  0.0335 -0.1489
31579SOL    HW199099   5.658   9.642   1.362 -0.4556 -0.2479  0.4622
31579SOL    HW299100   5.706   9.731   1.475  0.0717  0.6011 -0.4171
31580SOL     OW99101   4.102   4.791   9.115 -0.5182 -0.1463 -0.1721
31580SOL    HW199102   4.128   4.865   9.060 -2.6894 -0.7103 -2.1312
31580SOL    HW299103   4.154   4.717   9.084  0.9918  0.2820  1.1775
31581SOL     OW99104   5.306   9.837   0.774 -0.3881 -0.4800  0.4365
31581SOL    HW199105   5.218   9.868   0.754 -1.1076 -2.9059 -0.5363
31581SOL    HW299106   5.357   9.855   0.695  1.6520  5.5434  2.5228
31582SOL     OW99107   7.347   3.447   9.170 -0.1199  0.2059 -0.0263
31582SOL    HW199108   7.310   3.528   9.133 -1.3556  0.4566  1.6379
31582SOL    HW299109   7.272   3.389   9.179  0.2361 -0.0380  1.5415
31583SOL     OW99110   2.570   4.883   5.272 -0.3431  0.4577  0.5591
31583SOL    HW199111   2.547   4.967   5.232 -1.7600 -0.4031 -0.4969
31583SOL    HW299112   2.562   4.899   5.366  1.3820  2.0392  0.5000
31584SOL     OW99113   9.987   7.981   2.545  0.4977 -0.0990 -0.0417
31584SOL    HW199114   9.947   8.068   2.534 -1.8228 -0.9953  0.5808
31584SOL    HW299115   9.913   7.924   2.565  1.8842 -2.3502 -0.9671
31585SOL     OW99116   8.642   0.475   3.806 -0.0968 -0.4362 -0.5690
31585SOL    HW199117   8.568   0.430   3.766 -0.5993 -0.6549  0.5894
31585SOL    HW299118   8.621   0.568   3.798 -1.2057 -0.5135  1.0095
31586SOL     OW99119   5.583   7.093   9.687 -0.1799 -0.0924  0.7160
31586SOL    HW199120   5.524   7.076   9.613  1.5178 -0.7770 -0.5467
31586SOL    HW299121   5.670   7.075   9.652  0.7196  0.0985  2.7550
31587SOL     OW99122   7.049   4.552   3.788 -0.7567 -0.1658 -0.3629
31587SOL    HW199123   7.091   4.496   3.723 -1.3885 -1.0052 -0.0507
31587SOL    HW299124   6.959   4.520   3.794 -1.1995  1.0262 -0.3468
31588SOL     OW99125   4.326   4.813   3.493  0.4111  0.0460 -0.4881
31588SOL    HW199126   4.275   4.742   3.455 -1.8044  0.8382  0.7794
31588SOL    HW299127   4.260   4.878   3.519  2.3081  2.7556 -1.8837
31589SOL     OW99128   8.760   4.893   7.983  0.0803 -0.5141  0.1873
31589SOL    HW199129   8.849   4.877   8.015  0.0860 -0.2898  0.2875
31589SOL    HW299130   8.750   4.988   7.988  0.1606 -0.4551 -0.6980
31590SOL     OW99131   6.997   8.529   8.460  0.1294  0.2111 -0.6528
31590SOL    HW199132   7.004   8.538   8.555  1.2350 -2.2615 -0.4363
31590SOL    HW299133   6.928   8.591   8.435 -0.0898  1.0047  1.7325
31591SOL     OW99134   0.973   4.683   3.684  0.3093 -0.0529  0.5930
31591SOL    HW199135   1.046   4.699   3.744 -0.0418 -0.3538  1.1049
31591SOL    HW299136   0.964   4.587   3.682 -1.1308  0.0246  1.8285
31592SOL     OW99137   1.396   4.619   5.322  0.2293  0.5844 -0.1230
31592SOL    HW199138   1.335   4.692   5.329 -0.2520  0.0702  1.3885
31592SOL    HW299139   1.481   4.657   5.347  0.0021  0.6551  0.5538
31593SOL     OW99140   9.000   4.357   0.579  0.0108 -0.1776 -0.3992
31593SOL    HW199141   8.907   4.371   0.594  0.1116  2.5291 -1.6921
31593SOL    HW299142   9.014   4.383   0.488  2.0139 -0.6208 -0.2729
31594SOL     OW99143   7.852   6.058   3.656 -0.1382  0.3794  0.2654
31594SOL    HW199144   7.882   6.091   3.741 -1.2621  0.6019  0.5941
31594SOL    HW299145   7.920   5.997   3.629  0.5517  0.7947  1.0241
31595SOL     OW99146   4.160   0.984   4.171  0.5905 -0.7929 -0.6589
31595SOL    HW199147   4.234   0.995   4.112  0.3923  0.3656 -0.7039
31595SOL    HW299148   4.130   1.073   4.190 -0.7411 -1.2275 -0.5841
31596SOL     OW99149   4.691   8.760   7.303 -0.3064  0.4858  0.6944
31596SOL    HW199150   4.644   8.722   7.377 -0.9518  0.3112  0.2081
31596SOL    HW299151   4.724   8.685   7.254  2.3016  0.5917  2.1122
31597SOL     OW99152   4.469   6.835   2.412 -0.6415 -0.1768 -0.2973
31597SOL    HW199153   4.541   6.782   2.380 -0.3569  0.5853 -0.9602
31597SOL    HW299154   4.391   6.797   2.372 -0.2577  1.0222 -2.3598
31598SOL     OW99155   9.984   0.478   3.418 -0.4477 -0.3433  0.4686
31598SOL    HW199156   9.926   0.443   3.486  1.1861 -0.1104  2.0424
31598SOL    HW299157   9.927   0.487   3.341 -2.2522 -1.0446  1.6484
31599SOL     OW99158   1.789   7.257   7.653  0.0276 -0.1444  0.6442
31599SOL    HW199159   1.828   7.231   7.570 -0.7631  0.5578  0.0335
31599SOL    HW299160   1.831   7.201   7.718  0.0408 -1.3152 -0.3319
31600SOL     OW99161   3.019   2.598   3.707  0.0692  0.3670 -0.1739
31600SOL    HW199162   2.979   2.521   3.667  1.3704 -0.3143 -0.2103
31600SOL    HW299163   2.990   2.672   3.653 -0.8884 -0.1343 -0.3587
31601SOL     OW99164   6.878   1.500   5.728  0.3443  0.2114 -0.0277
31601SOL    HW199165   6.948   1.490   5.792 -0.1341 -0.0385  0.4631
31601SOL    HW299166   6.917   1.551   5.657  0.6507  1.1721  0.8165
31602SOL     OW99167   8.365   4.245   5.021 -0.1402  0.0500 -0.1857
31602SOL    HW199168   8.316   4.254   5.103  1.2127 -1.8120  0.9092
31602SOL    HW299169   8.343   4.324   4.971 -2.7147  0.2065  1.0104
31603SOL     OW99170   2.572   2.841   4.012  0.2758 -0.1243  0.4592
31603SOL    HW199171   2.563   2.925   4.056 -2.3923 -0.8978  1.5542
31603SOL    HW299172   2.517   2.847   3.935 -1.0429 -1.2687  1.2652
31604SOL     OW99173   8.088   5.588   4.522 -0.2437 -0.2221 -0.0664
31604SOL    HW199174   8.023   5.530   4.483 -1.1118 -0.9657  2.2840
31604SOL    HW299175   8.037   5.644   4.581  1.0436  0.4103  0.4766
31605SOL     OW99176   9.088  10.004   9.873 -0.0152  0.1621 -0.6070
31605SOL    HW199177   9.124  10.087   9.903  1.5102 -0.6343 -0.1721
31605SOL    HW299178   9.150   9.973   9.807 -0.0508 -1.0922 -0.0738
31606SOL     OW99179   8.127   5.519   3.267 -0.1283  0.2415  0.3181
31606SOL    HW199180   8.175   5.520   3.183  1.0242 -1.4093  0.9153
31606SOL    HW299181   8.083   5.434   3.268  0.5156 -0.0950  1.7185
31607SOL     OW99182   6.213   9.508   8.180  0.1140 -0.4289 -0.2785
31607SOL    HW199183   6.271   9.563   8.234 -0.0496 -0.2303 -0.3024
31607SOL    HW299184   6.191   9.564   8.105 -1.1226 -0.0316  0.3493
31608SOL     OW99185   1.633   1.986  10.066 -0.1295 -0.0825 -0.2784
31608SOL    HW199186   1.712   2.033  10.091  0.2221 -0.8339  0.0724
31608SOL    HW299187   1.562   2.048  10.079  0.1986  0.0056  1.2666
31609SOL     OW99188   5.233   8.354   0.382  0.1497 -0.0496  0.2524
31609SOL    HW199189   5.216   8.395   0.297 -0.6402  0.3186  0.5729
31609SOL    HW299190   5.310   8.400   0.415 -1.4897  2.1902  1.1942
31610SOL     OW99191   8.146   5.955   0.237 -0.0326  0.1338  0.1331
31610SOL    HW199192   8.165   6.005   0.158  0.2496  0.2377  0.2662
31610SOL    HW299193   8.121   6.020   0.302 -0.2228  0.0521  0.1425
31611SOL     OW99194   7.437   1.627  10.649  0.4357  0.5316 -0.0213
31611SOL    HW199195   7.500   1.682  10.603  1.0593 -0.2394 -0.0955
31611SOL    HW299196   7.448   1.651  10.742 -0.1578  1.3977 -0.1584
31612SOL     OW99197   6.784   2.558   5.351 -0.6368 -0.2167 -0.2375
31612SOL    HW199198   6.869   2.583   5.314 -1.1734 -0.2382 -1.5618
31612SOL    HW299199   6.785   2.462   5.352  0.3723 -0.2353  2.2961
31613SOL     OW99200   9.690   6.645   9.475 -0.5260 -0.0663 -0.3849
31613SOL    HW199201   9.758   6.627   9.541  2.0415  3.6879 -1.6930
31613SOL    HW299202   9.693   6.569   9.417  0.3154 -1.3933  1.2701
31614SOL     OW99203   0.340   1.621  10.841  0.0144  0.0490  0.5207
31614SOL    HW199204   0.425   1.653  10.871 -0.2536  0.7407  0.5752
31614SOL    HW299205   0.284   1.699  10.843 -0.1397  0.0181 -1.3397
31615SOL     OW99206   8.035   6.627   5.361  0.0996 -0.0040  0.1111
31615SOL    HW199207   8.125   6.596   5.368  0.4500  0.0343 -2.9242
31615SOL    HW299208   8.038   6.696   5.296 -1.8876  1.3223  1.3114
31616SOL     OW99209   2.451   8.568   2.491  0.3453 -0.0598  0.1207
31616SOL    HW199210   2.541   8.549   2.467  0.4638  0.9434 -0.2971
31616SOL    HW299211   2.408   8.589   2.407 -0.7208 -2.1507  0.0711
31617SOL     OW99212   6.376   6.079   3.687 -0.2588 -0.2537  0.6567
31617SOL    HW199213   6.463   6.065   3.726 -0.7068  0.1326  1.8451
31617SOL    HW299214   6.386   6.155   3.631  0.3174 -0.5886  0.2970
31618SOL     OW99215   5.368  10.712   5.401  0.4692  0.3583  0.1791
31618SOL    HW199216   5.338  10.802   5.413  0.1452 -0.0481  3.3310
31618SOL    HW299217   5.302  10.659   5.446  0.3576 -1.5701 -2.0637
31619SOL     OW99218   9.230   3.562   7.054  0.7523 -0.6310 -0.6231
31619SOL    HW199219   9.204   3.583   7.144 -1.2370 -1.1279 -1.0394
31619SOL    HW299220   9.303   3.622   7.036  3.1031 -2.3661  2.1972
31620SOL     OW99221   5.941  10.252  10.149 -0.3763  0.5235  0.2280
31620SOL    HW199222   5.944  10.347  10.143  0.0640  0.6426  1.8647
31620SOL    HW299223   5.849  10.232  10.164 -0.4396  0.7023  0.0802
31621SOL     OW99224   9.608   1.330   9.863  0.0095 -1.2154  0.0106
31621SOL    HW199225   9.642   1.411   9.824  0.1209 -0.8238  0.8919
31621SOL    HW299226   9.541   1.300   9.802 -0.8053  0.1442  0.1903
31622SOL     OW99227   8.227   6.008   3.922  0.1669  0.2726 -0.0428
31622SOL    HW199228   8.183   6.081   3.879 -0.9982 -0.3709  0.0058
31622SOL    HW299229   8.175   5.991   4.001  0.3175 -0.6909 -0.1278
31623SOL     OW99230   5.208  10.092   2.407 -0.2918  0.0512  0.1488
31623SOL    HW199231   5.212   9.997   2.420  0.2252  0.2574  1.6126
31623SOL    HW299232   5.299  10.121   2.413 -0.4850  0.6912  0.0635
31624SOL     OW99233   0.039   6.508   7.347 -0.1474  0.5086 -0.4136
31624SOL    HW199234   0.074   6.469   7.426  0.4473 -0.8152 -1.2952
31624SOL    HW299235  -0.003   6.435   7.301  0.5885  0.9748 -1.8837
31625SOL     OW99236   5.227   8.486   0.128 -0.0456 -0.1833 -0.3943
31625SOL    HW199237   5.140   8.501   0.164 -0.7512 -0.4588 -1.9270
31625SOL    HW299238   5.235   8.549   0.056  1.9475  1.4578  1.1071
31626SOL     OW99239   3.940   3.331   6.270  0.3491  0.0022 -0.2172
31626SOL    HW199240   4.031   3.357   6.256  0.7130 -1.7764 -1.5618
31626SOL    HW299241   3.899   3.339   6.184 -0.7662  0.7164  0.3609
31627SOL     OW99242   0.238   0.226   4.355  0.0159 -0.2728 -0.4573
31627SOL    HW199243   0.273   0.144   4.322 -1.1974 -0.4814 -1.2528
31627SOL    HW299244   0.146   0.226   4.330 -0.4358  0.5411  1.0504
31628SOL     OW99245   9.522   2.658   1.360 -0.4706 -0.3697  0.3069
31628SOL    HW199246   9.612   2.641   1.333 -0.4974 -0.6268  0.3826
31628SOL    HW299247   9.506   2.598   1.432 -0.0594  1.0277  1.5967
31629SOL     OW99248   9.850   9.906   5.801  0.3170 -0.2817 -0.6562
31629SOL    HW199249   9.828   9.950   5.720  0.1531 -1.5857 -1.3510
31629SOL    HW299250   9.796   9.826   5.800 -0.9687  0.4545  1.5272
31630SOL     OW99251   5.305  10.559   2.376  0.2424 -0.2470  0.8235
31630SOL    HW199252   5.229  10.617   2.379 -0.1799 -0.4822 -2.3197
31630SOL    HW299253   5.286  10.492   2.441 -0.8992  1.1999  2.0630
31631SOL     OW99254   2.244   0.307   8.951  0.1935 -0.1514 -0.0203
31631SOL    HW199255   2.223   0.251   8.876 -2.4433 -0.8049  1.0858
31631SOL    HW299256   2.218   0.395   8.922  1.7472  0.0845 -0.7844
31632SOL     OW99257   7.612  10.519   1.883 -0.2108 -0.3233  0.3203
31632SOL    HW199258   7.603  10.429   1.854  1.5649 -0.4505  0.0478
31632SOL    HW299259   7.606  10.571   1.802  0.0121 -0.3045  0.3146
31633SOL     OW99260   3.580   0.933   6.825  0.2051 -0.2020 -0.6591
31633SOL    HW199261   3.648   0.994   6.854  0.4006 -0.7232 -0.0065
31633SOL    HW299262   3.583   0.862   6.888 -0.1155 -0.8278 -1.3395
31634SOL     OW99263   8.114   9.992   9.458 -0.4231 -0.2638 -0.4318
31634SOL    HW199264   8.171   9.984   9.534  0.0919  0.8634 -0.6772
31634SOL    HW299265   8.057  10.067   9.479 -1.3869 -0.9715 -0.4592
31635SOL     OW99266   7.003   9.721   4.971 -0.1666 -0.3620 -0.4102
31635SOL    HW199267   6.969   9.739   4.883  0.9704  2.0646 -0.4392
31635SOL    HW299268   6.926   9.720   5.027 -0.6682  1.3456 -1.0055
31636SOL     OW99269   1.907   4.114   1.182 -0.3879  0.4128 -0.3090
31636SOL    HW199270   1.940   4.188   1.132  0.0798 -0.4852 -1.3635
31636SOL    HW299271   1.983   4.081   1.230  0.2633 -1.4315 -2.4581
31637SOL     OW99272   5.017  10.857   5.917 -0.3163  0.7086  0.7674
31637SOL    HW199273   4.986  10.771   5.945  0.9150 -0.1325 -0.3052
31637SOL    HW299274   4.957  10.919   5.958 -1.4634 -0.6749  1.2647
31638SOL     OW99275   8.920   5.155   8.124  0.3187 -0.3511 -0.1122
31638SOL    HW199276   8.971   5.115   8.054  0.7780  0.7162 -0.4070
31638SOL    HW299277   8.843   5.192   8.080  0.4803  0.1011 -0.0132
31639SOL     OW99278  11.095  10.906   6.023  0.7594 -0.2188  0.3914
31639SOL    HW199279  11.009  10.864   6.029 -0.3825  1.9758  0.3764
31639SOL    HW299280  11.145  10.867   6.095 -0.7103 -0.5714  1.2753
31640SOL     OW99281   6.625   6.039   0.682  0.1435  0.0126  0.0961
31640SOL    HW199282   6.641   6.107   0.748 -0.3951 -0.3827  0.6462
31640SOL    HW299283   6.689   5.971   0.702  0.4622  0.2046 -0.2500
31641SOL     OW99284   5.308   9.582   0.259 -0.3090 -0.3024  0.1521
31641SOL    HW199285   5.272   9.641   0.193  1.3213  0.4444 -0.1201
31641SOL    HW299286   5.360   9.519   0.209  1.3910  0.5979  0.7157
31642SOL     OW99287   2.733   7.968   7.279 -0.5231 -0.2602 -0.3901
31642SOL    HW199288   2.687   7.884   7.289 -1.4468 -0.1095 -2.7447
31642SOL    HW299289   2.667   8.033   7.303 -0.5160 -0.1464 -0.6768
31643SOL     OW99290   9.314   4.501  10.575  0.5230  0.8074  0.1302
31643SOL    HW199291   9.299   4.563  10.646  1.8784  2.0664 -0.6200
31643SOL    HW299292   9.409   4.489  10.573  0.4129 -0.0013 -0.7957
31644SOL     OW99293   1.994   0.734   4.045 -0.1060  0.1370  0.8345
31644SOL    HW199294   1.936   0.738   3.968  1.7964  0.8552 -0.6449
31644SOL    HW299295   2.053   0.661   4.026  0.0130 -0.0586  1.9258
31645SOL     OW99296   9.472  10.226   1.474  0.1919  0.6268 -0.1614
31645SOL    HW199297   9.469  10.157   1.541  1.6653  0.4947 -0.2006
31645SOL    HW299298   9.473  10.308   1.523 -2.3817  0.7097 -0.1259
31646SOL     OW99299   1.970   6.939   4.378  0.8180 -0.1155  0.4170
31646SOL    HW199300   2.043   6.919   4.436  2.6768  1.5110 -1.2092
31646SOL    HW299301   2.009   6.942   4.291 -1.3685  0.0369 -0.6345
31647SOL     OW99302   9.049   9.978   0.434  0.6634  0.1464 -0.0768
31647SOL    HW199303   8.983  10.011   0.373 -0.4394 -3.2886 -0.9968
31647SOL    HW299304   9.132  10.009   0.398 -0.2359  2.5075 -0.2930
31648SOL     OW99305   7.643   2.549   3.579 -0.6477  0.4034 -0.1605
31648SOL    HW199306   7.630   2.456   3.597  1.4968 -0.0682 -0.7500
31648SOL    HW299307   7.559   2.579   3.545 -2.0829 -0.7417  2.1716
31649SOL     OW99308   6.166  10.902   0.341 -0.2203  0.1853 -0.1230
31649SOL    HW199309   6.232  10.845   0.301 -0.6461 -1.1284  0.9910
31649SOL    HW299310   6.102  10.842   0.379 -1.7644  1.4225 -0.6433
31650SOL     OW99311   8.559   5.981   4.127 -0.2435  0.1313  0.2295
31650SOL    HW199312   8.551   5.886   4.120 -0.2520  0.1879 -0.6962
31650SOL    HW299313   8.550   5.999   4.220  0.5370 -0.8467  0.5148
31651SOL     OW99314   4.904   5.378   5.643  0.5029 -0.5723  0.0092
31651SOL    HW199315   4.863   5.454   5.603 -1.2938 -1.2377  0.4816
31651SOL    HW299316   4.928   5.407   5.731 -1.1320 -0.8078  0.5600
31652SOL     OW99317   9.752   2.699   0.025 -0.2032  0.8553 -0.5787
31652SOL    HW199318   9.785   2.788   0.036  0.5313  0.7661 -1.9039
31652SOL    HW299319   9.721   2.695  -0.065  0.1386 -0.3541 -0.6645
31653SOL     OW99320   5.653   7.841   9.030  0.4378  0.4835  0.2386
31653SOL    HW199321   5.561   7.865   9.040 -0.3712 -2.2198  0.3018
31653SOL    HW299322   5.683   7.819   9.118  0.6223 -0.2288  0.0081
31654SOL     OW99323  10.829   8.553   4.900  0.7972 -0.7913 -0.0232
31654SOL    HW199324  10.872   8.636   4.923 -0.6909  0.0491 -0.1036
31654SOL    HW299325  10.893   8.507   4.847  1.8795  0.0583  0.4850
31655SOL     OW99326   3.895   5.561   4.734  0.1492 -0.3306 -0.2239
31655SOL    HW199327   3.871   5.650   4.706 -0.8135 -1.8976 -5.4421
31655SOL    HW299328   3.990   5.561   4.734  0.1679  0.5486 -1.0637
31656SOL     OW99329   7.000   0.923   3.601 -0.0759  0.2994  0.2631
31656SOL    HW199330   6.968   0.991   3.541  1.3145  0.0348 -0.8278
31656SOL    HW299331   6.920   0.884   3.637 -0.9885  0.4325 -1.4812
31657SOL     OW99332   9.159   5.506   0.777  0.0343 -0.5328  0.1172
31657SOL    HW199333   9.193   5.584   0.732 -2.6624  0.6816  0.0345
31657SOL    HW299334   9.236   5.449   0.785  1.0842 -0.1930 -4.5224
31658SOL     OW99335   9.077   6.149   3.976  0.0593  0.3851  0.3142
31658SOL    HW199336   9.061   6.102   4.058  0.5039 -1.4862 -0.6252
31658SOL    HW299337   9.173   6.148   3.967  0.2025  2.6374  0.8790
31659SOL     OW99338  10.708   1.353   3.084  0.0957 -0.1588  0.5391
31659SOL    HW199339  10.702   1.260   3.108 -0.6056 -0.1014  0.6088
31659SOL    HW299340  10.752   1.394   3.158  1.0260 -0.5471  0.2073
31660SOL     OW99341   4.439   2.015   0.752  0.4139 -0.0181 -0.0806
31660SOL    HW199342   4.401   1.932   0.778  1.6847 -1.0029 -1.1521
31660SOL    HW299343   4.367   2.063   0.711 -0.2171 -0.8415  0.0362
31661SOL     OW99344   6.788   1.817   1.516 -0.4246  0.3807 -0.6219
31661SOL    HW199345   6.764   1.744   1.574 -0.2163  0.2094 -0.7468
31661SOL    HW299346   6.706   1.843   1.475 -0.6673  0.8629  0.1557
31662SOL     OW99347  11.115   8.477  10.451  0.0606  0.2508 -0.2357
31662SOL    HW199348  11.148   8.391  10.427 -1.2448  0.0376 -1.4513
31662SOL    HW299349  11.166   8.539  10.399  0.4625  0.1667  0.0509
31663SOL     OW99350   6.168   0.484   2.383  0.1678  0.0026 -0.1453
31663SOL    HW199351   6.240   0.435   2.343  0.1130 -0.2640  0.0772
31663SOL    HW299352   6.210   0.543   2.445  0.3355  1.1042 -1.2585
31664SOL     OW99353   9.287   6.433   3.876 -0.1194 -0.5254  0.0028
31664SOL    HW199354   9.340   6.513   3.880 -2.3067  1.0041  0.0699
31664SOL    HW299355   9.197   6.464   3.875 -1.0489 -3.0137 -0.3342
31665SOL     OW99356   0.001  11.076   1.598  0.7411  0.5208 -0.4255
31665SOL    HW199357  -0.040  11.134   1.662  0.9175 -0.0742  0.2479
31665SOL    HW299358  -0.009  10.989   1.636  1.0423  0.1794 -1.1168
31666SOL     OW99359   2.374   7.023   2.537  0.2805 -0.4542 -0.2891
31666SOL    HW199360   2.341   7.098   2.587  1.6072  0.3873 -0.6312
31666SOL    HW299361   2.337   7.034   2.450  1.4612  0.5251 -0.6920
31667SOL     OW99362   8.947   2.310   9.331 -0.2779 -0.7281  0.2249
31667SOL    HW199363   8.941   2.293   9.237  0.2055  0.6404 -0.0767
31667SOL    HW299364   8.864   2.277   9.367 -0.8824 -0.3781 -0.8200
31668SOL     OW99365  10.849   7.865   3.456  0.1230 -0.2338 -0.2387
31668SOL    HW199366  10.796   7.915   3.518 -0.6970 -1.6416  0.2295
31668SOL    HW299367  10.873   7.929   3.389 -1.2193  0.7094  0.1326
31669SOL     OW99368   4.097  10.110   3.435 -0.4332 -0.4378 -0.3725
31669SOL    HW199369   4.100  10.075   3.524  1.5177 -0.4550 -0.4055
31669SOL    HW299370   4.008  10.144   3.425 -0.6394 -0.2969  1.6366
31670SOL     OW99371   9.928   9.049   8.430 -0.8264 -0.4944  0.0686
31670SOL    HW199372   9.990   9.098   8.375 -0.4991 -0.1805  0.7146
31670SOL    HW299373   9.914   8.968   8.382  2.6916 -2.1221  1.4672
31671SOL     OW99374   0.547   4.266   2.614 -0.6720  0.4536 -0.4055
31671SOL    HW199375   0.593   4.317   2.681  0.3688 -0.4152 -0.4346
31671SOL    HW299376   0.615   4.213   2.573 -1.5302 -0.0592 -1.2114
31672SOL     OW99377   2.390   0.665   8.646  0.5924 -0.1048 -0.3704
31672SOL    HW199378   2.408   0.738   8.586 -0.2661  0.8388  0.4788
31672SOL    HW299379   2.459   0.602   8.628  2.1568  1.4711 -0.2510
31673SOL     OW99380   9.230   4.899   5.687 -0.0905  0.6015  0.2651
31673SOL    HW199381   9.195   4.981   5.651  1.8679  1.4791  0.2333
31673SOL    HW299382   9.310   4.883   5.637  0.7142 -0.1526  1.7102
31674SOL     OW99383   8.691   0.494   6.271 -0.6740 -0.3191 -0.1577
31674SOL    HW199384   8.770   0.455   6.234  0.3152 -0.4042  1.9332
31674SOL    HW299385   8.645   0.420   6.312 -0.2751  0.1762  1.2459
31675SOL     OW99386   6.331   8.464  10.272  0.3541  0.3464 -0.1230
31675SOL    HW199387   6.290   8.385  10.237 -0.3218  0.4478  0.4041
31675SOL    HW299388   6.310   8.532  10.209 -0.1119  0.3504  0.0308
31676SOL     OW99389   2.537   4.200   7.814 -0.2831 -0.4996  0.0123
31676SOL    HW199390   2.633   4.206   7.812 -0.3481  0.5498 -1.1279
31676SOL    HW299391   2.508   4.252   7.739 -1.7527 -0.8779  0.2840
31677SOL     OW99392   9.674   0.657   4.235  0.0432 -0.0272 -0.6775
31677SOL    HW199393   9.724   0.690   4.160  0.0712 -1.8398 -1.4987
31677SOL    HW299394   9.734   0.599   4.280 -0.9116 -1.2919 -0.9856
31678SOL     OW99395   1.114   9.430  10.389 -0.0323 -0.3080 -0.4957
31678SOL    HW199396   1.086   9.461  10.476  1.7654 -0.0375  0.0150
31678SOL    HW299397   1.203   9.462  10.379 -0.5237  0.4854 -2.8809
31679SOL     OW99398   6.635   9.865   7.752 -0.3382 -0.0404  0.3755
31679SOL    HW199399   6.687   9.874   7.672 -0.3390 -0.7954  0.2836
31679SOL    HW299400   6.699   9.849   7.821 -0.3706  0.1513  0.4508
31680SOL     OW99401   1.131   7.098   2.570 -0.1527 -0.3382  0.2764
31680SOL    HW199402   1.137   7.027   2.634 -0.0467 -0.1492  0.4789
31680SOL    HW299403   1.219   7.103   2.533 -0.7568 -1.9046 -1.4759
31681SOL     OW99404   3.996   6.602   2.598  0.5759 -0.1464 -0.1739
31681SOL    HW199405   4.051   6.530   2.628  1.3550 -0.4693 -2.2043
31681SOL    HW299406   4.051   6.679   2.605  0.7425 -0.2147 -0.6633
31682SOL     OW99407   1.609   5.775   2.400  0.2576  0.2254  0.2230
31682SOL    HW199408   1.655   5.700   2.362 -1.3684  0.2694 -1.9909
31682SOL    HW299409   1.648   5.851   2.358 -0.5550  0.3764 -0.2701
31683SOL     OW99410  10.788   6.806   2.656  0.2612  0.3123 -0.8771
31683SOL    HW199411  10.710   6.824   2.603  0.0965  1.4087 -0.3072
31683SOL    HW299412  10.849   6.764   2.595 -1.2849 -1.9654 -0.9688
31684SOL     OW99413   0.823   3.082   2.878  0.3388 -0.3114  0.1374
31684SOL    HW199414   0.872   3.154   2.919  0.6723  0.2367 -1.1796
31684SOL    HW299415   0.742   3.076   2.930 -0.4012  2.0423 -0.6088
31685SOL     OW99416   0.159  10.041   0.879 -0.5914  0.5516  0.0400
31685SOL    HW199417   0.217  10.073   0.810 -0.2917  0.9101  0.4582
31685SOL    HW299418   0.190   9.952   0.896  0.3325  1.0058  0.7946
31686SOL     OW99419   4.233   5.247   2.376 -0.1231  0.5805  0.0218
31686SOL    HW199420   4.288   5.301   2.432  0.3028 -0.0409  0.2176
31686SOL    HW299421   4.173   5.203   2.437  1.1761 -1.0827  0.1722
31687SOL     OW99422   4.414   9.048   8.147 -0.4874 -0.0776  0.1905
31687SOL    HW199423   4.485   9.022   8.206  0.8383  2.2341 -0.2775
31687SOL    HW299424   4.334   9.029   8.196  0.5045 -0.3099  1.8050
31688SOL     OW99425   3.392   3.509   6.703  0.0533 -0.0625 -0.3232
31688SOL    HW199426   3.399   3.416   6.726  0.1193 -0.0280 -0.2051
31688SOL    HW299427   3.332   3.510   6.629 -1.7679  0.0293  1.0936
31689SOL     OW99428   1.188   4.513   4.680  0.2705 -0.3050 -0.6261
31689SOL    HW199429   1.112   4.509   4.623  0.2844 -1.6874 -0.5656
31689SOL    HW299430   1.240   4.436   4.656  0.4417 -0.7181  1.0084
31690SOL     OW99431   7.578   6.654   9.704 -0.0289 -0.0386 -0.1199
31690SOL    HW199432   7.500   6.710   9.709  0.0102 -0.0456  0.7292
31690SOL    HW299433   7.651   6.715   9.716  0.1510  0.0566 -1.4801
31691SOL     OW99434   0.100   2.896   0.864  0.5076  0.1921 -0.1735
31691SOL    HW199435   0.042   2.957   0.909 -0.3068 -2.5211  2.8713
31691SOL    HW299436   0.041   2.837   0.816  0.9968 -0.3347 -0.1424
31692SOL     OW99437  10.622   4.253   9.816 -0.0573  0.3406  0.7811
31692SOL    HW199438  10.686   4.194   9.856  2.4311  1.5409 -1.1583
31692SOL    HW299439  10.663   4.340   9.821 -1.0263  0.9923 -1.4875
31693SOL     OW99440   9.035   8.912   1.417 -0.3919 -0.6133 -0.1681
31693SOL    HW199441   9.040   8.816   1.420  3.8423 -0.5804  1.8834
31693SOL    HW299442   9.049   8.939   1.508  1.5692  1.8957 -1.0906
31694SOL     OW99443   0.822   0.442   0.727 -0.1960  0.0894  0.1620
31694SOL    HW199444   0.741   0.393   0.739  0.0048 -0.7281 -1.5263
31694SOL    HW299445   0.878   0.412   0.799 -1.8481  1.8557  2.3513
31695SOL     OW99446   6.335   5.324   7.010 -0.4583  0.0728  0.0859
31695SOL    HW199447   6.360   5.352   7.098  0.1036  2.1385 -0.6695
31695SOL    HW299448   6.419   5.314   6.963 -0.7705  1.9810 -1.0116
31696SOL     OW99449   5.744   6.650   0.237 -0.5683  0.5119 -0.4546
31696SOL    HW199450   5.704   6.677   0.319 -0.6707 -0.7804 -0.0637
31696SOL    HW299451   5.821   6.600   0.263 -1.3898 -1.1520 -1.0806
31697SOL     OW99452  10.251   9.162   5.888 -0.3315  0.2751  0.5734
31697SOL    HW199453  10.242   9.191   5.797  1.0387 -0.8049  0.0551
31697SOL    HW299454  10.302   9.232   5.930  0.6824 -0.0992  0.0047
31698SOL     OW99455   4.222   5.387   9.010  0.3916 -0.4102 -0.0705
31698SOL    HW199456   4.179   5.363   9.092 -0.5104  0.6989 -0.1832
31698SOL    HW299457   4.151   5.394   8.947  0.9078  0.0570 -0.6120
31699SOL     OW99458   2.769   9.151  10.408 -0.0041  0.7306  0.1996
31699SOL    HW199459   2.730   9.077  10.361  0.5773  0.1983  0.5392
31699SOL    HW299460   2.718   9.226  10.381  1.5231  0.8188 -2.9188
31700SOL     OW99461  10.391   6.951   9.152 -0.6260  0.2179  0.2548
31700SOL    HW199462  10.313   7.002   9.171 -0.2621  0.6008  0.7614
31700SOL    HW299463  10.390   6.880   9.216  0.3381  1.2229  1.4594
31701SOL     OW99464   0.015   2.053   7.396  0.4005 -0.1011  0.3569
31701SOL    HW199465   0.038   1.965   7.423 -0.4765  0.0855  1.8654
31701SOL    HW299466  -0.069   2.044   7.351 -0.4733  0.1143  1.8930
31702SOL     OW99467   3.724   1.719   5.008 -0.3632  0.0710  0.4212
31702SOL    HW199468   3.693   1.631   4.988 -0.2695  0.1247  0.0429
31702SOL    HW299469   3.645   1.771   5.017 -0.4066  0.0239  0.3067
31703SOL     OW99470   2.732   9.832  10.932  0.2132 -0.2700  0.8935
31703SOL    HW199471   2.757   9.794  10.847  1.0174  1.5896  0.2460
31703SOL    HW299472   2.790   9.790  10.995  0.8326 -0.3891  0.2610
31704SOL     OW99473   0.782   8.489   7.968  0.1448 -0.3711  0.1861
31704SOL    HW199474   0.790   8.553   8.038  0.9869  0.5275 -0.7077
31704SOL    HW299475   0.687   8.474   7.960 -0.0431  0.5449  0.6007
31705SOL     OW99476   6.515   6.173   7.307 -0.6058 -0.2062  0.2328
31705SOL    HW199477   6.606   6.176   7.335 -0.3418 -1.7696 -0.3627
31705SOL    HW299478   6.479   6.258   7.332  1.3419  0.9464 -0.6946
31706SOL     OW99479   3.259   5.751   5.830 -0.0483  0.7026 -0.5412
31706SOL    HW199480   3.215   5.788   5.754 -2.7914  0.8070  0.9632
31706SOL    HW299481   3.226   5.661   5.836 -1.5402  1.3152  1.6087
31707SOL     OW99482   1.544   4.863   3.090  0.2196 -0.1878  0.2185
31707SOL    HW199483   1.483   4.797   3.123  1.3287 -0.7224  1.2434
31707SOL    HW299484   1.630   4.834   3.118  1.1537 -0.1091 -2.2589
31708SOL     OW99485   5.320   0.085   3.596  0.4966 -0.8425  0.1389
31708SOL    HW199486   5.277   0.168   3.615  0.9431 -0.8359  1.1239
31708SOL    HW299487   5.251   0.032   3.556 -0.1206 -0.4244  0.6308
31709SOL     OW99488   8.627   2.465   6.143  0.0964  0.2969  0.4425
31709SOL    HW199489   8.646   2.372   6.145 -1.0043  0.0136 -0.8969
31709SOL    HW299490   8.531   2.470   6.136  0.1282  1.5332  0.5454
31710SOL     OW99491   1.078   7.279   1.672 -0.3751  0.3374 -0.3345
31710SOL    HW199492   1.020   7.247   1.602 -0.9966  2.2114 -0.7438
31710SOL    HW299493   1.116   7.359   1.636 -1.9038  2.2467  1.9715
31711SOL     OW99494  10.106   3.237  10.253  0.0916 -0.0349 -0.4087
31711SOL    HW199495  10.159   3.162  10.227 -1.1255 -0.3604 -2.0926
31711SOL    HW299496  10.081   3.218  10.344  1.4770 -0.6382 -0.1278
31712SOL     OW99497   0.366   4.352   5.556  0.4804 -0.1303 -0.3693
31712SOL    HW199498   0.418   4.289   5.506  1.3663  0.2817  0.0248
31712SOL    HW299499   0.400   4.346   5.645 -0.9252 -0.6880  0.1579
31713SOL     OW99500   8.566   6.155   5.131 -0.3648 -0.5246 -0.0071
31713SOL    HW199501   8.531   6.199   5.054 -0.2822 -0.6563 -0.1205
31713SOL    HW299502   8.542   6.063   5.119 -0.5180 -0.5154  0.2177
31714SOL     OW99503   8.977   4.179   2.042  0.3146  0.4833 -0.4594
31714SOL    HW199504   9.037   4.228   1.986 -0.0514  2.6723  0.9175
31714SOL    HW299505   8.939   4.246   2.100  0.2224 -1.5154  1.9672
31715SOL     OW99506   4.779  11.040   9.612  1.2354  0.0291 -0.4482
31715SOL    HW199507   4.834  11.118   9.615  0.1714  0.7743  0.6704
31715SOL    HW299508   4.708  11.062   9.551 -0.1185  0.7297  1.2734
31716SOL     OW99509   4.997   8.132   5.514  0.5066 -0.6993 -0.4440
31716SOL    HW199510   5.019   8.205   5.455 -0.0250 -0.7037 -0.6550
31716SOL    HW299511   4.902   8.136   5.522  0.4143 -1.7152 -0.9049
31717SOL     OW99512   5.595   4.835   1.929  0.2164  0.2646 -0.1755
31717SOL    HW199513   5.536   4.761   1.938 -0.4570  0.9523  1.4452
31717SOL    HW299514   5.538   4.910   1.911  0.5737  0.8957  1.1872
31718SOL     OW99515   6.372   8.844   2.314 -0.2474  0.0749 -0.1935
31718SOL    HW199516   6.302   8.854   2.250  0.3285 -0.3990 -0.9072
31718SOL    HW299517   6.442   8.901   2.282 -0.7971  1.6935  1.2894
31719SOL     OW99518   6.892   1.606   2.531 -0.4138  0.0334 -0.4461
31719SOL    HW199519   6.849   1.674   2.479  2.5836  1.0885 -1.7673
31719SOL    HW299520   6.900   1.643   2.619 -1.1634  0.2528 -0.4643
31720SOL     OW99521   5.460   4.877   1.126  0.4823  0.2758  0.2270
31720SOL    HW199522   5.433   4.932   1.052  1.0825 -0.2548 -0.4003
31720SOL    HW299523   5.378   4.853   1.169  0.2167  1.9659  0.7615
31721SOL     OW99524  10.334   0.014   3.737 -0.2585 -0.0198 -0.1351
31721SOL    HW199525  10.333  -0.028   3.651 -1.2867 -1.0812  0.3676
31721SOL    HW299526  10.365  -0.054   3.797 -0.1746  0.5092  0.4296
31722SOL     OW99527  10.197   0.093   1.369  0.1667 -0.2647 -0.4278
31722SOL    HW199528  10.228   0.067   1.456  0.1567  2.7152  0.5889
31722SOL    HW299529  10.111   0.052   1.361 -1.0201  1.4171  2.1916
31723SOL     OW99530   4.469   6.098  10.919 -0.7928  0.0574  0.4271
31723SOL    HW199531   4.447   6.172  10.863 -0.5490 -2.1416 -2.8294
31723SOL    HW299532   4.392   6.040  10.914  0.6138 -1.8346 -0.6718
31724SOL     OW99533   9.443   3.455   7.896  0.9930  0.5288 -0.0769
31724SOL    HW199534   9.365   3.509   7.901  0.8622  0.2434  1.8215
31724SOL    HW299535   9.423   3.389   7.831 -0.6422  0.0707  0.8424
31725SOL     OW99536   8.409   7.374   5.577  0.5504 -0.2793 -0.0619
31725SOL    HW199537   8.468   7.440   5.541  0.5597  0.9953  2.0889
31725SOL    HW299538   8.431   7.294   5.530  2.1586  0.7443 -1.1626
31726SOL     OW99539   3.264   9.783   1.795 -0.2418 -0.1351  0.4604
31726SOL    HW199540   3.256   9.711   1.858  1.2089  0.6696  1.6411
31726SOL    HW299541   3.356   9.809   1.801 -0.1377  0.2128 -1.7727
31727SOL     OW99542   8.309   0.350   3.034 -0.2575 -0.1417  0.1976
31727SOL    HW199543   8.322   0.289   3.106  0.5533  0.4545  0.5625
31727SOL    HW299544   8.217   0.375   3.040 -1.0164 -2.3796 -0.8150
31728SOL     OW99545  10.786   8.290  10.660 -0.8736  0.1492 -0.0641
31728SOL    HW199546  10.751   8.215  10.708  1.0103  0.0616  1.2610
31728SOL    HW299547  10.741   8.365  10.698 -0.8528 -0.0992  0.4644
31729SOL     OW99548   4.495   9.256   2.065 -0.0148  0.0332  0.0044
31729SOL    HW199549   4.460   9.337   2.101  0.2303  0.3473 -0.4517
31729SOL    HW299550   4.558   9.285   1.999 -1.4004 -0.5122 -1.6069
31730SOL     OW99551   7.771   3.999  10.787 -0.2855  0.3640  0.1922
31730SOL    HW199552   7.747   4.063  10.721  0.0933 -0.4999 -0.8091
31730SOL    HW299553   7.813   4.050  10.856  0.8884  1.0766 -1.0221
31731SOL     OW99554   2.729   0.605   0.255 -0.1482 -0.2087  0.5330
31731SOL    HW199555   2.823   0.620   0.245 -0.4386  1.2676 -0.3011
31731SOL    HW299556   2.689   0.689   0.234 -1.6398 -0.6789  1.3568
31732SOL     OW99557   3.064   5.511   7.613  0.1994 -0.3461 -0.3606
31732SOL    HW199558   3.021   5.592   7.640 -1.1719 -0.4813 -2.0096
31732SOL    HW299559   3.012   5.442   7.654 -0.3696 -0.4627 -1.2510
31733SOL     OW99560   6.354   0.724   5.290  0.1612 -0.4042 -0.3521
31733SOL    HW199561   6.396   0.669   5.356 -1.3731  1.8010  2.7016
31733SOL    HW299562   6.426   0.772   5.250  1.1409 -1.7518 -0.2673
31734SOL     OW99563   7.069  10.199   6.921 -0.4238 -0.4144 -0.0346
31734SOL    HW199564   7.099  10.108   6.932 -1.0813 -0.5324  0.8872
31734SOL    HW299565   6.980  10.190   6.886 -0.1931 -0.1039 -0.7134
31735SOL     OW99566   0.588   3.728   8.007 -0.1897 -0.7470  0.6528
31735SOL    HW199567   0.674   3.686   7.995  0.2493  0.1148  0.6719
31735SOL    HW299568   0.596   3.774   8.091 -0.0454  0.7613 -0.1516
31736SOL     OW99569   2.698   9.679  10.684  0.2367 -0.2325 -0.2231
31736SOL    HW199570   2.610   9.641  10.675 -0.2185  0.9361 -0.9603
31736SOL    HW299571   2.739   9.627  10.753 -0.7595 -1.2973 -0.3899
31737SOL     OW99572   3.888   0.953   5.482  0.1036 -0.0458  0.6796
31737SOL    HW199573   3.937   0.884   5.527  0.3654 -1.3640 -1.5058
31737SOL    HW299574   3.950   0.991   5.420 -1.0748 -0.5211 -0.8599
31738SOL     OW99575   9.244   0.080   3.465  0.9788  0.4290 -0.2824
31738SOL    HW199576   9.229   0.050   3.555  0.6454 -1.0657 -0.8147
31738SOL    HW299577   9.221   0.173   3.467 -2.3851 -0.2718  0.4475
31739SOL     OW99578   2.118   1.115   7.491 -0.4092 -0.0263 -0.3406
31739SOL    HW199579   2.077   1.055   7.553 -2.1272 -0.7389 -2.0672
31739SOL    HW299580   2.178   1.168   7.545 -0.2727 -1.9512  1.5509
31740SOL     OW99581   2.440   3.575   0.980 -0.3324 -0.2094 -0.3825
31740SOL    HW199582   2.458   3.484   0.956  0.3242  0.3074 -1.9484
31740SOL    HW299583   2.452   3.624   0.899  2.3957  1.6993  1.0224
31741SOL     OW99584   3.007  10.352   2.640 -0.0181 -0.1881  0.2865
31741SOL    HW199585   3.058  10.332   2.719 -1.0808  0.6383  1.2015
31741SOL    HW299586   2.960  10.432   2.662  2.4591  2.2588 -2.4765
31742SOL     OW99587   0.601   0.422   9.407 -0.0631 -0.0769  0.3117
31742SOL    HW199588   0.525   0.473   9.436 -0.0317  0.4013 -0.4297
31742SOL    HW299589   0.661   0.425   9.481 -0.2647  0.5629  0.4614
31743SOL     OW99590   2.664   3.525   8.230 -0.1811 -0.4708  0.2193
31743SOL    HW199591   2.587   3.470   8.239 -1.0268  0.6808  0.1898
31743SOL    HW299592   2.712   3.487   8.156 -1.6418 -0.1420 -0.9502
31744SOL     OW99593   3.908   3.167   6.536 -0.3515  0.2899  0.5745
31744SOL    HW199594   3.956   3.166   6.453 -2.4814  1.2164 -0.7435
31744SOL    HW299595   3.949   3.097   6.587  3.8213  2.3687  0.4856
31745SOL     OW99596   3.913  10.639   4.265  0.3744 -0.0342  0.1704
31745SOL    HW199597   3.999  10.680   4.274  1.5218 -2.6349  2.4628
31745SOL    HW299598   3.926  10.567   4.204  0.0605 -0.8900  1.0784
31746SOL     OW99599   3.375   9.441   3.819  0.8705  0.0516 -0.1929
31746SOL    HW199600   3.384   9.371   3.884 -0.1689 -0.5784 -0.6916
31746SOL    HW299601   3.281   9.452   3.809  0.9894  2.4502  0.7998
31747SOL     OW99602   2.601   7.927   8.631  0.1396  0.5294 -0.3498
31747SOL    HW199603   2.616   7.953   8.541 -0.9528  1.6982 -0.2200
31747SOL    HW299604   2.672   7.967   8.681  1.4756 -1.1606 -0.8191
31748SOL     OW99605   3.739   8.021   3.635 -0.7177  0.4427  0.3736
31748SOL    HW199606   3.645   8.038   3.629 -1.0443 -1.2917  0.0695
31748SOL    HW299607   3.751   7.937   3.590  1.1565  1.1718 -0.5910
31749SOL     OW99608   1.930   6.889   3.108  0.1031 -0.0118  0.1840
31749SOL    HW199609   2.014   6.857   3.143  0.3897  0.8774  0.3389
31749SOL    HW299610   1.941   6.984   3.105 -0.7325  0.0717 -0.2539
31750SOL     OW99611   5.394   7.617   9.151 -0.7686  0.6131 -0.0937
31750SOL    HW199612   5.360   7.604   9.063 -1.8663  1.1853  0.2198
31750SOL    HW299613   5.369   7.707   9.174 -1.6823  0.0475  1.2768
31751SOL     OW99614  10.889   8.033   7.914  0.2441 -0.3946 -0.4485
31751SOL    HW199615  10.950   7.995   7.978  4.1729  1.9244 -2.4552
31751SOL    HW299616  10.861   8.116   7.954 -0.6276 -0.8345 -0.1073
31752SOL     OW99617   6.774   2.295   5.325 -0.5558  0.6191  0.4276
31752SOL    HW199618   6.759   2.230   5.394 -1.0980  0.5808  0.2782
31752SOL    HW299619   6.825   2.248   5.259  1.7043  1.1868  1.6402
31753SOL     OW99620   2.752   4.303   2.230 -0.2934 -0.1339  0.3039
31753SOL    HW199621   2.703   4.308   2.148  0.8994  0.5795 -0.3877
31753SOL    HW299622   2.831   4.254   2.207  0.2748  0.4840  0.9044
31754SOL     OW99623   4.199   5.911   7.738  0.0835 -0.2247 -0.4611
31754SOL    HW199624   4.209   6.001   7.708 -0.9158 -0.0535 -0.2968
31754SOL    HW299625   4.275   5.865   7.701  0.6475  0.6940 -0.4708
31755SOL     OW99626   8.797   3.819  10.378  0.3753  0.2801  0.2934
31755SOL    HW199627   8.702   3.823  10.386  0.1790  0.1525 -1.5801
31755SOL    HW299628   8.821   3.736  10.419 -0.4449 -0.1566 -0.0914
31756SOL     OW99629  10.476   9.651  10.966 -0.2021 -0.4618  0.2953
31756SOL    HW199630  10.460   9.691  10.880 -1.0920  0.3670  0.8270
31756SOL    HW299631  10.571   9.641  10.969 -0.1332 -0.2592 -0.6792
31757SOL     OW99632   1.344   8.220   4.425  0.7566 -0.2545 -0.0277
31757SOL    HW199633   1.430   8.222   4.383  1.1987 -1.0876  0.8079
31757SOL    HW299634   1.359   8.258   4.512 -0.4944  3.1897 -1.1117
31758SOL     OW99635  10.043   3.618   2.466 -0.2338  0.4920  0.1335
31758SOL    HW199636   9.952   3.648   2.467  0.2150  1.9692 -0.8489
31758SOL    HW299637  10.060   3.589   2.556 -1.3820  1.0660  0.5521
31759SOL     OW99638   2.075   5.864   1.407 -0.0508  0.1839 -0.6048
31759SOL    HW199639   2.125   5.925   1.462  0.8475 -0.2194 -0.9578
31759SOL    HW299640   1.983   5.882   1.428  0.0819  2.8024 -1.8771
31760SOL     OW99641  10.096   2.756   7.115  0.4068 -0.7668 -0.6994
31760SOL    HW199642  10.185   2.769   7.150 -1.0587  0.3868  3.1509
31760SOL    HW299643  10.087   2.661   7.109  1.2509 -1.0054  1.0637
31761SOL     OW99644   6.654   6.550   3.987 -0.0895 -0.0456 -0.0252
31761SOL    HW199645   6.574   6.563   4.039 -0.2300  0.2132 -0.3076
31761SOL    HW299646   6.643   6.464   3.948  0.5071 -0.7277  1.2470
31762SOL     OW99647  10.907  10.656   1.282 -0.4052 -0.4456  0.0734
31762SOL    HW199648  10.946  10.621   1.362  0.1314 -1.5722 -0.6459
31762SOL    HW299649  10.979  10.655   1.218 -1.4430 -2.0884 -1.1491
31763SOL     OW99650   8.541   9.158   4.352  0.2276 -0.1313  0.8702
31763SOL    HW199651   8.496   9.242   4.365  0.0394 -0.0317 -0.2516
31763SOL    HW299652   8.498   9.121   4.274  2.1208  0.0056 -0.3019
31764SOL     OW99653   5.781   8.332   8.164 -0.0711  1.0213  0.0416
31764SOL    HW199654   5.872   8.301   8.172 -0.8775 -1.2840  1.1578
31764SOL    HW299655   5.748   8.331   8.254 -0.6777  3.7928 -0.0674
31765SOL     OW99656   6.199   8.971   3.096 -0.0289  0.1521  0.1526
31765SOL    HW199657   6.291   8.970   3.123  0.2857  1.0411 -0.8154
31765SOL    HW299658   6.152   8.937   3.171  1.1295 -0.7389  0.5191
31766SOL     OW99659   8.405   4.999   7.572 -0.7017  0.3520 -0.0075
31766SOL    HW199660   8.449   5.033   7.650  0.4544 -1.6705  0.2636
31766SOL    HW299661   8.428   4.907   7.569 -2.9511 -0.2520 -1.2476
31767SOL     OW99662   3.527   7.247   1.684  0.3270 -0.4669 -0.9106
31767SOL    HW199663   3.595   7.252   1.752  0.9946  0.4998 -1.6171
31767SOL    HW299664   3.467   7.179   1.714  1.8027 -1.6036 -0.4341
31768SOL     OW99665  10.812   2.423  10.562 -0.1629  0.0948  0.2942
31768SOL    HW199666  10.778   2.359  10.624 -0.6696 -0.0019 -0.0665
31768SOL    HW299667  10.796   2.508  10.604 -2.2180  0.1447 -0.4531
31769SOL     OW99668   9.312   0.877   7.689 -0.6650  0.3433  0.2790
31769SOL    HW199669   9.299   0.954   7.745 -0.8592 -0.1818  0.9694
31769SOL    HW299670   9.246   0.887   7.620 -1.2243  0.4059  0.8035
31770SOL     OW99671   7.794   1.376  10.648 -0.2367  0.3391 -0.1091
31770SOL    HW199672   7.744   1.353  10.727  0.5538 -3.5071 -0.5125
31770SOL    HW299673   7.730   1.370  10.577  0.0977 -1.8209 -0.3022
31771SOL     OW99674   4.472  10.014   7.046 -1.2346 -0.0766 -0.0142
31771SOL    HW199675   4.534   9.967   6.990  0.3759  1.8709  0.0161
31771SOL    HW299676   4.387   9.976   7.025 -0.2574 -1.6575 -1.3375
31772SOL     OW99677   0.179  10.981   3.210 -0.4720  0.8741  0.2195
31772SOL    HW199678   0.129  11.017   3.136  0.0015  2.4306  0.6119
31772SOL    HW299679   0.270  11.006   3.192 -0.1156 -0.1412  0.5392
31773SOL     OW99680   3.840  10.520   0.155  0.4946 -0.1720 -0.5366
31773SOL    HW199681   3.806  10.439   0.118 -1.4420  0.9184 -1.3524
31773SOL    HW299682   3.840  10.507   0.249 -1.1583 -0.6599 -0.5785
31774SOL     OW99683  10.834   0.825   5.865 -0.5909 -0.4044 -0.5019
31774SOL    HW199684  10.917   0.815   5.912 -0.6339 -0.6902 -0.4901
31774SOL    HW299685  10.860   0.855   5.778 -0.4248 -1.2123 -0.7390
31775SOL     OW99686   2.445   9.245  10.677  0.4419  0.1614 -0.8769
31775SOL    HW199687   2.350   9.261  10.679  0.4319  0.1406 -1.1225
31775SOL    HW299688   2.484   9.332  10.669  0.4269  0.1414 -1.1819
31776SOL     OW99689   6.616   9.256   2.877 -0.0956 -0.3411 -0.0067
31776SOL    HW199690   6.525   9.233   2.896 -0.3332  0.6610  0.1618
31776SOL    HW299691   6.642   9.312   2.950 -0.1577  1.3968 -1.2607
31777SOL     OW99692   2.396   7.353   5.160  0.3843  0.1267 -0.0713
31777SOL    HW199693   2.453   7.364   5.083 -1.3059  0.6719 -1.2984
31777SOL    HW299694   2.310   7.381   5.130 -0.5161 -0.5225  1.7881
31778SOL     OW99695   6.977   6.541   4.376  0.4024 -0.0647 -0.0011
31778SOL    HW199696   6.945   6.594   4.449  0.5424  1.1044 -0.7687
31778SOL    HW299697   6.972   6.451   4.408 -0.6146  0.3388  1.0400
31779SOL     OW99698   8.089  10.298   9.815 -0.9656 -0.3223 -0.7686
31779SOL    HW199699   8.099  10.245   9.894 -1.1471 -1.8824 -1.7503
31779SOL    HW299700   8.147  10.257   9.751  0.7329  2.1361 -0.9087
31780SOL     OW99701   3.343   4.545   5.253  0.5448  0.3850 -0.1304
31780SOL    HW199702   3.413   4.522   5.314  0.0369  1.2201  0.7823
31780SOL    HW299703   3.305   4.461   5.228  0.5338  0.0477  0.9695
31781SOL     OW99704   2.647   7.809   7.604  0.0379  0.2861 -0.0014
31781SOL    HW199705   2.741   7.820   7.592 -0.0153 -0.4758 -1.3349
31781SOL    HW299706   2.636   7.714   7.616 -0.5372  0.3914  0.3200
31782SOL     OW99707   4.250   4.393   0.351 -0.3617 -0.8237  0.0259
31782SOL    HW199708   4.342   4.366   0.345  0.0916  0.1427  1.7599
31782SOL    HW299709   4.229   4.427   0.265  0.3956 -2.5097 -0.8802
31783SOL     OW99710   0.335   5.250   5.685 -0.2822 -0.1933  0.2950
31783SOL    HW199711   0.404   5.290   5.633 -2.0142  0.7927 -1.3660
31783SOL    HW299712   0.305   5.319   5.744 -1.4307  0.1740 -0.6748
31784SOL     OW99713   5.454   6.905   8.265 -0.4461 -0.2791  0.0531
31784SOL    HW199714   5.541   6.887   8.230  0.2246  0.3843  1.3086
31784SOL    HW299715   5.436   6.996   8.240 -0.2448 -0.0187  0.8292
31785SOL     OW99716   4.006   1.908   0.388 -0.1423 -0.2804  0.2584
31785SOL    HW199717   3.956   1.975   0.435  0.4454  0.7739 -0.5803
31785SOL    HW299718   3.939   1.858   0.339 -0.3841  1.5115 -1.3493
31786SOL     OW99719  11.025   2.172   4.641  0.8169  0.7542 -0.0934
31786SOL    HW199720  11.021   2.079   4.623 -0.8453  0.7954 -0.1203
31786SOL    HW299721  11.099   2.182   4.702 -0.1363 -0.8596  1.4233
31787SOL     OW99722   0.504   6.587   5.081 -0.1542  0.6809  0.4285
31787SOL    HW199723   0.528   6.512   5.027 -0.5806 -0.0312  1.1928
31787SOL    HW299724   0.536   6.564   5.169 -0.7701  1.1410  0.7821
31788SOL     OW99725   3.096   6.215   3.125  0.3816  0.0898  0.1214
31788SOL    HW199726   3.177   6.164   3.121  2.3027  2.7906  1.1855
31788SOL    HW299727   3.064   6.202   3.214  1.2887  1.2038  0.6434
31789SOL     OW99728   4.952   8.231   0.787  0.7506 -0.3498 -0.1024
31789SOL    HW199729   4.947   8.206   0.695 -0.2312  2.1893 -0.8240
31789SOL    HW299730   4.883   8.297   0.798  1.1983 -0.1854  2.3324
31790SOL     OW99731   3.765   5.511   1.264 -0.1051  0.3217 -0.1635
31790SOL    HW199732   3.765   5.525   1.169 -0.1206 -0.9117 -0.3627
31790SOL    HW299733   3.844   5.460   1.281 -0.9388 -0.8940  0.2378
31791SOL     OW99734   2.538   8.263   6.585  0.2464 -0.0783  0.0641
31791SOL    HW199735   2.613   8.207   6.565  0.2969  0.0714 -0.1770
31791SOL    HW299736   2.556   8.344   6.538 -0.4680 -0.3337 -0.6712
31792SOL     OW99737   6.481   8.436   2.860 -0.5058 -0.3272  0.1060
31792SOL    HW199738   6.497   8.341   2.857 -1.9862 -0.5923 -0.2647
31792SOL    HW299739   6.567   8.475   2.853  0.2447 -1.6615  1.2343
31793SOL     OW99740   7.300   2.913   1.894 -0.3032 -0.3228  0.1114
31793SOL    HW199741   7.289   2.853   1.968  0.8526 -1.1985 -0.3907
31793SOL    HW299742   7.258   2.867   1.821 -1.3689  0.5007  0.1857
31794SOL     OW99743   3.040   3.626   2.673 -0.2206 -0.0865  0.1922
31794SOL    HW199744   3.091   3.697   2.635 -0.3907 -0.8008 -1.4700
31794SOL    HW299745   3.102   3.576   2.725 -0.0196  1.0429  1.0664
31795SOL     OW99746   6.975  10.154   9.236 -0.0293  0.1698  0.3282
31795SOL    HW199747   6.880  10.147   9.246 -0.2429  0.7182 -1.0516
31795SOL    HW299748   6.987  10.222   9.169  1.3260 -0.0355  0.3356
31796SOL     OW99749   7.839   4.504   4.049 -0.0534  0.2058  0.0729
31796SOL    HW199750   7.789   4.561   3.992 -1.1316 -0.3112  0.4657
31796SOL    HW299751   7.910   4.559   4.084 -1.5801  1.5756  1.1333
31797SOL     OW99752   8.103   1.876   9.285 -0.2580  0.7339  0.0376
31797SOL    HW199753   8.063   1.790   9.294  0.8697  0.2307  0.4407
31797SOL    HW299754   8.165   1.882   9.358  0.6512  1.3236 -0.7450
31798SOL     OW99755   3.866   9.242   1.549 -0.0940  0.4270 -0.4318
31798SOL    HW199756   3.826   9.157   1.565  0.8569 -0.4073 -2.2182
31798SOL    HW299757   3.960   9.225   1.546  0.2286  1.8374  0.7772
31799SOL     OW99758   9.527   6.166   9.583 -0.0927  0.1528 -0.0291
31799SOL    HW199759   9.526   6.102   9.512  1.4578 -0.5348  0.5452
31799SOL    HW299760   9.437   6.199   9.586 -0.6818 -1.2697 -0.9831
31800SOL     OW99761   0.651   9.503   9.513 -0.0417  0.4398  0.1990
31800SOL    HW199762   0.562   9.497   9.546  0.1755  1.1347  0.9530
31800SOL    HW299763   0.641   9.538   9.424 -0.5444  0.0567  0.1013
31801SOL     OW99764   8.973   8.812   6.602 -0.7196 -0.2677  0.3148
31801SOL    HW199765   8.910   8.774   6.663 -0.8484 -1.1505 -0.3577
31801SOL    HW299766   8.968   8.757   6.525  0.9665 -0.4193  0.2882
31802SOL     OW99767   2.897   5.384   3.004 -0.2927 -0.1212 -0.2083
31802SOL    HW199768   2.922   5.395   2.912  0.9700 -2.4318 -0.2130
31802SOL    HW299769   2.801   5.392   3.003 -0.2720  0.2936 -1.6437
31803SOL     OW99770   3.191   9.318   7.031 -0.5660  0.5080  0.2780
31803SOL    HW199771   3.252   9.252   7.063 -1.8584 -0.4892  0.7487
31803SOL    HW299772   3.238   9.401   7.042  1.6208 -0.3680 -1.5435
31804SOL     OW99773   0.480   1.176   8.204  0.3411 -0.2966 -0.1770
31804SOL    HW199774   0.559   1.208   8.247 -0.6737 -0.4139  1.8881
31804SOL    HW299775   0.468   1.087   8.238 -2.0666  0.6277  1.6730
31805SOL     OW99776   9.447   9.292   5.288  0.3613 -0.2274  0.1160
31805SOL    HW199777   9.369   9.327   5.245 -2.4130 -1.2679  3.8141
31805SOL    HW299778   9.469   9.214   5.237 -1.0476  0.0704 -1.0158
31806SOL     OW99779   1.092   9.066  10.946  1.0124  0.2387 -0.6287
31806SOL    HW199780   1.104   9.048  11.040  1.9651 -0.8890 -0.9441
31806SOL    HW299781   1.018   9.127  10.943  0.9252  0.2518  0.8517
31807SOL     OW99782  10.016   1.524  10.753  0.1324 -0.0609 -0.1557
31807SOL    HW199783  10.009   1.612  10.791  0.5439  0.5916 -1.5349
31807SOL    HW299784   9.973   1.467  10.817 -1.5656  1.3521  0.0478
31808SOL     OW99785   6.938   9.569  10.070  0.0471  0.1642  0.3378
31808SOL    HW199786   6.942   9.566   9.975  0.3713  0.0650  0.3550
31808SOL    HW299787   6.917   9.479  10.096  0.2227  0.1328  0.3723
31809SOL     OW99788   1.779   3.642  10.695 -0.2182 -0.1278  0.2052
31809SOL    HW199789   1.741   3.556  10.711  1.5384 -1.0950 -0.5776
31809SOL    HW299790   1.862   3.625  10.652  1.1279  1.8681  1.7742
31810SOL     OW99791   9.414   2.630   5.110 -0.0718 -0.1024 -0.0009
31810SOL    HW199792   9.411   2.718   5.072 -0.0425  0.8147  1.9866
31810SOL    HW299793   9.340   2.584   5.070 -0.3876  0.9744 -0.7075
31811SOL     OW99794   8.421  10.527   9.751  0.0860 -0.2021  0.0306
31811SOL    HW199795   8.486  10.457   9.755 -1.0301 -1.3131 -0.5934
31811SOL    HW299796   8.389  10.536   9.841  1.0547  0.3348  0.3374
31812SOL     OW99797   2.312   8.423   5.746  0.2729 -0.6223  0.0694
31812SOL    HW199798   2.338   8.382   5.828  0.3788  1.0591  0.9280
31812SOL    HW299799   2.368   8.382   5.680 -1.2250 -3.5219  0.4201
31813SOL     OW99800   5.949   7.751   3.836 -0.0166  0.0250 -0.1925
31813SOL    HW199801   5.884   7.687   3.863  0.7205 -1.5073 -1.7892
31813SOL    HW299802   5.903   7.834   3.837 -1.5984 -0.8066  0.0287
31814SOL     OW99803   7.960   5.509   3.522  1.0802 -0.0952 -0.6518
31814SOL    HW199804   7.971   5.602   3.502 -1.1890  0.0938 -1.3288
31814SOL    HW299805   7.974   5.465   3.439 -2.1943  0.1194 -1.4394
31815SOL     OW99806   5.816  10.377   9.022  0.3780  0.5988  0.0732
31815SOL    HW199807   5.900  10.411   8.992 -0.6549  1.1825 -2.4123
31815SOL    HW299808   5.803  10.296   8.971 -1.4215  1.5785 -1.1584
31816SOL     OW99809   4.496   7.544   4.521  0.4667 -0.6042  0.0116
31816SOL    HW199810   4.526   7.627   4.557  0.7440 -0.0130 -1.4825
31816SOL    HW299811   4.414   7.526   4.567  0.6941  0.2125  0.7577
31817SOL     OW99812   5.872   4.232  10.445 -0.1499 -0.3448 -0.3580
31817SOL    HW199813   5.895   4.147  10.409 -1.6212 -0.7352 -0.4170
31817SOL    HW299814   5.799   4.263  10.392 -0.1414  0.6010  0.1519
31818SOL     OW99815  11.105   3.299   1.833 -0.3075  0.4852  0.0210
31818SOL    HW199816  11.152   3.223   1.867 -2.2591 -1.6087 -1.5975
31818SOL    HW299817  11.173   3.357   1.800  1.2576 -0.9049  0.6808
31819SOL     OW99818  10.263   1.657   5.850 -0.3530 -0.0102  0.2695
31819SOL    HW199819  10.305   1.592   5.906 -0.5672 -0.4662 -0.0904
31819SOL    HW299820  10.304   1.645   5.764  1.0150  1.6520  0.6451
31820SOL     OW99821   9.329   1.562   9.781  0.1761  0.0978  0.0492
31820SOL    HW199822   9.292   1.516   9.706  3.5634 -0.9453 -1.1695
31820SOL    HW299823   9.345   1.651   9.749 -0.1070  0.1856  0.1523
31821SOL     OW99824   3.145  10.120   9.134 -0.1032 -0.1347 -0.5100
31821SOL    HW199825   3.167  10.207   9.167  2.8552 -1.1131  0.4150
31821SOL    HW299826   3.227  10.088   9.095 -0.5076 -3.2356  0.9466
31822SOL     OW99827   6.282  10.724   5.031 -0.2426  0.0880 -0.3412
31822SOL    HW199828   6.349  10.703   5.095 -1.1465  1.3942  1.1044
31822SOL    HW299829   6.290  10.656   4.964  0.3152 -1.7109  1.4674
31823SOL     OW99830   1.106  10.048   7.218  0.0782  0.4034  0.0445
31823SOL    HW199831   1.193  10.051   7.179 -0.2613  1.0754 -0.6883
31823SOL    HW299832   1.061  10.125   7.183 -0.5815  0.4544  0.9659
31824SOL     OW99833   1.320   2.814   4.190 -0.2892  0.3560 -0.2368
31824SOL    HW199834   1.266   2.840   4.264  0.2581  0.6594  0.0571
31824SOL    HW299835   1.319   2.718   4.192 -0.5081  0.3631 -0.0147
31825SOL     OW99836   0.314   3.188  10.290  0.0495  0.2548 -0.2810
31825SOL    HW199837   0.346   3.277  10.274  3.3331 -0.7739 -0.2502
31825SOL    HW299838   0.245   3.199  10.355  1.0067  2.7115  0.4489
31826SOL     OW99839   8.662   5.599   9.453  0.2094  0.0521 -0.1916
31826SOL    HW199840   8.645   5.572   9.543 -1.2353  2.1877  0.2429
31826SOL    HW299841   8.661   5.517   9.403  0.2884 -1.0931  1.5940
31827SOL     OW99842   7.390   5.220   0.023 -0.1948  0.2139  0.2383
31827SOL    HW199843   7.366   5.283  -0.044  0.2340  1.8099  1.5134
31827SOL    HW299844   7.360   5.136  -0.011  0.4112  0.8857 -2.1243
31828SOL     OW99845   6.865   8.882   0.685  0.1303 -0.2204 -0.1871
31828SOL    HW199846   6.915   8.830   0.622  0.4985  0.3908 -0.4027
31828SOL    HW299847   6.841   8.961   0.637 -0.6747 -0.3148  0.0487
31829SOL     OW99848   8.124   4.245   5.722 -0.7226  0.0900 -0.2513
31829SOL    HW199849   8.217   4.237   5.701 -0.7313  0.6363 -0.5295
31829SOL    HW299850   8.119   4.231   5.816 -0.4982 -1.0149 -0.3922
31830SOL     OW99851   6.257   7.841   7.435 -0.4813 -0.2892  0.0393
31830SOL    HW199852   6.301   7.766   7.394 -0.8510  0.6305 -2.1785
31830SOL    HW299853   6.164   7.825   7.420 -0.7468 -0.5703  1.7632
31831SOL     OW99854   4.635   8.430   2.810  0.4875 -0.1687  0.1412
31831SOL    HW199855   4.662   8.472   2.891 -0.3858  2.6658 -0.8824
31831SOL    HW299856   4.696   8.358   2.798  1.7894  0.4703  2.3540
31832SOL     OW99857   9.282   0.039   9.758 -0.3434 -0.1369 -0.1319
31832SOL    HW199858   9.216   0.039   9.826 -0.1551 -0.3193  0.0510
31832SOL    HW299859   9.309   0.131   9.751 -0.8739  0.0007 -0.4656
31833SOL     OW99860   7.731  11.019   3.463  0.6584 -0.4118 -0.6388
31833SOL    HW199861   7.730  10.937   3.513  1.6734 -0.4975 -0.7351
31833SOL    HW299862   7.821  11.026   3.431  0.7394  1.0089 -0.1756
31834SOL     OW99863   8.147  10.951   0.180  0.0785  0.4866 -0.5334
31834SOL    HW199864   8.202  11.026   0.204  1.1554 -0.0548 -1.2192
31834SOL    HW299865   8.194  10.910   0.108 -0.8205 -0.4964 -0.5748
31835SOL     OW99866   1.274  10.971   0.152 -0.0328 -0.3320  0.1132
31835SOL    HW199867   1.335  11.044   0.159 -1.2777  0.6014  4.9489
31835SOL    HW299868   1.321  10.897   0.190 -0.6399 -0.5573  0.4447
31836SOL     OW99869   7.023  10.169   2.608 -0.1355  0.4329  0.5320
31836SOL    HW199870   7.078  10.210   2.675 -1.4249  1.0187  1.2613
31836SOL    HW299871   6.962  10.237   2.582  0.7662  0.4492 -1.7977
31837SOL     OW99872   5.787   2.220   9.493  0.0623 -0.3517  0.4721
31837SOL    HW199873   5.773   2.140   9.443  0.7666 -0.2711  0.1460
31837SOL    HW299874   5.707   2.228   9.546 -0.4499 -0.7303 -0.2175
31838SOL     OW99875   6.443   2.381   0.102 -0.0238  0.5236  0.0756
31838SOL    HW199876   6.456   2.450   0.168  3.1185 -0.2342  0.4184
31838SOL    HW299877   6.511   2.316   0.122 -0.3372 -0.7701 -2.6529
31839SOL     OW99878   6.619   8.746   9.602  0.4108  0.0836  0.6192
31839SOL    HW199879   6.586   8.771   9.515 -1.2487  0.7853  1.4025
31839SOL    HW299880   6.696   8.692   9.584  0.5271  0.7962 -1.2699
31840SOL     OW99881   2.966   6.667   9.768 -0.0502  0.0894 -0.3313
31840SOL    HW199882   2.985   6.670   9.861 -1.3337  1.4735 -0.0654
31840SOL    HW299883   2.877   6.630   9.763  0.2211 -0.4936 -1.0486
31841SOL     OW99884   9.100   4.052   9.178  0.3820 -0.6278 -0.3526
31841SOL    HW199885   9.034   3.988   9.205 -0.7102  0.1541 -1.1098
31841SOL    HW299886   9.129   4.020   9.092  2.4640 -2.0515  0.7830
31842SOL     OW99887   0.432   6.019   8.957 -0.0692  0.0910  0.0199
31842SOL    HW199888   0.462   6.096   8.909  2.5477 -1.8722 -1.7624
31842SOL    HW299889   0.451   6.038   9.049 -1.7406  2.4529 -0.0281
31843SOL     OW99890  10.783   2.706   4.508  0.1001  0.3534 -0.1474
31843SOL    HW199891  10.851   2.772   4.496  0.0040  0.6724  0.9324
31843SOL    HW299892  10.814   2.631   4.458  1.5287  0.3147  0.7191
31844SOL     OW99893   5.067   6.628   4.889  0.1216  0.0999 -0.8119
31844SOL    HW199894   5.002   6.699   4.890 -1.0465 -0.9437 -0.2476
31844SOL    HW299895   5.074   6.601   4.981  0.8978 -0.2418 -0.9591
31845SOL     OW99896   4.969   1.899  10.024 -0.3433 -0.4548 -0.5026
31845SOL    HW199897   5.044   1.844  10.046 -0.1563  0.0220  0.0937
31845SOL    HW299898   4.892   1.845  10.042 -0.1445 -0.8946 -0.9740
31846SOL     OW99899   9.726   4.107   4.239 -0.0991  0.2603  0.5158
31846SOL    HW199900   9.792   4.101   4.308 -1.4234  0.3933  1.8406
31846SOL    HW299901   9.676   4.026   4.247 -1.4342  1.0979  0.9797
31847SOL     OW99902   6.412   1.581   2.968  0.2189 -0.0832 -0.0968
31847SOL    HW199903   6.354   1.652   2.939 -2.2705 -1.7514  0.5061
31847SOL    HW299904   6.386   1.506   2.915 -0.3732 -1.6758  2.3118
31848SOL     OW99905   2.308   5.608   3.018 -0.0042 -0.3162  0.3047
31848SOL    HW199906   2.374   5.677   3.029  0.7983 -1.4093  2.9699
31848SOL    HW299907   2.343   5.554   2.947 -0.5287  1.7828 -1.6777
31849SOL     OW99908   4.241   7.758   1.599  0.3072 -0.2525  0.1923
31849SOL    HW199909   4.250   7.729   1.509  0.6172  0.6227 -0.0668
31849SOL    HW299910   4.211   7.848   1.593  1.0351  0.0551  0.9471
31850SOL     OW99911   8.869   3.653   6.592 -0.2074 -0.3469 -0.2805
31850SOL    HW199912   8.873   3.558   6.598  1.4358 -0.2738  0.0432
31850SOL    HW299913   8.955   3.680   6.562 -0.7096  1.0439 -0.5788
31851SOL     OW99914   0.147  10.168   1.220 -0.0503  0.5424 -0.3257
31851SOL    HW199915   0.127  10.075   1.236  1.4755  0.0094 -1.2621
31851SOL    HW299916   0.168  10.203   1.306  2.0964 -0.7276 -0.2686
31852SOL     OW99917   1.054   1.180   7.501  0.3421 -0.4119 -0.5821
31852SOL    HW199918   1.086   1.222   7.580 -1.2566 -0.7354  0.2880
31852SOL    HW299919   1.126   1.124   7.472  1.4035  0.6623 -0.0793
31853SOL     OW99920   0.361   0.980   3.574 -0.3725  0.0186  0.2344
31853SOL    HW199921   0.326   0.982   3.663  0.0137 -1.0609  0.4281
31853SOL    HW299922   0.359   1.071   3.545  1.2111  0.6975  2.0384
31854SOL     OW99923  10.241   8.239   1.478  0.4165  0.0743 -0.4199
31854SOL    HW199924  10.229   8.152   1.514  0.6770  0.6234  1.0569
31854SOL    HW299925  10.335   8.246   1.463  0.7089  0.8305  1.5006
31855SOL     OW99926   2.148   2.572   7.993 -0.3880  0.5333  0.3723
31855SOL    HW199927   2.240   2.560   8.017 -0.7185 -0.9473  0.9998
31855SOL    HW299928   2.141   2.534   7.906 -0.4582  0.4198  0.4276
31856SOL     OW99929  10.576   3.801   3.899  0.1777  0.0659  0.2245
31856SOL    HW199930  10.605   3.837   3.982 -2.0372 -0.6939  1.4090
31856SOL    HW299931  10.546   3.712   3.919  0.9618 -0.6978 -1.6827
31857SOL     OW99932   1.118   1.972   8.109 -0.1074  0.1611 -0.2419
31857SOL    HW199933   1.168   1.891   8.114 -0.7996 -0.2224  1.0608
31857SOL    HW299934   1.027   1.943   8.103 -0.4349  0.8157  1.1589
31858SOL     OW99935  10.515   3.395  10.099 -0.1447  0.4002  0.3376
31858SOL    HW199936  10.572   3.339  10.046  1.2126 -0.1948  2.3170
31858SOL    HW299937  10.433   3.398  10.050  0.2939 -1.9342 -0.6962
31859SOL     OW99938   8.293   1.135  10.569 -0.1577 -0.1575  0.1911
31859SOL    HW199939   8.354   1.103  10.503 -0.1044  0.6148 -0.1475
31859SOL    HW299940   8.279   1.227  10.546  0.2208  0.2530  1.5220
31860SOL     OW99941   8.085   1.416   7.433  0.0109 -0.1630  0.2050
31860SOL    HW199942   8.020   1.431   7.365  1.5024 -0.3277 -1.3258
31860SOL    HW299943   8.053   1.466   7.508  0.3537  3.5937 -1.8891
31861SOL     OW99944   7.255   4.695   4.955 -0.2662 -0.0184 -0.5158
31861SOL    HW199945   7.314   4.650   4.893  2.3848  1.0244  1.0715
31861SOL    HW299946   7.233   4.627   5.019  2.6215  0.3774  1.1093
31862SOL     OW99947   5.710   8.532   8.707  0.4300  0.2073  0.4362
31862SOL    HW199948   5.757   8.462   8.662  1.5385  2.4690 -2.3287
31862SOL    HW299949   5.619   8.504   8.706  0.8632 -1.3093 -0.3395
31863SOL     OW99950   3.338   8.972   5.610 -0.5861  0.0661 -0.3238
31863SOL    HW199951   3.396   8.949   5.538 -0.9899  0.1349 -0.6718
31863SOL    HW299952   3.394   9.017   5.673 -0.6950  2.1702 -1.6477
31864SOL     OW99953   3.519   9.545   9.209 -0.1054 -0.5979 -0.0577
31864SOL    HW199954   3.587   9.549   9.276 -1.0093 -1.2706  0.9326
31864SOL    HW299955   3.498   9.452   9.201 -2.6259 -0.2689  1.5117
31865SOL     OW99956  10.169  10.722   4.229 -0.2590  0.4242 -0.1104
31865SOL    HW199957  10.186  10.657   4.161 -0.3922  0.5336 -0.2495
31865SOL    HW299958  10.197  10.680   4.310 -1.2716 -0.2052 -0.0578
31866SOL     OW99959   7.267   5.460   5.126 -0.4716 -0.3814 -0.3301
31866SOL    HW199960   7.316   5.378   5.124 -0.2899 -0.2715 -0.4163
31866SOL    HW299961   7.217   5.456   5.207  1.5836  0.5934  1.0895
31867SOL     OW99962   3.365   0.056   2.305 -0.0806  0.5595 -0.1077
31867SOL    HW199963   3.288   0.029   2.354  0.8881 -0.9113  0.6912
31867SOL    HW299964   3.374   0.150   2.323 -0.8235  0.4374  0.9840
31868SOL     OW99965   9.489   5.044   5.815  0.1923  0.4873  0.0161
31868SOL    HW199966   9.430   5.111   5.779 -0.8023  0.2460  1.1452
31868SOL    HW299967   9.481   5.054   5.910 -0.6659 -1.7969  0.2368
31869SOL     OW99968  10.489   2.476   2.283 -0.0959 -0.2854 -0.2276
31869SOL    HW199969  10.538   2.400   2.314 -0.4578 -0.4623 -0.0829
31869SOL    HW299970  10.555   2.545   2.274  0.1752 -0.5137 -0.0130
31870SOL     OW99971   2.163   4.687   5.052 -0.5151  0.2122 -0.0224
31870SOL    HW199972   2.246   4.684   5.099 -1.8743  0.7517  2.5826
31870SOL    HW299973   2.161   4.773   5.010 -0.3498  0.7794  1.1042
31871SOL     OW99974   7.051   2.313   8.455 -0.2808 -0.0305 -0.5593
31871SOL    HW199975   6.975   2.289   8.508  0.0779 -0.7787 -0.3779
31871SOL    HW299976   7.028   2.286   8.367  0.2653 -1.4464 -0.3005
31872SOL     OW99977   3.756   4.009   7.976  0.9734 -0.1172 -0.1697
31872SOL    HW199978   3.727   4.100   7.976 -3.1859 -1.2418 -0.2060
31872SOL    HW299979   3.774   3.989   8.068  1.0783  0.4993 -0.0568
31873SOL     OW99980  10.269   4.943   7.730  0.8678  0.0594  0.4934
31873SOL    HW199981  10.179   4.976   7.719  1.3607  1.4589  0.4902
31873SOL    HW299982  10.293   4.968   7.819  1.1912 -0.4750  0.5573
31874SOL     OW99983  10.328   6.314   1.548  0.0153  0.2616  0.9256
31874SOL    HW199984  10.293   6.298   1.461  2.4693  1.4175 -0.3887
31874SOL    HW299985  10.272   6.382   1.585 -0.2938  0.6837 -0.2838
31875SOL     OW99986   5.090   0.483   3.091 -0.4690  0.0607 -0.3562
31875SOL    HW199987   5.170   0.431   3.086 -0.8940 -0.5403 -0.9595
31875SOL    HW299988   5.059   0.469   3.181 -1.3658 -1.9318 -0.9313
31876SOL     OW99989   5.813   9.090   7.506  0.3414 -0.3713 -0.4751
31876SOL    HW199990   5.790   9.183   7.497 -0.2645  0.3992  5.4254
31876SOL    HW299991   5.909   9.090   7.515  0.2455 -0.1640  0.5737
31877SOL     OW99992   2.939   9.913   2.346  0.2649  0.0244  0.2821
31877SOL    HW199993   2.945   9.818   2.352 -0.7240 -0.0439  0.2288
31877SOL    HW299994   2.946   9.943   2.437 -0.3173 -0.1506  0.3838
31878SOL     OW99995   0.794   4.570   6.029  0.0104 -0.0959  0.2458
31878SOL    HW199996   0.794   4.602   5.938  0.0167  1.2991  0.7152
31878SOL    HW299997   0.817   4.647   6.081 -1.3137 -0.5446  1.5440
31879SOL     OW99998   0.017   2.270   1.761 -0.2241  0.1768 -0.8554
31879SOL    HW199999   0.086   2.276   1.695  0.5626 -0.3762 -0.0969
31879SOL    HW2    0  -0.032   2.191   1.736  1.9897 -1.9314  0.9448
31880SOL     OW    1   1.189   7.202   7.951  0.1486 -0.0919  0.7497
31880SOL    HW1    2   1.206   7.220   7.858 -1.3659 -0.7534  0.3210
31880SOL    HW2    3   1.219   7.112   7.964 -0.1312 -0.1809  0.7742
31881SOL     OW    4   3.703   0.723   0.319  0.1158  0.3229  0.5472
31881SOL    HW1    5   3.684   0.815   0.306 -2.0306  0.0090  1.0217
31881SOL    HW2    6   3.798   0.716   0.310  0.2652  2.4646 -0.0202
31882SOL     OW    7   8.223   8.807   6.333  0.0662 -0.5468  0.0321
31882SOL    HW1    8   8.169   8.734   6.363  2.2303 -1.5518  1.7879
31882SOL    HW2    9   8.311   8.769   6.324  0.7609  1.2759 -1.5572
31883SOL     OW   10   2.166   3.185  10.543  0.8048 -0.0464  0.1982
31883SOL    HW1   11   2.245   3.207  10.592  0.7905  1.1986 -0.3095
31883SOL    HW2   12   2.145   3.264  10.494 -2.2577  0.6146  2.2990
31884SOL     OW   13   8.294  10.632   0.272  0.0587  0.3465 -0.1149
31884SOL    HW1   14   8.334  10.704   0.225 -0.1714  1.7576  1.7300
31884SOL    HW2   15   8.338  10.631   0.357 -1.1943 -0.4915  0.5630
31885SOL     OW   16  10.016   4.052   3.700 -0.7577 -0.1840 -0.4154
31885SOL    HW1   17   9.970   4.094   3.628 -0.2667  0.2511 -0.4770
31885SOL    HW2   18  10.052   3.972   3.662  2.9573  1.9046 -1.8264
31886SOL     OW   19   0.533   2.384   2.358  0.2118 -0.2108  0.1541
31886SOL    HW1   20   0.501   2.451   2.298  0.0753  0.6126  1.1252
31886SOL    HW2   21   0.599   2.428   2.411  0.2678 -0.8974  0.6759
31887SOL     OW   22   7.458   8.815   1.560  0.3301 -0.4863  0.1051
31887SOL    HW1   23   7.440   8.777   1.474  0.1587 -1.6151  0.6220
31887SOL    HW2   24   7.554   8.819   1.565  0.3416 -0.4518 -0.1137
31888SOL     OW   25   9.968   6.747   2.350  0.4345 -0.0098 -0.0740
31888SOL    HW1   26   9.998   6.828   2.309 -1.0754  0.2652 -0.6814
31888SOL    HW2   27   9.916   6.703   2.283 -1.7031  0.2230  1.3255
31889SOL     OW   28   7.183   4.267   8.125 -0.1298 -0.0520 -0.3668
31889SOL    HW1   29   7.142   4.182   8.140  0.9390 -0.3442  1.0480
31889SOL    HW2   30   7.272   4.246   8.096  1.2506  0.4631  3.0047
31890SOL     OW   31   3.049   7.509  10.684 -0.2201 -0.2995 -0.3316
31890SOL    HW1   32   3.108   7.537  10.614 -0.6184  0.8725 -0.2269
31890SOL    HW2   33   3.072   7.418  10.700  1.3723  0.0442 -0.4946
31891SOL     OW   34   9.618   9.551   0.359  0.0585  0.7885 -0.2103
31891SOL    HW1   35   9.708   9.571   0.386  1.0817 -0.5886 -2.3613
31891SOL    HW2   36   9.589   9.629   0.313 -0.0953  1.4550  0.9677
31892SOL     OW   37   7.098   2.159   0.005  0.1917 -0.7002 -0.2640
31892SOL    HW1   38   7.148   2.219   0.061  3.0795 -1.3258 -1.9574
31892SOL    HW2   39   7.027   2.128   0.061 -0.6235  3.0934  1.1418
31893SOL     OW   40   0.605   9.050   1.259  0.0507  0.0587  0.8587
31893SOL    HW1   41   0.549   9.121   1.292  1.3981  1.4654  0.2619
31893SOL    HW2   42   0.669   9.036   1.328  0.3459  0.0791  0.5931
31894SOL     OW   43   7.577   7.097   4.565  0.4463  0.2436  0.2771
31894SOL    HW1   44   7.584   7.176   4.510  1.2105  0.6003  0.8734
31894SOL    HW2   45   7.489   7.063   4.546  0.2943  0.9562 -0.3623
31895SOL     OW   46   0.505   2.878   1.135 -0.4653 -0.5808  0.2339
31895SOL    HW1   47   0.430   2.864   1.077  0.0923  1.3318 -1.0371
31895SOL    HW2   48   0.472   2.941   1.200 -0.1516 -0.1805  0.0111
31896SOL     OW   49   5.901   4.722   5.494  0.4256 -0.2653 -0.1326
31896SOL    HW1   50   5.879   4.813   5.514  1.8386  0.4699 -1.6858
31896SOL    HW2   51   5.927   4.685   5.579 -1.5388  0.3103  0.7823
31897SOL     OW   52  10.379   8.697   4.245 -0.3665 -0.8752 -0.0826
31897SOL    HW1   53  10.365   8.634   4.316  0.0112 -0.2703  0.5417
31897SOL    HW2   54  10.305   8.757   4.251 -0.5131 -1.0218 -0.4188
31898SOL     OW   55   2.833   7.870   6.774 -0.2657  0.1915  0.3993
31898SOL    HW1   56   2.774   7.909   6.710  0.8918 -0.0217 -0.8413
31898SOL    HW2   57   2.776   7.833   6.841 -1.4627  1.7689  0.3051
31899SOL     OW   58   5.557   3.660   9.786  0.4700 -0.4328  0.2664
31899SOL    HW1   59   5.462   3.647   9.778  0.6325 -0.9693 -1.0675
31899SOL    HW2   60   5.593   3.571   9.785  0.7813 -0.6702  5.3931
31900SOL     OW   61   0.751  10.765   0.707 -0.3637  0.1081 -0.4011
31900SOL    HW1   62   0.787  10.753   0.795  1.7953  0.0360 -1.2362
31900SOL    HW2   63   0.660  10.736   0.714  0.1246 -1.1254  1.5099
31901SOL     OW   64   4.252   5.623   8.433 -0.4981 -0.2707  0.5694
31901SOL    HW1   65   4.292   5.658   8.513  0.6295 -0.4577  0.1185
31901SOL    HW2   66   4.298   5.670   8.362 -1.4610 -0.1223  0.0326
31902SOL     OW   67   5.160   4.204   6.444  0.3703  0.0824  0.2033
31902SOL    HW1   68   5.218   4.169   6.512 -2.1448 -1.3914  1.7161
31902SOL    HW2   69   5.136   4.127   6.392 -1.3905  0.3700  0.5427
31903SOL     OW   70   0.643  10.860   5.782  0.3562 -0.3656  0.3498
31903SOL    HW1   71   0.711  10.871   5.848  1.4730  1.1612 -0.9499
31903SOL    HW2   72   0.565  10.899   5.820  0.7823 -0.1766  1.0445
31904SOL     OW   73  11.104   5.804   2.423 -0.5084 -0.1507  0.4169
31904SOL    HW1   74  11.124   5.894   2.400 -1.8192 -0.4548 -2.3471
31904SOL    HW2   75  11.160   5.751   2.365  0.4857 -1.1778  2.2115
31905SOL     OW   76   5.258   4.043   8.022 -0.3533 -0.1591 -0.3018
31905SOL    HW1   77   5.325   3.979   8.045 -1.1374 -1.0706 -0.5208
31905SOL    HW2   78   5.224   4.073   8.107  1.3651  1.4647 -0.1300
31906SOL     OW   79   4.932   9.985   3.849 -0.2161  0.1144  0.0914
31906SOL    HW1   80   4.955   9.917   3.911  0.1685 -0.0100 -0.1839
31906SOL    HW2   81   4.848   9.957   3.812 -0.8862  0.6280  1.1803
31907SOL     OW   82  11.053   9.567   3.679 -0.0355  0.3190  0.2670
31907SOL    HW1   83  11.063   9.601   3.590 -1.2053 -0.1766 -0.0712
31907SOL    HW2   84  11.043   9.472   3.668 -0.7890  0.3162  0.8661
31908SOL     OW   85   2.442   9.747   8.640  0.1069 -0.0321 -0.1769
31908SOL    HW1   86   2.515   9.684   8.636  0.0785 -0.0661 -0.1510
31908SOL    HW2   87   2.408   9.738   8.728  0.9285  0.9435  0.2614
31909SOL     OW   88   8.576   6.129   2.697 -0.2392  0.0567 -0.2755
31909SOL    HW1   89   8.495   6.077   2.694 -1.9210  2.4865  0.1898
31909SOL    HW2   90   8.618   6.102   2.778 -2.0229  0.6685  0.9180
31910SOL     OW   91   9.656   6.477   4.943 -0.7099  0.4767 -0.4783
31910SOL    HW1   92   9.601   6.401   4.961 -1.3246  1.0012 -0.0584
31910SOL    HW2   93   9.708   6.489   5.023  0.3290 -0.2607 -1.0269
31911SOL     OW   94   5.689   3.220   5.601  0.2926  0.3059 -0.4950
31911SOL    HW1   95   5.632   3.280   5.649 -0.5345  0.4774 -1.6332
31911SOL    HW2   96   5.681   3.137   5.648  1.5424  1.0708  1.1687
31912SOL     OW   97   6.787   7.522   4.317 -0.1922  0.0997 -0.2977
31912SOL    HW1   98   6.740   7.563   4.389  2.2745  1.3549  0.7174
31912SOL    HW2   99   6.872   7.566   4.315  0.6663 -1.4409 -2.5564
31913SOL     OW  100   6.515   1.191   0.875 -0.2668 -1.0789  0.0853
31913SOL    HW1  101   6.550   1.133   0.942 -0.1866 -1.7449 -0.5173
31913SOL    HW2  102   6.424   1.207   0.902 -0.7554 -2.6708 -0.4819
31914SOL     OW  103   5.047   4.351   0.494  0.5265  0.0756 -0.1377
31914SOL    HW1  104   5.028   4.438   0.458 -2.0039 -0.7748 -1.1174
31914SOL    HW2  105   5.007   4.353   0.581  1.7639  0.3332  0.4413
31915SOL     OW  106   3.780   3.834   3.703 -0.5192  0.7005  0.2527
31915SOL    HW1  107   3.738   3.907   3.658 -1.7306  0.1951  0.5008
31915SOL    HW2  108   3.759   3.757   3.649  0.8114  0.5360 -0.0547
31916SOL     OW  109   4.406   8.415   7.176 -0.2455 -0.0876 -0.4959
31916SOL    HW1  110   4.398   8.331   7.131  0.6591 -0.6308  0.3214
31916SOL    HW2  111   4.356   8.405   7.257  0.3064 -0.0327 -0.1436
31917SOL     OW  112   5.650   8.924   6.611 -0.5419 -0.3561 -0.7977
31917SOL    HW1  113   5.596   9.001   6.631  0.6622  0.4037 -0.3739
31917SOL    HW2  114   5.642   8.913   6.516 -1.9255 -0.6569 -0.6821
31918SOL     OW  115   8.030   4.971  10.242 -0.3986 -0.0606  0.2394
31918SOL    HW1  116   8.064   4.882  10.232  0.7840  0.4559 -0.6034
31918SOL    HW2  117   8.101   5.019  10.285  0.7007  1.4027 -2.8510
31919SOL     OW  118   9.999   3.032   2.768  0.1957  0.2461 -0.3748
31919SOL    HW1  119   9.909   3.061   2.754  0.6466  2.3135  0.6712
31919SOL    HW2  120  10.052   3.111   2.756  1.9152 -0.9554 -1.1205
31920SOL     OW  121   9.025   7.884   3.661  0.0321  0.1449 -0.1240
31920SOL    HW1  122   9.006   7.977   3.643 -2.7234 -0.5617 -1.5999
31920SOL    HW2  123   9.080   7.857   3.588  0.7583  0.5789  0.2543
31921SOL     OW  124   6.815   1.760   3.840  0.5142  0.6853  0.2578
31921SOL    HW1  125   6.896   1.806   3.818  0.4560 -0.0583 -1.7923
31921SOL    HW2  126   6.844   1.685   3.892  0.8927  1.5013  1.2602
31922SOL     OW  127   9.563  10.479  11.019  0.3205 -0.1161  0.1401
31922SOL    HW1  128   9.618  10.479  10.941  2.1163 -0.0764  1.3591
31922SOL    HW2  129   9.552  10.387  11.041  1.6127 -0.0875  1.0179
31923SOL     OW  130   7.303   4.127   6.320  0.0393 -0.0634  0.8534
31923SOL    HW1  131   7.267   4.181   6.249  0.6012 -0.5197  0.2091
31923SOL    HW2  132   7.227   4.104   6.373 -0.6238 -0.8250 -0.3565
31924SOL     OW  133   1.273   5.309   4.847 -0.1803  0.0883  0.5667
31924SOL    HW1  134   1.346   5.262   4.886 -0.9378 -2.0776 -0.4653
31924SOL    HW2  135   1.306   5.341   4.763  0.1094  0.7471  0.9262
31925SOL     OW  136   3.625   7.615   3.697  0.3688 -0.4184 -0.3961
31925SOL    HW1  137   3.604   7.664   3.618  1.5797  0.9927  0.1070
31925SOL    HW2  138   3.540   7.600   3.740 -0.0375  1.3195 -0.5338
31926SOL     OW  139   1.589   3.734   2.871  0.2497 -0.0053 -0.2260
31926SOL    HW1  140   1.655   3.723   2.939 -1.5485 -0.8215  1.4676
31926SOL    HW2  141   1.590   3.651   2.824  0.6264  0.1024 -0.4162
31927SOL     OW  142   1.685   7.091   7.285 -0.8612  0.5897 -0.1053
31927SOL    HW1  143   1.601   7.063   7.247  0.1118 -0.7477 -1.4041
31927SOL    HW2  144   1.677   7.072   7.378 -2.1863  0.9766 -0.1221
31928SOL     OW  145   8.392   9.813   7.818 -0.0004  0.6948  0.1932
31928SOL    HW1  146   8.403   9.850   7.906  3.2246 -1.5887  0.9794
31928SOL    HW2  147   8.367   9.722   7.834  1.3406  0.0478 -1.1660
31929SOL     OW  148   6.323  10.129  10.361  0.5585  0.2821 -0.5377
31929SOL    HW1  149   6.318  10.035  10.373 -0.8915  0.4706  0.5617
31929SOL    HW2  150   6.240  10.163  10.394  1.2343  1.9962 -0.4482
31930SOL     OW  151   4.870  10.786   8.269  0.0913 -0.1248 -0.4454
31930SOL    HW1  152   4.926  10.826   8.335  0.1399 -0.3651 -0.3413
31930SOL    HW2  153   4.897  10.827   8.187  1.1863 -1.0192 -0.5612
31931SOL     OW  154   1.088   9.279   1.902  0.0331 -0.0528  0.5586
31931SOL    HW1  155   1.033   9.318   1.969  1.0298  0.4604  1.1067
31931SOL    HW2  156   1.168   9.253   1.949  0.6954  0.1940 -0.4026
31932SOL     OW  157   9.229   5.676   5.847 -0.2222 -0.2091  0.5845
31932SOL    HW1  158   9.138   5.671   5.877 -0.3575  0.7555  0.3657
31932SOL    HW2  159   9.280   5.682   5.928 -0.5113  1.2992  0.6913
31933SOL     OW  160   6.634   5.172   2.538 -0.4062  0.1417  0.0820
31933SOL    HW1  161   6.667   5.233   2.473 -0.0716 -0.2754 -0.1408
31933SOL    HW2  162   6.698   5.101   2.540 -1.6479 -1.0495 -0.8946
31934SOL     OW  163   4.256   8.123   9.583 -0.2623 -0.3206 -0.8189
31934SOL    HW1  164   4.266   8.218   9.583  1.7379 -0.4706  0.7564
31934SOL    HW2  165   4.277   8.097   9.493 -1.1866  0.7302 -1.3595
31935SOL     OW  166   3.934   1.199   2.935  0.0193 -0.4008 -0.1282
31935SOL    HW1  167   3.949   1.244   3.018 -0.9391 -1.0151  0.3986
31935SOL    HW2  168   3.925   1.107   2.960 -0.0794 -0.6130 -0.9456
31936SOL     OW  169   6.579  10.070   2.144 -0.1921  0.0042 -0.0632
31936SOL    HW1  170   6.485  10.081   2.129  0.0795  1.0397 -1.1756
31936SOL    HW2  171   6.609  10.017   2.070  0.2600  0.5727 -0.2991
31937SOL     OW  172   0.920   9.092   2.756  0.6855 -0.1467 -0.2993
31937SOL    HW1  173   0.978   9.164   2.782  0.8125 -0.2219 -0.3737
31937SOL    HW2  174   0.979   9.025   2.722  0.7379 -0.9480  1.2641
31938SOL     OW  175   8.108   6.555   2.991  0.1333  0.0940  0.0090
31938SOL    HW1  176   8.089   6.505   3.070 -0.7877  1.4108  0.6681
31938SOL    HW2  177   8.189   6.601   3.010  0.4660 -0.3833 -0.2282
31939SOL     OW  178   0.648   6.036   8.285  0.1744  0.1743  0.0062
31939SOL    HW1  179   0.643   6.091   8.206 -1.3498  0.8625  0.5395
31939SOL    HW2  180   0.688   6.093   8.351  1.8207 -0.5309 -0.3288
31940SOL     OW  181   3.422   0.324   3.979  0.0803 -0.3883  0.7436
31940SOL    HW1  182   3.357   0.365   3.922 -1.3072 -2.4413  0.7553
31940SOL    HW2  183   3.484   0.283   3.919  0.5184  0.2671  0.7374
31941SOL     OW  184   8.060   6.939   2.268  0.3283  0.6131 -0.0864
31941SOL    HW1  185   8.132   6.876   2.274  0.6554  0.8724 -1.0469
31941SOL    HW2  186   8.037   6.940   2.175 -1.6315 -0.2409  0.3241
31942SOL     OW  187   0.952   9.494   3.324 -0.1868 -0.1553  0.1479
31942SOL    HW1  188   0.975   9.484   3.416  2.5686 -0.3679 -0.4815
31942SOL    HW2  189   1.007   9.566   3.293 -1.1979  0.0368 -1.3096
31943SOL     OW  190   7.628  10.968   6.951 -0.1211 -0.2243  0.0877
31943SOL    HW1  191   7.607  10.875   6.936  2.3729 -0.6406 -1.3188
31943SOL    HW2  192   7.627  11.006   6.863 -0.4328  0.9417  0.5883
31944SOL     OW  193   7.665   0.226   5.269  0.5827  0.7325 -0.7790
31944SOL    HW1  194   7.729   0.191   5.331 -0.3014 -0.5814 -0.5565
31944SOL    HW2  195   7.610   0.151   5.246  0.0322  1.5009 -2.0993
31945SOL     OW  196   9.422   1.501  10.118  0.3130 -0.0818 -0.6033
31945SOL    HW1  197   9.460   1.582  10.087 -0.1528  0.4417  0.1611
31945SOL    HW2  198   9.482   1.470  10.186 -0.5658  0.7512  0.6123
31946SOL     OW  199   7.610   5.921   5.188 -0.1921  0.0355 -0.2015
31946SOL    HW1  200   7.573   5.890   5.106 -1.1452  0.4084  0.0636
31946SOL    HW2  201   7.598   5.848   5.249 -1.6479  0.5579  0.1973
31947SOL     OW  202   1.373   2.629   2.663 -0.0356  0.2260 -0.1076
31947SOL    HW1  203   1.326   2.635   2.746 -0.0932  0.7023 -0.1740
31947SOL    HW2  204   1.335   2.552   2.620 -0.1306  0.0823  0.2264
31948SOL     OW  205  10.121   7.610   2.683 -0.3309  0.4432 -0.0720
31948SOL    HW1  206  10.159   7.523   2.695  0.0362  0.4513 -1.1396
31948SOL    HW2  207  10.043   7.609   2.739 -0.1843 -0.4774  0.1364
31949SOL     OW  208   8.711   3.645   9.032  0.6148 -0.1472 -0.4224
31949SOL    HW1  209   8.732   3.685   8.948 -1.3093 -0.4692 -1.1102
31949SOL    HW2  210   8.704   3.719   9.092 -0.9658  0.4446 -1.2567
31950SOL     OW  211   5.544   3.947   2.593  0.4828 -0.2162 -0.5166
31950SOL    HW1  212   5.467   3.914   2.547  0.3844  0.9381 -1.2405
31950SOL    HW2  213   5.606   3.875   2.590 -1.2847 -1.9986  2.0373
31951SOL     OW  214   6.807   1.373  10.878 -0.2633 -0.1846 -0.7572
31951SOL    HW1  215   6.825   1.345  10.967  0.6553 -0.8894 -1.1458
31951SOL    HW2  216   6.820   1.468  10.879 -0.3180 -0.1826 -0.1361
31952SOL     OW  217   9.748   9.376   8.845  0.0057 -0.0768  0.1611
31952SOL    HW1  218   9.805   9.410   8.776 -2.0740  0.1429 -1.5457
31952SOL    HW2  219   9.771   9.427   8.923  1.5444  0.5475 -0.6727
31953SOL     OW  220   1.116   9.497   4.589 -0.2631  0.0146  0.1790
31953SOL    HW1  221   1.204   9.463   4.605 -0.5997 -0.9949 -0.0583
31953SOL    HW2  222   1.085   9.526   4.675 -0.4248 -1.4122  0.6177
31954SOL     OW  223  10.887   1.670   7.889 -0.5529 -0.9891  0.2056
31954SOL    HW1  224  10.937   1.706   7.815  1.3930  0.2097  1.9768
31954SOL    HW2  225  10.894   1.576   7.878 -1.8332 -0.9049 -2.0519
31955SOL     OW  226   9.112  11.011   2.798  0.1524 -0.4245  0.1569
31955SOL    HW1  227   9.126  11.103   2.779 -0.3504 -0.4590 -0.4262
31955SOL    HW2  228   9.124  10.967   2.714 -0.7941 -0.7459  0.1763
31956SOL     OW  229  10.641   0.757   9.876  0.0179  0.2726 -0.4720
31956SOL    HW1  230  10.610   0.839   9.837  0.6883  0.3806 -0.7819
31956SOL    HW2  231  10.642   0.695   9.803 -2.5681 -0.6487  0.1449
31957SOL     OW  232   6.793  10.135   1.630 -0.5634  0.9636  0.0522
31957SOL    HW1  233   6.834  10.173   1.552 -1.3346 -0.4531 -1.0689
31957SOL    HW2  234   6.849  10.165   1.703 -1.5514  4.9190 -0.5765
31958SOL     OW  235  10.898  10.047  10.715  0.6239 -0.2279  0.7589
31958SOL    HW1  236  10.809  10.030  10.746  0.1200 -1.5076 -1.1440
31958SOL    HW2  237  10.954   9.991  10.769  0.1287 -0.3376  1.1636
31959SOL     OW  238   4.174   0.591   6.469 -0.2718 -0.0999 -0.4074
31959SOL    HW1  239   4.128   0.672   6.491 -2.3751 -1.2223 -0.3771
31959SOL    HW2  240   4.172   0.588   6.373  0.1086  0.0500 -0.4199
31960SOL     OW  241   7.623   8.158   2.302  0.4294 -0.0607 -0.3121
31960SOL    HW1  242   7.573   8.220   2.249 -0.0010  0.0028  0.1544
31960SOL    HW2  243   7.560   8.090   2.325  0.1845  0.6728  1.3605
31961SOL     OW  244   3.431   9.678   4.507 -0.0802  0.0750  0.1130
31961SOL    HW1  245   3.499   9.659   4.572  0.7294  0.2260 -0.6645
31961SOL    HW2  246   3.421   9.597   4.457  0.1421  0.2994 -0.3090
31962SOL     OW  247   0.186   2.080   9.382  0.2062 -0.1239  0.0613
31962SOL    HW1  248   0.165   2.172   9.400  0.2288 -0.1452  0.2027
31962SOL    HW2  249   0.261   2.083   9.323  0.9874 -0.0475  1.0220
31963SOL     OW  250   1.915  10.354   0.594  0.5018 -0.4304  0.3048
31963SOL    HW1  251   1.939  10.420   0.529  0.3771 -0.7480 -0.0626
31963SOL    HW2  252   1.920  10.271   0.548  0.1290 -0.6331  0.6175
31964SOL     OW  253   3.969   7.605   1.697 -0.2640 -0.3071 -0.0791
31964SOL    HW1  254   3.973   7.571   1.786 -2.6700  1.6711  0.9181
31964SOL    HW2  255   4.056   7.642   1.681  0.0981 -0.3342  1.6354
31965SOL     OW  256   9.256   3.540   1.866  0.1929 -0.8067  0.5470
31965SOL    HW1  257   9.268   3.520   1.774 -0.2238 -0.5203  0.4258
31965SOL    HW2  258   9.220   3.629   1.867  0.7882 -0.5643  1.0156
31966SOL     OW  259   2.405   9.909   6.971  0.1352 -0.4229 -0.0896
31966SOL    HW1  260   2.409   9.834   6.912 -2.0267  0.0169 -0.8854
31966SOL    HW2  261   2.443   9.981   6.921 -1.0710 -0.2083 -0.7389
31967SOL     OW  262   6.690  10.384   0.422 -0.3928 -0.2380  0.0487
31967SOL    HW1  263   6.768  10.424   0.460  0.0154 -0.7690 -0.2154
31967SOL    HW2  264   6.677  10.304   0.474 -1.2361  0.2485  0.6115
31968SOL     OW  265   8.351   4.594   3.209 -0.2046 -0.4666  0.3614
31968SOL    HW1  266   8.407   4.526   3.245 -1.2594 -1.1154  0.8311
31968SOL    HW2  267   8.408   4.670   3.201  1.4048 -1.7725 -1.5651
31969SOL     OW  268   8.153  10.303   9.440 -0.3854  0.2928  0.5244
31969SOL    HW1  269   8.173  10.239   9.372 -0.6513  0.7332  0.0165
31969SOL    HW2  270   8.213  10.282   9.512  1.0938  0.8556 -0.4912
31970SOL     OW  271   4.157   4.987   3.091  0.0085  0.0852  0.6693
31970SOL    HW1  272   4.200   5.053   3.145  0.6267  0.9915 -0.8479
31970SOL    HW2  273   4.176   5.015   3.001  0.1580 -2.0864 -0.0200
31971SOL     OW  274   6.225   2.181   7.507 -0.1593  0.4394 -0.2169
31971SOL    HW1  275   6.286   2.184   7.434 -0.7334  1.5201 -0.6842
31971SOL    HW2  276   6.243   2.098   7.551  1.1565  0.4279 -0.7459
31972SOL     OW  277   4.358   8.247   4.562 -0.5621 -0.1306  0.6557
31972SOL    HW1  278   4.437   8.299   4.545 -0.4898 -0.6543 -0.7471
31972SOL    HW2  279   4.390   8.158   4.574 -0.7223  0.0389  2.6810
31973SOL     OW  280   7.180   7.590   7.058 -0.1594  0.5893  0.2312
31973SOL    HW1  281   7.257   7.533   7.051  0.5423  1.5457 -0.0753
31973SOL    HW2  282   7.198   7.663   6.998 -0.3881  1.8510  1.6225
31974SOL     OW  283   8.586   3.247   5.940  0.5098 -0.7536 -0.1222
31974SOL    HW1  284   8.636   3.171   5.969  1.2545 -0.3121 -0.2300
31974SOL    HW2  285   8.643   3.322   5.957 -0.4836 -0.1392  0.6187
31975SOL     OW  286   5.820   1.499   5.395  0.0923 -0.3642 -0.1135
31975SOL    HW1  287   5.742   1.443   5.399  1.4958 -2.5134 -1.1553
31975SOL    HW2  288   5.834   1.513   5.301  1.5833 -0.9843 -0.0102
31976SOL     OW  289   2.394   4.751   6.077 -0.0674 -0.0104  0.2160
31976SOL    HW1  290   2.467   4.751   6.016 -0.9110 -0.8587 -0.8448
31976SOL    HW2  291   2.338   4.679   6.047 -1.0039  0.1936  1.3943
31977SOL     OW  292   8.299  10.858   7.844  0.5631  0.0627  0.4409
31977SOL    HW1  293   8.342  10.887   7.924  0.5070 -0.8666  0.8205
31977SOL    HW2  294   8.233  10.796   7.873  0.3096 -0.0257 -0.3011
31978SOL     OW  295   8.305   0.879   8.754  0.2875 -0.3565  0.0289
31978SOL    HW1  296   8.239   0.945   8.773  0.8159  0.3261 -0.4307
31978SOL    HW2  297   8.341   0.906   8.669  0.6398 -1.1323 -0.0747
31979SOL     OW  298   4.589   3.544   4.882 -0.4656  0.3895  0.2957
31979SOL    HW1  299   4.617   3.461   4.922 -0.7584  0.7661  1.3073
31979SOL    HW2  300   4.502   3.525   4.846 -0.8229  0.4354  1.1254
31980SOL     OW  301   0.083  10.544   3.584 -0.5277 -0.5714  0.2265
31980SOL    HW1  302   0.141  10.500   3.646 -0.6173  1.7036  2.0783
31980SOL    HW2  303   0.049  10.619   3.633 -2.3782  0.0853 -1.9036
31981SOL     OW  304   7.141   5.099   7.469  0.0023  0.5880 -0.7420
31981SOL    HW1  305   7.092   5.032   7.421  0.9839 -0.1822 -0.6997
31981SOL    HW2  306   7.106   5.182   7.437 -1.1109  0.0714 -0.9324
31982SOL     OW  307   7.047   6.315   5.890 -0.5995 -0.0793  0.4775
31982SOL    HW1  308   7.120   6.371   5.862 -1.2711  0.4907 -0.1801
31982SOL    HW2  309   7.018   6.273   5.809 -0.5587 -0.8507  0.8540
31983SOL     OW  310   5.741   7.083   0.141 -0.4294  0.2936 -0.2895
31983SOL    HW1  311   5.725   6.995   0.108  1.6105 -0.8579  1.5340
31983SOL    HW2  312   5.681   7.091   0.216  0.0385  0.0626  0.1172
31984SOL     OW  313   6.955   2.594  10.684  0.0526  0.3744 -0.0475
31984SOL    HW1  314   6.933   2.686  10.673  0.8855  0.6551  0.4915
31984SOL    HW2  315   6.877   2.546  10.655 -0.4510  1.2470 -0.1578
31985SOL     OW  316   5.506   4.034   7.052 -0.0224  0.1482  0.2522
31985SOL    HW1  317   5.484   3.944   7.030  1.4508  0.1008 -1.1420
31985SOL    HW2  318   5.596   4.030   7.086  0.4380  1.2052 -0.7853
31986SOL     OW  319   2.463   7.920  10.443 -0.4027 -0.3775 -0.3155
31986SOL    HW1  320   2.477   8.004  10.486  0.4643  0.4510 -2.1333
31986SOL    HW2  321   2.451   7.858  10.516  0.5121  1.0228  1.0965
31987SOL     OW  322   2.590   5.204   1.802 -0.3939  0.0579 -0.2945
31987SOL    HW1  323   2.660   5.177   1.861 -0.0526 -1.1301 -1.2006
31987SOL    HW2  324   2.598   5.299   1.797  1.0451 -0.0454 -0.2452
31988SOL     OW  325   6.876   9.329  10.146  0.3617 -0.0016 -0.2650
31988SOL    HW1  326   6.792   9.295  10.116 -0.5973  0.3792  1.7993
31988SOL    HW2  327   6.880   9.304  10.239  2.1429  0.7391 -0.0955
31989SOL     OW  328   4.276   3.328   5.490  0.1359 -0.1804  0.6135
31989SOL    HW1  329   4.301   3.253   5.438  0.7279  0.4063  0.0364
31989SOL    HW2  330   4.209   3.295   5.549  1.2422 -1.4395  1.2054
31990SOL     OW  331   3.007   2.328   7.012 -0.0133 -0.3829 -0.7312
31990SOL    HW1  332   2.968   2.274   7.081  0.2794 -0.0687 -0.3169
31990SOL    HW2  333   2.938   2.391   6.989 -0.1720 -0.5988 -0.8514
31991SOL     OW  334   5.019   3.573   4.359  0.2403  0.1697  0.4261
31991SOL    HW1  335   5.112   3.582   4.338  0.2095 -0.7528 -0.1691
31991SOL    HW2  336   4.987   3.508   4.296 -0.7788  0.3833  0.7127
31992SOL     OW  337   9.025   6.933   9.045 -0.5386 -0.1192  0.2501
31992SOL    HW1  338   9.027   6.838   9.050  1.6718 -0.0729  2.1965
31992SOL    HW2  339   9.113   6.961   9.068 -0.6462  2.4095 -1.8440
31993SOL     OW  340   9.784   3.687   6.932  0.6195 -0.1615 -0.0862
31993SOL    HW1  341   9.858   3.659   6.986  0.4700 -0.6167 -0.1133
31993SOL    HW2  342   9.765   3.776   6.961  1.0354 -0.1246  0.0770
31994SOL     OW  343   0.919   9.699   7.761 -0.1093 -0.4387 -0.0931
31994SOL    HW1  344   1.012   9.684   7.745 -0.3453 -1.4867 -0.5194
31994SOL    HW2  345   0.888   9.748   7.685  0.1032  0.0201  0.1066
31995SOL     OW  346   8.240   8.851   3.476 -0.5966  0.0083 -0.1307
31995SOL    HW1  347   8.285   8.776   3.437  1.4487  0.2765  1.5262
31995SOL    HW2  348   8.154   8.817   3.500  0.0916 -1.6789  0.0902
31996SOL     OW  349   6.403   2.187   9.456  0.0463  0.0488 -0.9848
31996SOL    HW1  350   6.320   2.226   9.431 -1.1894 -1.7748  0.0179
31996SOL    HW2  351   6.468   2.254   9.436 -1.6513  1.5669 -1.7223
31997SOL     OW  352   6.473   3.811  10.845  0.1597 -0.2545  0.8100
31997SOL    HW1  353   6.554   3.854  10.820 -0.0540 -0.6483 -0.6536
31997SOL    HW2  354   6.422   3.805  10.764 -0.6411 -1.4760  1.3560
31998SOL     OW  355   2.392   3.972   6.830 -0.0925 -0.2582  0.0768
31998SOL    HW1  356   2.421   3.950   6.918 -0.9201 -1.2107  0.1243
31998SOL    HW2  357   2.391   4.068   6.828  0.2886 -0.2282  0.9740
31999SOL     OW  358   0.551   8.541   8.832  0.0887 -0.2181  0.0461
31999SOL    HW1  359   0.581   8.625   8.867  0.4440 -0.8351  1.2612
31999SOL    HW2  360   0.458   8.537   8.855  0.5581 -1.1109  2.0137
32000SOL     OW  361   2.093   3.115   6.782 -0.3390 -0.1089  0.5692
32000SOL    HW1  362   2.002   3.089   6.794 -0.4408  0.4301  1.0808
32000SOL    HW2  363   2.088   3.204   6.747 -0.0208  0.1249  1.0937
32001SOL     OW  364   8.958   9.068   1.212  0.2173 -0.4796 -0.1203
32001SOL    HW1  365   8.968   9.013   1.290  0.0306 -1.9751 -1.0974
32001SOL    HW2  366   9.045   9.106   1.198 -0.3548  2.0185  2.3022
32002SOL     OW  367   5.083   3.350   4.162 -0.2711 -0.5456  0.3188
32002SOL    HW1  368   5.172   3.318   4.143 -0.0603 -0.6347  1.3881
32002SOL    HW2  369   5.038   3.273   4.199 -0.2957 -0.0881  1.2707
32003SOL     OW  370   7.858   9.741   0.355 -0.1782  0.0634  0.2743
32003SOL    HW1  371   7.881   9.681   0.285 -1.0732  0.3192 -0.2641
32003SOL    HW2  372   7.859   9.828   0.314 -0.5526  0.2324  0.6130
32004SOL     OW  373   9.946   2.943   5.482 -0.3729  0.1864 -0.2135
32004SOL    HW1  374   9.984   2.879   5.421 -0.4034 -0.2689  0.2365
32004SOL    HW2  375   9.874   2.983   5.433 -0.3416 -0.1087 -0.5079
32005SOL     OW  376   8.723   4.438   6.298  0.1478 -0.0641 -0.3406
32005SOL    HW1  377   8.803   4.393   6.327 -0.8155 -0.4602  1.9528
32005SOL    HW2  378   8.753   4.500   6.232  2.1832 -0.9571 -0.3284
32006SOL     OW  379   7.948   5.469   2.420 -0.1145  0.6923 -0.3014
32006SOL    HW1  380   7.862   5.456   2.380  0.1410  0.1762 -0.6885
32006SOL    HW2  381   8.005   5.493   2.347  0.4260 -0.5722 -0.3131
32007SOL     OW  382   2.793   3.858   1.276 -0.6706 -0.7873 -0.1152
32007SOL    HW1  383   2.730   3.814   1.220 -0.3416 -0.4245 -0.7853
32007SOL    HW2  384   2.873   3.862   1.224 -0.3625 -0.4307  0.3753
32008SOL     OW  385  10.344   3.440   2.920 -0.1666  0.4809  0.1580
32008SOL    HW1  386  10.335   3.485   2.836 -0.1788  0.5836  0.2140
32008SOL    HW2  387  10.256   3.445   2.959 -0.1642  0.4230  0.1716
32009SOL     OW  388   0.704   5.404   7.060  0.7887 -0.1889  0.5029
32009SOL    HW1  389   0.796   5.421   7.043  1.0813 -0.3767  1.8270
32009SOL    HW2  390   0.686   5.321   7.016  1.3014 -0.2580  0.4245
32010SOL     OW  391   8.961   4.572  10.859  0.1390 -0.4340 -0.4898
32010SOL    HW1  392   8.928   4.482  10.849  0.4857 -0.7622  1.1327
32010SOL    HW2  393   8.894   4.616  10.912  0.7133 -0.1856  0.0437
32011SOL     OW  394   5.600   4.048   5.593 -0.3170  0.7994 -0.3731
32011SOL    HW1  395   5.666   4.012   5.534 -0.5828 -0.0765 -0.1549
32011SOL    HW2  396   5.517   4.035   5.546 -0.4862  0.4757  0.0073
32012SOL     OW  397   3.636   3.679  10.380 -0.3359  0.7027  0.5435
32012SOL    HW1  398   3.677   3.761  10.405  1.0956 -0.4132  2.1602
32012SOL    HW2  399   3.689   3.645  10.308 -0.5648  0.9042  0.2785
32013SOL     OW  400   2.138   3.477   9.832  0.2208  0.0665  0.4022
32013SOL    HW1  401   2.089   3.475   9.750  0.3017 -2.7544  0.3235
32013SOL    HW2  402   2.229   3.465   9.806  0.6583  2.2230  0.7645
32014SOL     OW  403   2.958   9.824   9.706 -0.4949 -0.5195 -0.3044
32014SOL    HW1  404   2.864   9.827   9.690 -0.7724 -2.9181  0.4574
32014SOL    HW2  405   2.966   9.821   9.802  0.4464  0.9902 -0.3134
32015SOL     OW  406   6.553   1.841   1.347 -0.2485 -0.1645  0.4601
32015SOL    HW1  407   6.543   1.887   1.264 -2.0159 -0.4365  0.4964
32015SOL    HW2  408   6.617   1.772   1.328  1.5170  1.4715  0.1021
32016SOL     OW  409   8.046   4.890   6.425  0.1842  0.6266 -0.3146
32016SOL    HW1  410   7.995   4.967   6.402 -0.4310  0.2105 -0.3575
32016SOL    HW2  411   8.054   4.893   6.520 -1.3777 -0.1894 -0.1211
32017SOL     OW  412   7.507   4.170   8.706  0.2594 -0.3419 -0.2581
32017SOL    HW1  413   7.601   4.172   8.720  0.1711 -2.9180  1.2931
32017SOL    HW2  414   7.497   4.182   8.611  2.0757  0.4571 -0.3932
32018SOL     OW  415  10.374   0.683  11.026  0.3732 -0.1745  0.1976
32018SOL    HW1  416  10.376   0.650  10.936 -1.7869 -1.1373  0.4446
32018SOL    HW2  417  10.349   0.775  11.018 -2.6683 -0.9322 -0.1485
32019SOL     OW  418   2.663   6.619  10.708 -0.3624  0.3308 -0.1206
32019SOL    HW1  419   2.734   6.594  10.766 -0.6333 -1.3042 -0.4484
32019SOL    HW2  420   2.611   6.682  10.759  1.2569  1.5041  0.1320
32020SOL     OW  421   4.381   2.737   9.023 -0.0008  0.0077 -0.2303
32020SOL    HW1  422   4.438   2.788   8.965  0.2394  1.0727  0.9057
32020SOL    HW2  423   4.369   2.792   9.100  0.0417 -1.5437  0.9430
32021SOL     OW  424   6.337   6.536   5.314 -0.2282 -0.3238  0.4387
32021SOL    HW1  425   6.275   6.588   5.263  0.1550  0.1626  0.4610
32021SOL    HW2  426   6.352   6.457   5.261  1.7864  1.0968 -1.2704
32022SOL     OW  427   8.392  10.123   4.911 -0.1799  0.0440  0.3280
32022SOL    HW1  428   8.466  10.095   4.966  0.6736 -2.4943 -1.8840
32022SOL    HW2  429   8.431  10.136   4.824 -2.2036 -0.7043 -0.7388
32023SOL     OW  430   3.215   2.533   3.881 -0.0639  0.3139 -0.1695
32023SOL    HW1  431   3.144   2.555   3.821 -2.0277 -0.2952  1.8058
32023SOL    HW2  432   3.185   2.565   3.966  1.4417 -1.1808  0.9860
32024SOL     OW  433   5.492   4.742   4.440  0.4042  0.2422 -0.0370
32024SOL    HW1  434   5.554   4.801   4.396 -0.6295  0.9339 -0.5866
32024SOL    HW2  435   5.469   4.678   4.372  0.6023 -0.0930  0.2067
32025SOL     OW  436   5.387   2.306   6.281 -0.1645  0.7377 -0.1047
32025SOL    HW1  437   5.399   2.232   6.222  3.1003 -0.3134  1.6595
32025SOL    HW2  438   5.405   2.383   6.227 -2.0204  0.2360 -1.5547
32026SOL     OW  439   7.661   8.807   3.756  0.6551  0.1534 -0.1802
32026SOL    HW1  440   7.746   8.774   3.725  0.6376  0.8605 -1.0136
32026SOL    HW2  441   7.636   8.747   3.826  0.7127 -1.4845 -1.5174
32027SOL     OW  442   5.936   2.905   1.990  0.3379 -0.6457  0.2834
32027SOL    HW1  443   5.946   2.965   1.916  1.6584 -0.3951  0.6511
32027SOL    HW2  444   5.979   2.824   1.962  0.5524 -0.6625  0.6544
32028SOL     OW  445   2.284   9.758   8.409 -0.1794  0.1101  0.2739
32028SOL    HW1  446   2.269   9.663   8.410 -0.3603  0.1327 -0.1582
32028SOL    HW2  447   2.324   9.777   8.494 -1.4355 -0.1472  0.9548
32029SOL     OW  448   1.652   4.707   4.044  0.1165 -0.0584 -0.0886
32029SOL    HW1  449   1.662   4.625   3.997 -1.8046  0.0098 -0.7022
32029SOL    HW2  450   1.596   4.685   4.119 -1.6794  0.9263 -1.0809
32030SOL     OW  451   7.538   1.438   7.317  0.5029 -0.1451 -0.1987
32030SOL    HW1  452   7.478   1.395   7.378  1.5512 -0.3851  0.6879
32030SOL    HW2  453   7.518   1.531   7.324  0.5799 -0.1758  0.4856
32031SOL     OW  454   7.391   6.043   6.885  0.0229  0.2516 -0.1652
32031SOL    HW1  455   7.448   6.089   6.946  1.2934 -0.0575 -1.0854
32031SOL    HW2  456   7.390   6.098   6.807 -0.2154 -0.1924 -0.4779
32032SOL     OW  457   9.956  10.966  10.190 -0.0770 -0.6834 -0.1843
32032SOL    HW1  458   9.864  10.939  10.186 -0.4600  0.5982 -0.5317
32032SOL    HW2  459   9.954  11.050  10.236  1.1300 -1.4508  1.3580
32033SOL     OW  460   3.726   3.026   4.251 -0.1393  1.3500 -0.2100
32033SOL    HW1  461   3.660   3.015   4.182  1.0859  0.5534 -1.3117
32033SOL    HW2  462   3.711   2.952   4.310 -0.7380  1.6284 -0.0086
32034SOL     OW  463   5.583  10.391   4.879 -0.3023  0.5044 -0.0461
32034SOL    HW1  464   5.624  10.342   4.808 -0.1215  0.7347 -0.1013
32034SOL    HW2  465   5.522  10.329   4.919  1.2217 -0.3666  1.0442
32035SOL     OW  466   3.611   8.693   8.385 -0.1174  0.2554  0.5096
32035SOL    HW1  467   3.581   8.660   8.300  1.9293  0.5091 -0.3756
32035SOL    HW2  468   3.548   8.659   8.448 -0.5683 -1.6243 -0.8748
32036SOL     OW  469   0.458   6.575   1.149  0.1222  0.0797 -0.5025
32036SOL    HW1  470   0.380   6.624   1.176 -1.7922 -1.6821 -2.4286
32036SOL    HW2  471   0.431   6.483   1.151  2.7596 -0.7821  0.4615
32037SOL     OW  472   3.887   6.297   3.753  0.1874  0.3340  0.3693
32037SOL    HW1  473   3.940   6.217   3.750 -0.5301 -0.2454  2.0079
32037SOL    HW2  474   3.802   6.268   3.785 -0.1705  1.7201  0.7566
32038SOL     OW  475  10.965   6.021  10.968 -0.2992 -0.1506  0.4728
32038SOL    HW1  476  10.942   6.060  11.052  0.2008 -0.6766  0.8536
32038SOL    HW2  477  11.018   6.088  10.924 -0.6434  0.1632  0.5290
32039SOL     OW  478   9.680   9.099   2.052  0.0979 -0.1255  0.1683
32039SOL    HW1  479   9.714   9.073   2.137 -0.4421 -1.2638  0.0526
32039SOL    HW2  480   9.609   9.159   2.072  1.6447  1.7013  0.4302
32040SOL     OW  481  10.154   7.608   8.914  0.4321  0.0844  0.4585
32040SOL    HW1  482  10.076   7.591   8.968 -1.4984 -0.1282 -2.2171
32040SOL    HW2  483  10.173   7.701   8.927 -0.3050  0.1595  1.0816
32041SOL     OW  484   1.579  10.149   9.954  0.1718 -0.2733 -0.0148
32041SOL    HW1  485   1.613  10.148   9.865  0.4417 -0.9032  0.0930
32041SOL    HW2  486   1.606  10.235   9.988  1.5401 -0.6910  0.0135
32042SOL     OW  487   1.624   5.510   5.605  0.4538 -0.5812  0.5876
32042SOL    HW1  488   1.709   5.535   5.568 -0.6083  1.9339 -0.3281
32042SOL    HW2  489   1.577   5.471   5.532 -0.3690  1.1397  0.1702
32043SOL     OW  490   7.326   4.509   9.377 -0.0571 -0.4340 -0.0321
32043SOL    HW1  491   7.323   4.440   9.311  1.4626  0.0311 -0.6455
32043SOL    HW2  492   7.237   4.542   9.382 -0.9087 -2.6721  0.5603
32044SOL     OW  493   2.875  10.965   9.618 -0.0713  1.1082 -0.4601
32044SOL    HW1  494   2.803  10.901   9.625 -0.1018  0.9175 -2.1052
32044SOL    HW2  495   2.831  11.049   9.609 -0.2724  0.7906 -3.7694
32045SOL     OW  496   9.202   7.416   1.963 -0.1106 -0.0437  0.4195
32045SOL    HW1  497   9.225   7.349   2.028  3.2892  0.7914  0.2985
32045SOL    HW2  498   9.165   7.487   2.014  0.3939 -0.3049  1.1699
32046SOL     OW  499   4.873   2.526  10.060 -0.0791  0.0416  0.0774
32046SOL    HW1  500   4.951   2.579  10.079  1.2578 -1.4274 -1.0583
32046SOL    HW2  501   4.858   2.476  10.140 -0.3741  0.9163  0.5863
32047SOL     OW  502   2.029   9.843   8.419 -0.3610  0.4066 -0.1248
32047SOL    HW1  503   1.965   9.772   8.418 -0.3620  0.3308 -2.9502
32047SOL    HW2  504   2.114   9.798   8.423 -0.4009  0.3149 -0.3039
32048SOL     OW  505   4.362   5.643   8.713  0.6323  0.2738  0.8791
32048SOL    HW1  506   4.438   5.699   8.730  1.0184  0.3006 -0.7250
32048SOL    HW2  507   4.383   5.560   8.755  1.6069  0.2628  0.4041
32049SOL     OW  508   7.569   9.157   4.668  0.2833  0.1784 -0.0074
32049SOL    HW1  509   7.482   9.188   4.693 -0.2244 -1.0216 -0.2258
32049SOL    HW2  510   7.615   9.236   4.641 -0.1387  1.1013  1.7841
32050SOL     OW  511   0.432   5.273   4.749 -0.3374  0.0714 -0.0539
32050SOL    HW1  512   0.471   5.271   4.837 -2.3666 -0.2830  0.9153
32050SOL    HW2  513   0.361   5.209   4.754 -0.3399 -0.1316 -2.0640
32051SOL     OW  514   7.837   6.656  10.326 -0.0023 -0.6109 -0.1553
32051SOL    HW1  515   7.811   6.650  10.234  1.0313 -0.1111 -0.4953
32051SOL    HW2  516   7.770   6.606  10.373 -0.8571 -0.4133 -1.1162
32052SOL     OW  517   0.165   2.008  10.148  0.2168  0.4606 -0.8073
32052SOL    HW1  518   0.222   2.051  10.212 -1.4937  3.1435 -0.9135
32052SOL    HW2  519   0.105   2.077  10.120 -0.9377 -1.3676 -3.1882
32053SOL     OW  520  10.338   2.186   5.663 -0.3034 -0.8912 -0.0646
32053SOL    HW1  521  10.401   2.218   5.599 -0.2985  0.8542  0.7315
32053SOL    HW2  522  10.256   2.231   5.641 -0.1087  0.3965  1.5490
32054SOL     OW  523   9.288   3.272   0.450  0.3467 -0.5794 -0.1701
32054SOL    HW1  524   9.299   3.180   0.427 -0.4008 -0.1452 -2.5344
32054SOL    HW2  525   9.229   3.307   0.384 -0.9798  1.1875  1.7879
32055SOL     OW  526   1.762   5.775   9.731  0.5468 -0.0072  0.4596
32055SOL    HW1  527   1.795   5.832   9.800  0.7030 -0.6195  0.9020
32055SOL    HW2  528   1.678   5.812   9.707  1.0685  0.9642  0.0571
32056SOL     OW  529   2.512   3.272  10.329 -0.0355  0.3771 -0.2458
32056SOL    HW1  530   2.487   3.275  10.421 -0.6424  0.1156 -0.3950
32056SOL    HW2  531   2.556   3.356  10.313 -0.2769  0.5892  0.1819
32057SOL     OW  532  10.804   7.319   9.336  0.0178  0.0046  0.3395
32057SOL    HW1  533  10.764   7.232   9.333  0.3598 -0.2366  1.8370
32057SOL    HW2  534  10.828   7.338   9.246 -0.4149 -1.2920 -0.0687
32058SOL     OW  535   1.307   1.749   7.979 -0.1189  0.4161 -0.4577
32058SOL    HW1  536   1.248   1.696   8.033  0.0354  1.2427  0.5517
32058SOL    HW2  537   1.249   1.799   7.921 -0.4424  1.2519  0.5528
32059SOL     OW  538   8.697   0.126   8.741  0.5228 -0.3226  0.3119
32059SOL    HW1  539   8.687   0.046   8.792 -0.0063 -0.7097 -0.3848
32059SOL    HW2  540   8.680   0.099   8.650  0.4728  0.5497  0.0541
32060SOL     OW  541   4.986   5.435   6.765  0.4180 -0.3490  1.0589
32060SOL    HW1  542   5.027   5.513   6.803 -1.1815  0.6824  0.7496
32060SOL    HW2  543   5.060   5.385   6.730  1.4171  1.7800 -0.1390
32061SOL     OW  544   4.129   9.831   1.427 -0.5243 -0.1459  0.4458
32061SOL    HW1  545   4.093   9.756   1.475 -1.9595 -0.1414 -0.5479
32061SOL    HW2  546   4.210   9.798   1.388 -1.3443 -1.3429 -0.3307
32062SOL     OW  547   9.928   2.323   4.580  0.7583  0.0263  0.3718
32062SOL    HW1  548   9.954   2.411   4.552 -2.1910  1.3362  1.3902
32062SOL    HW2  549   9.882   2.286   4.505  0.6362 -0.0300  0.4737
32063SOL     OW  550   9.196   8.657   0.315  0.1350 -0.0066 -0.0172
32063SOL    HW1  551   9.177   8.718   0.244  0.4059 -0.0360 -0.1178
32063SOL    HW2  552   9.111   8.621   0.340 -0.2289  1.5008  1.0336
32064SOL     OW  553   1.221   8.444   0.526 -0.0149  0.0660 -0.4702
32064SOL    HW1  554   1.210   8.409   0.615  1.1228 -1.5746 -0.9151
32064SOL    HW2  555   1.156   8.513   0.519 -0.7012 -0.3332  1.3559
32065SOL     OW  556   7.013   0.341   1.150 -0.1002  0.2071 -0.4455
32065SOL    HW1  557   7.059   0.309   1.228 -0.4857 -0.8214 -0.6151
32065SOL    HW2  558   7.080   0.340   1.081  0.2472  1.1430 -0.1301
32066SOL     OW  559   6.117   6.488   2.412 -0.2018  0.0319  0.5622
32066SOL    HW1  560   6.133   6.510   2.320 -0.4877 -2.0306 -0.0403
32066SOL    HW2  561   6.184   6.535   2.460  0.8841  0.0048 -0.8527
32067SOL     OW  562   2.537   3.324   2.001  0.4254 -0.3643  0.4082
32067SOL    HW1  563   2.517   3.252   2.062  2.5252  0.0009  1.6327
32067SOL    HW2  564   2.559   3.397   2.058 -2.0015  1.4538 -0.8056
32068SOL     OW  565   5.638   9.432   4.038 -0.4396 -0.0380  0.0971
32068SOL    HW1  566   5.674   9.479   4.113  1.4017 -3.2464  1.4183
32068SOL    HW2  567   5.703   9.443   3.969  0.1492 -0.8414  0.5097
32069SOL     OW  568   3.180  10.104   4.363  0.4103 -0.1340 -0.5863
32069SOL    HW1  569   3.112  10.051   4.322  1.3058 -1.5278 -0.3238
32069SOL    HW2  570   3.246  10.041   4.393  0.7142  0.9919  1.2804
32070SOL     OW  571   2.883   7.424   2.274 -0.2816  0.3793 -0.1895
32070SOL    HW1  572   2.807   7.369   2.290 -0.3880 -0.2821 -2.6278
32070SOL    HW2  573   2.927   7.384   2.199  1.5292  1.7258  0.0692
32071SOL     OW  574   2.699   5.502   9.036 -0.7796 -0.0270  0.2773
32071SOL    HW1  575   2.777   5.535   9.079 -1.0367 -0.4214  1.0683
32071SOL    HW2  576   2.626   5.543   9.083 -1.1107 -1.7023  1.3356
32072SOL     OW  577   9.237   3.621   3.706  0.0604 -0.1294  0.2852
32072SOL    HW1  578   9.154   3.604   3.662 -0.3627  0.7593  0.7253
32072SOL    HW2  579   9.234   3.565   3.784  1.6334 -3.1999 -1.6666
32073SOL     OW  580  10.746   9.161  10.304  0.4933  0.2328  0.7383
32073SOL    HW1  581  10.666   9.109  10.301  0.9037 -0.3992 -1.4226
32073SOL    HW2  582  10.790   9.133  10.384  0.0454 -1.7989  0.3355
32074SOL     OW  583   2.555   6.721   0.211  0.9039 -0.5928  0.7272
32074SOL    HW1  584   2.541   6.816   0.211 -0.7463 -0.7878 -0.7799
32074SOL    HW2  585   2.522   6.693   0.297  0.4609  0.0792  0.7885
32075SOL     OW  586   2.690   8.065   1.809  0.2638 -0.9183 -0.2673
32075SOL    HW1  587   2.693   8.133   1.876  2.3092  0.6457 -1.8222
32075SOL    HW2  588   2.774   8.019   1.817 -0.0181 -1.5695 -0.8950
32076SOL     OW  589  10.557   7.058   0.313  0.3013 -0.1829  0.0251
32076SOL    HW1  590  10.558   7.150   0.338 -1.9915 -0.0102 -0.3541
32076SOL    HW2  591  10.505   7.055   0.233 -0.5392 -1.9208  0.5879
32077SOL     OW  592   5.331   7.123   4.551  0.1295 -0.2122 -0.1541
32077SOL    HW1  593   5.324   7.137   4.645 -0.1582 -0.3347 -0.1563
32077SOL    HW2  594   5.283   7.042   4.535 -2.3880  1.2819 -0.8028
32078SOL     OW  595   6.045   2.367   2.455 -0.2413 -0.1585  0.0708
32078SOL    HW1  596   6.083   2.436   2.401  1.5435 -2.2341 -1.4981
32078SOL    HW2  597   5.966   2.341   2.408 -0.4368  0.1795  0.2030
32079SOL     OW  598   4.733  10.148   9.264 -0.0744  0.3392 -0.1275
32079SOL    HW1  599   4.698  10.177   9.180  0.0771  1.9836  0.3436
32079SOL    HW2  600   4.757  10.229   9.309 -0.7915 -0.4622  1.7906
32080SOL     OW  601   1.281   5.658   9.582  0.0207  0.0182  0.5655
32080SOL    HW1  602   1.289   5.565   9.601 -1.7370 -0.0197  1.3012
32080SOL    HW2  603   1.215   5.664   9.513  0.8100  0.6709 -0.1614
32081SOL     OW  604   1.191   6.222   7.603 -0.4675 -0.1648 -0.0304
32081SOL    HW1  605   1.126   6.293   7.603  1.8605  2.1720  2.4491
32081SOL    HW2  606   1.172   6.172   7.682  0.4453  0.2628  0.4689
32082SOL     OW  607   7.148   9.600   4.020  0.0892  0.2109  0.1870
32082SOL    HW1  608   7.156   9.513   3.982  0.0803  0.4721 -0.4274
32082SOL    HW2  609   7.091   9.589   4.095 -1.1697 -0.0503 -0.7835
32083SOL     OW  610   1.151   7.319  11.025  0.2038 -0.3003 -0.1750
32083SOL    HW1  611   1.174   7.405  10.991  0.1520  0.3158  1.2857
32083SOL    HW2  612   1.112   7.336  11.111  0.8234 -1.8029  0.4523
32084SOL     OW  613   1.976   1.452   7.752  0.4579  0.0839  0.2427
32084SOL    HW1  614   2.023   1.395   7.691  0.6293  0.6349 -0.1507
32084SOL    HW2  615   1.890   1.463   7.711  0.1448 -0.5260  0.7155
32085SOL     OW  616   8.968   0.918   4.146  0.0333 -0.4606  0.1695
32085SOL    HW1  617   8.980   0.825   4.128 -0.7216 -0.4689 -0.3462
32085SOL    HW2  618   8.986   0.927   4.240  0.7403 -1.0082  0.0929
32086SOL     OW  619   0.578   3.219   4.557  0.1885 -0.0372 -0.1667
32086SOL    HW1  620   0.485   3.201   4.539 -0.5169  0.5849  2.4260
32086SOL    HW2  621   0.625   3.153   4.505 -1.6486 -0.1666 -1.8021
32087SOL     OW  622   7.268   3.720   8.296 -0.3096  0.1266  0.3120
32087SOL    HW1  623   7.250   3.809   8.325 -0.5542  0.1534  0.0881
32087SOL    HW2  624   7.187   3.692   8.254 -0.1114 -0.0651  0.0490
32088SOL     OW  625   9.805   2.195   3.211 -0.3804 -0.3264 -0.3026
32088SOL    HW1  626   9.780   2.163   3.124  1.2119 -0.9624 -0.5712
32088SOL    HW2  627   9.737   2.162   3.270 -1.1722 -0.3736 -1.2231
32089SOL     OW  628   5.897   5.693   3.042  0.1945 -0.3449 -0.6732
32089SOL    HW1  629   5.978   5.661   3.080  0.5803  0.3265 -0.9021
32089SOL    HW2  630   5.880   5.776   3.087 -1.6157 -1.5637  1.0225
32090SOL     OW  631   3.682   0.485   0.562 -0.2194 -0.4006 -0.5893
32090SOL    HW1  632   3.682   0.409   0.619 -0.3743  0.3690  0.4774
32090SOL    HW2  633   3.763   0.532   0.584 -0.5973  0.2393 -0.5372
32091SOL     OW  634  10.807   2.571   1.967 -0.0692 -1.0317  0.2609
32091SOL    HW1  635  10.786   2.658   1.936 -0.1891 -0.5372  1.6334
32091SOL    HW2  636  10.897   2.556   1.939 -0.0109 -0.4170  0.1100
32092SOL     OW  637   2.350   0.148   4.587  0.1378 -0.9615 -0.8075
32092SOL    HW1  638   2.315   0.092   4.518 -0.2054  0.0137 -1.4561
32092SOL    HW2  639   2.417   0.201   4.542 -1.1002  0.7173 -0.7736
32093SOL     OW  640  10.488   6.323   3.063 -0.4626  0.1473  0.5233
32093SOL    HW1  641  10.478   6.278   2.979 -0.1232  0.1843  0.4616
32093SOL    HW2  642  10.407   6.302   3.111 -0.6265  0.0691  0.2172
32094SOL     OW  643   9.212   7.608   8.418 -0.3754  0.4993  0.7877
32094SOL    HW1  644   9.181   7.664   8.347 -0.2691  0.2420  0.5396
32094SOL    HW2  645   9.294   7.650   8.447  0.2485 -0.0836 -0.0795
32095SOL     OW  646   7.719   5.251   6.639  0.1972 -0.8185  0.0905
32095SOL    HW1  647   7.784   5.280   6.703 -0.1466 -0.7402  0.4032
32095SOL    HW2  648   7.684   5.170   6.676  0.1241 -0.8673 -0.0850
32096SOL     OW  649   4.613   5.672   2.011 -0.0992 -0.0453 -0.1727
32096SOL    HW1  650   4.617   5.763   1.981 -2.0687  0.3978  0.7239
32096SOL    HW2  651   4.703   5.649   2.032  0.2965  2.1291  0.7769
32097SOL     OW  652   1.880   9.544   1.687 -0.2660  0.3370  0.5345
32097SOL    HW1  653   1.795   9.547   1.730 -0.7969  1.4728 -0.5227
32097SOL    HW2  654   1.866   9.490   1.609 -0.6167  2.1579 -0.7421
32098SOL     OW  655   6.978   2.076   8.251  0.1283 -0.3216  1.2811
32098SOL    HW1  656   7.029   2.046   8.176  1.3536 -0.3312  2.0808
32098SOL    HW2  657   6.887   2.074   8.221  0.6466  0.5467 -0.5016
32099SOL     OW  658   7.851   4.977  10.504  0.1183  0.2369  0.7575
32099SOL    HW1  659   7.788   4.908  10.485  0.9451 -0.2702 -0.2577
32099SOL    HW2  660   7.908   4.979  10.427  1.7366  0.2204  1.8962
32100SOL     OW  661  10.986   5.668   9.065 -0.6069  0.5922 -0.2047
32100SOL    HW1  662  11.048   5.738   9.041 -2.1078  1.7533 -0.8473
32100SOL    HW2  663  10.900   5.706   9.049 -1.5172 -0.8610  1.0210
32101SOL     OW  664   2.858   2.003   4.366 -0.3447  0.0860  0.0552
32101SOL    HW1  665   2.910   2.083   4.372  0.3882 -0.2901 -1.0641
32101SOL    HW2  666   2.852   1.985   4.273  1.8052 -2.6383  0.3355
32102SOL     OW  667   1.472  10.871   2.434 -0.1982  0.0333  0.4647
32102SOL    HW1  668   1.566  10.881   2.421 -0.2551  0.6323  0.5183
32102SOL    HW2  669   1.465  10.797   2.495  0.1426 -1.4278 -1.1674
32103SOL     OW  670   5.134   0.587   6.795  0.1000  0.2921 -0.0116
32103SOL    HW1  671   5.066   0.520   6.797  0.9474 -0.5979  1.5008
32103SOL    HW2  672   5.162   0.591   6.704 -1.6153  0.3408 -0.5743
32104SOL     OW  673   6.014   4.137   7.257  0.4311  0.8648 -0.0902
32104SOL    HW1  674   6.059   4.073   7.313 -0.5024  0.7840  0.5878
32104SOL    HW2  675   6.085   4.183   7.212  1.1240 -1.0456 -1.0689
32105SOL     OW  676   3.586   0.666   5.656  0.2493  0.3670  0.6841
32105SOL    HW1  677   3.515   0.607   5.629  1.1639 -1.6089  2.3667
32105SOL    HW2  678   3.547   0.719   5.726 -0.1602  0.7663  0.1604
32106SOL     OW  679   8.616   7.382   7.083 -0.3831 -0.4276 -0.0073
32106SOL    HW1  680   8.626   7.369   7.178  0.5644  1.4191  0.1941
32106SOL    HW2  681   8.542   7.327   7.059  1.7063 -4.0099  1.0795
32107SOL     OW  682   5.061   5.800   6.400  0.2691 -0.0929  0.1626
32107SOL    HW1  683   5.060   5.832   6.491  1.8760 -0.7167  0.4346
32107SOL    HW2  684   5.151   5.817   6.370 -0.8053  2.1939 -2.1232
32108SOL     OW  685   4.764   9.474   9.850  0.5678  0.2908  0.4634
32108SOL    HW1  686   4.727   9.537   9.912 -0.0689  0.0086  0.3776
32108SOL    HW2  687   4.835   9.522   9.807 -0.5569  1.3181 -0.3478
32109SOL     OW  688   9.170   4.927   9.352  0.3206  0.0748 -0.3570
32109SOL    HW1  689   9.108   4.887   9.413 -0.7997  1.4024 -0.5599
32109SOL    HW2  690   9.210   4.853   9.307  0.3225 -0.8892  1.1577
32110SOL     OW  691   4.250   9.361   4.566  0.4367 -0.1248  0.4495
32110SOL    HW1  692   4.211   9.294   4.622  2.4625 -0.9277  0.9949
32110SOL    HW2  693   4.343   9.337   4.560  0.9747  1.9036 -0.4168
32111SOL     OW  694   1.483  10.491  10.206 -0.0712 -0.3377  0.4942
32111SOL    HW1  695   1.515  10.411  10.247 -2.0963 -0.7782  1.3797
32111SOL    HW2  696   1.392  10.470  10.182  0.1660  0.8570 -1.6799
32112SOL     OW  697   1.610   9.710   2.366  0.4147  0.1163 -0.0899
32112SOL    HW1  698   1.665   9.654   2.421  0.2115  0.7279  0.7629
32112SOL    HW2  699   1.666   9.785   2.345  0.0713  0.5016  0.3649
32113SOL     OW  700   7.068  10.838   2.069  0.5939  0.4579 -0.4433
32113SOL    HW1  701   7.038  10.929   2.075  1.2287  0.6116  0.4883
32113SOL    HW2  702   7.087  10.813   2.159  1.0698 -0.3870 -0.7738
32114SOL     OW  703   4.596   5.955   0.296  0.1288  0.0456 -0.5809
32114SOL    HW1  704   4.628   5.931   0.383  1.1969  1.0265 -0.6814
32114SOL    HW2  705   4.640   5.894   0.236 -1.0880 -1.0438 -0.4032
32115SOL     OW  706   5.000  10.256   7.895 -0.0888  0.0043  0.2352
32115SOL    HW1  707   5.033  10.264   7.985  0.0351 -0.1645  0.2058
32115SOL    HW2  708   5.036  10.332   7.850 -0.9484  0.6187  0.5675
32116SOL     OW  709   7.437   6.096   9.590  0.6829  0.3038 -0.4762
32116SOL    HW1  710   7.420   6.041   9.514 -0.0519  0.5288 -0.4861
32116SOL    HW2  711   7.428   6.186   9.557 -2.2786  0.4462  0.3675
32117SOL     OW  712   2.999   3.423   8.592  0.0189  0.6096  0.2222
32117SOL    HW1  713   3.016   3.516   8.604  0.1402  0.6454 -0.1910
32117SOL    HW2  714   2.903   3.415   8.593  0.0251  0.6082  1.1486
32118SOL     OW  715   7.385   3.556   1.131 -0.3258  0.1339  0.5741
32118SOL    HW1  716   7.320   3.581   1.065 -0.3855 -0.9313  0.2085
32118SOL    HW2  717   7.334   3.507   1.196  0.0457 -0.4545  0.4329
32119SOL     OW  718   3.556   0.253   8.202  0.3568  0.0220  0.4676
32119SOL    HW1  719   3.606   0.331   8.228 -0.4673 -0.3030  3.3898
32119SOL    HW2  720   3.571   0.191   8.273 -1.8218 -1.1782 -0.0407
32120SOL     OW  721   6.193   6.768   8.640 -0.9892  0.3302  0.3446
32120SOL    HW1  722   6.134   6.826   8.688 -3.2682 -1.4233 -0.1755
32120SOL    HW2  723   6.208   6.814   8.557  0.0242  1.6809  1.2280
32121SOL     OW  724   9.024   4.792   9.564 -0.6177  0.8992  0.0687
32121SOL    HW1  725   8.936   4.792   9.526 -0.0944 -0.0305 -1.2082
32121SOL    HW2  726   9.030   4.707   9.608 -0.2888  0.8786 -0.0166
32122SOL     OW  727   5.379  11.030   6.519  0.1041 -0.5317  0.3038
32122SOL    HW1  728   5.398  10.940   6.490 -1.1592 -0.2667 -1.4717
32122SOL    HW2  729   5.457  11.079   6.495  0.6301 -1.0535  0.8949
32123SOL     OW  730   5.988   8.647   0.709  0.1772 -0.3661 -0.6430
32123SOL    HW1  731   6.009   8.691   0.791 -0.0516  1.1718 -1.3743
32123SOL    HW2  732   5.965   8.558   0.735 -3.0312  0.8720  1.3859
32124SOL     OW  733  10.365   8.731   7.575 -0.2367 -0.2536 -0.3256
32124SOL    HW1  734  10.430   8.797   7.598 -0.5319  0.4051 -1.3244
32124SOL    HW2  735  10.409   8.674   7.513 -0.3567 -0.2993 -0.3681
32125SOL     OW  736   4.952   5.654   0.187 -0.4560 -0.7395 -0.2536
32125SOL    HW1  737   5.000   5.611   0.116 -0.4575  0.1008 -0.7720
32125SOL    HW2  738   4.999   5.736   0.202 -0.4646 -0.8941  0.7128
32126SOL     OW  739  10.851   0.454   0.028  0.6537  0.1584  0.2595
32126SOL    HW1  740  10.775   0.509   0.044 -0.5572 -1.9438  2.4489
32126SOL    HW2  741  10.872   0.468  -0.064 -1.7162  1.6317 -0.1385
32127SOL     OW  742   8.871   7.510   0.665 -0.0730  0.3123 -0.5189
32127SOL    HW1  743   8.886   7.475   0.753  1.6345  0.4241 -0.7303
32127SOL    HW2  744   8.788   7.557   0.671  0.3377  0.8662  1.1968
32128SOL     OW  745   1.279   6.324   0.308  0.1115  0.1984 -0.0487
32128SOL    HW1  746   1.291   6.291   0.397 -1.0174  1.9089  0.7849
32128SOL    HW2  747   1.348   6.281   0.258 -0.1642 -1.9862  1.2972
32129SOL     OW  748   0.935   7.947  11.018 -0.0887  0.0387 -0.0144
32129SOL    HW1  749   0.976   7.887  10.956  0.9248 -1.0519  1.6504
32129SOL    HW2  750   0.882   8.005  10.963 -0.4068 -1.7917 -1.7693
32130SOL     OW  751   2.869   3.487   9.996  0.2486 -0.1098 -0.0197
32130SOL    HW1  752   2.926   3.415   9.972  1.0029  0.3847  0.2712
32130SOL    HW2  753   2.857   3.478  10.090  0.4104  0.1953  0.0301
32131SOL     OW  754   3.900   9.865   6.116 -0.2236 -0.3433  0.2137
32131SOL    HW1  755   3.964   9.936   6.125 -1.1632  0.5264  0.3766
32131SOL    HW2  756   3.950   9.791   6.082  0.6899  0.5721 -0.5270
32132SOL     OW  757   5.609   3.329  10.934 -0.6449  0.0496 -0.2323
32132SOL    HW1  758   5.515   3.309  10.931 -0.9148  1.1314  0.4763
32132SOL    HW2  759   5.643   3.277  11.007  0.0629 -3.1233 -2.6158
32133SOL     OW  760  10.477   7.920  10.276  0.1660  0.1942 -0.8277
32133SOL    HW1  761  10.447   7.853  10.338  0.9071  0.8380  0.2736
32133SOL    HW2  762  10.568   7.937  10.302 -0.2696  2.2555 -0.4634
32134SOL     OW  763   7.805   4.284   1.342 -0.7079 -0.4749  0.1390
32134SOL    HW1  764   7.890   4.324   1.324 -0.7702 -0.6985 -0.6864
32134SOL    HW2  765   7.790   4.302   1.434  0.7807 -1.4441  0.6182
32135SOL     OW  766   1.290   2.126   7.807 -0.2433 -0.3330 -0.1399
32135SOL    HW1  767   1.350   2.189   7.768  0.2424  0.6174  1.9903
32135SOL    HW2  768   1.236   2.178   7.867 -0.8060 -1.7052  0.5982
32136SOL     OW  769   6.679   2.703   9.377 -0.4152 -0.0900  0.0931
32136SOL    HW1  770   6.745   2.635   9.376 -0.3519 -0.0674  1.4353
32136SOL    HW2  771   6.668   2.727   9.285  0.1911 -1.2837 -0.3073
32137SOL     OW  772   0.873   1.152   5.376 -0.0230 -0.6597  0.3201
32137SOL    HW1  773   0.797   1.101   5.404 -0.7576  0.4759  0.4378
32137SOL    HW2  774   0.941   1.086   5.361 -0.7230 -1.6164  1.1647
32138SOL     OW  775   2.195   8.895   6.379 -0.3856  0.0306  0.3597
32138SOL    HW1  776   2.158   8.807   6.372  0.3332 -0.1983 -0.8018
32138SOL    HW2  777   2.284   8.886   6.346 -0.1012  1.0746  0.8128
32139SOL     OW  778   5.393   8.096   9.312  0.0390 -0.1500  0.2951
32139SOL    HW1  779   5.321   8.131   9.365  1.1519  1.5789  0.7200
32139SOL    HW2  780   5.471   8.106   9.367  0.5709 -2.6350  0.1177
32140SOL     OW  781   9.106   7.977  11.089 -0.0704 -0.5716 -0.5040
32140SOL    HW1  782   9.185   8.012  11.130 -0.3426 -0.5447  0.0008
32140SOL    HW2  783   9.037   8.037  11.114 -0.5306 -1.4165  0.3181
32141SOL     OW  784   5.584   9.367   8.614 -0.0420  0.0225  0.0872
32141SOL    HW1  785   5.606   9.274   8.615  0.3856  0.1196  0.8203
32141SOL    HW2  786   5.654   9.408   8.564 -0.7940 -0.1652 -1.1598
32142SOL     OW  787   2.598   3.706   6.201 -0.9560 -0.2496  0.1079
32142SOL    HW1  788   2.592   3.615   6.170  1.1470 -0.1901 -0.6121
32142SOL    HW2  789   2.593   3.698   6.297  0.7326 -1.3096  0.1378
32143SOL     OW  790   0.385   2.291   6.253  0.6629  0.2597 -0.5416
32143SOL    HW1  791   0.336   2.372   6.234 -0.1218 -0.3489 -1.2050
32143SOL    HW2  792   0.369   2.236   6.176  0.8120 -0.7053  0.1124
32144SOL     OW  793   4.486   3.384   8.873  0.4251  0.4578 -0.1613
32144SOL    HW1  794   4.470   3.291   8.863  0.6443  0.4719 -0.6680
32144SOL    HW2  795   4.579   3.390   8.895  0.4095  0.5601 -0.1210
32145SOL     OW  796   2.448   2.856   2.309  0.2387  0.7414  0.8693
32145SOL    HW1  797   2.509   2.835   2.238  0.0662 -1.8729  1.4236
32145SOL    HW2  798   2.361   2.847   2.269  0.1307  2.3846  0.6452
32146SOL     OW  799   3.838   6.357   4.450 -0.1821  0.2032 -0.0996
32146SOL    HW1  800   3.810   6.413   4.378 -2.8094 -2.1448 -1.0709
32146SOL    HW2  801   3.909   6.305   4.414  2.0429  2.4516  0.7087
32147SOL     OW  802   8.892   2.216   5.742  0.0771  0.5938 -0.3592
32147SOL    HW1  803   8.836   2.279   5.788 -1.5638 -0.6233 -0.6111
32147SOL    HW2  804   8.900   2.142   5.802 -0.3808 -0.1434 -1.1904
32148SOL     OW  805   3.080   8.022   7.319  0.4623 -0.3366 -0.0000
32148SOL    HW1  806   3.015   8.091   7.330  2.1082  1.3844 -0.4592
32148SOL    HW2  807   3.066   7.963   7.392 -1.2013  0.3014  0.2369
32149SOL     OW  808   8.265   3.779   8.723 -0.2825 -0.5643  0.3664
32149SOL    HW1  809   8.314   3.705   8.759 -1.2773 -0.7839  1.3149
32149SOL    HW2  810   8.276   3.849   8.788  0.9790  0.2928 -0.7065
32150SOL     OW  811   8.055   1.926   4.326  0.0908 -0.0534  0.0464
32150SOL    HW1  812   8.112   1.888   4.394  0.4472 -0.4717 -0.4781
32150SOL    HW2  813   8.109   1.926   4.247  0.5401  2.7122  0.2630
32151SOL     OW  814   3.918  11.113   3.088 -0.0618 -0.3375 -0.3843
32151SOL    HW1  815   3.900  11.041   3.027  0.3105  0.0725 -0.9953
32151SOL    HW2  816   3.834  11.131   3.129  0.1986 -2.3409  1.1628
32152SOL     OW  817   8.571   0.644   8.554 -0.0845  0.8362 -0.0079
32152SOL    HW1  818   8.607   0.722   8.597  0.8737  0.2980  0.2099
32152SOL    HW2  819   8.483   0.636   8.589  0.1885  1.2085  0.7981
32153SOL     OW  820  10.092   5.868   8.030  0.5606 -0.3905  0.1739
32153SOL    HW1  821  10.023   5.911   7.979  1.9145  0.6553 -0.8497
32153SOL    HW2  822  10.047   5.797   8.076 -1.1115 -0.0113 -0.7956
32154SOL     OW  823   3.391   7.071   4.012  0.0164  0.6767  0.8131
32154SOL    HW1  824   3.360   7.162   4.011 -0.6667  0.5173  2.8143
32154SOL    HW2  825   3.314   7.019   3.990  0.4034  0.5520 -0.3136
32155SOL     OW  826   4.162   0.549   2.482  0.1104  0.4971  0.0350
32155SOL    HW1  827   4.138   0.456   2.479 -0.7671  0.6819  0.8745
32155SOL    HW2  828   4.208   0.564   2.399 -1.0499 -0.3294 -0.8006
32156SOL     OW  829   1.884   6.484   5.691  0.3129 -0.4811  0.4473
32156SOL    HW1  830   1.855   6.408   5.742  0.2500 -1.2655 -0.7365
32156SOL    HW2  831   1.973   6.461   5.662  0.0397 -0.3926 -0.4839
32157SOL     OW  832   0.043   6.219   5.256 -0.1073  0.0478  0.0943
32157SOL    HW1  833  -0.026   6.280   5.229 -0.4613 -0.4427 -0.1435
32157SOL    HW2  834   0.114   6.234   5.194 -0.3626 -0.0760 -0.2334
32158SOL     OW  835   6.074   3.773   6.482 -0.3927  0.6820 -0.1036
32158SOL    HW1  836   6.092   3.697   6.536 -1.2702 -2.2866 -3.6235
32158SOL    HW2  837   5.981   3.792   6.498  0.6181  3.8264  3.7071
32159SOL     OW  838   5.442   2.949   0.832  0.2868  0.5117 -0.0430
32159SOL    HW1  839   5.519   2.894   0.819 -0.3627 -0.4969  0.2586
32159SOL    HW2  840   5.419   2.980   0.745  2.2810  2.5978  0.0926
32160SOL     OW  841   5.960   8.857   1.315 -0.3802 -0.2685 -0.2250
32160SOL    HW1  842   5.883   8.822   1.270 -0.4872 -0.8203  0.3738
32160SOL    HW2  843   6.010   8.779   1.341  1.0034  0.0749 -1.6347
32161SOL     OW  844   8.033   6.552   7.187 -0.1820 -0.3071 -0.0615
32161SOL    HW1  845   8.075   6.468   7.167  0.9958  0.2600 -0.0649
32161SOL    HW2  846   8.097   6.618   7.160 -0.9715  0.5883  0.2073
32162SOL     OW  847  10.232   8.306   6.206  0.2441 -0.5001 -0.1304
32162SOL    HW1  848  10.297   8.250   6.248  1.8426  2.3634  1.5691
32162SOL    HW2  849  10.177   8.337   6.279 -1.8564 -1.3016 -1.2817
32163SOL     OW  850   0.073   1.190  10.281 -0.4803  0.5916 -0.1155
32163SOL    HW1  851  -0.002   1.133  10.294 -0.2814  0.3492 -0.0285
32163SOL    HW2  852   0.146   1.131  10.264 -0.5499  0.8614 -1.4813
32164SOL     OW  853   0.066   4.919   6.346  0.6907 -0.3300 -0.3700
32164SOL    HW1  854   0.025   4.988   6.400  1.1109 -0.8842  0.6881
32164SOL    HW2  855   0.098   4.966   6.269  0.1286  0.5064 -0.1181
32165SOL     OW  856   2.396   8.803   0.877 -0.0793 -0.4750  0.1147
32165SOL    HW1  857   2.467   8.763   0.827  0.1631  0.3373 -0.2006
32165SOL    HW2  858   2.347   8.728   0.912 -0.1347 -1.0671 -1.1548
32166SOL     OW  859   9.201   6.839   5.198 -0.3652  0.6787 -0.3520
32166SOL    HW1  860   9.126   6.874   5.245 -1.3342 -1.5013 -0.1395
32166SOL    HW2  861   9.207   6.748   5.226  1.6313  0.4560 -1.2955
32167SOL     OW  862   1.538   6.798   0.799 -0.7629 -0.0477 -0.3249
32167SOL    HW1  863   1.514   6.891   0.804  0.5060  0.2074  2.4165
32167SOL    HW2  864   1.473   6.754   0.854  1.9863  0.1002  3.3987
32168SOL     OW  865   8.196   2.030   3.093 -0.1336  0.1085 -0.0637
32168SOL    HW1  866   8.265   1.964   3.093  0.4222  0.6121 -2.1405
32168SOL    HW2  867   8.154   2.021   3.008 -2.8161 -0.2910  1.1896
32169SOL     OW  868   6.187   6.111   6.961  0.0358 -0.4858  0.9062
32169SOL    HW1  869   6.269   6.150   6.992  0.4468 -1.2371  0.8066
32169SOL    HW2  870   6.121   6.178   6.977  0.5464 -0.1468  1.6846
32170SOL     OW  871   1.422   1.867  10.285 -0.0142  0.3454  0.6530
32170SOL    HW1  872   1.506   1.858  10.329  0.5840  0.9887 -0.3255
32170SOL    HW2  873   1.436   1.832  10.197 -0.4749  1.3390  0.1590
32171SOL     OW  874  10.532   7.651   7.893  0.0309 -0.9343  0.2709
32171SOL    HW1  875  10.625   7.650   7.916  0.8607  1.3126 -2.4780
32171SOL    HW2  876  10.526   7.600   7.812 -0.5942  1.0117 -0.9873
32172SOL     OW  877  10.187   3.789   0.395 -0.5466 -0.0252 -0.0741
32172SOL    HW1  878  10.203   3.714   0.452  0.5639 -0.9729 -1.5306
32172SOL    HW2  879  10.266   3.794   0.340 -0.9333  1.7441 -0.5397
32173SOL     OW  880   5.997   7.949   6.738 -0.2958  0.5515 -0.0736
32173SOL    HW1  881   6.037   8.034   6.716 -2.1048  1.3457 -0.4228
32173SOL    HW2  882   5.904   7.961   6.722 -0.8135 -1.0133  1.4503
32174SOL     OW  883   1.705   8.944   9.050 -0.1789  0.0465  0.2700
32174SOL    HW1  884   1.657   8.968   9.129  0.8790 -1.2298  1.3287
32174SOL    HW2  885   1.786   8.903   9.081  0.4522 -0.1323 -1.4696
32175SOL     OW  886   4.542   4.729  10.066  0.3514  0.3021 -0.1251
32175SOL    HW1  887   4.635   4.715  10.085  0.1341 -1.2603 -0.0691
32175SOL    HW2  888   4.519   4.657  10.007 -0.8147  0.7243 -0.2115
32176SOL     OW  889   5.750   4.948   0.364 -0.4619 -0.7161 -0.4351
32176SOL    HW1  890   5.810   5.002   0.313 -0.0165 -1.3344 -0.5838
32176SOL    HW2  891   5.677   5.006   0.385 -0.6266 -0.4342 -1.7266
32177SOL     OW  892  10.657   1.443  10.709  0.1111 -0.0403 -0.1171
32177SOL    HW1  893  10.751   1.457  10.698 -0.0710  2.3183  0.6880
32177SOL    HW2  894  10.622   1.446  10.620  0.7016 -0.0846 -0.3553
32178SOL     OW  895   7.920   7.283   0.435 -0.1466  0.6600  0.1761
32178SOL    HW1  896   7.857   7.332   0.383  0.6547  1.3216 -0.1820
32178SOL    HW2  897   8.001   7.334   0.430  0.5182 -0.3550  0.3400
32179SOL     OW  898   5.103   5.689   4.559 -0.0787 -0.4279  0.6925
32179SOL    HW1  899   5.112   5.667   4.466 -2.7303 -1.8369  0.6907
32179SOL    HW2  900   5.136   5.779   4.565  0.9043 -0.5761 -1.4183
32180SOL     OW  901  10.811   9.389   2.150 -0.1869 -0.1839  0.1017
32180SOL    HW1  902  10.838   9.335   2.225 -1.2613  4.0932  4.0335
32180SOL    HW2  903  10.716   9.396   2.159 -0.1941  1.4757 -0.8338
32181SOL     OW  904   2.790   9.362   6.691 -0.1451 -0.2249 -0.4320
32181SOL    HW1  905   2.883   9.375   6.708 -0.1946  0.3303 -0.5669
32181SOL    HW2  906   2.749   9.446   6.711 -0.9349 -1.0361  1.6708
32182SOL     OW  907  10.922   4.216   9.981 -0.4943 -0.1913  0.3359
32182SOL    HW1  908  10.883   4.223  10.068  2.0302  1.3567  1.4385
32182SOL    HW2  909  10.964   4.130   9.981 -0.1158 -0.0090  0.8230
32183SOL     OW  910  11.088   9.588   6.567  0.5090  0.2826 -0.0703
32183SOL    HW1  911  11.101   9.494   6.577 -0.8712 -0.0897 -1.4004
32183SOL    HW2  912  10.994   9.601   6.585 -0.0685  0.8705 -3.0410
32184SOL     OW  913   9.229   5.917   3.070 -0.1861 -0.7674 -0.2083
32184SOL    HW1  914   9.201   5.859   3.141 -1.3349  0.7332  0.6232
32184SOL    HW2  915   9.194   5.876   2.991 -0.3951 -1.5603  0.2782
32185SOL     OW  916   4.211   4.115   7.457 -0.0437  0.0228 -0.2605
32185SOL    HW1  917   4.305   4.099   7.461 -0.0251 -0.4132 -1.7635
32185SOL    HW2  918   4.198   4.162   7.375 -1.2611 -1.0326 -0.7134
32186SOL     OW  919   4.949   0.470   8.948  0.0848  0.4468  0.0367
32186SOL    HW1  920   4.942   0.377   8.968  0.7477  0.2156 -0.7585
32186SOL    HW2  921   4.859   0.502   8.951 -0.8696 -1.1850 -4.2492
32187SOL     OW  922   5.395   1.361   8.200 -0.5778 -0.2726  0.0153
32187SOL    HW1  923   5.397   1.405   8.115 -0.7337 -0.0424  0.1311
32187SOL    HW2  924   5.343   1.418   8.256 -1.1062 -0.7978  0.0645
32188SOL     OW  925   3.746   0.843   5.891  0.7326  0.5942 -0.0560
32188SOL    HW1  926   3.671   0.893   5.857 -0.5638 -0.6374  0.9118
32188SOL    HW2  927   3.775   0.893   5.967 -2.0959 -1.2182  2.4044
32189SOL     OW  928   4.609   0.772   1.238 -0.1004 -0.3073  0.3422
32189SOL    HW1  929   4.689   0.778   1.291 -0.6673 -0.2076  1.2006
32189SOL    HW2  930   4.615   0.685   1.197 -0.2907 -0.9511  1.6302
32190SOL     OW  931   8.497   3.442   4.965 -0.3817 -0.2409 -0.6952
32190SOL    HW1  932   8.538   3.409   4.885  1.3999 -0.1432  0.1412
32190SOL    HW2  933   8.424   3.381   4.981  1.3155 -2.3566 -0.5481
32191SOL     OW  934   2.174   5.013   4.113 -0.0576  0.0106 -0.4998
32191SOL    HW1  935   2.126   4.945   4.066 -0.2748 -0.3701  0.2564
32191SOL    HW2  936   2.223   5.059   4.045  1.9998 -2.4116 -0.8104
32192SOL     OW  937   6.785   7.545   9.255  0.4222 -0.2068  0.2191
32192SOL    HW1  938   6.764   7.610   9.188  2.3009 -1.4796 -1.7707
32192SOL    HW2  939   6.713   7.549   9.317 -1.8872  0.5115 -2.3174
32193SOL     OW  940   9.702  11.074   7.763 -0.8241 -0.2384  0.2848
32193SOL    HW1  941   9.783  11.055   7.811 -0.1289  1.4002 -0.1405
32193SOL    HW2  942   9.731  11.101   7.676 -2.0178 -2.2190 -0.7891
32194SOL     OW  943  10.961   4.147   9.608  0.4741  0.3348 -0.1793
32194SOL    HW1  944  10.913   4.093   9.670 -0.7864  1.8591  0.2328
32194SOL    HW2  945  11.033   4.091   9.578  0.7455 -0.6695  2.1314
32195SOL     OW  946   0.593   9.616   2.737  0.1313  0.2461  0.2606
32195SOL    HW1  947   0.533   9.639   2.808 -0.0393 -0.3549  0.3092
32195SOL    HW2  948   0.642   9.541   2.769  2.5071  2.0472  1.1181
32196SOL     OW  949   0.535   5.210   6.071  0.7478 -0.5346 -0.6597
32196SOL    HW1  950   0.533   5.177   5.982  1.3117 -0.0244 -0.8684
32196SOL    HW2  951   0.488   5.294   6.067 -0.2203 -1.0461 -0.2425
32197SOL     OW  952   5.769   4.230   9.598  0.0022  0.3901  0.0294
32197SOL    HW1  953   5.837   4.189   9.652 -0.2427  1.7258  1.4467
32197SOL    HW2  954   5.780   4.324   9.614 -1.4345  0.6956 -0.6203
32198SOL     OW  955   2.577   9.400   1.223 -0.2423  0.1109 -0.1106
32198SOL    HW1  956   2.551   9.466   1.287  1.7579  2.4827 -1.5384
32198SOL    HW2  957   2.670   9.417   1.209 -0.3450 -1.0895 -2.7508
32199SOL     OW  958   4.673   5.554   3.671 -0.0136  0.0666 -0.1214
32199SOL    HW1  959   4.635   5.607   3.602  1.0230  3.1131  1.4693
32199SOL    HW2  960   4.762   5.534   3.640  0.2514  0.9338  0.0605
32200SOL     OW  961   6.235  10.347   3.381 -0.4799 -0.1651 -0.1439
32200SOL    HW1  962   6.227  10.328   3.288 -0.8707 -0.4640 -0.0498
32200SOL    HW2  963   6.260  10.439   3.385  2.7297 -0.8883 -0.6746
32201SOL     OW  964   3.707   9.579   7.468  0.2833  0.0001 -0.5462
32201SOL    HW1  965   3.772   9.511   7.452  1.1001  0.7224 -0.3438
32201SOL    HW2  966   3.735   9.653   7.414 -1.0522 -0.0732 -1.4120
32202SOL     OW  967   1.556   7.773   4.718 -0.6248  0.2725 -0.1068
32202SOL    HW1  968   1.590   7.861   4.733  0.9722  0.1433 -2.3520
32202SOL    HW2  969   1.480   7.785   4.661 -1.5948  0.2827  1.1603
32203SOL     OW  970   7.459   8.581   2.096  0.4076 -0.4001  0.1648
32203SOL    HW1  971   7.514   8.600   2.020  0.1263 -1.7627 -0.4170
32203SOL    HW2  972   7.484   8.646   2.162 -0.3330  1.7467 -1.5541
32204SOL     OW  973   3.420   6.480   7.151  0.3184 -0.0139  0.1152
32204SOL    HW1  974   3.505   6.437   7.163  0.5122  0.5433  0.8315
32204SOL    HW2  975   3.414   6.541   7.224 -1.0106 -0.5335  0.4691
32205SOL     OW  976   2.078   4.228  10.277 -0.5328 -0.5602 -0.1105
32205SOL    HW1  977   2.062   4.281  10.355  0.5089  0.3837 -0.5241
32205SOL    HW2  978   2.060   4.287  10.204  0.0686 -0.9565 -0.5811
32206SOL     OW  979   4.374   2.494   8.605  0.0944  0.1779 -0.0786
32206SOL    HW1  980   4.434   2.504   8.678  1.2535  0.0134 -0.9725
32206SOL    HW2  981   4.304   2.557   8.622  0.5871  0.4760  0.9153
32207SOL     OW  982   8.982   6.570   9.324  0.1890  0.1449  0.0243
32207SOL    HW1  983   8.975   6.504   9.394 -0.1758  0.0266 -0.1217
32207SOL    HW2  984   9.038   6.638   9.361  0.1138  0.0158  0.3830
32208SOL     OW  985   3.438  10.131   8.701 -0.2136  0.4076  0.4899
32208SOL    HW1  986   3.385  10.053   8.682  0.0471  0.0024  1.3677
32208SOL    HW2  987   3.475  10.114   8.788  2.0470  0.2821 -0.4134
32209SOL     OW  988   0.247  10.253   8.528  0.2835 -0.3653 -0.1719
32209SOL    HW1  989   0.302  10.257   8.450  0.5137  1.9001  0.0485
32209SOL    HW2  990   0.169  10.206   8.500 -0.4932  2.0374 -2.3655
32210SOL     OW  991   7.960   2.011   7.603  0.6947 -0.4778  0.0367
32210SOL    HW1  992   8.028   1.974   7.547 -0.5738 -1.1607 -1.0941
32210SOL    HW2  993   8.008   2.045   7.679  2.4338  0.3344 -1.3664
32211SOL     OW  994   5.951   1.641   6.442 -0.5738 -0.0080 -1.2585
32211SOL    HW1  995   6.031   1.682   6.408 -1.0339  0.8855 -1.2707
32211SOL    HW2  996   5.882   1.704   6.425 -1.4139 -1.0687 -1.8670
32212SOL     OW  997   4.863   7.608   5.610  0.2002 -0.1677  0.2781
32212SOL    HW1  998   4.779   7.581   5.572  0.8974 -3.4478  0.7166
32212SOL    HW2  999   4.841   7.642   5.697 -0.7563 -0.2200  0.0599
32213SOL     OW 1000   1.531   9.517   8.962 -0.4501 -0.0283  0.5946
32213SOL    HW1 1001   1.453   9.531   8.909 -0.6992 -0.2534  0.8949
32213SOL    HW2 1002   1.501   9.461   9.034  0.1199 -0.6219  0.3827
32214SOL     OW 1003   6.062   4.606   3.857 -0.7866  0.0453  0.3676
32214SOL    HW1 1004   6.108   4.669   3.802 -0.0882  0.7639  1.7487
32214SOL    HW2 1005   6.083   4.631   3.946 -0.3562 -2.2241  0.9769
32215SOL     OW 1006   6.532   2.558   8.570 -0.6229 -0.2465 -0.0861
32215SOL    HW1 1007   6.456   2.608   8.540 -0.7901  0.3901  1.2991
32215SOL    HW2 1008   6.525   2.474   8.524 -0.8221  0.6526 -1.7914
32216SOL     OW 1009   9.368   0.880   5.691  0.2337 -0.0526  0.5734
32216SOL    HW1 1010   9.452   0.851   5.657  0.0840  0.6795 -0.4778
32216SOL    HW2 1011   9.390   0.931   5.770  0.9305  1.4186 -0.5279
32217SOL     OW 1012   6.398  10.026   5.283  0.2458 -0.1049  0.1718
32217SOL    HW1 1013   6.417  10.073   5.364  0.4919  0.9623 -0.4902
32217SOL    HW2 1014   6.448  10.072   5.216 -0.0495 -0.8987 -0.6143
32218SOL     OW 1015   1.502   8.716   3.912  0.1292  0.0326 -0.5313
32218SOL    HW1 1016   1.426   8.733   3.967  1.2932 -0.7796  1.4358
32218SOL    HW2 1017   1.563   8.669   3.969  3.0553  2.6174 -1.2493
32219SOL     OW 1018   2.644  11.041  10.332  0.6200 -0.0903 -0.2735
32219SOL    HW1 1019   2.678  11.121  10.371 -0.4516  0.7852 -1.0978
32219SOL    HW2 1020   2.721  10.998  10.295  1.2525  0.3646  0.4815
32220SOL     OW 1021   1.122   8.727  10.227 -0.0427 -0.2931  0.6263
32220SOL    HW1 1022   1.070   8.669  10.283  0.6863 -1.8333 -0.2055
32220SOL    HW2 1023   1.092   8.708  10.138  2.8604 -2.3799 -0.0445
32221SOL     OW 1024   0.448  10.660  10.149 -0.2890 -0.3001 -0.4522
32221SOL    HW1 1025   0.482  10.597  10.213  0.8037 -0.7315 -1.4181
32221SOL    HW2 1026   0.461  10.746  10.190 -3.2640 -0.6728  1.5839
32222SOL     OW 1027   1.189   1.897   7.162 -0.3011  0.2052  0.2197
32222SOL    HW1 1028   1.106   1.930   7.196 -0.0007  3.2852 -1.6435
32222SOL    HW2 1029   1.183   1.910   7.067  1.9087 -0.4648 -0.0742
32223SOL     OW 1030   5.092   8.165   9.774 -0.3238 -0.0757  0.1682
32223SOL    HW1 1031   5.009   8.131   9.808 -0.4510  0.0961  0.0325
32223SOL    HW2 1032   5.131   8.091   9.727  0.4171 -0.6777  1.6766
32224SOL     OW 1033   1.349   0.080   7.756  0.2463 -0.2528 -0.4012
32224SOL    HW1 1034   1.285   0.079   7.827  1.5107  0.8427  0.8127
32224SOL    HW2 1035   1.324   0.007   7.699 -1.3127 -0.6115  0.6937
32225SOL     OW 1036   2.012   9.866   2.854  0.0648  0.5137  0.4799
32225SOL    HW1 1037   2.079   9.908   2.907  1.1790 -1.5216  0.7766
32225SOL    HW2 1038   1.973   9.801   2.913 -0.8704  0.3879 -0.2667
32226SOL     OW 1039   2.308   4.818   9.695 -0.4441  0.1464  0.2697
32226SOL    HW1 1040   2.394   4.847   9.723 -0.3556 -1.0292  1.3397
32226SOL    HW2 1041   2.288   4.744   9.753 -1.5192 -0.5613 -0.9423
32227SOL     OW 1042   5.163   5.786   1.436  0.1203  0.2412 -0.4577
32227SOL    HW1 1043   5.148   5.811   1.527  1.3054 -0.3118 -0.0877
32227SOL    HW2 1044   5.185   5.693   1.440 -2.4116 -0.4778 -1.6083
32228SOL     OW 1045   2.561   5.019   4.560  0.2638 -0.1701  0.0247
32228SOL    HW1 1046   2.620   4.945   4.544  1.8517  1.1685 -0.6033
32228SOL    HW2 1047   2.551   5.061   4.475 -2.2709 -0.7803 -0.0355
32229SOL     OW 1048   4.131   4.041   5.324 -0.4112 -0.2451  0.1510
32229SOL    HW1 1049   4.101   4.040   5.233 -0.3376  0.5141  0.1112
32229SOL    HW2 1050   4.113   4.130   5.354 -1.0887 -0.6791  1.1043
32230SOL     OW 1051  10.471   9.061   8.742  0.1078  0.5822 -0.5597
32230SOL    HW1 1052  10.426   9.135   8.782  0.7503  1.1190 -0.8152
32230SOL    HW2 1053  10.510   9.014   8.815 -2.4797 -1.0495 -0.0975
32231SOL     OW 1054   3.779   6.891   0.199 -0.4195 -0.1372 -0.4022
32231SOL    HW1 1055   3.717   6.940   0.253 -1.0989 -0.2480 -1.0496
32231SOL    HW2 1056   3.861   6.892   0.248 -0.3868  1.7148 -0.4282
32232SOL     OW 1057   0.601   5.462   1.737  0.3258 -0.0555  0.0215
32232SOL    HW1 1058   0.539   5.534   1.723  0.3942  0.2219  1.0823
32232SOL    HW2 1059   0.558   5.385   1.700  1.0169  0.8142 -2.8505
32233SOL     OW 1060   6.272   8.750   7.766  0.6893  0.2507  0.1026
32233SOL    HW1 1061   6.241   8.840   7.765 -0.2691 -0.0612  0.1865
32233SOL    HW2 1062   6.357   8.752   7.722  0.4717  1.1166 -0.2792
32234SOL     OW 1063   6.591   1.430   1.116 -0.2449  0.7869 -0.1335
32234SOL    HW1 1064   6.504   1.423   1.078 -0.8899 -0.9199  1.4839
32234SOL    HW2 1065   6.624   1.340   1.118  1.3608  1.3357 -0.2383
32235SOL     OW 1066   1.760   0.721   2.942 -0.5933 -0.6629  0.6391
32235SOL    HW1 1067   1.808   0.691   2.865  0.0440 -1.3200  1.2727
32235SOL    HW2 1068   1.711   0.797   2.912 -0.9438 -1.3491 -0.6053
32236SOL     OW 1069   9.247   7.884   9.266  0.7447 -0.1324 -0.3941
32236SOL    HW1 1070   9.179   7.843   9.213  0.5272  2.6108 -2.4619
32236SOL    HW2 1071   9.324   7.829   9.252 -0.1379 -1.3141 -0.8476
32237SOL     OW 1072   8.355   7.684   0.504 -0.0187 -0.0511 -0.2159
32237SOL    HW1 1073   8.286   7.667   0.569 -0.7966  0.2127 -0.9529
32237SOL    HW2 1074   8.358   7.605   0.451 -0.6997  0.4475 -1.0177
32238SOL     OW 1075   0.664   9.242   0.284 -0.3378  0.2376  0.1357
32238SOL    HW1 1076   0.683   9.199   0.367  2.1965 -0.0347 -0.5034
32238SOL    HW2 1077   0.686   9.334   0.298  0.4816  0.1192 -0.3302
32239SOL     OW 1078   2.849   4.514   5.354 -0.1945  0.2137 -0.1850
32239SOL    HW1 1079   2.883   4.541   5.439 -1.6204  0.5629  0.3062
32239SOL    HW2 1080   2.826   4.596   5.310 -1.4562 -0.0233 -0.0197
32240SOL     OW 1081   8.067   8.757  10.083  0.0707  0.1055 -0.5879
32240SOL    HW1 1082   8.128   8.823  10.115  0.9535 -0.7802 -0.3852
32240SOL    HW2 1083   8.001   8.750  10.152  0.8964 -0.4088  0.1690
32241SOL     OW 1084   2.632   5.429   3.040  0.3141  0.1417  0.1482
32241SOL    HW1 1085   2.611   5.522   3.042  2.0982  0.6421 -1.2865
32241SOL    HW2 1086   2.574   5.392   2.973 -1.4614 -0.1513  1.7534
32242SOL     OW 1087   2.630  10.849   3.489  0.3748 -1.0033 -0.2258
32242SOL    HW1 1088   2.584  10.886   3.414 -0.5398  0.1761  0.8641
32242SOL    HW2 1089   2.717  10.827   3.455  0.1672  0.0030 -1.4975
32243SOL     OW 1090   5.738   0.397   1.891  0.4486  0.0360 -0.2324
32243SOL    HW1 1091   5.685   0.319   1.911  0.0637  0.2264 -0.5021
32243SOL    HW2 1092   5.778   0.420   1.975  0.5109 -0.4105 -0.1343
32244SOL     OW 1093   5.652   8.395  10.765  0.2162 -0.7331 -0.2826
32244SOL    HW1 1094   5.595   8.465  10.733 -0.5465 -1.3770 -0.3496
32244SOL    HW2 1095   5.592   8.327  10.796  0.9034 -2.3250 -2.2459
32245SOL     OW 1096   2.612   1.067   2.507  0.0703 -0.2807  0.4281
32245SOL    HW1 1097   2.592   1.161   2.506  1.5122  0.0880 -1.9140
32245SOL    HW2 1098   2.701   1.062   2.542  0.0541 -0.7530  0.4052
32246SOL     OW 1099   6.142   6.834   5.479 -0.1242 -0.3570  0.0056
32246SOL    HW1 1100   6.103   6.778   5.412  0.7639  1.9166 -2.6211
32246SOL    HW2 1101   6.082   6.909   5.486 -1.0244 -1.2258  3.0334
32247SOL     OW 1102   8.605   1.198   3.410 -0.2574 -0.6178 -0.3303
32247SOL    HW1 1103   8.677   1.137   3.425  0.4569  0.5636  1.5554
32247SOL    HW2 1104   8.587   1.235   3.497 -1.0263  1.4025 -1.2742
32248SOL     OW 1105   9.982   7.110   6.790  0.2831 -0.0874 -1.1162
32248SOL    HW1 1106   9.981   7.019   6.817  0.6308  0.5684  1.4026
32248SOL    HW2 1107  10.065   7.144   6.824 -0.5210  1.4992 -0.6291
32249SOL     OW 1108   5.360   8.957   4.948 -0.2793 -0.0675 -0.3614
32249SOL    HW1 1109   5.333   8.873   4.911 -0.1157 -0.6414  0.7699
32249SOL    HW2 1110   5.359   8.942   5.042 -0.3031  1.2278 -0.1449
32250SOL     OW 1111   7.517   1.686   5.008 -0.2182 -0.0401 -0.3569
32250SOL    HW1 1112   7.580   1.749   5.041  0.3454  0.4480 -2.2681
32250SOL    HW2 1113   7.568   1.628   4.952 -1.2939 -0.1968 -1.2036
32251SOL     OW 1114   1.919   9.496   5.033 -0.2045 -0.2642  0.2442
32251SOL    HW1 1115   2.015   9.488   5.038 -0.1941 -1.7361 -1.3754
32251SOL    HW2 1116   1.898   9.569   5.091  2.1880  2.0158 -1.5016
32252SOL     OW 1117   8.605   3.478   9.772 -0.1352 -0.3762 -0.3399
32252SOL    HW1 1118   8.567   3.390   9.769  0.0836 -0.4531 -1.5940
32252SOL    HW2 1119   8.558   3.527   9.705 -0.6315  0.6389  0.7168
32253SOL     OW 1120   8.302   0.651   9.776  0.0697 -0.3789  0.0819
32253SOL    HW1 1121   8.229   0.665   9.836 -0.5620  0.6030 -0.8937
32253SOL    HW2 1122   8.337   0.738   9.758 -0.0882 -0.5835 -1.3795
32254SOL     OW 1123   9.825   9.625  10.674  0.1792 -0.1702  0.2555
32254SOL    HW1 1124   9.866   9.711  10.675  0.4883 -0.2960  2.1372
32254SOL    HW2 1125   9.897   9.563  10.670 -0.0109 -0.3655 -0.2936
32255SOL     OW 1126   3.288   2.492   5.134 -0.0215  0.0648  0.1672
32255SOL    HW1 1127   3.370   2.520   5.174 -0.0644 -0.1938  0.4452
32255SOL    HW2 1128   3.301   2.398   5.117  0.5545  0.4751 -1.8189
32256SOL     OW 1129   2.305   7.541   3.551 -0.5451  0.3707 -0.6240
32256SOL    HW1 1130   2.364   7.475   3.516 -1.8563 -0.3344 -1.5703
32256SOL    HW2 1131   2.347   7.570   3.632  0.6637 -0.7057 -0.8378
32257SOL     OW 1132   4.983   0.287   4.049 -0.3310 -0.7440 -0.0130
32257SOL    HW1 1133   5.076   0.300   4.065  0.2420 -2.8020 -1.3426
32257SOL    HW2 1134   4.956   0.364   3.998  0.2854  0.5223  1.5154
32258SOL     OW 1135   0.010   4.770   8.475  0.3965 -0.3298 -0.4850
32258SOL    HW1 1136  -0.032   4.848   8.438  0.1867  0.2531  0.9477
32258SOL    HW2 1137   0.013   4.708   8.401  0.1447  0.8487 -1.5159
32259SOL     OW 1138   8.977   2.141   7.157 -0.6175  0.2951  0.4039
32259SOL    HW1 1139   9.017   2.067   7.112  0.1217 -0.3427  2.0178
32259SOL    HW2 1140   9.037   2.161   7.229 -1.4539  1.6245  0.7800
32260SOL     OW 1141   5.330   1.948  10.208 -0.7911  0.0538  1.0012
32260SOL    HW1 1142   5.305   1.962  10.117 -1.2405  0.5347  1.1856
32260SOL    HW2 1143   5.420   1.981  10.214 -1.0092  0.6869  0.8868
32261SOL     OW 1144   2.679  10.715   4.494 -0.0808 -1.4256  0.3094
32261SOL    HW1 1145   2.584  10.722   4.506 -0.3841  0.5558 -2.3888
32261SOL    HW2 1146   2.710  10.806   4.491  0.8716 -1.6179 -4.9449
32262SOL     OW 1147   2.589   0.390   0.281 -0.9795  0.2362 -0.2485
32262SOL    HW1 1148   2.638   0.472   0.288 -2.3113  1.2484 -1.8863
32262SOL    HW2 1149   2.621   0.349   0.202  0.2792 -1.3160  1.0051
32263SOL     OW 1150   6.828   0.668   0.687 -0.1638  0.3480  0.1527
32263SOL    HW1 1151   6.823   0.574   0.703  1.1204 -0.0020 -1.2174
32263SOL    HW2 1152   6.779   0.708   0.759 -0.0352 -1.3271  1.2254
32264SOL     OW 1153   3.895   5.954   6.870 -0.2344 -0.0506 -0.1804
32264SOL    HW1 1154   3.813   5.944   6.820 -0.3923  0.3396 -0.0054
32264SOL    HW2 1155   3.905   6.049   6.880 -0.2197 -0.1261  0.5561
32265SOL     OW 1156   8.504   6.603  10.868 -0.2424  0.1655  0.0437
32265SOL    HW1 1157   8.582   6.609  10.924 -0.4327  1.1855  0.2179
32265SOL    HW2 1158   8.539   6.607  10.779 -0.0445 -0.0651  0.1089
32266SOL     OW 1159   7.825   1.506   5.712 -0.0027  0.0912  0.1918
32266SOL    HW1 1160   7.819   1.510   5.807 -0.1941  1.3405  0.1425
32266SOL    HW2 1161   7.734   1.500   5.682  0.0789 -0.8388  0.0894
32267SOL     OW 1162  10.497   6.917   7.947  0.9496  0.0299  0.1075
32267SOL    HW1 1163  10.532   6.831   7.924  1.1660  0.1026  0.1670
32267SOL    HW2 1164  10.574   6.973   7.954  0.7594  0.4088 -0.6946
32268SOL     OW 1165   2.644   0.742   2.739 -0.5284 -0.0796  0.8783
32268SOL    HW1 1166   2.596   0.736   2.656 -0.7157 -0.6986  1.0270
32268SOL    HW2 1167   2.657   0.651   2.766  1.0009  0.0621  0.7042
32269SOL     OW 1168   7.074   5.421   1.119 -0.2830  0.0791 -0.3199
32269SOL    HW1 1169   7.060   5.465   1.035 -0.0339  0.3373 -0.2283
32269SOL    HW2 1170   7.096   5.492   1.180 -3.6132  0.3596  0.7674
32270SOL     OW 1171   9.420   0.035   0.035  0.1768  0.0614  0.0921
32270SOL    HW1 1172   9.385  -0.007   0.113  2.2389 -0.1466  0.9882
32270SOL    HW2 1173   9.402   0.128   0.047 -1.7553 -0.2119 -0.4467
32271SOL     OW 1174  10.651   4.373   7.380  0.6256 -0.7341 -0.4218
32271SOL    HW1 1175  10.628   4.316   7.454 -1.2256  1.1568  0.5427
32271SOL    HW2 1176  10.737   4.408   7.403  1.4616 -2.4954 -0.6834
32272SOL     OW 1177   2.309  10.974   5.027  0.2171  0.1018 -0.1305
32272SOL    HW1 1178   2.375  11.040   5.006 -0.7058  1.1073  0.0643
32272SOL    HW2 1179   2.342  10.930   5.105  1.0618  0.0186 -0.5293
32273SOL     OW 1180   3.469   9.848   8.569  0.0747 -0.2106  0.2400
32273SOL    HW1 1181   3.387   9.838   8.617 -0.6927 -0.6232 -1.1136
32273SOL    HW2 1182   3.537   9.821   8.631 -0.8428 -0.2624  1.2384
32274SOL     OW 1183   4.308   9.895   7.355 -0.9802  0.2104  0.3105
32274SOL    HW1 1184   4.301   9.847   7.273  2.0002  0.5130 -0.2458
32274SOL    HW2 1185   4.308   9.828   7.423  0.6458 -0.4319 -0.2806
32275SOL     OW 1186   0.664  10.600   3.118 -0.3916 -0.0245 -0.2451
32275SOL    HW1 1187   0.597  10.668   3.113  0.9180  1.2435 -3.5423
32275SOL    HW2 1188   0.735  10.638   3.169  0.5861  1.4897 -2.5672
32276SOL     OW 1189   7.654   0.132   4.925 -0.0286 -0.0288  0.4609
32276SOL    HW1 1190   7.687   0.221   4.935 -1.4566  0.4139  1.6061
32276SOL    HW2 1191   7.731   0.080   4.903  0.9133  1.4076  0.2703
32277SOL     OW 1192   3.483   4.512   3.466  0.4578  0.2515  0.0694
32277SOL    HW1 1193   3.511   4.510   3.558 -1.9937 -0.5636  0.8664
32277SOL    HW2 1194   3.492   4.603   3.440  0.7695  0.5783  1.2606
32278SOL     OW 1195   7.371   9.374   3.324  0.1647  0.2625  0.1512
32278SOL    HW1 1196   7.327   9.448   3.284 -0.9520 -0.9601 -0.9921
32278SOL    HW2 1197   7.386   9.400   3.414 -2.5557  0.9243  0.4938
32279SOL     OW 1198   6.295   2.346   8.736 -0.1831 -0.0716  0.6437
32279SOL    HW1 1199   6.207   2.382   8.754 -1.3817 -2.6905  0.4087
32279SOL    HW2 1200   6.336   2.341   8.822 -0.3478  0.8938  0.7937
32280SOL     OW 1201   3.932   5.616   9.269  0.3267 -0.3599  0.2155
32280SOL    HW1 1202   4.027   5.604   9.265  0.2811 -0.5204 -3.0769
32280SOL    HW2 1203   3.899   5.567   9.193 -2.0723  2.2731 -0.5859
32281SOL     OW 1204   4.496   7.258   2.666  0.5235  0.3969  0.2941
32281SOL    HW1 1205   4.406   7.291   2.665  0.5909  0.5942  0.8105
32281SOL    HW2 1206   4.516   7.243   2.758  1.0355  0.3868  0.1874
32282SOL     OW 1207   4.137   3.165   5.914  0.1808 -0.0095  0.3609
32282SOL    HW1 1208   4.067   3.141   5.975  0.3002 -0.7079  0.2338
32282SOL    HW2 1209   4.141   3.261   5.918 -0.4898  0.0104  0.6919
32283SOL     OW 1210  10.346   0.478   1.923 -0.8861  0.1637  0.7866
32283SOL    HW1 1211  10.301   0.418   1.984 -1.8659 -0.3151 -0.3601
32283SOL    HW2 1212  10.339   0.564   1.965 -1.1136 -0.2363  1.5877
32284SOL     OW 1213   4.872   3.071   4.238  0.4703 -0.0718 -0.2034
32284SOL    HW1 1214   4.901   3.075   4.147  0.2592 -1.0961 -0.3284
32284SOL    HW2 1215   4.825   3.153   4.252 -1.4572 -0.8300 -1.7223
32285SOL     OW 1216   3.730   6.740   9.030  0.0822 -0.0525  0.3341
32285SOL    HW1 1217   3.732   6.732   9.125 -0.3355 -2.9293  0.1958
32285SOL    HW2 1218   3.724   6.650   8.999 -1.1640  0.8733 -2.3913
32286SOL     OW 1219   9.507   5.940  10.484  0.0385  0.0900  0.0314
32286SOL    HW1 1220   9.467   5.853  10.485 -1.1181  0.5894 -0.2352
32286SOL    HW2 1221   9.598   5.925  10.462 -0.5773 -0.9031 -2.0408
32287SOL     OW 1222   1.580   7.581   3.827 -0.3021  0.4445 -0.5900
32287SOL    HW1 1223   1.600   7.663   3.783 -0.5521  0.4262 -0.7414
32287SOL    HW2 1224   1.660   7.528   3.817  0.3329  1.1400  0.6350
32288SOL     OW 1225  10.646   9.592   9.409 -0.5706 -0.3863  0.2606
32288SOL    HW1 1226  10.725   9.565   9.361 -1.7716 -0.1655 -2.0170
32288SOL    HW2 1227  10.649   9.688   9.407 -0.7791 -0.3772  0.3835
32289SOL     OW 1228  10.124  10.739  10.996 -0.5990  0.2855 -0.1332
32289SOL    HW1 1229  10.200  10.740  11.055 -2.5179 -0.8838  2.6023
32289SOL    HW2 1230  10.149  10.794  10.923  2.1471  1.5378  1.6033
32290SOL     OW 1231   1.807   4.170   9.653  0.0243  0.3137 -0.6345
32290SOL    HW1 1232   1.795   4.138   9.743 -0.7418  0.0292 -0.8325
32290SOL    HW2 1233   1.902   4.175   9.642  0.2084  3.0372  1.1468
32291SOL     OW 1234   5.123   6.818   1.736  0.1875 -0.4937  0.2333
32291SOL    HW1 1235   5.083   6.896   1.699  0.0411 -0.2622  0.8605
32291SOL    HW2 1236   5.215   6.841   1.747  0.0062 -0.1366  1.1001
32292SOL     OW 1237   7.106   5.574   2.004  0.3328  0.6188  0.2631
32292SOL    HW1 1238   7.045   5.500   1.996  0.9069  0.1949 -0.2945
32292SOL    HW2 1239   7.158   5.571   1.924  0.6769  1.3522  0.4496
32293SOL     OW 1240  10.488   7.631   1.597 -0.5268 -0.1997  0.4275
32293SOL    HW1 1241  10.561   7.582   1.635 -0.3044  0.1860  0.5131
32293SOL    HW2 1242  10.482   7.601   1.507  1.6490  1.8131 -0.5039
32294SOL     OW 1243   8.866   2.857   1.036 -0.2056 -0.0250  0.2261
32294SOL    HW1 1244   8.829   2.810   0.962 -3.9721  1.9186  0.6389
32294SOL    HW2 1245   8.867   2.793   1.107  0.7923 -1.1132 -0.7071
32295SOL     OW 1246   0.364   1.322   9.768 -0.6907 -0.5579  0.0225
32295SOL    HW1 1247   0.348   1.232   9.740 -1.9189 -0.1459 -0.6703
32295SOL    HW2 1248   0.278   1.363   9.765 -0.1998  0.5490  0.6840
32296SOL     OW 1249   3.737   3.108  10.907  0.5427 -0.0636  0.0899
32296SOL    HW1 1250   3.684   3.045  10.858  0.6790 -0.6937  0.7341
32296SOL    HW2 1251   3.676   3.178  10.929  0.8265  1.0178 -2.3024
32297SOL     OW 1252   2.630   4.258  10.381  0.0277 -0.0906 -0.2007
32297SOL    HW1 1253   2.706   4.200  10.370 -0.1635 -0.1162 -1.4859
32297SOL    HW2 1254   2.562   4.201  10.416  0.9932  0.2427  2.4439
32298SOL     OW 1255   5.083   8.992   7.177  0.0015 -0.0037  0.0580
32298SOL    HW1 1256   5.050   8.926   7.116 -2.5320  0.6404  0.6428
32298SOL    HW2 1257   5.024   8.989   7.251  2.4877 -0.1407  2.1891
32299SOL     OW 1258   3.451   8.206   6.999 -0.2409 -0.4206  0.0783
32299SOL    HW1 1259   3.539   8.243   7.003 -0.7150  0.6358  2.1053
32299SOL    HW2 1260   3.427   8.191   7.091 -1.1606 -3.2740 -0.5119
32300SOL     OW 1261   9.843  10.940   5.161 -0.1302 -0.2286 -0.0825
32300SOL    HW1 1262   9.908  10.881   5.123 -2.7500 -2.8364 -0.8398
32300SOL    HW2 1263   9.818  10.998   5.089  0.3715 -0.1062 -0.1607
32301SOL     OW 1264  10.231   4.757  11.022  0.1917 -0.0621  0.2452
32301SOL    HW1 1265  10.188   4.711  11.095 -0.7194  0.1531 -0.1414
32301SOL    HW2 1266  10.159   4.782  10.964  1.0169 -1.8313 -1.6822
32302SOL     OW 1267   3.327   4.431  10.899  0.2265  0.2488  0.3305
32302SOL    HW1 1268   3.381   4.460  10.973 -1.4121 -0.2991  1.8072
32302SOL    HW2 1269   3.253   4.492  10.898 -0.0640 -0.0975 -0.5135
32303SOL     OW 1270   7.162   9.616   8.965  1.0329  0.1220 -0.7371
32303SOL    HW1 1271   7.202   9.544   9.012 -0.0689 -0.2123 -0.2765
32303SOL    HW2 1272   7.234   9.658   8.918  2.2180  0.5943  1.3743
32304SOL     OW 1273   0.398   9.171   6.993  0.3313 -0.1388 -0.5159
32304SOL    HW1 1274   0.317   9.191   6.946  1.1418  1.5912 -1.3155
32304SOL    HW2 1275   0.459   9.240   6.964  1.8223 -0.8884  0.7007
32305SOL     OW 1276   0.775   9.262   4.500 -0.1026 -0.5711 -0.0733
32305SOL    HW1 1277   0.775   9.171   4.473 -0.3620 -0.8240  0.7577
32305SOL    HW2 1278   0.828   9.307   4.433 -1.5162 -0.9975 -1.5348
32306SOL     OW 1279   3.074   4.403   2.078  0.1004 -0.3293  0.7952
32306SOL    HW1 1280   3.082   4.379   1.986  0.6018 -0.1958  0.8042
32306SOL    HW2 1281   3.088   4.498   2.079 -0.7528 -0.1977  0.9023
32307SOL     OW 1282   7.318   8.205   5.706  0.5482  0.2650  0.4830
32307SOL    HW1 1283   7.315   8.301   5.706 -0.1348  0.2672  1.7594
32307SOL    HW2 1284   7.226   8.178   5.709  0.7574 -0.3811  2.1117
32308SOL     OW 1285   3.382   4.200   1.530 -0.5645 -0.0751 -0.3560
32308SOL    HW1 1286   3.421   4.242   1.607  2.1180  0.2267 -1.7673
32308SOL    HW2 1287   3.445   4.133   1.504 -2.3771 -1.5692 -1.1443
32309SOL     OW 1288  10.355   7.737   2.130 -0.3513  0.4544  0.1367
32309SOL    HW1 1289  10.297   7.795   2.180 -3.2057 -2.2954  0.3053
32309SOL    HW2 1290  10.429   7.721   2.189 -1.8020  0.2745  1.9918
32310SOL     OW 1291   5.554   8.087   5.917  0.2683 -0.3631 -0.0095
32310SOL    HW1 1292   5.613   8.097   5.842  1.0616 -1.0619  0.4964
32310SOL    HW2 1293   5.584   8.152   5.981  1.5371 -1.7426  0.8688
32311SOL     OW 1294   8.065   0.245   8.131 -0.3797  0.3443 -0.3591
32311SOL    HW1 1295   8.156   0.225   8.155 -0.2813  0.2983 -0.7633
32311SOL    HW2 1296   8.069   0.270   8.039 -0.5658  1.8158  0.0117
32312SOL     OW 1297   5.743   1.715   3.484  0.0710 -0.1573  0.0979
32312SOL    HW1 1298   5.699   1.679   3.562  1.4274  1.1497  1.5262
32312SOL    HW2 1299   5.811   1.651   3.464  2.1674  1.1599  2.3507
32313SOL     OW 1300   3.504   2.045   9.858 -0.5631 -0.6652 -0.4610
32313SOL    HW1 1301   3.521   2.057   9.764 -1.3873 -1.2703 -0.7003
32313SOL    HW2 1302   3.416   2.079   9.870  0.8290  3.0408  0.8715
32314SOL     OW 1303   7.643   5.125   1.710  0.2037  0.3632 -0.1335
32314SOL    HW1 1304   7.664   5.087   1.625  2.2333 -1.4911  1.0582
32314SOL    HW2 1305   7.727   5.156   1.743  0.0594 -1.4374  2.2373
32315SOL     OW 1306   4.541   6.239   6.461 -0.0700 -0.4109 -0.0194
32315SOL    HW1 1307   4.467   6.299   6.463  0.1946  0.0702 -2.0235
32315SOL    HW2 1308   4.535   6.197   6.375  1.7451 -0.6397 -0.0736
32316SOL     OW 1309   6.870   1.373   7.021 -0.2683  0.1041 -0.0418
32316SOL    HW1 1310   6.807   1.320   6.972 -1.1289  1.4617 -0.4364
32316SOL    HW2 1311   6.892   1.319   7.097 -0.9152 -0.9216 -0.5622
32317SOL     OW 1312   6.774   6.676   5.869  0.2405  0.1642 -0.0036
32317SOL    HW1 1313   6.755   6.724   5.950  0.7180 -0.8531  0.7280
32317SOL    HW2 1314   6.687   6.659   5.832 -0.0375 -0.0343  0.7032
32318SOL     OW 1315  10.118   7.656   8.095 -0.3106  0.1130  0.3696
32318SOL    HW1 1316  10.212   7.675   8.091 -0.5006  0.9319 -0.7609
32318SOL    HW2 1317  10.114   7.562   8.114  0.7994 -0.4076 -1.5992
32319SOL     OW 1318   6.624   1.933   6.738 -0.0917  0.8869  0.0178
32319SOL    HW1 1319   6.600   2.002   6.800 -0.8487 -0.6486  1.5243
32319SOL    HW2 1320   6.705   1.896   6.773 -0.5569 -0.0279  0.1763
32320SOL     OW 1321   1.442   4.178   7.760 -0.1406 -0.1031  0.5173
32320SOL    HW1 1322   1.532   4.168   7.793 -0.3080 -0.9390  0.7411
32320SOL    HW2 1323   1.412   4.261   7.798  0.9690  0.8372 -0.5855
32321SOL     OW 1324   2.051   6.119   0.009  0.0908 -0.4606 -0.7736
32321SOL    HW1 1325   2.019   6.186  -0.051 -0.6527 -0.4487 -0.3824
32321SOL    HW2 1326   1.992   6.045  -0.005 -0.1282 -0.4363 -0.0172
32322SOL     OW 1327   7.540   9.930   2.744  1.1892  0.1493 -0.4481
32322SOL    HW1 1328   7.632   9.914   2.766  0.6435  1.1286  3.4278
32322SOL    HW2 1329   7.496   9.846   2.760  1.1317  0.2521 -0.0406
32323SOL     OW 1330  10.303   5.498   2.494 -0.8557  0.5363  0.3480
32323SOL    HW1 1331  10.370   5.555   2.531 -0.4451  0.3064 -0.0210
32323SOL    HW2 1332  10.222   5.547   2.502 -0.3459  1.6790 -0.9971
32324SOL     OW 1333   7.323   4.870   7.581 -0.4564 -0.6011 -0.4274
32324SOL    HW1 1334   7.231   4.844   7.576 -1.0210  1.1906 -0.0293
32324SOL    HW2 1335   7.344   4.869   7.674 -0.1142 -0.8287 -0.5044
32325SOL     OW 1336   4.944   9.168  11.116 -0.1248  0.2116 -0.2306
32325SOL    HW1 1337   4.974   9.258  11.128  0.9942 -0.5402  4.0603
32325SOL    HW2 1338   5.023   9.119  11.095 -0.3503 -0.1361 -0.2713
32326SOL     OW 1339   7.326   9.452   9.386  0.3124 -0.2452 -0.0334
32326SOL    HW1 1340   7.299   9.415   9.470 -0.7997 -0.2250 -0.3730
32326SOL    HW2 1341   7.421   9.464   9.394  0.2160 -0.2765  1.1978
32327SOL     OW 1342   9.704   2.827   0.636  0.2080 -1.0073 -0.1589
32327SOL    HW1 1343   9.731   2.737   0.621 -1.2723 -1.5537  0.3244
32327SOL    HW2 1344   9.775   2.880   0.597  1.7223 -2.3359  0.6861
32328SOL     OW 1345   7.104   2.040   2.417  0.0442 -0.7394  0.2690
32328SOL    HW1 1346   7.092   2.116   2.361 -0.0261 -1.2661 -0.4373
32328SOL    HW2 1347   7.038   2.050   2.486 -0.5721 -0.6269 -0.3270
32329SOL     OW 1348   3.974   8.765   4.749  0.0796 -0.0284 -0.1100
32329SOL    HW1 1349   3.985   8.778   4.655 -0.6168 -0.8592 -0.3278
32329SOL    HW2 1350   4.016   8.840   4.790  1.9922 -0.5543 -1.0076
32330SOL     OW 1351   5.076   2.796   1.920 -0.1376 -0.1012 -0.0938
32330SOL    HW1 1352   5.028   2.874   1.892 -0.6081  0.3305  1.7519
32330SOL    HW2 1353   5.011   2.726   1.921 -0.0827 -0.1553 -0.2128
32331SOL     OW 1354  10.701   1.321   0.752 -1.2140  0.2153  0.0816
32331SOL    HW1 1355  10.784   1.295   0.713 -0.3406  1.6662  0.8571
32331SOL    HW2 1356  10.640   1.328   0.678  0.1484  1.9980 -0.9606
32332SOL     OW 1357   5.127   6.091   7.164  0.5725 -0.6436 -0.0655
32332SOL    HW1 1358   5.095   6.124   7.248  1.0098 -2.8847  1.0711
32332SOL    HW2 1359   5.222   6.103   7.168  0.7623 -2.0700  0.4494
32333SOL     OW 1360   5.432   2.987   4.080 -0.1307 -0.6965 -0.7061
32333SOL    HW1 1361   5.454   2.966   3.989 -1.0982  1.9985 -1.6587
32333SOL    HW2 1362   5.339   2.965   4.088  0.1131 -1.5753 -0.1166
32334SOL     OW 1363   4.699   9.062   4.398 -0.8855  0.1831  0.2534
32334SOL    HW1 1364   4.696   9.008   4.319  1.2409  0.4611 -0.0760
32334SOL    HW2 1365   4.625   9.031   4.451 -2.6420  0.2873 -1.9871
32335SOL     OW 1366   2.033   5.298   1.946  0.6448 -0.1783  0.2303
32335SOL    HW1 1367   2.090   5.367   1.981 -1.0036  1.0910  0.5571
32335SOL    HW2 1368   2.024   5.319   1.853  2.1079 -1.4301 -0.2258
32336SOL     OW 1369   2.960   4.059   1.457  0.4536  0.0878 -0.7293
32336SOL    HW1 1370   2.943   4.004   1.381 -0.7180 -0.1359 -0.3206
32336SOL    HW2 1371   2.993   4.141   1.420 -0.3945  0.0985 -1.5019
32337SOL     OW 1372  10.276   1.865  10.676  0.5870 -0.6031 -0.4269
32337SOL    HW1 1373  10.279   1.947  10.626 -0.7342 -1.1120 -1.3969
32337SOL    HW2 1374  10.208   1.880  10.742  0.1676 -0.9846 -0.7638
32338SOL     OW 1375   8.527   1.189   2.667 -0.0090  0.1642 -0.6870
32338SOL    HW1 1376   8.490   1.127   2.730 -1.4326  0.2772 -1.3475
32338SOL    HW2 1377   8.465   1.187   2.593  1.7582 -0.2187 -2.2468
32339SOL     OW 1378   8.099   2.828   4.803 -0.0721  0.8933 -0.2719
32339SOL    HW1 1379   8.074   2.862   4.717 -1.3873  0.2850 -0.1509
32339SOL    HW2 1380   8.080   2.735   4.798  1.3225  0.5590  0.1756
32340SOL     OW 1381   2.441   8.608   6.999  0.4709 -0.6176  0.0635
32340SOL    HW1 1382   2.398   8.535   7.044  1.4497 -0.0099  2.0970
32340SOL    HW2 1383   2.499   8.567   6.935 -1.3001 -1.4928 -1.0753
32341SOL     OW 1384   9.781   8.188   2.909 -0.0494  0.5930  0.2847
32341SOL    HW1 1385   9.859   8.230   2.872  1.4789 -0.9430  1.6133
32341SOL    HW2 1386   9.757   8.243   2.984  1.2412 -0.2111  1.3183
32342SOL     OW 1387   8.806   3.269  10.133 -0.0566  0.1361  0.1491
32342SOL    HW1 1388   8.715   3.244  10.147  0.1911 -0.5535  0.6243
32342SOL    HW2 1389   8.807   3.364  10.139 -0.5244  0.0682  1.5409
32343SOL     OW 1390   0.169  10.278   2.963  0.3695 -0.2767  0.2866
32343SOL    HW1 1391   0.213  10.345   3.015 -0.1731  1.1425 -1.0192
32343SOL    HW2 1392   0.098  10.324   2.919  2.4049 -0.6535 -3.9241
32344SOL     OW 1393   5.249  10.827   6.922 -0.1080  0.0355 -0.2826
32344SOL    HW1 1394   5.297  10.748   6.949 -0.3578 -1.0871 -2.8438
32344SOL    HW2 1395   5.160  10.812   6.953 -0.0737 -0.5446 -0.4398
32345SOL     OW 1396  10.819   3.320   0.556  0.5108 -0.0667 -0.0218
32345SOL    HW1 1397  10.751   3.261   0.589  1.2324 -1.5181 -1.0228
32345SOL    HW2 1398  10.773   3.403   0.541 -1.1254 -1.0579 -0.8734
32346SOL     OW 1399   7.638   0.760  10.373  0.8182  0.4079 -0.4491
32346SOL    HW1 1400   7.670   0.732  10.458  0.3655  0.8864 -0.1111
32346SOL    HW2 1401   7.543   0.762  10.382  0.7513  0.2107 -1.0461
32347SOL     OW 1402   3.275   9.691   6.700 -0.0181  0.4136  0.1802
32347SOL    HW1 1403   3.332   9.764   6.677  0.6904 -0.1678  0.0677
32347SOL    HW2 1404   3.282   9.683   6.795  1.4560 -0.7425  0.0064
32348SOL     OW 1405   1.855   7.768   6.522 -0.9104  0.1656 -0.5164
32348SOL    HW1 1406   1.837   7.827   6.595 -0.8958 -0.5028  0.0368
32348SOL    HW2 1407   1.770   7.756   6.479 -1.2018 -0.4956  0.2073
32349SOL     OW 1408  11.039   2.892   7.276  0.1654  0.6274 -0.4590
32349SOL    HW1 1409  11.112   2.917   7.333  0.3485  0.0871 -0.4480
32349SOL    HW2 1410  11.082   2.852   7.200 -0.1532 -0.9304  0.1517
32350SOL     OW 1411   8.515   7.038   7.653 -0.3417  0.3201  0.2516
32350SOL    HW1 1412   8.510   7.072   7.564 -1.6871  5.2906  1.8567
32350SOL    HW2 1413   8.455   6.964   7.654 -1.9441  1.4177 -2.5588
32351SOL     OW 1414   6.375   9.830   1.954 -0.0205  0.3963 -0.1841
32351SOL    HW1 1415   6.308   9.840   1.887 -0.9464 -1.1861  0.4541
32351SOL    HW2 1416   6.340   9.875   2.031 -0.6542 -0.9180  0.3250
32352SOL     OW 1417   0.921   4.705   0.291 -0.1461  0.5603 -0.5115
32352SOL    HW1 1418   0.915   4.678   0.200 -0.8664 -0.2330 -0.2317
32352SOL    HW2 1419   0.938   4.624   0.340 -0.5219  0.8620  0.1392
32353SOL     OW 1420   2.644   9.054   2.353  1.0314 -0.0444 -0.5154
32353SOL    HW1 1421   2.663   9.085   2.265  0.5170 -0.8602 -0.9274
32353SOL    HW2 1422   2.642   8.958   2.346 -0.9871 -0.0851 -0.0675
32354SOL     OW 1423   6.666   4.250   9.870 -0.4848  0.6864  0.0129
32354SOL    HW1 1424   6.585   4.248   9.922 -1.3917 -0.6554 -1.3578
32354SOL    HW2 1425   6.639   4.290   9.787  0.5904  1.4653  0.0290
32355SOL     OW 1426   7.385  11.051   1.843 -0.0212  0.3024 -0.0414
32355SOL    HW1 1427   7.349  11.109   1.776  0.5242  1.7039  0.8381
32355SOL    HW2 1428   7.322  11.056   1.916  1.0822  1.5185  0.8785
32356SOL     OW 1429  10.764   6.777   9.779 -0.7156  0.4151 -0.0563
32356SOL    HW1 1430  10.750   6.836   9.704  0.3595 -0.4059 -0.9348
32356SOL    HW2 1431  10.753   6.689   9.742  1.6529 -0.0760  0.3062
32357SOL     OW 1432   1.454   9.151   0.177 -0.2241 -0.2238 -0.0496
32357SOL    HW1 1433   1.473   9.140   0.270 -0.5203 -0.6431 -0.0346
32357SOL    HW2 1434   1.494   9.235   0.154 -0.1762 -0.1023  0.4609
32358SOL     OW 1435   7.021   1.598   3.986 -0.0015 -0.4889 -0.1660
32358SOL    HW1 1436   7.082   1.539   4.029  0.5629  0.4319  0.3169
32358SOL    HW2 1437   7.067   1.682   3.981 -1.3512  0.3381  0.5539
32359SOL     OW 1438  11.078   9.980   0.116 -0.1628  0.0623 -0.4607
32359SOL    HW1 1439  11.170   9.960   0.131  0.0608  0.7088 -0.9320
32359SOL    HW2 1440  11.043   9.902   0.072 -0.2254 -0.8146  1.0500
32360SOL     OW 1441  10.081   7.807   6.295  0.4090 -0.1636  0.2258
32360SOL    HW1 1442  10.083   7.877   6.230 -0.0583 -0.0115  0.3683
32360SOL    HW2 1443   9.999   7.822   6.343 -0.1113 -1.2925 -0.2759
32361SOL     OW 1444   5.705   1.902   8.645 -0.4970 -0.3312 -0.2167
32361SOL    HW1 1445   5.628   1.875   8.695 -0.1259  0.0278  0.5553
32361SOL    HW2 1446   5.736   1.982   8.688 -1.0386  0.8509 -1.9183
32362SOL     OW 1447   8.691   0.305   1.304  0.6994  0.4541 -0.0334
32362SOL    HW1 1448   8.661   0.346   1.385 -0.7254  0.9343 -0.7698
32362SOL    HW2 1449   8.651   0.358   1.235 -0.1005 -1.3975 -1.0386
32363SOL     OW 1450   7.511   8.664  10.723 -0.0999 -0.2782  0.0644
32363SOL    HW1 1451   7.525   8.732  10.788 -0.0105  0.9141 -1.1530
32363SOL    HW2 1452   7.445   8.607  10.762  1.4489 -0.8261  2.0553
32364SOL     OW 1453   3.871   4.609   5.765  0.4144  0.3240  0.3404
32364SOL    HW1 1454   3.952   4.559   5.779  1.1392  1.3830  0.0569
32364SOL    HW2 1455   3.823   4.601   5.848  0.2794 -1.2259  0.1359
32365SOL     OW 1456   3.051   7.195   7.021  0.1072  0.4334 -0.1523
32365SOL    HW1 1457   2.956   7.205   7.030  0.2541 -0.1353  3.0284
32365SOL    HW2 1458   3.088   7.257   7.084  1.6950 -1.6631  1.1390
32366SOL     OW 1459   8.573   8.792   6.620  0.0431 -0.6369  0.1103
32366SOL    HW1 1460   8.505   8.749   6.672  1.4091 -1.8541  0.9778
32366SOL    HW2 1461   8.570   8.884   6.648 -0.6209 -0.8639  0.8192
32367SOL     OW 1462   9.302   4.906   2.812  0.2499 -0.0095  0.2766
32367SOL    HW1 1463   9.284   4.812   2.812 -0.6333  0.1417 -0.5558
32367SOL    HW2 1464   9.394   4.913   2.835  0.6920 -1.1691 -1.0240
32368SOL     OW 1465   7.159   6.373   0.367 -0.1668 -0.1139  0.3756
32368SOL    HW1 1466   7.103   6.298   0.389 -1.2721  0.5348 -0.1293
32368SOL    HW2 1467   7.199   6.349   0.283 -1.0158  0.1012 -0.1085
32369SOL     OW 1468   7.954   8.314   5.891  0.3484 -0.2179  0.0340
32369SOL    HW1 1469   7.919   8.368   5.820 -1.6096  1.3960  2.0862
32369SOL    HW2 1470   8.043   8.348   5.904 -0.8148  2.7066  1.2620
32370SOL     OW 1471   9.884   6.926   5.571  0.7974 -0.1319  0.1885
32370SOL    HW1 1472   9.902   6.837   5.540  0.6155  0.0770 -0.5340
32370SOL    HW2 1473   9.797   6.947   5.537  0.5991  0.1135  0.8373
32371SOL     OW 1474   9.204   8.608   6.558  0.1167 -0.5753 -0.3073
32371SOL    HW1 1475   9.238   8.682   6.609 -1.3883 -1.5418  2.2906
32371SOL    HW2 1476   9.123   8.640   6.519 -1.0618 -1.0068  1.6220
32372SOL     OW 1477  10.414   9.819   7.205 -0.3681 -0.4284  0.1854
32372SOL    HW1 1478  10.386   9.741   7.158  0.3916 -1.2377  1.0335
32372SOL    HW2 1479  10.386   9.803   7.296  2.4531 -1.1456  1.0311
32373SOL     OW 1480   8.044   7.634   0.278  0.6262  0.2586 -0.2424
32373SOL    HW1 1481   8.119   7.686   0.248  1.7336 -0.7610  0.6060
32373SOL    HW2 1482   8.084   7.562   0.327 -1.0096  1.2598  2.7965
32374SOL     OW 1483   4.607  10.438   4.758  0.4278  0.1041  0.1657
32374SOL    HW1 1484   4.587  10.371   4.692 -0.9355 -1.4514  2.0402
32374SOL    HW2 1485   4.702  10.449   4.753  0.5246 -1.0162 -1.0824
32375SOL     OW 1486   1.243   9.141   4.921  0.6668  0.0300  0.4303
32375SOL    HW1 1487   1.276   9.118   4.835  0.6174  0.5045  0.2812
32375SOL    HW2 1488   1.237   9.057   4.968 -3.0242 -0.8443 -1.2862
32376SOL     OW 1489   1.653   8.407   5.216  0.6185  0.6099  0.1310
32376SOL    HW1 1490   1.682   8.332   5.165  0.9255  1.3734 -0.8474
32376SOL    HW2 1491   1.558   8.408   5.206  0.6190  0.3795  0.1080
32377SOL     OW 1492   0.280   6.089   7.623 -0.8016  0.3484  0.5447
32377SOL    HW1 1493   0.199   6.040   7.606 -0.0707 -0.8602  0.3959
32377SOL    HW2 1494   0.340   6.060   7.554 -0.1214  0.9282  0.8847
32378SOL     OW 1495   8.843  11.106   8.019  0.1495  0.6304 -0.4620
32378SOL    HW1 1496   8.884  11.020   8.018 -1.6120 -0.3147  1.3916
32378SOL    HW2 1497   8.753  11.090   7.989 -1.0030  1.2800  2.3798
32379SOL     OW 1498   7.160   0.483   4.794  0.3461 -0.5106 -0.2484
32379SOL    HW1 1499   7.167   0.568   4.751  1.8727  0.9329  2.6144
32379SOL    HW2 1500   7.085   0.441   4.751 -2.5529  3.5438  0.2629
32380SOL     OW 1501   9.155   1.430   7.747  0.1896 -0.2996  0.5773
32380SOL    HW1 1502   9.191   1.344   7.724  0.3763 -0.0794  0.0139
32380SOL    HW2 1503   9.138   1.472   7.662 -0.0693  0.1496  0.8462
32381SOL     OW 1504  10.936   5.529   5.954 -0.3405 -0.0524 -0.3388
32381SOL    HW1 1505  10.936   5.482   6.037  0.8983 -0.4680 -0.5427
32381SOL    HW2 1506  10.974   5.614   5.974 -0.6516  0.0893 -0.3549
32382SOL     OW 1507   0.369   1.124   1.235  0.6288 -0.3332  0.1765
32382SOL    HW1 1508   0.330   1.069   1.167  0.9229 -0.5967  0.2175
32382SOL    HW2 1509   0.378   1.066   1.311 -0.7020  0.2490  0.8048
32383SOL     OW 1510   2.181   5.921   1.878 -0.5120 -0.1471 -0.3411
32383SOL    HW1 1511   2.207   5.884   1.963 -0.7463  0.4698  0.0072
32383SOL    HW2 1512   2.089   5.946   1.890 -0.5363 -0.0252 -0.7699
32384SOL     OW 1513   0.765   2.391   3.266  0.0250  0.2393  0.6711
32384SOL    HW1 1514   0.710   2.374   3.190 -0.6603  2.0323  0.7197
32384SOL    HW2 1515   0.713   2.360   3.341  0.9031 -1.9710  0.4098
32385SOL     OW 1516   9.812   7.206   0.614  0.3270  0.1519 -0.2946
32385SOL    HW1 1517   9.854   7.137   0.666 -1.4332 -1.0630 -0.4152
32385SOL    HW2 1518   9.883   7.242   0.560  1.3099 -1.4615 -0.1385
32386SOL     OW 1519  11.012   7.788   9.080 -0.2669  0.5898  0.1684
32386SOL    HW1 1520  10.967   7.733   9.145 -0.7601  1.2271  0.3764
32386SOL    HW2 1521  10.957   7.784   9.002  0.4519 -0.3729 -0.3157
32387SOL     OW 1522  10.337   9.594   2.903 -0.0860  0.2611  0.1250
32387SOL    HW1 1523  10.341   9.645   2.984  0.2802  1.5066 -0.6562
32387SOL    HW2 1524  10.265   9.532   2.918 -0.7637  1.2175  0.9713
32388SOL     OW 1525   8.427  10.832   0.131 -0.1310  0.3458  0.3631
32388SOL    HW1 1526   8.458  10.775   0.061  0.1233  0.3996  0.4299
32388SOL    HW2 1527   8.474  10.914   0.118 -0.4851  0.5354  0.2764
32389SOL     OW 1528   1.954   8.184   1.964 -0.5627 -0.3851  0.5048
32389SOL    HW1 1529   2.001   8.187   1.881 -1.5250 -1.3880 -0.1109
32389SOL    HW2 1530   1.863   8.164   1.939 -0.9617 -0.2100  1.7637
32390SOL     OW 1531   2.158  10.294   7.866 -0.2871  0.0662  0.3290
32390SOL    HW1 1532   2.093  10.353   7.904 -1.2120 -1.2696  0.8693
32390SOL    HW2 1533   2.113  10.253   7.792  0.2521 -0.1979  0.1413
32391SOL     OW 1534   4.617   6.045   6.652  0.0482  0.4037 -0.0790
32391SOL    HW1 1535   4.696   6.073   6.699 -0.2154  0.1005  0.5674
32391SOL    HW2 1536   4.590   6.121   6.602  0.6189  0.5854 -0.1195
32392SOL     OW 1537   4.023   2.633   1.915  0.0372 -0.2216 -0.3832
32392SOL    HW1 1538   3.991   2.549   1.883 -0.8349 -0.1883  0.3647
32392SOL    HW2 1539   3.962   2.697   1.880  0.3170  0.0331 -0.4109
32393SOL     OW 1540  10.495   5.300   1.448 -0.3375  0.1468  0.4158
32393SOL    HW1 1541  10.574   5.290   1.502  0.3964 -2.1732 -0.9248
32393SOL    HW2 1542  10.430   5.243   1.489 -0.1137 -0.7921 -0.4828
32394SOL     OW 1543   0.879   5.205   0.984 -0.2712 -0.1776 -0.1189
32394SOL    HW1 1544   0.950   5.153   1.022  0.0764 -0.8822 -1.6340
32394SOL    HW2 1545   0.799   5.163   1.015 -0.0247 -0.1565  0.5730
32395SOL     OW 1546   3.924   3.761   8.788  0.2263 -0.4690 -0.1633
32395SOL    HW1 1547   3.985   3.825   8.825 -0.0178 -0.2440 -0.1494
32395SOL    HW2 1548   3.970   3.677   8.797  0.1758 -0.4173  0.6491
32396SOL     OW 1549   4.972  10.357   4.085  0.0523 -0.6167 -0.3193
32396SOL    HW1 1550   4.948  10.298   4.013 -0.0270  1.9549 -2.5535
32396SOL    HW2 1551   5.023  10.426   4.043 -0.4784  1.3077  2.0249
32397SOL     OW 1552  10.846   2.271  10.326 -0.0102  0.0646  0.1151
32397SOL    HW1 1553  10.848   2.318  10.409 -2.8555 -0.4017  0.5796
32397SOL    HW2 1554  10.858   2.179  10.351 -0.2395 -0.0117 -0.0528
32398SOL     OW 1555   7.190   2.051   6.765  0.1295  0.1892  0.1472
32398SOL    HW1 1556   7.254   2.015   6.704 -0.9666  1.8668 -2.1501
32398SOL    HW2 1557   7.105   2.030   6.726 -0.6806  0.2116  1.7966
32399SOL     OW 1558   5.955   1.067   2.390 -0.5573 -0.6899 -0.0766
32399SOL    HW1 1559   6.040   1.061   2.348 -0.6441  0.3956 -0.4335
32399SOL    HW2 1560   5.909   0.988   2.363 -0.6566  0.0138 -2.1485
32400SOL     OW 1561   5.589   6.796   9.256  0.0956 -0.2431  0.3111
32400SOL    HW1 1562   5.536   6.781   9.178 -1.6502  0.9437  1.1992
32400SOL    HW2 1563   5.670   6.837   9.223 -0.8844  0.8551 -0.8427
32401SOL     OW 1564  11.075   2.199   6.835 -0.0247 -0.0619 -0.2888
32401SOL    HW1 1565  11.095   2.202   6.929 -0.9521 -1.1241 -0.0388
32401SOL    HW2 1566  11.152   2.159   6.795  0.3301  0.2941  0.0294
32402SOL     OW 1567   5.183   5.216  10.891 -0.4992 -0.5884 -0.1327
32402SOL    HW1 1568   5.100   5.216  10.842  0.3152 -1.3893 -1.6050
32402SOL    HW2 1569   5.205   5.308  10.901 -2.3504 -0.2821  1.7533
32403SOL     OW 1570   1.444   5.267   4.293 -0.3908  0.1221  0.5707
32403SOL    HW1 1571   1.473   5.177   4.308 -1.6255 -0.0628  2.1434
32403SOL    HW2 1572   1.356   5.258   4.257 -0.5202  0.7000  0.7359
32404SOL     OW 1573   1.385   8.658  10.184  0.0641 -0.1964 -0.5219
32404SOL    HW1 1574   1.293   8.666  10.208  0.5667  2.6418  0.9710
32404SOL    HW2 1575   1.431   8.646  10.267  1.0786 -1.4825 -1.2335
32405SOL     OW 1576   5.709   7.226   6.349 -0.7972  0.3098  0.0245
32405SOL    HW1 1577   5.775   7.157   6.352  0.2707  1.3193  2.2631
32405SOL    HW2 1578   5.641   7.192   6.291  1.5707 -0.8437 -2.3112
32406SOL     OW 1579   7.040   3.057  10.576 -0.0474 -0.1315  0.5917
32406SOL    HW1 1580   6.998   3.110  10.643 -0.5592  0.3429 -0.0848
32406SOL    HW2 1581   7.130   3.045  10.607 -0.6181 -1.0557  1.9958
32407SOL     OW 1582   8.550   7.219   8.889  0.3214  0.4420  0.0401
32407SOL    HW1 1583   8.474   7.162   8.877  0.3038  0.2785  0.8608
32407SOL    HW2 1584   8.610   7.169   8.944  0.2381  1.2598  0.9023
32408SOL     OW 1585   8.551   9.735   5.957  0.1999  0.3787 -0.3879
32408SOL    HW1 1586   8.576   9.774   6.041 -0.6687  0.5430 -0.2001
32408SOL    HW2 1587   8.634   9.729   5.908  1.1656 -1.8394  1.3241
32409SOL     OW 1588   7.014   9.896   8.882 -0.5111 -0.0159 -0.2236
32409SOL    HW1 1589   7.045   9.806   8.875  1.3159  0.6178 -1.3120
32409SOL    HW2 1590   7.085   9.942   8.927 -0.6940  1.1599 -1.0719
32410SOL     OW 1591   6.793   3.159   0.821 -0.2374 -0.8712 -0.2110
32410SOL    HW1 1592   6.755   3.245   0.804 -0.1483 -0.5140  1.2289
32410SOL    HW2 1593   6.779   3.145   0.915 -0.3138 -2.4659 -0.4302
32411SOL     OW 1594   9.218   1.127   9.769  0.0513 -0.0895  0.1716
32411SOL    HW1 1595   9.131   1.151   9.738  0.7724  1.6719 -0.6103
32411SOL    HW2 1596   9.212   1.033   9.786 -1.9045 -0.0636 -0.1384
32412SOL     OW 1597   3.214   5.190   6.492 -0.1569 -0.6266  0.2866
32412SOL    HW1 1598   3.250   5.271   6.456 -0.5847 -0.6013 -0.0902
32412SOL    HW2 1599   3.285   5.154   6.545  0.7858 -1.0778 -1.2183
32413SOL     OW 1600   6.908   1.790   0.321 -0.2095  0.0091  0.1456
32413SOL    HW1 1601   6.860   1.722   0.274  0.4238  1.0858 -2.2353
32413SOL    HW2 1602   6.841   1.853   0.348 -0.5024 -0.2144 -0.0598
32414SOL     OW 1603   3.481  10.916   8.559 -0.4268 -0.1414 -0.3555
32414SOL    HW1 1604   3.535  10.861   8.618  0.5565  1.1273 -0.0303
32414SOL    HW2 1605   3.453  10.989   8.614 -2.4999 -0.7512 -0.5405
32415SOL     OW 1606   0.934   7.419   5.783  0.1636 -0.9250 -0.3380
32415SOL    HW1 1607   1.025   7.444   5.768  0.0466 -1.2829 -1.7171
32415SOL    HW2 1608   0.940   7.351   5.850  0.8687 -0.6243 -0.0789
32416SOL     OW 1609  10.641   2.858   7.837  0.6071  0.3670 -0.0686
32416SOL    HW1 1610  10.706   2.928   7.839  0.6169  0.3968 -0.9682
32416SOL    HW2 1611  10.622   2.846   7.744  1.2255 -1.4209  0.0103
32417SOL     OW 1612   8.297   9.456   3.245  0.2044 -0.5564  0.0645
32417SOL    HW1 1613   8.348   9.411   3.313  1.4198 -0.6072 -0.8462
32417SOL    HW2 1614   8.363   9.487   3.182 -0.8954 -0.8008 -1.2632
32418SOL     OW 1615   5.526   6.651   3.984  0.5203  0.1293  0.4401
32418SOL    HW1 1616   5.451   6.607   3.944 -0.3806  0.2361  1.9527
32418SOL    HW2 1617   5.489   6.729   4.026  1.5672  0.4649  0.7690
32419SOL     OW 1618   5.055   1.277   1.181  0.4704 -0.0283 -0.3067
32419SOL    HW1 1619   4.978   1.230   1.211  1.8419 -0.8353  2.2194
32419SOL    HW2 1620   5.129   1.226   1.213  2.0520  1.9641 -0.5599
32420SOL     OW 1621   1.398   8.681   9.844  0.2758 -0.2460 -0.3097
32420SOL    HW1 1622   1.310   8.716   9.856  0.2194 -0.4883  0.0026
32420SOL    HW2 1623   1.386   8.605   9.788  0.0029 -1.4963  1.3746
32421SOL     OW 1624  10.599   4.003   1.310  0.3792 -0.0211 -0.0620
32421SOL    HW1 1625  10.509   3.971   1.299 -0.0238  1.0646 -0.0323
32421SOL    HW2 1626  10.649   3.956   1.243 -0.6452  0.9984 -1.6071
32422SOL     OW 1627   8.363   0.249   0.729 -0.1990 -0.1950  0.3287
32422SOL    HW1 1628   8.279   0.240   0.773 -0.1537  0.9499  0.7075
32422SOL    HW2 1629   8.368   0.342   0.707 -0.5222 -0.7906 -2.7681
32423SOL     OW 1630   4.424   9.513   3.569  0.5224 -0.1040 -0.0199
32423SOL    HW1 1631   4.364   9.586   3.586  1.5005  0.2198  2.4553
32423SOL    HW2 1632   4.474   9.541   3.493 -1.3386  0.2908 -1.1804
32424SOL     OW 1633   4.520   4.644   3.156 -0.6549  0.0321 -0.3691
32424SOL    HW1 1634   4.520   4.564   3.104  0.0927 -0.3400  0.2026
32424SOL    HW2 1635   4.612   4.667   3.167 -0.8310  0.4985  0.1986
32425SOL     OW 1636   3.691   5.175   8.676 -0.4252 -0.1322 -0.5917
32425SOL    HW1 1637   3.768   5.198   8.729  0.7594 -0.5745 -2.0564
32425SOL    HW2 1638   3.616   5.206   8.728  0.6971 -0.1075  1.0950
32426SOL     OW 1639   5.838   5.445   9.094  0.5010  0.2561  0.4581
32426SOL    HW1 1640   5.817   5.399   9.175  0.9436 -1.2339 -0.2412
32426SOL    HW2 1641   5.839   5.537   9.118 -0.2588 -0.1004  1.9425
32427SOL     OW 1642   6.177   3.497   5.874 -0.3248 -0.2993 -0.2919
32427SOL    HW1 1643   6.084   3.504   5.853 -0.1267  2.9929 -0.7173
32427SOL    HW2 1644   6.215   3.448   5.801 -0.9379  3.5892 -3.6000
32428SOL     OW 1645   9.416   7.505   4.768 -0.0435  0.3684 -0.0897
32428SOL    HW1 1646   9.446   7.417   4.792 -2.2670 -0.2244  0.8203
32428SOL    HW2 1647   9.438   7.513   4.675 -1.6623 -2.0740 -0.7851
32429SOL     OW 1648   4.742   7.026   7.013  0.6558 -0.2981  0.0152
32429SOL    HW1 1649   4.654   6.988   7.017  0.2308  0.7412  1.0488
32429SOL    HW2 1650   4.792   6.976   7.077  0.1353  0.6965  1.2632
32430SOL     OW 1651   2.018   3.985   8.333 -0.2763  0.0254  0.1157
32430SOL    HW1 1652   2.066   4.065   8.312 -2.4828  1.2483 -0.5345
32430SOL    HW2 1653   2.076   3.937   8.392  1.5461  1.5975 -0.3129
32431SOL     OW 1654  11.027   1.047   3.272 -0.1762  0.3282  0.0632
32431SOL    HW1 1655  11.080   1.023   3.348 -0.5811  2.8998  1.2605
32431SOL    HW2 1656  11.088   1.092   3.214  0.1184 -1.5745 -1.2098
32432SOL     OW 1657   0.691   1.907   2.161 -0.2675 -0.6455  0.5392
32432SOL    HW1 1658   0.785   1.924   2.169 -0.3325 -0.4641  0.9127
32432SOL    HW2 1659   0.650   1.994   2.163 -0.5389 -0.7799  1.6718
32433SOL     OW 1660   7.604   2.449   7.661 -0.3937  0.3310  0.4928
32433SOL    HW1 1661   7.672   2.503   7.621 -0.3365  0.2210  0.4429
32433SOL    HW2 1662   7.562   2.404   7.588 -1.6445  1.6658  0.3250
32434SOL     OW 1663   2.006   2.589  10.039  0.4985  0.1505 -0.1264
32434SOL    HW1 1664   2.030   2.656   9.975 -0.5699  1.9839  1.2896
32434SOL    HW2 1665   1.910   2.591  10.040  0.4679 -1.0348  0.3476
32435SOL     OW 1666   6.644   0.054   3.678 -0.1665  0.1525  0.1692
32435SOL    HW1 1667   6.557   0.053   3.718  0.1013 -0.7800  0.7551
32435SOL    HW2 1668   6.633   0.107   3.599 -1.6542 -1.2620 -0.6406
32436SOL     OW 1669   3.998   6.904   5.862 -0.2220 -0.0733 -0.4406
32436SOL    HW1 1670   4.016   6.996   5.879 -2.0438  0.3892 -0.7861
32436SOL    HW2 1671   4.023   6.891   5.771  3.0828 -0.8099  0.4433
32437SOL     OW 1672   4.872   2.697  10.589 -0.0178 -0.4534 -0.3895
32437SOL    HW1 1673   4.908   2.767  10.535 -1.8115  2.3579  1.7638
32437SOL    HW2 1674   4.935   2.688  10.661 -0.5505  0.1118  0.1591
32438SOL     OW 1675   3.683   0.516   6.822 -0.5215 -0.3111 -0.3137
32438SOL    HW1 1676   3.737   0.506   6.743  0.4285  1.3859  0.0694
32438SOL    HW2 1677   3.603   0.558   6.791 -0.1495  0.3559 -0.3867
32439SOL     OW 1678   3.171   7.778   5.103 -0.3406  0.4554 -0.1623
32439SOL    HW1 1679   3.179   7.793   5.009  1.0988 -0.6817 -0.2456
32439SOL    HW2 1680   3.121   7.854   5.135 -0.3845  1.1307 -1.7445
32440SOL     OW 1681   9.988   0.839   0.296  0.1104  0.4932  0.2229
32440SOL    HW1 1682   9.958   0.868   0.382 -0.6667 -1.5793  0.7171
32440SOL    HW2 1683  10.083   0.835   0.303 -0.0088 -1.2239  1.5979
32441SOL     OW 1684   5.579  10.574   1.859  0.3228  0.2085 -0.3626
32441SOL    HW1 1685   5.520  10.499   1.851  0.0711  0.2078  1.2630
32441SOL    HW2 1686   5.523  10.651   1.844  0.5611  0.1090 -1.9291
32442SOL     OW 1687   6.006   4.423  10.973  0.4048 -0.1446 -0.2421
32442SOL    HW1 1688   5.968   4.336  10.958 -1.7862  0.5080  1.0488
32442SOL    HW2 1689   6.048   4.416  11.058 -0.1737  0.1443  0.0781
32443SOL     OW 1690   8.293   8.410   7.351 -0.0373 -0.3960 -0.2009
32443SOL    HW1 1691   8.230   8.458   7.297  0.8734  0.4924 -0.5130
32443SOL    HW2 1692   8.371   8.467   7.352  0.0885 -0.5537  1.7669
32444SOL     OW 1693   9.437   8.532   3.945  0.0657 -0.0528 -0.6263
32444SOL    HW1 1694   9.344   8.551   3.952  0.0836 -0.0411 -0.3813
32444SOL    HW2 1695   9.442   8.452   3.893 -0.0612  0.1344 -0.9303
32445SOL     OW 1696   3.840   3.644   7.688  0.3013  0.4403  0.0183
32445SOL    HW1 1697   3.759   3.644   7.637 -0.6496  0.0491  1.4686
32445SOL    HW2 1698   3.905   3.685   7.630 -0.0352 -2.2876 -2.4896
32446SOL     OW 1699   2.537  10.187   1.166  0.3165  0.0199  0.2464
32446SOL    HW1 1700   2.586  10.155   1.090 -1.5617  1.5183 -1.7278
32446SOL    HW2 1701   2.588  10.261   1.198  0.5312  0.1296 -0.3344
32447SOL     OW 1702   5.822   8.132   7.354  0.1759 -0.0103 -0.5393
32447SOL    HW1 1703   5.826   8.211   7.407 -0.6127 -0.8737  0.8668
32447SOL    HW2 1704   5.893   8.142   7.290  0.6335  1.4236  0.1634
32448SOL     OW 1705   8.830   1.240   9.822  0.1304 -0.0716  0.1456
32448SOL    HW1 1706   8.897   1.225   9.755  1.5490 -0.1634  1.5117
32448SOL    HW2 1707   8.828   1.159   9.872 -1.1573 -0.1281  0.0193
32449SOL     OW 1708   3.477   9.513  10.597 -0.1868  0.2932 -0.1718
32449SOL    HW1 1709   3.545   9.575  10.569  0.9600 -1.0018 -0.3731
32449SOL    HW2 1710   3.416   9.510  10.524  0.2870  0.4543 -0.5830
32450SOL     OW 1711   4.536   3.278  10.871  0.2575  0.5513  0.1675
32450SOL    HW1 1712   4.487   3.324  10.802  1.0611  0.4108 -0.5182
32450SOL    HW2 1713   4.530   3.336  10.947 -2.5116 -0.2985  0.6944
32451SOL     OW 1714  10.720   3.864   3.360  0.0468 -0.1222 -0.0852
32451SOL    HW1 1715  10.694   3.889   3.449 -0.6676 -0.9719 -0.0504
32451SOL    HW2 1716  10.638   3.863   3.310  0.3270 -0.4861 -0.5470
32452SOL     OW 1717   1.899   0.896   6.416 -0.2689 -0.5214  0.1565
32452SOL    HW1 1718   1.987   0.888   6.380 -0.3849  1.9063 -0.8180
32452SOL    HW2 1719   1.842   0.852   6.353  0.0536 -0.4674 -0.1735
32453SOL     OW 1720   9.223   1.944   8.271  0.2620  0.0675  0.1725
32453SOL    HW1 1721   9.251   1.910   8.186  0.3331  0.7573 -0.0875
32453SOL    HW2 1722   9.131   1.919   8.278 -0.2793  1.5691 -0.9426
32454SOL     OW 1723   3.327   7.844   9.313  0.7358  0.3598 -0.2080
32454SOL    HW1 1724   3.268   7.815   9.243 -0.8870 -0.4268  1.3789
32454SOL    HW2 1725   3.409   7.799   9.296 -0.6145 -2.4638  0.1284
32455SOL     OW 1726   9.144   6.570   5.287 -0.2546  0.7723 -0.7212
32455SOL    HW1 1727   9.098   6.494   5.324  2.0304 -1.1855 -1.6166
32455SOL    HW2 1728   9.113   6.575   5.197  0.6206 -0.0291 -1.0810
32456SOL     OW 1729   1.888   2.792   8.196  0.2109 -0.5792  0.3381
32456SOL    HW1 1730   1.945   2.844   8.253  1.2303 -0.4767 -0.7361
32456SOL    HW2 1731   1.910   2.701   8.215  0.4516 -0.5470  0.2186
32457SOL     OW 1732   5.113   3.129   0.561 -0.1914 -0.3113  0.6934
32457SOL    HW1 1733   5.202   3.099   0.545 -0.0834  0.7057 -0.7815
32457SOL    HW2 1734   5.069   3.055   0.604  0.7792 -1.5704 -0.4167
32458SOL     OW 1735   3.263   4.180   1.163 -0.3331 -0.1216 -0.1596
32458SOL    HW1 1736   3.182   4.217   1.128  0.6719  1.1608 -1.2170
32458SOL    HW2 1737   3.251   4.085   1.155 -0.4371  0.0649 -3.5193
32459SOL     OW 1738  10.731   6.988   5.492 -0.1152  0.9874 -0.3692
32459SOL    HW1 1739  10.671   7.058   5.514  0.6353  0.8520  2.4093
32459SOL    HW2 1740  10.818   7.024   5.509  0.6028  0.7268 -2.9952
32460SOL     OW 1741   1.484   5.802   9.702  0.4246  0.2646  0.1473
32460SOL    HW1 1742   1.424   5.849   9.759  0.5990  0.6538  0.0180
32460SOL    HW2 1743   1.440   5.719   9.683  0.6412 -0.1394  1.3467
32461SOL     OW 1744   3.515   1.546   5.880 -0.4256 -0.4245  0.0704
32461SOL    HW1 1745   3.493   1.625   5.929  0.8754 -0.5579  0.9150
32461SOL    HW2 1746   3.549   1.485   5.946  0.8786 -0.7941 -0.8908
32462SOL     OW 1747  10.540   5.471   7.727  0.1285  0.0679 -0.5001
32462SOL    HW1 1748  10.600   5.482   7.801 -1.6905  1.7967  0.8631
32462SOL    HW2 1749  10.503   5.384   7.738  0.4888 -0.0066  0.1681
32463SOL     OW 1750   9.312   8.211   2.236 -0.1055  0.0553  0.2027
32463SOL    HW1 1751   9.337   8.166   2.316 -1.0419  0.3430  0.6703
32463SOL    HW2 1752   9.337   8.302   2.251 -0.0281  0.0608  0.0467
32464SOL     OW 1753   0.122   7.817   5.327 -0.0008 -0.3304 -0.2069
32464SOL    HW1 1754   0.047   7.791   5.380 -0.5441  0.8167 -0.3742
32464SOL    HW2 1755   0.084   7.871   5.256  0.6471 -2.1179 -2.0068
32465SOL     OW 1756   8.649   5.700   1.837 -0.2957  0.0698 -0.1417
32465SOL    HW1 1757   8.692   5.785   1.846 -0.7487  0.3458 -0.4932
32465SOL    HW2 1758   8.704   5.652   1.775 -0.2301  0.2400 -0.2159
32466SOL     OW 1759   5.377   0.539   2.556  0.5345  0.1894  0.1446
32466SOL    HW1 1760   5.394   0.602   2.486  0.3283  1.0967  0.8936
32466SOL    HW2 1761   5.286   0.553   2.581  1.0558  1.0325  1.6967
32467SOL     OW 1762  10.581  10.528   0.309  0.1018  0.4660  0.5122
32467SOL    HW1 1763  10.586  10.489   0.397  0.2148  0.5103  0.5259
32467SOL    HW2 1764  10.645  10.479   0.257 -0.8559 -0.4054  0.1241
32468SOL     OW 1765   1.434   5.618   4.821  0.1337 -0.4352  0.2797
32468SOL    HW1 1766   1.454   5.710   4.808  1.1398 -0.8345 -1.3867
32468SOL    HW2 1767   1.391   5.614   4.906 -1.4550  1.7879 -0.3177
32469SOL     OW 1768  10.030   9.484   7.048 -0.3848 -0.5555  0.6304
32469SOL    HW1 1769   9.988   9.486   6.962 -0.5656  0.5206  0.7300
32469SOL    HW2 1770   9.972   9.428   7.101 -0.6516 -0.6470  0.2494
32470SOL     OW 1771   4.231   6.305   9.414 -0.1612  0.2682 -0.2923
32470SOL    HW1 1772   4.148   6.308   9.461  0.5180 -0.0026  0.9650
32470SOL    HW2 1773   4.214   6.353   9.333 -1.3555  0.7748  0.2300
32471SOL     OW 1774  10.524   6.749  10.032  0.0747  0.4620 -0.1514
32471SOL    HW1 1775  10.509   6.657  10.054 -1.3996  0.9463  1.0132
32471SOL    HW2 1776  10.601   6.747   9.975  0.5043 -1.4134  0.4061
32472SOL     OW 1777   5.624   0.346   5.953  0.5085  0.2165 -0.2156
32472SOL    HW1 1778   5.555   0.363   6.018 -0.1091  0.4921 -0.9330
32472SOL    HW2 1779   5.578   0.312   5.877  1.2370 -0.1492 -0.5037
32473SOL     OW 1780   7.617   0.380  10.421  0.2084 -0.4547  0.0377
32473SOL    HW1 1781   7.555   0.447  10.451 -1.9115 -1.5646 -1.5142
32473SOL    HW2 1782   7.561   0.307  10.393  2.2418 -1.4709 -1.6512
32474SOL     OW 1783   7.572   2.127   8.043 -0.3974  0.0132 -1.2605
32474SOL    HW1 1784   7.499   2.147   8.101  1.2606  1.8911  0.3684
32474SOL    HW2 1785   7.550   2.042   8.004 -2.3354 -0.6128  0.9496
32475SOL     OW 1786   7.720   9.722   9.909 -0.2829 -0.5948 -0.1013
32475SOL    HW1 1787   7.664   9.769   9.971 -1.5780 -1.2496 -0.7296
32475SOL    HW2 1788   7.723   9.778   9.832 -2.4194 -1.7652 -1.1268
32476SOL     OW 1789   8.662   1.316   4.788  0.5772  0.4622 -0.1531
32476SOL    HW1 1790   8.641   1.246   4.850  2.6600 -0.2768 -0.2110
32476SOL    HW2 1791   8.625   1.395   4.827 -1.4127 -0.5503  0.1573
32477SOL     OW 1792   9.988   5.979   8.686 -0.1289  0.0956  0.4011
32477SOL    HW1 1793   9.998   6.035   8.763  1.3744 -1.0152  1.0759
32477SOL    HW2 1794  10.059   6.003   8.628 -0.7811  0.3739 -0.2991
32478SOL     OW 1795   8.850   3.129   5.595 -0.2312 -0.0169  0.2530
32478SOL    HW1 1796   8.858   3.193   5.666 -0.2879 -0.6041  0.7893
32478SOL    HW2 1797   8.830   3.047   5.639 -1.9541 -0.0644 -0.5473
32479SOL     OW 1798   8.271   0.544   4.167 -0.4946 -0.0717 -0.6286
32479SOL    HW1 1799   8.277   0.462   4.118 -2.4655 -0.0604 -0.9481
32479SOL    HW2 1800   8.297   0.611   4.104  0.6273 -0.3786 -0.5173
32480SOL     OW 1801   8.865   4.939   4.416  0.2335 -0.1489 -0.0521
32480SOL    HW1 1802   8.786   4.913   4.464  0.1753 -0.0223 -0.0793
32480SOL    HW2 1803   8.923   4.863   4.423 -0.0912 -0.4433 -0.4693
32481SOL     OW 1804   9.178   3.996   3.918 -0.0711  0.2519  0.3921
32481SOL    HW1 1805   9.115   4.067   3.926 -0.6688 -0.2701  0.3849
32481SOL    HW2 1806   9.259   4.032   3.954 -0.2617  1.0604  0.0395
32482SOL     OW 1807   0.128   6.580   5.909 -0.1601  0.0205 -0.5919
32482SOL    HW1 1808   0.181   6.652   5.875  0.4934 -0.1715  0.0050
32482SOL    HW2 1809   0.129   6.515   5.839 -2.5985  1.4216 -2.1116
32483SOL     OW 1810  10.242   2.895   3.841 -0.3416  0.0905  0.0212
32483SOL    HW1 1811  10.281   2.823   3.890 -1.8710 -0.0740  1.0891
32483SOL    HW2 1812  10.295   2.972   3.862 -0.9378  0.0132  1.9730
32484SOL     OW 1813  10.197   0.884   0.980 -0.8322  0.5476 -0.2844
32484SOL    HW1 1814  10.192   0.951   1.049  2.4371 -0.2076  0.9151
32484SOL    HW2 1815  10.280   0.903   0.936  0.7524 -3.1348  0.7386
32485SOL     OW 1816   1.199   2.083  10.026  0.0834 -0.6606 -0.3506
32485SOL    HW1 1817   1.157   2.060  10.109 -0.2795 -3.8379 -1.2697
32485SOL    HW2 1818   1.129   2.122   9.974 -0.3430 -0.9221  0.0124
32486SOL     OW 1819  11.038   5.035   3.832  0.3370 -0.0679  0.2769
32486SOL    HW1 1820  11.099   5.065   3.764  0.1383 -2.3557 -1.0129
32486SOL    HW2 1821  11.095   5.000   3.900  0.5241 -1.5848 -0.6233
32487SOL     OW 1822   4.134   8.800   9.807 -0.2870  0.0234 -0.1873
32487SOL    HW1 1823   4.109   8.737   9.874  1.6720  1.0354  1.5971
32487SOL    HW2 1824   4.066   8.868   9.811 -0.5379 -0.2512  0.2927
32488SOL     OW 1825   8.099   2.431   2.032 -0.4791 -0.1480 -0.0216
32488SOL    HW1 1826   8.046   2.500   2.070 -0.4646  0.4824 -1.1058
32488SOL    HW2 1827   8.117   2.371   2.104 -1.0688  0.6204  0.7716
32489SOL     OW 1828   5.392   5.369   3.981 -0.1926  0.1124 -0.8316
32489SOL    HW1 1829   5.344   5.385   4.062 -0.0025 -0.9445 -0.4925
32489SOL    HW2 1830   5.407   5.274   3.981  0.2520  0.1768 -1.8535
32490SOL     OW 1831   8.376   4.160   3.326  0.2724 -0.4344  0.0486
32490SOL    HW1 1832   8.364   4.129   3.415  0.7716 -0.5982  0.0608
32490SOL    HW2 1833   8.303   4.123   3.277  0.0026 -0.3503  0.3835
32491SOL     OW 1834   9.569   3.996   0.421  0.5728 -0.1423  0.0508
32491SOL    HW1 1835   9.662   3.975   0.429  0.4922 -0.7086 -0.4161
32491SOL    HW2 1836   9.545   3.965   0.333 -0.5797 -2.1003  0.9842
32492SOL     OW 1837   8.172  11.012   3.117 -0.1928 -0.4876 -0.1695
32492SOL    HW1 1838   8.187  10.967   3.034 -0.9413 -2.0003  0.4898
32492SOL    HW2 1839   8.252  10.997   3.167 -0.2168 -0.5941 -0.1631
32493SOL     OW 1840   8.551   5.889   6.506 -0.2849  0.2434 -0.3428
32493SOL    HW1 1841   8.561   5.800   6.540 -1.6856 -0.0179 -0.5373
32493SOL    HW2 1842   8.591   5.945   6.573 -0.8062 -0.4281  0.5565
32494SOL     OW 1843   9.172   4.269   7.017  0.2495  0.7765 -0.2313
32494SOL    HW1 1844   9.242   4.220   7.061  1.0386  1.5646 -0.5902
32494SOL    HW2 1845   9.216   4.318   6.948 -0.7243  0.9543 -0.7425
32495SOL     OW 1846   2.467  10.551  10.974  0.0089  0.0386  0.0967
32495SOL    HW1 1847   2.544  10.593  11.014 -1.1926  0.8699  1.6637
32495SOL    HW2 1848   2.480  10.458  10.989  0.5896  0.1854  0.5614
32496SOL     OW 1849   7.572   3.047   8.845 -0.1843 -0.6414  0.0527
32496SOL    HW1 1850   7.665   3.037   8.864 -0.5219 -1.1395  1.6653
32496SOL    HW2 1851   7.545   3.121   8.900 -0.4500  0.5467 -1.6025
32497SOL     OW 1852   4.584   9.243   9.713  0.6111 -0.1392  0.0284
32497SOL    HW1 1853   4.598   9.269   9.622  0.0270  2.5508  0.6307
32497SOL    HW2 1854   4.672   9.240   9.751  0.7755 -0.2139 -0.3539
32498SOL     OW 1855   0.002   8.717   5.660 -0.4977  0.1105  0.6428
32498SOL    HW1 1856  -0.066   8.763   5.709 -0.0869  1.2248  0.1883
32498SOL    HW2 1857  -0.016   8.737   5.568 -0.6595 -1.1437  0.3704
32499SOL     OW 1858   0.132  10.739   8.970 -0.0648  0.9951  0.6043
32499SOL    HW1 1859   0.191  10.702   9.035  1.4370  0.8672 -0.7730
32499SOL    HW2 1860   0.136  10.678   8.897 -1.5701  1.2342  0.2901
32500SOL     OW 1861   6.807   1.804   1.996  0.1511  0.4013 -0.6236
32500SOL    HW1 1862   6.835   1.777   1.909  1.9889 -3.7316  0.9947
32500SOL    HW2 1863   6.867   1.875   2.019  0.9683  0.1827 -1.9500
32501SOL     OW 1864   5.198   7.524   9.336  0.2393 -0.5992  0.3544
32501SOL    HW1 1865   5.260   7.552   9.270  0.3243  0.4373  0.8449
32501SOL    HW2 1866   5.245   7.459   9.389  0.3633 -0.9844 -0.2258
32502SOL     OW 1867   6.651   7.596   5.146 -0.2994  0.2460 -0.1708
32502SOL    HW1 1868   6.585   7.655   5.184 -0.1783  1.2992 -1.5010
32502SOL    HW2 1869   6.697   7.650   5.082 -0.2127 -1.3184 -1.4890
32503SOL     OW 1870   8.341   8.903   1.805 -0.0168 -0.2798  0.4794
32503SOL    HW1 1871   8.335   8.890   1.710 -1.3365  0.0658  0.4963
32503SOL    HW2 1872   8.435   8.897   1.824  0.1827 -1.3836 -0.6924
32504SOL     OW 1873  10.937   0.627   2.606  0.3548 -0.0535 -0.2620
32504SOL    HW1 1874  10.894   0.542   2.593  1.1730 -0.4630 -0.3943
32504SOL    HW2 1875  11.009   0.627   2.543  1.1365  0.2000  0.6087
32505SOL     OW 1876   9.573   3.001   7.520 -0.3996  0.1615  0.1037
32505SOL    HW1 1877   9.526   2.925   7.555  0.4401  0.2545  1.5286
32505SOL    HW2 1878   9.666   2.980   7.533 -0.1463  2.0821  2.1594
32506SOL     OW 1879   3.137   6.223   5.583  0.0347  0.1164  0.3111
32506SOL    HW1 1880   3.219   6.184   5.612  0.6477  1.7425  0.8465
32506SOL    HW2 1881   3.111   6.281   5.654 -0.6737  0.9344 -0.5835
32507SOL     OW 1882   9.942   8.017   7.838 -0.7372 -0.0652 -0.1478
32507SOL    HW1 1883   9.914   7.927   7.848 -0.2589 -0.1962  0.0410
32507SOL    HW2 1884   9.968   8.024   7.746 -0.7353 -0.1287 -0.1520
32508SOL     OW 1885   5.114   0.825   4.759 -0.2699  0.1225  0.0236
32508SOL    HW1 1886   5.037   0.808   4.704 -0.1623  0.3172 -0.1896
32508SOL    HW2 1887   5.116   0.920   4.770  1.0009  0.3179 -1.5507
32509SOL     OW 1888   6.788   7.332   3.905 -0.3523  0.3263 -0.1844
32509SOL    HW1 1889   6.868   7.291   3.871 -1.8343 -2.1018 -1.0087
32509SOL    HW2 1890   6.750   7.377   3.830  0.3738  1.8125  0.3001
32510SOL     OW 1891   4.149   8.978   4.114 -0.4763 -0.2750 -0.2474
32510SOL    HW1 1892   4.106   8.999   4.031  0.5648 -0.6976 -0.9148
32510SOL    HW2 1893   4.215   9.046   4.126 -1.1015  0.2015  0.6214
32511SOL     OW 1894   5.765   0.220   6.354  0.4747 -0.7888  0.1805
32511SOL    HW1 1895   5.798   0.238   6.266  0.9015 -2.7494 -0.1230
32511SOL    HW2 1896   5.833   0.253   6.412 -0.5570  2.0566 -0.0740
32512SOL     OW 1897   7.042   5.831   3.963 -0.5590  0.3209 -0.0361
32512SOL    HW1 1898   6.952   5.821   3.993  0.1208 -0.0130  2.0780
32512SOL    HW2 1899   7.072   5.742   3.946 -0.2552  0.3060  0.5327
32513SOL     OW 1900   4.916   3.672   2.068 -0.1288 -0.4186  0.3643
32513SOL    HW1 1901   4.856   3.612   2.111  0.5409 -2.3667 -1.2824
32513SOL    HW2 1902   4.970   3.706   2.138 -0.0644 -2.3133  1.2910
32514SOL     OW 1903   3.038   0.553   2.052  0.1037  0.0566 -0.2018
32514SOL    HW1 1904   2.950   0.522   2.029  0.2454 -1.4518  1.0645
32514SOL    HW2 1905   3.085   0.473   2.078  1.4219  1.0086  0.4476
32515SOL     OW 1906   6.738   8.211   2.560 -0.1383 -0.1022  0.2678
32515SOL    HW1 1907   6.778   8.133   2.520 -1.5906 -0.9332  0.3417
32515SOL    HW2 1908   6.682   8.176   2.629 -0.0189  1.1105  1.0080
32516SOL     OW 1909  10.684   6.287   6.132 -0.5283 -0.6535  0.2852
32516SOL    HW1 1910  10.742   6.343   6.081 -1.0453  0.6157  1.0631
32516SOL    HW2 1911  10.618   6.257   6.069  0.9029 -2.0966 -0.6027
32517SOL     OW 1912   3.171   5.293   5.439  0.3203 -0.1492 -0.4305
32517SOL    HW1 1913   3.140   5.271   5.527 -0.0293 -1.5258 -0.8616
32517SOL    HW2 1914   3.234   5.363   5.452  2.4430 -2.1982  1.2696
32518SOL     OW 1915  10.466   9.793   1.586 -0.5214 -0.2210  0.5402
32518SOL    HW1 1916  10.435   9.884   1.586 -1.4452 -0.5006  2.5186
32518SOL    HW2 1917  10.393   9.743   1.623  0.1253 -1.7326 -0.1668
32519SOL     OW 1918   2.688   0.410   4.965 -0.4939 -0.8527  0.1954
32519SOL    HW1 1919   2.766   0.450   4.926  0.1914 -2.1845  0.1523
32519SOL    HW2 1920   2.615   0.460   4.928  0.2640 -0.5211 -0.9137
32520SOL     OW 1921   8.808  10.878   6.394 -0.5094  0.4695 -0.3999
32520SOL    HW1 1922   8.787  10.791   6.361 -1.0487  0.1430  0.7332
32520SOL    HW2 1923   8.903  10.879   6.401 -0.5211 -0.1937 -0.0283
32521SOL     OW 1924   8.063   1.193   2.059 -0.4542  0.3876 -0.0219
32521SOL    HW1 1925   8.145   1.230   2.025 -0.2427  0.9193  1.0439
32521SOL    HW2 1926   8.006   1.269   2.073 -0.0923  0.3169  1.9879
32522SOL     OW 1927   9.769   2.646  10.843  0.1732 -0.1231 -0.5572
32522SOL    HW1 1928   9.674   2.636  10.835  0.3639 -1.7026 -1.1975
32522SOL    HW2 1929   9.805   2.565  10.808  1.8185  0.8426 -1.2387
32523SOL     OW 1930   3.485   7.858   5.551 -0.2177  0.0935  0.4770
32523SOL    HW1 1931   3.436   7.934   5.519  0.4644  0.3799  0.0818
32523SOL    HW2 1932   3.508   7.881   5.641 -1.2220 -0.2546  0.8307
32524SOL     OW 1933   6.198   8.749   0.980  0.1203 -0.7528  0.5337
32524SOL    HW1 1934   6.273   8.782   0.932  0.3741 -0.7138  0.9518
32524SOL    HW2 1935   6.196   8.655   0.962 -1.0136 -0.4312 -1.2247
32525SOL     OW 1936   2.788   8.722  10.456  0.4841 -0.3231  0.3323
32525SOL    HW1 1937   2.746   8.639  10.435  1.0110 -0.5270  0.0714
32525SOL    HW2 1938   2.768   8.778  10.381  0.1974 -0.2372  0.4710
32526SOL     OW 1939   6.234   0.745   7.224 -0.0659 -0.0198 -0.1581
32526SOL    HW1 1940   6.142   0.728   7.204  0.3241 -0.1329 -2.0408
32526SOL    HW2 1941   6.282   0.689   7.163  1.2634 -0.0838  0.9105
32527SOL     OW 1942   8.968   7.316   3.247  0.0628 -1.0715  0.7192
32527SOL    HW1 1943   9.006   7.262   3.316  2.9012 -2.2245 -1.5428
32527SOL    HW2 1944   8.931   7.253   3.185 -3.2494 -0.0358  1.4357
32528SOL     OW 1945   9.289  10.055   6.227  0.1036  0.9776  0.5527
32528SOL    HW1 1946   9.293  10.066   6.132 -0.9114  1.2320  0.5211
32528SOL    HW2 1947   9.359   9.993   6.247  1.3260  2.0742 -0.1565
32529SOL     OW 1948  11.024   7.447  10.999  0.2053 -0.0932  0.7058
32529SOL    HW1 1949  11.041   7.366  11.046 -1.0452 -1.8827 -1.6809
32529SOL    HW2 1950  10.966   7.421  10.927 -1.3982  3.1691  0.6184
32530SOL     OW 1951   3.010   3.830   0.222 -0.3319 -0.4401  0.5588
32530SOL    HW1 1952   3.096   3.869   0.210 -0.7579  0.0925 -1.0315
32530SOL    HW2 1953   2.961   3.855   0.143 -2.6356  1.1007  2.3105
32531SOL     OW 1954   3.112   2.303   5.333  0.5543  0.4768  0.4931
32531SOL    HW1 1955   3.053   2.241   5.378  1.4830  0.7076  2.1113
32531SOL    HW2 1956   3.194   2.255   5.325  0.5969  0.6889 -0.3975
32532SOL     OW 1957   5.930   8.479   2.630  0.3636  0.4008 -0.4068
32532SOL    HW1 1958   5.951   8.402   2.682  1.9280  0.6143 -0.6659
32532SOL    HW2 1959   6.013   8.504   2.589 -0.3215  1.6301 -1.1285
32533SOL     OW 1960   3.163   8.409   4.309 -0.1116 -0.3230 -0.4006
32533SOL    HW1 1961   3.080   8.414   4.261 -0.0542 -0.3161 -0.4994
32533SOL    HW2 1962   3.230   8.407   4.241  0.0806  1.5836 -0.3155
32534SOL     OW 1963   6.258   4.955  10.555 -0.1869 -0.4578  0.2509
32534SOL    HW1 1964   6.296   4.977  10.640 -0.0630 -1.7210  0.5436
32534SOL    HW2 1965   6.332   4.927  10.501 -0.3805 -0.5221  0.0121
32535SOL     OW 1966   8.521   0.379   4.386  0.5247 -0.3662 -0.3737
32535SOL    HW1 1967   8.426   0.391   4.394  0.5986 -0.6145  1.1950
32535SOL    HW2 1968   8.558   0.430   4.458  1.5100 -1.1289 -0.3142
32536SOL     OW 1969   9.422   6.972   5.120  0.1204 -0.1160 -0.6087
32536SOL    HW1 1970   9.362   6.917   5.171  2.1748 -0.7183  1.3311
32536SOL    HW2 1971   9.448   6.918   5.046  0.5801 -1.0338  0.2027
32537SOL     OW 1972   7.173   7.398   4.244  0.5924  0.4913 -0.1542
32537SOL    HW1 1973   7.188   7.314   4.201  1.3932  0.3725  0.3251
32537SOL    HW2 1974   7.164   7.376   4.337 -0.3542  0.8215 -0.1550
32538SOL     OW 1975   9.238   2.337   2.746 -0.0409 -0.4791  0.7121
32538SOL    HW1 1976   9.261   2.274   2.677  1.0890  0.7493 -0.0807
32538SOL    HW2 1977   9.321   2.356   2.790 -0.2748  0.7566  0.6566
32539SOL     OW 1978   2.264   8.269   6.979 -0.1416 -0.5614  0.3135
32539SOL    HW1 1979   2.267   8.255   6.885  0.4436 -1.6756  0.4852
32539SOL    HW2 1980   2.175   8.243   7.005  0.1906 -1.8034  0.2806
32540SOL     OW 1981   4.826   7.756   7.486 -0.6481 -0.0767 -0.2146
32540SOL    HW1 1982   4.835   7.739   7.393 -1.4382  0.0276 -0.3167
32540SOL    HW2 1983   4.838   7.670   7.527  1.5766  0.1517 -0.2393
32541SOL     OW 1984  10.671   6.955   6.990  0.2535 -0.0383 -0.3883
32541SOL    HW1 1985  10.664   7.036   6.938  1.4106  0.3694  0.0639
32541SOL    HW2 1986  10.624   6.890   6.938  2.1319  0.1296 -2.4452
32542SOL     OW 1987   6.210   8.353   8.446 -0.4533 -0.3223  0.1168
32542SOL    HW1 1988   6.151   8.325   8.376  0.9205  0.1445 -1.2914
32542SOL    HW2 1989   6.151   8.380   8.517 -1.8757 -1.9646 -0.3439
32543SOL     OW 1990   7.582  11.074   4.003 -0.1790 -0.4577 -0.2327
32543SOL    HW1 1991   7.507  11.124   3.971  0.3319  1.2781  1.1214
32543SOL    HW2 1992   7.559  11.052   4.093  0.4861 -0.8463 -0.1529
32544SOL     OW 1993   8.623   5.761   4.428  0.6296  0.1594 -0.2572
32544SOL    HW1 1994   8.613   5.669   4.450  0.7181  0.2143  0.0196
32544SOL    HW2 1995   8.535   5.789   4.402  0.2498  0.3724  1.1443
32545SOL     OW 1996   9.557   6.407   9.015 -0.3476  0.1852  0.1199
32545SOL    HW1 1997   9.637   6.360   9.039 -0.7192 -0.4311  0.1819
32545SOL    HW2 1998   9.547   6.473   9.083 -0.1320 -0.0297  0.3626
32546SOL     OW 1999   4.233  10.396   4.797  0.5608  0.1854 -0.0630
32546SOL    HW1 2000   4.188  10.441   4.726 -1.9346  1.4831  2.1729
32546SOL    HW2 2001   4.195  10.308   4.797 -2.2016  1.2353  1.7370
32547SOL     OW 2002   7.059   4.432   8.987  0.4755 -0.1466  0.3258
32547SOL    HW1 2003   7.041   4.351   9.034  0.4534  1.5057  3.4554
32547SOL    HW2 2004   7.109   4.405   8.910 -0.5591 -3.1835  0.5665
32548SOL     OW 2005   1.486   8.279   6.283  0.1730  0.8603  0.4270
32548SOL    HW1 2006   1.570   8.264   6.239  0.2842  0.6771  0.6987
32548SOL    HW2 2007   1.495   8.235   6.367 -0.1767  0.8878  0.4802
32549SOL     OW 2008   4.397   2.883   7.295 -0.6619  0.1684  0.0143
32549SOL    HW1 2009   4.344   2.937   7.354 -0.9633  0.6495 -0.6755
32549SOL    HW2 2010   4.386   2.794   7.328 -0.4638  0.4777  0.9460
32550SOL     OW 2011  10.480   5.798   1.293 -0.0435 -0.7577 -0.1160
32550SOL    HW1 2012  10.435   5.715   1.307 -1.1648 -0.1774 -0.2205
32550SOL    HW2 2013  10.567   5.773   1.261 -0.6754 -1.8547 -1.0143
32551SOL     OW 2014   5.863   9.561   0.584 -0.5188 -0.0733  0.0494
32551SOL    HW1 2015   5.816   9.511   0.517 -1.5079 -1.3705  1.6504
32551SOL    HW2 2016   5.915   9.624   0.534 -1.0844 -1.0948 -1.9436
32552SOL     OW 2017   3.781   7.065   4.655 -0.7423  0.0481 -0.1871
32552SOL    HW1 2018   3.771   6.970   4.651 -1.0880  0.1081 -0.7132
32552SOL    HW2 2019   3.856   7.078   4.714 -1.2867 -0.5127  0.6635
32553SOL     OW 2020   2.954   5.974   2.313  0.0820  0.2875  0.6493
32553SOL    HW1 2021   3.048   5.961   2.299  0.4692  2.5416  0.8554
32553SOL    HW2 2022   2.914   5.948   2.231  0.8778 -0.6994  0.5590
32554SOL     OW 2023   8.650   9.315   2.012 -0.3099 -0.3165 -0.4913
32554SOL    HW1 2024   8.608   9.269   2.084  1.1722  1.6770  1.7745
32554SOL    HW2 2025   8.604   9.399   2.006 -1.6213 -1.1040 -3.1850
32555SOL     OW 2026   5.749   6.311   4.276 -0.2118 -0.3030 -0.8086
32555SOL    HW1 2027   5.766   6.342   4.365 -1.2995 -0.3244 -0.5857
32555SOL    HW2 2028   5.751   6.390   4.222 -3.2743  0.2899 -0.2020
32556SOL     OW 2029   9.805   5.474   8.406  0.3381  0.1096  0.4653
32556SOL    HW1 2030   9.784   5.429   8.488 -1.1294  1.0604  0.6428
32556SOL    HW2 2031   9.843   5.558   8.433 -0.0794  0.3940  0.1716
32557SOL     OW 2032  10.977   8.935   2.725  0.0788 -0.8836  0.1714
32557SOL    HW1 2033  10.918   8.982   2.784  0.3387 -1.5473  0.9764
32557SOL    HW2 2034  11.062   8.940   2.767  0.8503  0.9158 -1.4597
32558SOL     OW 2035   6.841   0.009   1.921 -0.2802 -0.1909  0.0612
32558SOL    HW1 2036   6.804   0.072   1.858  0.3615 -0.9590 -1.1321
32558SOL    HW2 2037   6.767  -0.015   1.977 -0.6989  1.0823  0.0826
32559SOL     OW 2038   5.051   9.587   0.569 -0.2536 -0.4640 -0.0466
32559SOL    HW1 2039   5.146   9.587   0.572 -0.1466 -2.7459 -1.3255
32559SOL    HW2 2040   5.029   9.549   0.483 -2.3485  1.7621 -0.6495
32560SOL     OW 2041   8.361   1.485   7.473 -0.2376 -0.3988  0.5819
32560SOL    HW1 2042   8.269   1.460   7.476  0.2468 -2.3497  0.7225
32560SOL    HW2 2043   8.388   1.486   7.565  0.1790 -1.1578  0.4787
32561SOL     OW 2044   6.988   6.814   5.815  0.3015  0.1597 -0.3393
32561SOL    HW1 2045   6.932   6.741   5.842  0.1526  0.5935  0.5443
32561SOL    HW2 2046   6.928   6.876   5.773  0.3236  0.0567 -0.5220
32562SOL     OW 2047   7.683   4.984   0.852 -0.4000 -0.2221  0.6050
32562SOL    HW1 2048   7.770   5.009   0.821 -0.0108 -2.5236 -0.4356
32562SOL    HW2 2049   7.635   5.066   0.861  1.3777  0.9770 -0.3944
32563SOL     OW 2050   9.662   2.236   1.444  0.2513  0.2210  0.4881
32563SOL    HW1 2051   9.639   2.236   1.537  0.5051 -0.5378  0.5526
32563SOL    HW2 2052   9.663   2.329   1.420  0.4648  0.4429  1.3142
32564SOL     OW 2053   9.880  10.398   5.859 -0.3965  0.4038  0.0883
32564SOL    HW1 2054   9.970  10.368   5.844 -0.9295 -0.6521 -1.1224
32564SOL    HW2 2055   9.883  10.492   5.843  0.8571  0.7125  1.8554
32565SOL     OW 2056   0.946   3.280   8.803 -0.0019  0.7044 -0.1737
32565SOL    HW1 2057   1.041   3.273   8.791  0.1008  0.5133  0.6795
32565SOL    HW2 2058   0.922   3.199   8.849 -0.5556  0.8173 -0.2642
32566SOL     OW 2059   4.139  10.851   2.699  0.2394  0.4017  0.0861
32566SOL    HW1 2060   4.192  10.915   2.748 -0.0937 -0.5184  1.7155
32566SOL    HW2 2061   4.117  10.784   2.763  0.8611 -1.5680 -1.6608
32567SOL     OW 2062  10.650   2.379   3.963 -0.1847  0.2803  0.2392
32567SOL    HW1 2063  10.675   2.441   3.894  0.1209 -1.2899 -1.1416
32567SOL    HW2 2064  10.626   2.300   3.915 -0.7389 -0.6086  1.9336
32568SOL     OW 2065   6.139   1.217   8.078  0.8459  0.3217 -0.3344
32568SOL    HW1 2066   6.166   1.217   8.170 -0.1805  2.7435  0.0537
32568SOL    HW2 2067   6.152   1.308   8.049 -0.5122  0.0237 -2.0605
32569SOL     OW 2068   0.802   4.704   5.759 -0.2368  0.6274  0.1995
32569SOL    HW1 2069   0.793   4.761   5.683 -0.0227 -0.0900 -0.3767
32569SOL    HW2 2070   0.894   4.679   5.761 -0.1663  0.8997  0.8990
32570SOL     OW 2071   6.097   6.273   9.088 -0.4839 -0.4919  0.0890
32570SOL    HW1 2072   6.158   6.236   9.024 -0.1860 -0.2592  0.2341
32570SOL    HW2 2073   6.118   6.367   9.088 -1.6874 -0.1943 -0.7815
32571SOL     OW 2074   2.925  10.476   8.233  0.8151  0.2209 -0.3944
32571SOL    HW1 2075   2.888  10.563   8.216  2.5114  0.7328 -1.7497
32571SOL    HW2 2076   2.863  10.435   8.293 -1.3943  1.3960 -1.7522
32572SOL     OW 2077   9.328   1.745   4.059  0.4993  0.3408 -0.1606
32572SOL    HW1 2078   9.267   1.673   4.044  0.6685 -0.0136  0.8038
32572SOL    HW2 2079   9.317   1.802   3.982 -0.2383 -0.2777 -0.5277
32573SOL     OW 2080   2.068   5.766   6.330  0.1592 -0.0453  0.0596
32573SOL    HW1 2081   2.130   5.825   6.289  2.2482 -1.4143  1.0726
32573SOL    HW2 2082   2.067   5.689   6.273 -0.2710 -0.2176  0.2927
32574SOL     OW 2083   7.385   6.968   7.549 -0.0269  0.5894 -0.3954
32574SOL    HW1 2084   7.392   6.896   7.486 -0.1507 -0.1123  0.3662
32574SOL    HW2 2085   7.407   7.046   7.499 -0.6213  0.1124 -1.4312
32575SOL     OW 2086   2.833  10.073   2.980  0.1829 -0.0514  1.0311
32575SOL    HW1 2087   2.758  10.107   2.932 -0.3388 -1.3041  0.9378
32575SOL    HW2 2088   2.806  10.073   3.071  0.4437  0.4352  1.1129
32576SOL     OW 2089   9.845   1.350   6.670 -0.0743 -0.4247  0.2314
32576SOL    HW1 2090   9.803   1.356   6.756  0.4797  2.5494  0.3739
32576SOL    HW2 2091   9.925   1.402   6.678  0.6091 -1.0667 -1.7787
32577SOL     OW 2092  10.812   8.260   2.541 -0.0087  0.3531 -0.2059
32577SOL    HW1 2093  10.718   8.270   2.522 -0.2655  1.7342  1.5291
32577SOL    HW2 2094  10.831   8.330   2.603  1.5619 -1.5827  1.6323
32578SOL     OW 2095   6.723   3.029   1.380  0.2815 -0.2469  0.2816
32578SOL    HW1 2096   6.809   2.989   1.386  0.4420 -0.0476 -0.6376
32578SOL    HW2 2097   6.702   3.030   1.287 -0.5856 -0.0198  0.4623
32579SOL     OW 2098   2.576   0.753   9.154  0.2613  0.3315 -0.0992
32579SOL    HW1 2099   2.482   0.740   9.139  0.3981  0.6363 -1.3516
32579SOL    HW2 2100   2.601   0.820   9.090  1.2757  0.4778  0.4318
32580SOL     OW 2101   7.896   0.759   7.384  0.1054 -0.5977  0.2575
32580SOL    HW1 2102   7.970   0.715   7.427 -0.9805 -1.2576  1.5620
32580SOL    HW2 2103   7.821   0.703   7.404 -0.5469 -0.7030 -2.2295
32581SOL     OW 2104   0.513   4.666   8.955  0.3182 -0.0558 -0.3859
32581SOL    HW1 2105   0.527   4.578   8.991 -0.0328 -0.0305 -0.1841
32581SOL    HW2 2106   0.547   4.725   9.023 -0.1830 -0.0133 -0.1678
32582SOL     OW 2107   8.181   7.555   2.200 -0.1585 -0.5276  0.5508
32582SOL    HW1 2108   8.263   7.507   2.191  0.6470  0.7776  0.5665
32582SOL    HW2 2109   8.204   7.630   2.255 -0.7973  1.0513 -1.2290
32583SOL     OW 2110   0.302   4.768   9.397  0.1315 -0.3518 -0.6046
32583SOL    HW1 2111   0.207   4.780   9.397  0.0457 -0.3145 -3.2331
32583SOL    HW2 2112   0.332   4.817   9.473 -1.9404 -0.3245  0.2775
32584SOL     OW 2113   5.206   1.845   1.494 -0.0904  0.5315  0.2686
32584SOL    HW1 2114   5.126   1.886   1.460  0.5733  1.5370 -0.1400
32584SOL    HW2 2115   5.277   1.890   1.448  0.6970 -0.7487  0.2012
32585SOL     OW 2116   5.793   2.342   3.459 -0.0842  0.3688  0.0158
32585SOL    HW1 2117   5.745   2.308   3.383  0.8281  0.7735 -0.7584
32585SOL    HW2 2118   5.749   2.425   3.479  0.0561  0.5649 -0.4657
32586SOL     OW 2119   4.678   1.128   3.500  0.7961  0.0761 -0.0973
32586SOL    HW1 2120   4.648   1.218   3.509  1.5274  0.2751  0.4102
32586SOL    HW2 2121   4.627   1.078   3.564 -0.1715 -0.0249 -0.9173
32587SOL     OW 2122   9.154   1.960   3.599 -0.0120  0.0344 -0.5296
32587SOL    HW1 2123   9.100   1.882   3.613  1.3175 -0.9284 -0.6014
32587SOL    HW2 2124   9.197   1.945   3.515  3.7536 -1.3677  1.4237
32588SOL     OW 2125   0.095   9.590   6.909  0.7364 -1.3521 -0.4098
32588SOL    HW1 2126   0.066   9.543   6.831  0.0917 -2.2712  0.3564
32588SOL    HW2 2127   0.057   9.541   6.982  1.8164 -0.8603  0.5123
32589SOL     OW 2128   9.316   9.690   8.489 -0.1143 -0.3618 -0.3361
32589SOL    HW1 2129   9.271   9.723   8.412 -2.3454  1.5736  1.6680
32589SOL    HW2 2130   9.409   9.697   8.467 -0.6240  2.1221 -2.1014
32590SOL     OW 2131   5.768   9.483   8.452 -0.0480  0.0439 -0.4849
32590SOL    HW1 2132   5.850   9.479   8.402 -0.0011  0.7583 -0.4666
32590SOL    HW2 2133   5.710   9.538   8.400 -0.0056  0.7772  0.2193
32591SOL     OW 2134   2.062   0.122   7.052  0.3120 -0.1647  0.5547
32591SOL    HW1 2135   2.113   0.062   7.107 -1.3956  0.3199  2.8077
32591SOL    HW2 2136   2.071   0.207   7.095  1.0503  0.8464 -1.4727
32592SOL     OW 2137   3.981   8.148   4.408 -0.0924  0.0006 -0.2280
32592SOL    HW1 2138   4.047   8.189   4.353  0.0004  0.4898  0.2323
32592SOL    HW2 2139   4.023   8.070   4.443  0.9246  1.2317  1.4965
32593SOL     OW 2140  10.215  10.481   4.089  0.2258 -0.2982 -0.0354
32593SOL    HW1 2141  10.288  10.435   4.130 -0.5708 -0.3936  1.3184
32593SOL    HW2 2142  10.152  10.412   4.066  0.2420 -0.1462 -0.5634
32594SOL     OW 2143   1.806   1.440   1.529  0.2069  0.1071  0.3383
32594SOL    HW1 2144   1.804   1.431   1.433  0.9528 -1.4727  0.4331
32594SOL    HW2 2145   1.719   1.472   1.552 -0.0786  0.2277 -0.8399
32595SOL     OW 2146   9.515   4.810   1.572  0.2935 -0.2453 -0.0181
32595SOL    HW1 2147   9.443   4.765   1.614 -1.0031  2.9426  1.4729
32595SOL    HW2 2148   9.585   4.813   1.638 -0.0673  0.8473  0.3408
32596SOL     OW 2149   0.173   6.635   9.923 -0.2050  0.0919  0.4306
32596SOL    HW1 2150   0.105   6.669   9.982 -0.0945  1.0763  0.0235
32596SOL    HW2 2151   0.145   6.546   9.902  0.0759 -0.5327  2.4497
32597SOL     OW 2152   2.165   1.880   8.251  0.0575  0.1774 -0.1185
32597SOL    HW1 2153   2.160   1.798   8.202  1.6816 -0.5552  0.8432
32597SOL    HW2 2154   2.076   1.893   8.284 -0.2797 -1.1100 -0.4399
32598SOL     OW 2155   5.700   0.218   1.498  0.3198  0.1861 -0.2066
32598SOL    HW1 2156   5.694   0.144   1.558  0.5726 -0.1946 -0.6427
32598SOL    HW2 2157   5.661   0.186   1.417  0.1979  0.6191 -0.3201
32599SOL     OW 2158   9.096   2.849   3.207 -0.1200 -0.6331 -0.2868
32599SOL    HW1 2159   9.104   2.778   3.272 -1.1859 -1.4600 -1.0137
32599SOL    HW2 2160   9.152   2.918   3.240 -0.8231 -0.9213  1.6752
32600SOL     OW 2161   5.330   5.404   6.995 -0.2402 -0.3340  0.4877
32600SOL    HW1 2162   5.418   5.428   7.025  0.9899  1.7555 -3.9504
32600SOL    HW2 2163   5.341   5.316   6.959 -0.2647 -0.5375  0.9737
32601SOL     OW 2164   7.476   0.571   7.655 -0.2967 -0.3497  0.0812
32601SOL    HW1 2165   7.469   0.642   7.719  2.0867  1.4963 -1.5245
32601SOL    HW2 2166   7.516   0.499   7.704  0.1247  0.4972  1.0359
32602SOL     OW 2167   8.695   3.172   3.257  0.0543 -0.0045  0.5786
32602SOL    HW1 2168   8.641   3.201   3.330  0.4595  0.8930  0.5418
32602SOL    HW2 2169   8.661   3.221   3.182  1.6297  1.4945  0.7654
32603SOL     OW 2170  10.216   7.587   4.850  0.1946  0.0267  0.0639
32603SOL    HW1 2171  10.136   7.599   4.798 -0.4052  1.7142  1.2682
32603SOL    HW2 2172  10.263   7.516   4.806 -0.8516  0.5415 -2.0419
32604SOL     OW 2173   9.013   2.668   6.674 -0.3227  0.5715  0.7452
32604SOL    HW1 2174   8.950   2.704   6.611  0.4187  0.7152  0.0681
32604SOL    HW2 2175   8.962   2.607   6.726 -1.1369  1.0475  0.5301
32605SOL     OW 2176   3.366   1.392   8.806  0.1448  0.2979 -0.3015
32605SOL    HW1 2177   3.364   1.466   8.746  1.5502  0.1632 -0.5501
32605SOL    HW2 2178   3.433   1.333   8.771  1.0229  0.2194  1.3718
32606SOL     OW 2179   7.974  10.445   6.937  0.4291 -0.1921  0.5412
32606SOL    HW1 2180   7.995  10.528   6.894 -2.1416  1.0939  1.5452
32606SOL    HW2 2181   7.918  10.398   6.875  0.1635 -0.2087  0.7855
32607SOL     OW 2182   9.428  10.171   5.174 -0.5384  0.0605  0.7596
32607SOL    HW1 2183   9.450  10.230   5.102  0.2772  0.0882  1.0194
32607SOL    HW2 2184   9.393  10.229   5.242  1.0581  0.3939  1.3458
32608SOL     OW 2185   7.739   5.739   5.446 -0.5405 -0.4098 -0.5234
32608SOL    HW1 2186   7.804   5.790   5.398 -1.3792  0.2262 -1.0017
32608SOL    HW2 2187   7.787   5.705   5.522  1.0364 -2.1112 -2.1602
32609SOL     OW 2188  10.028   8.394   6.055  0.5359  0.0638 -0.2758
32609SOL    HW1 2189  10.101   8.374   6.113  0.8073 -2.4691 -1.3545
32609SOL    HW2 2190   9.951   8.393   6.112  1.0066 -0.3650  0.3659
32610SOL     OW 2191   9.356   0.588   6.617 -0.2560 -0.5328  0.0135
32610SOL    HW1 2192   9.318   0.515   6.568 -1.1058 -0.4754  0.5702
32610SOL    HW2 2193   9.399   0.641   6.550 -1.1286 -0.6267 -0.6513
32611SOL     OW 2194   8.106   5.709   3.725 -0.0497  0.1192 -0.2563
32611SOL    HW1 2195   8.143   5.777   3.780  2.1871 -1.9245  0.9390
32611SOL    HW2 2196   8.147   5.721   3.639 -1.0902  1.3324 -0.6185
32612SOL     OW 2197   3.526   1.716   8.791 -0.2390  0.0597 -0.1958
32612SOL    HW1 2198   3.587   1.653   8.828  1.1135  0.5472 -1.4938
32612SOL    HW2 2199   3.507   1.776   8.863  0.9092 -0.0501  0.2205
32613SOL     OW 2200  11.028   0.121   1.400  0.3067 -0.5213  0.8260
32613SOL    HW1 2201  11.045   0.043   1.453 -0.5984  0.0190  1.9673
32613SOL    HW2 2202  10.996   0.087   1.317  0.2791 -1.3783  1.1761
32614SOL     OW 2203   2.923   4.128   8.966 -0.1485  0.2737  0.2412
32614SOL    HW1 2204   2.835   4.152   8.992  0.2648  1.4533  0.5771
32614SOL    HW2 2205   2.912   4.046   8.917 -1.4417  0.5241  0.0920
32615SOL     OW 2206   7.067   9.184   7.642  0.1745 -0.5458  0.0069
32615SOL    HW1 2207   6.981   9.143   7.641  0.3427 -0.9339  0.7583
32615SOL    HW2 2208   7.126   9.116   7.673  0.2933  0.5409  2.4086
32616SOL     OW 2209   3.608   3.093   6.111 -0.6427  0.2796 -0.0403
32616SOL    HW1 2210   3.632   3.114   6.021  1.3493  3.1249  0.9824
32616SOL    HW2 2211   3.568   3.174   6.144  1.1916  0.3365  2.3319
32617SOL     OW 2212   3.240   4.497   8.124  0.3235  0.1205  0.1117
32617SOL    HW1 2213   3.170   4.520   8.184 -0.0143  1.8008 -0.8469
32617SOL    HW2 2214   3.196   4.484   8.040  1.1076  0.9523 -0.4473
32618SOL     OW 2215  11.116   7.815   1.160 -0.0927 -0.3055 -0.0909
32618SOL    HW1 2216  11.107   7.877   1.087  0.1533 -1.7822 -1.4216
32618SOL    HW2 2217  11.174   7.860   1.222  0.1814  0.7533 -1.0772
32619SOL     OW 2218  10.581  10.070   2.599 -0.2837  0.3372 -0.9883
32619SOL    HW1 2219  10.506  10.048   2.655  0.2508 -0.2971 -0.5120
32619SOL    HW2 2220  10.636  10.126   2.654  0.6630 -0.9758 -0.5479
32620SOL     OW 2221   9.913   7.607   8.681 -0.3046 -0.2129 -0.1157
32620SOL    HW1 2222   9.856   7.558   8.740 -1.0645  0.9968  0.1888
32620SOL    HW2 2223   9.997   7.561   8.686 -1.2534 -2.1197 -0.6856
32621SOL     OW 2224   3.561   9.859   7.226 -0.1655 -0.4695 -0.4327
32621SOL    HW1 2225   3.527   9.770   7.221 -1.6668  0.0684 -0.4308
32621SOL    HW2 2226   3.655   9.849   7.238 -0.3405 -2.0514 -0.2429
32622SOL     OW 2227  10.651   8.346   6.543  1.0259 -0.5142 -0.2475
32622SOL    HW1 2228  10.661   8.436   6.514 -1.1605  0.0656  0.6262
32622SOL    HW2 2229  10.736   8.323   6.582  1.2817  1.5288  0.4839
32623SOL     OW 2230   9.127   8.993   6.452  0.3776  0.4017  0.0023
32623SOL    HW1 2231   9.065   8.979   6.380 -0.1292  1.1461  0.2753
32623SOL    HW2 2232   9.078   8.966   6.531  0.8213 -0.1231  0.1011
32624SOL     OW 2233   0.239   7.113   1.443 -0.3664  0.0870 -0.2733
32624SOL    HW1 2234   0.300   7.157   1.384 -0.5754 -0.3004 -0.7827
32624SOL    HW2 2235   0.290   7.098   1.523 -0.1105  0.6982 -0.3134
32625SOL     OW 2236  10.019   4.211   6.830 -0.6489 -0.0313 -0.1804
32625SOL    HW1 2237  10.072   4.290   6.823  0.1131 -0.6381 -1.6461
32625SOL    HW2 2238   9.940   4.239   6.878  1.6599  0.4924  3.7567
32626SOL     OW 2239  10.510   7.152   2.597  0.3680  0.3585 -0.6935
32626SOL    HW1 2240  10.423   7.123   2.624  0.5226  1.6114  1.3808
32626SOL    HW2 2241  10.526   7.107   2.514 -0.3084 -3.6028  1.1072
32627SOL     OW 2242   9.238   7.025   2.071  0.3089  0.0892 -0.0176
32627SOL    HW1 2243   9.256   7.067   1.987 -0.0198 -1.1650 -0.7344
32627SOL    HW2 2244   9.251   6.931   2.055  0.6847 -0.1399  1.4490
32628SOL     OW 2245   2.320  10.941   9.552  0.0859 -0.0590  0.3687
32628SOL    HW1 2246   2.287  10.913   9.638  0.4769 -0.2081  0.4734
32628SOL    HW2 2247   2.407  10.977   9.570  0.1293  0.0018  0.0482
32629SOL     OW 2248   3.588   5.307   5.963  0.6263 -0.2152 -0.2858
32629SOL    HW1 2249   3.537   5.288   6.041  0.5897  1.2496  0.0733
32629SOL    HW2 2250   3.635   5.226   5.945  0.0027 -0.8311  0.7758
32630SOL     OW 2251   2.640   4.851  10.235 -0.4857  0.5410 -0.1663
32630SOL    HW1 2252   2.684   4.773  10.267 -0.0272 -0.3607 -2.7217
32630SOL    HW2 2253   2.583   4.819  10.165 -0.7652  2.4025 -0.8425
32631SOL     OW 2254   6.849   3.730  10.486  0.0671 -0.6126 -0.2260
32631SOL    HW1 2255   6.785   3.754  10.419  0.5327  0.2256 -0.3867
32631SOL    HW2 2256   6.797   3.687  10.554 -0.6840  0.0739 -0.3364
32632SOL     OW 2257   2.011   2.116   5.301  0.1117 -0.1956 -0.0710
32632SOL    HW1 2258   1.933   2.072   5.267 -0.5432  1.1936 -0.4110
32632SOL    HW2 2259   1.978   2.191   5.349  1.1036 -1.1167  2.2437
32633SOL     OW 2260   5.237   3.251   2.113 -0.7027 -0.2610 -0.1436
32633SOL    HW1 2261   5.183   3.319   2.072  2.1356  1.3689 -1.4216
32633SOL    HW2 2262   5.327   3.276   2.095  0.6663 -1.8769  3.3786
32634SOL     OW 2263   5.186   6.678   5.779 -0.0077  0.1845 -0.7185
32634SOL    HW1 2264   5.264   6.691   5.834 -1.4425 -0.9107  1.7306
32634SOL    HW2 2265   5.132   6.755   5.793 -1.1249 -0.8238  0.8174
32635SOL     OW 2266   3.863   0.970   6.394  0.5192  0.7827 -0.8201
32635SOL    HW1 2267   3.828   1.054   6.423 -0.3315  0.6956 -1.5432
32635SOL    HW2 2268   3.798   0.937   6.332 -1.1656 -2.1268  2.1317
32636SOL     OW 2269   1.525   8.250   4.670 -0.4217 -0.0627  0.1877
32636SOL    HW1 2270   1.523   8.317   4.739  0.4175 -0.2454  0.3985
32636SOL    HW2 2271   1.588   8.284   4.607 -0.5810 -0.2834 -0.0882
32637SOL     OW 2272   1.750   1.868   4.363 -0.2967  0.3174  0.0242
32637SOL    HW1 2273   1.765   1.794   4.304  1.3100  1.1868 -0.7092
32637SOL    HW2 2274   1.820   1.861   4.429 -2.0411 -0.6273  1.8974
32638SOL     OW 2275   6.382   3.017   6.940  0.1428  0.2373  0.2167
32638SOL    HW1 2276   6.458   3.065   6.907  0.3611 -0.9683 -1.1143
32638SOL    HW2 2277   6.392   2.928   6.905 -1.7096 -0.0481  0.3033
32639SOL     OW 2278   8.929   4.954   3.027 -0.0085 -0.2129 -0.2061
32639SOL    HW1 2279   8.992   4.883   3.014  0.6355  0.6008 -1.7561
32639SOL    HW2 2280   8.849   4.922   2.986  0.5779  0.3168 -1.8578
32640SOL     OW 2281   2.690   6.577   3.107  0.5907  0.5502  0.6225
32640SOL    HW1 2282   2.738   6.659   3.115 -0.8250  1.4061  0.6669
32640SOL    HW2 2283   2.619   6.597   3.046  1.5872 -1.3178 -1.3056
32641SOL     OW 2284   8.344   2.222   7.241  0.3066  0.0535  0.0029
32641SOL    HW1 2285   8.269   2.181   7.283  1.6933  0.5042  3.2210
32641SOL    HW2 2286   8.311   2.304   7.206 -0.9135 -0.2114  0.4888
32642SOL     OW 2287  10.095   8.946   9.431 -0.3954  0.4442 -0.4723
32642SOL    HW1 2288  10.106   9.041   9.435 -0.1785  0.4246 -0.6107
32642SOL    HW2 2289  10.002   8.932   9.449 -0.1527  0.5937  1.0603
32643SOL     OW 2290   7.714   8.461   0.220  0.5663  1.0125  0.0567
32643SOL    HW1 2291   7.672   8.525   0.278  1.1369  1.2952  0.1706
32643SOL    HW2 2292   7.693   8.376   0.259 -0.3290  1.1129 -0.1821
32644SOL     OW 2293   8.657   8.251   0.145  0.3774 -0.0710 -0.1798
32644SOL    HW1 2294   8.719   8.316   0.111 -0.7339  1.0466 -0.1428
32644SOL    HW2 2295   8.686   8.235   0.235  0.0668  1.1580  0.1530
32645SOL     OW 2296   8.948   3.275   3.195  0.0436 -0.2321 -0.1245
32645SOL    HW1 2297   8.992   3.310   3.272  0.5113 -1.0072 -0.0279
32645SOL    HW2 2298   8.854   3.284   3.214  0.1414  1.2613 -0.2553
32646SOL     OW 2299   5.011   1.722   8.852  0.2385 -0.3955  0.3651
32646SOL    HW1 2300   4.988   1.812   8.829 -0.7451 -0.0286  2.6017
32646SOL    HW2 2301   4.963   1.669   8.788  1.7363  0.6276 -1.7157
32647SOL     OW 2302  10.039   6.083   4.743 -0.3258  0.0227 -0.3451
32647SOL    HW1 2303  10.059   5.999   4.702 -1.6044 -1.1890  1.3654
32647SOL    HW2 2304  10.117   6.104   4.795  1.0054  1.2075 -2.6257
32648SOL     OW 2305   2.253   7.849   0.092  0.7671  0.0063 -0.2088
32648SOL    HW1 2306   2.275   7.815   0.005  0.0863 -0.7607 -0.0909
32648SOL    HW2 2307   2.252   7.772   0.148  0.2146  0.3646  0.2800
32649SOL     OW 2308   9.438   4.812   8.494  0.1085  0.1212 -0.8659
32649SOL    HW1 2309   9.530   4.833   8.507  0.3281 -1.1972 -0.1427
32649SOL    HW2 2310   9.390   4.874   8.549  0.5545  0.7010 -1.1183
32650SOL     OW 2311   7.118   2.123   6.129 -0.2119  0.5041  0.4460
32650SOL    HW1 2312   7.113   2.114   6.034  0.9268 -3.0898  0.5715
32650SOL    HW2 2313   7.178   2.196   6.143  1.0977 -0.0790 -1.6618
32651SOL     OW 2314   2.769  10.274   1.607  0.0466 -0.1160 -0.0924
32651SOL    HW1 2315   2.823  10.239   1.535  2.9866  2.9660  0.3428
32651SOL    HW2 2316   2.814  10.246   1.686 -1.6359 -1.1967  0.5330
32652SOL     OW 2317   4.456   3.356   6.122 -0.2832  1.0453  0.4256
32652SOL    HW1 2318   4.413   3.273   6.143 -0.4159  0.7288 -0.9810
32652SOL    HW2 2319   4.547   3.332   6.106 -0.5282  0.9820 -0.9890
32653SOL     OW 2320   6.517   7.581   7.166 -0.2669  0.6040 -0.1671
32653SOL    HW1 2321   6.599   7.576   7.214  0.4900  0.2602 -1.4556
32653SOL    HW2 2322   6.453   7.538   7.223  0.4007  0.9739  0.8973
32654SOL     OW 2323   9.188   0.404   7.146 -0.0859  0.6986 -0.1954
32654SOL    HW1 2324   9.147   0.318   7.133 -1.4813  1.2485  0.3937
32654SOL    HW2 2325   9.120   0.467   7.121  1.2654  1.6569 -1.6256
32655SOL     OW 2326   8.303   9.320   4.318  0.1702 -0.2422 -0.1602
32655SOL    HW1 2327   8.238   9.290   4.382 -0.9796  0.4547 -0.9606
32655SOL    HW2 2328   8.309   9.414   4.331  0.7716 -0.2513 -0.3247
32656SOL     OW 2329   5.655  10.879   2.480 -0.1062  0.7893 -0.2713
32656SOL    HW1 2330   5.634  10.956   2.532 -0.8821  0.8152 -0.6056
32656SOL    HW2 2331   5.745  10.893   2.451 -0.8614  2.5179 -1.9519
32657SOL     OW 2332   2.813  10.640   7.984 -0.4675 -0.0438  0.2536
32657SOL    HW1 2333   2.901  10.622   7.951 -0.0960 -0.5979  1.4959
32657SOL    HW2 2334   2.757  10.578   7.937 -0.0493 -0.3445  0.1412
32658SOL     OW 2335   9.959   9.948   3.125  0.0842  0.3284  0.4003
32658SOL    HW1 2336   9.890   9.887   3.099  0.5444 -0.1195  0.2028
32658SOL    HW2 2337   9.981   9.996   3.046  0.5524 -0.0951  0.2666
32659SOL     OW 2338   1.029   1.122   0.310  0.1487  0.1905  0.0985
32659SOL    HW1 2339   0.947   1.172   0.314  0.2937  0.5434 -1.0701
32659SOL    HW2 2340   1.004   1.037   0.275  0.5134  0.9185 -2.0905
32660SOL     OW 2341   2.115   3.968   6.478 -0.5284 -0.1375 -0.3266
32660SOL    HW1 2342   2.179   3.969   6.407  0.1442 -3.1388  0.0778
32660SOL    HW2 2343   2.046   3.909   6.446 -0.8782 -0.4514  0.9745
32661SOL     OW 2344   0.654   2.340   6.793 -0.0815 -0.0488  0.2135
32661SOL    HW1 2345   0.674   2.426   6.756 -0.9262  0.6024  1.1908
32661SOL    HW2 2346   0.563   2.348   6.822 -1.1800 -2.2174 -2.2532
32662SOL     OW 2347   0.336   6.923   9.582  0.5208  0.0386 -0.1506
32662SOL    HW1 2348   0.256   6.870   9.591  0.5968  0.1425  1.2962
32662SOL    HW2 2349   0.386   6.879   9.514  0.8862 -2.1870  1.4513
32663SOL     OW 2350   6.541   4.696   8.613 -0.4121 -0.5524  0.5809
32663SOL    HW1 2351   6.611   4.640   8.577 -1.8517 -1.3071 -1.2313
32663SOL    HW2 2352   6.582   4.741   8.686  1.3470 -2.6288  0.9964
32664SOL     OW 2353  11.114   3.866   0.647 -0.3842  0.0116 -0.0623
32664SOL    HW1 2354  11.192   3.842   0.597 -0.7457 -2.4251  0.3823
32664SOL    HW2 2355  11.107   3.961   0.638  2.0385  0.1728 -0.9502
32665SOL     OW 2356   0.509   2.647   9.336 -0.3156 -0.1285 -0.0541
32665SOL    HW1 2357   0.474   2.563   9.307 -2.5188 -0.0253  2.0653
32665SOL    HW2 2358   0.533   2.633   9.428  0.1245  1.3336  0.0784
32666SOL     OW 2359  10.259   7.623   8.452 -0.2405 -0.0253  0.4597
32666SOL    HW1 2360  10.195   7.573   8.503 -0.4009 -1.1595 -0.8098
32666SOL    HW2 2361  10.240   7.602   8.361  1.0131  0.7656 -0.0191
32667SOL     OW 2362   4.460   6.889   7.049  0.0887  0.4102  0.0150
32667SOL    HW1 2363   4.506   6.891   7.133  1.4049 -0.1277 -0.6614
32667SOL    HW2 2364   4.379   6.936   7.065  0.4821  0.6404  1.4903
32668SOL     OW 2365   7.190   5.459   4.255 -0.7387  0.3858 -0.1089
32668SOL    HW1 2366   7.213   5.422   4.170  0.2222 -1.0692  0.7373
32668SOL    HW2 2367   7.269   5.503   4.285 -0.3913 -0.7992  0.8488
32669SOL     OW 2368   5.191   6.005   1.968  0.4301  1.0518  0.3078
32669SOL    HW1 2369   5.239   5.989   1.886 -0.6128  0.1194 -0.1554
32669SOL    HW2 2370   5.137   6.081   1.949 -0.9822 -0.0863 -0.4512
32670SOL     OW 2371   8.364   4.629   6.591 -0.5663  0.1502  0.2258
32670SOL    HW1 2372   8.282   4.581   6.590 -1.7972  2.1175 -1.1281
32670SOL    HW2 2373   8.422   4.579   6.533 -1.8948  0.3565 -1.3788
32671SOL     OW 2374   8.569   3.534   1.360  0.0511 -0.4651 -0.3542
32671SOL    HW1 2375   8.533   3.467   1.418 -2.7499 -0.1884 -1.5774
32671SOL    HW2 2376   8.547   3.617   1.402  0.0032 -0.2975 -0.6996
32672SOL     OW 2377   6.088   7.453   6.168 -0.1521  0.7735 -0.0370
32672SOL    HW1 2378   6.072   7.547   6.155  0.1183  1.2685  2.5762
32672SOL    HW2 2379   6.003   7.419   6.197  0.2499  0.6747  1.0650
32673SOL     OW 2380   7.922   0.960   2.320  0.6338  0.2336 -0.2710
32673SOL    HW1 2381   7.921   0.895   2.390  0.9150 -0.3904 -0.8427
32673SOL    HW2 2382   7.917   1.044   2.366  1.6626 -0.1328  0.5530
32674SOL     OW 2383   9.798  11.066   4.909  0.4303  0.0042 -0.4800
32674SOL    HW1 2384   9.871  11.125   4.893 -0.5485  1.5464  0.4461
32674SOL    HW2 2385   9.809  10.995   4.845  0.1769  2.5526 -3.5578
32675SOL     OW 2386  10.120   5.863   9.506  0.2592 -0.7076  0.2154
32675SOL    HW1 2387  10.052   5.888   9.569 -0.4003 -0.6189 -0.5274
32675SOL    HW2 2388  10.160   5.785   9.544 -0.3629 -0.8567  0.5776
32676SOL     OW 2389   1.338   3.432   3.516  0.5237  0.0987  0.3515
32676SOL    HW1 2390   1.349   3.425   3.421  0.6546 -0.0964  0.3807
32676SOL    HW2 2391   1.296   3.349   3.541 -0.0356  0.3885  0.3862
32677SOL     OW 2392   9.464   6.931   2.268  0.2559 -0.2566  0.5610
32677SOL    HW1 2393   9.401   6.975   2.325  0.2565  0.7699 -0.2022
32677SOL    HW2 2394   9.445   6.964   2.180  0.7291 -1.2582  0.0692
32678SOL     OW 2395   0.583   5.042   7.824 -0.4148  0.0402  0.2278
32678SOL    HW1 2396   0.610   4.951   7.811 -2.1262 -0.5707  0.6825
32678SOL    HW2 2397   0.626   5.090   7.753  0.8860 -1.0270  0.2541
32679SOL     OW 2398   2.935   7.419   8.918  0.6663 -0.2494  0.3388
32679SOL    HW1 2399   2.911   7.341   8.869 -1.1784  0.4547  0.0397
32679SOL    HW2 2400   2.852   7.464   8.933  1.8460  3.1835 -2.0948
32680SOL     OW 2401   6.755  10.562  10.231  0.5242  0.1453  0.4260
32680SOL    HW1 2402   6.707  10.502  10.174  0.3120  0.4107  0.3232
32680SOL    HW2 2403   6.749  10.522  10.318  0.9029 -0.2942  0.2556
32681SOL     OW 2404   0.954  10.569   7.341  0.0216  0.4820  0.2228
32681SOL    HW1 2405   0.940  10.528   7.426 -0.5813 -0.3519 -0.2600
32681SOL    HW2 2406   0.886  10.531   7.285  1.6380 -0.4914 -1.1429
32682SOL     OW 2407   2.503   6.922   3.201 -0.2672  0.2206 -0.0781
32682SOL    HW1 2408   2.586   6.885   3.173 -0.2971  0.1543 -0.0800
32682SOL    HW2 2409   2.523   6.968   3.282 -0.0493  0.9700 -0.5559
32683SOL     OW 2410   0.016   9.237   0.271  0.4904  0.0272 -0.0175
32683SOL    HW1 2411   0.001   9.312   0.329 -0.3029 -0.3541  0.2799
32683SOL    HW2 2412   0.011   9.161   0.329 -1.7878 -0.4757 -0.7682
32684SOL     OW 2413   9.350   5.228   0.002 -0.3848  0.6031 -0.2611
32684SOL    HW1 2414   9.410   5.208  -0.070 -1.8082  0.4683 -1.4448
32684SOL    HW2 2415   9.283   5.160  -0.002 -1.6971  1.8480 -0.2126
32685SOL     OW 2416   6.790  10.957   4.886  0.3195  0.2934  0.2635
32685SOL    HW1 2417   6.702  10.996   4.892  0.0519  0.0221 -1.2754
32685SOL    HW2 2418   6.774  10.864   4.869  0.9374 -0.0179  1.3065
32686SOL     OW 2419   6.531   3.121   2.154  0.2752 -0.0704  0.3165
32686SOL    HW1 2420   6.622   3.102   2.176 -0.0566  0.1686  2.0851
32686SOL    HW2 2421   6.525   3.106   2.060  1.9187 -0.9768  0.3194
32687SOL     OW 2422  10.247   2.541   3.338 -0.0918 -0.3077  0.4050
32687SOL    HW1 2423  10.302   2.619   3.346  2.2445 -1.8429  0.2341
32687SOL    HW2 2424  10.159   2.571   3.364  0.5379  2.5170 -0.3313
32688SOL     OW 2425   9.816   8.341   8.978 -0.1012 -0.3294 -0.4297
32688SOL    HW1 2426   9.747   8.275   8.973  1.0141 -1.5166 -0.7533
32688SOL    HW2 2427   9.890   8.302   8.932  0.2588  1.6213 -1.6607
32689SOL     OW 2428   1.802   0.040   3.820 -0.4192 -0.0551  0.2061
32689SOL    HW1 2429   1.778  -0.047   3.854 -1.6426 -0.4566 -1.5419
32689SOL    HW2 2430   1.887   0.027   3.778 -1.1794 -0.7646 -1.1810
32690SOL     OW 2431   0.296   1.417   7.324 -0.7158  0.4625  0.5546
32690SOL    HW1 2432   0.255   1.485   7.271  2.3815  1.2865 -1.0080
32690SOL    HW2 2433   0.262   1.335   7.289 -1.7887  1.1100  0.0527
32691SOL     OW 2434   1.333   3.878  10.383 -0.1787 -0.1860  0.2630
32691SOL    HW1 2435   1.294   3.797  10.351 -2.0570  1.4646 -1.9644
32691SOL    HW2 2436   1.412   3.889  10.330  0.4870 -0.8722  1.0810
32692SOL     OW 2437   6.282   2.353   1.511 -0.3135  0.4850 -0.3138
32692SOL    HW1 2438   6.247   2.266   1.496 -0.2965  0.2933  0.6715
32692SOL    HW2 2439   6.254   2.404   1.435 -1.1657 -0.1239 -0.4190
32693SOL     OW 2440   9.699   3.327  10.083  0.0638  0.4841  0.1173
32693SOL    HW1 2441   9.639   3.373  10.023 -0.9461 -1.7644 -0.7350
32693SOL    HW2 2442   9.646   3.256  10.119  1.7354 -0.4889  0.7517
32694SOL     OW 2443   3.999  10.304   2.214  0.6123  0.7318 -0.1868
32694SOL    HW1 2444   3.936  10.298   2.143  1.7568 -1.6445 -1.1005
32694SOL    HW2 2445   4.071  10.356   2.179  1.0405 -0.1842 -0.7007
32695SOL     OW 2446   3.379  10.940   2.155  0.0900  0.1575 -0.0483
32695SOL    HW1 2447   3.292  10.942   2.115  0.5227 -0.3553 -1.0480
32695SOL    HW2 2448   3.387  11.025   2.198 -0.4905  0.6465 -0.8681
32696SOL     OW 2449   0.074   6.396   8.651 -0.0734  0.1720  0.1991
32696SOL    HW1 2450   0.003   6.405   8.587 -0.1996 -1.8610 -0.0121
32696SOL    HW2 2451   0.148   6.441   8.610 -0.4000 -0.3502 -1.0268
32697SOL     OW 2452   4.957   7.906   8.905  0.3742 -0.1309  0.4606
32697SOL    HW1 2453   4.908   7.951   8.836  2.4852  1.6940  0.0147
32697SOL    HW2 2454   4.911   7.823   8.917 -2.1752  1.0274 -0.5647
32698SOL     OW 2455   6.268   0.141   0.832 -0.5198 -0.0975  0.3934
32698SOL    HW1 2456   6.327   0.109   0.765 -0.8907 -0.8590  0.4207
32698SOL    HW2 2457   6.197   0.076   0.835 -0.6794  0.1048  1.2759
32699SOL     OW 2458   8.906   1.374  10.060  0.1762  0.1414  0.9810
32699SOL    HW1 2459   8.998   1.398  10.044  0.1842  1.1355  2.3324
32699SOL    HW2 2460   8.876   1.339   9.976  1.4623  0.8710  0.1710
32700SOL     OW 2461   6.155   5.463   4.000 -0.2350 -0.1775  0.0420
32700SOL    HW1 2462   6.174   5.415   3.919 -1.5477 -0.3037 -0.2239
32700SOL    HW2 2463   6.209   5.542   3.995 -0.4742 -0.0702 -1.0786
32701SOL     OW 2464   2.606   7.061  11.071  0.1031 -0.5695 -0.3975
32701SOL    HW1 2465   2.685   7.007  11.069 -0.5007 -1.4619 -0.5836
32701SOL    HW2 2466   2.631   7.142  11.028  0.7619 -1.0637 -0.9619
32702SOL     OW 2467   8.832   3.784   7.646 -0.2797 -0.2340 -0.0044
32702SOL    HW1 2468   8.859   3.775   7.555  1.2631  1.0128  0.2897
32702SOL    HW2 2469   8.818   3.878   7.658 -0.9706 -0.4382  0.9190
32703SOL     OW 2470   9.211   7.032   7.068  0.0104  0.3094 -0.4830
32703SOL    HW1 2471   9.207   6.940   7.043 -1.7149 -0.0084  0.7755
32703SOL    HW2 2472   9.138   7.043   7.129  0.3753  2.4439 -0.3703
32704SOL     OW 2473   6.814  10.759   8.605  0.1388  0.0449 -0.1525
32704SOL    HW1 2474   6.752  10.698   8.566  0.2014 -0.1195  0.0046
32704SOL    HW2 2475   6.807  10.838   8.551  1.6386 -0.8288 -1.7244
32705SOL     OW 2476   2.962   4.261   0.425 -0.6831 -0.3318  0.1829
32705SOL    HW1 2477   2.982   4.324   0.494 -0.3936 -0.4018  0.1619
32705SOL    HW2 2478   2.871   4.279   0.402 -0.3229  0.7387 -0.5025
32706SOL     OW 2479   4.792   6.801   2.750  0.6367 -0.3644  0.2577
32706SOL    HW1 2480   4.788   6.826   2.657  0.0351  1.0538  0.6494
32706SOL    HW2 2481   4.857   6.860   2.788 -0.3074  0.1788  1.0653
32707SOL     OW 2482   7.979   5.523   5.339 -0.3779 -0.2420  0.3592
32707SOL    HW1 2483   7.890   5.509   5.373 -0.9606  0.2932 -0.8793
32707SOL    HW2 2484   7.987   5.618   5.333 -0.2843 -0.3087 -0.9086
32708SOL     OW 2485   2.468   9.778   6.527 -0.1884  0.1189 -0.1904
32708SOL    HW1 2486   2.545   9.722   6.517 -1.9090 -2.2357 -1.1439
32708SOL    HW2 2487   2.450   9.777   6.621  1.2729  1.2256  0.1278
32709SOL     OW 2488   2.280   3.483   6.114 -0.5239  0.0057  0.6388
32709SOL    HW1 2489   2.357   3.433   6.085 -0.1804  1.1685 -0.5525
32709SOL    HW2 2490   2.207   3.421   6.104 -0.3521  0.1142 -2.2987
32710SOL     OW 2491   4.072   0.533   2.066  0.4372  1.0793  0.0409
32710SOL    HW1 2492   4.050   0.625   2.055 -1.0863  0.5843 -1.6163
32710SOL    HW2 2493   4.131   0.514   1.993  2.1209  1.0823  1.3326
32711SOL     OW 2494   8.891   7.512   9.127 -0.0962 -0.3814 -0.2831
32711SOL    HW1 2495   8.839   7.432   9.138 -0.5469  0.0830  1.1950
32711SOL    HW2 2496   8.827   7.583   9.133  0.6455  0.2043  1.5045
32712SOL     OW 2497   7.642   4.583   1.650  0.3603 -0.4387 -0.1034
32712SOL    HW1 2498   7.578   4.654   1.648  1.7970  0.9256 -1.2656
32712SOL    HW2 2499   7.629   4.540   1.734  0.1863  1.9567  1.1748
32713SOL     OW 2500   7.866   6.638   9.809 -0.6772 -0.1337 -0.2783
32713SOL    HW1 2501   7.947   6.590   9.795 -1.3081 -0.9062 -1.4660
32713SOL    HW2 2502   7.828   6.647   9.721 -1.5111  0.8722  0.1564
32714SOL     OW 2503   3.306   5.308   1.033 -0.7328  0.1148  0.0904
32714SOL    HW1 2504   3.355   5.364   0.973  0.9604 -0.1578  1.1611
32714SOL    HW2 2505   3.230   5.361   1.058  0.0296  1.3268 -0.0850
32715SOL     OW 2506   9.210   5.033   8.346  0.1925 -0.0470 -0.4792
32715SOL    HW1 2507   9.270   5.095   8.305 -1.8570  2.2882 -0.1947
32715SOL    HW2 2508   9.231   5.037   8.439 -1.3410  2.0632 -0.1388
32716SOL     OW 2509   9.104   8.833   0.097  0.3107  0.0310 -0.5501
32716SOL    HW1 2510   9.092   8.919   0.056 -0.0013 -0.5754 -1.7870
32716SOL    HW2 2511   9.048   8.775   0.046 -0.2555 -0.7299  0.8990
32717SOL     OW 2512   3.273   4.991   9.799 -0.3934 -0.2684 -0.3025
32717SOL    HW1 2513   3.250   5.081   9.779  0.8826 -0.1474 -1.4186
32717SOL    HW2 2514   3.258   4.982   9.893 -0.4769  1.1218 -0.1622
32718SOL     OW 2515   7.417   7.015   9.591  0.1234  0.2378 -0.2283
32718SOL    HW1 2516   7.425   7.067   9.511  0.9687 -0.5475 -0.6828
32718SOL    HW2 2517   7.362   7.067   9.649 -1.0228  0.5427 -1.5562
32719SOL     OW 2518   9.115   1.695   6.763  0.4096  0.2018  0.7801
32719SOL    HW1 2519   9.197   1.651   6.738  0.2434 -0.5652  1.5268
32719SOL    HW2 2520   9.083   1.644   6.837 -0.4500  0.8521  0.8642
32720SOL     OW 2521   6.473   4.991   9.644  0.5117 -0.4344 -0.1477
32720SOL    HW1 2522   6.521   5.019   9.566  3.5189 -1.2603  1.2612
32720SOL    HW2 2523   6.506   5.047   9.714  1.8636 -3.0813  1.4700
32721SOL     OW 2524   2.963   7.512   6.753  0.1252  0.3731  0.3682
32721SOL    HW1 2525   2.878   7.500   6.796 -0.3821 -0.4223 -0.7916
32721SOL    HW2 2526   2.993   7.423   6.735  1.0368  0.6615  0.4289
32722SOL     OW 2527   7.995   9.429   3.315 -0.0474 -0.1706  0.4395
32722SOL    HW1 2528   7.958   9.389   3.236  0.6560 -1.6142  0.8092
32722SOL    HW2 2529   8.089   9.435   3.297  0.1661 -0.8448  1.3095
32723SOL     OW 2530   2.588   3.961   9.440 -0.1882 -0.0254 -0.1996
32723SOL    HW1 2531   2.548   3.906   9.507  2.1615 -2.0084 -0.3118
32723SOL    HW2 2532   2.666   3.913   9.412 -0.0828  1.5788 -3.0704
32724SOL     OW 2533  10.898   3.582   9.475 -0.5686  0.6175  0.4137
32724SOL    HW1 2534  10.842   3.506   9.493  0.7058 -0.2723  0.7416
32724SOL    HW2 2535  10.951   3.557   9.400 -0.8278  1.5886 -0.1182
32725SOL     OW 2536   6.568   5.537   6.763  0.1042  0.2530 -0.2654
32725SOL    HW1 2537   6.486   5.561   6.721  0.1589  0.1895 -0.4083
32725SOL    HW2 2538   6.634   5.592   6.722  0.2829 -0.3643 -0.8341
32726SOL     OW 2539   6.821  10.380   8.110 -0.2700  0.5735 -0.5485
32726SOL    HW1 2540   6.732  10.410   8.131 -0.6834 -0.6829 -0.4033
32726SOL    HW2 2541   6.870  10.391   8.192 -0.7724 -0.3638 -0.0973
32727SOL     OW 2542   0.239   4.761   3.613  0.2915 -0.2595  0.2010
32727SOL    HW1 2543   0.301   4.797   3.677 -1.4066 -1.8085  2.9001
32727SOL    HW2 2544   0.232   4.829   3.546  0.8453  2.3187  2.5457
32728SOL     OW 2545   4.735  10.888   1.932  0.7180  0.1891  0.1078
32728SOL    HW1 2546   4.684  10.935   1.998  0.8858 -0.8459  0.9937
32728SOL    HW2 2547   4.680  10.815   1.906  0.9147  0.2321 -0.4513
32729SOL     OW 2548   6.809   8.558   9.121  0.2330 -0.4406  0.1627
32729SOL    HW1 2549   6.878   8.623   9.108  0.1255 -0.2685  0.4271
32729SOL    HW2 2550   6.786   8.566   9.214  0.5100 -1.1480  0.2980
32730SOL     OW 2551   6.559   7.404   2.988 -0.1711  0.1268  0.0563
32730SOL    HW1 2552   6.601   7.333   3.038  1.0094  0.1510 -0.8459
32730SOL    HW2 2553   6.619   7.419   2.915 -1.6296  0.3889 -1.1266
32731SOL     OW 2554   2.448   6.255   5.841 -0.6875  0.3430 -0.3625
32731SOL    HW1 2555   2.520   6.259   5.904 -1.2586 -0.6918  0.3845
32731SOL    HW2 2556   2.462   6.174   5.792 -0.4201  0.9880 -1.3756
32732SOL     OW 2557   0.616   7.973   5.470  0.1691 -0.2051 -0.1048
32732SOL    HW1 2558   0.693   8.025   5.447 -0.4027  0.3883 -0.6869
32732SOL    HW2 2559   0.554   7.989   5.400  0.2639 -2.2961 -0.7416
32733SOL     OW 2560   7.830   6.797   1.721 -0.2609  0.2813  0.7600
32733SOL    HW1 2561   7.876   6.720   1.755 -0.1299  1.4429  3.4537
32733SOL    HW2 2562   7.898   6.864   1.715 -0.6063  0.5416 -0.3688
32734SOL     OW 2563   9.508   9.007   9.904 -0.4324  0.1400 -0.1675
32734SOL    HW1 2564   9.506   9.098   9.932  1.7909 -0.1380  1.1731
32734SOL    HW2 2565   9.572   8.965   9.962 -2.9915 -2.8300  0.8364
32735SOL     OW 2566   0.860   1.920   2.518  0.2172  0.1923  0.4951
32735SOL    HW1 2567   0.955   1.917   2.508  0.4006  0.0571  2.0735
32735SOL    HW2 2568   0.836   2.008   2.488  0.3073 -0.9200 -3.4803
32736SOL     OW 2569   3.961   3.481   5.497  0.3636  0.2228  0.0571
32736SOL    HW1 2570   3.962   3.425   5.419  0.4084 -1.9256  1.5232
32736SOL    HW2 2571   4.032   3.543   5.482  2.4512 -2.0818 -0.3046
32737SOL     OW 2572  10.366   3.020   7.462 -0.3404  0.5571  0.2427
32737SOL    HW1 2573  10.379   2.933   7.422  0.7661  0.1271  1.4668
32737SOL    HW2 2574  10.271   3.027   7.473 -0.5168 -0.1085 -0.6965
32738SOL     OW 2575   7.410   8.816   9.801  0.0460  0.3904 -0.0270
32738SOL    HW1 2576   7.486   8.787   9.851 -0.9371 -2.1763  0.0968
32738SOL    HW2 2577   7.417   8.912   9.801  3.7157  0.2890 -0.7469
32739SOL     OW 2578   9.736   1.401   6.911 -0.0334 -0.1605 -0.2958
32739SOL    HW1 2579   9.766   1.403   7.002 -0.0127 -0.9453 -0.2841
32739SOL    HW2 2580   9.667   1.468   6.907 -0.4613 -0.5443  0.4476
32740SOL     OW 2581   9.169   8.660  10.065 -0.5008 -0.4976  0.0084
32740SOL    HW1 2582   9.169   8.609   9.984 -0.9322 -0.3284 -0.1012
32740SOL    HW2 2583   9.226   8.734  10.047  2.4718 -2.3613  1.0977
32741SOL     OW 2584   5.600   7.743   2.011 -0.1088  0.0864 -0.0677
32741SOL    HW1 2585   5.661   7.744   2.084  0.1296 -0.7621 -0.2445
32741SOL    HW2 2586   5.554   7.660   2.019 -1.0781  0.6009 -0.0814
32742SOL     OW 2587   1.861   9.890  10.732  0.0467  0.0028  0.0834
32742SOL    HW1 2588   1.787   9.950  10.745  0.1431  0.5222 -1.5339
32742SOL    HW2 2589   1.902   9.884  10.818 -1.5635  0.1029  0.9115
32743SOL     OW 2590   6.778   4.186   6.127  0.6521 -0.2002  0.1409
32743SOL    HW1 2591   6.828   4.264   6.150 -2.9237  2.2094  0.6529
32743SOL    HW2 2592   6.741   4.156   6.210 -2.3246  0.9940 -0.5980
32744SOL     OW 2593   1.065   3.863   2.332 -0.3354 -0.1379 -0.2857
32744SOL    HW1 2594   0.969   3.869   2.332 -0.4466 -1.5924 -0.3033
32744SOL    HW2 2595   1.087   3.836   2.421 -0.0239 -0.7671 -0.5455
32745SOL     OW 2596   8.525   9.787   4.740  0.5196  0.0145  0.0911
32745SOL    HW1 2597   8.432   9.806   4.730  0.5917  0.6218  0.5895
32745SOL    HW2 2598   8.528   9.692   4.755 -0.0260  0.0189  0.2461
32746SOL     OW 2599   1.782   5.843   1.441  0.2066 -0.4123  0.1199
32746SOL    HW1 2600   1.733   5.920   1.470 -0.8557 -1.1963  0.4835
32746SOL    HW2 2601   1.773   5.843   1.346 -0.7672 -0.6930  0.1999
32747SOL     OW 2602   4.959   7.487  10.691 -0.2805 -0.1832  0.4490
32747SOL    HW1 2603   4.919   7.560  10.645  1.7955  0.8950  0.2689
32747SOL    HW2 2604   5.026   7.454  10.631 -0.8857 -1.9892  0.7053
32748SOL     OW 2605   9.823   8.543   2.919  0.3738 -0.0905  0.2857
32748SOL    HW1 2606   9.915   8.549   2.893  0.1486  1.5201 -0.2640
32748SOL    HW2 2607   9.777   8.522   2.838  0.0875  0.8756  0.1892
32749SOL     OW 2608   9.598   2.077   2.479 -0.0283  0.6150  0.0355
32749SOL    HW1 2609   9.548   2.028   2.414  0.9957 -0.8803  0.3445
32749SOL    HW2 2610   9.688   2.073   2.448  0.5913 -0.7346  1.8707
32750SOL     OW 2611   0.696   8.845   4.854 -0.2372  0.6361 -0.4683
32750SOL    HW1 2612   0.686   8.907   4.926 -0.5571  0.0188  0.0368
32750SOL    HW2 2613   0.786   8.814   4.861 -0.8885 -1.1303  1.1317
32751SOL     OW 2614   8.668   5.046   1.812  0.4581  0.4542  0.0450
32751SOL    HW1 2615   8.574   5.032   1.800  0.7092 -0.9168 -0.5317
32751SOL    HW2 2616   8.688   5.001   1.894  0.5790  0.9508  0.2924
32752SOL     OW 2617   3.718   0.760   5.128 -0.1538  0.3945  0.4866
32752SOL    HW1 2618   3.723   0.730   5.219  0.4649 -0.7101  0.1088
32752SOL    HW2 2619   3.624   0.767   5.110 -0.2852  1.6720  1.5221
32753SOL     OW 2620   1.239   1.012   3.535 -0.5898  0.0272  0.3455
32753SOL    HW1 2621   1.273   0.923   3.540  0.0187  0.2913  1.6542
32753SOL    HW2 2622   1.289   1.060   3.602 -0.6437  1.4349 -0.5794
32754SOL     OW 2623   9.721  10.172   1.847 -0.0374  0.2700 -0.2738
32754SOL    HW1 2624   9.681  10.136   1.926  1.3670  0.8015  0.7081
32754SOL    HW2 2625   9.814  10.152   1.855  0.3511  1.5902 -1.0885
32755SOL     OW 2626   5.350   5.131   6.127  0.0419  0.1727  0.2549
32755SOL    HW1 2627   5.403   5.156   6.203  0.2821  0.4267  0.0090
32755SOL    HW2 2628   5.266   5.174   6.141 -0.5072 -1.1505  1.2144
32756SOL     OW 2629   4.418  10.744   9.884  0.4419 -0.1512  0.7985
32756SOL    HW1 2630   4.506  10.783   9.889  0.9392 -1.4115  3.7364
32756SOL    HW2 2631   4.365  10.796   9.944 -0.5328 -0.1827 -0.0037
32757SOL     OW 2632   7.180   5.909  10.996  0.0169 -0.0901  0.1080
32757SOL    HW1 2633   7.204   5.828  10.950 -0.1202  0.5268 -1.1074
32757SOL    HW2 2634   7.098   5.936  10.955  0.7281  1.3467 -0.4581
32758SOL     OW 2635   9.238   6.135   8.564 -0.0933  0.0928 -0.4425
32758SOL    HW1 2636   9.143   6.123   8.563  0.0904 -1.6988 -0.0707
32758SOL    HW2 2637   9.271   6.065   8.507  1.1378 -1.2265  1.7547
32759SOL     OW 2638  10.156   8.642   8.183  0.1713  0.1483  0.8613
32759SOL    HW1 2639  10.206   8.564   8.208 -0.6604 -0.7264 -0.1228
32759SOL    HW2 2640  10.141   8.633   8.089  3.0701  3.2594 -0.1167
32760SOL     OW 2641   9.565  10.002   8.739  0.1787 -0.1859 -0.4115
32760SOL    HW1 2642   9.540   9.910   8.747 -0.4100  0.0172  0.2635
32760SOL    HW2 2643   9.486  10.046   8.708  0.2152  0.2128  0.0517
32761SOL     OW 2644   0.161   5.491   1.698  0.3388 -0.3318 -0.4254
32761SOL    HW1 2645   0.198   5.527   1.617 -0.6936 -0.2922 -0.8960
32761SOL    HW2 2646   0.071   5.525   1.700  0.9042  1.2343  1.7060
32762SOL     OW 2647   8.705   7.503   6.669 -0.2117 -0.6056 -0.2145
32762SOL    HW1 2648   8.770   7.443   6.706 -1.0283 -1.4267 -0.0470
32762SOL    HW2 2649   8.704   7.482   6.575  0.2051 -0.1650 -0.3151
32763SOL     OW 2650   0.975   7.325  10.216 -0.0319  0.3676 -0.1960
32763SOL    HW1 2651   0.949   7.369  10.135  2.8728  0.3325 -1.2512
32763SOL    HW2 2652   1.063   7.359  10.235  0.0379 -0.8652  2.0404
32764SOL     OW 2653   5.047  10.119   3.601  0.0689  0.3617  0.0099
32764SOL    HW1 2654   4.963  10.164   3.585 -0.1351 -0.1466 -0.3629
32764SOL    HW2 2655   5.023  10.040   3.649  0.1043 -0.7575 -1.7280
32765SOL     OW 2656   6.135   9.263   7.304 -0.1755 -0.0602  0.2048
32765SOL    HW1 2657   6.132   9.341   7.249 -0.7179 -1.3570 -1.6652
32765SOL    HW2 2658   6.228   9.240   7.307 -0.3782 -2.4606 -3.9937
32766SOL     OW 2659   6.542   7.461   5.405  0.3607 -0.9572  0.3951
32766SOL    HW1 2660   6.509   7.429   5.489  0.7544 -0.0657  0.9039
32766SOL    HW2 2661   6.606   7.529   5.428 -0.3604  0.1218 -0.6255
32767SOL     OW 2662   9.510  10.788   7.576 -0.4517 -0.4735 -0.5882
32767SOL    HW1 2663   9.604  10.807   7.583 -0.6859  0.1509  1.3742
32767SOL    HW2 2664   9.483  10.831   7.495  0.8565 -0.2428 -0.9286
32768SOL     OW 2665   0.402   9.130   9.681 -0.4379  0.2041  0.8331
32768SOL    HW1 2666   0.330   9.185   9.711 -0.6952 -0.2836  1.1248
32768SOL    HW2 2667   0.437   9.176   9.605  0.7168  1.8659  2.2754
32769SOL     OW 2668   6.992   3.897   6.579  0.0604  0.7637  0.5704
32769SOL    HW1 2669   6.999   3.985   6.618 -2.2038  0.8576  0.9012
32769SOL    HW2 2670   7.048   3.842   6.634  0.6729  1.7921  1.0113
32770SOL     OW 2671   3.763   9.244   4.902 -0.2083  0.1148 -0.0809
32770SOL    HW1 2672   3.824   9.170   4.904 -1.9704 -1.3638  0.7058
32770SOL    HW2 2673   3.699   9.221   4.836 -0.2016  1.4612 -0.5871
32771SOL     OW 2674   5.047   4.856   2.867  0.4086 -0.1278 -0.2203
32771SOL    HW1 2675   5.131   4.901   2.859  0.4654 -0.1362  0.3037
32771SOL    HW2 2676   4.983   4.918   2.830  0.3829  0.7163  1.1634
32772SOL     OW 2677   9.459   4.239   8.424  0.0015  0.3472 -0.0951
32772SOL    HW1 2678   9.404   4.305   8.466  0.2511 -0.8488  2.2903
32772SOL    HW2 2679   9.540   4.239   8.475  0.3035 -1.2586 -0.5174
32773SOL     OW 2680   9.301   5.744   8.676 -0.8620  0.0998 -0.1543
32773SOL    HW1 2681   9.391   5.721   8.654 -0.6079  1.0707 -0.2007
32773SOL    HW2 2682   9.307   5.831   8.716 -1.8934  0.7476 -1.3063
32774SOL     OW 2683   6.312   5.916   7.750 -0.0565 -0.3193  0.3453
32774SOL    HW1 2684   6.389   5.945   7.701 -0.4356  0.9699  0.4680
32774SOL    HW2 2685   6.343   5.907   7.840  0.5300 -2.2531  0.0083
32775SOL     OW 2686   4.470  10.543   6.685 -0.1401  0.1152  0.0302
32775SOL    HW1 2687   4.381  10.570   6.706  0.4720  1.4068  1.0376
32775SOL    HW2 2688   4.494  10.596   6.609  0.3231  0.9016  0.7241
32776SOL     OW 2689   1.807   9.224   6.314 -0.0774 -0.0226  0.4165
32776SOL    HW1 2690   1.818   9.215   6.409  0.9098  1.4865  0.4694
32776SOL    HW2 2691   1.845   9.143   6.279  1.3392  0.2522  1.2226
32777SOL     OW 2692   3.952  10.125   0.902 -0.3836  0.3331 -0.1027
32777SOL    HW1 2693   3.869  10.093   0.937 -0.7040  1.4742  0.2135
32777SOL    HW2 2694   4.019  10.078   0.952 -0.8316  1.7310  1.9325
32778SOL     OW 2695   3.326   4.653   7.706 -0.1382  0.1825 -0.0967
32778SOL    HW1 2696   3.323   4.557   7.706 -1.5155  0.1957 -1.4941
32778SOL    HW2 2697   3.309   4.677   7.797  1.7065 -0.8940  0.5803
32779SOL     OW 2698   7.821   7.699   5.034 -0.1818 -0.1055  0.1656
32779SOL    HW1 2699   7.867   7.615   5.030  2.3300  1.1958 -2.0183
32779SOL    HW2 2700   7.733   7.680   5.001  0.3737 -1.8680 -0.4259
32780SOL     OW 2701   7.318   1.310   4.737  0.0666 -0.1876 -0.5614
32780SOL    HW1 2702   7.363   1.291   4.655  1.7096  1.3424 -0.0866
32780SOL    HW2 2703   7.375   1.273   4.805 -0.1692  0.3963 -0.0317
32781SOL     OW 2704   9.647   8.418   0.618 -0.4475  0.2472 -0.1887
32781SOL    HW1 2705   9.656   8.512   0.631 -2.6581  0.3304  1.1962
32781SOL    HW2 2706   9.725   8.393   0.567  0.9264  2.5377  0.6619
32782SOL     OW 2707   9.139   9.462   8.118 -0.2611  0.3417  0.5592
32782SOL    HW1 2708   9.222   9.506   8.101  0.0332  0.0777  1.2618
32782SOL    HW2 2709   9.100   9.450   8.031  0.5693  0.2085  0.1954
32783SOL     OW 2710   6.190   9.535   1.311 -0.3666 -0.0903 -0.3180
32783SOL    HW1 2711   6.153   9.446   1.309  0.1368 -0.2840 -1.3557
32783SOL    HW2 2712   6.128   9.587   1.261  0.1281 -0.1722 -1.0250
32784SOL     OW 2713   5.021   2.948   2.466  0.2434 -0.4853  0.3404
32784SOL    HW1 2714   5.086   2.969   2.399  1.6120 -0.5606  1.5955
32784SOL    HW2 2715   4.963   2.884   2.424  0.2211  0.4856 -1.1967
32785SOL     OW 2716   2.594   2.855   9.627 -0.3065 -0.3917 -0.1396
32785SOL    HW1 2717   2.635   2.808   9.554 -0.1815 -0.6109  0.0707
32785SOL    HW2 2718   2.656   2.924   9.649 -0.4758 -0.1414 -0.4276
32786SOL     OW 2719   2.327   2.902   8.304  0.0997 -0.4048 -0.5638
32786SOL    HW1 2720   2.233   2.902   8.319  0.1243 -2.1082 -0.2228
32786SOL    HW2 2721   2.363   2.850   8.376  1.5668  2.0979  0.6560
32787SOL     OW 2722   1.743   5.597   3.550 -0.0233 -0.2032 -0.4256
32787SOL    HW1 2723   1.811   5.542   3.510  0.7234  0.6564 -0.3678
32787SOL    HW2 2724   1.789   5.645   3.619 -0.9689 -0.5233  0.4485
32788SOL     OW 2725   7.358   3.091   3.072 -0.2908 -0.0146  0.0264
32788SOL    HW1 2726   7.365   3.177   3.031  1.5739  0.5213  1.3283
32788SOL    HW2 2727   7.415   3.035   3.019 -1.5869 -0.5036 -0.8842
32789SOL     OW 2728   5.043   5.312   1.716  0.5366 -0.0125  0.4960
32789SOL    HW1 2729   5.028   5.264   1.634  1.3740  0.2506  0.1850
32789SOL    HW2 2730   5.046   5.243   1.783  0.8832 -0.3192  0.1681
32790SOL     OW 2731   8.789   0.564   0.097 -0.3489  0.0052  0.3170
32790SOL    HW1 2732   8.840   0.603   0.168  1.7142 -0.1760 -0.9525
32790SOL    HW2 2733   8.781   0.634   0.032  1.2691 -0.9047 -0.9312
32791SOL     OW 2734   5.342   6.424   2.502 -0.8426  0.3146 -0.4773
32791SOL    HW1 2735   5.332   6.518   2.513  1.7794  1.1596 -3.7157
32791SOL    HW2 2736   5.350   6.411   2.408 -2.2272 -3.3453 -0.2638
32792SOL     OW 2737   0.049   4.492   6.674  0.0238  0.3161  0.7919
32792SOL    HW1 2738   0.041   4.413   6.620 -1.9357 -0.7512  2.5130
32792SOL    HW2 2739   0.129   4.479   6.725 -0.0937 -0.3957  0.8001
32793SOL     OW 2740   3.453  11.009   7.727  0.3146 -0.3780  0.7474
32793SOL    HW1 2741   3.466  11.066   7.803 -1.3009 -0.9185  1.4733
32793SOL    HW2 2742   3.430  11.068   7.656 -1.1850 -0.0670  1.4538
32794SOL     OW 2743   3.998   1.741   2.608  0.2444 -0.2018  0.6468
32794SOL    HW1 2744   3.961   1.721   2.522 -1.8739  0.3159  1.3873
32794SOL    HW2 2745   3.935   1.800   2.649  1.3973 -0.1111  2.4179
32795SOL     OW 2746   5.787   0.640   8.447  0.0482  0.1109  0.1514
32795SOL    HW1 2747   5.722   0.577   8.415  1.5098 -1.1539 -0.4435
32795SOL    HW2 2748   5.794   0.622   8.541 -0.5250  0.3436  0.2462
32796SOL     OW 2749  10.313  10.699   3.084  0.2273  0.5845  0.1793
32796SOL    HW1 2750  10.357  10.781   3.065 -0.0149  1.1231  1.7662
32796SOL    HW2 2751  10.222  10.713   3.058  0.0314  1.0912  1.0936
32797SOL     OW 2752   7.327   2.318   5.721 -0.7238  0.3833 -0.5608
32797SOL    HW1 2753   7.258   2.252   5.728 -2.9062  2.4985 -0.4336
32797SOL    HW2 2754   7.405   2.276   5.755 -2.0732 -1.9832 -0.1830
32798SOL     OW 2755   2.754   5.786   2.530 -0.1438 -0.0824  0.4397
32798SOL    HW1 2756   2.746   5.835   2.612 -2.4139 -2.5920  1.9371
32798SOL    HW2 2757   2.686   5.822   2.474 -0.1854  0.1023  0.6072
32799SOL     OW 2758  10.367   4.079   2.087 -0.6620 -0.2372  0.2569
32799SOL    HW1 2759  10.286   4.103   2.130  0.1204  3.4912 -0.0134
32799SOL    HW2 2760  10.341   4.053   1.998 -1.6147  0.2897  0.3794
32800SOL     OW 2761   7.042   5.477   6.940  0.2702  0.0819  0.2075
32800SOL    HW1 2762   6.984   5.401   6.944  0.2425  0.1699  2.2911
32800SOL    HW2 2763   6.993   5.541   6.889 -0.1735 -0.8882 -0.6295
32801SOL     OW 2764   4.333   7.205   4.632  0.4244  0.4155  0.2836
32801SOL    HW1 2765   4.294   7.233   4.715  0.6645  1.9187 -0.0859
32801SOL    HW2 2766   4.424   7.185   4.653  0.1437 -0.5126  0.6350
32802SOL     OW 2767   3.920   0.340   5.640 -0.1230 -0.1230 -0.2082
32802SOL    HW1 2768   3.953   0.255   5.612 -1.8828 -1.3278  1.1186
32802SOL    HW2 2769   3.857   0.319   5.710 -0.3748  2.2928  0.3722
32803SOL     OW 2770   7.106   2.379   5.225  0.4522  0.7570  0.3363
32803SOL    HW1 2771   7.044   2.325   5.275 -0.8160  1.1214 -0.7933
32803SOL    HW2 2772   7.082   2.469   5.248  0.4643  0.9050 -0.2313
32804SOL     OW 2773   5.477   0.424   4.080 -0.3222  0.2974  0.0441
32804SOL    HW1 2774   5.497   0.425   3.987 -1.6958 -0.0951 -0.2795
32804SOL    HW2 2775   5.429   0.505   4.095 -0.4697  0.1615  0.3206
32805SOL     OW 2776   6.903   4.424   7.616  0.0394  0.0327  1.0468
32805SOL    HW1 2777   6.865   4.511   7.629 -0.0853  0.3687 -1.2329
32805SOL    HW2 2778   6.939   4.401   7.702 -0.6193  1.9716  1.9069
32806SOL     OW 2779   4.673   2.870   6.548  0.1198  0.2543  0.8484
32806SOL    HW1 2780   4.732   2.794   6.557 -0.0962  0.2557  2.9324
32806SOL    HW2 2781   4.703   2.930   6.616  0.5986  2.3154 -1.0770
32807SOL     OW 2782   0.830   6.815   1.987  0.2175 -0.3872 -0.2771
32807SOL    HW1 2783   0.924   6.831   1.980 -0.1535  1.2724 -2.4775
32807SOL    HW2 2784   0.797   6.888   2.040 -0.3284  1.7382 -3.2690
32808SOL     OW 2785   3.283   5.754   8.359 -0.0369 -0.4505 -0.5144
32808SOL    HW1 2786   3.203   5.702   8.360 -0.7212  0.5752  0.3864
32808SOL    HW2 2787   3.292   5.781   8.267 -1.4042  0.4135 -0.4204
32809SOL     OW 2788   9.446   0.952   7.991 -0.1429  0.1890  0.4829
32809SOL    HW1 2789   9.471   1.044   8.003 -0.7119  0.2222  1.5197
32809SOL    HW2 2790   9.363   0.943   8.038 -1.8721 -0.0517 -2.3171
32810SOL     OW 2791   6.971  10.189   7.283 -0.4240  0.0442 -0.3820
32810SOL    HW1 2792   6.966  10.220   7.373 -0.3627 -1.2398  0.0867
32810SOL    HW2 2793   6.881  10.162   7.262 -0.3468 -0.0851 -0.5509
32811SOL     OW 2794   1.569   3.214   2.707 -0.5173  0.0450 -0.0776
32811SOL    HW1 2795   1.503   3.146   2.723 -0.0072 -0.3149  0.5470
32811SOL    HW2 2796   1.653   3.169   2.717 -0.1486  0.3246 -1.5704
32812SOL     OW 2797   4.048   9.449   5.588 -0.2574  0.1797 -0.0160
32812SOL    HW1 2798   4.054   9.382   5.656 -1.0331  0.0057 -0.1110
32812SOL    HW2 2799   4.051   9.532   5.635  1.1371  0.1006  0.0686
32813SOL     OW 2800   5.849   1.054   0.390 -0.1480  0.1032  0.0657
32813SOL    HW1 2801   5.777   1.099   0.345 -1.3696  0.1402  1.9594
32813SOL    HW2 2802   5.911   1.124   0.413  1.1468 -0.0578 -2.5470
32814SOL     OW 2803   5.198   6.288   1.991  0.8056  0.2430 -0.7921
32814SOL    HW1 2804   5.138   6.281   2.065 -1.4722 -3.4835 -2.6717
32814SOL    HW2 2805   5.268   6.225   2.011  1.6480  1.2039 -0.6504
32815SOL     OW 2806   9.595   3.448   7.084  0.1672 -0.0460  0.6571
32815SOL    HW1 2807   9.658   3.394   7.130  0.1468  0.8265  1.7607
32815SOL    HW2 2808   9.576   3.520   7.145 -0.4649  0.7177 -0.4031
32816SOL     OW 2809   6.965   4.390   4.195  0.0533  0.2854 -0.5542
32816SOL    HW1 2810   7.052   4.352   4.185  0.7972  2.0908 -1.4030
32816SOL    HW2 2811   6.914   4.354   4.122  0.0392 -0.8384 -0.0074
32817SOL     OW 2812   8.248   5.804   7.543 -0.0637 -0.8408  0.0669
32817SOL    HW1 2813   8.319   5.753   7.583  0.4320 -0.0734  0.1915
32817SOL    HW2 2814   8.291   5.883   7.511 -1.2174  0.7888  2.2883
32818SOL     OW 2815   1.159   5.876   6.838  0.2650 -0.8490  0.6617
32818SOL    HW1 2816   1.090   5.818   6.806  0.5640 -2.2601  2.4550
32818SOL    HW2 2817   1.231   5.865   6.776 -1.3094  1.3636 -1.8127
32819SOL     OW 2818   2.315   7.088   9.298  0.2874  0.1609  0.0102
32819SOL    HW1 2819   2.321   7.014   9.359  0.3687 -0.1345 -0.3511
32819SOL    HW2 2820   2.379   7.069   9.230  0.9056  0.9909  0.3516
32820SOL     OW 2821  10.239   2.115  10.130  0.1123  0.5135 -0.5503
32820SOL    HW1 2822  10.146   2.095  10.135 -0.4651  2.7291 -1.3493
32820SOL    HW2 2823  10.257   2.124  10.036  1.3740 -0.7577 -0.4731
32821SOL     OW 2824  10.510   9.639   0.696  0.2724  0.3320 -0.5487
32821SOL    HW1 2825  10.527   9.647   0.602  0.6424 -1.4720 -0.6659
32821SOL    HW2 2826  10.435   9.580   0.702  0.9895 -0.5337  0.2987
32822SOL     OW 2827   5.533   1.963   7.269 -0.3228 -0.0797  0.4411
32822SOL    HW1 2828   5.520   1.907   7.346 -1.3824  1.5040  1.4821
32822SOL    HW2 2829   5.444   1.986   7.241  0.0043  2.6608  1.3194
32823SOL     OW 2830   9.111  10.725   6.798  0.1570  0.1716 -0.2461
32823SOL    HW1 2831   9.110  10.794   6.732 -1.2309 -1.0277 -1.5463
32823SOL    HW2 2832   9.203  10.696   6.802  0.2739  0.3299 -1.5833
32824SOL     OW 2833   5.282   3.735   4.110 -0.3463 -0.4029 -0.0137
32824SOL    HW1 2834   5.244   3.691   4.186 -2.3659  0.8891 -0.1785
32824SOL    HW2 2835   5.249   3.825   4.116  1.8462  0.5257 -0.8430
32825SOL     OW 2836   0.611   4.180   5.785 -0.4503 -0.2533  0.2279
32825SOL    HW1 2837   0.561   4.236   5.845 -1.4610 -0.8527 -0.0212
32825SOL    HW2 2838   0.702   4.195   5.808 -0.7821  0.2157  1.3029
32826SOL     OW 2839   2.753   3.455   2.764 -0.1711  0.7292  0.1326
32826SOL    HW1 2840   2.806   3.487   2.691 -0.2720  0.4020 -0.0874
32826SOL    HW2 2841   2.717   3.372   2.733 -0.5264  0.7756  0.4136
32827SOL     OW 2842   8.633   9.758   4.437  0.0498  0.0659 -0.1857
32827SOL    HW1 2843   8.651   9.765   4.531  0.1039  1.5726 -0.2707
32827SOL    HW2 2844   8.704   9.705   4.402  0.4329  0.0924  0.5286
32828SOL     OW 2845   1.821   2.833   3.362 -0.0224  0.2393 -0.0432
32828SOL    HW1 2846   1.884   2.761   3.355 -1.3553 -0.8555 -1.8578
32828SOL    HW2 2847   1.739   2.790   3.387 -0.9665  1.0134 -1.6325
32829SOL     OW 2848   8.001   3.925   5.827  0.0340  0.0039 -0.0545
32829SOL    HW1 2849   7.953   4.001   5.794  0.3988  1.1307  1.8281
32829SOL    HW2 2850   8.001   3.936   5.922  4.1017  0.2229  0.1190
32830SOL     OW 2851   3.811  10.573   3.963  0.6317 -0.7589 -0.3255
32830SOL    HW1 2852   3.735  10.596   3.909  0.1770  0.2949  0.7082
32830SOL    HW2 2853   3.871  10.646   3.952  0.1242 -0.0493  1.2876
32831SOL     OW 2854   8.715  10.653   2.178  0.0826 -0.0458  0.1771
32831SOL    HW1 2855   8.703  10.565   2.213 -1.5938  0.2285  0.4086
32831SOL    HW2 2856   8.718  10.709   2.256  2.0391  0.0540  0.0755
32832SOL     OW 2857   0.829  10.045   8.549  0.2286  0.2900  0.4577
32832SOL    HW1 2858   0.764  10.016   8.612 -1.5721  2.4430 -0.2667
32832SOL    HW2 2859   0.892  10.095   8.601  0.4492 -0.4769  0.9444
32833SOL     OW 2860   7.603   2.366   1.483  0.1521 -0.3436  0.1611
32833SOL    HW1 2861   7.658   2.294   1.515 -1.1676 -0.3261  2.7475
32833SOL    HW2 2862   7.626   2.375   1.391  1.6089 -2.9217  0.1811
32834SOL     OW 2863  10.463   9.223   0.035 -0.2602 -0.0939  0.2140
32834SOL    HW1 2864  10.462   9.131   0.061 -0.0443 -0.3246 -0.5760
32834SOL    HW2 2865  10.371   9.243   0.016 -0.2756 -0.2136  0.1618
32835SOL     OW 2866  10.650   8.338   6.142  0.0612 -0.3676 -0.8794
32835SOL    HW1 2867  10.612   8.415   6.186 -0.2466 -0.3484 -1.1713
32835SOL    HW2 2868  10.738   8.330   6.179  0.3948  0.6066 -1.4110
32836SOL     OW 2869   1.115   5.073   1.061 -0.4050  0.4324  0.3588
32836SOL    HW1 2870   1.163   5.053   1.142 -1.7662 -1.1092  0.8468
32836SOL    HW2 2871   1.157   5.018   0.995 -0.3835  0.3825  0.4130
32837SOL     OW 2872   5.741   4.363   7.771 -0.5343  0.2452  0.7017
32837SOL    HW1 2873   5.777   4.304   7.704 -0.4687 -0.4076  1.3034
32837SOL    HW2 2874   5.803   4.356   7.844 -0.0655  1.7160  0.4636
32838SOL     OW 2875   9.041   9.580   9.695 -0.4420 -0.3781  0.0662
32838SOL    HW1 2876   9.059   9.541   9.609  0.8762 -0.6365  0.4339
32838SOL    HW2 2877   8.994   9.661   9.675  0.3736 -0.1288 -0.9472
32839SOL     OW 2878   7.528   7.925   3.543  0.0542 -0.1012  0.8086
32839SOL    HW1 2879   7.567   7.909   3.457 -1.3553  1.1462 -0.1158
32839SOL    HW2 2880   7.568   7.859   3.600  0.1410 -1.7702 -1.0566
32840SOL     OW 2881   9.459   1.043   6.128  0.2462 -0.3578 -0.0228
32840SOL    HW1 2882   9.539   1.022   6.079  0.5072 -0.8213  0.5900
32840SOL    HW2 2883   9.403   0.967   6.116 -0.6823  0.5203 -1.5814
32841SOL     OW 2884   7.359  10.350   9.968 -0.0691 -0.1543 -0.3158
32841SOL    HW1 2885   7.380  10.258   9.984  1.1098  0.3515  1.4242
32841SOL    HW2 2886   7.264  10.354   9.972 -0.0842 -1.0808  1.1210
32842SOL     OW 2887   2.375   9.180   5.731  1.0037  0.0793 -0.3545
32842SOL    HW1 2888   2.384   9.210   5.640  2.9943 -0.7346 -0.4765
32842SOL    HW2 2889   2.373   9.085   5.725  2.0605 -0.0128  0.5093
32843SOL     OW 2890   8.596   9.491   0.474  0.1618  0.3378 -0.0936
32843SOL    HW1 2891   8.638   9.560   0.525  1.2526 -0.7058  0.4933
32843SOL    HW2 2892   8.665   9.427   0.459 -0.9076 -0.8388 -0.2213
32844SOL     OW 2893   2.059   0.863   2.060  0.0719 -0.3338  0.0319
32844SOL    HW1 2894   2.039   0.933   1.998 -0.9118  0.3676  1.1010
32844SOL    HW2 2895   1.990   0.798   2.045 -1.3457  0.7137  1.6544
32845SOL     OW 2896   7.075   6.807   7.319  0.0661  0.4216  0.1427
32845SOL    HW1 2897   7.058   6.808   7.224 -0.0264  0.7953  0.1654
32845SOL    HW2 2898   7.153   6.862   7.329  1.7879 -1.8206 -0.0551
32846SOL     OW 2899   8.021   4.608   8.852  0.1279  0.1991  0.2276
32846SOL    HW1 2900   7.930   4.634   8.840  0.4127  1.3434  0.3284
32846SOL    HW2 2901   8.032   4.605   8.947 -0.1157 -1.1726  0.2272
32847SOL     OW 2902   4.593   2.723  10.033 -0.5428  0.2520  0.6061
32847SOL    HW1 2903   4.655   2.770   9.977 -0.0267  0.2743  1.1770
32847SOL    HW2 2904   4.507   2.749  10.002 -0.2637  0.5614  0.0785
32848SOL     OW 2905   3.976   1.493   3.586 -0.3116 -0.3196  0.0588
32848SOL    HW1 2906   4.018   1.571   3.622  0.0582 -1.1786  1.6302
32848SOL    HW2 2907   4.009   1.485   3.497 -0.5928  1.4537 -0.2326
32849SOL     OW 2908   7.083  10.908   5.976 -0.1227 -0.1434 -0.0133
32849SOL    HW1 2909   7.080  10.820   6.016  0.5599  0.5757  1.7428
32849SOL    HW2 2910   7.003  10.951   6.006  0.2501  0.3061  0.3585
32850SOL     OW 2911   6.170   0.162   6.996  0.0073 -0.6335 -0.0524
32850SOL    HW1 2912   6.115   0.196   7.066 -2.3050 -1.6612 -1.2264
32850SOL    HW2 2913   6.214   0.239   6.959 -0.8237  0.2720  0.8093
32851SOL     OW 2914  10.773   6.493  10.213  0.2513 -0.0149  0.5909
32851SOL    HW1 2915  10.775   6.491  10.118  0.9517 -2.2223  0.6093
32851SOL    HW2 2916  10.736   6.408  10.239  0.2298  0.4652  2.2889
32852SOL     OW 2917   6.866   4.360   5.035  0.1900  0.0325 -0.6536
32852SOL    HW1 2918   6.818   4.403   4.964  0.2377  0.1805 -0.5974
32852SOL    HW2 2919   6.800   4.306   5.080 -0.0165  0.5419 -0.3319
32853SOL     OW 2920   8.215   7.385   3.922  0.0543  0.1169  0.0786
32853SOL    HW1 2921   8.150   7.398   3.853  0.6128 -1.3276 -0.7532
32853SOL    HW2 2922   8.294   7.429   3.889 -0.0833  0.6623  0.4595
32854SOL     OW 2923   9.930   1.412   6.294  0.7145  0.4588 -0.3698
32854SOL    HW1 2924   9.929   1.316   6.298  0.5746  0.4351 -0.8669
32854SOL    HW2 2925  10.016   1.436   6.328  0.5651  0.1810  0.2055
32855SOL     OW 2926   1.084   5.679  10.763 -0.0408 -0.2946 -0.6640
32855SOL    HW1 2927   1.165   5.651  10.806 -0.8219  1.6096  2.3798
32855SOL    HW2 2928   1.111   5.747  10.702  0.6599  1.4067  1.4040
32856SOL     OW 2929  10.625  10.104   9.674  0.3896 -0.3884 -0.5703
32856SOL    HW1 2930  10.544  10.155   9.680  0.5125 -0.2615  0.1824
32856SOL    HW2 2931  10.642  10.076   9.764  1.0749 -0.5854 -0.7546
32857SOL     OW 2932   1.672   8.972   7.379  0.5989 -0.0817 -0.1275
32857SOL    HW1 2933   1.594   9.014   7.416  0.4784  0.3596 -0.8639
32857SOL    HW2 2934   1.647   8.951   7.290  1.3265  0.0650 -0.3689
32858SOL     OW 2935   3.773   7.505  10.166 -0.1254 -0.7753 -0.3535
32858SOL    HW1 2936   3.862   7.539  10.179  0.4836 -1.6884 -1.8048
32858SOL    HW2 2937   3.719   7.555  10.227  1.0360  1.2544 -0.8849
32859SOL     OW 2938   9.137   1.187   2.371  0.3149 -0.5622 -0.2681
32859SOL    HW1 2939   9.197   1.125   2.414 -0.3397 -0.7748  0.3539
32859SOL    HW2 2940   9.132   1.157   2.280 -0.9052 -2.1528  0.2767
32860SOL     OW 2941   8.145   2.590  10.222 -0.5475  0.0501 -0.3342
32860SOL    HW1 2942   8.121   2.613  10.312  0.5188 -0.2141  0.0413
32860SOL    HW2 2943   8.158   2.495  10.225  1.2684  0.2662 -0.2979
32861SOL     OW 2944   9.198   1.945   1.460 -0.2262  0.3505  0.0174
32861SOL    HW1 2945   9.274   1.999   1.481 -0.0102  0.2732 -0.5234
32861SOL    HW2 2946   9.219   1.908   1.373 -0.9732  0.4927 -0.2295
32862SOL     OW 2947   3.817   4.583   8.838 -0.2717 -0.3549  0.1587
32862SOL    HW1 2948   3.764   4.509   8.809 -1.1289  0.4764 -0.4790
32862SOL    HW2 2949   3.813   4.579   8.933  0.9241 -1.9648  0.1898
32863SOL     OW 2950   7.905   5.683   9.435  0.3539  0.5121 -0.8047
32863SOL    HW1 2951   7.900   5.601   9.386 -1.1426 -0.0557  0.2445
32863SOL    HW2 2952   7.905   5.751   9.367 -0.0508 -0.2944 -1.6383
32864SOL     OW 2953   8.980   1.442   3.805 -0.1773 -0.0330  0.2765
32864SOL    HW1 2954   8.963   1.521   3.754  1.4482  0.3552  0.3030
32864SOL    HW2 2955   8.911   1.381   3.778 -2.0610  1.6793  0.9467
32865SOL     OW 2956   2.341  10.555   0.475  0.4221  0.2750  0.1395
32865SOL    HW1 2957   2.303  10.520   0.394 -0.2708 -0.9196  0.9531
32865SOL    HW2 2958   2.271  10.550   0.539  0.1892  3.5065  0.2743
32866SOL     OW 2959   6.105   1.884   5.123  0.2875 -0.3296 -0.4658
32866SOL    HW1 2960   6.119   1.979   5.123 -1.5343 -0.0145  1.3273
32866SOL    HW2 2961   6.050   1.868   5.046  0.3098  0.1071 -0.5757
32867SOL     OW 2962  10.328   0.318   6.899 -0.2622 -0.8906  0.2509
32867SOL    HW1 2963  10.267   0.373   6.948  1.0004  0.5148  0.3460
32867SOL    HW2 2964  10.277   0.285   6.825 -0.6664  1.9040 -0.8411
32868SOL     OW 2965   8.252   7.242   5.207  0.3999 -0.0004  0.8747
32868SOL    HW1 2966   8.239   7.175   5.140 -1.7964  2.9671 -1.9831
32868SOL    HW2 2967   8.164   7.259   5.241  1.1250  0.4129  2.6377
32869SOL     OW 2968   0.940   7.584   7.075  0.0505  0.5940 -0.3158
32869SOL    HW1 2969   0.876   7.532   7.123  0.2417 -0.2366 -0.9340
32869SOL    HW2 2970   0.962   7.531   6.999  1.6847  0.7381  0.0180
32870SOL     OW 2971   8.691   6.802   5.023 -0.0335  0.1217  0.1204
32870SOL    HW1 2972   8.688   6.814   4.928  0.3309  0.4023  0.1418
32870SOL    HW2 2973   8.713   6.710   5.035 -1.4282 -0.2469 -0.0572
32871SOL     OW 2974   0.747   3.114   5.267  0.4650  0.1859 -0.9977
32871SOL    HW1 2975   0.747   3.206   5.293 -0.5778 -0.2854  0.8605
32871SOL    HW2 2976   0.809   3.072   5.326 -1.9970 -0.9302  0.9789
32872SOL     OW 2977   0.491   3.092   7.459  1.0276  0.0869  0.3668
32872SOL    HW1 2978   0.426   3.058   7.521 -0.6584  1.6295 -0.4662
32872SOL    HW2 2979   0.509   3.181   7.490  2.6323 -0.2382  0.4535
32873SOL     OW 2980   9.730   5.856   8.311  0.0751 -0.2487  0.7488
32873SOL    HW1 2981   9.784   5.824   8.383  0.3103 -1.0887  0.2157
32873SOL    HW2 2982   9.738   5.951   8.315  1.3928 -0.3435  0.8275
32874SOL     OW 2983   6.654   4.814   3.201  0.0455  0.1174  0.4775
32874SOL    HW1 2984   6.740   4.795   3.238 -0.5287 -2.0974  0.8126
32874SOL    HW2 2985   6.638   4.743   3.138 -1.0892  1.0826 -0.3886
32875SOL     OW 2986   5.497   1.963   1.032  0.2868 -0.3675 -0.1433
32875SOL    HW1 2987   5.513   1.945   0.939 -0.1944 -0.1280 -0.2745
32875SOL    HW2 2988   5.494   2.059   1.036 -0.1259 -0.3920  0.0506
32876SOL     OW 2989   0.972   9.033   0.147  0.1811 -0.6902  0.1506
32876SOL    HW1 2990   1.055   9.023   0.100 -0.4700 -0.4815 -1.0903
32876SOL    HW2 2991   0.994   9.085   0.224  1.1865 -0.5842 -0.1911
32877SOL     OW 2992   7.973   6.745   0.237 -0.3585  0.5028 -0.5903
32877SOL    HW1 2993   8.017   6.825   0.206  0.3479  0.1583 -0.5063
32877SOL    HW2 2994   8.036   6.705   0.298 -0.2842 -0.6239 -1.3758
32878SOL     OW 2995   6.270   6.538   1.178  0.4657 -0.4317 -0.0352
32878SOL    HW1 2996   6.347   6.485   1.198  0.9695  0.2923 -0.0285
32878SOL    HW2 2997   6.297   6.593   1.105 -0.0964 -0.2804 -0.1297
32879SOL     OW 2998   6.962   1.778   5.678  0.6150  0.0244  0.2927
32879SOL    HW1 2999   7.031   1.766   5.613  0.8638 -1.3687  0.7723
32879SOL    HW2 3000   7.009   1.789   5.761  0.3063 -1.8066  0.7592
32880SOL     OW 3001  10.919   8.484   0.099 -0.2921 -0.7960  0.5216
32880SOL    HW1 3002  11.014   8.491   0.086 -0.2519 -0.9512  0.7292
32880SOL    HW2 3003  10.909   8.472   0.194 -0.6303  1.2444  0.7952
32881SOL     OW 3004   6.240   2.882   3.846  0.1157 -0.4992  0.0379
32881SOL    HW1 3005   6.201   2.796   3.834 -1.3065  0.1091  0.1312
32881SOL    HW2 3006   6.223   2.928   3.764 -2.8383  1.0553  1.3836
32882SOL     OW 3007   1.411   6.103   8.948 -0.0095  0.1651  0.0248
32882SOL    HW1 3008   1.474   6.039   8.982  1.3709  1.0979 -0.6918
32882SOL    HW2 3009   1.395   6.162   9.021  1.0508  0.7353 -0.1853
32883SOL     OW 3010   6.945   1.178   2.328 -0.4953  0.0767  0.7068
32883SOL    HW1 3011   6.974   1.237   2.397 -3.6514  0.5349  1.7974
32883SOL    HW2 3012   6.920   1.098   2.374 -1.1091 -0.2007 -0.0756
32884SOL     OW 3013  10.517   6.075   9.044 -0.4887 -0.4928  0.1742
32884SOL    HW1 3014  10.605   6.077   9.082 -1.1142  0.0535  1.6874
32884SOL    HW2 3015  10.494   6.168   9.033 -0.1783 -0.6216 -2.0140
32885SOL     OW 3016   6.334   5.356   8.821 -0.0390  0.5062  0.2874
32885SOL    HW1 3017   6.345   5.340   8.915  1.4083  0.7110  0.1829
32885SOL    HW2 3018   6.347   5.271   8.779 -2.2369  0.0882  0.3277
32886SOL     OW 3019   0.844   6.171   4.584  0.3342 -0.1434 -0.3786
32886SOL    HW1 3020   0.881   6.088   4.614 -1.8523 -1.6520 -1.5804
32886SOL    HW2 3021   0.828   6.221   4.664  2.0400 -0.6751  0.3394
32887SOL     OW 3022   7.468   1.986   5.150  0.3831 -0.9400  0.7499
32887SOL    HW1 3023   7.432   1.989   5.062 -0.7747  0.1273  1.2334
32887SOL    HW2 3024   7.449   2.072   5.188  1.7627 -1.0135  1.7029
32888SOL     OW 3025   8.218   9.580   5.345  0.1858  0.3407  0.1919
32888SOL    HW1 3026   8.223   9.610   5.436  1.9010 -0.4446  0.4032
32888SOL    HW2 3027   8.136   9.616   5.312 -0.0795  1.3134  1.8073
32889SOL     OW 3028   3.146   2.316   8.186 -0.3041 -0.1342  0.5449
32889SOL    HW1 3029   3.058   2.306   8.224 -1.7300 -0.0841 -2.4722
32889SOL    HW2 3030   3.190   2.234   8.209 -1.2916 -0.3768  1.7120
32890SOL     OW 3031   5.811   1.245   8.881  0.1465  0.3990 -0.8822
32890SOL    HW1 3032   5.818   1.217   8.972  0.7017  2.4072 -0.2368
32890SOL    HW2 3033   5.770   1.171   8.835 -1.4429 -0.1546  1.2627
32891SOL     OW 3034   7.025   0.141  10.162 -0.3160 -0.7557  0.0706
32891SOL    HW1 3035   6.993   0.219  10.116  0.1017 -1.4137 -1.4041
32891SOL    HW2 3036   7.067   0.175  10.240 -1.8810  0.3467  0.4931
32892SOL     OW 3037   4.815   3.531   9.150 -0.1328  0.3366 -0.2146
32892SOL    HW1 3038   4.751   3.510   9.218 -0.0194 -0.4706 -0.3505
32892SOL    HW2 3039   4.879   3.587   9.194 -0.8877  1.1074 -0.0636
32893SOL     OW 3040   9.007   9.121   0.386 -0.2529  0.0540 -0.5586
32893SOL    HW1 3041   9.103   9.129   0.389 -0.0246 -2.4195  0.3698
32893SOL    HW2 3042   8.990   9.064   0.311 -1.0731  0.8489 -0.9992
32894SOL     OW 3043   6.260   1.788   2.224 -0.0738 -0.2633  0.0453
32894SOL    HW1 3044   6.295   1.703   2.251 -0.3604 -0.2296  0.5440
32894SOL    HW2 3045   6.336   1.844   2.216  0.2361 -0.8379 -1.3342
32895SOL     OW 3046   6.717   3.892   6.540 -0.0374  0.0179 -0.4022
32895SOL    HW1 3047   6.651   3.848   6.593  0.2562 -0.3855 -0.3615
32895SOL    HW2 3048   6.801   3.863   6.578  0.1836 -0.4840 -1.2451
32896SOL     OW 3049   8.452   1.540   1.305 -0.1929  0.4837  0.4657
32896SOL    HW1 3050   8.474   1.563   1.214 -0.4231  1.9915  0.7690
32896SOL    HW2 3051   8.510   1.594   1.358 -0.2999 -0.1417  1.2321
32897SOL     OW 3052   4.372   6.769   3.163 -0.0472 -0.4966  0.4378
32897SOL    HW1 3053   4.337   6.706   3.225 -0.2595 -0.7964  0.0216
32897SOL    HW2 3054   4.297   6.822   3.138 -0.0033 -0.5008  0.2943
32898SOL     OW 3055   2.010   6.854   1.124  0.3501 -0.2037 -0.6574
32898SOL    HW1 3056   1.990   6.761   1.136 -1.7344  0.3817  1.3966
32898SOL    HW2 3057   1.970   6.877   1.040 -1.2327 -0.7293 -0.0937
32899SOL     OW 3058   0.208   5.990   6.490 -0.1015  0.1599 -0.2733
32899SOL    HW1 3059   0.144   5.919   6.497  0.0567 -0.0189 -0.6310
32899SOL    HW2 3060   0.290   5.952   6.523 -0.0477  0.2186 -0.3408
32900SOL     OW 3061   5.546   8.924   3.809  0.0416  0.3539  0.2522
32900SOL    HW1 3062   5.539   8.913   3.904  0.1591  0.6595  0.2961
32900SOL    HW2 3063   5.546   9.018   3.795 -2.4848  0.3454 -0.2457
32901SOL     OW 3064   7.893   8.199   7.211  0.2910 -0.5864 -0.4297
32901SOL    HW1 3065   7.963   8.188   7.274  0.4759  1.3862 -0.2211
32901SOL    HW2 3066   7.828   8.253   7.256  0.3234  0.6683 -1.8180
32902SOL     OW 3067   3.722   4.983   6.603  0.9459  0.1073 -0.5052
32902SOL    HW1 3068   3.673   5.029   6.535  1.2519 -0.9154 -1.4522
32902SOL    HW2 3069   3.806   5.030   6.609  1.1491 -0.1429 -1.2672
32903SOL     OW 3070   6.198   0.241   3.874 -0.1096 -0.8906  0.3717
32903SOL    HW1 3071   6.128   0.205   3.928 -1.9743 -0.6215 -1.7429
32903SOL    HW2 3072   6.217   0.326   3.914  1.0587 -2.1026  2.6128
32904SOL     OW 3073  10.329   7.780   6.381  0.2052 -0.6471  0.6981
32904SOL    HW1 3074  10.237   7.804   6.375  1.0281  3.0740  0.6374
32904SOL    HW2 3075  10.346   7.729   6.302 -1.2462  0.9965 -0.7656
32905SOL     OW 3076   2.921   9.401   4.929  0.1491  1.0433  0.1537
32905SOL    HW1 3077   3.012   9.407   4.960  0.0019  2.9549  0.3681
32905SOL    HW2 3078   2.925   9.431   4.838 -0.6105  4.2555  1.0455
32906SOL     OW 3079   8.731   5.371   3.048  0.2810 -1.0620 -0.1177
32906SOL    HW1 3080   8.654   5.350   3.102 -0.0434  0.3487  0.0278
32906SOL    HW2 3081   8.802   5.381   3.111  0.2335 -0.8763 -0.0920
32907SOL     OW 3082   9.508   6.495   9.712  0.2146  0.0175 -1.0145
32907SOL    HW1 3083   9.560   6.558   9.761 -1.1016  0.7036 -0.4428
32907SOL    HW2 3084   9.487   6.427   9.776  1.4700 -0.9355 -1.5802
32908SOL     OW 3085   6.251   1.086   1.010  0.2492  0.0293 -0.2553
32908SOL    HW1 3086   6.159   1.085   0.985 -0.8752  1.9826  3.1442
32908SOL    HW2 3087   6.253   1.044   1.096  2.5068  0.2419 -0.1467
32909SOL     OW 3088   5.469   6.436   8.097 -0.0060  0.7031  0.2571
32909SOL    HW1 3089   5.404   6.366   8.094  0.1037  0.5170  1.6898
32909SOL    HW2 3090   5.417   6.516   8.110  0.0037  0.6052  0.9525
32910SOL     OW 3091   1.559   6.172   4.487 -0.6307  0.7928  0.3991
32910SOL    HW1 3092   1.537   6.161   4.395  0.0336 -0.4404  0.3623
32910SOL    HW2 3093   1.651   6.148   4.493 -0.8746  0.0157  1.5065
32911SOL     OW 3094   9.174   0.470   7.681  0.5985  0.1876  0.0563
32911SOL    HW1 3095   9.166   0.418   7.601  0.5554  0.3035 -0.0136
32911SOL    HW2 3096   9.109   0.540   7.671 -0.0500 -0.3206  0.5971
32912SOL     OW 3097   7.601   3.121   8.562  0.0726 -0.6684  0.4578
32912SOL    HW1 3098   7.531   3.171   8.518  1.0507  1.1949  0.9258
32912SOL    HW2 3099   7.573   3.117   8.654  0.4897 -0.0549  0.6165
32913SOL     OW 3100   0.258   4.850   9.040  0.5246  0.1295 -0.2584
32913SOL    HW1 3101   0.260   4.793   8.964 -0.1685 -0.0412 -0.1579
32913SOL    HW2 3102   0.169   4.840   9.075  1.0011 -0.2339  0.9058
32914SOL     OW 3103  11.061   5.933   6.731  0.0532 -0.0355 -0.0710
32914SOL    HW1 3104  10.973   5.925   6.694 -0.3502 -2.5182  1.2405
32914SOL    HW2 3105  11.066   6.024   6.761 -1.5247  0.5441 -1.3965
32915SOL     OW 3106   3.323  10.669  10.571  0.3474 -0.0988  0.2114
32915SOL    HW1 3107   3.339  10.727  10.646  2.7879 -0.9075  0.4132
32915SOL    HW2 3108   3.254  10.712  10.521 -2.0375  0.0300  3.3549
32916SOL     OW 3109   9.180   6.489   0.670 -0.1138  0.1266 -0.3964
32916SOL    HW1 3110   9.234   6.413   0.693 -1.1908 -0.5160  0.0834
32916SOL    HW2 3111   9.091   6.463   0.694 -0.4385  1.7632  0.2981
32917SOL     OW 3112   8.956   0.341   8.823  0.6359 -0.3995 -0.1678
32917SOL    HW1 3113   8.893   0.394   8.775  0.5317  1.3936  1.7929
32917SOL    HW2 3114   8.908   0.262   8.847 -0.6151  0.5199  0.4856
32918SOL     OW 3115   8.200   5.657   1.222  0.2548 -0.7242 -0.0767
32918SOL    HW1 3116   8.129   5.669   1.159 -1.0988 -0.9379  1.3542
32918SOL    HW2 3117   8.163   5.601   1.290  2.0945 -1.5713  0.2708
32919SOL     OW 3118  10.921   2.283   7.651 -0.1991  0.9442  0.6133
32919SOL    HW1 3119  10.960   2.295   7.738  1.4530  0.1676  0.0282
32919SOL    HW2 3120  10.917   2.371   7.614  1.0469  1.0609  0.7028
32920SOL     OW 3121   8.941   3.301   8.491  0.6529 -0.2455  0.3140
32920SOL    HW1 3122   8.995   3.306   8.412  0.5388  0.0030  0.2499
32920SOL    HW2 3123   8.889   3.222   8.479 -0.1998  0.4026 -0.4081
32921SOL     OW 3124   5.570   1.094   4.719 -0.0423  0.4122  0.1623
32921SOL    HW1 3125   5.553   1.002   4.738 -0.0115 -0.0639 -1.8284
32921SOL    HW2 3126   5.487   1.139   4.736 -0.3334 -0.1515  0.2259
32922SOL     OW 3127   5.623   1.983  10.178  0.0406  0.0382 -0.4471
32922SOL    HW1 3128   5.612   2.074  10.207 -1.9345  0.3754 -1.9871
32922SOL    HW2 3129   5.691   1.987  10.111  0.3924  0.2907 -0.0726
32923SOL     OW 3130   3.573   5.927   4.530  0.4499 -0.0944 -0.3302
32923SOL    HW1 3131   3.659   5.935   4.488  0.6151 -0.4915 -0.0728
32923SOL    HW2 3132   3.585   5.859   4.596  0.0848  0.2415  0.0870
32924SOL     OW 3133   3.964   8.319   9.946 -0.2080 -0.1194  0.3700
32924SOL    HW1 3134   3.925   8.395   9.903  1.4980  1.5024  1.5374
32924SOL    HW2 3135   3.913   8.307  10.026 -0.8859 -0.6497 -0.1284
32925SOL     OW 3136   8.135   8.052   5.139  0.0648  0.4378 -0.2882
32925SOL    HW1 3137   8.068   8.047   5.208  0.8245  1.9206  0.6043
32925SOL    HW2 3138   8.107   7.987   5.075 -1.4464 -0.0014  0.7422
32926SOL     OW 3139   4.613   5.650   4.707 -0.0412  0.1310 -0.6649
32926SOL    HW1 3140   4.685   5.690   4.658 -0.2282  3.4716  1.4917
32926SOL    HW2 3141   4.563   5.603   4.641  2.3254  0.3718 -2.7962
32927SOL     OW 3142   4.688   0.435   6.541 -0.1294  0.1352  0.2144
32927SOL    HW1 3143   4.678   0.364   6.605  0.9052  1.2595  1.6864
32927SOL    HW2 3144   4.598   0.455   6.514 -0.8054  0.7640  2.6642
32928SOL     OW 3145   5.682   2.320   8.037 -0.5007 -0.3147  0.1355
32928SOL    HW1 3146   5.762   2.357   8.075 -1.2038  1.7471 -0.3090
32928SOL    HW2 3147   5.707   2.231   8.011  1.1760 -0.2911  1.4971
32929SOL     OW 3148   9.591   3.122   3.917  0.0125  0.5630 -0.2137
32929SOL    HW1 3149   9.593   3.028   3.936  1.4500  0.3651 -1.1883
32929SOL    HW2 3150   9.652   3.133   3.845 -0.5382  2.1899 -0.4666
32930SOL     OW 3151   0.088   4.891   7.207  0.1454  0.0349 -0.7716
32930SOL    HW1 3152  -0.004   4.866   7.207 -0.3106  1.5903 -1.8557
32930SOL    HW2 3153   0.119   4.869   7.119  0.8570 -0.6007 -0.3717
32931SOL     OW 3154   1.771   7.213   4.813  0.2688 -0.0332  0.0617
32931SOL    HW1 3155   1.715   7.276   4.769  1.2163  0.3924 -0.5654
32931SOL    HW2 3156   1.794   7.150   4.746 -0.9482 -1.2826  0.7610
32932SOL     OW 3157   4.024   6.622   7.308  0.1045 -0.6718  0.4742
32932SOL    HW1 3158   4.036   6.527   7.309  0.6542 -0.6167  1.9137
32932SOL    HW2 3159   4.110   6.657   7.333 -0.2222  0.1785  0.4197
32933SOL     OW 3160   9.604   8.722   0.632 -0.2401 -0.2340  0.5622
32933SOL    HW1 3161   9.516   8.686   0.635 -0.8018  0.9360 -0.8643
32933SOL    HW2 3162   9.592   8.816   0.616  1.2429 -0.2723 -1.1720
32934SOL     OW 3163   5.708   2.157   3.828 -0.0121  0.0064  0.0453
32934SOL    HW1 3164   5.785   2.166   3.772 -0.1420  1.2100  0.0402
32934SOL    HW2 3165   5.743   2.132   3.914  0.5026  1.7419  0.3659
32935SOL     OW 3166   7.757  10.163   8.354 -0.2385 -0.2523  0.2022
32935SOL    HW1 3167   7.670  10.196   8.373 -0.0417  0.3671  0.0460
32935SOL    HW2 3168   7.808  10.184   8.432 -0.4821 -1.6022  0.7640
32936SOL     OW 3169   9.348   4.494   1.304  0.4695  0.0727 -0.2582
32936SOL    HW1 3170   9.389   4.499   1.218  1.5693 -0.3649  0.2231
32936SOL    HW2 3171   9.386   4.415   1.344 -1.8449 -1.1511 -0.3002
32937SOL     OW 3172   9.108   4.717   3.148 -0.3819  0.5493  0.5602
32937SOL    HW1 3173   9.039   4.661   3.113  0.4235  0.0036 -0.1835
32937SOL    HW2 3174   9.188   4.689   3.103  0.7152 -0.1601  2.7750
32938SOL     OW 3175   0.655   5.989   9.670  0.6618 -0.2858 -0.0504
32938SOL    HW1 3176   0.744   5.973   9.703  0.3197  0.3389  1.2264
32938SOL    HW2 3177   0.619   6.054   9.729 -0.1656  0.5346 -1.4147
32939SOL     OW 3178   0.519  10.500   0.036 -0.0013 -0.2030 -0.5083
32939SOL    HW1 3179   0.595  10.441   0.039  0.3361 -0.0257 -3.1175
32939SOL    HW2 3180   0.557  10.588   0.037 -0.4158 -0.0036  1.6689
32940SOL     OW 3181   5.572   6.466   6.921  0.1279 -0.0459  0.3292
32940SOL    HW1 3182   5.575   6.373   6.900 -1.3671 -0.4404  1.6716
32940SOL    HW2 3183   5.516   6.504   6.853 -0.0861 -0.3094  0.3565
32941SOL     OW 3184   7.206   1.879  10.988  0.4066  0.4104  0.0962
32941SOL    HW1 3185   7.282   1.865  10.932 -0.2896  0.7792 -0.9791
32941SOL    HW2 3186   7.243   1.913  11.070  1.2531  3.7268 -1.4937
32942SOL     OW 3187   3.462  10.456   2.322  0.5614  0.3028 -0.5501
32942SOL    HW1 3188   3.408  10.535   2.318 -0.6535 -0.4894 -0.2289
32942SOL    HW2 3189   3.519  10.463   2.245  0.3261  1.3774 -0.6456
32943SOL     OW 3190   7.076   9.772   5.330  0.1306 -0.2519 -0.0118
32943SOL    HW1 3191   7.004   9.746   5.388 -0.2582 -1.1306 -0.8618
32943SOL    HW2 3192   7.152   9.781   5.389  0.0095 -2.2130  0.5166
32944SOL     OW 3193   2.488   0.166   2.921  0.3659  0.7359  0.1173
32944SOL    HW1 3194   2.492   0.260   2.939 -0.1676  0.4951  1.6940
32944SOL    HW2 3195   2.580   0.140   2.914  0.5183  1.3744 -0.3789
32945SOL     OW 3196   8.186   8.293   9.303 -0.2722  0.6324  0.3294
32945SOL    HW1 3197   8.241   8.215   9.293 -0.5646  0.5254 -0.5418
32945SOL    HW2 3198   8.199   8.342   9.221 -1.6674  0.4754 -0.0100
32946SOL     OW 3199   5.947   9.786   8.799  0.3652  0.4525  0.2180
32946SOL    HW1 3200   5.890   9.797   8.723 -1.3373  1.0342  1.5041
32946SOL    HW2 3201   6.035   9.793   8.764 -0.3627  0.7585 -1.6903
32947SOL     OW 3202   2.994   3.839   6.369  0.1622  0.6183  1.0425
32947SOL    HW1 3203   3.074   3.892   6.374  0.4126  0.6312 -1.7931
32947SOL    HW2 3204   2.926   3.896   6.404  0.9219  1.6844  0.8415
32948SOL     OW 3205   8.862  10.989   8.770  0.0054 -1.1891 -0.4183
32948SOL    HW1 3206   8.943  10.940   8.789  1.1090  0.3640 -0.9602
32948SOL    HW2 3207   8.840  10.965   8.681  0.5622 -0.7100 -0.6937
32949SOL     OW 3208   3.101   8.233   7.941 -0.3002 -0.0648 -0.1904
32949SOL    HW1 3209   3.153   8.205   7.865 -0.6850  0.0354 -0.4908
32949SOL    HW2 3210   3.118   8.327   7.948 -0.4118 -0.0394 -0.2672
32950SOL     OW 3211   6.440   7.370   4.487 -0.3951 -0.3275  0.4493
32950SOL    HW1 3212   6.529   7.398   4.467 -0.2968 -1.1576 -0.3255
32950SOL    HW2 3213   6.390   7.451   4.495  0.3348  0.1268  0.4363
32951SOL     OW 3214   8.134   5.617   1.571  0.0758  0.4983  0.0737
32951SOL    HW1 3215   8.122   5.553   1.500  0.8654 -0.3564  0.6879
32951SOL    HW2 3216   8.087   5.695   1.541  1.3292  0.5673 -1.9024
32952SOL     OW 3217  10.832  10.833   6.019 -0.2388  0.1730 -0.2391
32952SOL    HW1 3218  10.800  10.838   5.928  2.1094 -0.0654 -1.1618
32952SOL    HW2 3219  10.866  10.744   6.027 -0.9216  0.0190  1.0914
32953SOL     OW 3220   6.027   5.071   1.259  0.0180  0.3581 -0.2184
32953SOL    HW1 3221   5.959   5.089   1.324  0.2892 -1.2169  0.5631
32953SOL    HW2 3222   5.995   5.112   1.179 -0.9133  1.2988  0.6109
32954SOL     OW 3223   3.970   4.390   6.245 -0.3673  0.6378 -0.2426
32954SOL    HW1 3224   4.039   4.393   6.311  1.1688 -0.6224 -1.6742
32954SOL    HW2 3225   3.894   4.354   6.291  0.4279  0.4739  0.9934
32955SOL     OW 3226   2.014   0.023   4.535  0.8453 -0.2810  0.0223
32955SOL    HW1 3227   2.042   0.015   4.444  1.4200 -2.4736  0.3540
32955SOL    HW2 3228   2.066  -0.040   4.583 -0.1713  0.1000  1.7308
32956SOL     OW 3229   2.250   3.301   0.504  0.0484 -0.4426 -0.4395
32956SOL    HW1 3230   2.328   3.330   0.551 -1.0749  1.6630  0.2387
32956SOL    HW2 3231   2.190   3.271   0.572 -0.8176  0.7017 -0.6721
32957SOL     OW 3232   1.139   8.193   8.030 -0.4024  0.1524  0.1472
32957SOL    HW1 3233   1.076   8.246   7.981  1.7785 -0.8234 -4.2101
32957SOL    HW2 3234   1.221   8.243   8.025  0.5863 -1.4100  0.1289
32958SOL     OW 3235   0.445   8.070   1.112  0.1197 -0.0957 -0.1218
32958SOL    HW1 3236   0.436   7.975   1.122 -0.9391  0.1519  1.6535
32958SOL    HW2 3237   0.437   8.084   1.018 -0.4349 -1.6979 -0.3585
32959SOL     OW 3238   1.181   6.103   5.684  0.3610  0.3466 -0.5254
32959SOL    HW1 3239   1.087   6.120   5.680  0.2489 -0.1553 -0.0729
32959SOL    HW2 3240   1.188   6.008   5.680  0.7344  0.2467  1.4505
32960SOL     OW 3241   0.680   3.618   9.188  0.3933  0.5501  0.0502
32960SOL    HW1 3242   0.729   3.692   9.154 -1.2178  1.6327 -0.0371
32960SOL    HW2 3243   0.720   3.542   9.147  0.8407  1.5379 -1.4268
32961SOL     OW 3244   5.392   1.466   3.897 -0.0527  0.2724  0.2551
32961SOL    HW1 3245   5.304   1.441   3.868 -0.5746  1.0879  1.0644
32961SOL    HW2 3246   5.420   1.393   3.953  0.8147 -1.1391 -1.9215
32962SOL     OW 3247  10.071   8.116  10.793  0.2921  0.0638  0.5117
32962SOL    HW1 3248  10.040   8.033  10.758  1.7262 -0.5511  0.6182
32962SOL    HW2 3249  10.155   8.131  10.749  1.0580  0.3914  2.0048
32963SOL     OW 3250   0.763   7.838   6.493  0.6401  0.1509  0.3731
32963SOL    HW1 3251   0.796   7.897   6.562  1.4068  0.9196 -0.6286
32963SOL    HW2 3252   0.777   7.886   6.412 -1.2287 -0.2948 -0.2654
32964SOL     OW 3253   9.341   7.531   3.732 -0.1382  0.4521 -0.1508
32964SOL    HW1 3254   9.333   7.483   3.815 -1.7871 -0.3455 -0.7226
32964SOL    HW2 3255   9.363   7.464   3.668 -1.6544  0.5550 -0.8200
32965SOL     OW 3256   0.324  10.181   7.236 -0.0987  0.2979  0.0329
32965SOL    HW1 3257   0.295  10.111   7.294 -0.0737 -0.2904 -0.6542
32965SOL    HW2 3258   0.243  10.226   7.210 -0.3038 -0.5818 -0.9159
32966SOL     OW 3259  10.057   4.073   4.777  0.1532 -0.0541 -0.1333
32966SOL    HW1 3260  10.090   4.066   4.687 -0.0070  1.2540 -0.3193
32966SOL    HW2 3261  10.130   4.111   4.826 -0.1411  0.2857  0.0441
32967SOL     OW 3262   6.589   6.559   7.536  0.1208 -0.3429  0.0169
32967SOL    HW1 3263   6.677   6.566   7.571  0.4644 -2.0806 -0.4067
32967SOL    HW2 3264   6.601   6.538   7.443 -0.6828 -1.7925  0.2060
32968SOL     OW 3265   6.654   1.909   4.866 -0.1620  0.2413  0.5614
32968SOL    HW1 3266   6.746   1.918   4.842 -0.4639  1.6386 -0.1952
32968SOL    HW2 3267   6.618   1.847   4.803  0.9164 -3.0140  2.8813
32969SOL     OW 3268   7.957   1.192   6.336  0.1468  0.1065 -0.3541
32969SOL    HW1 3269   7.956   1.282   6.370 -0.1660 -0.4374  1.1772
32969SOL    HW2 3270   7.865   1.167   6.334  0.2683 -0.3337 -0.3623
32970SOL     OW 3271   4.130  10.902   1.858 -0.3038  0.2384  0.2199
32970SOL    HW1 3272   4.143  10.826   1.802 -1.2951 -0.6583  1.1709
32970SOL    HW2 3273   4.045  10.938   1.832 -0.0312  0.7854  0.0616
32971SOL     OW 3274   4.246   6.279   7.346 -0.1108  0.6012  0.6076
32971SOL    HW1 3275   4.319   6.332   7.378  1.2738 -1.1381  0.4739
32971SOL    HW2 3276   4.198   6.254   7.426  0.2079  0.6615  0.8192
32972SOL     OW 3277   6.103   5.767   6.009 -0.1990 -0.9013 -0.3042
32972SOL    HW1 3278   6.031   5.779   6.072 -1.4830 -1.9784 -1.4907
32972SOL    HW2 3279   6.094   5.841   5.949  1.1948  0.2774  0.8836
32973SOL     OW 3280   8.015   4.336   3.645  0.3254  0.4845  0.6171
32973SOL    HW1 3281   8.054   4.294   3.722  0.2539  0.7304  0.7886
32973SOL    HW2 3282   8.014   4.267   3.579 -1.1204 -0.2211  1.3351
32974SOL     OW 3283   9.326   6.107  10.060 -0.6988 -0.3864  0.1029
32974SOL    HW1 3284   9.319   6.121  10.155 -0.0398 -0.0467  0.1033
32974SOL    HW2 3285   9.351   6.016  10.050 -0.4585 -0.3391  0.2698
32975SOL     OW 3286   7.317   3.130   8.643  0.0977 -0.0838  0.6008
32975SOL    HW1 3287   7.226   3.159   8.638 -0.2390 -1.3173 -1.5530
32975SOL    HW2 3288   7.367   3.195   8.594  0.0543 -0.5151 -0.0256
32976SOL     OW 3289   0.801  10.320   1.743  0.1154 -0.0710  0.1226
32976SOL    HW1 3290   0.810  10.226   1.727 -0.2905 -0.1547  0.3910
32976SOL    HW2 3291   0.888  10.356   1.722 -0.4394 -0.1113 -2.6509
32977SOL     OW 3292   0.087  10.748   6.197  0.2746 -0.0398 -0.2466
32977SOL    HW1 3293   0.054  10.659   6.186 -0.2410  0.3271 -2.1470
32977SOL    HW2 3294   0.104  10.757   6.291  0.8741 -2.3047 -0.1040
32978SOL     OW 3295   6.480   7.805   0.881 -0.0661 -0.2576 -0.1626
32978SOL    HW1 3296   6.445   7.893   0.898  0.2980  0.0289 -0.8539
32978SOL    HW2 3297   6.417   7.765   0.821 -0.3307 -0.5404  0.3026
32979SOL     OW 3298  10.128   9.275   4.899 -0.4136 -0.6843 -0.6300
32979SOL    HW1 3299  10.182   9.231   4.833  2.0437 -0.2444  0.9309
32979SOL    HW2 3300  10.143   9.225   4.980 -2.6714 -0.7128 -0.1666
32980SOL     OW 3301   4.312   4.359   4.552  0.2875 -0.3535 -0.7824
32980SOL    HW1 3302   4.262   4.284   4.583 -0.6880  1.0791  1.4378
32980SOL    HW2 3303   4.268   4.387   4.472 -1.9539  0.2644  0.5810
32981SOL     OW 3304   2.663  10.209   5.803  0.2810 -0.7172 -0.1637
32981SOL    HW1 3305   2.711  10.133   5.768  1.5446 -0.8652  1.7309
32981SOL    HW2 3306   2.590  10.171   5.851  0.8118 -0.7393  0.6360
32982SOL     OW 3307   4.303   9.524   0.995  0.3059  0.0317  0.2307
32982SOL    HW1 3308   4.216   9.498   1.026  0.3426  1.0248  1.2455
32982SOL    HW2 3309   4.303   9.620   1.003  1.3722  0.0641 -0.0768
32983SOL     OW 3310   3.556   1.349   6.823  0.2307  0.4469 -0.4069
32983SOL    HW1 3311   3.499   1.272   6.828  0.6641  0.0829 -0.9815
32983SOL    HW2 3312   3.592   1.358   6.911 -1.0793  0.9734  0.0978
32984SOL     OW 3313   8.215   0.164   9.744  0.5401  0.2098 -0.2674
32984SOL    HW1 3314   8.137   0.218   9.732 -0.9050 -1.9062 -1.0274
32984SOL    HW2 3315   8.285   0.226   9.762 -1.3987  2.1838  0.9535
32985SOL     OW 3316   9.630   0.264   9.429  0.2115 -0.1203 -0.8235
32985SOL    HW1 3317   9.544   0.251   9.470  0.5359  0.3011  0.0085
32985SOL    HW2 3318   9.655   0.177   9.398  0.3502 -0.6481  0.6667
32986SOL     OW 3319   8.409   9.298   9.178  0.3408 -0.2581 -0.1722
32986SOL    HW1 3320   8.460   9.378   9.185  0.4816 -0.4482  1.1482
32986SOL    HW2 3321   8.378   9.281   9.267 -0.0782 -1.4176 -0.5213
32987SOL     OW 3322   8.955   1.117   8.972  0.0358 -0.0984  0.4555
32987SOL    HW1 3323   8.991   1.036   8.934  0.4472  0.0902  0.4390
32987SOL    HW2 3324   8.886   1.087   9.030 -0.3048 -0.4225 -0.1062
32988SOL     OW 3325   7.229   8.745   2.350  0.1504 -0.1061 -0.3811
32988SOL    HW1 3326   7.222   8.753   2.255  0.7758 -0.0714 -0.4305
32988SOL    HW2 3327   7.198   8.829   2.383 -2.2890 -0.9304 -0.4249
32989SOL     OW 3328   6.719   4.044   4.944 -0.5981  0.0407  0.4415
32989SOL    HW1 3329   6.714   4.106   5.017 -1.2334  2.1973 -1.3444
32989SOL    HW2 3330   6.788   3.983   4.970 -0.9159  0.6043  2.8997
32990SOL     OW 3331   1.233   4.312   7.001 -0.0919  0.4559 -0.2007
32990SOL    HW1 3332   1.301   4.244   6.997 -0.4764 -0.0149  0.8730
32990SOL    HW2 3333   1.151   4.266   6.988 -0.3418  0.7428  0.3122
32991SOL     OW 3334   6.094   8.069   4.046 -0.1175 -0.2313 -0.7330
32991SOL    HW1 3335   6.168   8.112   4.088  0.0074  0.1698 -1.3520
32991SOL    HW2 3336   6.081   7.989   4.096  1.5514 -0.9582 -1.3866
32992SOL     OW 3337   5.324   9.602   0.525 -0.1993 -0.0886  0.2484
32992SOL    HW1 3338   5.315   9.610   0.430 -1.1926  0.4113  0.3784
32992SOL    HW2 3339   5.371   9.681   0.552 -0.6412  0.1733  0.2635
32993SOL     OW 3340   8.945   8.289   0.778 -0.6818  0.3025  0.2019
32993SOL    HW1 3341   8.955   8.262   0.869 -2.4779 -0.5302  0.2035
32993SOL    HW2 3342   9.007   8.360   0.767  1.4105 -1.2455  1.3356
32994SOL     OW 3343   7.077   0.311   1.707  1.2159 -0.6097 -0.3420
32994SOL    HW1 3344   6.986   0.334   1.688  0.9625 -1.2564  0.0545
32994SOL    HW2 3345   7.111   0.385   1.758  0.9625 -0.2993 -0.6213
32995SOL     OW 3346   1.251   1.995   2.517  0.2900 -0.3455 -0.2958
32995SOL    HW1 3347   1.327   2.034   2.474  0.8962 -2.0018 -0.7916
32995SOL    HW2 3348   1.288   1.945   2.590 -0.3272 -1.0537 -0.4611
32996SOL     OW 3349   9.425   5.849   5.721 -0.1078  0.8265  0.1627
32996SOL    HW1 3350   9.396   5.936   5.749 -0.3353  0.1820  2.0999
32996SOL    HW2 3351   9.360   5.789   5.759 -0.6204 -0.1560 -2.0928
32997SOL     OW 3352  10.137  10.100   4.377  0.4388 -0.3078  0.0749
32997SOL    HW1 3353  10.089  10.018   4.392  1.2849 -0.9010 -0.4208
32997SOL    HW2 3354  10.215  10.074   4.329  0.8691  0.7598  0.1743
32998SOL     OW 3355   7.830   7.181   3.085 -0.2290  1.0188  0.2205
32998SOL    HW1 3356   7.774   7.108   3.059  0.6021  0.3363  0.3036
32998SOL    HW2 3357   7.911   7.168   3.037  0.2644  1.3741  0.9302
32999SOL     OW 3358   1.610   5.770   0.184 -0.7788  0.8362  0.3683
32999SOL    HW1 3359   1.609   5.713   0.107 -1.3515  0.6473  0.5173
32999SOL    HW2 3360   1.620   5.858   0.147  2.2484  0.5489  0.2068
33000SOL     OW 3361  10.307   8.644   6.885  0.2931  0.0257 -0.1045
33000SOL    HW1 3362  10.393   8.633   6.925  0.1693 -1.4294 -0.1817
33000SOL    HW2 3363  10.325   8.678   6.798  0.8310 -0.5982 -0.2440
33001SOL     OW 3364   9.195   0.652   1.446 -0.3331 -0.0905  0.3727
33001SOL    HW1 3365   9.286   0.673   1.465 -1.0055  1.5381  2.0115
33001SOL    HW2 3366   9.171   0.712   1.376 -0.5235  0.4353  0.8829
33002SOL     OW 3367   6.351   2.430   0.445  0.0424  0.2338 -0.2243
33002SOL    HW1 3368   6.362   2.519   0.480  0.1768  0.9826 -2.0689
33002SOL    HW2 3369   6.397   2.374   0.507 -2.1744  1.0783  2.4377
33003SOL     OW 3370   8.677   8.010   2.841  0.1145  0.3671 -0.1178
33003SOL    HW1 3371   8.764   8.047   2.824 -0.5584  1.7113 -0.7611
33003SOL    HW2 3372   8.672   7.934   2.782  0.3144  1.1432 -1.1747
33004SOL     OW 3373   3.748   8.396  10.422  0.1554  0.2181 -0.4865
33004SOL    HW1 3374   3.747   8.377  10.328 -2.5466  2.2652 -0.9625
33004SOL    HW2 3375   3.672   8.350  10.457  0.6052  0.2480  0.5757
33005SOL     OW 3376   0.691   8.313   6.123  0.0211  0.0517  0.1547
33005SOL    HW1 3377   0.685   8.219   6.106  0.7916  0.2247 -1.2038
33005SOL    HW2 3378   0.779   8.325   6.160  0.6997  0.4710 -1.5255
33006SOL     OW 3379   0.362   6.927   9.218  0.1394  0.2242 -0.0387
33006SOL    HW1 3380   0.365   7.007   9.165  0.1740  0.6887  0.6493
33006SOL    HW2 3381   0.446   6.885   9.205  1.5649  2.0931  2.2867
33007SOL     OW 3382   2.747   9.527   9.431  0.3025 -0.2683 -0.2679
33007SOL    HW1 3383   2.778   9.487   9.513  0.4034 -0.3820 -0.3617
33007SOL    HW2 3384   2.824   9.526   9.374 -0.0149 -1.0489 -0.6908
33008SOL     OW 3385   8.293   8.166   8.547  1.1610  0.2631 -0.1484
33008SOL    HW1 3386   8.298   8.135   8.457 -0.0789  0.3622 -0.2715
33008SOL    HW2 3387   8.285   8.087   8.600 -0.0430  0.2604 -0.3019
33009SOL     OW 3388   1.792   8.236   9.078  0.2289  0.4906  0.9169
33009SOL    HW1 3389   1.742   8.310   9.042  1.8203  0.3595 -1.8549
33009SOL    HW2 3390   1.877   8.241   9.034  0.9956 -2.0102  1.9364
33010SOL     OW 3391   0.115   9.641  10.712 -0.2342  0.3385  0.5576
33010SOL    HW1 3392   0.060   9.613  10.785 -0.0356  1.7868  1.3009
33010SOL    HW2 3393   0.204   9.643  10.749 -0.1559  1.2541  0.3410
33011SOL     OW 3394   9.271   2.942   8.148 -0.0012 -0.0516 -0.4609
33011SOL    HW1 3395   9.346   2.910   8.197  0.3820 -2.9899 -2.6539
33011SOL    HW2 3396   9.280   3.037   8.148  2.8828 -0.2396  0.6002
33012SOL     OW 3397   0.624   2.328   3.477 -0.0948 -0.1187 -0.6108
33012SOL    HW1 3398   0.687   2.360   3.542 -1.9434  1.6106  0.4573
33012SOL    HW2 3399   0.542   2.321   3.525 -1.3957  0.6405 -2.6130
33013SOL     OW 3400   6.912   7.990   4.939  0.3789 -0.2875 -0.1748
33013SOL    HW1 3401   6.842   8.055   4.942  0.8795  0.2044  1.6966
33013SOL    HW2 3402   6.990   8.039   4.912  0.6696 -0.1874  0.8376
33014SOL     OW 3403   1.258   1.801   1.215 -0.5756 -0.6612  0.3919
33014SOL    HW1 3404   1.271   1.706   1.223 -1.3089 -0.7412  0.7658
33014SOL    HW2 3405   1.228   1.828   1.302  0.2142  0.0198  0.4621
33015SOL     OW 3406   6.207   0.244   3.362 -0.2361  0.8459  0.0710
33015SOL    HW1 3407   6.240   0.284   3.442 -1.1999  0.5110  0.6702
33015SOL    HW2 3408   6.278   0.188   3.331 -0.7592 -1.1833  2.2582
33016SOL     OW 3409   2.134   9.035   3.641 -0.0956  0.3847  0.1061
33016SOL    HW1 3410   2.207   9.030   3.579 -2.3219  1.6423 -2.8594
33016SOL    HW2 3411   2.145   8.958   3.698  2.7610 -0.1623 -1.0200
33017SOL     OW 3412   6.167   1.151   5.160 -0.3620  0.1796  0.5220
33017SOL    HW1 3413   6.172   1.056   5.153 -2.2253  0.1416 -1.1888
33017SOL    HW2 3414   6.258   1.179   5.173  0.1545 -1.8394  1.6203
33018SOL     OW 3415   3.746   4.980   3.627  0.1908  0.1212 -0.1077
33018SOL    HW1 3416   3.734   4.953   3.536  1.6479 -0.9103 -0.0190
33018SOL    HW2 3417   3.841   4.987   3.638  0.0576 -0.2152  1.4630
33019SOL     OW 3418   1.309   0.467   7.172 -0.0990  0.1724 -0.8561
33019SOL    HW1 3419   1.329   0.381   7.135  0.5759  0.2403 -0.6699
33019SOL    HW2 3420   1.218   0.462   7.200  0.5535 -1.2059  1.1764
33020SOL     OW 3421   0.982   6.543  10.509 -0.0021 -0.4815  0.5015
33020SOL    HW1 3422   0.896   6.515  10.477  0.0903 -0.8934  0.6051
33020SOL    HW2 3423   0.963   6.619  10.564 -0.2562 -0.3267  0.2093
33021SOL     OW 3424   2.049   8.681   5.445  0.1547  0.1026  0.1208
33021SOL    HW1 3425   2.094   8.623   5.507 -0.4457  1.5726  2.0529
33021SOL    HW2 3426   1.961   8.643   5.437  0.3211 -0.2481 -0.0237
33022SOL     OW 3427   3.352   9.900   2.850  0.7307  0.1531  0.5723
33022SOL    HW1 3428   3.269   9.885   2.895 -0.9843 -0.7137 -2.5690
33022SOL    HW2 3429   3.356   9.995   2.839 -1.1756  0.0962 -1.3146
33023SOL     OW 3430   0.914   1.447   5.349  0.0489  1.0282  0.0033
33023SOL    HW1 3431   0.934   1.533   5.313  1.5388  0.6024 -0.2581
33023SOL    HW2 3432   0.957   1.386   5.289 -3.0704 -0.0784 -1.2712
33024SOL     OW 3433   3.034   9.949   1.921  0.0734  0.2597 -0.3188
33024SOL    HW1 3434   3.062   9.883   1.858 -0.0054  0.3135 -0.4111
33024SOL    HW2 3435   2.985   9.900   1.987  2.3222 -0.1960  1.1059
33025SOL     OW 3436  10.059   5.002   0.471 -0.4442 -0.0655 -0.3933
33025SOL    HW1 3437   9.965   5.016   0.459 -0.6435  0.0381  1.0818
33025SOL    HW2 3438  10.100   5.064   0.411 -1.3267  0.3517 -0.5798
33026SOL     OW 3439   7.842  10.603   7.520  0.2755  0.1897  0.0385
33026SOL    HW1 3440   7.758  10.604   7.567  0.2458 -3.0665  0.3086
33026SOL    HW2 3441   7.886  10.524   7.551  1.2312 -1.0004 -3.7176
33027SOL     OW 3442   9.034   0.315   7.872 -0.7316  0.6887  0.7514
33027SOL    HW1 3443   9.086   0.236   7.863 -1.1159  0.1956  2.5977
33027SOL    HW2 3444   9.044   0.360   7.788  0.4924 -0.6935  0.1278
33028SOL     OW 3445   6.643   1.885   9.446  0.0180 -0.0949  0.5170
33028SOL    HW1 3446   6.633   1.938   9.367 -0.0222 -0.6797  0.1259
33028SOL    HW2 3447   6.609   1.799   9.422  0.4454 -0.4117  1.0258
33029SOL     OW 3448   3.802  10.254   8.501 -0.0558 -0.6156  0.0226
33029SOL    HW1 3449   3.828  10.232   8.590 -0.6875 -2.1970 -0.1465
33029SOL    HW2 3450   3.876  10.304   8.466 -0.4535  1.3683  1.8898
33030SOL     OW 3451  10.480   0.123   3.107 -0.1364 -0.1126  0.8403
33030SOL    HW1 3452  10.442   0.131   3.194  0.8893  0.3474  1.2693
33030SOL    HW2 3453  10.470   0.210   3.068  1.0614  0.2294  1.2332
33031SOL     OW 3454  10.244   6.201   9.216 -0.5372 -0.5543  0.5608
33031SOL    HW1 3455  10.256   6.107   9.212  0.8963 -0.3657 -0.4099
33031SOL    HW2 3456  10.298   6.229   9.290  0.4033 -0.3389 -0.1823
33032SOL     OW 3457  10.091   4.285   3.039  0.3903  0.1482 -0.1792
33032SOL    HW1 3458  10.035   4.362   3.053 -1.5535 -1.5911  2.9476
33032SOL    HW2 3459  10.179   4.315   3.060 -0.6034  1.1635  3.2113
33033SOL     OW 3460   0.708  11.031   9.877 -0.2181  0.7688 -0.1602
33033SOL    HW1 3461   0.732  11.123   9.886  0.2788  0.6846 -0.5749
33033SOL    HW2 3462   0.639  11.017   9.943 -0.9005  1.6389 -0.6740
33034SOL     OW 3463   8.414   0.963   8.538 -0.0254 -0.3730  0.4512
33034SOL    HW1 3464   8.340   0.909   8.510 -0.3346 -0.0534  0.6480
33034SOL    HW2 3465   8.427   1.025   8.466  0.7115 -1.0834 -0.0407
33035SOL     OW 3466   1.151   4.929   8.732  0.4016 -0.5483  0.1670
33035SOL    HW1 3467   1.157   4.868   8.659  0.4900 -1.8354  1.2083
33035SOL    HW2 3468   1.060   4.957   8.733  0.6429  0.3643 -1.0943
33036SOL     OW 3469   5.939   1.886   1.510 -0.6618 -0.4616  0.2843
33036SOL    HW1 3470   5.916   1.874   1.602 -0.8534  0.4746  0.3730
33036SOL    HW2 3471   6.001   1.816   1.491  0.5942  0.2495  1.5613
33037SOL     OW 3472   5.115   3.970   6.944  0.1113  0.2658 -0.0911
33037SOL    HW1 3473   5.173   3.908   6.988  0.8946  1.0659  0.0279
33037SOL    HW2 3474   5.173   4.041   6.915 -0.4768  0.1014 -1.7848
33038SOL     OW 3475  10.940   6.861   7.039  0.2340 -0.5678  0.2638
33038SOL    HW1 3476  10.845   6.866   7.048  0.2341 -0.9389  0.4785
33038SOL    HW2 3477  10.964   6.942   6.995 -0.1242 -0.2287  0.6862
33039SOL     OW 3478   5.473   9.563   8.779 -0.6076 -0.1919 -0.3882
33039SOL    HW1 3479   5.470   9.548   8.873  2.3738  0.9246  0.0084
33039SOL    HW2 3480   5.517   9.486   8.744  1.4639  0.8964 -0.3200
33040SOL     OW 3481   2.889   1.383   7.272  0.0549  0.1056 -0.2094
33040SOL    HW1 3482   2.832   1.388   7.348  0.1735  0.0405 -0.1165
33040SOL    HW2 3483   2.893   1.473   7.239  0.3153  0.2058  0.0899
33041SOL     OW 3484   5.150   2.537   6.255 -0.1157 -0.2849 -0.7269
33041SOL    HW1 3485   5.106   2.485   6.322 -0.2299  0.3190 -0.3231
33041SOL    HW2 3486   5.237   2.553   6.292  1.4720 -3.6518 -2.6009
33042SOL     OW 3487   3.753   7.080   8.104  0.5272  0.0290 -0.4390
33042SOL    HW1 3488   3.740   7.043   8.017  1.8756  1.0897 -1.1345
33042SOL    HW2 3489   3.669   7.121   8.125 -0.0340 -0.8444 -0.9170
33043SOL     OW 3490   2.027   3.696   6.860  0.1660  0.3677 -0.6303
33043SOL    HW1 3491   2.105   3.646   6.837 -0.4204 -0.8310 -0.1061
33043SOL    HW2 3492   2.059   3.764   6.919  0.9179  0.3353 -0.9844
33044SOL     OW 3493   1.064   8.517   6.524 -0.3312  0.0031 -0.0584
33044SOL    HW1 3494   1.076   8.454   6.595  3.2401  1.2406  0.6517
33044SOL    HW2 3495   1.128   8.489   6.458  0.3354  2.0103 -0.3169
33045SOL     OW 3496   1.152   0.391  11.051 -0.0712 -0.0486 -0.1489
33045SOL    HW1 3497   1.192   0.310  11.019  0.2578  1.1474 -3.1216
33045SOL    HW2 3498   1.134   0.374  11.143  0.3446 -3.3354 -0.5408
33046SOL     OW 3499   7.998   3.359   0.337 -0.2618 -0.2587 -0.8530
33046SOL    HW1 3500   7.935   3.412   0.387  0.6192 -1.2729  1.4508
33046SOL    HW2 3501   8.072   3.419   0.322 -0.4952  0.0312 -0.8611
33047SOL     OW 3502   0.176   8.678  10.365  0.0334  0.4180 -0.6756
33047SOL    HW1 3503   0.207   8.636  10.285  0.7029  0.7339 -0.5837
33047SOL    HW2 3504   0.255   8.700  10.414 -0.3712 -0.7280  0.5772
33048SOL     OW 3505   2.188   8.713  11.006  0.0833  0.2122  0.2175
33048SOL    HW1 3506   2.130   8.745  11.075 -0.1756 -0.5598  0.3574
33048SOL    HW2 3507   2.197   8.619  11.022 -2.3857 -0.6454 -2.4915
33049SOL     OW 3508   3.732   6.283   2.468  0.2628  0.2307 -0.1967
33049SOL    HW1 3509   3.657   6.293   2.527  1.0392 -0.5222  0.9592
33049SOL    HW2 3510   3.767   6.196   2.488  2.0177  0.9435 -0.0152
33050SOL     OW 3511   5.958  10.367   1.529  0.0362  0.1540  0.1244
33050SOL    HW1 3512   5.946  10.308   1.603 -0.6711 -2.2573 -1.7968
33050SOL    HW2 3513   5.980  10.451   1.570 -1.1485 -0.8200  3.0684
33051SOL     OW 3514   0.531   3.856   6.984 -0.1245  0.0529 -0.0205
33051SOL    HW1 3515   0.538   3.763   7.005  1.3592 -0.4229 -2.2370
33051SOL    HW2 3516   0.602   3.872   6.922 -0.5869  2.5901 -0.0064
33052SOL     OW 3517   5.682   3.076   6.863  0.5420 -0.6991 -0.4235
33052SOL    HW1 3518   5.770   3.055   6.893  0.6552  0.1947 -0.0930
33052SOL    HW2 3519   5.627   3.007   6.899  1.2227 -1.7613 -1.3711
33053SOL     OW 3520   0.097   2.722   9.035  0.8457  0.3212  0.3435
33053SOL    HW1 3521   0.153   2.720   9.112  0.8762  1.7916  0.3875
33053SOL    HW2 3522   0.144   2.671   8.969  1.6130  0.4563  0.7858
33054SOL     OW 3523   4.719   7.494  10.820 -0.0916 -0.0253  0.3712
33054SOL    HW1 3524   4.741   7.489  10.913  0.0974  3.0067  0.5652
33054SOL    HW2 3525   4.804   7.494  10.776 -0.1202  0.2892  0.3178
33055SOL     OW 3526  10.156   9.936  10.588 -0.4130  0.0669 -0.4979
33055SOL    HW1 3527  10.140   9.988  10.667  2.2359 -0.5900  0.5970
33055SOL    HW2 3528  10.069   9.911  10.557 -1.6370  2.4664  0.7337
33056SOL     OW 3529   6.713  10.076   5.363  0.2808 -0.0304 -0.1650
33056SOL    HW1 3530   6.799  10.060   5.401 -0.0852 -0.8742  0.3537
33056SOL    HW2 3531   6.659  10.106   5.437  0.0517  0.2147 -0.4252
33057SOL     OW 3532   9.967   0.581   2.978  0.2953  0.0222  0.2066
33057SOL    HW1 3533   9.968   0.582   2.882  0.9883 -1.8153  0.1339
33057SOL    HW2 3534  10.060   0.580   3.002  0.2493  3.7854  1.0842
33058SOL     OW 3535   9.029   6.371   9.790  1.0569  0.2562 -0.8307
33058SOL    HW1 3536   9.062   6.288   9.825 -1.8707 -0.9248 -0.6026
33058SOL    HW2 3537   9.037   6.433   9.862  2.4697 -0.0031 -0.7277
33059SOL     OW 3538   3.429   3.475   7.173  0.3633 -0.0903  0.0608
33059SOL    HW1 3539   3.521   3.493   7.152  0.5081 -0.5435  0.3046
33059SOL    HW2 3540   3.426   3.469   7.268  0.1076 -0.2458  0.0445
33060SOL     OW 3541   5.488  10.306   8.410 -0.3223 -0.7117 -0.5637
33060SOL    HW1 3542   5.470  10.400   8.404 -0.3179 -0.6002  0.8099
33060SOL    HW2 3543   5.547  10.288   8.337 -0.8100  0.2303 -1.2035
33061SOL     OW 3544   8.683   0.552   5.707 -0.0138  0.4205 -0.1529
33061SOL    HW1 3545   8.683   0.477   5.766  1.7086  0.0994 -0.5198
33061SOL    HW2 3546   8.738   0.617   5.749 -1.1587  1.3515 -0.0392
33062SOL     OW 3547   4.481  10.787   9.058 -0.4435 -0.6853 -0.0576
33062SOL    HW1 3548   4.418  10.857   9.040  0.2057  0.2535  1.2287
33062SOL    HW2 3549   4.466  10.764   9.149  1.3878 -0.0976  0.4274
33063SOL     OW 3550   6.961   5.054   7.223 -0.0226 -0.0488 -0.5195
33063SOL    HW1 3551   6.913   5.115   7.279  0.6579 -0.3103  0.3659
33063SOL    HW2 3552   6.899   4.982   7.207 -0.0079 -0.2995  0.4682
33064SOL     OW 3553   5.483   2.598   6.580  0.4047  0.3361  0.0281
33064SOL    HW1 3554   5.538   2.675   6.592  0.1059  0.3920  1.2001
33064SOL    HW2 3555   5.543   2.524   6.590  0.4375  0.4085  0.3875
33065SOL     OW 3556   9.100   4.765   3.428  0.5936 -0.0417 -0.0081
33065SOL    HW1 3557   9.074   4.766   3.335  0.8515  0.3322 -0.0783
33065SOL    HW2 3558   9.191   4.735   3.427  0.3505 -0.8020  0.1922
33066SOL     OW 3559   2.500   0.733   1.061 -0.2497 -0.2609  0.5762
33066SOL    HW1 3560   2.541   0.819   1.061 -0.5051 -0.1394  0.7643
33066SOL    HW2 3561   2.573   0.672   1.055  0.0106 -0.0740  1.7162
33067SOL     OW 3562   7.347   9.470   9.118 -0.1731  0.5202 -0.1367
33067SOL    HW1 3563   7.363   9.376   9.103  0.4830  0.7707 -1.0840
33067SOL    HW2 3564   7.348   9.479   9.213  0.6707 -0.3012 -0.0508
33068SOL     OW 3565  10.971  10.574   6.043 -0.1972 -0.2794  0.0190
33068SOL    HW1 3566  11.034  10.513   6.004 -0.6523 -1.5506  1.2205
33068SOL    HW2 3567  10.886  10.538   6.022 -0.4789 -0.0060  0.6767
33069SOL     OW 3568   0.587   8.224  10.426  0.7828  0.4114 -0.0968
33069SOL    HW1 3569   0.571   8.317  10.414  0.2171  0.5483  1.5030
33069SOL    HW2 3570   0.682   8.214  10.420  0.6878  0.5184 -3.6940
33070SOL     OW 3571  10.684   5.586   5.898 -0.0631  0.0049 -0.6509
33070SOL    HW1 3572  10.672   5.673   5.859 -0.7789 -0.5742 -1.7643
33070SOL    HW2 3573  10.778   5.568   5.888 -0.0236  0.3792 -0.9869
33071SOL     OW 3574   6.880  10.736   1.915 -0.2133 -0.3309 -0.0669
33071SOL    HW1 3575   6.948  10.768   1.974 -1.0881  2.2636 -0.3260
33071SOL    HW2 3576   6.802  10.787   1.938 -0.7876  0.2154 -2.8791
33072SOL     OW 3577   2.245   0.250   2.416 -0.1003 -0.2884  0.1541
33072SOL    HW1 3578   2.243   0.300   2.497 -0.2496  0.9418 -0.5916
33072SOL    HW2 3579   2.291   0.306   2.353  1.6002 -1.9527 -0.1653
33073SOL     OW 3580   4.561   8.936  10.510  0.2849  0.1122 -0.6142
33073SOL    HW1 3581   4.523   9.017  10.477 -1.1315 -0.0884  0.4398
33073SOL    HW2 3582   4.586   8.956  10.600  1.6999 -0.0849 -0.9451
33074SOL     OW 3583   9.373   3.631   2.433 -0.3618  0.0932 -0.4169
33074SOL    HW1 3584   9.390   3.699   2.498  0.1367 -1.2292  0.8930
33074SOL    HW2 3585   9.410   3.667   2.352  0.4093  1.1447  0.3588
33075SOL     OW 3586   6.659   0.066   1.337 -0.0010  0.0580 -0.7790
33075SOL    HW1 3587   6.637   0.055   1.430  0.1433 -0.2354 -0.7771
33075SOL    HW2 3588   6.580   0.102   1.298  0.2925  1.2125 -0.3370
33076SOL     OW 3589   4.066   3.934   1.747 -0.0884  0.0432  0.1994
33076SOL    HW1 3590   4.152   3.972   1.727  0.7235 -1.1705  1.2204
33076SOL    HW2 3591   4.009   4.010   1.760  0.4460  0.8792 -1.9434
33077SOL     OW 3592   0.087   5.519  10.738 -0.2999 -0.3640  0.2569
33077SOL    HW1 3593   0.072   5.601  10.691 -1.0466 -1.2828 -1.2038
33077SOL    HW2 3594   0.065   5.451  10.674  0.4785 -1.7072  1.3677
33078SOL     OW 3595  10.325   2.534   9.117  0.1778  0.4147 -0.1886
33078SOL    HW1 3596  10.304   2.566   9.029 -1.3764  2.0444  0.7036
33078SOL    HW2 3597  10.417   2.509   9.112 -0.1832 -0.6674 -2.5750
33079SOL     OW 3598   6.863   0.012   4.353  0.1104 -0.2264  0.4443
33079SOL    HW1 3599   6.923   0.050   4.418  0.9536 -0.1000 -0.3927
33079SOL    HW2 3600   6.792   0.076   4.345 -0.2297 -0.4409  1.5439
33080SOL     OW 3601  10.131   3.699   1.790  0.1828  0.1169 -0.3709
33080SOL    HW1 3602  10.225   3.711   1.783  0.3371 -0.0570  1.1032
33080SOL    HW2 3603  10.119   3.648   1.870 -1.1990  0.7435 -0.1464
33081SOL     OW 3604  10.116   0.399   8.585 -0.2126 -0.6043  0.1086
33081SOL    HW1 3605  10.180   0.432   8.648  0.8137 -0.3164 -1.0413
33081SOL    HW2 3606  10.169   0.356   8.518 -1.2768 -0.9446 -0.5311
33082SOL     OW 3607   4.564   0.318   4.513  0.2872  0.1404 -0.2449
33082SOL    HW1 3608   4.659   0.321   4.502  0.4714 -1.0650  0.7363
33082SOL    HW2 3609   4.539   0.408   4.534  1.1432  0.5616 -0.9788
33083SOL     OW 3610   8.667   7.085   4.974  0.2075  0.2081 -0.0393
33083SOL    HW1 3611   8.639   7.173   4.999 -0.2580 -0.1029  0.5562
33083SOL    HW2 3612   8.676   7.090   4.878  0.2683  0.9192 -0.0055
33084SOL     OW 3613   8.923   4.439   5.302  0.1331  1.0066  0.3529
33084SOL    HW1 3614   8.838   4.405   5.275  1.0148  1.6767 -3.9060
33084SOL    HW2 3615   8.977   4.361   5.315  0.1416  0.5819 -1.9250
33085SOL     OW 3616   3.318   5.057   1.092  0.0231  0.0390  0.5655
33085SOL    HW1 3617   3.306   5.149   1.069 -0.2606 -0.4083 -1.2304
33085SOL    HW2 3618   3.412   5.042   1.077 -0.5115 -0.7995 -2.7909
33086SOL     OW 3619   6.220   9.921   7.625 -0.1999  0.4144  0.0600
33086SOL    HW1 3620   6.283   9.898   7.557 -0.3292  0.3362 -0.0323
33086SOL    HW2 3621   6.146   9.959   7.579 -0.2536  0.4375  0.1637
33087SOL     OW 3622   6.031   4.388   8.261  0.1587 -0.2602  0.1682
33087SOL    HW1 3623   6.010   4.462   8.317 -0.6248 -1.7927  2.0366
33087SOL    HW2 3624   6.117   4.358   8.291  0.4800 -0.1147 -0.5833
33088SOL     OW 3625   7.269   1.197   1.648  0.3989 -0.1459  0.3428
33088SOL    HW1 3626   7.243   1.236   1.732  0.9410  1.0814 -0.0256
33088SOL    HW2 3627   7.326   1.263   1.608  1.6159 -1.4750 -0.1975
33089SOL     OW 3628   4.355   0.475   8.694  0.4081  0.2735  0.3782
33089SOL    HW1 3629   4.386   0.399   8.644 -0.1410  1.2784 -1.6205
33089SOL    HW2 3630   4.313   0.438   8.772  0.4279 -1.4533 -0.3890
33090SOL     OW 3631   0.613   5.247   9.140 -0.4369 -0.0031  0.2080
33090SOL    HW1 3632   0.704   5.241   9.113 -0.1173 -0.2852  1.3107
33090SOL    HW2 3633   0.563   5.218   9.063  0.5030 -2.9687  0.5914
33091SOL     OW 3634   8.765   3.303   0.004 -0.5020 -0.3942 -0.0922
33091SOL    HW1 3635   8.848   3.341   0.033  0.2002 -1.0357 -1.2090
33091SOL    HW2 3636   8.699   3.347   0.058  0.6358 -0.7534  1.6825
33092SOL     OW 3637   1.469   6.494   5.086  0.1627 -0.2998 -0.3587
33092SOL    HW1 3638   1.382   6.466   5.113  0.5718  0.1680  1.5999
33092SOL    HW2 3639   1.521   6.414   5.087 -0.1322 -0.5078 -1.1139
33093SOL     OW 3640   5.104   4.268   0.121  0.4328 -0.8681  0.1710
33093SOL    HW1 3641   5.180   4.289   0.067  0.8281 -0.6823  0.7817
33093SOL    HW2 3642   5.136   4.203   0.183  0.4211  0.0493  1.1715
33094SOL     OW 3643   8.232   0.864   1.746  0.1796  0.0149 -0.0860
33094SOL    HW1 3644   8.249   0.892   1.836 -1.8863 -1.1476  0.7294
33094SOL    HW2 3645   8.305   0.900   1.696  0.5290  2.1100  1.7623
33095SOL     OW 3646   0.605   3.633   8.666  0.4761 -0.4622 -0.1487
33095SOL    HW1 3647   0.557   3.647   8.585  0.6663 -1.2504 -0.4000
33095SOL    HW2 3648   0.568   3.554   8.703 -0.9553  0.9116  1.5450
33096SOL     OW 3649   8.319   9.577   7.967 -0.4715 -0.1424  0.3313
33096SOL    HW1 3650   8.367   9.495   7.976  0.3427  0.2399 -0.4455
33096SOL    HW2 3651   8.302   9.605   8.057  0.8990 -0.2127  0.6245
33097SOL     OW 3652   1.001   1.329   2.676  0.6541 -0.4587  0.2128
33097SOL    HW1 3653   1.054   1.265   2.724  0.2049 -0.7631  0.3172
33097SOL    HW2 3654   0.939   1.362   2.741  0.4732 -0.3818  0.0021
33098SOL     OW 3655   0.215  10.923   8.481 -0.0901 -0.0200  0.9374
33098SOL    HW1 3656   0.216  10.966   8.567  1.7159 -0.9952  1.4543
33098SOL    HW2 3657   0.300  10.879   8.475 -0.1194  0.0917 -1.4000
33099SOL     OW 3658   1.106   1.360   0.988  0.0041 -0.3217 -0.1242
33099SOL    HW1 3659   1.104   1.381   0.894 -0.4588  1.4404  0.2440
33099SOL    HW2 3660   1.073   1.439   1.031 -3.1824 -2.2631  1.3471
33100SOL     OW 3661   8.482   6.282   4.479  0.0527 -0.2876  0.1005
33100SOL    HW1 3662   8.549   6.214   4.474 -0.0160 -0.2952 -0.7968
33100SOL    HW2 3663   8.410   6.249   4.425  0.7530  1.3112 -1.9224
33101SOL     OW 3664   6.239   2.011   6.112 -0.0547  0.5914  0.1434
33101SOL    HW1 3665   6.197   2.097   6.117 -1.1035  0.1060  0.1186
33101SOL    HW2 3666   6.304   2.012   6.183 -1.4648  0.6988  1.5035
33102SOL     OW 3667   8.901   5.184   1.783 -0.1918  0.2842  0.4675
33102SOL    HW1 3668   8.885   5.279   1.786 -0.0676  0.2930  1.0570
33102SOL    HW2 3669   8.814   5.145   1.785 -0.2343  0.3641  1.9226
33103SOL     OW 3670   4.697   8.917   6.989  0.0289 -0.3459  0.4025
33103SOL    HW1 3671   4.621   8.859   6.998 -1.8960  1.9887  0.2892
33103SOL    HW2 3672   4.693   8.949   6.899  1.0472 -0.0328  0.4573
33104SOL     OW 3673   1.135  10.871   4.122  0.5482  0.0470  0.1728
33104SOL    HW1 3674   1.177  10.833   4.045  3.4082  1.8994  0.6712
33104SOL    HW2 3675   1.148  10.966   4.112 -1.5581  0.5629  1.5675
33105SOL     OW 3676   5.684  11.044   5.680 -0.3103 -0.1577  0.1271
33105SOL    HW1 3677   5.632  10.966   5.701 -1.5637  0.3992 -0.7784
33105SOL    HW2 3678   5.684  11.047   5.584 -2.0873  2.0723  0.1200
33106SOL     OW 3679   8.256   1.978   3.805  0.6912  0.0992 -0.5449
33106SOL    HW1 3680   8.315   1.908   3.777 -2.3076 -2.1228 -1.9062
33106SOL    HW2 3681   8.225   2.017   3.723  0.2845  1.2433  0.1272
33107SOL     OW 3682   9.556   7.320   9.929 -0.1262 -0.0965  0.2418
33107SOL    HW1 3683   9.596   7.371   9.999 -0.5269  1.3651 -0.5618
33107SOL    HW2 3684   9.595   7.233   9.938 -1.1079 -0.3461  3.0622
33108SOL     OW 3685   3.956   4.050   2.837  0.1200  0.4005  0.8316
33108SOL    HW1 3686   3.936   3.959   2.859  1.2438 -0.0485  0.1224
33108SOL    HW2 3687   3.997   4.045   2.750  1.1101  1.4662  1.2125
33109SOL     OW 3688   2.566   5.985   4.135 -0.1057 -0.1015  0.2639
33109SOL    HW1 3689   2.517   6.036   4.071  1.1781 -2.0423 -2.4695
33109SOL    HW2 3690   2.635   6.043   4.165 -1.1940  1.0955  0.5206
33110SOL     OW 3691  10.361   6.849   3.052 -0.1969  0.2711 -0.1681
33110SOL    HW1 3692  10.419   6.839   3.129  0.5684  0.8433 -0.6608
33110SOL    HW2 3693  10.291   6.906   3.082 -0.2619 -0.0530  0.3064
33111SOL     OW 3694   7.572   4.789   2.538 -0.1561  0.3309  0.6790
33111SOL    HW1 3695   7.493   4.774   2.591  0.4539  1.7352  2.0801
33111SOL    HW2 3696   7.630   4.839   2.596  1.5409 -0.1665 -0.5205
33112SOL     OW 3697   4.645   8.343   4.489  0.4349 -0.0435  0.4022
33112SOL    HW1 3698   4.671   8.433   4.509  0.6003 -0.4476  2.1042
33112SOL    HW2 3699   4.679   8.291   4.561 -1.1934 -1.2362  0.3715
33113SOL     OW 3700   5.400   4.314   3.515  0.3279  0.0516 -0.3965
33113SOL    HW1 3701   5.316   4.359   3.519 -0.3150 -1.1160  3.9720
33113SOL    HW2 3702   5.378   4.223   3.496  1.0293  0.2787 -2.6008
33114SOL     OW 3703   9.500   4.250   0.563 -0.4743 -0.0120  0.2681
33114SOL    HW1 3704   9.486   4.160   0.536  0.6619 -0.2695  0.4583
33114SOL    HW2 3705   9.414   4.291   0.559 -0.8205 -0.7997 -0.9327
33115SOL     OW 3706   5.757   7.434   8.867  0.0479 -0.6054  0.2549
33115SOL    HW1 3707   5.775   7.520   8.828 -0.0388 -0.6413  0.1345
33115SOL    HW2 3708   5.682   7.448   8.924 -0.3044 -0.7133 -0.1741
33116SOL     OW 3709   5.415   0.373   4.657 -0.0883 -0.2984 -0.3943
33116SOL    HW1 3710   5.435   0.282   4.633  0.9092 -0.6369  1.5817
33116SOL    HW2 3711   5.492   0.403   4.705 -1.4221  0.7588  1.1734
33117SOL     OW 3712   5.329   6.440   4.029  0.1991 -0.3961  0.0669
33117SOL    HW1 3713   5.361   6.377   4.093  0.8402  1.3481  1.5295
33117SOL    HW2 3714   5.234   6.432   4.033  0.2365 -0.4210  1.1302
33118SOL     OW 3715   6.872   8.578   5.834 -0.8973 -0.1520 -0.1230
33118SOL    HW1 3716   6.818   8.499   5.831 -0.3685 -0.5985  1.2717
33118SOL    HW2 3717   6.834   8.636   5.768 -1.7478 -1.2820 -0.6539
33119SOL     OW 3718   1.236   9.021   7.173 -0.4936  0.6490 -0.1596
33119SOL    HW1 3719   1.157   9.047   7.126 -0.0747 -1.0512 -1.9788
33119SOL    HW2 3720   1.268   8.945   7.124  0.9676 -0.1586  1.9282
33120SOL     OW 3721   1.086   5.854   5.437 -0.3868  0.6451  0.0733
33120SOL    HW1 3722   1.068   5.790   5.368 -2.4935  0.1212  1.0194
33120SOL    HW2 3723   1.104   5.935   5.391 -0.2977 -0.0285 -1.1090
33121SOL     OW 3724   3.455   5.621   5.350  0.5312 -0.3543  0.2922
33121SOL    HW1 3725   3.441   5.663   5.265  0.3002  0.1874  0.5916
33121SOL    HW2 3726   3.534   5.663   5.385  0.1507  0.0236  0.7072
33122SOL     OW 3727   3.464   7.893   1.763 -0.2754 -0.1086 -0.1992
33122SOL    HW1 3728   3.484   7.799   1.755 -1.6549 -0.6037  1.5583
33122SOL    HW2 3729   3.476   7.927   1.674  0.9604 -1.7944 -0.7422
33123SOL     OW 3730   4.674   1.016   8.328  0.4261 -0.1136 -0.4575
33123SOL    HW1 3731   4.763   0.989   8.305  0.8646  0.3270  0.6249
33123SOL    HW2 3732   4.686   1.079   8.399 -0.7679 -0.3026 -0.0647
33124SOL     OW 3733  10.401   9.176   3.504  0.3866 -0.2749  0.3607
33124SOL    HW1 3734  10.399   9.254   3.561  1.7167 -1.2128  1.7851
33124SOL    HW2 3735  10.324   9.126   3.528  0.4779 -0.2412  0.7330
33125SOL     OW 3736   7.915  10.404   2.625 -0.5872  0.9207 -0.0936
33125SOL    HW1 3737   7.904  10.419   2.531 -2.6158  0.3894  0.0110
33125SOL    HW2 3738   7.879  10.483   2.667  0.1732  1.0939  0.2508
33126SOL     OW 3739   6.159   8.108   5.282  0.3593 -0.0566  0.1437
33126SOL    HW1 3740   6.126   8.031   5.328  2.5249 -1.8710 -1.0974
33126SOL    HW2 3741   6.235   8.136   5.333  0.3713  0.4172 -0.1263
33127SOL     OW 3742   4.264  10.225  10.812  0.5318 -0.4613 -0.0630
33127SOL    HW1 3743   4.215  10.268  10.741  0.0612 -1.5853 -0.4399
33127SOL    HW2 3744   4.354  10.221  10.779  0.3064 -1.0271 -0.6409
33128SOL     OW 3745   7.537   6.311   6.799  0.2046  0.0201  0.1286
33128SOL    HW1 3746   7.532   6.390   6.744 -0.8292  0.0823  0.2969
33128SOL    HW2 3747   7.625   6.276   6.782  0.1868  0.4614 -0.9888
33129SOL     OW 3748   7.014   2.093   3.651  0.9241  0.2299 -0.0445
33129SOL    HW1 3749   7.100   2.083   3.609  0.7429 -3.0119  0.1352
33129SOL    HW2 3750   6.952   2.101   3.578  1.1276 -0.1885 -0.2681
33130SOL     OW 3751   2.430   6.030  10.993 -0.1695  0.2754 -0.0759
33130SOL    HW1 3752   2.348   5.985  10.972 -0.4600  0.6474  0.2304
33130SOL    HW2 3753   2.498   5.964  10.982 -0.8693 -1.2502  3.4985
33131SOL     OW 3754   2.873   4.527   5.640  0.3117  0.4414 -0.0730
33131SOL    HW1 3755   2.861   4.593   5.708 -0.3604  0.7737 -0.5159
33131SOL    HW2 3756   2.947   4.474   5.671  1.0335  1.5637  0.1485
33132SOL     OW 3757   5.009   5.130   1.498  0.3020 -0.2665 -0.1767
33132SOL    HW1 3758   5.090   5.160   1.459  0.0622  0.4522 -0.1337
33132SOL    HW2 3759   4.964   5.083   1.428 -0.1844  1.1206 -0.8163
33133SOL     OW 3760   0.015   5.878   4.739 -0.4149 -0.3362 -0.4420
33133SOL    HW1 3761  -0.009   5.944   4.674 -1.8990 -0.5017 -0.1165
33133SOL    HW2 3762   0.024   5.797   4.690  0.1762 -0.1339 -0.6709
33134SOL     OW 3763   7.982   0.531   7.674  0.6845  0.1074 -0.2778
33134SOL    HW1 3764   8.047   0.526   7.604  1.3668 -0.4196  0.3668
33134SOL    HW2 3765   7.910   0.476   7.645  0.1393  1.3601 -1.3796
33135SOL     OW 3766   7.498   1.631   3.897 -0.2625 -0.0377 -0.6628
33135SOL    HW1 3767   7.508   1.571   3.971 -0.9754 -0.1335 -0.6352
33135SOL    HW2 3768   7.415   1.605   3.857 -0.3831  0.6775 -0.8864
33136SOL     OW 3769  10.640  10.162  10.140  0.2263  0.0897  0.0660
33136SOL    HW1 3770  10.688  10.245  10.141 -0.4918  0.5255 -0.9239
33136SOL    HW2 3771  10.625  10.142  10.233 -0.6684  1.6944  0.3027
33137SOL     OW 3772   3.108   6.380   0.253  0.4345 -0.4764 -0.3639
33137SOL    HW1 3773   3.045   6.313   0.228 -0.0031 -0.1186 -0.2346
33137SOL    HW2 3774   3.100   6.388   0.348  0.9109 -0.6620 -0.3052
33138SOL     OW 3775   7.713   4.341   8.052  0.1523  0.1962 -0.6300
33138SOL    HW1 3776   7.765   4.387   8.118 -0.3134 -0.9858  0.6265
33138SOL    HW2 3777   7.744   4.376   7.968  1.4729  1.0325  0.1615
33139SOL     OW 3778   3.480   3.316   5.688 -0.4053  0.7720 -0.1584
33139SOL    HW1 3779   3.492   3.410   5.672 -1.3799  1.2534  1.6650
33139SOL    HW2 3780   3.416   3.312   5.758 -0.2817 -1.2816 -0.1119
33140SOL     OW 3781   0.558   4.812   8.110 -0.4548  1.0468 -0.3405
33140SOL    HW1 3782   0.504   4.891   8.112  0.7574  1.8871  0.1417
33140SOL    HW2 3783   0.644   4.841   8.139 -0.0820 -0.5433  0.2424
33141SOL     OW 3784   4.016   9.204   1.870 -0.4841  0.4541  0.2178
33141SOL    HW1 3785   3.965   9.137   1.825  1.2145 -1.5531  1.0608
33141SOL    HW2 3786   4.076   9.238   1.804  0.1548 -0.5111  0.2798
33142SOL     OW 3787   1.702   8.890  10.076  0.0964  0.3764  0.7921
33142SOL    HW1 3788   1.762   8.948  10.122  0.4578  0.3210  0.3916
33142SOL    HW2 3789   1.755   8.815  10.050  0.4545  1.3980 -1.6499
33143SOL     OW 3790   0.068   0.069   1.916  0.2436  0.3278  0.3328
33143SOL    HW1 3791   0.111  -0.007   1.956  0.9690  1.3741  1.6173
33143SOL    HW2 3792   0.137   0.109   1.862 -0.0955  0.1665 -0.2270
33144SOL     OW 3793   6.822   2.982   9.380 -0.3718  0.4218 -0.3777
33144SOL    HW1 3794   6.774   2.989   9.297 -0.9642  0.7516 -0.0204
33144SOL    HW2 3795   6.760   2.939   9.440 -0.1986  0.7863  0.0708
33145SOL     OW 3796   7.260   8.940  10.584  0.1916 -0.3053 -0.0349
33145SOL    HW1 3797   7.240   8.878  10.655  2.6734  0.4329  1.4337
33145SOL    HW2 3798   7.209   9.018  10.605  0.4014 -0.3293  0.6028
33146SOL     OW 3799   4.408  10.609   4.173 -0.2967  0.4263 -0.4182
33146SOL    HW1 3800   4.373  10.575   4.256  0.1264  1.8910  0.4073
33146SOL    HW2 3801   4.442  10.695   4.196  1.8429 -0.0298 -1.6699
33147SOL     OW 3802   4.620  10.791   7.907 -0.0533 -0.4994 -0.2493
33147SOL    HW1 3803   4.667  10.779   7.990 -1.1341 -1.5557  0.2393
33147SOL    HW2 3804   4.686  10.825   7.847  1.3681 -2.0099  0.3848
33148SOL     OW 3805   9.495  10.212   8.457 -0.3300  0.2491 -0.3317
33148SOL    HW1 3806   9.454  10.158   8.525  0.3846  0.5056  0.3180
33148SOL    HW2 3807   9.518  10.294   8.502  2.7484 -0.6243 -0.0746
33149SOL     OW 3808   2.340   1.176   6.238 -0.0200 -0.6777  0.9019
33149SOL    HW1 3809   2.256   1.214   6.263 -0.6991 -0.6697 -1.1973
33149SOL    HW2 3810   2.379   1.242   6.180  1.6387 -0.5086  2.1467
33150SOL     OW 3811   9.140   8.596   2.260  0.6221  1.0527 -0.5266
33150SOL    HW1 3812   9.091   8.584   2.341 -0.4951  1.2307 -1.1555
33150SOL    HW2 3813   9.073   8.617   2.195  1.2128 -1.2563 -1.9893
33151SOL     OW 3814  10.404   6.532   3.639  0.3811  0.4574 -0.3758
33151SOL    HW1 3815  10.492   6.558   3.666  0.2162  1.3442 -0.6472
33151SOL    HW2 3816  10.354   6.531   3.721  0.4860  0.6207 -0.3095
33152SOL     OW 3817   0.583   5.448   7.461 -0.3104 -0.3483 -0.4757
33152SOL    HW1 3818   0.668   5.491   7.468 -0.9848  1.2744 -1.7395
33152SOL    HW2 3819   0.536   5.476   7.539  0.3089 -1.3256  0.2755
33153SOL     OW 3820   9.745   6.803   9.232  0.1488 -0.4348  0.7860
33153SOL    HW1 3821   9.823   6.751   9.214 -1.0764 -1.8944 -0.5821
33153SOL    HW2 3822   9.703   6.758   9.306  0.8486  0.6818  1.9054
33154SOL     OW 3823   8.745   5.854   7.872  0.4882  0.0980  0.3854
33154SOL    HW1 3824   8.711   5.780   7.821 -0.7900  1.2686 -0.5564
33154SOL    HW2 3825   8.827   5.822   7.910  0.5267 -1.4347 -0.8908
33155SOL     OW 3826   3.998   4.466   8.575  0.5713 -0.2201  0.1159
33155SOL    HW1 3827   3.990   4.406   8.501  2.0651  0.2122 -0.4202
33155SOL    HW2 3828   3.942   4.540   8.552  1.3395  0.0955 -0.7921
33156SOL     OW 3829   7.208  11.073   4.440 -0.5676  0.2838  0.9433
33156SOL    HW1 3830   7.279  11.133   4.415 -0.7136  0.2242  0.3838
33156SOL    HW2 3831   7.247  11.018   4.508  1.0729 -2.0123 -1.6572
33157SOL     OW 3832   0.957   1.337   5.636 -0.2675  0.1549  0.4788
33157SOL    HW1 3833   1.052   1.345   5.643 -0.1240 -0.9360 -0.0333
33157SOL    HW2 3834   0.925   1.366   5.721  0.3469  2.7369 -0.0913
33158SOL     OW 3835   3.325   5.029  10.087  0.1374 -0.0840  0.4403
33158SOL    HW1 3836   3.401   5.015  10.143  0.7816  0.0552 -0.3688
33158SOL    HW2 3837   3.250   5.015  10.144  0.7670  0.3120  1.3985
33159SOL     OW 3838   9.395   9.395   4.517  0.1626 -0.0641 -0.4024
33159SOL    HW1 3839   9.352   9.310   4.505 -1.3479  0.7794 -1.3023
33159SOL    HW2 3840   9.417   9.398   4.610  0.6889 -1.6228 -0.4526
33160SOL     OW 3841   3.782   5.654   2.466  0.2628  0.4461  0.2539
33160SOL    HW1 3842   3.848   5.691   2.525  1.7825  0.0971 -1.1643
33160SOL    HW2 3843   3.772   5.720   2.397 -1.9281  1.1201  1.1234
33161SOL     OW 3844   0.876  10.077   3.772  0.6077  0.4819 -0.1157
33161SOL    HW1 3845   0.861  10.168   3.746  0.0701  0.3880 -0.1452
33161SOL    HW2 3846   0.794  10.050   3.814  0.9124  0.1456  0.2787
33162SOL     OW 3847   2.950   4.389   8.858 -0.4560 -0.1005  0.0108
33162SOL    HW1 3848   2.948   4.294   8.872 -0.4245 -0.4646 -2.0809
33162SOL    HW2 3849   3.034   4.417   8.894  1.5431 -1.6306 -3.0610
33163SOL     OW 3850   5.510   5.166   6.353  0.4232  0.1517 -0.2900
33163SOL    HW1 3851   5.456   5.126   6.421  0.2584  0.9814  0.0743
33163SOL    HW2 3852   5.600   5.145   6.378  0.3196 -0.6742 -0.5481
33164SOL     OW 3853   3.994   9.550  10.737  0.4388 -0.1992 -0.2427
33164SOL    HW1 3854   4.058   9.561  10.808  1.3394 -0.4505 -1.0000
33164SOL    HW2 3855   3.992   9.634  10.693 -2.1344  0.8677  1.6625
33165SOL     OW 3856   1.084   4.985   9.761 -0.0238  0.3963 -0.0181
33165SOL    HW1 3857   1.147   4.915   9.743  0.0769  0.2743  0.7626
33165SOL    HW2 3858   1.135   5.066   9.754 -0.1389  0.4028 -0.9146
33166SOL     OW 3859   8.746   4.345   0.618  0.0954  0.2468  0.0597
33166SOL    HW1 3860   8.730   4.251   0.610  0.1143  0.0079  2.3023
33166SOL    HW2 3861   8.677   4.385   0.565 -0.3039 -1.0215 -0.4089
33167SOL     OW 3862  10.484   2.510   6.027 -0.5564  0.1677  0.2083
33167SOL    HW1 3863  10.412   2.459   5.991  0.5936 -0.8844 -0.6680
33167SOL    HW2 3864  10.461   2.601   6.010  0.0179 -0.2517 -3.4828
33168SOL     OW 3865   9.097   7.413   7.825  0.7402  0.0429  0.0375
33168SOL    HW1 3866   9.144   7.453   7.752 -1.1837  0.9680 -0.7304
33168SOL    HW2 3867   9.009   7.396   7.792 -0.0467  0.0385  1.9835
33169SOL     OW 3868   5.785   0.014   9.194  0.4708  0.0880 -0.2751
33169SOL    HW1 3869   5.774   0.056   9.108  1.2939  0.7314 -0.0844
33169SOL    HW2 3870   5.878  -0.011   9.197  0.9204  1.6780  1.0934
33170SOL     OW 3871   8.661  10.863   7.937 -0.4453 -0.2642  0.9817
33170SOL    HW1 3872   8.685  10.770   7.932 -1.2820 -0.5598  2.1562
33170SOL    HW2 3873   8.678  10.896   7.849  1.5234 -1.1044  0.9781
33171SOL     OW 3874   4.142   3.652   5.424  0.5504 -0.1846  0.3266
33171SOL    HW1 3875   4.225   3.679   5.464 -0.3379  1.9515  0.8497
33171SOL    HW2 3876   4.125   3.718   5.357 -0.2110 -1.2216 -0.5510
33172SOL     OW 3877   4.012  10.035   9.133  0.0542  0.0729  0.0075
33172SOL    HW1 3878   4.067   9.998   9.202 -0.4175 -1.6274 -0.4786
33172SOL    HW2 3879   3.943   9.969   9.119 -0.9806  1.2688 -0.7378
33173SOL     OW 3880   2.213   7.935  10.767  0.2022  0.1678  0.7581
33173SOL    HW1 3881   2.286   7.981  10.726 -0.2851  1.1748  1.0066
33173SOL    HW2 3882   2.154   7.914  10.696 -0.5026  1.6547  0.8859
33174SOL     OW 3883   1.319   8.017   6.962  0.0868  0.2275 -0.1562
33174SOL    HW1 3884   1.379   7.943   6.960  1.1109  1.0285 -0.1792
33174SOL    HW2 3885   1.244   7.990   6.909  0.8528 -0.4492 -0.9099
33175SOL     OW 3886   5.942   6.346   3.965 -0.0749 -0.4026 -0.0035
33175SOL    HW1 3887   5.858   6.387   3.982 -0.7625 -1.5179 -0.5895
33175SOL    HW2 3888   5.935   6.314   3.875  0.8977 -0.6939  0.0108
33176SOL     OW 3889   7.188   2.456   0.568  0.0444  0.0506  0.3633
33176SOL    HW1 3890   7.166   2.412   0.649  1.2344  1.7149  1.6802
33176SOL    HW2 3891   7.185   2.550   0.590  1.3373  0.5193 -1.2195
33177SOL     OW 3892   3.538  10.815   4.982 -0.0088  0.3977 -0.3094
33177SOL    HW1 3893   3.556  10.762   5.059  0.7694 -0.5471 -1.1141
33177SOL    HW2 3894   3.444  10.804   4.967  0.0081 -0.1738 -0.0399
33178SOL     OW 3895   8.378   1.405   7.204 -0.3439  0.4693  0.6173
33178SOL    HW1 3896   8.393   1.430   7.295 -0.0509  0.2615  0.6270
33178SOL    HW2 3897   8.430   1.326   7.192 -1.0328  0.0210  0.5046
33179SOL     OW 3898   9.296   6.992   3.020 -0.1037  0.0333 -0.3072
33179SOL    HW1 3899   9.289   6.988   3.116 -1.4255 -1.2964 -0.4216
33179SOL    HW2 3900   9.323   6.904   2.994 -0.5714  0.1458 -1.2073
33180SOL     OW 3901   1.521   2.430   5.640 -0.0123 -0.0758  0.5248
33180SOL    HW1 3902   1.608   2.399   5.665  0.6259  1.0237 -0.2386
33180SOL    HW2 3903   1.511   2.401   5.550 -0.4090 -0.1224  0.5841
33181SOL     OW 3904   8.597   2.464   6.671 -0.4704 -0.1154 -0.4069
33181SOL    HW1 3905   8.691   2.478   6.687 -0.6625  2.2872 -1.0388
33181SOL    HW2 3906   8.593   2.436   6.579 -0.4101  0.5107 -0.6051
33182SOL     OW 3907   0.229   8.256   1.757  0.1209  0.4220 -0.2417
33182SOL    HW1 3908   0.216   8.173   1.802 -4.0612  0.8218 -0.2428
33182SOL    HW2 3909   0.275   8.233   1.676 -1.1274 -1.9990 -0.3621
33183SOL     OW 3910   8.310   4.169   1.573  0.2541  0.0331  0.2046
33183SOL    HW1 3911   8.345   4.089   1.612  1.0643  0.6225  0.7058
33183SOL    HW2 3912   8.303   4.231   1.645 -0.3982  0.4108 -0.1723
33184SOL     OW 3913   9.922   6.946   0.633  0.4752 -0.0529  0.4723
33184SOL    HW1 3914   9.999   6.987   0.595  1.1119 -1.5461  0.0752
33184SOL    HW2 3915   9.938   6.852   0.625 -0.5039 -0.4132  2.1824
33185SOL     OW 3916   4.745  10.209   6.623  0.2195  0.7399  0.6624
33185SOL    HW1 3917   4.699  10.159   6.556 -0.0064  0.6903  0.8528
33185SOL    HW2 3918   4.686  10.282   6.644  1.5533  2.4918 -1.3376
33186SOL     OW 3919   2.037   4.698   3.321 -0.5657  0.1510  0.0694
33186SOL    HW1 3920   2.025   4.790   3.298 -1.3974  0.0422  0.0190
33186SOL    HW2 3921   2.019   4.695   3.415 -4.1179 -0.4761 -0.4806
33187SOL     OW 3922   8.785   3.535   9.443 -0.4718 -0.6674  1.1536
33187SOL    HW1 3923   8.693   3.555   9.422  0.1278  0.5115 -0.5799
33187SOL    HW2 3924   8.791   3.440   9.436 -1.5626 -0.7555  1.2343
33188SOL     OW 3925   3.573   4.927   0.720 -0.4819 -0.1065  0.0830
33188SOL    HW1 3926   3.522   4.976   0.656  0.7765  2.7010  1.0419
33188SOL    HW2 3927   3.661   4.965   0.714  0.3031 -1.5244  1.6983
33189SOL     OW 3928   0.990   0.666   7.936 -0.1681 -0.1761 -0.4935
33189SOL    HW1 3929   1.019   0.615   7.861  1.1933  0.6156 -0.5371
33189SOL    HW2 3930   0.896   0.652   7.940  0.2850 -3.9884  0.4650
33190SOL     OW 3931   3.164  10.845  10.763  0.2236 -0.3055 -0.0230
33190SOL    HW1 3932   3.251  10.884  10.773  1.0695 -2.2300  0.5870
33190SOL    HW2 3933   3.137  10.823  10.852 -0.2627 -0.9633 -0.3223
33191SOL     OW 3934   2.523   5.919   1.766  0.0596 -0.2092 -0.1055
33191SOL    HW1 3935   2.574   5.977   1.823 -1.2243  0.5482  0.3050
33191SOL    HW2 3936   2.490   5.852   1.825 -0.6902  0.1790 -0.0766
33192SOL     OW 3937  11.002   9.713   0.867 -0.0055 -0.5025 -0.3774
33192SOL    HW1 3938  10.921   9.701   0.817  1.0451 -1.0205 -2.0130
33192SOL    HW2 3939  11.016   9.808   0.867 -1.0264 -0.3214  0.6614
33193SOL     OW 3940   6.020   1.728   5.797  0.0775  0.2219  0.0493
33193SOL    HW1 3941   6.026   1.645   5.845  2.5443 -0.4626 -1.2695
33193SOL    HW2 3942   6.008   1.702   5.706 -2.5252  1.4592 -0.0648
33194SOL     OW 3943   0.053   9.113   7.403  0.0340 -0.4609 -0.6152
33194SOL    HW1 3944   0.016   9.057   7.334 -2.5462  1.5605 -1.0260
33194SOL    HW2 3945   0.122   9.163   7.359  1.7195 -2.5125 -0.4655
33195SOL     OW 3946   3.909   1.558   8.728  0.8675 -0.1194 -0.1080
33195SOL    HW1 3947   3.993   1.515   8.747  1.1911  0.4279 -0.2550
33195SOL    HW2 3948   3.928   1.652   8.738  0.3818  0.0331 -0.5584
33196SOL     OW 3949   9.128   0.708   2.184  0.0725 -0.5616  0.4934
33196SOL    HW1 3950   9.196   0.653   2.222  0.9192  0.8511  1.1094
33196SOL    HW2 3951   9.066   0.722   2.257 -1.0349 -1.9940 -0.1119
33197SOL     OW 3952  10.052   5.864   6.837 -0.3723 -0.7206 -0.3224
33197SOL    HW1 3953  10.111   5.844   6.910  0.5265  1.8587 -0.2447
33197SOL    HW2 3954  10.005   5.942   6.866  0.0471  0.3961 -2.5023
33198SOL     OW 3955   3.337   8.556   2.346  0.3638  0.1784  0.0427
33198SOL    HW1 3956   3.286   8.620   2.296  1.2120  1.5870  0.8832
33198SOL    HW2 3957   3.406   8.527   2.286 -0.6254 -0.7431 -0.6709
33199SOL     OW 3958   3.615   6.422   6.737 -0.1401 -0.2703  0.8459
33199SOL    HW1 3959   3.558   6.494   6.765 -2.1720 -1.5267  0.1460
33199SOL    HW2 3960   3.697   6.437   6.784 -0.6146  2.2625  1.0322
33200SOL     OW 3961   6.771   8.048   4.622  0.4374 -0.4008  0.0422
33200SOL    HW1 3962   6.713   8.094   4.682  1.9309  0.6801  0.7322
33200SOL    HW2 3963   6.830   7.998   4.678  0.6755 -0.8570 -0.6012
33201SOL     OW 3964   7.752   0.861   5.370 -0.8602 -0.1636 -0.0781
33201SOL    HW1 3965   7.775   0.791   5.430 -1.6360  1.0842  1.7970
33201SOL    HW2 3966   7.796   0.839   5.288 -1.4572 -3.0352  0.2711
33202SOL     OW 3967   7.766   8.576   1.925  0.3612  0.2621 -0.2205
33202SOL    HW1 3968   7.771   8.660   1.879  4.0388 -0.4523 -1.4617
33202SOL    HW2 3969   7.738   8.514   1.858 -0.4570  0.1802  0.1917
33203SOL     OW 3970   3.461   8.636   4.790  0.3838 -0.1928  0.0965
33203SOL    HW1 3971   3.511   8.564   4.751 -0.1636 -0.6411  0.2215
33203SOL    HW2 3972   3.471   8.625   4.884  0.0613 -0.2756  0.1223
33204SOL     OW 3973   2.658   4.745   3.555  0.3990 -0.0935  0.0725
33204SOL    HW1 3974   2.732   4.782   3.603  1.4881 -1.4450 -0.5160
33204SOL    HW2 3975   2.633   4.667   3.604  0.2130 -0.3646 -0.4416
33205SOL     OW 3976   8.340   3.036   7.526  0.3170 -0.4087 -0.1576
33205SOL    HW1 3977   8.335   2.947   7.492  0.4036  0.1145 -1.6288
33205SOL    HW2 3978   8.394   3.083   7.462 -0.7378  0.9806 -0.0857
33206SOL     OW 3979   1.478   6.952   0.365  0.1606 -0.3434 -0.1631
33206SOL    HW1 3980   1.402   6.994   0.325  0.5249  0.3821 -0.0975
33206SOL    HW2 3981   1.441   6.879   0.416 -0.5020  0.0835 -0.0258
33207SOL     OW 3982   1.455   4.765   6.176  0.8919 -0.0666 -0.0637
33207SOL    HW1 3983   1.545   4.740   6.194  0.5945 -1.3318 -0.2380
33207SOL    HW2 3984   1.438   4.839   6.234  0.5190 -2.8437  3.7372
33208SOL     OW 3985   6.344   3.778   6.826  0.3737 -0.3855  0.1195
33208SOL    HW1 3986   6.341   3.866   6.863  1.6426  0.1234 -0.9445
33208SOL    HW2 3987   6.260   3.767   6.783 -0.1319 -0.0396  0.9880
33209SOL     OW 3988  11.035   8.416   2.262 -0.3184  0.2303  0.0398
33209SOL    HW1 3989  11.001   8.464   2.186  0.7604 -0.2057 -0.7511
33209SOL    HW2 3990  10.981   8.337   2.266 -1.3269  0.9320  0.6261
33210SOL     OW 3991   8.461   0.977   7.494 -0.0242 -0.1748 -0.5730
33210SOL    HW1 3992   8.391   0.996   7.432 -0.3816 -0.2079 -0.1877
33210SOL    HW2 3993   8.524   1.048   7.482 -0.3652  0.1299 -0.5734
33211SOL     OW 3994   3.940   8.983   2.938 -1.1994  0.4231  0.4439
33211SOL    HW1 3995   3.845   8.977   2.947 -1.2691  0.3346 -0.3013
33211SOL    HW2 3996   3.958   8.942   2.854 -0.5735  1.0942  0.2507
33212SOL     OW 3997   5.261   4.531  10.792 -0.3007 -0.0377 -0.2340
33212SOL    HW1 3998   5.310   4.606  10.825  0.3022 -0.6741  0.3636
33212SOL    HW2 3999   5.169   4.556  10.802 -0.1062  0.7902 -0.4564
33213SOL     OW 4000   0.870   5.702   3.162 -0.1374  0.4902 -0.1139
33213SOL    HW1 4001   0.906   5.626   3.208 -0.9966  1.5250  2.5065
33213SOL    HW2 4002   0.776   5.684   3.155 -0.2342  0.9856 -0.1413
33214SOL     OW 4003  10.301   8.858   8.601 -0.2290 -0.1086  0.7636
33214SOL    HW1 4004  10.352   8.928   8.642 -1.5452  0.5049  1.4369
33214SOL    HW2 4005  10.303   8.877   8.508 -0.6714  0.9348  0.9497
33215SOL     OW 4006   5.793   9.354   9.418  0.0308 -0.0185  0.0876
33215SOL    HW1 4007   5.871   9.383   9.464  0.5114  0.0801 -0.7765
33215SOL    HW2 4008   5.822   9.339   9.327 -1.0136  0.3310 -0.3178
33216SOL     OW 4009   8.534   2.758   7.197 -0.0630 -0.8444  0.0872
33216SOL    HW1 4010   8.506   2.743   7.288 -0.7500 -1.5766 -0.2293
33216SOL    HW2 4011   8.581   2.679   7.173 -0.9608 -1.1954 -0.5818
33217SOL     OW 4012   1.422   6.440   9.349  0.2456  0.1013 -0.1502
33217SOL    HW1 4013   1.498   6.476   9.397 -0.3888  0.6707  0.4531
33217SOL    HW2 4014   1.403   6.358   9.393 -0.1118  0.4510  0.3606
33218SOL     OW 4015   5.101   7.203   3.430 -0.8252  0.4492 -0.5957
33218SOL    HW1 4016   5.140   7.281   3.391 -0.2105 -0.0633 -1.0163
33218SOL    HW2 4017   5.175   7.145   3.447 -1.0055  0.8279  1.7739
33219SOL     OW 4018   5.949  10.039  10.987  0.1620 -0.3906  0.3093
33219SOL    HW1 4019   5.927  10.001  11.072 -0.6283 -0.3121  0.1436
33219SOL    HW2 4020   5.908   9.982  10.923  0.4603 -0.2517 -0.0122
33220SOL     OW 4021   4.691   7.734   1.217  0.0198  0.2621  0.7022
33220SOL    HW1 4022   4.773   7.783   1.216 -0.6096  1.3886 -0.9982
33220SOL    HW2 4023   4.702   7.665   1.152 -0.2260  0.1531  0.7721
33221SOL     OW 4024   1.812   7.366   0.589 -0.4912  0.7234  0.5726
33221SOL    HW1 4025   1.764   7.449   0.596  0.4843  1.4216 -0.7095
33221SOL    HW2 4026   1.805   7.342   0.497 -0.9862 -0.7923  0.9803
33222SOL     OW 4027   4.552   5.818   9.670 -0.0971  0.3298  0.3312
33222SOL    HW1 4028   4.592   5.846   9.752  0.7221  0.9051 -0.2407
33222SOL    HW2 4029   4.544   5.899   9.619  1.0856 -0.2419 -0.8427
33223SOL     OW 4030  10.607   4.355   0.633 -0.2455  0.1193  0.0918
33223SOL    HW1 4031  10.658   4.436   0.641 -1.7955  0.9773  2.0552
33223SOL    HW2 4032  10.522   4.384   0.600 -0.5299 -0.8398 -0.0371
33224SOL     OW 4033   1.266   2.420   2.549  0.2603 -0.1213 -0.3734
33224SOL    HW1 4034   1.196   2.355   2.537 -0.0324  0.1711 -0.2456
33224SOL    HW2 4035   1.337   2.387   2.494  0.4714 -1.0705  0.4296
33225SOL     OW 4036   3.372   3.692   8.574  0.0147 -0.7146 -0.3074
33225SOL    HW1 4037   3.301   3.673   8.513 -0.0873 -1.2974 -0.0165
33225SOL    HW2 4038   3.358   3.632   8.647  0.0522  0.0621  0.3644
33226SOL     OW 4039   2.952  10.185   1.793 -0.0755 -0.3543 -0.4016
33226SOL    HW1 4040   3.036  10.204   1.750  0.0952 -1.3238 -0.5156
33226SOL    HW2 4041   2.969  10.107   1.845 -1.6650 -2.4648 -2.8254
33227SOL     OW 4042   5.766   8.268   1.384  0.1030  0.1082 -0.4800
33227SOL    HW1 4043   5.710   8.345   1.391 -0.9981 -0.7734  0.7480
33227SOL    HW2 4044   5.779   8.239   1.474  1.5614 -0.4147 -0.8323
33228SOL     OW 4045  10.511   7.262   3.536 -0.4818 -0.1945 -0.0614
33228SOL    HW1 4046  10.501   7.246   3.629  0.7350  0.6054  0.2419
33228SOL    HW2 4047  10.430   7.305   3.509 -0.4829  0.3858  0.8397
33229SOL     OW 4048   7.019   7.300   2.684 -0.0042 -0.0045 -0.1672
33229SOL    HW1 4049   7.114   7.297   2.697 -0.2131 -0.1916  1.6238
33229SOL    HW2 4050   7.005   7.374   2.624  1.0704  2.4379  2.3532
33230SOL     OW 4051   2.764   4.515   9.113  0.6201 -0.4320  0.6279
33230SOL    HW1 4052   2.763   4.424   9.083 -0.1044  0.2661 -1.6886
33230SOL    HW2 4053   2.682   4.553   9.080  0.6849  0.9718  1.9336
33231SOL     OW 4054   5.542   1.600   1.605 -0.0238  0.0626 -0.5715
33231SOL    HW1 4055   5.574   1.583   1.516 -1.0184 -1.3846 -0.6896
33231SOL    HW2 4056   5.616   1.579   1.661  0.2465 -0.1481 -0.9974
33232SOL     OW 4057   1.986   6.097   2.264  0.6005 -0.0735  0.3683
33232SOL    HW1 4058   2.036   6.090   2.183  0.1643  1.0723 -0.0188
33232SOL    HW2 4059   1.997   6.012   2.306 -1.2286 -1.6215 -2.0554
33233SOL     OW 4060   7.138   9.309   3.875  0.4904  0.3986 -0.5842
33233SOL    HW1 4061   7.177   9.271   3.797 -1.1303 -1.3275 -0.6142
33233SOL    HW2 4062   7.044   9.315   3.855  0.3512  2.1101  0.3795
33234SOL     OW 4063   9.254  10.553  10.949 -0.3112 -0.2756 -0.0265
33234SOL    HW1 4064   9.288  10.628  10.997  1.2370 -0.1501 -1.2288
33234SOL    HW2 4065   9.330  10.496  10.937 -0.9816 -0.9832 -1.0332
33235SOL     OW 4066   8.165   4.328   7.053  0.3416  0.5468 -0.0800
33235SOL    HW1 4067   8.180   4.239   7.021 -0.7729  0.6550 -0.9330
33235SOL    HW2 4068   8.254   4.364   7.064  0.8131  0.4187 -2.8361
33236SOL     OW 4069   3.127   5.665   0.380 -0.2349 -0.1561  0.2666
33236SOL    HW1 4070   3.049   5.656   0.434  0.6285 -2.5468  1.2432
33236SOL    HW2 4071   3.095   5.668   0.290 -1.5775  1.7970  0.7492
33237SOL     OW 4072   0.901   0.930   6.103 -0.0907 -0.6500 -0.2260
33237SOL    HW1 4073   0.904   1.016   6.061 -2.0221 -1.1493 -1.5298
33237SOL    HW2 4074   0.811   0.900   6.090  0.1508 -2.3040  1.3986
33238SOL     OW 4075   2.026   8.784   3.122  0.3303 -1.1661  0.4078
33238SOL    HW1 4076   2.118   8.780   3.147  0.0843 -0.6133  1.4491
33238SOL    HW2 4077   2.018   8.721   3.050  2.0745  0.6391 -1.5075
33239SOL     OW 4078   0.572   6.949   0.468 -0.6832  0.6261  0.3924
33239SOL    HW1 4079   0.558   7.044   0.467  0.4079  0.8073  0.4426
33239SOL    HW2 4080   0.490   6.912   0.437 -1.0407  1.6045  0.1322
33240SOL     OW 4081   2.618   6.648  11.034  0.1519 -0.4490  0.0797
33240SOL    HW1 4082   2.542   6.599  11.002  0.1581 -0.2603 -0.2352
33240SOL    HW2 4083   2.591   6.683  11.118  0.5435 -1.9402  0.8593
33241SOL     OW 4084   7.545   1.379   8.615  0.1208  0.0911 -0.3109
33241SOL    HW1 4085   7.518   1.456   8.565 -3.3858 -0.2525  0.8027
33241SOL    HW2 4086   7.574   1.316   8.549  0.0486  1.2472 -1.4806
33242SOL     OW 4087   4.028   8.116   1.636  0.0050  0.1474  0.1775
33242SOL    HW1 4088   4.091   8.105   1.565 -0.1034  0.1239  0.0858
33242SOL    HW2 4089   4.011   8.210   1.639 -0.3724  0.0911 -0.1557
33243SOL     OW 4090  10.881   1.234   9.317  0.5127  0.6833 -0.2088
33243SOL    HW1 4091  10.962   1.190   9.343  0.8351  1.0321 -0.6096
33243SOL    HW2 4092  10.872   1.307   9.379 -1.1652 -1.1232  1.8837
33244SOL     OW 4093   2.305   7.004   3.799 -0.8378  0.3557 -0.1032
33244SOL    HW1 4094   2.378   6.999   3.861 -0.1050  1.6297 -0.8299
33244SOL    HW2 4095   2.261   6.919   3.807  0.0494 -0.0112  1.1571
33245SOL     OW 4096   5.822   5.701  10.108 -0.6035 -0.0909 -0.2605
33245SOL    HW1 4097   5.851   5.792  10.096 -1.3985 -0.0485 -2.2093
33245SOL    HW2 4098   5.898   5.648  10.086 -0.0173  0.0668  1.2545
33246SOL     OW 4099   3.358   2.866   2.194  0.2531  0.1591  0.0689
33246SOL    HW1 4100   3.429   2.852   2.256 -0.7333  0.3873  1.2714
33246SOL    HW2 4101   3.284   2.895   2.247 -0.5260  0.6823 -1.2449
33247SOL     OW 4102   5.657   4.060   6.005  0.4484  0.4065  0.3890
33247SOL    HW1 4103   5.729   4.022   6.056  0.7737 -1.2950 -1.2018
33247SOL    HW2 4104   5.627   3.988   5.949 -1.8025  1.3876  0.2408
33248SOL     OW 4105   0.623   1.954   5.742  0.3178 -0.3173 -0.1317
33248SOL    HW1 4106   0.676   1.877   5.763  0.8660  0.1673  0.3242
33248SOL    HW2 4107   0.535   1.933   5.775  0.5059 -0.6783  0.1428
33249SOL     OW 4108   0.198   3.063   0.619  0.8129 -0.2009 -0.9820
33249SOL    HW1 4109   0.237   3.118   0.687  1.5922 -3.0479  1.0675
33249SOL    HW2 4110   0.116   3.032   0.658  0.0628 -0.0134 -2.3557
33250SOL     OW 4111   3.237   6.810   8.430 -0.2664 -0.1573 -0.0211
33250SOL    HW1 4112   3.268   6.856   8.352  0.2173  0.3458  0.4598
33250SOL    HW2 4113   3.316   6.771   8.468 -0.4752 -0.2677  0.3027
33251SOL     OW 4114   7.747   2.745   5.528 -0.3284 -0.1006 -0.7325
33251SOL    HW1 4115   7.664   2.722   5.569 -0.3929 -2.9814 -2.2486
33251SOL    HW2 4116   7.725   2.759   5.436  0.7235  0.0506 -0.9705
33252SOL     OW 4117   3.062   0.672   2.881  0.2115  0.4660 -0.6415
33252SOL    HW1 4118   3.008   0.607   2.836  0.2273  0.2084 -0.2961
33252SOL    HW2 4119   3.073   0.743   2.818  0.1101  0.1759 -0.9854
33253SOL     OW 4120   5.919   7.066   4.156 -0.1268 -0.0865  0.1063
33253SOL    HW1 4121   5.957   7.097   4.238  0.1339  1.8328 -0.7003
33253SOL    HW2 4122   5.849   7.128   4.136 -0.6297 -0.9090 -0.7947
33254SOL     OW 4123   8.994   9.657   5.724  0.5814  0.1402  0.1192
33254SOL    HW1 4124   8.979   9.665   5.630  0.5159 -0.1225  0.1064
33254SOL    HW2 4125   9.089   9.664   5.734  0.5314  0.8887  0.1076
33255SOL     OW 4126   5.927   3.122   0.389  0.4474 -0.0053 -0.2266
33255SOL    HW1 4127   5.974   3.188   0.440  1.7729 -0.8893 -0.2367
33255SOL    HW2 4128   5.836   3.149   0.392  0.7835  1.0921  0.8756
33256SOL     OW 4129   0.866   4.782   7.764 -0.4663 -0.5863  0.3719
33256SOL    HW1 4130   0.785   4.759   7.809  0.7995 -3.0025  1.6634
33256SOL    HW2 4131   0.855   4.749   7.675 -1.1087 -0.3998  0.3810
33257SOL     OW 4132   5.123   6.455   1.085  0.2108 -0.4024  0.6370
33257SOL    HW1 4133   5.084   6.381   1.039 -0.2681 -0.4040  1.0317
33257SOL    HW2 4134   5.214   6.459   1.054  0.1871 -1.0470  0.4907
33258SOL     OW 4135   2.970   5.248   3.792 -0.1120  0.4571  0.4509
33258SOL    HW1 4136   3.033   5.288   3.851 -0.6670  1.4826  0.3755
33258SOL    HW2 4137   2.887   5.292   3.811 -0.5548 -0.0379 -0.2557
33259SOL     OW 4138   0.097   5.758   0.840  0.3590 -0.4695  0.4114
33259SOL    HW1 4139   0.028   5.824   0.847 -1.0002 -1.8154 -0.0950
33259SOL    HW2 4140   0.081   5.699   0.913  1.3130 -0.5245  0.5978
33260SOL     OW 4141   7.649   9.933   8.499 -0.1314  0.2607 -0.5683
33260SOL    HW1 4142   7.622   9.962   8.412 -1.8612  0.8949  0.1353
33260SOL    HW2 4143   7.661  10.013   8.549 -0.3285 -0.1195  0.1006
33261SOL     OW 4144   6.671   1.213   9.829 -0.3935 -0.2287 -0.3315
33261SOL    HW1 4145   6.607   1.148   9.856  0.4121 -1.3717 -1.0799
33261SOL    HW2 4146   6.715   1.239   9.910  0.8341 -2.3611 -0.2265
33262SOL     OW 4147   5.480  10.189   2.952  0.2568 -0.3209  0.3998
33262SOL    HW1 4148   5.575  10.195   2.944  0.6381 -2.3667  2.4180
33262SOL    HW2 4149   5.454  10.130   2.881  0.3711  0.7390 -0.5491
33263SOL     OW 4150   2.509   3.224   3.626 -0.0638 -0.1642  0.2492
33263SOL    HW1 4151   2.553   3.225   3.541 -1.0948 -0.2324 -0.3026
33263SOL    HW2 4152   2.523   3.312   3.661 -0.0087  0.0029 -0.1873
33264SOL     OW 4153   0.937  10.914   1.534 -0.0147  0.3675  0.3532
33264SOL    HW1 4154   0.869  10.970   1.569  1.0426  2.4014 -0.6423
33264SOL    HW2 4155   0.896  10.870   1.459 -0.9511 -0.5140  1.3463
33265SOL     OW 4156   0.795  11.042   7.358 -0.0918  0.1935 -0.1564
33265SOL    HW1 4157   0.864  11.003   7.412  0.4081 -0.5224 -1.2588
33265SOL    HW2 4158   0.755  11.108   7.414  2.0696  1.2574  0.2669
33266SOL     OW 4159   1.388   1.048   6.835 -0.1083  0.4803  0.5090
33266SOL    HW1 4160   1.323   0.978   6.839 -1.8076  1.9256 -0.6412
33266SOL    HW2 4161   1.445   1.024   6.762 -1.8000  1.1275 -1.1140
33267SOL     OW 4162   9.001   4.466   0.325  0.4096  0.0805 -0.6752
33267SOL    HW1 4163   8.972   4.556   0.336  1.1858  0.4743 -1.7298
33267SOL    HW2 4164   8.930   4.423   0.278  0.4302  0.3846 -0.9855
33268SOL     OW 4165   7.954   9.925   7.424 -0.3504 -0.1111 -0.1309
33268SOL    HW1 4166   7.970   9.888   7.337 -1.8912 -0.1336 -0.4398
33268SOL    HW2 4167   7.979  10.017   7.416  0.5016 -0.3566 -0.2930
33269SOL     OW 4168   4.534   8.529  10.132 -0.7875  0.0054 -0.0677
33269SOL    HW1 4169   4.569   8.580  10.059 -0.5518 -1.0141 -0.6858
33269SOL    HW2 4170   4.439   8.536  10.122 -0.7619 -0.3656 -0.6617
33270SOL     OW 4171  11.030   8.980   6.457 -0.2771 -0.2353  0.0937
33270SOL    HW1 4172  11.083   9.033   6.397 -1.4988 -1.1402 -1.9205
33270SOL    HW2 4173  11.089   8.911   6.487 -0.2200 -1.2722 -2.1712
33271SOL     OW 4174  10.240   1.517   0.342 -0.4161  0.0694  0.0520
33271SOL    HW1 4175  10.276   1.430   0.323 -0.9347  0.1290 -1.3237
33271SOL    HW2 4176  10.312   1.577   0.328 -0.3696 -0.0392 -0.1837
33272SOL     OW 4177   4.474   0.549   7.451  0.2812 -0.4582  0.0882
33272SOL    HW1 4178   4.477   0.476   7.513 -0.6277  0.0843  0.7986
33272SOL    HW2 4179   4.382   0.557   7.428  0.5668 -0.4419 -1.1125
33273SOL     OW 4180   1.155   6.963   8.259 -0.9948  0.0726 -0.0166
33273SOL    HW1 4181   1.177   7.000   8.345  0.0340 -0.6552  0.0459
33273SOL    HW2 4182   1.208   7.014   8.198  0.7516 -1.4981  0.1071
33274SOL     OW 4183   4.548   8.230   4.239  0.0837 -0.2596  0.5285
33274SOL    HW1 4184   4.523   8.147   4.278 -0.5551  0.3434  1.4384
33274SOL    HW2 4185   4.600   8.274   4.306  2.1460 -0.7339 -0.6680
33275SOL     OW 4186   5.976   9.547  10.588 -0.3286  0.2753  0.1437
33275SOL    HW1 4187   5.939   9.515  10.670 -0.9054 -0.2836 -0.3311
33275SOL    HW2 4188   6.002   9.637  10.607 -3.8125  1.4672 -0.0549
33276SOL     OW 4189   8.370   8.033   3.924 -0.9918 -0.0122  0.3305
33276SOL    HW1 4190   8.304   8.076   3.869 -1.3574 -1.8708 -0.7830
33276SOL    HW2 4191   8.416   8.105   3.968 -1.9714  1.4532 -0.9422
33277SOL     OW 4192  10.891   2.666   3.961  0.1878 -0.2741 -0.2650
33277SOL    HW1 4193  10.853   2.684   4.047 -0.0648 -1.2974 -0.1472
33277SOL    HW2 4194  10.963   2.729   3.953  0.7838 -0.7490  1.0794
33278SOL     OW 4195   7.154   7.510   7.339  0.2353  0.4933  0.4924
33278SOL    HW1 4196   7.103   7.432   7.360 -0.2410  1.1160  1.7483
33278SOL    HW2 4197   7.178   7.499   7.247  0.4846 -1.2929  0.7481
33279SOL     OW 4198   2.841   9.885   9.305  0.3318  0.5424  0.2218
33279SOL    HW1 4199   2.878   9.804   9.342 -0.5933 -0.1585 -0.3442
33279SOL    HW2 4200   2.884   9.955   9.354  0.5077 -0.3064  1.3264
33280SOL     OW 4201   9.930  11.111   1.381  0.1306  0.1052  0.4514
33280SOL    HW1 4202   9.918  11.026   1.338  1.3817 -0.0413  0.3547
33280SOL    HW2 4203   9.896  11.097   1.470  3.6077 -1.6923  1.6717
33281SOL     OW 4204   4.171   7.358   2.923 -0.4569 -0.2649  0.0266
33281SOL    HW1 4205   4.221   7.317   2.995  1.0251  1.0564 -0.2058
33281SOL    HW2 4206   4.080   7.352   2.952  0.0406 -0.3872  1.7009
33282SOL     OW 4207   8.044   8.165   1.344  0.1141 -0.1578  0.2020
33282SOL    HW1 4208   7.990   8.087   1.331  1.1850 -0.9463  0.3244
33282SOL    HW2 4209   8.056   8.170   1.439  1.8777 -1.1636  0.0701
33283SOL     OW 4210   7.333   9.980   8.692  0.3990  0.5454 -0.7986
33283SOL    HW1 4211   7.325   9.942   8.605 -1.7890 -0.9893 -0.0306
33283SOL    HW2 4212   7.308  10.071   8.681 -0.7885  0.1374 -1.6561
33284SOL     OW 4213   6.737   5.938   4.091 -0.1600  0.4331 -0.3454
33284SOL    HW1 4214   6.642   5.945   4.087 -0.2622 -1.0827 -3.2379
33284SOL    HW2 4215   6.756   5.850   4.061  2.2087  1.1786 -1.2676
33285SOL     OW 4216   3.186  10.421   1.409  0.1480 -0.0863 -0.2201
33285SOL    HW1 4217   3.258  10.383   1.358 -0.4377 -1.2048 -0.2338
33285SOL    HW2 4218   3.129  10.461   1.343  0.1126 -0.3034 -0.3226
33286SOL     OW 4219   3.665   3.258  10.492  0.0298 -0.0516 -0.8888
33286SOL    HW1 4220   3.582   3.303  10.508 -0.8466 -1.6816 -0.5303
33286SOL    HW2 4221   3.730   3.312  10.536 -0.9026  1.0349 -0.7845
33287SOL     OW 4222   4.404   5.303   4.137  0.1869  0.1708 -0.2694
33287SOL    HW1 4223   4.479   5.331   4.190 -1.7406  0.5987  2.4124
33287SOL    HW2 4224   4.386   5.214   4.168 -0.6088  0.1985 -0.6488
33288SOL     OW 4225   1.219   4.692   9.265 -0.3301  0.3541 -0.3283
33288SOL    HW1 4226   1.209   4.611   9.315  0.9571 -0.1701 -0.8789
33288SOL    HW2 4227   1.166   4.756   9.313  0.3664 -0.2806  1.3698
33289SOL     OW 4228   6.216   9.113   6.272  0.4156 -0.8280 -0.1923
33289SOL    HW1 4229   6.173   9.071   6.345 -0.2368 -2.0291 -1.2300
33289SOL    HW2 4230   6.285   9.051   6.245  2.5747  0.8346  1.1400
33290SOL     OW 4231   8.579   5.752   5.811 -0.0717  0.3771  0.0225
33290SOL    HW1 4232   8.567   5.748   5.905  0.0464 -0.4225  0.0076
33290SOL    HW2 4233   8.497   5.789   5.778 -1.4121 -2.1976  0.1877
33291SOL     OW 4234   0.282   7.622  10.956  0.4672  0.3347  0.3388
33291SOL    HW1 4235   0.200   7.633  11.005  0.3458  2.3655 -0.2338
33291SOL    HW2 4236   0.347   7.672  11.006  0.8676  0.4989 -0.3386
33292SOL     OW 4237   0.809   0.544   8.284 -0.2005 -0.2915  0.5387
33292SOL    HW1 4238   0.832   0.493   8.207  1.2665 -1.6356  1.8093
33292SOL    HW2 4239   0.741   0.492   8.328  0.7660 -0.8134  1.4451
33293SOL     OW 4240   7.881   0.205   1.399 -0.4123 -0.1607  0.0726
33293SOL    HW1 4241   7.930   0.157   1.467 -0.6597 -0.7438 -0.1562
33293SOL    HW2 4242   7.906   0.162   1.317 -2.2666 -1.3157  0.0594
33294SOL     OW 4243   6.283  10.347   4.916  0.2389 -0.3478  0.3780
33294SOL    HW1 4244   6.298  10.356   4.822  1.8571  1.1310  0.7342
33294SOL    HW2 4245   6.337  10.415   4.956 -1.3058 -0.1526  2.3285
33295SOL     OW 4246   2.277   0.660   1.955 -0.0099 -0.0877 -0.4238
33295SOL    HW1 4247   2.241   0.746   1.976 -0.9399 -0.6710  0.4332
33295SOL    HW2 4248   2.263   0.650   1.861 -3.2064 -0.7686  0.0372
33296SOL     OW 4249   1.487   0.130   1.099 -0.3234 -0.4887 -0.1616
33296SOL    HW1 4250   1.501   0.166   1.012 -1.1329  0.0319 -0.0863
33296SOL    HW2 4251   1.453   0.042   1.084 -1.8055  0.0971 -0.4158
33297SOL     OW 4252   6.772   6.108   6.784  0.0984 -0.3267  0.8632
33297SOL    HW1 4253   6.716   6.184   6.766 -0.1454 -0.6526  0.2068
33297SOL    HW2 4254   6.820   6.094   6.702  0.9031 -0.2577  1.3100
33298SOL     OW 4255   3.572   6.583   5.041  0.1301  0.2919  0.3202
33298SOL    HW1 4256   3.481   6.560   5.063  0.6735 -0.5702  1.7431
33298SOL    HW2 4257   3.563   6.660   4.984 -1.5035 -0.0086  0.1068
33299SOL     OW 4258   5.406   4.745   1.652  0.0922 -0.4789  0.9523
33299SOL    HW1 4259   5.498   4.729   1.675  0.5812  1.0776  0.2049
33299SOL    HW2 4260   5.370   4.658   1.636  1.5605 -1.0960  0.8173
33300SOL     OW 4261  10.559   3.605  10.992 -0.0746  0.0616  0.3479
33300SOL    HW1 4262  10.577   3.579  10.902 -1.2902  0.3647 -0.0077
33300SOL    HW2 4263  10.638   3.652  11.019 -0.7190  2.4997 -1.5732
33301SOL     OW 4264   5.590   3.091   2.230  0.3527  0.3731  0.5210
33301SOL    HW1 4265   5.538   3.134   2.162  1.0821  1.7308  0.7788
33301SOL    HW2 4266   5.526   3.068   2.298  0.1723  3.3031  1.4903
33302SOL     OW 4267   1.372   7.590   8.824  0.1762 -0.4622 -0.6363
33302SOL    HW1 4268   1.355   7.606   8.917  0.9237 -0.9614 -0.4055
33302SOL    HW2 4269   1.348   7.672   8.781 -1.3941 -0.6318 -0.1714
33303SOL     OW 4270   7.629   0.263   4.040 -0.3936  0.0269 -0.2120
33303SOL    HW1 4271   7.537   0.235   4.037 -0.7505  0.8241  1.8768
33303SOL    HW2 4272   7.625   0.358   4.050  0.6059 -0.0299  1.0075
33304SOL     OW 4273   4.603  10.238   9.703 -0.2711  0.5535 -0.2327
33304SOL    HW1 4274   4.593  10.261   9.795 -2.4134  2.1643 -0.8022
33304SOL    HW2 4275   4.610  10.143   9.703 -2.6710  0.3018  1.4608
33305SOL     OW 4276   3.268   1.041   1.407  0.5304  0.1920 -0.2463
33305SOL    HW1 4277   3.317   1.026   1.488  0.2937  0.6520 -0.0138
33305SOL    HW2 4278   3.334   1.072   1.344  0.6488  0.2035 -0.1167
33306SOL     OW 4279   3.612   7.228   3.896  0.1210 -0.4473  0.2172
33306SOL    HW1 4280   3.536   7.176   3.921 -0.0186  0.1062  0.9767
33306SOL    HW2 4281   3.600   7.311   3.942  1.6751 -0.6978  1.1344
33307SOL     OW 4282   9.747   5.640   9.578  0.0621  0.3869 -0.3793
33307SOL    HW1 4283   9.804   5.696   9.525  1.1637  0.5144  0.8903
33307SOL    HW2 4284   9.748   5.555   9.533  1.8882  0.1641  0.0098
33308SOL     OW 4285   6.756   5.576   3.284  0.2375  0.1512 -0.6085
33308SOL    HW1 4286   6.813   5.653   3.279  0.1376  0.2056 -0.9052
33308SOL    HW2 4287   6.745   5.560   3.378  0.7296  0.1523 -0.5464
33309SOL     OW 4288   0.123   9.820   7.042 -1.0758 -0.4387 -0.3767
33309SOL    HW1 4289   0.046   9.866   7.006 -0.9082 -0.4448 -0.7485
33309SOL    HW2 4290   0.116   9.732   7.006 -0.6100 -0.2892 -0.8380
33310SOL     OW 4291   4.286   6.528   4.083 -0.1891  0.3508  0.1774
33310SOL    HW1 4292   4.264   6.542   3.991 -0.3511 -1.6319 -0.1240
33310SOL    HW2 4293   4.364   6.582   4.097 -0.1793  0.7132 -1.1211
33311SOL     OW 4294   9.635   0.703   2.096  0.1623  0.4661 -0.1103
33311SOL    HW1 4295   9.714   0.752   2.075  0.0243  0.6357 -0.2430
33311SOL    HW2 4296   9.571   0.769   2.120 -0.0027  0.3485 -0.2164
33312SOL     OW 4297   2.428   3.833   1.323 -0.4786  0.3823 -0.3907
33312SOL    HW1 4298   2.410   3.774   1.250 -0.0760 -0.4349  0.1514
33312SOL    HW2 4299   2.384   3.915   1.300 -2.8596 -0.7787 -0.1697
33313SOL     OW 4300   3.470   1.967   4.000  0.0241  0.0860  0.3728
33313SOL    HW1 4301   3.439   1.989   4.088 -0.1012  1.6191 -0.0321
33313SOL    HW2 4302   3.563   1.951   4.010 -0.0361  0.0068  0.8265
33314SOL     OW 4303   5.756   1.875   2.627  0.1984 -0.1941  0.2041
33314SOL    HW1 4304   5.725   1.891   2.716 -0.5109  2.1755 -0.3945
33314SOL    HW2 4305   5.735   1.783   2.610 -1.8683 -0.0481  1.6457
33315SOL     OW 4306   5.774   8.199   3.444  0.1084  0.0029  0.2007
33315SOL    HW1 4307   5.778   8.130   3.509  0.4472 -0.0967  0.0788
33315SOL    HW2 4308   5.829   8.167   3.372  1.4294  0.9971  0.7191
33316SOL     OW 4309  10.666   6.381   4.797 -0.1829  0.8732 -0.6077
33316SOL    HW1 4310  10.688   6.465   4.837  0.2636  0.9098 -0.9215
33316SOL    HW2 4311  10.680   6.394   4.703  0.3742  0.3120 -0.6119
33317SOL     OW 4312   3.199   1.655   3.829 -0.0747  0.5244  0.0109
33317SOL    HW1 4313   3.204   1.690   3.918 -0.8112 -0.9830  0.6896
33317SOL    HW2 4314   3.202   1.732   3.772  1.8755  1.4418  1.2518
33318SOL     OW 4315   4.828   3.544   2.904  0.1726 -0.2102  0.0925
33318SOL    HW1 4316   4.856   3.456   2.932  0.5848  0.5408  2.1936
33318SOL    HW2 4317   4.894   3.603   2.940  0.3125  0.9510 -1.9195
33319SOL     OW 4318   0.192   8.073  10.245 -0.1910 -0.4016  0.2247
33319SOL    HW1 4319   0.265   8.049  10.302  1.1940  0.9042 -0.8922
33319SOL    HW2 4320   0.231   8.080  10.158 -1.0809  2.6587 -0.0521
33320SOL     OW 4321   6.138   3.593   7.051  0.2667 -0.3122 -0.1168
33320SOL    HW1 4322   6.158   3.505   7.019  0.3079 -0.5145  0.4438
33320SOL    HW2 4323   6.223   3.632   7.071  0.4190  0.7139 -2.4965
33321SOL     OW 4324   4.307   4.730   7.851 -0.0563 -0.3056 -0.0959
33321SOL    HW1 4325   4.261   4.769   7.776  1.7406  1.1374 -0.5351
33321SOL    HW2 4326   4.296   4.795   7.921  1.3973  0.1585 -0.2681
33322SOL     OW 4327   7.849   9.853   1.846  0.0868  0.9441  0.7365
33322SOL    HW1 4328   7.900   9.874   1.924  0.3443  1.6694  0.3796
33322SOL    HW2 4329   7.853   9.757   1.840  0.5274  0.9216  1.3002
33323SOL     OW 4330   1.222   5.479   3.335  0.1794  0.0214  0.0526
33323SOL    HW1 4331   1.274   5.558   3.320  0.3345 -0.2757 -1.0731
33323SOL    HW2 4332   1.261   5.413   3.277  0.0412 -0.8801  0.9589
33324SOL     OW 4333   1.721   9.524  10.990  0.4732 -0.1397  0.0531
33324SOL    HW1 4334   1.633   9.513  10.954 -0.4495 -2.2913  2.5961
33324SOL    HW2 4335   1.731   9.618  11.002 -0.8298  0.2648 -1.6982
33325SOL     OW 4336   4.517   0.213   3.427  0.1056 -0.2234 -0.0222
33325SOL    HW1 4337   4.590   0.183   3.372  0.6855 -0.9545  1.1102
33325SOL    HW2 4338   4.553   0.286   3.477  0.0179 -0.4931  0.4348
33326SOL     OW 4339   3.398   4.339   0.592  0.0993 -0.1554  0.4001
33326SOL    HW1 4340   3.384   4.335   0.498  0.0813  0.0570  0.3920
33326SOL    HW2 4341   3.489   4.366   0.602 -0.1041  0.5280  0.4368
33327SOL     OW 4342   6.828   5.915  10.532 -0.5552 -0.2276 -0.0218
33327SOL    HW1 4343   6.780   5.930  10.450  2.1993 -1.6232 -2.0733
33327SOL    HW2 4344   6.805   5.989  10.588 -1.3492  1.6616 -2.6665
33328SOL     OW 4345   6.437   1.308   5.592 -0.6137  0.2099  0.8688
33328SOL    HW1 4346   6.532   1.310   5.606 -0.4120 -0.0063 -0.3972
33328SOL    HW2 4347   6.425   1.246   5.520 -1.5245  1.7806 -0.3856
33329SOL     OW 4348   8.265   0.570   1.240 -0.3828  0.1860 -0.1882
33329SOL    HW1 4349   8.235   0.545   1.327  1.4680  0.8804  0.6860
33329SOL    HW2 4350   8.274   0.665   1.243  3.0971 -0.0210  0.1033
33330SOL     OW 4351   1.867   1.150   2.376 -0.0550 -0.0686  0.1555
33330SOL    HW1 4352   1.780   1.189   2.386 -0.4339 -0.8664  0.0568
33330SOL    HW2 4353   1.881   1.147   2.281  0.1964  0.2970  0.1781
33331SOL     OW 4354   7.081   7.162   3.558  0.0863  0.2744  0.0658
33331SOL    HW1 4355   7.177   7.158   3.556  0.1171  1.0430 -1.6120
33331SOL    HW2 4356   7.052   7.082   3.515  0.0261  0.7221 -0.7513
33332SOL     OW 4357   0.792   7.206   1.727 -0.1804  0.1220  0.4968
33332SOL    HW1 4358   0.878   7.211   1.770 -0.5976  0.4157  1.3097
33332SOL    HW2 4359   0.734   7.256   1.784 -0.7136  0.6796 -0.5205
33333SOL     OW 4360  10.789   0.574   0.622 -0.0319 -0.4087 -0.6428
33333SOL    HW1 4361  10.817   0.563   0.531  0.4181  0.1134 -0.5721
33333SOL    HW2 4362  10.704   0.618   0.617  1.1381  1.9881 -0.7766
33334SOL     OW 4363   5.895   2.841   5.482  0.2411  0.0334  0.0397
33334SOL    HW1 4364   5.942   2.911   5.527 -0.9689  0.5069  0.6074
33334SOL    HW2 4365   5.866   2.782   5.552  0.3362 -0.4808 -0.3415
33335SOL     OW 4366   2.521   4.055   9.985  0.7006 -0.2113 -0.0876
33335SOL    HW1 4367   2.578   4.113  10.036 -0.1203  0.1740  0.4115
33335SOL    HW2 4368   2.437   4.100   9.983 -0.2109 -1.7516  1.0469
33336SOL     OW 4369   7.663  10.353   8.555  0.7516 -0.1117 -0.0000
33336SOL    HW1 4370   7.686  10.279   8.612  0.0732 -0.2372  0.1115
33336SOL    HW2 4371   7.588  10.323   8.505  2.1112 -0.5000 -1.9435
33337SOL     OW 4372   0.344  10.427   4.703  0.3123  0.1118 -0.5403
33337SOL    HW1 4373   0.326  10.513   4.741  0.8213 -0.2691  0.5978
33337SOL    HW2 4374   0.258  10.385   4.699  0.1242  0.5037 -0.6796
33338SOL     OW 4375   1.888   8.874   5.696 -0.4437  0.7039  0.4190
33338SOL    HW1 4376   1.802   8.910   5.675  0.6901  2.7745 -1.1132
33338SOL    HW2 4377   1.950   8.936   5.656  1.7471 -1.7978 -0.3363
33339SOL     OW 4378   7.996   1.131   7.199  0.3332 -0.1521 -0.1594
33339SOL    HW1 4379   7.957   1.044   7.211 -0.5701  0.4862  2.0769
33339SOL    HW2 4380   7.922   1.191   7.205  0.6987  0.7863 -3.2709
33340SOL     OW 4381   4.625   0.686   1.597 -0.3383  0.4454 -0.0559
33340SOL    HW1 4382   4.562   0.757   1.613 -1.4709 -0.6357  0.5286
33340SOL    HW2 4383   4.703   0.711   1.647 -0.9434  0.9967  0.6362
33341SOL     OW 4384   9.614  11.081   6.300  0.4740 -0.1320  0.2206
33341SOL    HW1 4385   9.567  11.037   6.228 -0.2803 -0.6614  1.0066
33341SOL    HW2 4386   9.697  11.109   6.261  0.9409 -2.1538 -0.3761
33342SOL     OW 4387   3.632  10.618   9.842 -0.8808 -0.3977 -0.1669
33342SOL    HW1 4388   3.630  10.531   9.882 -0.9177  0.1363  1.0424
33342SOL    HW2 4389   3.700  10.612   9.775 -0.2291 -1.1071  0.5262
33343SOL     OW 4390   6.426  10.582   0.455 -0.7131  0.1992 -0.4428
33343SOL    HW1 4391   6.510  10.545   0.482 -0.6735  0.0575 -0.7509
33343SOL    HW2 4392   6.448  10.667   0.418 -0.6422 -0.0583 -1.0008
33344SOL     OW 4393   1.440   6.489   2.807 -0.1939  0.4278 -0.4880
33344SOL    HW1 4394   1.504   6.475   2.878 -0.0905  2.0953 -0.2262
33344SOL    HW2 4395   1.398   6.404   2.797  0.4795 -0.1077  0.9081
33345SOL     OW 4396  10.746   8.934   3.622  0.1233  0.0227  0.3952
33345SOL    HW1 4397  10.687   8.916   3.696  0.6207 -1.5221  0.4473
33345SOL    HW2 4398  10.762   8.848   3.582  0.4415  0.7395 -1.0790
33346SOL     OW 4399   6.273   6.809   4.081  0.3993 -0.0401 -0.1105
33346SOL    HW1 4400   6.225   6.875   4.030  1.2216  1.2079  0.6795
33346SOL    HW2 4401   6.243   6.725   4.046  0.3048  0.7570 -2.0689
33347SOL     OW 4402  10.741   6.907   1.509 -0.2887 -0.2996  0.1509
33347SOL    HW1 4403  10.727   6.891   1.416 -1.3855 -0.5510  0.3394
33347SOL    HW2 4404  10.732   6.821   1.550 -0.9928 -0.0248  0.6026
33348SOL     OW 4405   7.099   9.565   3.364 -0.0155  0.2675  0.2063
33348SOL    HW1 4406   7.163   9.567   3.292 -1.3322 -0.1176 -1.0240
33348SOL    HW2 4407   7.046   9.643   3.351 -1.1410 -0.5214 -0.1028
33349SOL     OW 4408   0.102  10.236   4.339  0.3801 -0.2545  0.1986
33349SOL    HW1 4409   0.100  10.196   4.252  0.4860  0.1067  0.0262
33349SOL    HW2 4410   0.037  10.306   4.334 -0.1805 -0.7319  0.6629
33350SOL     OW 4411   3.038  10.147   0.056 -0.9395  0.6801 -0.0476
33350SOL    HW1 4412   2.983  10.178  -0.016  1.3857 -0.4253 -2.4937
33350SOL    HW2 4413   3.118  10.198   0.048  0.5605 -1.5854 -0.2635
33351SOL     OW 4414   7.736   6.463   8.584 -0.0774  0.3297  0.4219
33351SOL    HW1 4415   7.795   6.523   8.630  1.7895  0.0838 -1.4845
33351SOL    HW2 4416   7.784   6.380   8.580 -2.2106 -1.0703  2.1373
33352SOL     OW 4417  10.270   9.810   5.651  0.4778  0.3423 -0.2033
33352SOL    HW1 4418  10.341   9.758   5.611  0.2860  0.8589 -1.2351
33352SOL    HW2 4419  10.202   9.812   5.584  0.3165  1.5802 -0.0181
33353SOL     OW 4420   9.352   2.688   2.867 -0.5495 -0.5403 -0.0986
33353SOL    HW1 4421   9.410   2.732   2.806 -0.6271 -0.7891 -0.3528
33353SOL    HW2 4422   9.390   2.600   2.878 -0.5627 -0.5151  0.1705
33354SOL     OW 4423   2.180  10.674   8.436 -0.4356 -0.4496  0.2221
33354SOL    HW1 4424   2.158  10.583   8.453 -0.0258 -0.2526  1.8953
33354SOL    HW2 4425   2.273  10.673   8.412 -0.8176 -0.6281 -1.3996
33355SOL     OW 4426   8.701   5.173   7.971 -0.0182 -0.0697 -0.3167
33355SOL    HW1 4427   8.619   5.144   7.932  0.2419 -0.1880 -0.7846
33355SOL    HW2 4428   8.739   5.232   7.906  0.8916 -1.0363 -0.6811
33356SOL     OW 4429   5.221   5.885   5.160 -0.1539  0.1051 -0.2911
33356SOL    HW1 4430   5.236   5.976   5.183 -3.0014  1.2872 -2.5064
33356SOL    HW2 4431   5.161   5.852   5.227  0.7014 -0.1024  0.3850
33357SOL     OW 4432   6.043   5.106  10.527 -0.2031  0.3471  0.3308
33357SOL    HW1 4433   6.130   5.069  10.516 -0.8238 -1.1134  0.0255
33357SOL    HW2 4434   6.010   5.066  10.608 -1.1081 -0.2376 -0.3105
33358SOL     OW 4435   1.400   0.509   1.873  0.1869 -0.4988  0.1072
33358SOL    HW1 4436   1.383   0.422   1.837 -0.2476 -0.5625  0.4508
33358SOL    HW2 4437   1.417   0.564   1.797  2.8752 -1.3633 -0.0259
33359SOL     OW 4438   7.928   8.229   9.263 -0.0880 -0.4682 -0.6408
33359SOL    HW1 4439   7.883   8.312   9.245  0.2798 -0.1495 -0.1255
33359SOL    HW2 4440   8.020   8.254   9.277  0.5780 -1.2534 -3.0761
33360SOL     OW 4441   7.777   4.942   5.309  0.2309 -0.0712 -0.4892
33360SOL    HW1 4442   7.790   4.874   5.243  0.9597 -1.7964  1.2818
33360SOL    HW2 4443   7.751   4.893   5.388  3.3818  1.3061  1.6364
33361SOL     OW 4444   6.469   8.786   5.549 -0.2318 -0.6601  0.0164
33361SOL    HW1 4445   6.414   8.858   5.581 -0.3239 -0.2816 -0.9694
33361SOL    HW2 4446   6.538   8.778   5.615 -0.4359  0.0760  0.3312
33362SOL     OW 4447  10.304   4.802   3.158  0.1755  0.0364  0.4902
33362SOL    HW1 4448  10.384   4.802   3.105 -0.0304  0.5242  0.1703
33362SOL    HW2 4449  10.234   4.826   3.096 -0.2258 -0.4093  0.7598
33363SOL     OW 4450   3.946   2.761  10.834  0.1284  0.3841 -0.4376
33363SOL    HW1 4451   4.008   2.724  10.897 -1.3368 -1.9080 -0.2093
33363SOL    HW2 4452   3.936   2.853  10.860  2.0800  0.3577  0.5617
33364SOL     OW 4453   5.204   0.333   2.450  0.1778  0.2832  0.1705
33364SOL    HW1 4454   5.297   0.330   2.469  0.0715  0.4262  0.7062
33364SOL    HW2 4455   5.161   0.343   2.535 -0.3525 -0.2751 -0.0207
33365SOL     OW 4456   8.878   7.178   3.565 -0.0953  0.4888 -0.0860
33365SOL    HW1 4457   8.870   7.115   3.637  1.9853 -0.4751 -0.6304
33365SOL    HW2 4458   8.935   7.246   3.599 -0.1234  0.6719 -0.4040
33366SOL     OW 4459   5.333   3.663   5.662  0.0316  0.0196 -0.4312
33366SOL    HW1 4460   5.336   3.570   5.685  0.0364 -0.2966 -1.6357
33366SOL    HW2 4461   5.363   3.666   5.571 -0.1912  1.1748 -0.4804
33367SOL     OW 4462   8.459   9.804   0.421  0.3958  0.1471  0.6423
33367SOL    HW1 4463   8.379   9.774   0.379  0.2151  0.3267  0.8566
33367SOL    HW2 4464   8.436   9.889   0.459  0.9084  0.5741  0.0193
33368SOL     OW 4465   4.421   2.991   2.455 -0.3842 -0.4126 -0.0030
33368SOL    HW1 4466   4.380   3.033   2.380  3.0836 -1.1368 -2.5714
33368SOL    HW2 4467   4.419   3.058   2.524 -1.9085  1.0406 -1.3743
33369SOL     OW 4468   7.430   2.624  10.506 -0.4286  0.1619 -0.0108
33369SOL    HW1 4469   7.491   2.698  10.506  0.9937 -0.9712 -1.0829
33369SOL    HW2 4470   7.471   2.559  10.563 -0.2832 -0.8760 -1.2710
33370SOL     OW 4471  10.042   2.120   5.259 -0.7173  0.9119  0.0863
33370SOL    HW1 4472  10.041   2.034   5.215  0.5375 -0.9315  3.3011
33370SOL    HW2 4473   9.972   2.114   5.323 -0.1279  2.0088  0.8537
33371SOL     OW 4474   9.056   8.582   5.268 -0.1904 -0.1812 -0.1245
33371SOL    HW1 4475   8.975   8.629   5.289 -0.5283 -1.0531  0.5721
33371SOL    HW2 4476   9.095   8.561   5.352  1.0458  0.6828 -0.4655
33372SOL     OW 4477   5.901   2.769   9.725 -0.0276 -0.0712  0.1136
33372SOL    HW1 4478   5.905   2.820   9.644 -1.4440  0.5460  0.3911
33372SOL    HW2 4479   5.910   2.834   9.795  1.3532 -0.6181  0.4754
33373SOL     OW 4480  11.049   3.128   3.267 -0.9858  0.1590  0.5274
33373SOL    HW1 4481  11.006   3.042   3.268 -0.4239 -0.1629 -0.7132
33373SOL    HW2 4482  11.027   3.167   3.351 -0.1602 -1.7556  1.7029
33374SOL     OW 4483   1.020   1.159   0.716  0.6899 -0.1452 -0.4689
33374SOL    HW1 4484   1.017   1.069   0.749  0.8015  0.1864  0.4803
33374SOL    HW2 4485   0.928   1.182   0.704  0.4605  0.6389  2.2455
33375SOL     OW 4486   5.985  10.904   0.115  0.1986  0.2402 -0.5622
33375SOL    HW1 4487   6.053  10.907   0.183 -0.1576  0.7238 -0.2148
33375SOL    HW2 4488   5.903  10.914   0.163 -0.0770  0.3009 -1.0381
33376SOL     OW 4489   7.711   8.554  10.360  0.2413 -0.2652  0.4039
33376SOL    HW1 4490   7.720   8.584  10.450  1.9508  0.7228 -0.0592
33376SOL    HW2 4491   7.617   8.548  10.345 -0.0695  0.7248  1.8724
33377SOL     OW 4492   2.153   7.699   4.283  0.2685 -0.0800  0.3381
33377SOL    HW1 4493   2.173   7.736   4.197  2.7328 -3.8254 -0.9374
33377SOL    HW2 4494   2.063   7.666   4.274  0.5859 -0.6621 -0.9105
33378SOL     OW 4495   1.786   7.552  10.056 -0.2593 -0.1889 -0.4793
33378SOL    HW1 4496   1.815   7.635  10.092  0.5432 -0.4136 -0.6019
33378SOL    HW2 4497   1.832   7.485  10.107  1.0614 -0.5062 -2.0323
33379SOL     OW 4498   0.212   2.609   1.038  0.0957 -0.1469  0.1120
33379SOL    HW1 4499   0.287   2.566   1.079 -0.5641 -1.3284  0.1244
33379SOL    HW2 4500   0.147   2.540   1.029 -1.0170  0.8725  0.1473
33380SOL     OW 4501   2.340   5.529   6.277 -0.4118 -0.1137  0.3750
33380SOL    HW1 4502   2.382   5.606   6.238  1.0509  0.7051  3.2895
33380SOL    HW2 4503   2.413   5.473   6.304 -1.4420 -2.7960 -1.9372
33381SOL     OW 4504   2.530   6.692   6.388  0.0502  0.2411 -0.4304
33381SOL    HW1 4505   2.520   6.773   6.438 -0.2690  0.4965 -0.9027
33381SOL    HW2 4506   2.498   6.624   6.447 -2.5625  0.7935 -1.0852
33382SOL     OW 4507   6.104  10.985   9.793 -0.8199  0.0430 -0.4865
33382SOL    HW1 4508   6.036  10.953   9.733 -0.6717 -1.1252 -0.0480
33382SOL    HW2 4509   6.055  11.021   9.867 -0.9756 -1.1125 -0.0091
33383SOL     OW 4510   3.826   8.979   6.793  0.1998 -0.1727  0.0106
33383SOL    HW1 4511   3.796   9.052   6.738 -1.1960 -2.2388 -2.1900
33383SOL    HW2 4512   3.921   8.989   6.797  0.0963  1.4093 -0.7228
33384SOL     OW 4513   5.243   4.782   6.414 -0.1905 -0.6142  0.1002
33384SOL    HW1 4514   5.282   4.739   6.491 -2.0400 -0.3653  1.2499
33384SOL    HW2 4515   5.244   4.715   6.346  1.6308 -0.7953  0.2477
33385SOL     OW 4516   4.051   8.589   8.651  0.0524 -1.1055 -0.1696
33385SOL    HW1 4517   4.099   8.539   8.585 -1.1205 -0.4947 -1.5464
33385SOL    HW2 4518   4.077   8.680   8.636 -1.6740 -0.7210 -1.1442
33386SOL     OW 4519   3.891  10.464   9.675  0.4721 -0.0613  0.6308
33386SOL    HW1 4520   3.900  10.468   9.770 -2.3616  1.6017  0.9676
33386SOL    HW2 4521   3.866  10.553   9.650 -1.2191 -0.9847 -1.3036
33387SOL     OW 4522  10.660   1.321   0.032 -0.6592 -0.5579  0.7349
33387SOL    HW1 4523  10.595   1.391   0.037 -0.6716 -0.5354  0.2496
33387SOL    HW2 4524  10.662   1.296  -0.060  0.3045 -0.3037  0.6849
33388SOL     OW 4525   8.698   1.247   6.617 -0.1988  0.1418 -0.6492
33388SOL    HW1 4526   8.690   1.272   6.525  1.1265 -0.0507 -0.8391
33388SOL    HW2 4527   8.702   1.331   6.664  0.0231  0.2561 -0.8654
33389SOL     OW 4528   7.929   1.018   4.628  0.0392  0.2527  0.5343
33389SOL    HW1 4529   7.961   1.042   4.541  2.4772 -1.0778  0.9715
33389SOL    HW2 4530   7.925   1.100   4.676  0.9570  0.7157 -0.1591
33390SOL     OW 4531   4.422   2.269   9.169  0.2581  0.0423 -0.3070
33390SOL    HW1 4532   4.346   2.328   9.159 -0.0495 -0.2512  0.2535
33390SOL    HW2 4533   4.430   2.257   9.263 -0.5570 -1.9355 -0.4454
33391SOL     OW 4534   0.987   6.488   2.768 -0.3960  0.4247 -0.1184
33391SOL    HW1 4535   1.016   6.398   2.756  1.0343  0.8331  0.0171
33391SOL    HW2 4536   1.068   6.539   2.766 -1.0376  1.5595  1.1617
33392SOL     OW 4537   0.314   6.101   5.195  0.8130 -0.1618  0.2107
33392SOL    HW1 4538   0.338   6.168   5.131  0.3350 -0.3609 -0.1797
33392SOL    HW2 4539   0.382   6.107   5.262  0.9343  0.5223  0.0362
33393SOL     OW 4540   4.435  11.096   5.081 -0.6916 -0.4625  0.0510
33393SOL    HW1 4541   4.414  11.010   5.118  0.4170 -0.1286  1.6049
33393SOL    HW2 4542   4.506  11.079   5.019  0.5672 -0.5602  1.4425
33394SOL     OW 4543   7.338   1.298   7.482 -0.2314  0.0933 -0.1073
33394SOL    HW1 4544   7.367   1.320   7.571 -0.5632  3.3920 -0.6971
33394SOL    HW2 4545   7.254   1.254   7.495 -1.2409  2.2499  1.2193
33395SOL     OW 4546   5.723   8.578   4.179 -0.2128  0.4817  0.0095
33395SOL    HW1 4547   5.786   8.644   4.209  1.7640 -1.6438  0.8307
33395SOL    HW2 4548   5.773   8.525   4.117 -2.2454  0.6924 -1.9362
33396SOL     OW 4549   4.198   9.341   1.659  0.0102 -0.1618 -0.4404
33396SOL    HW1 4550   4.154   9.425   1.645  0.3297  0.0713 -0.0887
33396SOL    HW2 4551   4.173   9.288   1.584 -1.9156 -0.4973  0.4079
33397SOL     OW 4552   5.088   7.865   8.016  0.4192 -0.0470 -0.0311
33397SOL    HW1 4553   5.126   7.938   7.966  1.2499  0.1282  0.8187
33397SOL    HW2 4554   5.099   7.892   8.108 -0.6763 -0.5559  0.2536
33398SOL     OW 4555   5.003   5.938   1.050  0.0892 -0.1032 -0.1465
33398SOL    HW1 4556   5.016   5.990   1.129 -1.4213 -1.2837  0.9590
33398SOL    HW2 4557   5.018   5.999   0.978  1.6935  0.9650  1.0238
33399SOL     OW 4558   9.852   9.563   5.966 -0.1893 -0.5095  0.0748
33399SOL    HW1 4559   9.781   9.596   5.912  1.0543  0.9257 -0.7695
33399SOL    HW2 4560   9.921   9.541   5.903  0.8307 -0.0030  0.9849
33400SOL     OW 4561   6.493   4.065   5.421 -0.4257 -0.4915 -0.5640
33400SOL    HW1 4562   6.548   4.087   5.345  2.7885 -0.2743  1.6353
33400SOL    HW2 4563   6.442   4.145   5.437 -0.1222 -0.0576 -1.6438
33401SOL     OW 4564   7.647   6.265  10.979 -0.0758 -0.6156  0.0696
33401SOL    HW1 4565   7.568   6.247  10.928  1.1324 -0.4211 -2.0174
33401SOL    HW2 4566   7.627   6.344  11.028 -0.2119  1.3737 -2.9005
33402SOL     OW 4567   2.995   4.602   3.510 -0.5715  0.2804 -0.3906
33402SOL    HW1 4568   3.066   4.539   3.505 -0.4461  0.4416 -0.6827
33402SOL    HW2 4569   2.946   4.590   3.428 -2.2012 -1.3603  0.7470
33403SOL     OW 4570   0.889   9.272   8.978 -0.6883  0.0998 -0.4846
33403SOL    HW1 4571   0.869   9.233   8.893  0.6031  0.5129 -1.0016
33403SOL    HW2 4572   0.805   9.300   9.012 -1.3419 -0.9024 -1.2128
33404SOL     OW 4573  10.643   1.746   4.358 -0.0930 -0.1694  0.0410
33404SOL    HW1 4574  10.675   1.662   4.327  0.5612 -0.3773  1.2127
33404SOL    HW2 4575  10.714   1.780   4.413 -1.5279 -0.2713  2.0898
33405SOL     OW 4576  10.449   2.196   6.497 -0.2505  0.1608  0.5990
33405SOL    HW1 4577  10.353   2.196   6.501 -0.2879 -0.9202 -0.0267
33405SOL    HW2 4578  10.470   2.275   6.447 -0.8147  0.4258  0.7700
33406SOL     OW 4579   3.080   7.536   8.689  0.2443  0.7122 -0.1543
33406SOL    HW1 4580   3.008   7.538   8.626 -1.2377  1.6189  1.4688
33406SOL    HW2 4581   3.044   7.492   8.766  1.7992  0.1792  0.3008
33407SOL     OW 4582   2.704   8.293   0.345 -0.3012 -1.0296 -0.2079
33407SOL    HW1 4583   2.631   8.296   0.406 -0.5915 -2.7180 -0.4285
33407SOL    HW2 4584   2.664   8.280   0.260  0.0965  1.3710 -0.8327
33408SOL     OW 4585   8.679   3.438   0.427 -0.3156 -0.0959 -0.1623
33408SOL    HW1 4586   8.630   3.434   0.509 -0.3911 -0.4029 -0.2231
33408SOL    HW2 4587   8.683   3.348   0.396 -2.4668  0.2516 -1.7620
33409SOL     OW 4588   4.497   1.727   9.522 -0.5803  0.1775 -0.3482
33409SOL    HW1 4589   4.410   1.739   9.483 -1.5215 -0.6910  1.3490
33409SOL    HW2 4590   4.479   1.691   9.609  1.4664  0.7883  0.3760
33410SOL     OW 4591   6.102   4.882   2.840 -0.6174 -0.4387 -0.5725
33410SOL    HW1 4592   6.013   4.858   2.866 -0.6838 -1.2065 -1.4311
33410SOL    HW2 4593   6.152   4.801   2.853  0.1273  0.1876  0.5992
33411SOL     OW 4594  10.670   1.937   1.731 -0.7904  0.2958  0.1623
33411SOL    HW1 4595  10.731   1.865   1.713  0.0644  1.2429 -0.9259
33411SOL    HW2 4596  10.607   1.900   1.792  1.9502 -0.1928  2.9495
33412SOL     OW 4597   4.240  10.866   9.525  0.4107 -0.6146 -0.2294
33412SOL    HW1 4598   4.218  10.923   9.451 -0.2514 -2.0005 -1.1367
33412SOL    HW2 4599   4.219  10.918   9.603 -0.4772  0.2588 -1.0246
33413SOL     OW 4600   8.908   8.100   4.250  0.3269  0.1898  0.7517
33413SOL    HW1 4601   8.941   8.011   4.234  0.4165  0.4300 -0.5513
33413SOL    HW2 4602   8.909   8.141   4.163 -1.1880  0.9616  1.0600
33414SOL     OW 4603   5.995   8.894   2.629  0.5874 -0.4395  0.1947
33414SOL    HW1 4604   6.035   8.897   2.716  0.8636  1.1791  0.0475
33414SOL    HW2 4605   6.057   8.841   2.577  1.1369 -0.2468  0.6366
33415SOL     OW 4606   8.840   1.656   6.076  0.1071 -0.3607  0.1113
33415SOL    HW1 4607   8.822   1.581   6.019 -0.0338  0.5218 -1.0469
33415SOL    HW2 4608   8.935   1.653   6.090  0.2896 -0.0957 -0.9288
33416SOL     OW 4609   9.300  10.417   8.666  0.1979  0.4531  0.8567
33416SOL    HW1 4610   9.384  10.378   8.691  0.4837  1.0413  0.8136
33416SOL    HW2 4611   9.286  10.488   8.728 -0.2654  0.3735  0.8540
33417SOL     OW 4612   5.698  10.798   7.657  0.6190 -0.3698  0.3232
33417SOL    HW1 4613   5.621  10.837   7.616 -1.2410 -0.8880  3.1202
33417SOL    HW2 4614   5.725  10.729   7.596 -0.3494  0.5902 -1.2606
33418SOL     OW 4615   4.480   6.878   4.335 -0.6673 -0.2285  0.5202
33418SOL    HW1 4616   4.551   6.904   4.277 -1.6680 -2.2149 -1.7161
33418SOL    HW2 4617   4.406   6.933   4.309 -1.0179 -0.8641  0.1679
33419SOL     OW 4618   4.914  10.940   2.265 -0.1003 -0.3449  0.0485
33419SOL    HW1 4619   4.824  10.907   2.264  0.1242 -1.2751 -3.3269
33419SOL    HW2 4620   4.904  11.035   2.267 -1.0093 -0.4244  2.1511
33420SOL     OW 4621   9.130   1.255   3.156  0.2546 -0.9935  0.3661
33420SOL    HW1 4622   9.120   1.227   3.064  1.5963 -1.2627  0.2794
33420SOL    HW2 4623   9.225   1.259   3.169  0.0765 -0.9414  1.7429
33421SOL     OW 4624   4.407   3.325   3.169 -0.2066  0.5620  0.4616
33421SOL    HW1 4625   4.435   3.332   3.078  0.1817  2.5589  0.6775
33421SOL    HW2 4626   4.312   3.313   3.164 -0.1211  0.1372 -0.2077
33422SOL     OW 4627   5.288   5.613   3.608  0.5811  0.0527  0.5907
33422SOL    HW1 4628   5.327   5.668   3.676 -1.1583 -0.1061  1.7785
33422SOL    HW2 4629   5.266   5.532   3.652 -0.2717 -0.1908 -0.2464
33423SOL     OW 4630  10.879   8.067   5.296 -0.0639  0.0525 -0.2736
33423SOL    HW1 4631  10.847   8.157   5.290  1.3489  0.4905 -2.3613
33423SOL    HW2 4632  10.967   8.070   5.259 -0.5111 -2.4341 -1.7547
33424SOL     OW 4633   0.119   4.649   8.209  0.0318  0.6665  0.3198
33424SOL    HW1 4634   0.195   4.639   8.267  0.1896  0.2312  0.0440
33424SOL    HW2 4635   0.086   4.560   8.197 -2.6924  1.0983  3.2600
33425SOL     OW 4636   1.852   6.101   0.801  0.1677  0.0401  0.0103
33425SOL    HW1 4637   1.879   6.161   0.731  2.3119 -0.1320  0.6207
33425SOL    HW2 4638   1.896   6.135   0.880  0.5931 -1.7251  0.5791
33426SOL     OW 4639   9.765   0.950   6.077  0.2374  0.4128 -0.3297
33426SOL    HW1 4640   9.789   0.946   6.170 -1.6393 -0.3166  0.1756
33426SOL    HW2 4641   9.797   0.867   6.041  1.0018  0.7129 -0.3546
33427SOL     OW 4642   8.948   3.833   5.703 -0.3655  0.0032  0.3488
33427SOL    HW1 4643   8.868   3.884   5.710 -1.3970 -1.5397  0.1935
33427SOL    HW2 4644   8.956   3.789   5.788  0.7920  0.7880  0.6708
33428SOL     OW 4645   9.688   4.504   4.693  0.2074 -0.2550  0.6156
33428SOL    HW1 4646   9.607   4.454   4.704  1.1168 -2.1172 -0.6342
33428SOL    HW2 4647   9.757   4.439   4.698  1.5632  1.1051  0.3436
33429SOL     OW 4648   3.131   1.229   8.610  0.3434  1.0054  0.5557
33429SOL    HW1 4649   3.102   1.312   8.570 -1.7532 -1.1290 -2.8801
33429SOL    HW2 4650   3.181   1.186   8.541  0.1126 -1.2315  1.7130
33430SOL     OW 4651  10.028   4.093   0.015 -0.3036 -0.1465  0.2611
33430SOL    HW1 4652  10.069   4.020   0.061  1.3426  0.5628 -0.0012
33430SOL    HW2 4653   9.941   4.062  -0.008 -0.2586 -1.3963  1.6631
33431SOL     OW 4654   9.923   8.219   9.905 -0.3324 -0.3684  0.7521
33431SOL    HW1 4655   9.986   8.238   9.836  0.2079 -1.8346  0.8106
33431SOL    HW2 4656   9.902   8.127   9.894 -3.6080  0.3636 -0.1668
33432SOL     OW 4657   7.085   7.761   5.322  0.3367 -0.0953 -0.2773
33432SOL    HW1 4658   7.178   7.739   5.314  0.0485 -0.7579 -2.2811
33432SOL    HW2 4659   7.081   7.821   5.396  2.1793 -1.0516  0.6590
33433SOL     OW 4660   1.671   0.774   0.598 -0.2265 -0.1699  0.5187
33433SOL    HW1 4661   1.712   0.746   0.680 -3.5754 -1.9593  1.8053
33433SOL    HW2 4662   1.688   0.703   0.537  0.4167  0.1363  0.3348
33434SOL     OW 4663   1.884   6.839   2.285  0.0064  0.3656  0.5259
33434SOL    HW1 4664   1.834   6.826   2.204  2.5696 -2.6073 -0.7936
33434SOL    HW2 4665   1.828   6.804   2.354 -1.3414  0.9412 -0.2250
33435SOL     OW 4666   3.380  10.607   6.621 -0.2893 -0.7177  0.0115
33435SOL    HW1 4667   3.364  10.619   6.715 -1.6326 -0.9825 -0.1577
33435SOL    HW2 4668   3.420  10.689   6.593 -2.3484  0.4802  0.3275
33436SOL     OW 4669  10.471   3.631  10.254 -0.3231  0.0277 -0.5850
33436SOL    HW1 4670  10.398   3.573  10.234 -0.4093  0.7290 -2.4476
33436SOL    HW2 4671  10.548   3.586  10.218 -0.2904  0.6944 -1.3810
33437SOL     OW 4672  10.102   1.436   4.135 -0.0171  0.2011  0.1311
33437SOL    HW1 4673  10.069   1.522   4.162 -1.1312 -0.1901  0.0674
33437SOL    HW2 4674  10.196   1.441   4.151 -0.2140  1.0609  1.1407
33438SOL     OW 4675   7.027   4.440   1.778 -0.0663  0.3621 -0.2692
33438SOL    HW1 4676   6.980   4.523   1.784 -0.9970 -0.1472 -0.4687
33438SOL    HW2 4677   6.959   4.373   1.781  0.4765 -0.3519 -2.3139
33439SOL     OW 4678   8.405   5.700   6.023 -0.1289 -0.1343  0.1964
33439SOL    HW1 4679   8.360   5.785   6.029  0.5237  0.1423  1.7764
33439SOL    HW2 4680   8.345   5.644   5.974 -0.3244  1.3828 -1.3880
33440SOL     OW 4681   0.195   8.845   1.474 -0.4028 -0.2497 -0.1869
33440SOL    HW1 4682   0.176   8.936   1.496 -0.0494 -0.3763  0.6624
33440SOL    HW2 4683   0.244   8.851   1.392 -2.2618  0.1849 -1.3249
33441SOL     OW 4684   2.379  10.031   5.349  0.1373 -0.0002  0.2698
33441SOL    HW1 4685   2.395  10.102   5.411 -0.6237  0.7591 -0.3772
33441SOL    HW2 4686   2.286  10.038   5.328  0.1260 -0.9834 -0.0666
33442SOL     OW 4687   7.096   1.289   2.874 -0.4055  0.7758 -0.3346
33442SOL    HW1 4688   7.046   1.360   2.914 -0.3560  0.4529  0.3170
33442SOL    HW2 4689   7.172   1.332   2.834  0.3501  0.9490  1.2366
33443SOL     OW 4690   5.880  10.432   0.706  0.5996 -0.5997  0.2815
33443SOL    HW1 4691   5.801  10.380   0.690  0.6771 -0.5890 -0.1420
33443SOL    HW2 4692   5.950  10.382   0.664  1.2236 -1.7986  2.5820
33444SOL     OW 4693   3.560   0.415   7.053  0.5477 -0.5282  0.2895
33444SOL    HW1 4694   3.638   0.428   6.999  0.9709  0.1772  1.0593
33444SOL    HW2 4695   3.583   0.449   7.139 -0.8195  0.2648  0.3760
33445SOL     OW 4696   1.567   7.319   6.295 -0.0912 -0.6367 -1.3482
33445SOL    HW1 4697   1.476   7.311   6.322 -0.2012 -1.8111 -1.9957
33445SOL    HW2 4698   1.614   7.339   6.376 -0.9942  0.7381 -1.1340
33446SOL     OW 4699  10.574  10.657   5.673 -0.0821 -0.3270  0.1781
33446SOL    HW1 4700  10.485  10.654   5.710 -0.7422  1.2939 -1.1622
33446SOL    HW2 4701  10.584  10.573   5.628  0.6538 -2.2914  3.5968
33447SOL     OW 4702   9.445  10.569   8.436  0.7243 -0.3336 -0.2293
33447SOL    HW1 4703   9.401  10.557   8.520  2.3587 -1.5764  0.5041
33447SOL    HW2 4704   9.449  10.664   8.425  0.6896 -0.1407  1.2131
33448SOL     OW 4705   6.055   4.621   8.446  0.2769 -0.7889 -0.1906
33448SOL    HW1 4706   6.035   4.699   8.498  2.0113  0.6395 -1.5375
33448SOL    HW2 4707   6.125   4.649   8.387 -1.0796 -2.5087 -2.8172
33449SOL     OW 4708   7.171  10.449   8.144 -0.2461  0.1020  0.1150
33449SOL    HW1 4709   7.118  10.429   8.067 -0.5381  2.9047 -0.5240
33449SOL    HW2 4710   7.259  10.467   8.109 -0.3808  1.4017  0.3806
33450SOL     OW 4711   7.515   5.677   5.328  0.2113  0.1271  0.0331
33450SOL    HW1 4712   7.595   5.702   5.374 -1.6175  2.9015  2.0073
33450SOL    HW2 4713   7.484   5.600   5.375  0.6128  0.3244  0.6381
33451SOL     OW 4714   3.006   5.213   8.426  0.3881 -0.3745  0.0203
33451SOL    HW1 4715   2.930   5.155   8.423  0.4040 -0.4873  1.3569
33451SOL    HW2 4716   2.994   5.272   8.352  0.4596 -2.1633 -1.5079
33452SOL     OW 4717   7.995   3.051   8.199 -0.2538 -0.5389  0.9234
33452SOL    HW1 4718   7.936   3.122   8.174  1.0688  0.2041 -0.2625
33452SOL    HW2 4719   7.938   2.984   8.237 -2.0498 -0.3924 -1.2859
33453SOL     OW 4720   4.375   3.188   3.655 -0.5543 -0.0947 -0.1085
33453SOL    HW1 4721   4.344   3.098   3.660 -0.2520 -0.1981 -0.0965
33453SOL    HW2 4722   4.315   3.231   3.594 -0.8393 -0.2445  0.0677
33454SOL     OW 4723   3.528   5.961   2.501  0.1285  0.3685 -0.3311
33454SOL    HW1 4724   3.494   5.907   2.571 -0.7591 -0.3180 -1.2736
33454SOL    HW2 4725   3.509   6.051   2.529 -1.4217  0.0514 -0.3007
33455SOL     OW 4726  10.290   8.417   2.640 -0.0185 -0.4831 -0.0231
33455SOL    HW1 4727  10.285   8.511   2.627 -0.5166 -0.7481 -2.0985
33455SOL    HW2 4728  10.377   8.403   2.679  0.7409  0.6989 -1.2000
33456SOL     OW 4729   9.232   3.888   0.411  0.3071  0.2081  0.0118
33456SOL    HW1 4730   9.303   3.851   0.463 -0.9891 -1.4523  0.6962
33456SOL    HW2 4731   9.196   3.958   0.465 -0.1796 -0.6255  0.7805
33457SOL     OW 4732   6.903   9.358   0.975 -0.2183 -0.1256 -0.2562
33457SOL    HW1 4733   6.847   9.365   0.897  0.0260 -0.0615 -0.4271
33457SOL    HW2 4734   6.844   9.330   1.044 -0.5758  0.4414 -0.3179
33458SOL     OW 4735   2.040  10.332   8.731  0.1320  0.0587 -0.3156
33458SOL    HW1 4736   1.958  10.354   8.686  0.8204  1.9262 -0.7794
33458SOL    HW2 4737   2.014  10.273   8.801 -1.7333  1.1307 -0.0231
33459SOL     OW 4738   9.428   0.629   9.785 -0.0815  0.5909 -0.2261
33459SOL    HW1 4739   9.356   0.687   9.758 -1.5377 -1.0087  0.0641
33459SOL    HW2 4740   9.387   0.543   9.796  1.8290 -0.3080  0.2902
33460SOL     OW 4741   2.355   9.147   9.181 -0.1623  0.0606  0.1505
33460SOL    HW1 4742   2.448   9.127   9.178 -0.2365 -0.2059 -0.6757
33460SOL    HW2 4743   2.316   9.072   9.226 -0.4927 -2.0647 -3.3189
33461SOL     OW 4744   5.370   7.349  10.759  0.2191  0.2875 -0.2087
33461SOL    HW1 4745   5.458   7.317  10.739 -0.5173 -0.3632 -2.8805
33461SOL    HW2 4746   5.312   7.279  10.728 -1.2957 -0.0269  2.9327
33462SOL     OW 4747  10.229  10.323   4.502 -0.3947 -0.1434 -0.8020
33462SOL    HW1 4748  10.214  10.233   4.473 -1.0734 -0.2892 -0.0322
33462SOL    HW2 4749  10.305  10.318   4.559 -0.4370 -0.2323 -0.7527
33463SOL     OW 4750  11.080   1.898   3.326 -0.4488 -0.5206  0.2879
33463SOL    HW1 4751  11.167   1.892   3.285 -0.1377  1.2851  0.6165
33463SOL    HW2 4752  11.092   1.855   3.411 -0.1713 -1.2044 -0.0832
33464SOL     OW 4753   7.031   5.054   3.961 -0.5830  0.1125  0.5565
33464SOL    HW1 4754   6.995   5.082   4.046  0.2315  3.8112 -0.1769
33464SOL    HW2 4755   6.956   5.058   3.901 -0.4007  1.2446  0.3817
33465SOL     OW 4756   3.763   4.322  11.016 -0.2281 -0.3023  0.0043
33465SOL    HW1 4757   3.757   4.402  10.963  0.8332 -1.1606 -1.4930
33465SOL    HW2 4758   3.775   4.354  11.105 -2.7221  1.1955 -0.1167
33466SOL     OW 4759   8.863   4.686   1.452 -1.0443  0.2162 -0.4159
33466SOL    HW1 4760   8.866   4.767   1.501  2.0986  1.2791 -2.0890
33466SOL    HW2 4761   8.799   4.702   1.382 -1.4848  0.6688  0.0792
33467SOL     OW 4762   4.832   5.235   3.992 -0.0853 -0.7459  0.3657
33467SOL    HW1 4763   4.744   5.242   3.954  0.0541  0.8945  0.2854
33467SOL    HW2 4764   4.876   5.315   3.965  1.3363 -1.3753  0.7134
33468SOL     OW 4765   7.720   6.036   3.954 -0.1301 -0.7614 -0.1668
33468SOL    HW1 4766   7.673   6.051   4.036 -1.4770 -1.2975 -0.8157
33468SOL    HW2 4767   7.788   6.103   3.953 -1.5380  0.7471  0.3318
33469SOL     OW 4768   0.855  10.087   7.300 -0.3498  0.2027  0.2217
33469SOL    HW1 4769   0.843  10.127   7.214 -0.4837 -1.5385 -0.6288
33469SOL    HW2 4770   0.949  10.078   7.310 -0.2492  1.7041  0.9364
33470SOL     OW 4771   2.694  11.047   8.707  0.8260 -0.0460 -0.8882
33470SOL    HW1 4772   2.740  11.017   8.628  0.4343  0.3434 -1.2703
33470SOL    HW2 4773   2.672  10.967   8.754 -1.2350 -0.5079 -2.4615
33471SOL     OW 4774   9.326  10.508   6.211 -0.0149 -0.0078 -0.8993
33471SOL    HW1 4775   9.260  10.521   6.143 -0.1785  0.3247 -0.6768
33471SOL    HW2 4776   9.390  10.578   6.197  1.5172 -1.6389 -2.5431
33472SOL     OW 4777  10.418   4.169  10.937  0.0556  0.6044 -0.3873
33472SOL    HW1 4778  10.349   4.235  10.940 -0.3315  0.1934 -0.3137
33472SOL    HW2 4779  10.402   4.113  11.012  1.3809  1.4025  0.5458
33473SOL     OW 4780   7.413   5.175  10.103  0.3405  0.1290 -0.4258
33473SOL    HW1 4781   7.404   5.203  10.012  0.3864  0.7483 -0.2430
33473SOL    HW2 4782   7.325   5.188  10.140  0.6817  1.3032  0.0066
33474SOL     OW 4783   0.313   4.152   9.367 -0.1321 -0.1196 -0.4112
33474SOL    HW1 4784   0.297   4.247   9.373 -0.9318 -0.2605 -0.2158
33474SOL    HW2 4785   0.399   4.140   9.408 -0.1144  0.4978 -0.2498
33475SOL     OW 4786   0.820   1.874   0.048  0.7914 -1.3144  0.4823
33475SOL    HW1 4787   0.881   1.850  -0.021  1.0422 -1.4515  0.7506
33475SOL    HW2 4788   0.823   1.970   0.051  0.6312 -1.2999  0.1692
33476SOL     OW 4789   1.874   0.735   6.919  0.0892 -0.2457 -0.8209
33476SOL    HW1 4790   1.862   0.733   6.824 -2.5030 -0.1858 -0.5424
33476SOL    HW2 4791   1.912   0.650   6.940 -0.9797 -0.9754 -1.7403
33477SOL     OW 4792  10.265   3.114   2.477  0.3025  0.1708  0.0173
33477SOL    HW1 4793  10.338   3.157   2.522 -0.8797  1.3101  0.9069
33477SOL    HW2 4794  10.283   3.128   2.384  0.8667  1.0276  0.2445
33478SOL     OW 4795  10.721   0.033   4.409  0.2221  0.3487 -0.3340
33478SOL    HW1 4796  10.656   0.013   4.476 -0.2426  0.4441 -0.7462
33478SOL    HW2 4797  10.769   0.108   4.444 -0.5510  0.9124 -0.4534
33479SOL     OW 4798   3.165   7.097   1.479 -0.3698  0.8492  0.1793
33479SOL    HW1 4799   3.112   7.070   1.404  1.2501  0.7662 -0.9843
33479SOL    HW2 4800   3.218   7.020   1.500 -0.6942  0.9212  1.3382
33480SOL     OW 4801   0.252   4.137   0.686 -0.0662  0.3087 -0.3929
33480SOL    HW1 4802   0.159   4.142   0.707  0.2026  1.8571  0.5972
33480SOL    HW2 4803   0.281   4.053   0.723  0.1489  2.3540  4.9179
33481SOL     OW 4804   8.062   1.566   8.588  0.2241  0.1894 -0.0502
33481SOL    HW1 4805   8.086   1.628   8.657  0.4489 -0.0530  0.0917
33481SOL    HW2 4806   8.128   1.497   8.594 -2.0200 -1.9682  2.2012
33482SOL     OW 4807   9.526   3.712   4.281  0.2193 -0.5930  0.3692
33482SOL    HW1 4808   9.531   3.619   4.257  0.5636 -0.4656 -0.0786
33482SOL    HW2 4809   9.551   3.758   4.201  1.1068 -0.1456  0.8857
33483SOL     OW 4810   4.547   6.629   8.045  0.3435  0.1398  0.6314
33483SOL    HW1 4811   4.606   6.699   8.074  0.6538  0.5239 -0.8402
33483SOL    HW2 4812   4.465   6.674   8.026  0.1732 -0.0891  0.8218
33484SOL     OW 4813   7.730   1.749  10.552  0.8813 -0.5697 -0.3528
33484SOL    HW1 4814   7.751   1.783  10.465 -0.2225 -0.8634 -0.7451
33484SOL    HW2 4815   7.776   1.665  10.556  2.1867  0.1244 -0.0442
33485SOL     OW 4816   1.034   4.899   9.128 -0.3244 -0.0128 -0.3684
33485SOL    HW1 4817   1.028   4.936   9.040 -0.2692  1.0187  0.0581
33485SOL    HW2 4818   1.096   4.956   9.174 -0.0303 -0.7873  0.2230
33486SOL     OW 4819   3.003   8.898   4.861  0.6750  0.2152 -0.0800
33486SOL    HW1 4820   3.085   8.850   4.846  0.9708  0.1786  1.4650
33486SOL    HW2 4821   2.975   8.925   4.773  0.6775 -2.4422 -0.9920
33487SOL     OW 4822   4.931   6.520   0.782 -0.5244 -0.4778  0.0721
33487SOL    HW1 4823   4.839   6.514   0.807 -0.9852  0.4672 -1.2587
33487SOL    HW2 4824   4.944   6.449   0.720 -0.3127 -0.7042  0.3742
33488SOL     OW 4825  10.058  10.015   2.073  0.2023 -0.4190  0.4069
33488SOL    HW1 4826  10.096   9.935   2.108 -1.5879 -0.9757  1.2029
33488SOL    HW2 4827  10.106  10.086   2.117  0.7378 -1.0693  0.8856
33489SOL     OW 4828   2.663   8.307   9.957  0.1961  0.2070 -0.1533
33489SOL    HW1 4829   2.674   8.329  10.049 -1.6075 -0.1425  0.1779
33489SOL    HW2 4830   2.617   8.223   9.957  0.8757 -0.1979 -1.3841
33490SOL     OW 4831   7.055   0.675   9.263  0.2361 -0.2941  0.4676
33490SOL    HW1 4832   7.016   0.761   9.250  0.6402 -0.2045 -0.2168
33490SOL    HW2 4833   7.021   0.623   9.189  2.0777  0.0299 -0.6756
33491SOL     OW 4834   3.636   9.831   0.910 -0.1158 -0.1278 -0.3982
33491SOL    HW1 4835   3.605   9.741   0.899 -1.8498  0.1454  1.5943
33491SOL    HW2 4836   3.597   9.879   0.836  0.2249 -0.8471 -1.0577
33492SOL     OW 4837   3.482   1.837   7.450 -0.9569  0.0529  0.4984
33492SOL    HW1 4838   3.576   1.846   7.466 -0.8666  1.3927 -0.5782
33492SOL    HW2 4839   3.444   1.828   7.537  0.0472  0.8476  1.0490
33493SOL     OW 4840   6.371   6.593   0.921 -0.0816 -0.4432 -0.1585
33493SOL    HW1 4841   6.330   6.512   0.889 -0.0234 -0.6358  0.2493
33493SOL    HW2 4842   6.465   6.578   0.913 -0.0818  0.0991 -1.3403
33494SOL     OW 4843   6.605   5.309   9.631 -0.2696 -0.6890  0.4092
33494SOL    HW1 4844   6.593   5.250   9.558 -0.3483 -0.9082  0.5988
33494SOL    HW2 4845   6.583   5.257   9.708  1.0841 -0.8700  0.7020
33495SOL     OW 4846   8.205   4.465   2.546  0.0760  0.6765 -0.0976
33495SOL    HW1 4847   8.159   4.522   2.484 -2.0636  0.5492  1.2704
33495SOL    HW2 4848   8.136   4.413   2.587  1.1391  1.8039  3.4960
33496SOL     OW 4849   4.671   0.398   9.013  0.3858  0.4375 -0.2041
33496SOL    HW1 4850   4.716   0.315   9.032  0.6450  0.5698 -0.2356
33496SOL    HW2 4851   4.633   0.385   8.926  1.0136  0.5978 -0.5085
33497SOL     OW 4852   1.940   8.344   6.064 -0.9622 -0.0770  0.0628
33497SOL    HW1 4853   2.019   8.355   6.117 -1.2109  0.2699  0.3613
33497SOL    HW2 4854   1.868   8.349   6.127 -1.1964 -1.1315 -0.1004
33498SOL     OW 4855  10.638   7.696   5.438  0.0896  0.1773  0.3001
33498SOL    HW1 4856  10.605   7.624   5.385  0.4028  1.2795 -1.4919
33498SOL    HW2 4857  10.577   7.703   5.511 -1.7873  0.1041 -1.1909
33499SOL     OW 4858   0.532   4.666   2.306 -0.4367 -0.3363  0.3028
33499SOL    HW1 4859   0.586   4.721   2.249 -1.6800 -1.0064 -1.6643
33499SOL    HW2 4860   0.442   4.682   2.276 -0.9241 -2.7007  0.2556
33500SOL     OW 4861   5.617   9.507   9.282 -0.3013  0.0119  0.6182
33500SOL    HW1 4862   5.643   9.445   9.350 -0.3445  0.9581  1.5352
33500SOL    HW2 4863   5.591   9.453   9.208  0.5553 -1.0371  1.0517
33501SOL     OW 4864   3.958  10.193   4.876  0.3550  0.0165  0.5925
33501SOL    HW1 4865   3.970  10.278   4.918  1.6942 -0.1204  0.5192
33501SOL    HW2 4866   3.877  10.159   4.914 -1.5931  2.3210 -1.1167
33502SOL     OW 4867   9.080   1.886   0.838 -0.0955 -0.4802 -0.0353
33502SOL    HW1 4868   9.102   1.882   0.745  2.7737  1.5325  0.4423
33502SOL    HW2 4869   9.117   1.969   0.869 -0.0551 -1.5220  3.1115
33503SOL     OW 4870   7.579   9.973   5.688 -0.3560 -0.2679  0.2896
33503SOL    HW1 4871   7.590  10.066   5.669 -1.5619 -0.6394 -2.8891
33503SOL    HW2 4872   7.485   9.960   5.693 -0.2933 -1.5766 -1.1999
33504SOL     OW 4873   4.622   6.315  10.496  0.0431  0.2522 -0.2520
33504SOL    HW1 4874   4.571   6.253  10.548 -0.1215  1.2167  0.7751
33504SOL    HW2 4875   4.705   6.269  10.479 -0.1699 -0.3393  0.2716
33505SOL     OW 4876   8.016   8.426   3.097  0.0568  0.4310  0.3381
33505SOL    HW1 4877   8.003   8.441   3.191 -0.0189  0.9019  0.2557
33505SOL    HW2 4878   8.110   8.406   3.090  1.3115  5.1537  0.0024
33506SOL     OW 4879   1.601   3.313   3.940 -0.1300 -0.2888 -0.0547
33506SOL    HW1 4880   1.567   3.264   4.015 -1.3290 -1.8499 -1.5305
33506SOL    HW2 4881   1.558   3.274   3.864  0.2190  1.9174 -1.5050
33507SOL     OW 4882   4.232   1.110   1.806 -0.1087 -0.1848 -0.1922
33507SOL    HW1 4883   4.276   1.033   1.770 -2.2645 -1.4809 -0.2199
33507SOL    HW2 4884   4.271   1.122   1.893  2.0632  0.3333 -1.1609
33508SOL     OW 4885   1.387   9.048   0.694 -0.0397  0.7865  0.0308
33508SOL    HW1 4886   1.482   9.038   0.699  0.3792  3.4242 -1.0325
33508SOL    HW2 4887   1.366   9.109   0.765 -0.7744  1.0459 -0.3988
33509SOL     OW 4888   2.031   8.973   2.085  0.3486 -0.3970  0.4280
33509SOL    HW1 4889   2.066   8.936   2.004  0.6203  0.1492  0.2901
33509SOL    HW2 4890   2.107   9.010   2.129 -0.1413  1.7015 -0.3476
33510SOL     OW 4891   4.793   1.272   4.388  0.1228 -0.1350  0.5349
33510SOL    HW1 4892   4.879   1.273   4.347 -0.7185 -0.9164 -1.3479
33510SOL    HW2 4893   4.752   1.355   4.363 -0.4167 -0.6391 -0.2832
33511SOL     OW 4894   3.414   0.706   8.266 -0.4273  0.3757 -0.6697
33511SOL    HW1 4895   3.480   0.761   8.223 -0.9237  0.2961 -1.5508
33511SOL    HW2 4896   3.417   0.623   8.218 -0.2042 -0.1171  0.1764
33512SOL     OW 4897   3.318   7.441   8.610 -0.1630 -0.0882  0.0302
33512SOL    HW1 4898   3.340   7.430   8.702 -0.4616 -3.1105 -0.1516
33512SOL    HW2 4899   3.231   7.480   8.610  0.4299  1.2781  0.9695
33513SOL     OW 4900   5.260   7.390   8.099  0.1385  0.6318 -0.1785
33513SOL    HW1 4901   5.235   7.465   8.044  0.2417  0.3573 -0.6064
33513SOL    HW2 4902   5.318   7.427   8.166 -1.7390  1.3711  1.1250
33514SOL     OW 4903   1.199   6.690   8.237  0.1118 -0.2314 -0.0169
33514SOL    HW1 4904   1.168   6.780   8.229  0.0057 -0.2078  0.6338
33514SOL    HW2 4905   1.198   6.656   8.147 -0.3353  0.2505 -0.1973
33515SOL     OW 4906   8.769   2.568   8.408 -0.0209  0.5424  0.1273
33515SOL    HW1 4907   8.703   2.628   8.374 -0.6163 -0.3129 -0.2429
33515SOL    HW2 4908   8.756   2.487   8.359  0.6569  0.0457  0.7478
33516SOL     OW 4909   5.253   3.024   3.385  0.3161  0.2074  0.0148
33516SOL    HW1 4910   5.302   3.090   3.335  0.4264 -0.2735 -0.5221
33516SOL    HW2 4911   5.175   3.007   3.332 -0.5727  1.1402  0.9762
33517SOL     OW 4912   9.153   0.092   1.082  0.2286  0.5709  0.1660
33517SOL    HW1 4913   9.065   0.112   1.115 -0.0199 -0.2248 -0.0074
33517SOL    HW2 4914   9.208   0.162   1.117 -0.0105 -0.2479  2.2930
33518SOL     OW 4915  10.804  11.062   8.310  0.3388  0.3772 -0.1649
33518SOL    HW1 4916  10.710  11.071   8.325  0.3807  1.3536 -0.4046
33518SOL    HW2 4917  10.822  10.970   8.325 -0.3858  0.4602  1.3817
33519SOL     OW 4918   2.515  10.661   8.993  0.8279 -0.1172  0.1419
33519SOL    HW1 4919   2.436  10.615   8.963  0.8201  0.7104 -1.1957
33519SOL    HW2 4920   2.519  10.642   9.087 -1.6312  0.7581  0.5218
33520SOL     OW 4921   2.582   1.555   2.112 -0.2138 -0.5057  0.2891
33520SOL    HW1 4922   2.588   1.650   2.126  2.7313 -0.8530  2.4127
33520SOL    HW2 4923   2.571   1.519   2.200 -3.2785 -2.1628 -0.6437
33521SOL     OW 4924   0.874   1.125   4.589  1.1180  0.2197  0.5708
33521SOL    HW1 4925   0.927   1.100   4.513 -1.6804 -0.4020 -1.3180
33521SOL    HW2 4926   0.831   1.206   4.563  0.2224  0.0783  1.5354
33522SOL     OW 4927   7.910   1.752   2.452 -0.2710 -0.0029 -0.3329
33522SOL    HW1 4928   7.992   1.754   2.501 -0.5029  1.1951  0.0282
33522SOL    HW2 4929   7.892   1.843   2.431 -2.0823 -0.0942  0.5756
33523SOL     OW 4930   8.599   4.674   6.897  0.1192 -0.1324  0.2214
33523SOL    HW1 4931   8.600   4.752   6.842 -1.6449 -0.2063  0.0195
33523SOL    HW2 4932   8.508   4.643   6.892  0.9979 -2.8117 -0.5657
33524SOL     OW 4933   2.558   4.911   9.690  0.6121  0.3003 -0.1799
33524SOL    HW1 4934   2.600   4.922   9.605  1.1529  0.2328  0.0782
33524SOL    HW2 4935   2.570   4.996   9.733 -0.4152  0.6280 -0.4952
33525SOL     OW 4936   3.865   9.152   3.530 -0.9822 -0.1253 -0.2985
33525SOL    HW1 4937   3.925   9.157   3.456  0.5399  0.4222  0.9197
33525SOL    HW2 4938   3.915   9.108   3.599 -1.5043  1.4517  1.1589
33526SOL     OW 4939   6.365   8.692   3.220 -0.0754 -0.2201  0.3843
33526SOL    HW1 4940   6.435   8.635   3.188  0.8673 -0.2764  2.3887
33526SOL    HW2 4941   6.402   8.780   3.214 -0.0908 -0.1839  0.8063
33527SOL     OW 4942   5.335   3.308   8.725 -0.2891 -0.1156 -0.2712
33527SOL    HW1 4943   5.356   3.383   8.780  2.2785 -0.3176 -0.8531
33527SOL    HW2 4944   5.283   3.345   8.653  0.8169  1.1348 -0.4761
33528SOL     OW 4945  10.964   8.709   4.150  0.2068  0.1469 -0.0941
33528SOL    HW1 4946  10.992   8.783   4.205 -1.3855 -0.1867  1.2330
33528SOL    HW2 4947  11.040   8.650   4.149  1.2126  1.4084 -0.5125
33529SOL     OW 4948   4.129   8.943   5.951  0.3296 -0.1341 -0.2699
33529SOL    HW1 4949   4.064   9.013   5.941  0.2615 -0.2949 -0.9935
33529SOL    HW2 4950   4.146   8.913   5.862 -2.3336 -3.5325  0.1669
33530SOL     OW 4951   2.060   3.195   3.756 -0.4192  0.0741 -0.4784
33530SOL    HW1 4952   2.004   3.225   3.827 -0.0486 -2.7110  1.1803
33530SOL    HW2 4953   2.006   3.200   3.678 -2.5658 -1.1447  0.8275
33531SOL     OW 4954   8.528   9.863   6.629  0.7358 -0.3063  0.3543
33531SOL    HW1 4955   8.451   9.816   6.660  1.4365  0.2944  3.4259
33531SOL    HW2 4956   8.496   9.950   6.605  0.1294 -0.8406 -0.8203
33532SOL     OW 4957   0.029   7.715   6.489  0.0761  0.1761  0.0394
33532SOL    HW1 4958   0.031   7.633   6.538 -2.8076  1.5595  2.7997
33532SOL    HW2 4959   0.112   7.758   6.511  0.6697 -1.0592  0.2786
33533SOL     OW 4960   8.570   4.174  10.166 -0.4094 -0.0028  0.2915
33533SOL    HW1 4961   8.576   4.172  10.070  3.5103 -1.0943  0.3899
33533SOL    HW2 4962   8.554   4.083  10.191  0.5796 -0.0828  0.6780
33534SOL     OW 4963   6.042   6.495   7.617 -0.0230  0.2448 -0.0283
33534SOL    HW1 4964   5.974   6.536   7.564 -1.5352 -1.6925  0.2662
33534SOL    HW2 4965   5.996   6.464   7.695  1.4641 -0.0163  0.7886
33535SOL     OW 4966   9.101   4.597   1.554 -0.1233  0.4896  0.4199
33535SOL    HW1 4967   9.178   4.638   1.516 -0.4926 -0.4982 -1.4932
33535SOL    HW2 4968   9.027   4.640   1.513 -0.5620  0.0089  0.6913
33536SOL     OW 4969   9.628   1.118   6.572  0.0938  0.3711 -0.0890
33536SOL    HW1 4970   9.638   1.197   6.520  2.0499 -0.6892 -1.4352
33536SOL    HW2 4971   9.654   1.143   6.660  0.2707  1.3072 -0.4020
33537SOL     OW 4972  10.112   9.195   8.850 -0.2287 -0.2885 -0.1243
33537SOL    HW1 4973  10.202   9.183   8.821 -0.5476  0.9157 -1.7346
33537SOL    HW2 4974  10.067   9.113   8.828  0.2414 -0.5262 -0.1934
33538SOL     OW 4975   6.751   7.720   6.219 -0.1909  0.1411  0.4329
33538SOL    HW1 4976   6.693   7.726   6.295  0.5813 -0.0043  1.0482
33538SOL    HW2 4977   6.693   7.725   6.143 -0.9133  0.9012  1.0298
33539SOL     OW 4978   8.343  10.411   1.102  0.1495 -0.3699  0.0480
33539SOL    HW1 4979   8.424  10.445   1.140  0.6139 -2.1968  0.7720
33539SOL    HW2 4980   8.354  10.424   1.008  0.3847  1.2342  0.2546
33540SOL     OW 4981   9.491   1.693   1.943 -0.2789 -0.1871 -0.0272
33540SOL    HW1 4982   9.502   1.597   1.944 -0.4153 -0.2993 -2.6708
33540SOL    HW2 4983   9.410   1.708   1.991 -0.6713 -1.4835 -0.2320
33541SOL     OW 4984   1.102   8.470   5.179 -0.2320 -0.3380 -0.3427
33541SOL    HW1 4985   1.031   8.410   5.203  0.2300 -0.8091 -0.1458
33541SOL    HW2 4986   1.061   8.557   5.182  0.4691  0.2756  5.9916
33542SOL     OW 4987   5.143   0.943   2.175  0.3211  0.0245  0.0178
33542SOL    HW1 4988   5.085   0.876   2.211  1.3315 -1.0026 -0.2014
33542SOL    HW2 4989   5.132   1.019   2.232 -1.6926  0.0824 -0.3862
33543SOL     OW 4990   3.879   0.320   8.083 -0.2811 -0.1847 -0.3487
33543SOL    HW1 4991   3.926   0.375   8.021  0.6428 -0.5948 -0.0269
33543SOL    HW2 4992   3.828   0.259   8.028  0.7754 -0.7591 -0.7195
33544SOL     OW 4993   2.746   9.721   6.671 -0.0329 -0.3207 -0.0103
33544SOL    HW1 4994   2.721   9.789   6.733  0.4500 -1.5311  1.5571
33544SOL    HW2 4995   2.840   9.711   6.682  0.2033 -0.0320 -1.5128
33545SOL     OW 4996   4.427   9.811   5.647 -0.2418  0.2429 -0.1020
33545SOL    HW1 4997   4.378   9.820   5.729  0.8879 -0.0737  0.6242
33545SOL    HW2 4998   4.502   9.756   5.669  0.5819  0.9107 -1.1338
33546SOL     OW 4999   2.886   9.530   6.951 -0.4412 -0.5340  0.9142
33546SOL    HW1 5000   2.899   9.586   7.028 -2.9747  1.3358  0.1390
33546SOL    HW2 5001   2.792   9.536   6.933  0.1837  0.2077 -3.0413
33547SOL     OW 5002   0.596   6.282   6.189  0.1027 -0.6121 -0.2966
33547SOL    HW1 5003   0.638   6.313   6.109 -2.0238 -0.0994 -1.2739
33547SOL    HW2 5004   0.568   6.193   6.169 -1.3323 -0.1299 -0.5050
33548SOL     OW 5005   2.891   8.965  10.778 -0.3569  0.4414  0.3396
33548SOL    HW1 5006   2.950   8.891  10.789  0.3379  0.8200 -0.7381
33548SOL    HW2 5007   2.867   8.990  10.868  0.8376  0.0699  0.7778
33549SOL     OW 5008  10.799   3.924   4.983 -0.3451 -0.0234 -0.4047
33549SOL    HW1 5009  10.858   3.991   4.950 -1.0227  1.0544  0.5114
33549SOL    HW2 5010  10.797   3.937   5.078 -1.7035 -0.3152 -0.3667
33550SOL     OW 5011   3.313   0.135   9.573  0.4643 -0.5419 -0.4897
33550SOL    HW1 5012   3.233   0.086   9.591  1.0574 -0.5445  2.7408
33550SOL    HW2 5013   3.285   0.226   9.567  0.1582 -0.5865  0.2154
33551SOL     OW 5014  10.539   9.980   1.931 -0.1662 -0.3977 -0.1258
33551SOL    HW1 5015  10.547   9.887   1.910 -1.5440 -0.2184 -1.6410
33551SOL    HW2 5016  10.593  10.024   1.865  2.0653 -0.1568  1.7528
33552SOL     OW 5017   2.583   1.861   4.628  0.0661  0.2877 -0.0226
33552SOL    HW1 5018   2.506   1.874   4.684  0.4697 -1.5622  1.0607
33552SOL    HW2 5019   2.570   1.775   4.589  2.1057 -0.6409  1.1545
33553SOL     OW 5020   6.721   5.816   7.202 -0.0154  0.2821 -0.4369
33553SOL    HW1 5021   6.754   5.843   7.116 -0.1954  2.3021  0.0596
33553SOL    HW2 5022   6.770   5.870   7.264 -0.5219 -0.4976  0.6658
33554SOL     OW 5023   2.970   9.999   6.745 -0.5290 -0.1581  0.0183
33554SOL    HW1 5024   2.995   9.919   6.697 -0.5602  0.0400 -0.3364
33554SOL    HW2 5025   2.890   9.975   6.791 -1.9427  0.3456 -2.0091
33555SOL     OW 5026   1.066  10.932   7.077 -0.5609 -0.1834  0.0790
33555SOL    HW1 5027   1.081  10.857   7.134  0.0559  0.1054  0.3053
33555SOL    HW2 5028   1.082  10.898   6.989 -1.8657 -0.7192  0.0295
33556SOL     OW 5029   6.959   5.087   9.199 -0.1670  0.1280  0.1909
33556SOL    HW1 5030   6.963   5.181   9.180 -2.5551  0.2805  0.1795
33556SOL    HW2 5031   6.993   5.045   9.120  0.5690  0.9616  0.0460
33557SOL     OW 5032   9.579   4.519   3.304  0.0490  0.5542  0.2579
33557SOL    HW1 5033   9.651   4.508   3.242 -0.1669 -1.5126  0.3341
33557SOL    HW2 5034   9.606   4.468   3.381 -1.1686  0.3529  0.5716
33558SOL     OW 5035   5.268  10.690   2.732 -0.0467  0.1427 -0.7471
33558SOL    HW1 5036   5.349  10.675   2.780 -0.8987  0.2488  0.7681
33558SOL    HW2 5037   5.234  10.772   2.766 -0.2896  0.6436 -2.1119
33559SOL     OW 5038   6.775   0.470   1.356 -0.4592  0.1217 -0.0443
33559SOL    HW1 5039   6.726   0.416   1.293  1.2835  0.5197 -1.8492
33559SOL    HW2 5040   6.827   0.529   1.301 -0.0300  1.5838  1.8363
33560SOL     OW 5041  10.659   5.105   6.805  0.7371 -0.4060 -0.1779
33560SOL    HW1 5042  10.583   5.115   6.861  0.4094  0.4476 -0.7514
33560SOL    HW2 5043  10.628   5.128   6.717  1.4696 -0.7686 -0.5454
33561SOL     OW 5044   3.815   4.852   1.183 -0.0147 -0.1070 -0.1947
33561SOL    HW1 5045   3.838   4.800   1.260  2.6369  0.9742 -0.1205
33561SOL    HW2 5046   3.863   4.812   1.111  1.0624  1.4048 -0.3739
33562SOL     OW 5047   4.065   4.920   6.258  0.7075 -0.3190 -0.2810
33562SOL    HW1 5048   4.097   4.829   6.263 -0.3262 -0.6923 -0.2020
33562SOL    HW2 5049   4.051   4.945   6.350 -0.1542 -0.5157 -0.3460
33563SOL     OW 5050   3.951   5.142   2.781  0.5323 -0.4562 -0.4030
33563SOL    HW1 5051   3.862   5.108   2.782  0.5716 -0.6723 -1.9471
33563SOL    HW2 5052   3.947   5.221   2.835 -0.5853 -0.4540 -0.4670
33564SOL     OW 5053   3.600   2.558   2.760 -0.1851  0.0493  0.1652
33564SOL    HW1 5054   3.540   2.517   2.822 -0.4523 -0.9197 -0.7085
33564SOL    HW2 5055   3.546   2.623   2.715 -0.2022  0.1732  0.3607
33565SOL     OW 5056   4.314   1.163   2.533  0.5575  0.7889 -0.5550
33565SOL    HW1 5057   4.407   1.144   2.521  0.5394  0.4016 -0.0984
33565SOL    HW2 5058   4.303   1.174   2.627  0.3177  1.8141 -0.6893
33566SOL     OW 5059   4.715   5.206   8.147  0.0005  0.0456 -0.3754
33566SOL    HW1 5060   4.716   5.231   8.054 -0.8346 -0.0119 -0.4090
33566SOL    HW2 5061   4.805   5.220   8.176  0.4531 -0.6727 -1.3813
33567SOL     OW 5062   0.143   3.754   1.862  0.5717  0.2368 -0.0370
33567SOL    HW1 5063   0.215   3.694   1.842  0.9189  0.7815 -0.4345
33567SOL    HW2 5064   0.172   3.801   1.940 -0.0432 -0.6594  0.7630
33568SOL     OW 5065   1.347   4.754   3.278  0.5549  0.0061 -0.1971
33568SOL    HW1 5066   1.290   4.684   3.247  1.2192 -0.4212 -0.4853
33568SOL    HW2 5067   1.290   4.812   3.328 -0.5674  0.7075 -2.1903
33569SOL     OW 5068   0.650   2.668   2.890 -0.0149  0.8106 -0.0188
33569SOL    HW1 5069   0.675   2.632   2.805 -0.0158  1.9691 -0.5215
33569SOL    HW2 5070   0.614   2.593   2.937 -0.0251  0.1486 -1.0397
33570SOL     OW 5071   4.324   0.263   1.557  0.2569  0.1896 -0.8944
33570SOL    HW1 5072   4.274   0.342   1.577  0.8286 -0.1234  2.3208
33570SOL    HW2 5073   4.274   0.192   1.597  2.3441 -0.2979  1.1306
33571SOL     OW 5074   4.145   0.168   8.101 -0.0392  0.1737  0.3935
33571SOL    HW1 5075   4.076   0.221   8.061 -0.1325  0.3942  0.8396
33571SOL    HW2 5076   4.100   0.118   8.169  0.0624 -0.4216  0.0272
33572SOL     OW 5077   4.006   2.774   4.473  0.3028  0.0237  0.0001
33572SOL    HW1 5078   4.072   2.781   4.404  1.9943 -0.3504  1.5027
33572SOL    HW2 5079   3.925   2.753   4.426  1.5123 -0.9028 -1.8110
33573SOL     OW 5080   1.671   5.401   4.795  0.1220 -0.2884 -0.0444
33573SOL    HW1 5081   1.662   5.462   4.868  0.3295  0.6854 -0.8228
33573SOL    HW2 5082   1.607   5.431   4.731 -0.1336 -1.2021 -0.2329
33574SOL     OW 5083  10.365   7.919   5.943 -0.0787  0.0004 -0.5143
33574SOL    HW1 5084  10.393   7.854   6.007 -0.4061 -0.8112 -1.1790
33574SOL    HW2 5085  10.387   8.003   5.983  0.6104 -0.5225  0.2308
33575SOL     OW 5086   7.330  10.072   6.217  0.1957  0.6621 -0.3960
33575SOL    HW1 5087   7.382  10.003   6.176  0.6468  1.4491 -1.1889
33575SOL    HW2 5088   7.267  10.098   6.150  0.2278  1.2172 -0.2167
33576SOL     OW 5089   1.760   6.991   0.222 -0.3964  0.5987 -0.0471
33576SOL    HW1 5090   1.741   7.016   0.132  0.2200  2.1459  0.2289
33576SOL    HW2 5091   1.674   6.973   0.260 -0.7472  0.9815 -0.6388
33577SOL     OW 5092   9.624   1.527   5.519 -0.1759  0.9916  0.0974
33577SOL    HW1 5093   9.631   1.597   5.584  1.1190  0.1870  0.8739
33577SOL    HW2 5094   9.618   1.446   5.571  1.1535  0.3074 -0.7572
33578SOL     OW 5095   5.674   5.929   6.475 -0.1611 -0.2054 -0.9091
33578SOL    HW1 5096   5.592   5.884   6.455 -0.2398 -0.3788 -0.2060
33578SOL    HW2 5097   5.704   5.890   6.557  0.7764 -0.3463 -1.3069
33579SOL     OW 5098   9.521   0.426   0.475  0.2419  0.3570 -0.3201
33579SOL    HW1 5099   9.433   0.389   0.468 -0.5334  2.1250 -0.3193
33579SOL    HW2 5100   9.577   0.363   0.428 -1.0162 -0.7341 -0.4185
33580SOL     OW 5101   5.055   6.160   4.596  0.1900  0.1052 -0.6094
33580SOL    HW1 5102   5.013   6.245   4.578 -0.4390  0.1473  0.9375
33580SOL    HW2 5103   4.988   6.109   4.641 -0.0804 -1.9370 -3.0883
33581SOL     OW 5104   2.372   5.992  10.028 -0.0599 -0.9181 -0.5129
33581SOL    HW1 5105   2.373   6.003   9.933  0.3443 -1.9787 -0.6424
33581SOL    HW2 5106   2.364   5.898  10.042 -0.4984 -0.7507  0.5163
33582SOL     OW 5107   4.486   7.120   1.515 -0.6819  0.0107 -0.0721
33582SOL    HW1 5108   4.431   7.047   1.544 -2.2109  1.0947 -0.1422
33582SOL    HW2 5109   4.448   7.197   1.558  1.1635  0.7283  0.3607
33583SOL     OW 5110   0.135  10.272   3.373 -0.0774  0.0457  0.4145
33583SOL    HW1 5111   0.124  10.196   3.315  1.6828 -0.9064  1.2599
33583SOL    HW2 5112   0.046  10.305   3.386 -0.6572 -0.5307 -1.7123
33584SOL     OW 5113  10.396   0.631   6.019  0.1042  0.3964 -0.1928
33584SOL    HW1 5114  10.477   0.656   6.063 -0.2253 -0.6891  1.0820
33584SOL    HW2 5115  10.328   0.679   6.066  0.0732  2.5950 -2.2757
33585SOL     OW 5116   6.608   0.385   6.852  0.7341 -0.5854  0.2034
33585SOL    HW1 5117   6.678   0.325   6.879  0.3399 -1.3147 -0.3423
33585SOL    HW2 5118   6.621   0.396   6.758  1.4220  1.0386  0.4523
33586SOL     OW 5119   6.499   5.432   3.692 -0.4323 -0.5200 -0.1059
33586SOL    HW1 5120   6.503   5.472   3.779  0.6912 -0.3999 -0.1972
33586SOL    HW2 5121   6.406   5.434   3.669 -0.4200  2.2216 -0.2042
33587SOL     OW 5122   1.606   6.388   0.755 -0.3234 -0.3453 -0.0437
33587SOL    HW1 5123   1.698   6.379   0.778 -0.2303  1.9920  0.7600
33587SOL    HW2 5124   1.606   6.435   0.671 -0.7437  1.3408  0.8525
33588SOL     OW 5125   8.148   2.553   8.256  0.1926  0.2726  0.4940
33588SOL    HW1 5126   8.088   2.494   8.210 -0.2864  1.6727 -0.7820
33588SOL    HW2 5127   8.221   2.566   8.195 -0.1528  1.6790  0.3418
33589SOL     OW 5128   0.132   9.664   7.472 -0.2928  0.9945  0.7405
33589SOL    HW1 5129   0.040   9.665   7.445 -0.4468  2.1525  1.2629
33589SOL    HW2 5130   0.169   9.741   7.430  0.2718  0.9199  1.1019
33590SOL     OW 5131   2.323   5.319   6.665 -0.3620  0.2873 -0.2395
33590SOL    HW1 5132   2.392   5.347   6.605  0.5994 -0.5207  0.4348
33590SOL    HW2 5133   2.334   5.374   6.742 -1.8610  1.6133 -0.9228
33591SOL     OW 5134   5.510   7.300   2.819 -0.1395  0.3575 -0.1397
33591SOL    HW1 5135   5.569   7.375   2.811 -1.2942  1.1844 -1.5378
33591SOL    HW2 5136   5.527   7.265   2.906  1.1259  1.6479  0.1782
33592SOL     OW 5137   4.056   7.905   3.307  0.1465 -0.0738 -0.0776
33592SOL    HW1 5138   4.080   7.987   3.264 -0.8306 -0.4955 -1.5189
33592SOL    HW2 5139   3.972   7.881   3.266 -0.6134 -0.7493  1.7678
33593SOL     OW 5140   7.036   1.725   0.543  0.2416 -0.2118 -0.3136
33593SOL    HW1 5141   6.994   1.652   0.588  0.7808 -1.9782 -2.5041
33593SOL    HW2 5142   6.981   1.743   0.468  2.0040 -0.8797 -1.8383
33594SOL     OW 5143   6.540   8.888   6.654 -0.3200 -0.2113 -0.1261
33594SOL    HW1 5144   6.457   8.841   6.668 -0.2742 -0.6531 -1.2589
33594SOL    HW2 5145   6.607   8.820   6.657 -0.1502 -0.0763 -0.7471
33595SOL     OW 5146   4.596   2.081   1.706 -0.1572  0.1288  0.2371
33595SOL    HW1 5147   4.611   2.007   1.765  0.4326  0.7168  0.8561
33595SOL    HW2 5148   4.517   2.058   1.658  0.0289 -0.9085  0.3988
33596SOL     OW 5149   4.196   8.097   2.056  0.1314 -0.1588  0.1322
33596SOL    HW1 5150   4.227   8.167   2.113 -2.2937  0.0765  1.3002
33596SOL    HW2 5151   4.135   8.140   1.996 -1.0393 -1.1239  0.5673
33597SOL     OW 5152   3.201   6.981   8.689 -0.3284 -0.2940  0.0440
33597SOL    HW1 5153   3.204   6.931   8.608 -0.9821 -0.1006 -0.1039
33597SOL    HW2 5154   3.167   7.067   8.664  1.8477  0.6715  0.0904
33598SOL     OW 5155   1.137   9.743   9.008 -0.3308  0.0206  0.3733
33598SOL    HW1 5156   1.136   9.654   8.972  1.0810  0.4802 -0.9432
33598SOL    HW2 5157   1.121   9.800   8.932 -1.0033  0.9068  1.1543
33599SOL     OW 5158  10.355   3.290   8.842 -0.0591  0.0062 -0.4161
33599SOL    HW1 5159  10.377   3.383   8.853 -0.9782  0.0302  1.5941
33599SOL    HW2 5160  10.260   3.290   8.832 -0.0592 -0.7293 -0.4038
33600SOL     OW 5161   2.033   6.484   6.771  0.2544 -0.1154  0.3400
33600SOL    HW1 5162   2.034   6.528   6.686 -0.2066 -0.5431  0.1112
33600SOL    HW2 5163   1.941   6.482   6.796  0.2067 -1.3806  0.1139
33601SOL     OW 5164   5.138   8.424  10.136 -0.2593  0.7553 -1.1285
33601SOL    HW1 5165   5.193   8.374  10.074 -0.1357 -1.5598  0.7085
33601SOL    HW2 5166   5.198   8.450  10.205 -1.1261 -0.4858  0.1457
33602SOL     OW 5167  10.510   1.330   0.562 -0.1693 -0.3569  0.1112
33602SOL    HW1 5168  10.543   1.373   0.483  0.2225 -0.8318  0.0089
33602SOL    HW2 5169  10.445   1.391   0.597 -1.1324 -0.6095 -1.1561
33603SOL     OW 5170   7.556   2.878   7.731 -0.0298 -0.4484 -0.2706
33603SOL    HW1 5171   7.633   2.917   7.688  0.0750  0.2094  0.5031
33603SOL    HW2 5172   7.508   2.952   7.766 -1.2163 -0.8323 -1.0436
33604SOL     OW 5173   8.684   1.254  10.975 -0.0933 -0.1893  0.1095
33604SOL    HW1 5174   8.603   1.304  10.983 -0.1025 -0.2960  0.7063
33604SOL    HW2 5175   8.728   1.291  10.899 -0.0266  0.8372  0.6291
33605SOL     OW 5176   9.696   1.822  10.239 -0.6207  0.1526  0.4358
33605SOL    HW1 5177   9.639   1.797  10.166  1.0494  1.4820 -1.4471
33605SOL    HW2 5178   9.725   1.739  10.276 -0.5073 -0.6153 -1.2652
33606SOL     OW 5179   5.498   5.878   9.626  0.2356  0.9791 -0.7807
33606SOL    HW1 5180   5.551   5.806   9.592 -1.5382 -0.0361 -1.5604
33606SOL    HW2 5181   5.465   5.923   9.548  2.1776  3.3891 -0.3144
33607SOL     OW 5182   7.242   0.789  10.822 -0.3733  0.0862 -0.3205
33607SOL    HW1 5183   7.307   0.833  10.767 -0.5075 -0.0942 -0.6254
33607SOL    HW2 5184   7.170   0.768  10.762 -1.3291  1.5161  0.2741
33608SOL     OW 5185   8.860   4.711   0.626  0.7044 -0.0536 -0.8530
33608SOL    HW1 5186   8.788   4.767   0.656  1.2134  0.2728 -0.1830
33608SOL    HW2 5187   8.872   4.734   0.534  1.2514  1.3545 -0.4554
33609SOL     OW 5188  10.951   9.003   6.126  0.3871  0.4449 -0.6644
33609SOL    HW1 5189  10.923   8.956   6.205 -0.5993  0.3970 -1.0332
33609SOL    HW2 5190  11.046   8.992   6.124  0.3513 -0.0894  0.1730
33610SOL     OW 5191   9.125   9.058   9.980 -0.0293  0.1258  0.1536
33610SOL    HW1 5192   9.175   9.105  10.047  0.0665  0.6044 -0.2502
33610SOL    HW2 5193   9.155   8.968   9.987 -0.0624  0.1577  0.7956
33611SOL     OW 5194   2.114   7.528   9.964  0.3979  0.4099 -0.1614
33611SOL    HW1 5195   2.108   7.552  10.057  1.4770  0.5997 -0.1268
33611SOL    HW2 5196   2.091   7.435   9.963 -1.8132  0.8985 -0.0293
33612SOL     OW 5197   9.792   2.651   3.670  0.6836  0.2440  0.1446
33612SOL    HW1 5198   9.728   2.639   3.600  1.1456 -0.6272 -0.1330
33612SOL    HW2 5199   9.771   2.738   3.706 -1.4516 -0.5146  0.8894
33613SOL     OW 5200   6.960   7.352   2.968  0.0852 -0.1067 -0.4993
33613SOL    HW1 5201   6.966   7.318   2.878  0.7558  0.8785 -0.8447
33613SOL    HW2 5202   7.025   7.301   3.017 -0.5019 -0.8618 -0.4940
33614SOL     OW 5203   9.822   7.906   0.021 -0.0719 -0.3254  0.2845
33614SOL    HW1 5204   9.893   7.864  -0.028  0.5892  0.2955  0.7001
33614SOL    HW2 5205   9.758   7.929  -0.046  1.0332  0.9500 -0.3745
33615SOL     OW 5206   0.246   1.083   2.449  0.0857 -0.3380  0.2493
33615SOL    HW1 5207   0.302   1.011   2.420 -0.2337  0.3408 -2.3786
33615SOL    HW2 5208   0.290   1.162   2.418 -2.1896  0.2146 -1.9242
33616SOL     OW 5209  10.531   0.256  10.329 -0.7319 -0.5034  0.1057
33616SOL    HW1 5210  10.435   0.253  10.327 -0.7286 -0.2413 -0.6048
33616SOL    HW2 5211  10.553   0.226  10.418 -1.5221  1.2234  0.9317
33617SOL     OW 5212   6.568   5.094   7.711 -0.2344  0.1356 -0.2188
33617SOL    HW1 5213   6.524   5.151   7.649 -3.9916 -0.4842  1.5490
33617SOL    HW2 5214   6.604   5.023   7.658 -1.7365  0.5352 -1.8506
33618SOL     OW 5215   6.492   4.086   8.516  0.2129  0.3992 -0.6579
33618SOL    HW1 5216   6.497   4.179   8.536 -0.2724  0.6855 -1.7936
33618SOL    HW2 5217   6.582   4.054   8.527  0.2151  0.7978  0.6009
33619SOL     OW 5218  11.056   0.300   5.621  0.1467  0.1574  0.3759
33619SOL    HW1 5219  11.097   0.306   5.708  0.0766  1.2961  0.3417
33619SOL    HW2 5220  11.130   0.295   5.561  0.2003 -0.1940  0.4691
33620SOL     OW 5221  10.573   3.651   5.256  0.1757  0.1307  0.3244
33620SOL    HW1 5222  10.497   3.616   5.209  1.3191  1.4293 -2.7691
33620SOL    HW2 5223  10.536   3.707   5.324 -1.6044 -0.8222  0.1968
33621SOL     OW 5224   4.475   7.301   1.300  0.5003 -0.9526  0.2354
33621SOL    HW1 5225   4.447   7.256   1.220 -1.2861 -0.0920  0.3127
33621SOL    HW2 5226   4.487   7.231   1.364  1.1219 -1.5834 -0.5452
33622SOL     OW 5227   7.867   4.293   4.187 -0.3786 -0.3606 -0.0475
33622SOL    HW1 5228   7.868   4.360   4.118  1.3919 -1.5834 -1.2906
33622SOL    HW2 5229   7.786   4.244   4.172 -1.0984  0.7368  0.1491
33623SOL     OW 5230   9.910   3.382   4.686 -0.6652 -0.3832  0.0510
33623SOL    HW1 5231   9.968   3.442   4.640 -0.8784 -0.1567  0.0782
33623SOL    HW2 5232   9.949   3.374   4.774 -1.0685  0.3299  0.3011
33624SOL     OW 5233   8.794   7.817   6.337  0.2844  0.3340 -0.2369
33624SOL    HW1 5234   8.866   7.880   6.334  1.8359 -1.2866  0.6866
33624SOL    HW2 5235   8.791   7.780   6.248  0.4909  0.5021 -0.3143
33625SOL     OW 5236   6.102   2.388   6.829  0.4780  0.8180 -0.4673
33625SOL    HW1 5237   6.047   2.418   6.902 -0.4249  0.8430 -1.1314
33625SOL    HW2 5238   6.136   2.303   6.859  2.5848  2.1612  1.1782
33626SOL     OW 5239   2.087   1.963   7.707 -0.1399  0.3100 -0.0370
33626SOL    HW1 5240   2.072   1.954   7.613  0.3641  0.3680 -0.1263
33626SOL    HW2 5241   2.074   1.875   7.742 -0.5504  0.3351 -0.1299
33627SOL     OW 5242   9.954  10.948   9.895  0.1615  0.1766  0.1156
33627SOL    HW1 5243   9.977  11.041   9.890 -0.8993  0.6074  2.0428
33627SOL    HW2 5244   9.977  10.923   9.985 -1.3003 -0.8953  0.2285
33628SOL     OW 5245   5.573   4.559   3.918  0.3555  0.0881  0.2961
33628SOL    HW1 5246   5.656   4.534   3.877 -0.8370 -0.8982 -1.6558
33628SOL    HW2 5247   5.562   4.499   3.991  1.6695  0.6990  1.0318
33629SOL     OW 5248   1.688  10.372   7.755  0.9596  0.1048  0.2273
33629SOL    HW1 5249   1.737  10.291   7.740  0.2812 -0.3599  0.4775
33629SOL    HW2 5250   1.633  10.354   7.831  0.0045  0.4309 -0.3646
33630SOL     OW 5251   6.941   1.197   8.334  0.2382 -0.4960 -0.9757
33630SOL    HW1 5252   6.940   1.223   8.241 -0.8541  0.7460 -0.6408
33630SOL    HW2 5253   6.948   1.280   8.381 -0.5990 -1.0187  0.0906
33631SOL     OW 5254   7.746   1.636   9.155 -0.3255  0.3165 -0.1208
33631SOL    HW1 5255   7.726   1.685   9.076  0.6527  0.0038 -0.5710
33631SOL    HW2 5256   7.702   1.684   9.225 -2.0397  0.0480 -0.9582
33632SOL     OW 5257   0.824   9.011   7.306  0.0200 -0.5548 -0.0144
33632SOL    HW1 5258   0.895   8.947   7.306  1.3036  0.8013 -0.0014
33632SOL    HW2 5259   0.793   9.013   7.215  1.6095  0.4912 -0.5726
33633SOL     OW 5260   0.906   1.094   8.735  0.1144 -0.0387  0.5330
33633SOL    HW1 5261   0.875   1.176   8.696 -0.1838 -0.6432 -0.5147
33633SOL    HW2 5262   0.830   1.035   8.731  1.0178 -1.1487 -0.9542
33634SOL     OW 5263   6.918   6.292   4.467  0.2534  0.1373  0.5615
33634SOL    HW1 5264   6.885   6.224   4.409 -2.0389  3.0611 -1.8957
33634SOL    HW2 5265   6.851   6.301   4.535 -0.0477  0.7020  0.1963
33635SOL     OW 5266   4.710   9.089   3.461 -0.2066  0.4272 -0.4112
33635SOL    HW1 5267   4.652   9.156   3.426 -0.3471  0.6922  0.3020
33635SOL    HW2 5268   4.790   9.136   3.485 -0.1803  0.2864 -0.2172
33636SOL     OW 5269   8.149  10.199   2.263  0.1657  0.9482  0.5089
33636SOL    HW1 5270   8.145  10.121   2.319  0.1181  1.8709  1.8594
33636SOL    HW2 5271   8.229  10.244   2.290 -0.0869  1.6358  0.1319
33637SOL     OW 5272   9.344   8.407   3.277 -0.4866  0.0355 -0.0029
33637SOL    HW1 5273   9.262   8.452   3.298 -0.2101 -0.4331  2.2825
33637SOL    HW2 5274   9.320   8.314   3.276 -0.1469 -0.0532 -0.2330
33638SOL     OW 5275   4.621   1.397   3.515 -0.6754  0.2964 -0.6934
33638SOL    HW1 5276   4.699   1.408   3.569 -0.7622 -3.2064  0.4166
33638SOL    HW2 5277   4.645   1.434   3.430  1.0291  2.0397  0.4634
33639SOL     OW 5278   3.497   1.241   7.833  0.3752 -0.1020  0.0213
33639SOL    HW1 5279   3.500   1.297   7.756  0.2363  1.0825  0.8568
33639SOL    HW2 5280   3.570   1.270   7.887 -0.8414  0.6103  1.3521
33640SOL     OW 5281   5.912   0.765   6.956  0.1714  0.0666 -0.5187
33640SOL    HW1 5282   5.826   0.774   6.915 -0.1366 -1.4212 -0.2640
33640SOL    HW2 5283   5.912   0.677   6.993  1.0639  0.7417  1.2138
33641SOL     OW 5284   4.937   4.202   1.760  0.1275 -0.6281 -0.2895
33641SOL    HW1 5285   4.998   4.175   1.828 -0.5047  0.1740  0.6317
33641SOL    HW2 5286   4.971   4.163   1.680  2.4280  0.5890 -0.0014
33642SOL     OW 5287   4.640   4.549   3.511  0.2244 -0.2843 -0.1183
33642SOL    HW1 5288   4.566   4.521   3.565  0.2662 -1.3132 -0.5731
33642SOL    HW2 5289   4.608   4.628   3.466 -0.5517 -0.6450 -0.2100
33643SOL     OW 5290   4.700   3.245   6.662  0.2084  0.1152  0.2574
33643SOL    HW1 5291   4.626   3.191   6.691 -0.4198  0.4388 -0.6809
33643SOL    HW2 5292   4.773   3.184   6.656  0.1024 -0.1528  1.5019
33644SOL     OW 5293   5.193   1.727   7.411  0.4110 -0.0887  0.2593
33644SOL    HW1 5294   5.144   1.647   7.429  0.1012  0.3019  1.1928
33644SOL    HW2 5295   5.126   1.796   7.413  0.9046  0.3767  0.9588
33645SOL     OW 5296  10.510  11.014   0.175  0.3187 -0.3930 -0.1446
33645SOL    HW1 5297  10.530  10.941   0.234 -0.3490  0.7971  1.6493
33645SOL    HW2 5298  10.578  11.079   0.193  0.4543 -0.2336 -1.1523
33646SOL     OW 5299   4.476   3.472   9.301  0.1404 -0.4792 -0.1493
33646SOL    HW1 5300   4.536   3.510   9.364 -0.3064  0.0411 -0.0317
33646SOL    HW2 5301   4.447   3.546   9.247  0.7239 -0.9523 -1.1459
33647SOL     OW 5302   5.835   3.750   3.469 -0.9105 -0.7884  0.4191
33647SOL    HW1 5303   5.905   3.756   3.534  0.0899  1.8174 -0.7315
33647SOL    HW2 5304   5.847   3.828   3.414 -4.7084 -0.2254  0.1085
33648SOL     OW 5305   3.355   8.061   8.905  0.0602 -0.1588 -0.6735
33648SOL    HW1 5306   3.262   8.043   8.918  0.1325 -0.4832 -0.6093
33648SOL    HW2 5307   3.396   8.040   8.989  0.0558  0.9146 -0.3864
33649SOL     OW 5308   6.031  10.932   3.866 -0.1686 -0.5674  0.1166
33649SOL    HW1 5309   6.056  10.888   3.785  0.1218  2.6472 -1.6802
33649SOL    HW2 5310   5.940  10.905   3.881 -1.0574  0.5581 -2.6646
33650SOL     OW 5311   7.607   4.257   7.748 -0.3740 -0.9219  0.4466
33650SOL    HW1 5312   7.697   4.229   7.732  0.0886  0.4969  0.4148
33650SOL    HW2 5313   7.562   4.244   7.664  0.0830 -0.6698  0.1574
33651SOL     OW 5314   3.714   4.434   4.764  0.4956  0.2592 -0.0389
33651SOL    HW1 5315   3.725   4.385   4.846 -0.5259 -0.0790 -0.0846
33651SOL    HW2 5316   3.705   4.525   4.792  1.7185  0.3566  0.0962
33652SOL     OW 5317   3.880   7.568   8.572 -0.3004  0.3438 -0.1165
33652SOL    HW1 5318   3.804   7.621   8.547  0.2360  1.2630  0.1543
33652SOL    HW2 5319   3.955   7.614   8.533  0.1196 -0.5777 -0.4198
33653SOL     OW 5320   8.050   9.790   5.159 -0.1859 -0.4984 -0.3325
33653SOL    HW1 5321   8.126   9.845   5.179 -1.0398  1.7917 -2.8720
33653SOL    HW2 5322   8.081   9.729   5.092 -0.5499  0.4339 -1.3665
33654SOL     OW 5323   1.712   6.735   0.614  0.2715 -0.4197  0.5016
33654SOL    HW1 5324   1.673   6.657   0.575  0.5457 -0.4180  0.2168
33654SOL    HW2 5325   1.670   6.744   0.699 -1.1393  0.1942 -0.2229
33655SOL     OW 5326   6.226   2.735   9.882  0.1940  0.0665 -0.2871
33655SOL    HW1 5327   6.140   2.751   9.920  0.2818 -0.5074  0.1659
33655SOL    HW2 5328   6.288   2.755   9.952  0.4363  0.5882 -0.6467
33656SOL     OW 5329   7.820   4.440   2.099  0.4059 -0.2385  0.2917
33656SOL    HW1 5330   7.883   4.511   2.094  0.3252 -0.1735  0.1885
33656SOL    HW2 5331   7.740   4.481   2.133  0.2639 -0.2115 -0.0599
33657SOL     OW 5332   8.435   8.303   9.611  0.2029  0.1054 -0.5053
33657SOL    HW1 5333   8.407   8.394   9.602  1.3364  0.8326  2.2730
33657SOL    HW2 5334   8.530   8.306   9.605  0.2625 -0.8747 -0.2954
33658SOL     OW 5335   9.393   4.190   6.612  0.1142 -0.2908 -0.1241
33658SOL    HW1 5336   9.445   4.241   6.549  1.2451  0.1704  1.1279
33658SOL    HW2 5337   9.360   4.116   6.561  0.9770  0.0717 -1.2619
33659SOL     OW 5338   2.034   0.945   1.349  0.4968  0.0412 -0.3270
33659SOL    HW1 5339   2.006   0.859   1.319 -1.5122 -0.3400  2.2763
33659SOL    HW2 5340   1.957   1.001   1.340  0.9213  0.8173  0.6021
33660SOL     OW 5341   0.013   3.005   5.179 -0.6750 -0.4862  0.3056
33660SOL    HW1 5342  -0.035   2.998   5.096 -0.4911 -1.5310  0.2773
33660SOL    HW2 5343   0.009   2.917   5.216 -0.0728 -0.2128  1.0325
33661SOL     OW 5344   2.526   4.401   6.161 -0.5353  0.1451 -0.0867
33661SOL    HW1 5345   2.481   4.465   6.106 -0.3262  1.4711  1.2191
33661SOL    HW2 5346   2.456   4.343   6.192 -1.2073  1.3961  0.8700
33662SOL     OW 5347   5.245   6.664   5.515 -0.1650  0.2249 -0.1722
33662SOL    HW1 5348   5.206   6.590   5.468  0.0548 -0.7768  1.1521
33662SOL    HW2 5349   5.199   6.666   5.599 -0.0959  1.5519 -0.1502
33663SOL     OW 5350   1.298   6.140  10.679  0.5651  0.0152  0.7936
33663SOL    HW1 5351   1.247   6.204  10.630  0.7573 -0.2224  0.2726
33663SOL    HW2 5352   1.269   6.149  10.770  0.9580  1.1915  0.8127
33664SOL     OW 5353   4.835   9.645   7.697  0.1055  0.4301 -0.5107
33664SOL    HW1 5354   4.866   9.622   7.609 -3.8142  1.6588 -2.4457
33664SOL    HW2 5355   4.741   9.628   7.694 -0.6539  3.1710  2.5302
33665SOL     OW 5356   4.469   9.244   8.994  0.0439  0.2608  0.0230
33665SOL    HW1 5357   4.403   9.313   8.986 -1.5067 -1.3272 -2.0984
33665SOL    HW2 5358   4.531   9.262   8.923 -0.2034 -0.3119 -0.3510
33666SOL     OW 5359   6.895   1.313   5.303 -0.1030  0.2275 -0.0950
33666SOL    HW1 5360   6.933   1.391   5.343 -2.0574  0.9986  0.3450
33666SOL    HW2 5361   6.923   1.241   5.361 -0.3253  0.9251  0.9046
33667SOL     OW 5362  10.276   8.428   2.206  0.1557  0.2760  0.0976
33667SOL    HW1 5363  10.211   8.416   2.275 -0.3220 -0.8013 -0.5200
33667SOL    HW2 5364  10.241   8.499   2.152  0.5642  1.1702  0.9728
33668SOL     OW 5365   9.283   6.532   4.500 -0.4585  0.0384  0.6549
33668SOL    HW1 5366   9.348   6.468   4.528 -1.2592 -1.1467 -0.0608
33668SOL    HW2 5367   9.199   6.490   4.517 -1.0026  0.1024 -1.4909
33669SOL     OW 5368   7.930   0.345   9.290  0.3802  0.5556  0.3797
33669SOL    HW1 5369   7.934   0.285   9.364 -0.0150 -0.3066 -0.2798
33669SOL    HW2 5370   7.861   0.310   9.234 -1.5889  2.9413  1.0930
33670SOL     OW 5371   2.654   8.791   2.338 -0.1443  0.8763 -0.0578
33670SOL    HW1 5372   2.654   8.782   2.243 -0.8115  0.4255 -0.0132
33670SOL    HW2 5373   2.681   8.705   2.371 -2.5892  0.1502  0.2305
33671SOL     OW 5374   6.725   8.708   1.879 -1.2679 -0.3442 -0.2147
33671SOL    HW1 5375   6.726   8.802   1.898 -0.8256 -0.0580 -1.5470
33671SOL    HW2 5376   6.726   8.703   1.784 -1.7860 -1.7068 -0.1649
33672SOL     OW 5377   8.561   7.645   4.297  0.6041  0.7913  0.3176
33672SOL    HW1 5378   8.468   7.652   4.276  0.8318  1.2711 -0.5714
33672SOL    HW2 5379   8.604   7.628   4.213  1.1690 -1.1108  0.9484
33673SOL     OW 5380   5.045   2.679  10.216  0.5616  0.4166  0.4382
33673SOL    HW1 5381   5.082   2.730  10.287 -0.6390  1.3980  0.3989
33673SOL    HW2 5382   4.961   2.721  10.198  0.4898 -0.2911 -1.0302
33674SOL     OW 5383   2.582   0.783   4.663  0.7201 -0.2451 -0.6641
33674SOL    HW1 5384   2.513   0.726   4.697  2.1488 -1.8519 -0.3111
33674SOL    HW2 5385   2.535   0.853   4.618 -1.1366 -1.3847 -0.6117
33675SOL     OW 5386   7.956   8.358   4.499 -1.0079  0.1800  0.1174
33675SOL    HW1 5387   8.021   8.427   4.511 -0.0899 -0.6365 -0.0392
33675SOL    HW2 5388   7.872   8.402   4.514 -0.4221  1.2103  0.5231
33676SOL     OW 5389   6.756   2.735   1.141  0.3468 -0.0656  0.4682
33676SOL    HW1 5390   6.800   2.678   1.204  1.1448 -0.7375 -0.6387
33676SOL    HW2 5391   6.805   2.817   1.144  0.1302  0.0450  1.0047
33677SOL     OW 5392   9.131   7.809  10.869  0.2514 -0.4472 -0.0958
33677SOL    HW1 5393   9.204   7.749  10.880  1.9519  1.6465  0.7315
33677SOL    HW2 5394   9.119   7.848  10.956 -1.3068 -0.1428 -0.4202
33678SOL     OW 5395   7.019   7.413   2.421 -0.0833 -0.4359 -0.1526
33678SOL    HW1 5396   7.057   7.492   2.383 -1.2856 -0.6603 -1.9356
33678SOL    HW2 5397   6.934   7.404   2.379 -0.6431 -1.8491  1.1584
33679SOL     OW 5398  10.666   9.383   6.291  0.1877 -0.1509  0.0812
33679SOL    HW1 5399  10.740   9.444   6.296  0.0767 -0.0458  0.4346
33679SOL    HW2 5400  10.592   9.431   6.330 -0.0490 -0.2824 -0.2002
33680SOL     OW 5401   0.498   4.739   5.218  0.3403 -0.3043  0.3890
33680SOL    HW1 5402   0.472   4.647   5.230  1.3805 -0.3029  3.5762
33680SOL    HW2 5403   0.587   4.734   5.183  0.2031 -0.4853  0.0574
33681SOL     OW 5404   0.213   9.449   8.370 -0.4833 -0.4914  0.1071
33681SOL    HW1 5405   0.151   9.482   8.435  0.1596 -0.2548  0.6158
33681SOL    HW2 5406   0.256   9.527   8.336 -1.2344 -0.5659 -1.0543
33682SOL     OW 5407   1.335   9.186   0.924 -0.4666 -0.9051 -0.6835
33682SOL    HW1 5408   1.334   9.273   0.883 -0.1308  0.0014  1.1209
33682SOL    HW2 5409   1.262   9.188   0.986  0.3043 -1.4478  0.2626
33683SOL     OW 5410   3.583   9.754  11.072  0.1443  0.2195  0.1275
33683SOL    HW1 5411   3.634   9.707  11.005 -0.5897 -0.4795  0.0556
33683SOL    HW2 5412   3.605   9.846  11.057  1.9065 -0.0832  0.5256
33684SOL     OW 5413   0.974   6.574   1.235 -0.3210 -0.1032 -0.0016
33684SOL    HW1 5414   0.932   6.491   1.259  0.0767 -0.4019 -0.3178
33684SOL    HW2 5415   0.938   6.638   1.297  2.2863 -1.2318  2.9643
33685SOL     OW 5416   8.819   3.682   9.694 -0.3543 -0.4301  0.4930
33685SOL    HW1 5417   8.752   3.617   9.714 -1.8543  0.2865 -1.8019
33685SOL    HW2 5418   8.871   3.643   9.624 -0.6313  0.4420 -0.2075
33686SOL     OW 5419   7.162   4.738   1.155  0.1619  0.1304  0.0541
33686SOL    HW1 5420   7.076   4.697   1.166  0.4518 -0.1172  1.6396
33686SOL    HW2 5421   7.153   4.791   1.075 -1.2978 -0.2791 -0.0908
33687SOL     OW 5422   0.288   9.763   6.304 -0.2011 -0.3354 -0.0911
33687SOL    HW1 5423   0.246   9.845   6.329 -0.3040 -0.3421 -0.2397
33687SOL    HW2 5424   0.362   9.789   6.249  0.4824 -0.2753  0.8236
33688SOL     OW 5425   6.740   3.502   5.749 -0.6606  0.5214 -0.2332
33688SOL    HW1 5426   6.660   3.531   5.792  0.1630 -0.1166  1.8400
33688SOL    HW2 5427   6.793   3.582   5.741 -0.7867  0.6317  0.0138
33689SOL     OW 5428   5.076  10.056   0.473  0.1293  0.3371 -0.2452
33689SOL    HW1 5429   5.061  10.108   0.394  0.2925 -0.5344 -0.8696
33689SOL    HW2 5430   4.991  10.055   0.518  0.1052  1.0606 -0.2709
33690SOL     OW 5431   8.971   3.332   2.811  0.2192  0.2696  0.1507
33690SOL    HW1 5432   9.066   3.329   2.813  0.2587  1.2534  1.5070
33690SOL    HW2 5433   8.944   3.259   2.867  0.1790  0.0657 -0.1342
33691SOL     OW 5434   1.470   3.338   8.535 -0.1311 -0.0648  0.5095
33691SOL    HW1 5435   1.376   3.344   8.519  0.0072 -0.1233 -0.3779
33691SOL    HW2 5436   1.501   3.275   8.470  0.1492 -1.9891  2.3677
33692SOL     OW 5437   4.008   4.854   2.283 -0.0739 -0.0765 -1.1555
33692SOL    HW1 5438   4.010   4.944   2.252  2.4332 -0.2317 -1.6410
33692SOL    HW2 5439   4.055   4.804   2.216  0.4166 -1.3704  0.0938
33693SOL     OW 5440   2.874   0.217   9.080 -0.0501 -0.2339 -0.2392
33693SOL    HW1 5441   2.862   0.234   9.173 -2.5937  1.1360 -0.7344
33693SOL    HW2 5442   2.811   0.147   9.060  0.0184 -0.0644 -1.0592
33694SOL     OW 5443   6.911  10.614   7.097 -0.7690  0.2591  0.2874
33694SOL    HW1 5444   6.916  10.636   7.004 -0.3018 -2.0504 -0.2841
33694SOL    HW2 5445   6.999  10.581   7.119 -1.1638 -0.1766  1.2846
33695SOL     OW 5446   3.962  10.273   2.513 -0.2840  0.3454  0.0899
33695SOL    HW1 5447   4.053  10.279   2.541 -0.2015 -0.2247 -0.0569
33695SOL    HW2 5448   3.966  10.271   2.417 -0.4523  0.3311  0.0820
33696SOL     OW 5449   7.401   8.886   7.097 -0.0249 -0.0429 -0.1629
33696SOL    HW1 5450   7.316   8.859   7.133 -0.0906  1.7877  1.1897
33696SOL    HW2 5451   7.386   8.889   7.002 -1.4202  0.0819  0.0288
33697SOL     OW 5452   2.488   6.588   6.777  0.0719 -0.1261  0.0770
33697SOL    HW1 5453   2.464   6.541   6.697  0.6715 -0.8626  0.3158
33697SOL    HW2 5454   2.423   6.560   6.841  0.0605 -0.1509  0.0547
33698SOL     OW 5455   7.387   0.778   1.501  0.0218 -0.6783  0.0575
33698SOL    HW1 5456   7.466   0.794   1.450 -0.7831  0.7179 -0.8304
33698SOL    HW2 5457   7.326   0.739   1.439 -1.3315  2.0174 -0.4414
33699SOL     OW 5458   4.388   3.554   1.364  0.0831 -0.2731 -0.4499
33699SOL    HW1 5459   4.375   3.462   1.388  1.3917 -0.2359  0.5392
33699SOL    HW2 5460   4.401   3.599   1.447  2.2746  0.3008 -1.0237
33700SOL     OW 5461   1.743   4.974  10.816 -0.0560 -0.1552  0.0100
33700SOL    HW1 5462   1.755   5.063  10.783  0.5832 -0.3041 -0.1767
33700SOL    HW2 5463   1.785   4.918  10.751  0.7708 -0.4913  0.8028
33701SOL     OW 5464   9.218   7.542   3.038  0.6642 -0.1985 -0.2818
33701SOL    HW1 5465   9.144   7.590   3.076  2.3199  0.7715  1.9291
33701SOL    HW2 5466   9.177   7.472   2.987 -1.7855 -0.0982  1.3484
33702SOL     OW 5467   0.263  10.329   8.974 -0.4943  0.7257 -0.2044
33702SOL    HW1 5468   0.347  10.309   9.014 -0.9517  0.1495  0.4816
33702SOL    HW2 5469   0.243  10.253   8.919 -1.8926 -0.4810  1.8488
33703SOL     OW 5470   3.312   1.472   5.696  0.0846  0.7431 -0.4729
33703SOL    HW1 5471   3.265   1.549   5.664 -0.5056  0.3709 -0.5247
33703SOL    HW2 5472   3.389   1.507   5.740  0.4628  1.3074 -1.5475
33704SOL     OW 5473   5.126   2.665   8.825 -0.8073  0.5081 -0.2257
33704SOL    HW1 5474   5.107   2.730   8.893  3.0516  1.4655  0.2068
33704SOL    HW2 5475   5.142   2.584   8.874 -2.7645 -0.0971 -0.5130
33705SOL     OW 5476   3.958   6.664   5.962 -0.0718  0.0228  0.7567
33705SOL    HW1 5477   3.868   6.671   5.996  0.4520  2.3381  1.8833
33705SOL    HW2 5478   3.970   6.743   5.910  1.5371  0.1130  1.2197
33706SOL     OW 5479   2.804   2.017   3.582  0.0689 -0.2575 -0.4293
33706SOL    HW1 5480   2.842   1.956   3.645 -0.6699  0.2566  0.5439
33706SOL    HW2 5481   2.794   2.099   3.631 -3.1624 -0.6143 -0.2818
33707SOL     OW 5482   6.100   6.312  10.430 -0.8890  0.1272  0.1100
33707SOL    HW1 5483   6.085   6.406  10.429 -0.9173  0.1150 -0.7861
33707SOL    HW2 5484   6.086   6.283  10.340 -1.4569 -0.8263  0.4843
33708SOL     OW 5485   1.448   5.735   0.625 -0.1892  0.0407 -0.6421
33708SOL    HW1 5486   1.389   5.673   0.582 -0.8057  0.0200  0.2045
33708SOL    HW2 5487   1.464   5.803   0.559 -0.5518 -0.3399 -1.1332
33709SOL     OW 5488   9.687   1.790   7.358  0.1771  0.4758 -0.0592
33709SOL    HW1 5489   9.650   1.735   7.427 -0.4090 -0.4694 -1.0950
33709SOL    HW2 5490   9.611   1.837   7.322  0.2634  0.0101 -0.8839
33710SOL     OW 5491   8.216   5.923  10.188  0.5055 -0.0101 -0.2750
33710SOL    HW1 5492   8.259   5.864  10.250  0.9487  0.6110  0.0155
33710SOL    HW2 5493   8.153   5.972  10.241 -1.9172 -2.1417 -0.9770
33711SOL     OW 5494   8.371   6.170   9.612 -0.7986 -0.4917 -0.0408
33711SOL    HW1 5495   8.413   6.234   9.669 -0.7025  0.3260 -1.0074
33711SOL    HW2 5496   8.300   6.133   9.665 -1.7019  1.3724  0.1015
33712SOL     OW 5497   7.027  10.627   0.902 -0.5437  0.4202 -0.3270
33712SOL    HW1 5498   6.934  10.608   0.889 -0.6951  1.0317 -0.1889
33712SOL    HW2 5499   7.070  10.592   0.824 -0.9205  0.3625 -0.5126
33713SOL     OW 5500   1.127   8.517   8.729 -0.0606 -0.3714 -0.6530
33713SOL    HW1 5501   1.220   8.534   8.742 -0.5031  1.9362  0.0534
33713SOL    HW2 5502   1.105   8.566   8.650 -0.5069 -1.6720 -1.3492
33714SOL     OW 5503   9.905   5.983   5.604  0.3869 -0.4909 -0.1190
33714SOL    HW1 5504   9.970   6.049   5.580 -0.1777 -0.2981 -1.1716
33714SOL    HW2 5505   9.832   6.033   5.638 -0.3847 -0.4742 -1.7015
33715SOL     OW 5506   9.431   9.833   2.808  0.2132 -0.6951  0.0531
33715SOL    HW1 5507   9.352   9.787   2.837 -0.1852 -0.7085 -0.9960
33715SOL    HW2 5508   9.454   9.791   2.725  0.3985  0.3487 -0.4441
33716SOL     OW 5509   0.284   1.695   7.137 -0.4009 -0.6180 -0.1081
33716SOL    HW1 5510   0.293   1.739   7.222  1.7764 -0.8832 -0.1331
33716SOL    HW2 5511   0.203   1.645   7.144 -0.0852 -0.9453  1.9932
33717SOL     OW 5512   3.345  10.372  10.076 -0.7116 -0.4490 -0.5814
33717SOL    HW1 5513   3.429  10.379  10.029  0.3452 -1.0960  1.1171
33717SOL    HW2 5514   3.348  10.285  10.117 -2.3799 -0.6158 -0.7627
33718SOL     OW 5515   1.209   3.632   7.673  0.2345  0.5056  0.3184
33718SOL    HW1 5516   1.168   3.561   7.723 -1.6547  0.7787 -0.7408
33718SOL    HW2 5517   1.283   3.660   7.727  1.0799 -2.2742  0.7324
33719SOL     OW 5518   7.597   8.564   0.842 -0.1443 -0.5075  0.1657
33719SOL    HW1 5519   7.560   8.618   0.912  1.6377 -0.0558  0.8103
33719SOL    HW2 5520   7.578   8.474   0.869  1.1874 -0.3839  1.6896
33720SOL     OW 5521   9.194   8.430   0.768  0.0583 -0.6529  0.0860
33720SOL    HW1 5522   9.198   8.369   0.695  0.5453 -1.2221  0.5733
33720SOL    HW2 5523   9.267   8.405   0.825  1.4266  1.5346 -0.5731
33721SOL     OW 5524   3.239   9.887   3.114  0.5071 -0.3657  0.2333
33721SOL    HW1 5525   3.275   9.918   3.197  1.3464 -0.9446  0.0927
33721SOL    HW2 5526   3.185   9.960   3.083 -0.9120 -0.6265  1.9336
33722SOL     OW 5527   5.780   4.090   6.328 -1.2355 -0.4599  0.2521
33722SOL    HW1 5528   5.703   4.050   6.371 -0.3444 -0.4071  2.0055
33722SOL    HW2 5529   5.836   4.016   6.305 -0.9572 -0.4013  0.7276
33723SOL     OW 5530   0.080   8.294   8.128  0.2559 -0.1724 -0.0146
33723SOL    HW1 5531   0.093   8.208   8.168  3.5114  0.2001 -0.0111
33723SOL    HW2 5532   0.055   8.275   8.038  1.9777 -1.2252 -0.3186
33724SOL     OW 5533   6.919   8.576  10.793 -0.2511 -0.0366 -0.5960
33724SOL    HW1 5534   6.838   8.542  10.756 -1.3530  0.1861  1.4396
33724SOL    HW2 5535   6.912   8.671  10.783  0.0052 -0.0422 -0.8532
33725SOL     OW 5536   9.612   6.048   1.242  0.1726  0.6377 -0.2035
33725SOL    HW1 5537   9.638   6.137   1.217 -1.6137  0.8645 -1.4440
33725SOL    HW2 5538   9.576   6.057   1.330  0.2128  1.0895 -0.2310
33726SOL     OW 5539   5.259   9.237  10.907  0.0499 -0.2456 -0.1141
33726SOL    HW1 5540   5.213   9.320  10.894 -1.9295 -1.0991  0.9429
33726SOL    HW2 5541   5.216   9.176  10.846 -0.2102 -1.0406  0.8322
33727SOL     OW 5542   7.028   1.546   2.955 -0.1981  0.0770 -0.2335
33727SOL    HW1 5543   7.049   1.506   3.039 -2.4284 -0.9386 -0.0999
33727SOL    HW2 5544   6.933   1.560   2.957  0.0700  2.7929 -1.4273
33728SOL     OW 5545   8.620   4.006   6.914  0.0414  0.1942  0.1463
33728SOL    HW1 5546   8.647   3.968   6.830 -1.6760  0.6728 -0.6663
33728SOL    HW2 5547   8.633   4.100   6.903 -0.4625  0.2861  0.2945
33729SOL     OW 5548   5.783   1.733   9.112 -0.3730 -0.7395  0.5137
33729SOL    HW1 5549   5.695   1.714   9.080 -0.2908 -0.4349  0.0921
33729SOL    HW2 5550   5.776   1.821   9.149 -0.1856 -0.6148  0.2498
33730SOL     OW 5551   6.144   2.064  10.638  0.8974  0.1123 -0.1210
33730SOL    HW1 5552   6.134   2.084  10.545  0.8165  1.8027  0.2171
33730SOL    HW2 5553   6.223   2.009  10.643 -1.2884 -3.5259 -1.5712
33731SOL     OW 5554   4.821   4.436   4.668  0.1282  0.1084 -0.4750
33731SOL    HW1 5555   4.779   4.399   4.745  0.1186  0.2473 -0.4130
33731SOL    HW2 5556   4.757   4.423   4.597  0.2840 -0.3321 -0.5312
33732SOL     OW 5557   8.604   0.928   4.649 -0.1490  0.0999  0.0876
33732SOL    HW1 5558   8.631   1.002   4.705 -1.0012 -0.0229  0.6676
33732SOL    HW2 5559   8.673   0.923   4.583  0.5279  0.6803  0.7242
33733SOL     OW 5560   6.772   2.055   2.294 -0.1560  0.5599  0.2412
33733SOL    HW1 5561   6.845   2.084   2.239  1.5222 -1.8516  1.0198
33733SOL    HW2 5562   6.729   2.136   2.322  0.6615  1.9505 -2.2712
33734SOL     OW 5563   0.962   8.450   5.597  0.4142 -0.1581 -0.4530
33734SOL    HW1 5564   0.901   8.476   5.528  0.0936  0.0531 -0.0909
33734SOL    HW2 5565   1.048   8.459   5.557  0.2708  0.6899 -0.5856
33735SOL     OW 5566  11.008   4.843   6.030 -0.4658 -0.3742 -0.6900
33735SOL    HW1 5567  10.959   4.813   6.107 -2.1279  1.4373 -0.9528
33735SOL    HW2 5568  11.078   4.897   6.065 -0.4711 -0.5562 -0.3994
33736SOL     OW 5569   2.287   7.615   9.001  0.3078 -0.3920 -0.2815
33736SOL    HW1 5570   2.375   7.625   9.035  0.4816  1.2151 -1.0883
33736SOL    HW2 5571   2.262   7.704   8.973 -1.6972 -0.7267  0.2750
33737SOL     OW 5572   9.466   2.724   8.213  0.1457  0.2237 -0.1606
33737SOL    HW1 5573   9.475   2.761   8.300  0.9168  0.3586 -0.2875
33737SOL    HW2 5574   9.537   2.764   8.163 -0.4416  0.3427 -0.9192
33738SOL     OW 5575  10.687   7.046   6.630  0.1917 -0.0652  0.1624
33738SOL    HW1 5576  10.628   7.103   6.680 -0.2284  0.2424 -0.6530
33738SOL    HW2 5577  10.771   7.092   6.631  0.5406 -0.6773  1.6337
33739SOL     OW 5578   6.412   8.552  10.950 -0.3430 -0.5460 -0.6681
33739SOL    HW1 5579   6.415   8.581  10.859  0.0087 -0.5149 -0.6475
33739SOL    HW2 5580   6.468   8.475  10.953 -0.0566 -0.3284 -0.3984
33740SOL     OW 5581   5.018   4.886   9.067 -0.2092 -0.4635  0.0616
33740SOL    HW1 5582   4.973   4.970   9.076 -1.4549 -1.2830  2.1577
33740SOL    HW2 5583   5.043   4.882   8.974  0.7424  2.5961  0.0720
33741SOL     OW 5584  10.144   5.795   8.440 -0.8874 -0.1287 -0.2907
33741SOL    HW1 5585  10.055   5.771   8.414 -1.0416  0.5083 -0.3752
33741SOL    HW2 5586  10.183   5.714   8.473 -1.2914 -0.5533 -0.8398
33742SOL     OW 5587   8.745  10.277   8.660  0.3078 -0.5160 -0.0542
33742SOL    HW1 5588   8.808  10.255   8.591 -0.6373 -1.0845 -0.7577
33742SOL    HW2 5589   8.659  10.261   8.620 -0.2535 -1.0761  1.3320
33743SOL     OW 5590   7.636   1.327  10.429 -0.3333  0.5971  0.2151
33743SOL    HW1 5591   7.543   1.347  10.416 -0.2501  2.1082  1.6415
33743SOL    HW2 5592   7.679   1.366  10.352 -0.7098  1.5748  0.4813
33744SOL     OW 5593   7.933   0.476   4.230  0.3084 -0.0323  0.0654
33744SOL    HW1 5594   7.841   0.497   4.247 -0.0624 -0.3750 -1.3996
33744SOL    HW2 5595   7.940   0.382   4.248  0.1224 -0.2132 -0.7666
33745SOL     OW 5596   0.205  10.929   5.150  0.6844  0.2593 -0.1862
33745SOL    HW1 5597   0.234  11.019   5.134  1.3048 -0.0737 -1.0352
33745SOL    HW2 5598   0.286  10.877   5.149  0.2269 -0.4600 -0.9020
33746SOL     OW 5599   8.935   1.851   1.590 -0.4283 -0.8500 -0.1988
33746SOL    HW1 5600   8.978   1.897   1.518 -0.1310 -1.4806 -0.4309
33746SOL    HW2 5601   8.922   1.919   1.657 -0.2989 -0.3597 -0.6636
33747SOL     OW 5602   7.646   3.994   7.602  0.1123  0.3398  0.0076
33747SOL    HW1 5603   7.718   4.057   7.589  0.4880 -0.2298 -0.7302
33747SOL    HW2 5604   7.688   3.918   7.642 -0.8241  1.6417  3.9454
33748SOL     OW 5605  10.252   5.487   4.968 -0.5363  0.2787 -0.3319
33748SOL    HW1 5606  10.277   5.430   4.896 -1.4804  0.3476 -0.7252
33748SOL    HW2 5607  10.278   5.439   5.047 -1.2040 -0.6414 -0.6596
33749SOL     OW 5608   1.070   6.882   1.371 -0.9205 -0.2655 -0.7988
33749SOL    HW1 5609   1.005   6.858   1.437 -0.7780  2.6205  0.5696
33749SOL    HW2 5610   1.019   6.906   1.294 -1.5072  1.2586  0.0201
33750SOL     OW 5611   2.034   3.140   4.685 -0.2849 -0.4514 -0.1240
33750SOL    HW1 5612   2.106   3.088   4.649  0.1317 -0.6328  0.9372
33750SOL    HW2 5613   2.051   3.141   4.779 -0.1035  1.8617 -0.1391
33751SOL     OW 5614   7.061   9.662   1.403  0.0523  0.1613 -0.0014
33751SOL    HW1 5615   6.995   9.699   1.345 -0.6895  1.5393  1.6238
33751SOL    HW2 5616   7.037   9.569   1.410 -0.9806  0.3770 -0.4262
33752SOL     OW 5617  11.002   2.181   2.875  0.1605 -0.7384 -0.2104
33752SOL    HW1 5618  10.981   2.099   2.830 -0.6664 -0.2330 -0.7864
33752SOL    HW2 5619  11.088   2.166   2.914  1.5038 -0.8052 -2.9818
33753SOL     OW 5620   4.462   2.927   6.143 -0.1810  0.4112 -0.0272
33753SOL    HW1 5621   4.438   2.835   6.147 -1.4133  0.6030 -1.7191
33753SOL    HW2 5622   4.552   2.927   6.111 -0.5049 -0.2060 -0.9762
33754SOL     OW 5623   1.561  11.060   9.840  0.1132 -0.6692  0.0734
33754SOL    HW1 5624   1.495  11.127   9.819  0.8091  0.0619  0.1546
33754SOL    HW2 5625   1.513  10.992   9.886 -0.8418 -0.7823 -1.0332
33755SOL     OW 5626   8.384  10.049   0.503 -0.0989  0.6653 -0.6912
33755SOL    HW1 5627   8.393  10.031   0.597 -0.5817  1.8993 -0.3901
33755SOL    HW2 5628   8.467  10.088   0.477  0.3564 -0.4596 -0.9900
33756SOL     OW 5629   0.644   4.059   4.784  0.9931 -0.3063  0.3130
33756SOL    HW1 5630   0.672   4.150   4.769 -0.0461 -0.0059  0.1195
33756SOL    HW2 5631   0.567   4.048   4.728  1.2805 -1.4074  0.1057
33757SOL     OW 5632   0.714   2.203   7.010  0.2874 -0.1946 -0.3742
33757SOL    HW1 5633   0.704   2.277   6.950  0.1403  2.2820  2.4572
33757SOL    HW2 5634   0.790   2.226   7.063 -0.9839 -1.0260  1.9228
33758SOL     OW 5635   6.769   4.281   1.128 -0.1730  0.2110  0.0402
33758SOL    HW1 5636   6.761   4.283   1.223 -0.8203  1.7977 -0.0068
33758SOL    HW2 5637   6.768   4.188   1.106  1.2217 -0.2285  1.6531
33759SOL     OW 5638   8.191   1.483  10.700  0.5387 -0.1475 -0.5651
33759SOL    HW1 5639   8.229   1.474  10.787  0.6540  0.8794 -0.4964
33759SOL    HW2 5640   8.266   1.491  10.642  0.5912 -3.7249 -1.1878
33760SOL     OW 5641   5.427   8.307   8.450 -0.1589  0.0609  0.5263
33760SOL    HW1 5642   5.444   8.282   8.540 -1.6642  0.4438  0.9355
33760SOL    HW2 5643   5.402   8.399   8.454 -3.3584 -0.6581  0.1866
33761SOL     OW 5644   3.783  11.102   5.065  0.0853  0.2327  0.4936
33761SOL    HW1 5645   3.735  11.090   5.147  0.6635  0.4543  0.8717
33761SOL    HW2 5646   3.821  11.016   5.047 -1.5778 -0.3214 -0.5464
33762SOL     OW 5647   9.225   0.317   8.754  0.1104 -0.2905  0.0630
33762SOL    HW1 5648   9.221   0.240   8.697 -0.9105  1.2090 -2.0381
33762SOL    HW2 5649   9.138   0.357   8.747  1.4522  2.7301 -1.4950
33763SOL     OW 5650   0.806   7.257   4.601  0.0458 -0.1060 -0.4209
33763SOL    HW1 5651   0.785   7.333   4.547  1.7171  0.5696 -0.1685
33763SOL    HW2 5652   0.764   7.184   4.556 -1.5262  0.9407 -0.7035
33764SOL     OW 5653  10.833   9.089   3.198 -0.0077 -0.2422 -0.5574
33764SOL    HW1 5654  10.765   9.117   3.259  0.2933 -2.0103  0.6733
33764SOL    HW2 5655  10.915   9.112   3.242  0.2057 -0.3491 -0.8978
33765SOL     OW 5656   6.779   0.929   4.980 -0.3910  0.5689 -0.0713
33765SOL    HW1 5657   6.707   0.876   4.945 -0.8636  1.7299 -0.9147
33765SOL    HW2 5658   6.736   1.006   5.017  0.4864  2.3503 -2.4912
33766SOL     OW 5659  11.098   0.621   5.748 -0.5830  0.5310  0.5065
33766SOL    HW1 5660  11.047   0.670   5.684 -1.0939  0.0147  0.5157
33766SOL    HW2 5661  11.130   0.688   5.809  0.1468  1.0624 -0.4388
33767SOL     OW 5662   2.148   4.474   1.401  0.4470 -0.4916  0.5367
33767SOL    HW1 5663   2.237   4.445   1.381  0.0082 -1.2065 -0.4590
33767SOL    HW2 5664   2.099   4.393   1.417 -0.2286 -0.1616  0.1749
33768SOL     OW 5665   9.705   3.625   5.357  0.4721  0.2059  0.1904
33768SOL    HW1 5666   9.614   3.651   5.339  1.1751  2.3726 -0.5373
33768SOL    HW2 5667   9.713   3.538   5.318 -1.0275  0.3638 -0.5665
33769SOL     OW 5668   0.890   1.748   4.865 -0.2025 -0.0181 -0.1739
33769SOL    HW1 5669   0.901   1.667   4.915 -0.4657  0.9319  1.4739
33769SOL    HW2 5670   0.956   1.807   4.900  0.9924  0.0495 -2.3981
33770SOL     OW 5671   2.380   7.961   6.861  0.4887 -0.4738 -0.2023
33770SOL    HW1 5672   2.319   7.962   6.935  0.5265 -1.5038 -0.1480
33770SOL    HW2 5673   2.432   8.041   6.872 -0.3938  0.0703  0.1273
33771SOL     OW 5674   5.767   4.163   5.766 -0.0731  0.4552 -0.3113
33771SOL    HW1 5675   5.745   4.184   5.857 -0.5211  1.3051 -0.6033
33771SOL    HW2 5676   5.683   4.161   5.721  0.2576  1.6887 -1.0287
33772SOL     OW 5677   2.170   6.162   4.069 -0.7255 -0.0507 -0.1766
33772SOL    HW1 5678   2.150   6.201   4.154  1.6911 -2.1579  1.5361
33772SOL    HW2 5679   2.261   6.186   4.053 -0.7976 -0.6347 -1.6076
33773SOL     OW 5680   3.011   7.651   4.110  0.4479 -0.1937  0.2403
33773SOL    HW1 5681   3.043   7.562   4.097 -0.2417 -0.3657 -0.2850
33773SOL    HW2 5682   2.967   7.674   4.028  1.3773  0.9591  0.0274
33774SOL     OW 5683   4.835   3.520   3.998  0.6121 -0.3799  0.6274
33774SOL    HW1 5684   4.882   3.468   4.063  1.6456  1.5115  1.4636
33774SOL    HW2 5685   4.893   3.523   3.922  0.7601 -0.0538  0.7541
33775SOL     OW 5686   8.842   9.952   4.066 -0.2255  0.0975  0.5873
33775SOL    HW1 5687   8.764   9.945   4.011 -0.4246 -2.3777  1.0715
33775SOL    HW2 5688   8.877  10.039   4.047 -1.1276 -0.0672 -2.2701
33776SOL     OW 5689   5.645   9.932  10.613 -0.7519 -0.0566 -0.0334
33776SOL    HW1 5690   5.664   9.940  10.519 -2.3748 -1.7193 -0.5689
33776SOL    HW2 5691   5.606   9.845  10.622 -1.4872  0.4313  2.0568
33777SOL     OW 5692   0.279   1.553   1.641  0.0026  0.1368 -0.2092
33777SOL    HW1 5693   0.293   1.644   1.614  0.0491  0.2085  0.0536
33777SOL    HW2 5694   0.228   1.559   1.721 -0.0575 -0.0724 -0.2312
33778SOL     OW 5695   4.040   3.132   2.341  0.0065 -0.1661 -0.2616
33778SOL    HW1 5696   4.001   3.056   2.297 -0.9613  0.3218 -0.2600
33778SOL    HW2 5697   4.133   3.127   2.319  0.0986 -1.7742  0.3540
33779SOL     OW 5698   1.666   1.140   5.675 -0.1455  0.3200 -0.1363
33779SOL    HW1 5699   1.745   1.194   5.681 -0.2402  0.4060  0.4233
33779SOL    HW2 5700   1.695   1.060   5.630 -0.2621  1.2912 -2.0357
33780SOL     OW 5701   0.763   2.472   5.230 -0.2974 -0.3599 -0.8953
33780SOL    HW1 5702   0.698   2.421   5.279  0.9715 -0.9420  0.2467
33780SOL    HW2 5703   0.846   2.429   5.250  0.7365  1.7263 -0.4980
33781SOL     OW 5704   9.402   3.051   0.643 -0.2901  0.1069 -0.5995
33781SOL    HW1 5705   9.313   3.035   0.611 -0.1158 -0.0294 -1.0294
33781SOL    HW2 5706   9.418   2.980   0.705 -0.0801 -0.5221 -1.3550
33782SOL     OW 5707   6.910   5.107   0.101  0.3807 -0.0819  0.3681
33782SOL    HW1 5708   6.886   5.185   0.051  0.8344  0.0694  0.3777
33782SOL    HW2 5709   6.953   5.142   0.180 -1.8517 -0.2393  1.7441
33783SOL     OW 5710   9.970   5.823   3.482  0.0233  0.2502  0.0492
33783SOL    HW1 5711  10.054   5.846   3.442 -1.0367  0.3415 -2.2576
33783SOL    HW2 5712   9.909   5.817   3.409 -2.3320  1.5342  1.7613
33784SOL     OW 5713   3.231  10.230   6.724 -0.1213 -0.1451  0.1190
33784SOL    HW1 5714   3.205  10.314   6.763  0.4436  0.1504 -0.1295
33784SOL    HW2 5715   3.149  10.194   6.688 -0.6404 -0.3897  1.4868
33785SOL     OW 5716   6.577   3.527   2.423  0.3946  0.4865  0.2044
33785SOL    HW1 5717   6.484   3.532   2.400 -0.1002 -0.5969  1.7886
33785SOL    HW2 5718   6.580   3.461   2.493  2.5048 -0.2859 -0.5532
33786SOL     OW 5719   9.701  10.398   7.606 -0.3522 -0.2641 -0.0419
33786SOL    HW1 5720   9.747  10.467   7.653 -3.1530  1.3857  0.5449
33786SOL    HW2 5721   9.636  10.366   7.668 -1.6109 -0.7340 -1.5267
33787SOL     OW 5722  10.985   7.585   7.855 -0.2977 -0.0656  0.7352
33787SOL    HW1 5723  11.077   7.570   7.833 -0.2616  0.1947  0.7009
33787SOL    HW2 5724  10.982   7.579   7.951 -0.6552 -2.3010  0.6472
33788SOL     OW 5725   5.827   7.849   1.715  0.1059 -0.5558  0.1316
33788SOL    HW1 5726   5.841   7.775   1.775 -0.2649 -1.5827 -0.9921
33788SOL    HW2 5727   5.772   7.813   1.645 -0.3151  0.8755 -0.3069
33789SOL     OW 5728   9.872   2.495   1.958 -0.1402 -0.1566 -0.1671
33789SOL    HW1 5729   9.933   2.485   2.031  0.2202 -0.5756 -0.5245
33789SOL    HW2 5730   9.851   2.589   1.957 -0.8908 -0.2860  1.0605
33790SOL     OW 5731   6.738   5.300   2.319 -0.0156 -0.2079  0.3444
33790SOL    HW1 5732   6.778   5.248   2.250 -1.8560 -1.5615  0.2150
33790SOL    HW2 5733   6.802   5.369   2.337  1.6481 -1.3378 -0.8702
33791SOL     OW 5734   5.614   3.086  10.667  0.3969 -0.4241  0.1138
33791SOL    HW1 5735   5.629   3.059  10.757  0.5869 -0.3526  0.1048
33791SOL    HW2 5736   5.589   3.006  10.621  1.1170 -0.6202  0.0490
33792SOL     OW 5737   8.839   7.755   1.273  0.7160 -0.0173 -0.2236
33792SOL    HW1 5738   8.751   7.721   1.294 -0.2530  2.5529  0.1793
33792SOL    HW2 5739   8.873   7.785   1.357  0.5832  2.0069 -0.8489
33793SOL     OW 5740   1.022   5.009   6.195  0.3512 -0.2147  0.3755
33793SOL    HW1 5741   1.017   5.097   6.234  1.5617 -0.4242  1.0718
33793SOL    HW2 5742   1.106   5.009   6.149 -0.3429 -0.5088 -0.9336
33794SOL     OW 5743   3.372   9.477   2.185 -0.0039 -0.0429 -0.3887
33794SOL    HW1 5744   3.333   9.550   2.137 -0.6042  0.2276  0.4806
33794SOL    HW2 5745   3.461   9.470   2.151  0.7438  2.3836  0.8665
33795SOL     OW 5746   9.481   2.443   2.879 -0.6416  0.4723  0.4554
33795SOL    HW1 5747   9.482   2.382   2.953 -0.4105  0.3186  0.3239
33795SOL    HW2 5748   9.573   2.463   2.863 -0.5096 -1.1777 -1.1861
33796SOL     OW 5749   1.275   3.296   9.472  0.3977  0.1882 -0.0195
33796SOL    HW1 5750   1.187   3.325   9.498  0.8189 -0.0092  1.7238
33796SOL    HW2 5751   1.273   3.201   9.486  1.1793  0.3082  0.9864
33797SOL     OW 5752   3.878   8.233   0.617 -0.3304 -0.2558 -0.2893
33797SOL    HW1 5753   3.931   8.313   0.623  0.2681 -0.6409 -0.3018
33797SOL    HW2 5754   3.794   8.262   0.582 -0.9096  0.7182  1.7526
33798SOL     OW 5755   0.810   7.547  10.893 -0.0283 -0.0845  0.5217
33798SOL    HW1 5756   0.821   7.458  10.860 -1.1289 -0.2653  0.5942
33798SOL    HW2 5757   0.890   7.592  10.868  0.8015 -1.2383  0.9612
33799SOL     OW 5758   9.313  10.408   8.993 -0.3400 -0.4058  1.1853
33799SOL    HW1 5759   9.356  10.323   8.977  0.2949  0.1538 -0.3334
33799SOL    HW2 5760   9.377  10.472   8.962 -2.0956  0.4891 -0.8433
33800SOL     OW 5761   0.640   6.093   1.561 -0.5142 -0.2277 -0.1588
33800SOL    HW1 5762   0.566   6.040   1.532 -1.6788  0.8596  0.7332
33800SOL    HW2 5763   0.663   6.056   1.647 -0.3723 -0.2289 -0.1981
33801SOL     OW 5764   9.392   8.910   9.643 -0.1349 -0.1830  0.1862
33801SOL    HW1 5765   9.432   8.961   9.713 -0.7888  0.5221  0.0671
33801SOL    HW2 5766   9.464   8.859   9.606 -0.0557 -1.8282  2.4086
33802SOL     OW 5767   9.021   8.192   0.377 -0.3925 -0.6736 -0.2111
33802SOL    HW1 5768   8.978   8.177   0.462  1.7291 -0.7596  0.9276
33802SOL    HW2 5769   8.969   8.142   0.314 -0.0352 -3.5899  1.6246
33803SOL     OW 5770   9.217   2.609   0.428  0.4392 -0.8408  0.1049
33803SOL    HW1 5771   9.182   2.602   0.517 -0.9791  0.2572 -0.3372
33803SOL    HW2 5772   9.301   2.653   0.439  0.4444 -1.0317  0.9223
33804SOL     OW 5773   1.059  10.991   7.476  0.2673 -0.0325 -0.6525
33804SOL    HW1 5774   1.079  10.909   7.431  0.8397 -0.7101  0.7620
33804SOL    HW2 5775   1.134  11.006   7.532 -0.3293  0.8854 -0.0725
33805SOL     OW 5776   9.439   6.617   0.574 -0.3932 -0.6427 -0.2488
33805SOL    HW1 5777   9.363   6.577   0.617  0.1264 -0.8597  0.4877
33805SOL    HW2 5778   9.478   6.546   0.523 -0.2825 -0.7143 -0.0655
33806SOL     OW 5779   2.765   3.868   2.184 -0.1419 -1.0956 -0.5855
33806SOL    HW1 5780   2.834   3.806   2.207  0.3659 -0.4229 -0.2450
33806SOL    HW2 5781   2.715   3.879   2.266  0.3046 -0.3964 -0.4019
33807SOL     OW 5782   2.672   7.473   8.939  0.0699  0.6625  0.4941
33807SOL    HW1 5783   2.651   7.544   8.879  1.5719  0.5984 -0.1516
33807SOL    HW2 5784   2.616   7.488   9.015  1.8927  3.9376  1.3962
33808SOL     OW 5785   8.542   3.997   0.957  0.0749 -0.5293 -0.3489
33808SOL    HW1 5786   8.516   4.063   1.021 -1.9666 -1.7165  0.1417
33808SOL    HW2 5787   8.623   3.960   0.993  0.5060  0.7555  0.0571
33809SOL     OW 5788   9.186   7.509   7.160  0.3546  0.4354 -0.5090
33809SOL    HW1 5789   9.231   7.482   7.240 -0.1053 -0.5648 -0.5719
33809SOL    HW2 5790   9.254   7.551   7.107  0.8901  0.1832 -0.0289
33810SOL     OW 5791   3.037   8.181   4.148 -0.2361  0.3074 -0.0785
33810SOL    HW1 5792   2.995   8.137   4.074  1.2374 -0.9436 -0.2310
33810SOL    HW2 5793   3.027   8.275   4.129 -0.8201  0.0242 -1.2994
33811SOL     OW 5794   8.697  10.216   5.096 -0.5320 -0.4583 -0.3420
33811SOL    HW1 5795   8.670  10.126   5.115  1.8787 -1.0121  0.8346
33811SOL    HW2 5796   8.759  10.238   5.165 -1.4765  2.3724 -0.2491
33812SOL     OW 5797   9.270   5.134   6.256 -0.7534  0.4740  0.0905
33812SOL    HW1 5798   9.351   5.135   6.306  0.5862 -0.1825 -1.9467
33812SOL    HW2 5799   9.297   5.116   6.166 -3.1054  0.8640 -0.7758
33813SOL     OW 5800   9.617   0.178   0.340  0.5895 -0.1527 -0.0853
33813SOL    HW1 5801   9.621   0.086   0.316  1.5861  0.1652 -1.2324
33813SOL    HW2 5802   9.699   0.216   0.308 -0.9773  1.7120 -2.2717
33814SOL     OW 5803   3.572   8.771   7.960  0.0955 -0.2007  0.0228
33814SOL    HW1 5804   3.582   8.729   8.045 -1.1064  0.3700  0.4709
33814SOL    HW2 5805   3.491   8.821   7.967  0.6473  0.9069 -1.0183
33815SOL     OW 5806   2.209   7.089   2.080  0.4224 -0.1710 -0.2275
33815SOL    HW1 5807   2.245   7.151   2.016  0.2449 -1.0449 -1.2016
33815SOL    HW2 5808   2.122   7.123   2.099  0.4792  0.1017 -0.4407
33816SOL     OW 5809   3.013   8.584   0.139  0.0858  0.2143 -0.6682
33816SOL    HW1 5810   2.929   8.549   0.108  0.4420  0.4627 -1.9622
33816SOL    HW2 5811   3.059   8.508   0.175 -0.6606  0.0684  0.0122
33817SOL     OW 5812  11.036   3.579   6.178  0.1439 -0.5733  0.1903
33817SOL    HW1 5813  11.008   3.488   6.173 -0.7264 -0.3231  0.4516
33817SOL    HW2 5814  10.956   3.631   6.167 -0.6668  0.1652  6.2467
33818SOL     OW 5815   4.984   6.621   9.596  0.3555  0.2326  0.1562
33818SOL    HW1 5816   4.908   6.672   9.625 -0.8162 -2.2015  1.7466
33818SOL    HW2 5817   5.058   6.661   9.641 -0.4017  0.9399  0.8153
33819SOL     OW 5818   9.283   0.384   2.657  0.7914 -0.3116  0.1416
33819SOL    HW1 5819   9.202   0.371   2.706  0.2905  1.0596 -0.2738
33819SOL    HW2 5820   9.325   0.459   2.700  1.8034 -0.9523  0.2954
33820SOL     OW 5821   9.978   4.644   4.751  0.3458 -0.2687 -0.1285
33820SOL    HW1 5822   9.924   4.577   4.794 -0.5524  0.6888  0.2917
33820SOL    HW2 5823  10.021   4.690   4.823  1.8203 -1.0587 -0.4641
33821SOL     OW 5824   4.796   8.571   5.396  0.1220  0.4342 -0.1087
33821SOL    HW1 5825   4.830   8.491   5.437 -1.2447 -0.1033  0.0002
33821SOL    HW2 5826   4.795   8.550   5.302  0.8979  0.7761 -0.2050
33822SOL     OW 5827   3.131   2.500   5.992  0.3105  0.5049 -0.2574
33822SOL    HW1 5828   3.142   2.418   6.040 -2.8857 -0.4762 -0.9656
33822SOL    HW2 5829   3.116   2.566   6.060  0.0036 -0.0753  0.2444
33823SOL     OW 5830   4.572   5.945   9.944 -0.4820  0.3002  0.5348
33823SOL    HW1 5831   4.595   6.037   9.956  0.1240  0.3177 -0.5654
33823SOL    HW2 5832   4.476   5.943   9.944 -0.4988  0.7946  1.3943
33824SOL     OW 5833   6.218   9.932   5.854 -0.4661 -0.0935 -0.4267
33824SOL    HW1 5834   6.289   9.917   5.790  0.0965 -0.6706  0.3130
33824SOL    HW2 5835   6.231  10.023   5.883 -0.0375 -0.1817 -0.3228
33825SOL     OW 5836   3.223   6.697   4.751  0.3574  0.3164 -0.2131
33825SOL    HW1 5837   3.301   6.654   4.717 -0.4236  0.2163 -1.9855
33825SOL    HW2 5838   3.151   6.658   4.702 -0.7913  0.6066  1.1860
33826SOL     OW 5839   3.225   9.750   4.686 -0.2314  0.1791  0.6845
33826SOL    HW1 5840   3.286   9.735   4.614 -0.6603 -2.1056  0.7126
33826SOL    HW2 5841   3.277   9.792   4.754  1.6092 -2.4551  1.0315
33827SOL     OW 5842   5.246   6.023   7.636  0.4066 -0.6318 -0.6457
33827SOL    HW1 5843   5.315   6.075   7.676  0.0824 -0.2233 -0.6098
33827SOL    HW2 5844   5.252   5.938   7.679 -2.4384  0.8708  3.3161
33828SOL     OW 5845   1.899  10.048   5.899 -0.6869  0.1611 -0.4175
33828SOL    HW1 5846   1.914   9.999   5.979 -0.1801  0.2289 -0.4711
33828SOL    HW2 5847   1.986  10.069   5.866 -0.8756 -0.2605 -1.2304
33829SOL     OW 5848  10.338   0.903   6.337  0.7357  0.0121 -0.0864
33829SOL    HW1 5849  10.315   0.961   6.264  0.8642  1.0418  0.6696
33829SOL    HW2 5850  10.354   0.962   6.410  1.2723 -0.9680  0.6077
33830SOL     OW 5851   3.617   4.281   6.712  0.0501  0.2478 -0.3150
33830SOL    HW1 5852   3.643   4.372   6.696 -0.9711  0.4968 -0.6783
33830SOL    HW2 5853   3.524   4.278   6.686 -0.2115 -0.6481  0.6551
33831SOL     OW 5854   0.880   0.131  10.449  0.4287 -0.5695 -0.2091
33831SOL    HW1 5855   0.947   0.077  10.491  1.5076  0.2137 -0.8516
33831SOL    HW2 5856   0.821   0.069  10.406 -0.8997 -1.4273  2.6303
33832SOL     OW 5857   2.022   9.731   4.565  0.3193  0.5745  0.5636
33832SOL    HW1 5858   2.013   9.826   4.572  0.8246  0.6043  0.8179
33832SOL    HW2 5859   1.982   9.697   4.645 -0.1713  0.5531  0.3117
33833SOL     OW 5860   2.869   3.044   9.326 -0.3050 -0.1523 -0.3830
33833SOL    HW1 5861   2.947   3.042   9.271  0.6872  2.3138  0.7544
33833SOL    HW2 5862   2.850   2.952   9.346  0.5898 -0.9733 -2.9549
33834SOL     OW 5863  10.450   2.831   2.324  0.0679  0.5010 -0.0659
33834SOL    HW1 5864  10.469   2.899   2.260 -0.1402  0.1180 -0.5353
33834SOL    HW2 5865  10.466   2.749   2.278  1.1823  0.2335  0.7707
33835SOL     OW 5866   5.091   8.098  10.466 -0.2482 -0.1386 -0.1414
33835SOL    HW1 5867   5.018   8.159  10.479 -0.9777 -0.8169 -0.8722
33835SOL    HW2 5868   5.103   8.095  10.371  0.5806 -0.2111 -0.0362
33836SOL     OW 5869   1.206   4.235   8.051  0.6000 -0.5072  0.0805
33836SOL    HW1 5870   1.113   4.213   8.060  0.5695  0.1600  1.6648
33836SOL    HW2 5871   1.209   4.298   7.979 -0.0661 -1.1218 -0.5001
33837SOL     OW 5872   0.437   1.521   0.611 -0.1739  0.1173  0.0398
33837SOL    HW1 5873   0.509   1.491   0.555 -1.2654 -1.6890 -0.4915
33837SOL    HW2 5874   0.364   1.534   0.550 -0.7287  0.4349  0.7602
33838SOL     OW 5875   0.687   7.647   0.020  0.3472 -0.4151  0.1027
33838SOL    HW1 5876   0.738   7.601  -0.046 -1.6533 -1.8564 -0.5416
33838SOL    HW2 5877   0.745   7.654   0.096  2.2017  0.0002 -1.3119
33839SOL     OW 5878  10.044   3.519   2.194  0.8485  0.0581  0.4399
33839SOL    HW1 5879  10.077   3.597   2.149 -0.9730  0.5193 -0.1849
33839SOL    HW2 5880  10.031   3.546   2.285  0.5376  0.4029  0.2964
33840SOL     OW 5881   6.818   5.105   7.471  0.4018  0.1784  0.2290
33840SOL    HW1 5882   6.745   5.043   7.472  0.4811  0.0577 -0.7003
33840SOL    HW2 5883   6.777   5.190   7.461  0.4038  0.0351 -1.2747
33841SOL     OW 5884   3.720   5.600   1.695  0.2833 -0.5924  0.2603
33841SOL    HW1 5885   3.698   5.524   1.749 -0.4162  0.3859  1.3963
33841SOL    HW2 5886   3.636   5.627   1.657  0.4288 -0.0463  0.3193
33842SOL     OW 5887   4.778   8.280   4.099 -0.7893 -0.1732  0.0607
33842SOL    HW1 5888   4.708   8.263   4.163 -0.1986 -0.3886  0.6549
33842SOL    HW2 5889   4.772   8.373   4.080 -2.0866 -0.4182 -0.9001
33843SOL     OW 5890   7.490   5.422   1.949  0.1726  0.0899 -0.3757
33843SOL    HW1 5891   7.537   5.394   2.027  1.1038 -2.0520 -1.5990
33843SOL    HW2 5892   7.434   5.347   1.926  1.4606 -0.2382 -2.8485
33844SOL     OW 5893   9.381   7.671  10.853 -0.0262  0.0519 -0.6422
33844SOL    HW1 5894   9.434   7.707  10.781  0.4067 -1.0969 -0.9186
33844SOL    HW2 5895   9.415   7.714  10.931  0.8390 -0.1256 -0.9057
33845SOL     OW 5896   4.673   4.032   7.719  0.1549 -0.3775 -0.7172
33845SOL    HW1 5897   4.609   3.970   7.754 -0.5609  0.2812 -0.8424
33845SOL    HW2 5898   4.741   4.036   7.786 -1.3111  1.0580  0.8088
33846SOL     OW 5899   0.913   5.649   0.166 -0.3153  0.2870 -0.0532
33846SOL    HW1 5900   0.822   5.622   0.153  0.2389 -1.5206 -0.4221
33846SOL    HW2 5901   0.908   5.717   0.233 -1.8545 -0.5997  0.7881
33847SOL     OW 5902   9.745   2.620   5.429  0.1383  0.2435 -0.0910
33847SOL    HW1 5903   9.838   2.598   5.417 -0.1511 -0.3798 -1.3470
33847SOL    HW2 5904   9.729   2.688   5.364 -0.7322 -0.9807 -1.1977
33848SOL     OW 5905   9.939   7.217   3.844  0.0539  0.0362 -0.2954
33848SOL    HW1 5906  10.028   7.182   3.858  0.2908  0.3838 -0.9034
33848SOL    HW2 5907   9.952   7.295   3.791 -0.6799 -0.3454 -1.0618
33849SOL     OW 5908   0.617   5.919   9.406  0.3074  0.2821 -0.1599
33849SOL    HW1 5909   0.539   5.863   9.405 -0.9580  1.9746 -0.6710
33849SOL    HW2 5910   0.624   5.949   9.496  0.7311 -0.3181  0.0154
33850SOL     OW 5911   3.322   6.793   3.699 -0.3625  0.1667  0.9476
33850SOL    HW1 5912   3.317   6.721   3.637  1.5181 -0.1182  1.0661
33850SOL    HW2 5913   3.318   6.750   3.785 -0.2858  0.3087  1.0215
33851SOL     OW 5914  10.328   5.081   5.930  0.0097  0.7501 -0.4717
33851SOL    HW1 5915  10.330   4.985   5.921  1.2879  0.3118  2.9363
33851SOL    HW2 5916  10.257   5.097   5.992 -1.2849  2.2412 -2.2525
33852SOL     OW 5917   7.595   8.736   8.037  0.2559 -0.0970  0.2106
33852SOL    HW1 5918   7.522   8.746   8.098  1.0723 -1.5308  1.4979
33852SOL    HW2 5919   7.586   8.809   7.976 -0.3738  1.6431  2.2854
33853SOL     OW 5920   2.903  10.916  10.332  0.5334  0.5567 -0.0210
33853SOL    HW1 5921   2.920  10.838  10.280 -1.5203  0.7377 -1.0747
33853SOL    HW2 5922   2.899  10.885  10.423  0.8981 -0.3546 -0.3165
33854SOL     OW 5923   0.646   8.421   1.352  0.5269  0.1087  0.1888
33854SOL    HW1 5924   0.581   8.463   1.408  0.7658  0.0747  0.4955
33854SOL    HW2 5925   0.724   8.474   1.363  0.4390  0.3735 -0.4785
33855SOL     OW 5926  10.395   9.411   2.719 -0.2794  0.3259  0.0107
33855SOL    HW1 5927  10.404   9.492   2.769 -2.2523  0.1924  0.6803
33855SOL    HW2 5928  10.339   9.435   2.645 -0.3430 -0.2634 -0.1394
33856SOL     OW 5929   5.543   2.880   5.522 -0.3240 -0.2039  0.4653
33856SOL    HW1 5930   5.500   2.804   5.563 -1.9232  1.3521  1.8104
33856SOL    HW2 5931   5.583   2.927   5.595 -0.7319  1.0987 -0.1366
33857SOL     OW 5932   4.326   0.875   7.013 -0.3324 -0.3579 -0.0890
33857SOL    HW1 5933   4.296   0.805   7.071  0.4215  1.8220  3.1559
33857SOL    HW2 5934   4.407   0.841   6.975 -0.3684 -1.5237  0.8213
33858SOL     OW 5935   6.470   7.294   5.629  0.2516  0.6678 -0.0792
33858SOL    HW1 5936   6.463   7.323   5.720  0.7310  0.1150  0.1353
33858SOL    HW2 5937   6.403   7.226   5.620  0.1684  0.7596 -0.1544
33859SOL     OW 5938   2.494   9.627   6.122 -0.0133 -0.0650 -0.3504
33859SOL    HW1 5939   2.549   9.691   6.166  2.6931 -3.5083  1.7158
33859SOL    HW2 5940   2.537   9.613   6.038  0.2119 -0.2400 -0.2040
33860SOL     OW 5941   4.907   1.570   5.443 -0.0842  0.2665 -0.5098
33860SOL    HW1 5942   4.942   1.623   5.516 -2.3063  0.2293  0.6640
33860SOL    HW2 5943   4.925   1.480   5.469  1.1818  0.3026 -1.1653
33861SOL     OW 5944   7.304   5.084   8.395 -0.3722 -0.3732 -0.3982
33861SOL    HW1 5945   7.349   5.091   8.311  0.5728 -2.6925 -0.1681
33861SOL    HW2 5946   7.215   5.055   8.373 -0.2817 -0.4827 -0.6178
33862SOL     OW 5947  10.334  10.693   0.982  0.2757  0.0083 -0.2901
33862SOL    HW1 5948  10.305  10.783   0.968  0.4908 -0.0437 -1.1134
33862SOL    HW2 5949  10.417  10.687   0.935 -0.2305 -0.9034 -1.1169
33863SOL     OW 5950  10.694   6.513   1.343 -0.2342 -0.0034  0.0724
33863SOL    HW1 5951  10.674   6.420   1.336 -0.6724 -0.0098  1.2727
33863SOL    HW2 5952  10.766   6.518   1.405 -0.5495  0.4949  0.4099
33864SOL     OW 5953   5.189   2.238   9.214  0.0085  0.1929  0.6004
33864SOL    HW1 5954   5.276   2.202   9.230  1.5635  2.9225 -1.0330
33864SOL    HW2 5955   5.167   2.210   9.125 -0.3117  0.4311  0.6041
33865SOL     OW 5956   4.241   2.082   4.748  0.4715  0.2753 -0.1512
33865SOL    HW1 5957   4.200   2.072   4.662  1.3900 -3.3031 -0.3452
33865SOL    HW2 5958   4.251   2.177   4.759 -1.7624  0.9706 -2.9301
33866SOL     OW 5959   3.425   9.892   6.607 -0.1868 -0.1165  0.5285
33866SOL    HW1 5960   3.461   9.923   6.525 -2.0743  2.1914  0.4738
33866SOL    HW2 5961   3.501   9.873   6.662  1.0743 -0.2048 -1.1778
33867SOL     OW 5962   6.625   2.225   2.547 -0.4770 -0.3780  0.2657
33867SOL    HW1 5963   6.552   2.286   2.545 -1.7397 -1.7705  1.4326
33867SOL    HW2 5964   6.644   2.212   2.640  1.4756  0.1639 -0.0052
33868SOL     OW 5965   7.460   3.142   0.514  0.2539  0.0524  0.1128
33868SOL    HW1 5966   7.541   3.116   0.472 -1.0910 -2.9334 -0.9249
33868SOL    HW2 5967   7.408   3.183   0.445  0.7819  1.9608  0.7733
33869SOL     OW 5968   8.243   1.289   4.692  0.2892  0.1227  0.5958
33869SOL    HW1 5969   8.265   1.234   4.617 -0.5119 -0.6774  0.9236
33869SOL    HW2 5970   8.206   1.368   4.653  1.3644  0.4025  0.1219
33870SOL     OW 5971   6.276   7.925   1.675  0.2878  0.2791  0.0448
33870SOL    HW1 5972   6.329   7.845   1.670  0.1757  0.2688 -2.0819
33870SOL    HW2 5973   6.340   7.996   1.682  0.5234  0.1457 -0.6468
33871SOL     OW 5974   0.294   2.006   4.216  0.0527 -0.2901 -0.2719
33871SOL    HW1 5975   0.305   1.989   4.310 -0.4605  0.9494  0.0351
33871SOL    HW2 5976   0.240   2.085   4.212  2.4809  1.4241 -1.5658
33872SOL     OW 5977   2.415   2.862   5.071 -0.5405 -0.2005 -0.3309
33872SOL    HW1 5978   2.451   2.924   5.135  1.7845 -1.5944 -0.1549
33872SOL    HW2 5979   2.418   2.778   5.116  0.6794 -1.1325 -2.0351
33873SOL     OW 5980   8.491   0.174   7.517 -0.0287  0.3252 -0.2090
33873SOL    HW1 5981   8.507   0.084   7.547 -0.4585 -0.2575 -1.6827
33873SOL    HW2 5982   8.511   0.228   7.594 -1.5797 -1.1345  1.2922
33874SOL     OW 5983  10.129   9.633  10.643 -0.4650  0.3173  0.2249
33874SOL    HW1 5984  10.101   9.680  10.565 -1.7136 -0.6524  0.0538
33874SOL    HW2 5985  10.202   9.685  10.678 -1.0367  1.7177 -0.5875
33875SOL     OW 5986   1.561   2.677   2.391 -0.2079  0.1791  0.2138
33875SOL    HW1 5987   1.578   2.659   2.299  1.3228 -0.5285  0.5934
33875SOL    HW2 5988   1.529   2.594   2.427 -0.9025  0.4801  0.3085
33876SOL     OW 5989   1.250   2.858   1.532 -0.5523 -0.1214  0.3343
33876SOL    HW1 5990   1.193   2.887   1.603  0.2908  0.4832  0.7849
33876SOL    HW2 5991   1.314   2.929   1.522 -0.7925 -0.0804 -1.1990
33877SOL     OW 5992   8.997   1.672  10.924  0.4401  0.9397 -0.2727
33877SOL    HW1 5993   9.050   1.641  10.997  0.5719  0.3837 -0.6028
33877SOL    HW2 5994   9.059   1.719  10.867  0.9798 -1.2242 -1.5697
33878SOL     OW 5995   8.657   7.293  10.471  0.3099  0.8236 -0.1705
33878SOL    HW1 5996   8.606   7.289  10.552 -0.3745  2.2367 -0.4896
33878SOL    HW2 5997   8.638   7.379  10.435  0.7283  0.2973 -1.7595
33879SOL     OW 5998   9.321   4.074   1.671  0.9240  0.4314  0.7389
33879SOL    HW1 5999   9.275   4.152   1.701 -0.4929 -0.0843  0.0370
33879SOL    HW2 6000   9.266   4.040   1.599  1.2446 -1.4415  1.3199
33880SOL     OW 6001   9.272   7.420   9.657 -0.1355  0.7279 -0.4596
33880SOL    HW1 6002   9.187   7.460   9.641 -0.2427  0.7651  0.1546
33880SOL    HW2 6003   9.252   7.331   9.685  0.0425  0.6431 -0.5990
33881SOL     OW 6004   7.424   8.518   4.679  0.2374  0.0682 -0.2023
33881SOL    HW1 6005   7.412   8.486   4.589 -0.0221 -0.9631  0.1916
33881SOL    HW2 6006   7.391   8.608   4.677 -0.2032 -0.1040 -1.0301
33882SOL     OW 6007   2.737   9.684   4.766  0.2550  0.0857  0.7885
33882SOL    HW1 6008   2.677   9.660   4.836 -0.9819 -0.4045 -0.3885
33882SOL    HW2 6009   2.813   9.721   4.811 -0.1473 -0.9405  2.4138
33883SOL     OW 6010   2.990   8.164   4.449  0.1118  0.0834 -1.0538
33883SOL    HW1 6011   3.030   8.146   4.364  0.7447 -1.3819 -0.4749
33883SOL    HW2 6012   2.916   8.102   4.453  0.8734 -0.7863 -0.0178
33884SOL     OW 6013   4.214   1.356   4.930  0.1887  0.4335 -0.3166
33884SOL    HW1 6014   4.293   1.366   4.985 -0.7413  1.0112  0.9645
33884SOL    HW2 6015   4.155   1.302   4.983  0.1888 -1.1203 -1.8129
33885SOL     OW 6016   2.239  10.053   5.802  0.7932  0.5267 -0.1598
33885SOL    HW1 6017   2.295   9.980   5.775  1.4153  0.6269  0.8310
33885SOL    HW2 6018   2.289  10.099   5.868 -0.7234  0.2233  1.2789
33886SOL     OW 6019   9.641   8.047   3.294  0.3324 -0.2101  0.2559
33886SOL    HW1 6020   9.730   8.054   3.328  0.5769  0.2584 -0.4436
33886SOL    HW2 6021   9.648   7.982   3.223  0.7529  1.8327 -1.6886
33887SOL     OW 6022   9.707   8.608  10.217  0.4977 -0.0598 -0.0732
33887SOL    HW1 6023   9.698   8.513  10.213 -0.3932 -0.0460  1.0373
33887SOL    HW2 6024   9.735   8.625  10.307  2.0577  0.6450 -0.6678
33888SOL     OW 6025   6.346   6.077   6.391  0.0091 -0.3183  0.5014
33888SOL    HW1 6026   6.333   5.986   6.418  0.4413 -0.3678  0.5559
33888SOL    HW2 6027   6.274   6.125   6.431  2.1127  0.1179  4.2363
33889SOL     OW 6028   1.704  10.944   2.362  0.5483 -0.7397 -0.4084
33889SOL    HW1 6029   1.708  11.018   2.423 -1.5608 -0.2787 -0.7445
33889SOL    HW2 6030   1.791  10.904   2.366  1.1440  0.6245  1.1990
33890SOL     OW 6031   2.348   6.637   5.100 -0.0885  0.3772 -0.5168
33890SOL    HW1 6032   2.372   6.547   5.123 -0.5193  0.3653 -0.0895
33890SOL    HW2 6033   2.363   6.687   5.181  0.6850  0.7983 -0.9120
33891SOL     OW 6034   9.608   0.822   1.037  0.5704  0.0875 -0.4902
33891SOL    HW1 6035   9.599   0.796   0.946  1.1862  2.0595 -1.1743
33891SOL    HW2 6036   9.702   0.813   1.056  0.3846 -0.7042  0.0865
33892SOL     OW 6037   5.434   8.950   0.612 -0.0400 -0.6020 -0.2479
33892SOL    HW1 6038   5.520   8.983   0.586 -0.7232  1.4003 -0.1761
33892SOL    HW2 6039   5.385   8.943   0.530 -0.2284 -0.3928 -0.1550
33893SOL     OW 6040   4.757   1.291   7.026 -0.2600 -0.0362 -0.1848
33893SOL    HW1 6041   4.847   1.325   7.021 -0.3297  0.0932 -0.6083
33893SOL    HW2 6042   4.751   1.229   6.953 -0.1114 -1.0331  0.6209
33894SOL     OW 6043   3.264   7.884   2.295 -0.1578  0.0440  0.0981
33894SOL    HW1 6044   3.190   7.920   2.343  0.0477  1.8265 -0.8440
33894SOL    HW2 6045   3.317   7.960   2.271  1.9554 -1.1512  0.6569
33895SOL     OW 6046   3.290   4.959   3.120  0.1164  0.3939 -0.0973
33895SOL    HW1 6047   3.212   4.987   3.073  0.2868  1.5550  0.2791
33895SOL    HW2 6048   3.302   5.024   3.189  0.3543 -0.8057  1.0377
33896SOL     OW 6049   4.534   6.143   4.244 -0.7046  0.0371 -0.4756
33896SOL    HW1 6050   4.623   6.136   4.277 -1.2117  0.7427  1.1504
33896SOL    HW2 6051   4.542   6.197   4.165  0.3668 -0.4687 -0.7340
33897SOL     OW 6052   1.148   0.870   9.934 -0.1414  0.2287  0.1177
33897SOL    HW1 6053   1.095   0.805   9.981 -0.1223  0.1521  0.0343
33897SOL    HW2 6054   1.086   0.940   9.913 -0.0122  0.5567  0.8085
33898SOL     OW 6055   6.609   8.109   5.535  0.1228  0.4895  0.2823
33898SOL    HW1 6056   6.594   8.053   5.611  0.7405 -0.2837 -0.1491
33898SOL    HW2 6057   6.648   8.189   5.572 -0.3565  0.4606  0.8572
33899SOL     OW 6058   7.441   2.069   4.236 -0.0160 -0.2661  0.8108
33899SOL    HW1 6059   7.459   1.976   4.246  1.0765 -0.1507  0.1528
33899SOL    HW2 6060   7.373   2.088   4.300  1.2388 -1.0894  2.4771
33900SOL     OW 6061   4.698   4.449   6.623 -0.0718 -0.0419 -0.4889
33900SOL    HW1 6062   4.748   4.367   6.629 -1.0501 -0.8122 -1.9975
33900SOL    HW2 6063   4.619   4.433   6.675 -0.5626 -0.3397 -1.2900
33901SOL     OW 6064   1.566   3.558  10.240 -0.6215 -0.3339 -0.6460
33901SOL    HW1 6065   1.523   3.643  10.231  1.5110  0.8217 -0.6728
33901SOL    HW2 6066   1.649   3.569  10.194  0.6661 -1.7024  1.2104
33902SOL     OW 6067   6.443  10.282   3.564 -0.2947  0.0167  0.8145
33902SOL    HW1 6068   6.529  10.315   3.540 -0.4683  1.3491  1.9235
33902SOL    HW2 6069   6.387  10.301   3.489  0.1865 -0.1155  0.4196
33903SOL     OW 6070   9.744   7.649   1.605 -0.7785  0.0648 -0.9086
33903SOL    HW1 6071   9.657   7.686   1.593  0.1918  2.4199 -1.2414
33903SOL    HW2 6072   9.791   7.671   1.524  0.2378 -0.8151 -0.5836
33904SOL     OW 6073   6.613   6.524  10.234  0.4242 -0.2516 -0.3308
33904SOL    HW1 6074   6.616   6.469  10.155  0.6440  0.5247 -0.8752
33904SOL    HW2 6075   6.702   6.521  10.268  0.7849  0.8206 -1.1169
33905SOL     OW 6076   3.977   4.420   6.875  0.4427  0.7887  0.7234
33905SOL    HW1 6077   3.998   4.344   6.930  0.8294  0.0924 -0.3529
33905SOL    HW2 6078   3.894   4.452   6.910 -0.2083 -0.7104  0.6280
33906SOL     OW 6079  11.014   7.099   5.604 -0.0885  0.1622 -0.0221
33906SOL    HW1 6080  11.023   7.096   5.509  1.5481  0.7767  0.0752
33906SOL    HW2 6081  11.072   7.170   5.631  0.4123 -0.7870  1.5271
33907SOL     OW 6082   4.818   2.942   1.269 -0.0313  0.0240  0.2543
33907SOL    HW1 6083   4.733   2.978   1.246 -0.2879  0.1738  1.3727
33907SOL    HW2 6084   4.880   2.987   1.211 -0.6563  0.2447 -0.2493
33908SOL     OW 6085   8.449   1.989   2.601 -0.3907 -0.1091  0.4266
33908SOL    HW1 6086   8.388   2.063   2.600 -0.0947  0.1294 -0.4444
33908SOL    HW2 6087   8.415   1.932   2.670 -1.1333  0.4070  0.5038
33909SOL     OW 6088   5.336   3.266   4.106  0.0576 -0.1325 -0.6531
33909SOL    HW1 6089   5.393   3.301   4.037  0.0141 -0.1455 -0.6955
33909SOL    HW2 6090   5.362   3.174   4.115  0.8580  0.1638  0.1536
33910SOL     OW 6091   9.173  10.291   0.242  0.1874  0.1001 -0.1820
33910SOL    HW1 6092   9.191  10.200   0.219  0.6475 -0.3102  1.6840
33910SOL    HW2 6093   9.193  10.297   0.335 -3.6266  1.1430  0.7258
33911SOL     OW 6094   1.771   1.508   6.798  0.1379 -0.1418  0.0516
33911SOL    HW1 6095   1.717   1.432   6.819  0.3439 -0.0589  0.9375
33911SOL    HW2 6096   1.728   1.580   6.844  0.0624  0.2495 -0.6136
33912SOL     OW 6097   1.616  10.693   1.193 -0.3156 -0.8427 -0.0959
33912SOL    HW1 6098   1.687  10.636   1.163  0.5934 -0.0329  0.4627
33912SOL    HW2 6099   1.580  10.731   1.113  0.6162 -0.4181 -0.3321
33913SOL     OW 6100   5.158   4.705   1.075  0.0411  0.2420 -0.1060
33913SOL    HW1 6101   5.224   4.649   1.116  0.5945  1.2219  0.3780
33913SOL    HW2 6102   5.178   4.701   0.981 -0.8010 -1.4606 -0.2545
33914SOL     OW 6103   7.485   7.200  10.091  0.7199 -0.4894 -0.1819
33914SOL    HW1 6104   7.551   7.269  10.088  0.6321 -0.3066  1.5643
33914SOL    HW2 6105   7.402   7.245  10.077  0.7515 -0.4059 -0.0916
33915SOL     OW 6106   7.280   5.251   1.871  0.3272  0.2371 -0.6614
33915SOL    HW1 6107   7.242   5.181   1.925 -1.0379  1.0738 -0.4975
33915SOL    HW2 6108   7.214   5.320   1.872  0.8284  0.7808 -2.3812
33916SOL     OW 6109   7.695   0.141   4.386  0.2992  0.3398  0.2875
33916SOL    HW1 6110   7.753   0.161   4.312 -0.1808  2.2407  0.3721
33916SOL    HW2 6111   7.660   0.054   4.366  1.4689  0.0942 -0.8584
33917SOL     OW 6112   7.733   8.909   1.541  0.1264 -0.4760  0.2074
33917SOL    HW1 6113   7.786   8.859   1.479 -0.7848 -1.2570  0.0230
33917SOL    HW2 6114   7.717   8.992   1.497 -2.3227 -1.7814 -1.6645
33918SOL     OW 6115   0.109   0.704   3.700 -0.4148  0.1991 -0.1212
33918SOL    HW1 6116   0.151   0.664   3.623  0.1589  2.1049 -0.8360
33918SOL    HW2 6117   0.040   0.642   3.723  0.4443 -1.2185 -1.1590
33919SOL     OW 6118   0.937   6.066   2.957 -0.1164  0.3246 -0.3409
33919SOL    HW1 6119   1.012   6.010   2.939 -0.4654  0.4734 -2.5147
33919SOL    HW2 6120   0.892   6.023   3.030  1.2200 -0.5915 -0.0156
33920SOL     OW 6121   4.576  10.988   9.404  0.3088 -0.0368 -0.1627
33920SOL    HW1 6122   4.493  11.031   9.421  0.0197 -0.3634 -0.7032
33920SOL    HW2 6123   4.562  10.941   9.321  1.2746  0.5513 -0.6808
33921SOL     OW 6124  10.020   2.517   5.910  0.1790 -0.5068 -0.0469
33921SOL    HW1 6125   9.985   2.575   5.843  0.1347 -0.4402  0.0341
33921SOL    HW2 6126   9.990   2.554   5.993  0.3997 -0.4771  0.0208
33922SOL     OW 6127   5.157   6.738   4.076  0.0482 -0.5896  0.2634
33922SOL    HW1 6128   5.182   6.737   3.983 -1.8362  0.3065 -0.2993
33922SOL    HW2 6129   5.235   6.769   4.121  0.4017  0.8668 -1.2559
33923SOL     OW 6130   5.250   4.410   5.767  0.4281  0.1666  0.0523
33923SOL    HW1 6131   5.255   4.343   5.835 -0.2085  1.9924  2.0210
33923SOL    HW2 6132   5.199   4.369   5.697 -0.7371 -1.1347  1.5615
33924SOL     OW 6133   5.965   5.529   2.158  0.3858  0.6092  0.2463
33924SOL    HW1 6134   5.880   5.496   2.188  0.4121 -0.0242 -0.3475
33924SOL    HW2 6135   5.957   5.624   2.164 -0.1205  0.5407  0.8444
33925SOL     OW 6136   3.621   9.024   0.936 -0.1530  0.0004 -0.0052
33925SOL    HW1 6137   3.592   9.088   1.001  0.5085 -0.4495  0.7541
33925SOL    HW2 6138   3.646   8.948   0.987 -1.3907 -1.0784 -0.9160
33926SOL     OW 6139   0.954  10.115   4.335 -0.1254  0.3524 -0.5367
33926SOL    HW1 6140   1.032  10.142   4.286  0.1241 -0.3113 -0.5225
33926SOL    HW2 6141   0.966  10.020   4.349  0.1240  0.6071  1.3190
33927SOL     OW 6142   2.550   1.342   6.531 -0.0149 -0.4370  0.3028
33927SOL    HW1 6143   2.505   1.319   6.612  1.5237 -0.0149  1.3304
33927SOL    HW2 6144   2.616   1.407   6.558  0.6587 -0.4311 -1.2523
33928SOL     OW 6145   8.131   9.996   4.930 -0.6414  0.4098  0.2493
33928SOL    HW1 6146   8.095  10.018   4.844 -1.0630 -1.7694 -0.2003
33928SOL    HW2 6147   8.207  10.053   4.939 -0.9857  1.1754 -1.2614
33929SOL     OW 6148   2.787  10.671   1.221  0.3305  0.0926  0.1226
33929SOL    HW1 6149   2.733  10.594   1.238 -1.0998  0.7554 -1.1632
33929SOL    HW2 6150   2.877  10.638   1.222 -0.2272 -1.5168 -0.0809
33930SOL     OW 6151   2.643   3.854   2.425 -0.0851  0.3629 -0.7155
33930SOL    HW1 6152   2.589   3.914   2.475 -0.6082 -0.6276 -0.0557
33930SOL    HW2 6153   2.685   3.799   2.492  2.5880  1.7441 -1.1071
33931SOL     OW 6154   2.129   6.698   4.907 -0.3826 -0.1278 -0.8380
33931SOL    HW1 6155   2.187   6.667   4.977  0.7590 -0.5260 -1.9257
33931SOL    HW2 6156   2.143   6.792   4.904  0.8423 -0.3177 -1.6161
33932SOL     OW 6157   1.194   5.905   0.111  0.0546 -0.5311 -0.1082
33932SOL    HW1 6158   1.151   5.892   0.195 -0.0185  0.2752 -0.0089
33932SOL    HW2 6159   1.128   5.885   0.046  0.1666 -1.3383  0.0229
33933SOL     OW 6160   4.908   8.562  10.391 -0.4181  0.5361 -0.0001
33933SOL    HW1 6161   4.883   8.536  10.303  0.4321 -0.4970  0.0477
33933SOL    HW2 6162   4.965   8.638  10.379  2.8096 -1.8206 -0.6574
33934SOL     OW 6163   7.696   0.792   0.684 -0.4744  0.4055 -0.4619
33934SOL    HW1 6164   7.687   0.808   0.590 -0.4832  0.2483 -0.4879
33934SOL    HW2 6165   7.607   0.790   0.717 -0.6253 -1.8659 -0.8380
33935SOL     OW 6166   0.177   5.425   3.080  0.0621  0.1692  0.6701
33935SOL    HW1 6167   0.222   5.460   3.157  2.2325 -1.1720  0.0837
33935SOL    HW2 6168   0.195   5.331   3.083  0.1847  0.0884 -1.4639
33936SOL     OW 6169   7.147   4.182   4.227  0.4092  0.0437  0.4856
33936SOL    HW1 6170   7.099   4.101   4.211 -0.4314  0.9171 -1.7105
33936SOL    HW2 6171   7.224   4.176   4.171  0.8029  0.4088  0.9770
33937SOL     OW 6172   7.675   4.437   5.989 -0.2738 -0.5382 -0.0227
33937SOL    HW1 6173   7.597   4.429   6.043 -0.5315 -0.7860 -0.4288
33937SOL    HW2 6174   7.721   4.354   6.000  1.1702  0.4338  2.0816
33938SOL     OW 6175  10.697   7.380   3.382  0.0235  0.2330 -0.1329
33938SOL    HW1 6176  10.711   7.461   3.430  2.5285 -0.7705  1.0290
33938SOL    HW2 6177  10.632   7.332   3.433 -0.5967  1.0061 -0.1908
33939SOL     OW 6178   7.463  11.112   2.234  0.1173  0.5260 -0.2374
33939SOL    HW1 6179   7.548  11.070   2.225  0.3768  1.1655 -0.9511
33939SOL    HW2 6180   7.403  11.057   2.183  0.4749  1.0604 -1.2576
33940SOL     OW 6181   5.311   3.098   6.076 -0.3471 -0.1173  0.4614
33940SOL    HW1 6182   5.269   3.018   6.043 -0.8639  0.4367 -0.2452
33940SOL    HW2 6183   5.246   3.137   6.135  0.2032 -0.6000  1.4276
33941SOL     OW 6184   2.135   6.631   0.398 -0.0185  0.1794 -0.0270
33941SOL    HW1 6185   2.123   6.574   0.322  0.2762  0.4990 -0.3163
33941SOL    HW2 6186   2.058   6.687   0.398 -0.6010 -0.5886  0.5958
33942SOL     OW 6187   9.197   1.355   0.786  0.1279 -0.0082 -0.5021
33942SOL    HW1 6188   9.120   1.389   0.739 -1.9986 -3.8126 -0.2603
33942SOL    HW2 6189   9.190   1.260   0.776  3.1587 -0.6930  2.2064
33943SOL     OW 6190   2.609   1.784   9.042  0.3148 -0.0363 -0.4540
33943SOL    HW1 6191   2.515   1.774   9.060  0.3508 -1.9931 -1.1092
33943SOL    HW2 6192   2.616   1.770   8.948  1.2565  0.2215 -0.4228
33944SOL     OW 6193   8.791   6.386   2.106  0.0821 -0.3332  0.2393
33944SOL    HW1 6194   8.736   6.462   2.086 -1.2940 -0.3678  3.3205
33944SOL    HW2 6195   8.840   6.412   2.185  2.2402 -1.4534 -0.6389
33945SOL     OW 6196  10.379   9.753  10.661  0.0177 -0.2088 -0.4278
33945SOL    HW1 6197  10.371   9.823  10.596 -0.5742  1.3321  1.1964
33945SOL    HW2 6198  10.445   9.694  10.625  0.1927  0.9267 -2.1009
33946SOL     OW 6199   9.525   1.543   5.800 -0.9309  0.0648 -0.2632
33946SOL    HW1 6200   9.595   1.606   5.818  1.3450 -2.2252 -0.5245
33946SOL    HW2 6201   9.477   1.538   5.883  1.0032 -0.3424  0.9136
33947SOL     OW 6202  10.870   3.938   7.457  0.1551  0.4070 -0.0331
33947SOL    HW1 6203  10.884   4.033   7.450  1.0674  0.1774 -2.0544
33947SOL    HW2 6204  10.955   3.903   7.482 -0.0107  0.0640  0.0430
33948SOL     OW 6205   9.341   8.048   0.063  0.3407  0.5879 -0.0210
33948SOL    HW1 6206   9.419   8.081   0.018  0.7832 -0.0072  0.3068
33948SOL    HW2 6207   9.329   8.108   0.136  0.2686  0.9049 -0.2917
33949SOL     OW 6208   5.673   3.093   6.053  0.4451 -0.4691 -0.6842
33949SOL    HW1 6209   5.766   3.090   6.032  0.2329  0.0454 -1.7727
33949SOL    HW2 6210   5.655   3.186   6.070  0.3665 -0.7188  0.7351
33950SOL     OW 6211   8.063   6.553   4.183  0.0097  0.4392 -0.6825
33950SOL    HW1 6212   8.121   6.590   4.117 -0.6487 -2.4924 -3.1147
33950SOL    HW2 6213   8.095   6.465   4.197 -2.7400 -0.6994 -0.8439
33951SOL     OW 6214   0.558   0.045   1.233 -0.1424 -0.4236 -0.4281
33951SOL    HW1 6215   0.568   0.128   1.279 -0.7253 -0.3546 -0.4111
33951SOL    HW2 6216   0.467   0.047   1.201 -0.7509 -1.8063  1.0747
33952SOL     OW 6217   5.395   1.527   1.155  0.2268  0.0296 -0.5081
33952SOL    HW1 6218   5.434   1.447   1.190 -1.1856 -0.4242  0.1518
33952SOL    HW2 6219   5.456   1.596   1.179 -0.5048 -0.2898  2.7625
33953SOL     OW 6220  10.399   4.953   1.153  0.9417 -0.2288 -0.0715
33953SOL    HW1 6221  10.348   5.025   1.190  0.4736 -0.0626 -1.0185
33953SOL    HW2 6222  10.465   4.996   1.098  3.1419 -0.3444  2.2681
33954SOL     OW 6223   7.238  10.558   3.026 -0.1185 -0.3217  0.0968
33954SOL    HW1 6224   7.210  10.612   3.100 -1.7606 -0.9076 -0.0516
33954SOL    HW2 6225   7.205  10.603   2.949  0.8570 -0.1542 -0.2413
33955SOL     OW 6226   2.775   3.141   6.913  0.0698 -0.4032  0.1401
33955SOL    HW1 6227   2.751   3.209   6.976  0.0695  0.0915 -0.3848
33955SOL    HW2 6228   2.854   3.175   6.870 -1.1116  0.2590 -1.5996
33956SOL     OW 6229   7.881   8.032   0.753  0.3469  0.1023  0.0634
33956SOL    HW1 6230   7.834   7.974   0.813 -0.1835  0.1026 -0.3403
33956SOL    HW2 6231   7.837   8.020   0.669 -0.0564  1.4164  0.0609
33957SOL     OW 6232   3.745   0.739   3.350  0.3250 -0.0213  0.1071
33957SOL    HW1 6233   3.671   0.765   3.406  0.7659  1.6903 -0.0600
33957SOL    HW2 6234   3.798   0.682   3.406  0.4860  1.2446  1.3000
33958SOL     OW 6235   2.964   0.982   4.518  0.2318  0.3587  0.0180
33958SOL    HW1 6236   2.940   1.042   4.448  0.6768 -0.9816 -1.3350
33958SOL    HW2 6237   3.059   0.992   4.527  0.1107  0.9181  0.8419
33959SOL     OW 6238   4.189   3.453   6.194  0.1547  0.0429  0.4887
33959SOL    HW1 6239   4.280   3.425   6.199  0.4911  1.1586  0.9780
33959SOL    HW2 6240   4.179   3.489   6.106  0.0867 -0.4095  0.3115
33960SOL     OW 6241  10.346   3.895   7.734  1.0991 -0.5449 -0.5453
33960SOL    HW1 6242  10.431   3.915   7.773  0.7454  0.0472 -0.0509
33960SOL    HW2 6243  10.313   3.821   7.786  1.5695 -1.1886 -1.1390
33961SOL     OW 6244   0.557   0.300   8.690  0.6410 -0.2766 -0.3506
33961SOL    HW1 6245   0.553   0.213   8.652 -0.4425  1.0692 -3.7158
33961SOL    HW2 6246   0.650   0.322   8.688  0.8524 -1.1025 -0.0438
33962SOL     OW 6247   7.842   7.871   3.597  0.1524 -0.4101 -0.2997
33962SOL    HW1 6248   7.903   7.812   3.640  2.2312  0.6573 -1.5969
33962SOL    HW2 6249   7.853   7.954   3.643  0.0809 -0.0810 -0.8647
33963SOL     OW 6250  10.165   6.900   5.305 -0.6530 -0.7077  0.7148
33963SOL    HW1 6251  10.140   6.941   5.387 -0.7778  0.9689 -0.1158
33963SOL    HW2 6252  10.091   6.917   5.246  0.6087  0.6328 -0.5482
33964SOL     OW 6253   6.696   5.138   7.950  0.3299  0.3545  0.3520
33964SOL    HW1 6254   6.632   5.156   8.019  1.1679  2.6708  0.6397
33964SOL    HW2 6255   6.644   5.130   7.870 -0.5313 -0.8713  1.0181
33965SOL     OW 6256   0.956   4.510   8.810  0.1736  0.4202 -0.0362
33965SOL    HW1 6257   0.927   4.599   8.828  1.4129  0.4743  2.1240
33965SOL    HW2 6258   1.034   4.499   8.864  1.4877 -1.1911 -2.1130
33966SOL     OW 6259   3.392   5.597   0.620 -0.3529  0.2036  0.5939
33966SOL    HW1 6260   3.420   5.505   0.624  0.3322  0.4370  1.9055
33966SOL    HW2 6261   3.432   5.637   0.697  0.6734  1.9849 -0.7879
33967SOL     OW 6262   4.180   0.851   2.175  0.4671 -0.0953 -0.1270
33967SOL    HW1 6263   4.256   0.891   2.134  0.3338  0.0277 -0.2534
33967SOL    HW2 6264   4.165   0.902   2.255  1.6660 -1.2751  0.9019
33968SOL     OW 6265   3.119   3.280   5.298 -0.2198  0.3415  0.8148
33968SOL    HW1 6266   3.086   3.368   5.314  0.9120  1.0094 -0.2951
33968SOL    HW2 6267   3.122   3.273   5.202  0.6858 -0.5082  0.8916
33969SOL     OW 6268   2.771   2.036   5.843 -0.3100  0.4227 -0.2094
33969SOL    HW1 6269   2.733   2.033   5.930  1.5841  0.6615  0.6757
33969SOL    HW2 6270   2.706   2.081   5.790 -1.9779 -0.7000  0.7928
33970SOL     OW 6271   5.627   6.319   7.577  0.7662  0.1968 -0.4213
33970SOL    HW1 6272   5.664   6.306   7.664 -2.9022  0.8576  1.4681
33970SOL    HW2 6273   5.621   6.231   7.539 -0.5057 -0.5798  1.4405
33971SOL     OW 6274   7.258   8.448   5.391  0.2216 -0.0090 -0.4580
33971SOL    HW1 6275   7.186   8.456   5.454 -0.3549  1.2814 -1.2406
33971SOL    HW2 6276   7.257   8.356   5.365  0.4371 -0.5593  1.3492
33972SOL     OW 6277   9.373   7.735   0.992  0.2587 -0.4631  0.0258
33972SOL    HW1 6278   9.454   7.684   0.997  1.0014  0.7746  2.1790
33972SOL    HW2 6279   9.304   7.669   0.983  1.1388 -1.9723  2.9492
33973SOL     OW 6280   6.297   5.738   5.699  0.3348  0.0016 -0.1915
33973SOL    HW1 6281   6.280   5.666   5.760  0.4314  0.0246 -0.1368
33973SOL    HW2 6282   6.390   5.730   5.677 -0.1175 -1.1724 -1.8473
33974SOL     OW 6283   9.908   7.914   9.538  0.0264 -0.2600  0.3656
33974SOL    HW1 6284   9.964   7.988   9.560 -1.2904  1.6630 -2.1570
33974SOL    HW2 6285   9.843   7.911   9.609  1.1470 -0.2020  1.4221
33975SOL     OW 6286   4.451   7.219   9.910  0.0364 -0.0176  0.9750
33975SOL    HW1 6287   4.411   7.280   9.973 -2.3693  0.2458 -0.6418
33975SOL    HW2 6288   4.439   7.262   9.825 -0.0030 -1.8766 -0.0112
33976SOL     OW 6289   7.588  10.299   8.937  0.2922  0.5460  0.0927
33976SOL    HW1 6290   7.682  10.317   8.935  1.0161 -2.4593  1.0563
33976SOL    HW2 6291   7.582  10.203   8.930 -2.5480  0.3810  2.6593
33977SOL     OW 6292   2.313  10.778   0.785  0.4356  0.5644 -0.3961
33977SOL    HW1 6293   2.351  10.839   0.848 -0.0115 -0.1004  0.5371
33977SOL    HW2 6294   2.287  10.833   0.711  1.6674  1.2507 -0.3347
33978SOL     OW 6295   6.333   4.331   5.284 -0.6477 -0.4959 -0.5227
33978SOL    HW1 6296   6.375   4.261   5.234  0.6475  0.5422 -0.9753
33978SOL    HW2 6297   6.349   4.309   5.376 -0.7167 -1.0652 -0.6477
33979SOL     OW 6298   5.275   9.449   7.398  0.2099 -0.4735  0.3104
33979SOL    HW1 6299   5.197   9.445   7.342 -0.7983  2.1063  1.4115
33979SOL    HW2 6300   5.241   9.458   7.487  1.7047  1.7787  0.7243
33980SOL     OW 6301   4.576   8.728   5.022  0.0705  0.4389  0.5221
33980SOL    HW1 6302   4.626   8.679   5.088 -0.4939 -1.8729 -0.6613
33980SOL    HW2 6303   4.506   8.668   4.996  0.2667  1.2750 -2.1718
33981SOL     OW 6304   9.642   6.819   4.242  0.0824 -0.2795  0.0502
33981SOL    HW1 6305   9.612   6.729   4.259  0.6471 -0.0684  2.5623
33981SOL    HW2 6306   9.738   6.814   4.248  0.3037  0.0916 -2.2640
33982SOL     OW 6307   7.990   1.178   9.271  0.1623 -0.3111 -0.3042
33982SOL    HW1 6308   8.029   1.265   9.278 -0.2242 -0.2683  2.0604
33982SOL    HW2 6309   7.896   1.193   9.282  0.1513 -1.0684  0.8061
33983SOL     OW 6310  10.321  10.004   5.194 -0.3346 -0.3094  0.3961
33983SOL    HW1 6311  10.361   9.924   5.161  2.3006  1.4323 -0.9343
33983SOL    HW2 6312  10.282  10.045   5.117  0.0967  0.6170  0.6530
33984SOL     OW 6313   5.110   8.009   7.580 -0.0405  0.2082  0.4558
33984SOL    HW1 6314   5.165   7.971   7.649 -0.7407 -2.3616 -0.2851
33984SOL    HW2 6315   5.021   7.982   7.604 -0.5941  1.4681 -0.1245
33985SOL     OW 6316   9.949   4.834   3.366  0.4477  0.1354 -0.0977
33985SOL    HW1 6317   9.925   4.866   3.279 -1.6799 -3.5740 -1.0932
33985SOL    HW2 6318  10.021   4.773   3.350  0.5418 -0.0155  0.8650
33986SOL     OW 6319   6.458   9.785  10.069  0.5179 -0.2837  0.1102
33986SOL    HW1 6320   6.435   9.872  10.101  0.8604  0.1193 -0.7106
33986SOL    HW2 6321   6.503   9.744  10.143 -1.5340 -0.5773  1.2550
33987SOL     OW 6322   9.493   5.894   2.995 -0.1502  0.3945  0.1566
33987SOL    HW1 6323   9.401   5.892   3.024  0.1103  1.0005  1.0424
33987SOL    HW2 6324   9.526   5.978   3.026  1.0235 -0.2919  0.8198
33988SOL     OW 6325   8.997   6.317   4.817  0.6624 -0.1671 -0.3494
33988SOL    HW1 6326   8.937   6.242   4.822 -0.6106  0.8765  0.4819
33988SOL    HW2 6327   9.084   6.277   4.813 -0.0294 -1.7076 -0.9464
33989SOL     OW 6328   0.194   4.526  10.329 -0.3086 -0.1273  0.7077
33989SOL    HW1 6329   0.239   4.445  10.355 -0.5730 -0.4158  0.2832
33989SOL    HW2 6330   0.115   4.496  10.283  0.2363  0.3547 -0.5986
33990SOL     OW 6331   2.687   3.477   6.061  0.4539  0.3761  0.2321
33990SOL    HW1 6332   2.722   3.497   5.974  0.8160  0.2115  0.3394
33990SOL    HW2 6333   2.764   3.459   6.115  0.1639 -0.8989  0.2421
33991SOL     OW 6334   8.475   8.471   2.769  0.8424 -0.7593  0.4852
33991SOL    HW1 6335   8.468   8.536   2.838  0.2779 -0.7016  0.3771
33991SOL    HW2 6336   8.388   8.431   2.765  0.5154  0.0383 -0.9778
33992SOL     OW 6337   7.332   9.360   5.927  0.4223  0.0246  0.0505
33992SOL    HW1 6338   7.427   9.371   5.916  0.8396  0.0204  2.7959
33992SOL    HW2 6339   7.318   9.266   5.918  0.7954 -0.0500  0.1904
33993SOL     OW 6340   5.078   2.764   7.051 -0.6058  0.1153 -0.1446
33993SOL    HW1 6341   5.129   2.711   7.113  1.5689  0.2045 -1.7309
33993SOL    HW2 6342   5.019   2.815   7.106  0.1612 -0.9118  1.7260
33994SOL     OW 6343   2.866  11.109   0.517  0.4029 -0.5668  0.1025
33994SOL    HW1 6344   2.783  11.156   0.512  0.4706 -0.4798 -0.2282
33994SOL    HW2 6345   2.842  11.017   0.501  0.4200 -0.4881 -0.4087
33995SOL     OW 6346   5.183   8.355   8.679  0.2494 -0.2334 -0.2634
33995SOL    HW1 6347   5.224   8.279   8.637 -1.4484 -0.8867 -0.8261
33995SOL    HW2 6348   5.116   8.383   8.616  0.6666  1.5801  0.0561
33996SOL     OW 6349   9.940   0.222   0.544 -0.0330  0.0506  0.7569
33996SOL    HW1 6350   9.957   0.310   0.510  0.6646  0.0775  1.1736
33996SOL    HW2 6351   9.973   0.163   0.476 -0.3980  0.1037  0.5291
33997SOL     OW 6352   3.353   9.707   6.069  0.0095 -0.2338  0.2584
33997SOL    HW1 6353   3.276   9.658   6.099 -0.1011 -0.7233 -0.7849
33997SOL    HW2 6354   3.426   9.645   6.076  0.2939  0.1901  1.1251
33998SOL     OW 6355   5.470  10.307   2.378 -0.4639 -0.2617 -0.7733
33998SOL    HW1 6356   5.458  10.401   2.393 -0.6192 -0.4999  0.8493
33998SOL    HW2 6357   5.551  10.286   2.424 -1.1795 -1.1569  0.1409
33999SOL     OW 6358   7.007   4.808   5.799  0.7994 -0.0465  0.2567
33999SOL    HW1 6359   6.989   4.828   5.707 -0.4951 -2.3095 -0.0675
33999SOL    HW2 6360   6.970   4.720   5.812  2.9358 -0.7440  2.3551
34000SOL     OW 6361   0.327  11.003   4.706  0.0808  0.1520  0.2870
34000SOL    HW1 6362   0.281  11.012   4.622 -0.0842  1.3283  0.4866
34000SOL    HW2 6363   0.311  11.086   4.750  0.8108 -0.1721  1.1683
34001SOL     OW 6364   6.744   6.399  10.009 -0.2696 -0.1111 -0.6589
34001SOL    HW1 6365   6.834   6.426   9.991  0.5662 -1.2558  1.4992
34001SOL    HW2 6366   6.702   6.398   9.923  1.1812  2.3803 -1.4954
34002SOL     OW 6367   9.959   0.951  10.466  0.2057  0.4941 -0.7513
34002SOL    HW1 6368  10.003   0.903  10.536  0.3205  2.1159  0.3460
34002SOL    HW2 6369   9.875   0.907  10.457  1.1068 -1.2343 -1.3067
34003SOL     OW 6370  10.128   1.030   4.544 -0.3755 -0.0949  0.3450
34003SOL    HW1 6371  10.222   1.045   4.553 -0.3592 -0.6593  1.3440
34003SOL    HW2 6372  10.104   1.074   4.462  0.7192  0.1992  0.1620
34004SOL     OW 6373   7.846  10.993   0.614 -0.5978 -0.4510 -0.0696
34004SOL    HW1 6374   7.865  11.083   0.643 -2.4446  0.4878 -1.5229
34004SOL    HW2 6375   7.842  10.943   0.696 -1.7317  1.2752  1.0193
34005SOL     OW 6376   6.600   6.693   3.704  0.0972 -0.5924  0.1894
34005SOL    HW1 6377   6.613   6.667   3.795 -0.4787  0.7742  0.6765
34005SOL    HW2 6378   6.515   6.737   3.703 -0.6921 -2.0187 -1.3430
34006SOL     OW 6379   8.019   0.871   8.989 -0.0440 -0.1471 -0.2607
34006SOL    HW1 6380   7.989   0.917   8.910  1.1677  0.6431 -0.3077
34006SOL    HW2 6381   7.942   0.866   9.045 -0.3092  1.7344 -0.3804
34007SOL     OW 6382  10.477   7.461   8.131  0.2039 -0.1040  0.0186
34007SOL    HW1 6383  10.468   7.554   8.108  1.4902  0.3218  1.0733
34007SOL    HW2 6384  10.391   7.423   8.113 -0.6580  1.5183  0.5240
34008SOL     OW 6385   5.545   7.995   9.565 -0.3465 -0.1244  0.5170
34008SOL    HW1 6386   5.498   7.926   9.518  0.5957 -0.1636 -0.3953
34008SOL    HW2 6387   5.599   7.949   9.630  0.1959 -0.2483 -0.0154
34009SOL     OW 6388   4.311   1.737   7.709 -0.3909  0.4003  0.0629
34009SOL    HW1 6389   4.290   1.664   7.767 -1.0853 -0.2242 -0.9365
34009SOL    HW2 6390   4.237   1.797   7.719 -0.2798  0.5190  0.1749
34010SOL     OW 6391   3.833   9.339   2.844  0.2748 -0.6703  0.3571
34010SOL    HW1 6392   3.871   9.356   2.930 -2.0232 -1.8813  1.7323
34010SOL    HW2 6393   3.775   9.414   2.828  0.4211 -0.6257  0.0175
34011SOL     OW 6394   9.268   8.255   1.539  0.0793  0.1668 -0.0631
34011SOL    HW1 6395   9.318   8.237   1.459 -0.6854  0.2255 -0.5743
34011SOL    HW2 6396   9.329   8.299   1.597  0.6108  0.2530 -0.6758
34012SOL     OW 6397   9.639   3.368   4.786 -0.0990 -0.1345  0.3019
34012SOL    HW1 6398   9.726   3.360   4.748  0.3893 -2.1969  1.6939
34012SOL    HW2 6399   9.597   3.439   4.736  0.7871 -1.9935 -3.4203
34013SOL     OW 6400   7.655   8.315   6.931  0.7631 -0.1733 -0.0574
34013SOL    HW1 6401   7.577   8.314   6.876  0.4587  0.7681  0.3391
34013SOL    HW2 6402   7.712   8.381   6.893  1.2380 -0.6306 -0.1573
34014SOL     OW 6403   4.440   3.715   1.589 -0.1129 -0.4762 -0.3166
34014SOL    HW1 6404   4.407   3.797   1.625  0.7872 -0.0763 -0.3722
34014SOL    HW2 6405   4.490   3.675   1.660  2.9482  1.0388 -1.4522
34015SOL     OW 6406   9.604   0.315   4.602  0.2608  0.5194 -0.4012
34015SOL    HW1 6407   9.573   0.257   4.532  1.9235  0.2305 -0.9271
34015SOL    HW2 6408   9.561   0.282   4.681 -0.7983  0.1800 -1.0965
34016SOL     OW 6409   6.466   3.494  10.847  0.1726 -0.1113  0.0788
34016SOL    HW1 6410   6.432   3.499  10.758  1.1401 -0.4220 -0.3164
34016SOL    HW2 6411   6.416   3.559  10.896  0.3391  0.7871 -0.9294
34017SOL     OW 6412  10.224   6.764   3.991 -0.5576  0.6632  0.6476
34017SOL    HW1 6413  10.241   6.807   3.908  1.4026  3.2625  2.2102
34017SOL    HW2 6414  10.129   6.771   4.003 -0.9988 -0.5734 -1.6850
34018SOL     OW 6415   0.440   9.614   1.084 -0.0791 -0.3406  0.7872
34018SOL    HW1 6416   0.457   9.641   0.994 -0.6180 -0.7367  0.5647
34018SOL    HW2 6417   0.362   9.560   1.079 -1.0700  0.9306  1.7034
34019SOL     OW 6418   9.887   6.702   6.583 -0.3697  0.4960 -0.5768
34019SOL    HW1 6419   9.943   6.634   6.620  1.1267  1.0364 -1.7871
34019SOL    HW2 6420   9.799   6.664   6.586 -0.1241 -0.1029  2.0173
34020SOL     OW 6421   6.716   7.993   4.338  0.3436 -0.0297 -0.3561
34020SOL    HW1 6422   6.790   7.994   4.277  0.5754  1.4532 -0.0816
34020SOL    HW2 6423   6.753   8.018   4.422 -0.5344  1.2858 -0.3260
34021SOL     OW 6424   8.544   2.032   0.742  0.3411 -0.2264 -0.4166
34021SOL    HW1 6425   8.620   1.985   0.778  0.4891  0.3448  0.0276
34021SOL    HW2 6426   8.530   2.105   0.802 -1.9976 -1.6002  0.8401
34022SOL     OW 6427   0.041   5.348   5.537  0.5959  0.0556 -0.1466
34022SOL    HW1 6428  -0.032   5.313   5.588  0.7351 -0.6627 -0.4320
34022SOL    HW2 6429   0.040   5.297   5.456  0.6514  0.8849 -0.6770
34023SOL     OW 6430   6.955   6.461   4.909 -0.2348 -0.0218 -0.0712
34023SOL    HW1 6431   6.973   6.404   4.985 -1.0115  0.8348  0.7739
34023SOL    HW2 6432   6.870   6.500   4.928 -0.6571 -0.1512 -1.6251
34024SOL     OW 6433   7.080   3.021   9.319 -0.0676  0.3480  0.0071
34024SOL    HW1 6434   7.107   3.064   9.400 -0.9851  0.9726  0.0000
34024SOL    HW2 6435   6.987   3.000   9.333 -0.2170  0.3952 -0.8533
34025SOL     OW 6436   2.928   5.343  10.122  0.1835 -0.0303  0.0176
34025SOL    HW1 6437   2.930   5.284  10.197  2.9576 -0.0493  0.0472
34025SOL    HW2 6438   2.910   5.286  10.047  0.8564 -0.6204  0.2867
34026SOL     OW 6439  10.940   6.012   5.521  0.0117  0.2280 -0.3319
34026SOL    HW1 6440  10.956   6.104   5.542  1.9532 -0.6399  2.5281
34026SOL    HW2 6441  11.014   5.987   5.466  0.7084 -0.1620  0.7681
34027SOL     OW 6442   4.204   4.630   6.625  0.0434 -0.4518  0.5408
34027SOL    HW1 6443   4.125   4.665   6.668  0.1240 -0.1362  0.4383
34027SOL    HW2 6444   4.269   4.628   6.694 -0.2689 -1.4775  0.8273
34028SOL     OW 6445   0.448   4.667   3.186  0.1419  0.3285  0.5969
34028SOL    HW1 6446   0.529   4.711   3.210  0.6594 -0.2948  0.0144
34028SOL    HW2 6447   0.461   4.576   3.211 -0.8330  0.4315  1.5767
34029SOL     OW 6448   5.826   5.994   0.914  0.0138 -0.2681  0.5210
34029SOL    HW1 6449   5.733   6.011   0.904  0.3577  1.7995  0.5328
34029SOL    HW2 6450   5.850   5.943   0.837 -0.7302  0.8981 -0.5016
34030SOL     OW 6451   6.418   4.616   2.178  0.2230  0.3161  0.0578
34030SOL    HW1 6452   6.423   4.670   2.257 -0.1470 -1.3618  1.2809
34030SOL    HW2 6453   6.331   4.631   2.143 -0.4747 -0.6593  1.3009
34031SOL     OW 6454   0.475   6.913   7.704  0.0094 -0.6018  0.0695
34031SOL    HW1 6455   0.557   6.864   7.704  0.7997  0.6132 -1.5382
34031SOL    HW2 6456   0.471   6.953   7.791  0.6094 -1.4881  0.5163
34032SOL     OW 6457   9.685  11.030  10.300  0.3974 -0.4589 -0.1709
34032SOL    HW1 6458   9.630  10.963  10.258  1.5809 -1.3535 -0.3619
34032SOL    HW2 6459   9.709  11.089  10.229  0.5676 -0.7004 -0.3194
34033SOL     OW 6460   3.552   8.689   8.664 -0.2030 -0.4344 -0.5884
34033SOL    HW1 6461   3.541   8.733   8.748  0.0183 -0.6138 -0.4633
34033SOL    HW2 6462   3.513   8.602   8.676 -3.9215  0.8604 -1.9026
34034SOL     OW 6463  10.748   4.464   1.448  0.4620  0.2690  0.7548
34034SOL    HW1 6464  10.741   4.519   1.370 -2.8072 -1.1688 -0.1590
34034SOL    HW2 6465  10.749   4.375   1.414  0.6592 -0.3583  2.3314
34035SOL     OW 6466   2.551  10.023   5.973  0.1662 -0.7082 -0.0031
34035SOL    HW1 6467   2.629   9.967   5.973 -0.7415 -2.0502  1.2253
34035SOL    HW2 6468   2.512  10.010   6.059 -0.7023  0.9711 -0.1130
34036SOL     OW 6469   1.331   2.936   8.426  0.2603  0.0599 -0.0803
34036SOL    HW1 6470   1.315   2.965   8.515  0.2738  1.3486 -0.4751
34036SOL    HW2 6471   1.425   2.915   8.424  0.5303  1.2147 -0.0976
34037SOL     OW 6472   7.945  10.046   3.512  0.2533  0.1323  0.6084
34037SOL    HW1 6473   7.939   9.995   3.430 -0.4699 -0.0179  0.7538
34037SOL    HW2 6474   7.913   9.986   3.579  0.2284  0.4834  0.9083
34038SOL     OW 6475   1.318   2.134   5.881  0.0077  0.0825  0.4065
34038SOL    HW1 6476   1.319   2.039   5.891  1.2791  0.1768  1.2802
34038SOL    HW2 6477   1.356   2.150   5.794  0.0207 -0.1932  0.3628
34039SOL     OW 6478   8.706   8.944   4.424  0.1233  0.1274 -0.2802
34039SOL    HW1 6479   8.642   8.876   4.407  0.3724  0.0746 -1.0244
34039SOL    HW2 6480   8.655   9.024   4.432 -0.1374 -0.0834  0.2713
34040SOL     OW 6481   3.732   8.017   6.265 -0.1207  0.7569 -0.3037
34040SOL    HW1 6482   3.739   8.058   6.179 -0.2876  1.8253  0.1673
34040SOL    HW2 6483   3.641   8.032   6.291 -0.3281 -0.3944 -0.3375
34041SOL     OW 6484   9.947   2.830   7.913  0.5004 -0.0353  0.1219
34041SOL    HW1 6485   9.978   2.897   7.974  0.3828  0.1401 -0.0094
34041SOL    HW2 6486  10.026   2.786   7.882  0.6581  0.6995 -0.5473
34042SOL     OW 6487   8.332   8.571   9.334 -0.2052  0.7123 -0.5596
34042SOL    HW1 6488   8.286   8.551   9.415 -0.1798  1.7188 -0.2738
34042SOL    HW2 6489   8.405   8.510   9.331 -0.4696  0.3718 -0.0531
34043SOL     OW 6490   4.573   4.370   2.661 -0.7900 -0.1540 -0.2979
34043SOL    HW1 6491   4.594   4.278   2.644 -0.1914  0.0458 -0.6807
34043SOL    HW2 6492   4.523   4.398   2.585 -0.8920 -0.1424 -0.2256
34044SOL     OW 6493   4.950   5.395   9.829  0.3559  0.0220 -0.1853
34044SOL    HW1 6494   4.950   5.299   9.832 -2.8562 -0.1831 -1.9671
34044SOL    HW2 6495   5.006   5.417   9.755  1.7261 -0.3652  0.6929
34045SOL     OW 6496   1.409   5.146   1.411  0.2037 -0.1258 -0.4409
34045SOL    HW1 6497   1.419   5.099   1.493 -2.0451  2.3204  1.4007
34045SOL    HW2 6498   1.499   5.163   1.382  1.2987  1.6506  3.2760
34046SOL     OW 6499   5.726   6.442  10.384 -0.0730 -0.4199  0.2226
34046SOL    HW1 6500   5.724   6.445  10.479  0.3807 -0.6246  0.2391
34046SOL    HW2 6501   5.654   6.500  10.357 -0.9517 -1.2692  0.6919
34047SOL     OW 6502   5.674   4.977   9.681 -0.1456 -0.5479  0.5692
34047SOL    HW1 6503   5.590   4.941   9.710 -0.3123  1.2069  2.5208
34047SOL    HW2 6504   5.659   5.072   9.676  1.1542 -0.3780 -1.2027
34048SOL     OW 6505   6.249   3.594   1.192 -0.2483 -0.0991  0.1474
34048SOL    HW1 6506   6.344   3.578   1.197 -0.4225 -0.7732  3.8017
34048SOL    HW2 6507   6.210   3.507   1.197 -1.1449  0.1285 -1.9621
34049SOL     OW 6508   3.155   5.774   4.584 -0.2559  0.3290 -0.0783
34049SOL    HW1 6509   3.241   5.744   4.613 -0.5240 -1.1409 -0.6994
34049SOL    HW2 6510   3.118   5.817   4.661  0.6377  0.0908  0.5063
34050SOL     OW 6511   9.455  10.029  10.758 -0.4481  0.0330 -0.4074
34050SOL    HW1 6512   9.435   9.987  10.842 -0.4181 -0.7348 -0.7726
34050SOL    HW2 6513   9.461  10.122  10.778 -0.5301 -0.1357  0.4283
34051SOL     OW 6514   3.497   9.267   8.737 -0.1702 -0.0992  0.3109
34051SOL    HW1 6515   3.540   9.324   8.673  1.1378  1.1834  2.1917
34051SOL    HW2 6516   3.404   9.273   8.715  0.3218 -1.0613 -2.4388
34052SOL     OW 6517   5.362   8.048   5.122 -0.6710  0.4680 -0.1752
34052SOL    HW1 6518   5.431   8.017   5.064 -0.8827 -0.3673 -0.0048
34052SOL    HW2 6519   5.404   8.114   5.177 -0.5073  1.3729 -1.3631
34053SOL     OW 6520   1.198   9.418   0.865 -0.5968  0.2992  0.8007
34053SOL    HW1 6521   1.137   9.477   0.909 -0.6775  1.9046 -1.2484
34053SOL    HW2 6522   1.203   9.452   0.775  0.2185 -2.2105 -0.2031
34054SOL     OW 6523   9.430   2.428   0.300  0.4484 -0.2470 -0.2890
34054SOL    HW1 6524   9.390   2.415   0.386 -0.8954 -1.4051 -1.0451
34054SOL    HW2 6525   9.373   2.381   0.239  1.0198  1.0409 -1.9095
34055SOL     OW 6526   4.798   0.491   2.306  0.3964 -0.1399 -0.3050
34055SOL    HW1 6527   4.820   0.541   2.385 -0.9476 -0.1471  0.0825
34055SOL    HW2 6528   4.835   0.543   2.235 -0.0134  0.8473  0.1804
34056SOL     OW 6529   2.401   8.292  10.856  0.2676 -0.3762 -0.1122
34056SOL    HW1 6530   2.307   8.273  10.864  0.0749 -0.1582 -1.4805
34056SOL    HW2 6531   2.438   8.268  10.940 -0.9846 -0.7046  0.3697
34057SOL     OW 6532   0.812   6.079   7.891  0.2458 -0.2349  0.6779
34057SOL    HW1 6533   0.786   6.075   7.799  1.8074 -3.8415  0.2639
34057SOL    HW2 6534   0.898   6.120   7.890  0.2637 -0.2757  0.5343
34058SOL     OW 6535   8.420   7.826  10.207 -0.5983  0.2119  0.2843
34058SOL    HW1 6536   8.377   7.807  10.123 -0.1994 -1.9454  0.5286
34058SOL    HW2 6537   8.353   7.809  10.273  0.0896 -1.5592  0.5727
34059SOL     OW 6538   0.888   6.532   2.263  0.1180  0.0025  0.2443
34059SOL    HW1 6539   0.874   6.621   2.231 -1.2225 -0.7583 -1.4625
34059SOL    HW2 6540   0.814   6.516   2.322 -0.1468 -0.2851 -0.1633
34060SOL     OW 6541   4.623   5.905   9.320 -0.1721 -0.4223 -0.3093
34060SOL    HW1 6542   4.710   5.946   9.324 -0.4281  0.1748  4.4042
34060SOL    HW2 6543   4.562   5.977   9.335 -1.1967 -1.3681  0.1913
34061SOL     OW 6544   2.618   3.370   9.054  0.0507  0.3153  0.2086
34061SOL    HW1 6545   2.694   3.390   9.000  0.1837  0.8014  0.5734
34061SOL    HW2 6546   2.644   3.292   9.104  0.0708  0.1015 -0.1324
34062SOL     OW 6547   3.491   1.257   2.896 -0.2136 -1.1967 -0.2237
34062SOL    HW1 6548   3.436   1.195   2.848 -3.4412 -1.0901  2.8477
34062SOL    HW2 6549   3.452   1.343   2.878 -0.8026 -1.0449  1.5898
34063SOL     OW 6550   2.809   0.224   4.253 -0.1134 -0.1969 -0.0866
34063SOL    HW1 6551   2.755   0.145   4.262 -1.3590  0.6165 -0.2423
34063SOL    HW2 6552   2.806   0.264   4.340 -0.8283  0.5234 -0.4390
34064SOL     OW 6553   1.491   7.163   9.017 -0.0288  0.3760 -0.6288
34064SOL    HW1 6554   1.550   7.114   8.960  0.1584 -0.7390  0.4747
34064SOL    HW2 6555   1.534   7.247   9.029  1.7031 -0.6239  0.6338
34065SOL     OW 6556   0.580   7.661  10.763 -0.3340  0.5373 -0.3864
34065SOL    HW1 6557   0.642   7.615  10.820  0.0650  2.9205  1.2613
34065SOL    HW2 6558   0.635   7.698  10.694 -0.1391  1.3539  0.1998
34066SOL     OW 6559   1.650   2.504   6.612 -0.4264 -0.3197  0.3474
34066SOL    HW1 6560   1.593   2.581   6.615 -1.0948 -0.7581 -0.4988
34066SOL    HW2 6561   1.626   2.453   6.689  0.6897  0.7594  1.4435
34067SOL     OW 6562   2.055   8.244   0.751 -0.2949  0.0681 -0.0976
34067SOL    HW1 6563   2.138   8.201   0.770 -0.5022 -0.9985 -1.3817
34067SOL    HW2 6564   1.994   8.209   0.816  0.4044  1.4602  1.3551
34068SOL     OW 6565   7.279   8.739   5.388 -0.1372 -0.0223 -0.3750
34068SOL    HW1 6566   7.270   8.734   5.293 -3.2603  2.3045 -0.3468
34068SOL    HW2 6567   7.255   8.651   5.419 -1.0025 -0.2704 -1.6641
34069SOL     OW 6568   4.636  10.563   9.002 -0.1841 -0.0574 -0.5062
34069SOL    HW1 6569   4.707  10.594   8.947  1.1935 -0.6373  0.8785
34069SOL    HW2 6570   4.581  10.640   9.016 -0.7469  0.0373 -2.8668
34070SOL     OW 6571   8.516   1.835   3.732 -0.0793 -0.0855 -0.4473
34070SOL    HW1 6572   8.587   1.850   3.670 -0.0165  2.3491  0.1192
34070SOL    HW2 6573   8.523   1.907   3.795 -1.8033 -0.9387  0.8180
34071SOL     OW 6574   0.498   7.467   4.683 -0.3737  0.4119  0.4434
34071SOL    HW1 6575   0.482   7.452   4.776  1.4218 -1.3887  0.5271
34071SOL    HW2 6576   0.583   7.511   4.680  0.4401 -1.1243 -0.3603
34072SOL     OW 6577   1.487   8.555   6.184  0.6643  0.3563  0.6138
34072SOL    HW1 6578   1.462   8.468   6.215 -0.6023  0.7527  0.7846
34072SOL    HW2 6579   1.411   8.586   6.135  1.3478  1.1107 -0.0046
34073SOL     OW 6580   7.774   7.150   2.155 -0.5133 -0.1174  0.4468
34073SOL    HW1 6581   7.836   7.078   2.169 -2.3974 -1.5628  1.9075
34073SOL    HW2 6582   7.821   7.212   2.100  1.0902 -2.5977 -1.1477
34074SOL     OW 6583  10.889   9.119   1.867  0.5197  0.5806  0.1163
34074SOL    HW1 6584  10.806   9.104   1.911  0.3411  0.5946 -0.2091
34074SOL    HW2 6585  10.935   9.036   1.874 -0.2825 -0.0183 -1.2919
34075SOL     OW 6586   0.278  10.599  10.540 -0.1598  0.5394  0.1532
34075SOL    HW1 6587   0.202  10.641  10.499  0.1646  2.0232  1.0065
34075SOL    HW2 6588   0.308  10.536  10.475 -1.2928  0.9051 -0.7601
34076SOL     OW 6589   7.971   2.146   4.768 -0.1042  0.1021  0.4370
34076SOL    HW1 6590   7.950   2.067   4.719 -0.2195  0.6564 -0.4182
34076SOL    HW2 6591   8.029   2.115   4.839 -0.2946 -0.7666  0.2288
34077SOL     OW 6592   5.178   9.453   6.226  0.1103 -0.1744 -0.5797
34077SOL    HW1 6593   5.129   9.534   6.234 -0.2212 -0.2828 -1.4890
34077SOL    HW2 6594   5.136   9.405   6.155 -0.9008 -2.0014  1.1336
34078SOL     OW 6595   2.474   9.009   4.621  0.0170 -0.8306 -0.2617
34078SOL    HW1 6596   2.528   8.943   4.665 -1.2286 -2.0265 -0.4606
34078SOL    HW2 6597   2.433   8.962   4.548 -0.1821  0.4044 -0.9695
34079SOL     OW 6598   6.541   3.756   9.237  0.2349  0.2309 -0.4160
34079SOL    HW1 6599   6.481   3.689   9.270  0.3082  0.1660 -0.4127
34079SOL    HW2 6600   6.511   3.837   9.277 -0.2405  0.3047 -0.9104
34080SOL     OW 6601  10.413   0.156   1.209  0.3674  0.2916 -0.4299
34080SOL    HW1 6602  10.405   0.240   1.165  0.3458  0.4579 -0.1089
34080SOL    HW2 6603  10.336   0.149   1.264  0.4196  0.1067 -0.3769
34081SOL     OW 6604  10.003   5.318   2.543 -0.3364 -0.3321 -0.0543
34081SOL    HW1 6605  10.063   5.244   2.538 -0.8626 -0.8402  0.9235
34081SOL    HW2 6606   9.916   5.278   2.543 -0.6543  0.3376 -0.3751
34082SOL     OW 6607   4.542   8.410   0.411  0.3065 -0.4110  0.5394
34082SOL    HW1 6608   4.597   8.345   0.454  1.1109 -0.6055 -0.7149
34082SOL    HW2 6609   4.454   8.394   0.445  0.8309 -0.7996  1.7765
34083SOL     OW 6610   6.815   2.126  10.215  0.3694 -0.3506 -0.1834
34083SOL    HW1 6611   6.881   2.074  10.169 -2.6216 -2.2753 -2.7057
34083SOL    HW2 6612   6.788   2.070  10.289 -0.3355 -0.8469 -0.7996
34084SOL     OW 6613   9.060   0.854   1.917 -0.2893  0.0681  0.2554
34084SOL    HW1 6614   9.104   0.814   1.842 -0.8089 -1.3308  0.6546
34084SOL    HW2 6615   9.082   0.796   1.991  0.5515  1.6401  1.2932
34085SOL     OW 6616   1.313   7.951   1.935 -0.4821 -0.1298  0.2803
34085SOL    HW1 6617   1.306   7.999   1.853  0.1937 -1.1857 -0.4099
34085SOL    HW2 6618   1.226   7.959   1.975 -0.3373  1.8240  0.3072
34086SOL     OW 6619  10.782  11.034   3.625  0.2714  0.0114 -0.0256
34086SOL    HW1 6620  10.713  11.049   3.690  0.7103 -0.2561  0.5134
34086SOL    HW2 6621  10.863  11.055   3.671  0.7869 -2.3209  0.2601
34087SOL     OW 6622   4.250   4.072   5.752 -0.3879  0.2147  0.0324
34087SOL    HW1 6623   4.184   4.140   5.748  0.6178  1.2270 -0.0025
34087SOL    HW2 6624   4.273   4.054   5.661 -0.7046 -0.2495  0.0363
34088SOL     OW 6625  10.120  10.218   5.764 -0.7452 -0.1444  0.1532
34088SOL    HW1 6626  10.048  10.161   5.737 -0.5244 -0.7271  0.7432
34088SOL    HW2 6627  10.196  10.186   5.714 -1.2362  1.6404 -1.8544
34089SOL     OW 6628   8.094   5.890  10.871  0.3498 -0.5454 -0.1443
34089SOL    HW1 6629   8.156   5.823  10.901 -0.2983 -0.4531  1.5439
34089SOL    HW2 6630   8.060   5.928  10.952 -0.5331  0.6792 -1.0616
34090SOL     OW 6631   3.133   1.015   8.399 -0.6463 -0.2483 -0.1751
34090SOL    HW1 6632   3.058   0.970   8.360 -1.1450  0.5084 -0.1027
34090SOL    HW2 6633   3.142   1.096   8.347 -0.0796 -0.1845  0.0161
34091SOL     OW 6634   8.033   6.017   9.517 -0.1018  0.1366  0.3990
34091SOL    HW1 6635   8.073   6.036   9.601  0.3882 -0.6868  0.3619
34091SOL    HW2 6636   8.098   5.963   9.471 -1.2735 -1.3269  0.3832
34092SOL     OW 6637  10.174  10.447   9.839 -0.8126  0.4312 -0.3396
34092SOL    HW1 6638  10.219  10.373   9.797 -0.4582  0.9359 -0.8680
34092SOL    HW2 6639  10.155  10.507   9.766 -0.9120  0.9536  0.1118
34093SOL     OW 6640   8.897   5.983   2.153  0.1573 -0.3873  0.1152
34093SOL    HW1 6641   8.845   6.031   2.218 -2.4302 -1.8355 -0.7029
34093SOL    HW2 6642   8.948   5.920   2.203 -0.0261  0.0649  0.8770
34094SOL     OW 6643   6.736   2.446  10.583  0.3992 -0.4811  0.0649
34094SOL    HW1 6644   6.739   2.421  10.491  0.0099 -0.2362 -0.0175
34094SOL    HW2 6645   6.649   2.485  10.595  0.3034 -0.8452  0.6232
34095SOL     OW 6646   7.463   4.197  11.050 -0.3704 -0.1321 -0.5213
34095SOL    HW1 6647   7.523   4.270  11.036  2.3257 -1.7489  1.5609
34095SOL    HW2 6648   7.475   4.140  10.974  0.5992 -0.3427 -0.2134
34096SOL     OW 6649   4.540  10.572  10.191 -0.0368 -0.4328 -0.2661
34096SOL    HW1 6650   4.567  10.657  10.155 -2.1007 -0.1620 -1.3341
34096SOL    HW2 6651   4.470  10.594  10.253 -0.8457 -1.3775 -0.8328
34097SOL     OW 6652   9.539   4.309   8.154  0.4809  0.0573  0.1231
34097SOL    HW1 6653   9.456   4.290   8.111 -0.5010  3.6510  0.1046
34097SOL    HW2 6654   9.544   4.246   8.226 -1.8515 -0.7832 -0.3591
34098SOL     OW 6655   8.333   7.053   6.903  0.2872  0.6002 -0.4651
34098SOL    HW1 6656   8.342   7.139   6.944  0.3335 -0.1068  1.0738
34098SOL    HW2 6657   8.402   7.000   6.944 -0.4353 -0.4526 -0.5925
34099SOL     OW 6658   0.276   9.183  10.238 -0.1009  0.6203 -0.5715
34099SOL    HW1 6659   0.343   9.202  10.304  0.5795  1.5079 -1.4841
34099SOL    HW2 6660   0.301   9.097  10.203 -1.1380 -0.4104  1.0980
34100SOL     OW 6661   5.540   4.585   2.816 -0.5573  0.1822 -0.7351
34100SOL    HW1 6662   5.467   4.555   2.761 -0.7511  1.8717 -1.4526
34100SOL    HW2 6663   5.618   4.547   2.774 -0.9948 -2.3345  0.5149
34101SOL     OW 6664   5.890   2.069  10.763 -0.3357  0.0267  0.1994
34101SOL    HW1 6665   5.970   2.049  10.715  0.4093  1.6804  0.6785
34101SOL    HW2 6666   5.898   2.018  10.844 -1.8187 -3.1441 -1.4494
34102SOL     OW 6667   0.982   7.193   2.352 -0.3629 -0.3541  0.7145
34102SOL    HW1 6668   1.021   7.144   2.425  1.1026 -1.7726 -0.9128
34102SOL    HW2 6669   0.971   7.128   2.283 -1.6176  0.9581 -0.3778
34103SOL     OW 6670   7.817   7.927   5.156  0.0441  0.0107 -0.7075
34103SOL    HW1 6671   7.827   7.836   5.128  0.7087  0.2627 -1.3335
34103SOL    HW2 6672   7.858   7.978   5.086  1.0353  0.7189  0.3542
34104SOL     OW 6673   7.345   9.451   1.219 -0.0294  0.3501  0.2705
34104SOL    HW1 6674   7.344   9.539   1.259 -0.1276  0.0435  0.9680
34104SOL    HW2 6675   7.344   9.391   1.294  0.6058 -0.2510 -0.1860
34105SOL     OW 6676   8.325   9.269   8.469  0.5288  0.1192 -0.4459
34105SOL    HW1 6677   8.267   9.233   8.402 -1.6261  0.3874  1.1917
34105SOL    HW2 6678   8.364   9.193   8.511  1.2052 -0.0679 -1.3704
34106SOL     OW 6679   8.358  10.655   8.853 -0.1146 -0.8103  0.5597
34106SOL    HW1 6680   8.359  10.665   8.948  0.3010  3.3417  0.2910
34106SOL    HW2 6681   8.274  10.690   8.826  1.2226  1.7269 -0.7080
34107SOL     OW 6682   2.783   1.443   7.804 -0.2098  0.2392 -0.3561
34107SOL    HW1 6683   2.822   1.529   7.813  2.0071 -0.8486  1.1369
34107SOL    HW2 6684   2.719   1.437   7.875 -0.2075  0.5414 -0.3298
34108SOL     OW 6685   0.026   2.629   1.384 -0.2173 -0.5389 -0.1181
34108SOL    HW1 6686  -0.004   2.638   1.475  1.0131 -0.0428  0.2718
34108SOL    HW2 6687  -0.048   2.658   1.331 -1.1837 -1.4318  0.6961
34109SOL     OW 6688   2.479   5.362   5.052 -0.1678  0.3620 -0.4378
34109SOL    HW1 6689   2.541   5.436   5.056 -1.8051  1.7319  1.0249
34109SOL    HW2 6690   2.440   5.368   4.965 -0.6303  1.5583 -0.1675
34110SOL     OW 6691   0.672   4.774   1.942 -0.3469  0.2010 -0.0231
34110SOL    HW1 6692   0.687   4.787   2.036  0.6059  0.0164 -0.1474
34110SOL    HW2 6693   0.627   4.854   1.914 -1.4222 -0.1113  0.7570
34111SOL     OW 6694   5.934  10.820   1.449 -0.5899 -0.1820  0.1524
34111SOL    HW1 6695   5.974  10.902   1.479 -0.5434 -0.4730  0.9067
34111SOL    HW2 6696   5.850  10.847   1.411 -0.2826  0.2824 -0.2224
34112SOL     OW 6697   4.333   3.927   8.707  0.0557 -0.0625 -0.3396
34112SOL    HW1 6698   4.271   3.888   8.646 -1.5753  1.1643  0.4681
34112SOL    HW2 6699   4.344   4.016   8.676 -1.9143  1.0446  1.8575
34113SOL     OW 6700   3.834  10.614   5.432  0.4077 -0.1518  0.1791
34113SOL    HW1 6701   3.859  10.530   5.394  0.8593 -0.6959  1.6324
34113SOL    HW2 6702   3.755  10.595   5.483  0.4131  0.3386  0.3763
34114SOL     OW 6703   9.180   7.413   6.497 -0.2701 -0.0610  0.0352
34114SOL    HW1 6704   9.124   7.394   6.422 -2.4095  0.2465  1.4781
34114SOL    HW2 6705   9.126   7.467   6.555  1.4410  0.0555  1.6181
34115SOL     OW 6706   8.092   0.463   6.281  0.2626 -0.1316 -0.5412
34115SOL    HW1 6707   8.059   0.534   6.225 -0.1099  2.2389  2.4011
34115SOL    HW2 6708   8.020   0.400   6.284 -1.2868  1.5634  0.1780
34116SOL     OW 6709   7.643   1.871   3.931  0.0499  0.0987 -0.5365
34116SOL    HW1 6710   7.600   1.786   3.923 -0.3048  0.2275 -0.0527
34116SOL    HW2 6711   7.735   1.853   3.911 -0.0534 -0.3649 -0.6131
34117SOL     OW 6712   8.765   7.367   4.355  0.6284  0.7141 -0.4957
34117SOL    HW1 6713   8.821   7.338   4.284 -0.5570 -0.4691 -0.9983
34117SOL    HW2 6714   8.677   7.340   4.329  0.0134  1.2373  0.9110
34118SOL     OW 6715  10.356   0.946   1.752  0.4984 -0.6399  0.4451
34118SOL    HW1 6716  10.417   0.914   1.819  0.8010  0.6746  0.8390
34118SOL    HW2 6717  10.409   0.952   1.673  1.1823  1.3169  0.9828
34119SOL     OW 6718   5.240   6.005  10.215 -0.0591  0.1865  0.3044
34119SOL    HW1 6719   5.224   5.947  10.141  1.8769  0.8800 -0.7335
34119SOL    HW2 6720   5.300   5.957  10.272  1.8312  1.1802 -0.7295
34120SOL     OW 6721  10.485   2.614   7.389 -0.1425  0.2541  0.2413
34120SOL    HW1 6722  10.400   2.593   7.350 -0.1259  1.1554 -0.3137
34120SOL    HW2 6723  10.546   2.550   7.352 -0.0835  1.2110 -1.4129
34121SOL     OW 6724   6.008   4.362   6.203 -0.4795 -0.1678 -0.2218
34121SOL    HW1 6725   6.083   4.311   6.232  1.1679  0.4256 -2.9952
34121SOL    HW2 6726   5.972   4.400   6.283  0.1598 -3.0100  1.5626
34122SOL     OW 6727   0.616   9.662   8.614 -0.2396 -0.3124 -0.3322
34122SOL    HW1 6728   0.647   9.604   8.684  0.0193  1.3569  1.0042
34122SOL    HW2 6729   0.589   9.603   8.544 -1.3628 -2.1090  1.5139
34123SOL     OW 6730   7.900   1.708   4.466 -0.6971  0.1610  0.0448
34123SOL    HW1 6731   7.898   1.777   4.401  1.2930 -1.1878 -1.5680
34123SOL    HW2 6732   7.960   1.642   4.431 -0.9937 -1.5212  2.3762
34124SOL     OW 6733   2.761   2.782   9.385  0.2731  0.6260  0.2750
34124SOL    HW1 6734   2.789   2.701   9.429  1.3103  0.8909  0.1243
34124SOL    HW2 6735   2.751   2.756   9.293 -0.3603  0.4474  0.3863
34125SOL     OW 6736   7.177   4.471  10.888  0.3166  0.1995  0.5331
34125SOL    HW1 6737   7.099   4.458  10.941  1.1902 -1.7109  1.4429
34125SOL    HW2 6738   7.193   4.386  10.847  2.4832  0.2235  1.1980
34126SOL     OW 6739   2.450  10.175   7.679  0.2799  0.3897  0.1341
34126SOL    HW1 6740   2.543  10.177   7.702  0.3760 -0.4935 -0.1352
34126SOL    HW2 6741   2.449  10.184   7.584  0.2095 -1.2839 -0.0582
34127SOL     OW 6742   4.004   3.449   9.820 -0.1590  0.3445  0.2268
34127SOL    HW1 6743   3.974   3.386   9.755 -1.9905  1.5030 -0.1258
34127SOL    HW2 6744   4.089   3.416   9.849 -1.0159 -2.2297  0.0123
34128SOL     OW 6745   0.857   0.174   5.195 -0.2878 -0.5769 -0.2167
34128SOL    HW1 6746   0.847   0.085   5.162  0.3252 -0.4119 -0.8684
34128SOL    HW2 6747   0.825   0.170   5.285  1.2144 -1.8287  0.3041
34129SOL     OW 6748  10.893   6.619   9.256 -0.5570 -0.4044 -0.4897
34129SOL    HW1 6749  10.948   6.545   9.282 -0.1373  0.4997  1.3364
34129SOL    HW2 6750  10.936   6.696   9.292 -1.6892  0.6077 -1.2006
34130SOL     OW 6751   2.401   1.707   0.790  0.6306 -0.3315  0.0854
34130SOL    HW1 6752   2.377   1.656   0.713 -0.8194  0.4503 -0.0087
34130SOL    HW2 6753   2.491   1.735   0.774  1.0614 -1.8742 -0.3709
34131SOL     OW 6754  11.077   8.887   4.327  0.3952  0.0237 -0.2849
34131SOL    HW1 6755  11.059   8.981   4.316  1.6451  0.5013  1.3398
34131SOL    HW2 6756  11.123   8.881   4.411  1.6320 -1.8671 -1.0282
34132SOL     OW 6757   7.590   6.894   3.839  0.3978 -0.8249 -0.2133
34132SOL    HW1 6758   7.677   6.926   3.860 -0.7410  1.7472  0.9966
34132SOL    HW2 6759   7.566   6.838   3.913  0.3649 -0.0956  0.3372
34133SOL     OW 6760   5.850   5.061   7.524  0.0012 -0.0928 -0.5420
34133SOL    HW1 6761   5.894   5.138   7.559 -0.8683  0.6673 -1.0548
34133SOL    HW2 6762   5.906   4.988   7.548  0.3061  0.5771  0.8985
34134SOL     OW 6763   0.190   7.534   2.237 -0.0686  0.5102 -0.1819
34134SOL    HW1 6764   0.144   7.522   2.153  1.1830 -0.8340 -0.7034
34134SOL    HW2 6765   0.202   7.629   2.243  1.5804  0.5380 -2.5397
34135SOL     OW 6766   9.439   0.021  10.114  0.1841 -0.1576  0.1390
34135SOL    HW1 6767   9.526   0.004  10.078 -0.0940 -2.3543  0.4201
34135SOL    HW2 6768   9.444   0.112  10.144  1.8601  0.2839 -1.2820
34136SOL     OW 6769   9.066   3.892   3.692 -0.6272 -0.1576 -0.0603
34136SOL    HW1 6770   9.127   3.926   3.758  0.4224 -1.0234 -0.5392
34136SOL    HW2 6771   9.040   3.807   3.726  0.7242 -1.0693 -1.1916
34137SOL     OW 6772   8.067   2.409   9.003 -0.0600 -0.2419  0.1314
34137SOL    HW1 6773   8.129   2.455   8.948  1.8111  1.9575  3.6681
34137SOL    HW2 6774   7.982   2.448   8.982  0.4287 -0.0392 -1.6079
34138SOL     OW 6775   3.733   3.292   1.360 -0.1142 -0.0879  0.1902
34138SOL    HW1 6776   3.821   3.327   1.373  1.3446 -1.9049 -3.4838
34138SOL    HW2 6777   3.729   3.216   1.419  1.3383 -0.7343 -0.4880
34139SOL     OW 6778   9.611   7.747   6.194  0.0096  0.3539  0.1148
34139SOL    HW1 6779   9.556   7.826   6.194 -0.2332  0.1868  0.4530
34139SOL    HW2 6780   9.700   7.781   6.208 -0.3439  0.4347  2.7552
34140SOL     OW 6781   5.384   5.737   3.815  0.0149 -0.1156 -0.2614
34140SOL    HW1 6782   5.465   5.740   3.764 -0.8603 -2.0440 -1.8771
34140SOL    HW2 6783   5.411   5.705   3.902  0.7075 -3.7195 -1.6372
34141SOL     OW 6784   4.254   3.128   2.824  0.4283  1.0128 -0.0287
34141SOL    HW1 6785   4.166   3.094   2.813  0.1903  1.9413 -1.2810
34141SOL    HW2 6786   4.297   3.067   2.885 -1.1087  0.6518  0.7344
34142SOL     OW 6787  11.110   7.669   8.757  0.1462 -0.3380  0.0727
34142SOL    HW1 6788  11.049   7.596   8.765  0.4994 -0.5365  0.9930
34142SOL    HW2 6789  11.070   7.739   8.809  1.6239 -1.0917  2.3368
34143SOL     OW 6790   3.251   8.099  10.049 -0.3467  0.3423 -0.1734
34143SOL    HW1 6791   3.216   8.099  10.138  0.0858 -0.3752 -0.0030
34143SOL    HW2 6792   3.237   8.189  10.019 -0.1103  0.7142  0.7720
34144SOL     OW 6793   9.204   8.804   5.218  0.3495  0.2040  0.9126
34144SOL    HW1 6794   9.142   8.876   5.209  0.4974  0.2767  0.4289
34144SOL    HW2 6795   9.150   8.725   5.227  0.1877  0.2766  0.5679
34145SOL     OW 6796   6.904   4.906   9.701  0.4261 -0.8900  0.0520
34145SOL    HW1 6797   6.938   4.982   9.654 -1.1185 -0.6772 -0.7997
34145SOL    HW2 6798   6.964   4.835   9.680  1.0113 -0.2685 -0.4124
34146SOL     OW 6799   0.065   0.052   6.436 -0.1311  0.3559 -0.0409
34146SOL    HW1 6800   0.121  -0.020   6.464 -0.7151 -1.1192 -2.3762
34146SOL    HW2 6801  -0.018   0.038   6.482 -0.4519 -0.9018 -0.9355
34147SOL     OW 6802   7.488   1.258  10.044  0.4852 -0.0489  0.0885
34147SOL    HW1 6803   7.422   1.296  10.103  0.7650 -1.7895  1.6229
34147SOL    HW2 6804   7.447   1.179  10.009  1.0564 -0.1128 -0.4559
34148SOL     OW 6805   3.421   5.662  10.760  0.0023 -0.1767  0.3286
34148SOL    HW1 6806   3.386   5.682  10.846 -0.8589 -1.6420  0.3367
34148SOL    HW2 6807   3.509   5.628  10.777  0.2866  0.6254  0.5215
34149SOL     OW 6808   2.468   5.792   2.009 -0.4285 -0.1726 -0.2546
34149SOL    HW1 6809   2.464   5.881   2.043  0.4534  0.4735 -1.7256
34149SOL    HW2 6810   2.500   5.740   2.082 -1.9790  0.5005  0.9568
34150SOL     OW 6811   7.074   0.473  10.234 -0.3584 -0.5930  0.3220
34150SOL    HW1 6812   7.033   0.430  10.159 -1.1062 -1.9424  1.4566
34150SOL    HW2 6813   7.067   0.567  10.215 -0.1519 -0.9043 -1.4716
34151SOL     OW 6814   7.962   9.024   5.123 -0.3519  0.1576  0.0667
34151SOL    HW1 6815   7.972   9.002   5.215  0.1134  0.2546  0.0394
34151SOL    HW2 6816   7.976   8.941   5.076 -0.8322  0.0557  0.0897
34152SOL     OW 6817   2.850   5.844   3.094  0.3321  0.1213 -0.1673
34152SOL    HW1 6818   2.900   5.885   3.164  0.0556 -0.9769  0.6949
34152SOL    HW2 6819   2.878   5.890   3.015  1.6230  0.5058  0.4801
34153SOL     OW 6820   5.410   8.107   1.037  0.7680 -0.4881  0.3210
34153SOL    HW1 6821   5.413   8.012   1.034  0.2148 -0.4752 -0.8050
34153SOL    HW2 6822   5.365   8.127   1.119  2.2503 -1.1442  1.3507
34154SOL     OW 6823   1.610   0.324   4.292 -0.0336  0.2058  0.2858
34154SOL    HW1 6824   1.630   0.340   4.200  0.2883 -0.5507  0.2126
34154SOL    HW2 6825   1.526   0.277   4.290  0.5310 -0.8433  0.2893
34155SOL     OW 6826   2.376   5.706  10.315  0.1082 -0.5599 -0.1877
34155SOL    HW1 6827   2.414   5.634  10.365  2.7546  0.5184 -0.4975
34155SOL    HW2 6828   2.366   5.777  10.378 -2.6157 -1.1006  0.1486
34156SOL     OW 6829  11.016   8.224   0.024  0.3282  0.1209 -0.2851
34156SOL    HW1 6830  10.971   8.300  -0.012  0.6364  0.1147 -0.6923
34156SOL    HW2 6831  11.073   8.194  -0.046 -1.6623 -2.0692 -1.1391
34157SOL     OW 6832   2.796   7.461   0.907  0.2234  0.0369 -0.0708
34157SOL    HW1 6833   2.843   7.489   0.828  0.8104 -0.8626 -0.0443
34157SOL    HW2 6834   2.705   7.485   0.889  0.3267 -0.2741 -1.0886
34158SOL     OW 6835   6.111  10.745  10.834 -0.4903  0.1156 -0.0048
34158SOL    HW1 6836   6.169  10.767  10.761  0.0481 -0.1930  0.3275
34158SOL    HW2 6837   6.053  10.821  10.842 -0.4298  0.2299 -0.6325
34159SOL     OW 6838   9.191   4.667   5.166 -0.6598  0.3665  0.0377
34159SOL    HW1 6839   9.231   4.653   5.252 -0.4926  1.4264  0.1455
34159SOL    HW2 6840   9.248   4.731   5.124  0.1440 -1.2656 -1.4881
34160SOL     OW 6841   4.744   1.766  10.089 -0.2748 -0.1268  0.3618
34160SOL    HW1 6842   4.689   1.763  10.168 -1.4918 -0.1730 -0.4613
34160SOL    HW2 6843   4.697   1.714  10.025  0.3010  0.5612 -0.6490
34161SOL     OW 6844   0.709   7.413   6.580  0.0706 -0.6444  0.4931
34161SOL    HW1 6845   0.637   7.352   6.565 -0.5008  0.2778 -0.7460
34161SOL    HW2 6846   0.788   7.362   6.566 -0.3260 -1.6181  1.6374
34162SOL     OW 6847   5.667   9.373  11.044  0.1451  0.2262  1.3600
34162SOL    HW1 6848   5.741   9.325  11.082 -1.1598 -1.3373  2.0417
34162SOL    HW2 6849   5.630   9.313  10.979  0.6015  1.7505 -0.3715
34163SOL     OW 6850   4.320   1.573   2.390  0.3296  0.5562  0.0106
34163SOL    HW1 6851   4.311   1.665   2.365  1.2905  0.2974 -1.3946
34163SOL    HW2 6852   4.270   1.565   2.471 -0.3288  2.1562 -0.2084
34164SOL     OW 6853   3.655   4.463   8.529  0.1702 -0.0892  0.2618
34164SOL    HW1 6854   3.698   4.379   8.541 -0.7144 -0.3274  2.1234
34164SOL    HW2 6855   3.561   4.443   8.537 -0.1251  0.9131 -0.4159
34165SOL     OW 6856   6.999   5.352   8.490  0.2852  0.1151 -0.3647
34165SOL    HW1 6857   6.937   5.284   8.461  1.3812 -0.3255 -1.7997
34165SOL    HW2 6858   7.068   5.303   8.534  0.7933  0.3494 -0.8958
34166SOL     OW 6859  10.929   3.020   4.977  0.1267 -0.3042  0.6502
34166SOL    HW1 6860  10.846   2.984   5.009  0.7619 -0.9611  1.5765
34166SOL    HW2 6861  10.907   3.110   4.951 -0.8290 -0.4039  1.0739
34167SOL     OW 6862   5.501   2.615   2.852  0.7696 -0.2265 -0.2048
34167SOL    HW1 6863   5.558   2.600   2.928  1.4847  1.0014 -0.4651
34167SOL    HW2 6864   5.561   2.625   2.778  0.2328  0.9812 -0.5072
34168SOL     OW 6865   0.650   9.979   5.852  0.0218 -0.0915  0.5594
34168SOL    HW1 6866   0.695  10.030   5.784 -1.8288  0.3900 -0.3824
34168SOL    HW2 6867   0.719   9.953   5.912  1.6646 -0.0301 -1.1914
34169SOL     OW 6868   3.745   5.580   5.433 -0.1832 -0.0362 -0.5432
34169SOL    HW1 6869   3.794   5.565   5.352  0.7902 -1.3165  0.2463
34169SOL    HW2 6870   3.725   5.492   5.465 -2.4278  0.4546 -0.4675
34170SOL     OW 6871   8.921   5.514   8.779 -0.3699  0.6761 -0.2159
34170SOL    HW1 6872   8.906   5.595   8.731  0.5726  0.6486 -0.5725
34170SOL    HW2 6873   9.000   5.478   8.741 -0.2783  0.0443  0.5554
34171SOL     OW 6874   6.659   9.303   1.154 -0.2154  0.1398 -1.0362
34171SOL    HW1 6875   6.576   9.348   1.140 -1.8104 -2.2659 -0.1493
34171SOL    HW2 6876   6.645   9.215   1.117  0.3626 -1.7283  2.7149
34172SOL     OW 6877   6.873   9.288  10.433  0.1412  0.5025 -0.5514
34172SOL    HW1 6878   6.969   9.292  10.428  0.0954  0.9098 -1.4396
34172SOL    HW2 6879   6.846   9.380  10.436 -0.1812  0.3867  1.3411
34173SOL     OW 6880   7.901   2.656   0.132 -0.2717  0.2475 -0.1707
34173SOL    HW1 6881   7.892   2.725   0.067  0.7699 -1.4460 -2.2138
34173SOL    HW2 6882   7.873   2.697   0.214 -1.8879  2.3840 -1.6786
34174SOL     OW 6883   4.686   9.883   6.889  0.6309 -0.0144 -0.2380
34174SOL    HW1 6884   4.739   9.804   6.885 -0.4589 -0.7543 -0.4190
34174SOL    HW2 6885   4.680   9.912   6.798  1.1626  0.3796 -0.1531
34175SOL     OW 6886   1.945   5.884   4.103 -0.4503  0.1876  0.0469
34175SOL    HW1 6887   1.960   5.812   4.042  0.3776  1.4949 -1.3486
34175SOL    HW2 6888   2.016   5.946   4.085  0.3932  0.2524  2.9705
34176SOL     OW 6889   6.061   1.961   8.247 -0.1007 -1.3673 -0.1287
34176SOL    HW1 6890   6.030   2.051   8.237 -2.7008 -2.0707  0.7471
34176SOL    HW2 6891   6.144   1.958   8.200 -0.6334  1.1246 -1.3711
34177SOL     OW 6892   8.786   9.916   4.656 -0.0540 -0.0320 -0.1215
34177SOL    HW1 6893   8.696   9.893   4.681 -0.0106  0.1505  0.2061
34177SOL    HW2 6894   8.833   9.833   4.657  0.3610  0.1765  2.1226
34178SOL     OW 6895   4.663   6.111   4.592  0.1070  0.2318  0.0182
34178SOL    HW1 6896   4.591   6.049   4.594  0.7499 -0.5259  1.8700
34178SOL    HW2 6897   4.638   6.179   4.655 -1.0688  2.5524 -2.6873
34179SOL     OW 6898   5.120   4.678  10.374  0.1037 -0.0653  0.1229
34179SOL    HW1 6899   5.081   4.593  10.392  0.9225 -0.4666  0.0216
34179SOL    HW2 6900   5.175   4.696  10.450 -0.8230  0.8330  0.6050
34180SOL     OW 6901   3.280   6.639  10.170  0.0823 -0.7619  0.5227
34180SOL    HW1 6902   3.347   6.633  10.101  0.1358 -1.8385  0.6502
34180SOL    HW2 6903   3.266   6.733  10.182  1.5696 -0.5104  0.4893
34181SOL     OW 6904   9.252   2.114   3.124  0.2721  0.3187  0.2768
34181SOL    HW1 6905   9.224   2.097   3.033 -2.3192  2.0162  0.6501
34181SOL    HW2 6906   9.315   2.185   3.116 -1.9654  2.4039 -0.1384
34182SOL     OW 6907   9.786   9.099   9.760 -0.1062  0.3879 -0.5864
34182SOL    HW1 6908   9.737   9.156   9.819  0.3828 -0.9073  1.1570
34182SOL    HW2 6909   9.797   9.150   9.680 -2.1382  1.6213 -0.1321
34183SOL     OW 6910   5.087   2.067   9.027 -0.3041 -0.2311  0.2394
34183SOL    HW1 6911   5.023   2.083   9.097  1.5285  3.2328  1.3450
34183SOL    HW2 6912   5.039   2.089   8.947 -1.1970  0.0332  0.8187
34184SOL     OW 6913   4.957   4.548   5.881  0.0793  0.0795 -0.5026
34184SOL    HW1 6914   4.901   4.497   5.824  0.1404 -0.0944 -0.4087
34184SOL    HW2 6915   4.987   4.485   5.947 -1.9912  0.7886  1.2236
34185SOL     OW 6916   8.475   9.553   3.034 -0.0542  0.2288  0.1719
34185SOL    HW1 6917   8.556   9.507   3.055  1.4361  2.6732  0.1809
34185SOL    HW2 6918   8.446   9.516   2.951 -0.1617 -2.1542  1.1974
34186SOL     OW 6919  10.339  10.149   6.240 -0.1378 -0.1657 -0.2208
34186SOL    HW1 6920  10.338  10.085   6.311 -3.0551 -0.2520 -0.1997
34186SOL    HW2 6921  10.300  10.227   6.278  2.3583  1.3483 -0.5664
34187SOL     OW 6922   8.588   0.346   6.990  0.2096 -0.5839 -0.2744
34187SOL    HW1 6923   8.552   0.264   6.957 -0.3724 -0.7665  0.7604
34187SOL    HW2 6924   8.664   0.364   6.934 -0.5683 -1.0075 -1.4981
34188SOL     OW 6925  10.026   9.355   0.138 -0.3983 -0.3827 -0.4814
34188SOL    HW1 6926   9.981   9.433   0.171  0.5665 -0.6594  1.6184
34188SOL    HW2 6927   9.965   9.283   0.155 -0.1728 -0.4346  0.1336
34189SOL     OW 6928   6.682   4.943   8.293 -0.3074  1.1062  0.2681
34189SOL    HW1 6929   6.599   4.918   8.333 -0.0131  0.8547  0.7216
34189SOL    HW2 6930   6.738   4.866   8.302 -0.3557  0.8931 -0.9853
34190SOL     OW 6931   4.065   8.132   0.435  0.2207  0.0081  0.4413
34190SOL    HW1 6932   4.070   8.037   0.421 -2.9072  0.0460 -2.2338
34190SOL    HW2 6933   3.975   8.146   0.466  1.2177  2.0077  2.7049
34191SOL     OW 6934   4.474   2.811   2.129  0.1876 -0.5300 -0.0620
34191SOL    HW1 6935   4.446   2.892   2.170  0.4336 -0.1569 -0.6182
34191SOL    HW2 6936   4.396   2.755   2.129 -0.2704  0.0984 -0.6374
34192SOL     OW 6937   8.877   6.753   1.764 -0.0636  0.0575 -0.3854
34192SOL    HW1 6938   8.920   6.830   1.800  0.5900  0.3765 -1.7833
34192SOL    HW2 6939   8.928   6.730   1.687 -0.2049 -1.8371  0.0303
34193SOL     OW 6940   1.085   9.404   7.863 -0.3552 -0.1084 -0.3250
34193SOL    HW1 6941   1.034   9.324   7.878  1.7939 -1.4442  0.3100
34193SOL    HW2 6942   1.076   9.422   7.770 -1.3313 -0.7474 -0.3642
34194SOL     OW 6943   5.000   4.664   0.399 -0.3296 -0.0749  0.1894
34194SOL    HW1 6944   5.010   4.679   0.305 -0.6835  0.8106  0.2883
34194SOL    HW2 6945   5.089   4.670   0.434 -0.2930  0.4111  0.0200
34195SOL     OW 6946   0.976   6.107   9.604 -0.2016  0.8299  0.5764
34195SOL    HW1 6947   1.070   6.123   9.603 -0.3615  1.9406 -1.0435
34195SOL    HW2 6948   0.956   6.085   9.695  1.3245  2.4837  1.3733
34196SOL     OW 6949   9.167  10.854  10.895 -0.3021 -0.2077 -0.4919
34196SOL    HW1 6950   9.130  10.856  10.807  0.8409  0.6382 -0.9824
34196SOL    HW2 6951   9.218  10.935  10.901 -1.6741  0.5718  1.5569
34197SOL     OW 6952   7.824   6.391   5.848 -0.3062  0.4362  0.2930
34197SOL    HW1 6953   7.873   6.428   5.774 -0.1129  0.5598  0.4847
34197SOL    HW2 6954   7.776   6.466   5.884 -1.1541  0.2042 -0.2937
34198SOL     OW 6955   4.290   1.557   6.285 -0.6729 -0.4466 -0.1537
34198SOL    HW1 6956   4.350   1.514   6.223 -0.5677 -0.0836 -0.3059
34198SOL    HW2 6957   4.324   1.532   6.371  0.7721  1.1594 -0.1983
34199SOL     OW 6958   7.867   1.690   2.101  0.0117  0.2736  0.7362
34199SOL    HW1 6959   7.823   1.678   2.017 -1.0071  0.1098  1.2768
34199SOL    HW2 6960   7.908   1.777   2.095 -0.7824  0.6287  0.3888
34200SOL     OW 6961   1.888   4.910   0.566 -0.3678  0.3437  0.0502
34200SOL    HW1 6962   1.909   4.881   0.477 -0.7122  1.9914 -0.6059
34200SOL    HW2 6963   1.853   4.832   0.610  0.3887 -0.6473 -1.0481
34201SOL     OW 6964  10.947   0.999   9.789  0.4257 -0.3689 -0.4210
34201SOL    HW1 6965  10.918   0.915   9.754  1.2711 -1.2469  0.9045
34201SOL    HW2 6966  10.980   1.047   9.713 -0.9211 -0.8413 -1.3411
34202SOL     OW 6967   8.766   1.636   7.777  0.0696 -0.6078 -0.5004
34202SOL    HW1 6968   8.673   1.651   7.793  0.2964 -0.2640  0.5508
34202SOL    HW2 6969   8.773   1.541   7.767 -0.3312 -0.6823 -0.1115
34203SOL     OW 6970   6.154   1.417   2.684 -0.5806  0.0406 -0.0174
34203SOL    HW1 6971   6.077   1.361   2.674  1.1198 -2.2821 -1.0795
34203SOL    HW2 6972   6.142   1.486   2.619 -1.9917  0.0907  0.2464
34204SOL     OW 6973   3.825   4.462   5.525  0.4114 -0.5235  0.0105
34204SOL    HW1 6974   3.846   4.508   5.606 -1.9534  0.5220  0.1031
34204SOL    HW2 6975   3.778   4.526   5.472  0.8120 -1.5671 -1.7029
34205SOL     OW 6976   5.262   3.009   4.816  0.5948 -0.1950 -0.4627
34205SOL    HW1 6977   5.341   3.059   4.836  0.9396 -0.8611 -0.0912
34205SOL    HW2 6978   5.290   2.949   4.746  0.1977  0.1012 -0.8817
34206SOL     OW 6979   7.419   6.524   4.553  0.2916 -0.5287  0.1457
34206SOL    HW1 6980   7.391   6.469   4.626  0.9833 -0.6347  0.3402
34206SOL    HW2 6981   7.461   6.463   4.492 -0.2343 -0.4321 -0.3236
34207SOL     OW 6982   7.244   4.485   6.613 -0.8760 -0.2501  0.5817
34207SOL    HW1 6983   7.333   4.477   6.649  0.0500  0.4238 -1.3952
34207SOL    HW2 6984   7.256   4.471   6.519 -2.6281  1.3870  0.0672
34208SOL     OW 6985  10.598   2.464   9.111  0.3962  0.5261  0.6559
34208SOL    HW1 6986  10.609   2.478   9.017 -0.8470  0.2116  0.4471
34208SOL    HW2 6987  10.685   2.436   9.141  0.4851 -0.7369 -0.6624
34209SOL     OW 6988   3.697   0.746   5.410  0.1505 -0.7151 -0.0385
34209SOL    HW1 6989   3.662   0.708   5.490  0.2205 -2.0384 -0.6197
34209SOL    HW2 6990   3.746   0.823   5.439 -0.4703 -0.7380  1.1019
34210SOL     OW 6991   4.058   1.962   9.791  0.0950  0.4608 -0.1130
34210SOL    HW1 6992   3.993   1.934   9.726  0.2257  0.6098 -0.3100
34210SOL    HW2 6993   4.123   1.892   9.790  1.0284  1.2971 -1.4560
34211SOL     OW 6994   8.692   7.318   9.221 -0.7766 -0.3825  0.8147
34211SOL    HW1 6995   8.598   7.312   9.205 -0.2678 -2.0137 -2.4403
34211SOL    HW2 6996   8.719   7.229   9.241  0.3516 -0.3766 -0.5345
34212SOL     OW 6997   1.079   7.338   4.025 -0.2078  0.1242  0.0370
34212SOL    HW1 6998   1.087   7.358   4.118 -1.6545  1.9416 -0.1729
34212SOL    HW2 6999   1.012   7.270   4.020 -0.7052  0.5969  0.2688
34213SOL     OW 7000   5.300   5.926   2.891  0.0597  0.3610 -0.1069
34213SOL    HW1 7001   5.243   5.852   2.870  1.3207 -1.2293  1.6714
34213SOL    HW2 7002   5.348   5.944   2.810 -0.9499 -0.1117 -0.8289
34214SOL     OW 7003   8.244   6.888   2.005  0.5525 -0.6184 -0.0948
34214SOL    HW1 7004   8.318   6.864   1.948  0.0284 -2.1154 -0.2030
34214SOL    HW2 7005   8.166   6.871   1.952  0.0875 -0.6368  0.5774
34215SOL     OW 7006  11.090   1.477   8.917 -0.3108  0.0061  0.0818
34215SOL    HW1 7007  11.003   1.498   8.884  0.2572  2.8222  0.1158
34215SOL    HW2 7008  11.077   1.400   8.973 -2.9641  0.9590  0.9114
34216SOL     OW 7009   3.243   3.942   0.682  0.3209 -0.2946 -0.4071
34216SOL    HW1 7010   3.272   3.944   0.591  0.1273  1.2696 -0.4568
34216SOL    HW2 7011   3.239   4.034   0.708  1.7461 -0.7615  1.6486
34217SOL     OW 7012   4.650   7.876   6.020  0.2628 -0.6728 -0.0788
34217SOL    HW1 7013   4.555   7.885   6.009  0.2375 -0.1935  0.4850
34217SOL    HW2 7014   4.687   7.945   5.965  0.2061  0.3777  1.1463
34218SOL     OW 7015   8.973  10.697   5.677 -0.3343  0.6933  0.1152
34218SOL    HW1 7016   8.911  10.628   5.699  0.9450 -0.2394  0.9363
34218SOL    HW2 7017   8.942  10.732   5.594 -2.0704  0.4244  0.6009
34219SOL     OW 7018  11.008   4.664   2.798  0.1596 -0.8117  0.5094
34219SOL    HW1 7019  10.992   4.698   2.710 -1.1785  0.7516  1.2869
34219SOL    HW2 7020  11.100   4.639   2.799 -0.0152 -1.6928 -1.5716
34220SOL     OW 7021   6.337   9.773   9.407 -0.3778 -0.5695  0.0590
34220SOL    HW1 7022   6.244   9.756   9.391 -0.6218 -0.1466  0.9392
34220SOL    HW2 7023   6.358   9.719   9.483 -0.3741  0.6758  0.9666
34221SOL     OW 7024   8.482   1.266   8.043  0.1985 -0.0354  0.0223
34221SOL    HW1 7025   8.538   1.344   8.039 -0.3142  0.4052  1.0425
34221SOL    HW2 7026   8.427   1.280   8.120 -1.1556 -0.5677 -0.8051
34222SOL     OW 7027   3.165   8.841   3.976 -0.0964  0.0329  0.6800
34222SOL    HW1 7028   3.095   8.892   4.016 -0.2297  0.5206 -0.1388
34222SOL    HW2 7029   3.165   8.870   3.884  0.5778 -0.6222  0.4704
34223SOL     OW 7030   3.470   5.238   4.252  0.1424 -0.0124  0.4763
34223SOL    HW1 7031   3.491   5.145   4.264  1.2214 -0.2228 -2.3292
34223SOL    HW2 7032   3.387   5.237   4.204  1.7120  0.2559 -2.4563
34224SOL     OW 7033   5.177   1.183   1.742 -0.4809  0.5526 -0.3290
34224SOL    HW1 7034   5.170   1.248   1.812  0.5015 -0.8445  1.1185
34224SOL    HW2 7035   5.129   1.107   1.774 -0.3880  0.0285 -1.3646
34225SOL     OW 7036   0.576   9.699   2.145 -0.0753 -0.1189  0.0930
34225SOL    HW1 7037   0.539   9.751   2.217  0.0172 -1.7546  1.4076
34225SOL    HW2 7038   0.644   9.645   2.187 -1.4612 -2.6933 -0.7142
34226SOL     OW 7039   6.115   0.002   2.952 -0.7450 -0.3594 -0.4206
34226SOL    HW1 7040   6.179   0.066   2.982 -0.2442 -0.7087 -0.7259
34226SOL    HW2 7041   6.160  -0.045   2.882 -1.5150 -0.2717 -0.9783
34227SOL     OW 7042   9.521   7.389   8.205  0.1160 -0.1929  0.3940
34227SOL    HW1 7043   9.451   7.384   8.139  0.0585  2.6838  0.1178
34227SOL    HW2 7044   9.476   7.408   8.287  0.4928  1.3353  0.2778
34228SOL     OW 7045  10.849   4.790   0.820  0.0058  0.1511  0.0967
34228SOL    HW1 7046  10.772   4.840   0.791  0.3029  0.7631  0.3466
34228SOL    HW2 7047  10.867   4.823   0.908  0.6580  0.1367 -0.0251
34229SOL     OW 7048   6.234   7.831   8.337 -0.8821  0.1395 -0.0599
34229SOL    HW1 7049   6.235   7.819   8.432  0.8600 -1.0748 -0.1733
34229SOL    HW2 7050   6.297   7.766   8.305 -1.5941  0.3826 -2.0660
34230SOL     OW 7051   4.113   9.645   8.867 -0.2134  0.5759 -0.5042
34230SOL    HW1 7052   4.031   9.609   8.901 -0.1667  0.8484 -0.1000
34230SOL    HW2 7053   4.151   9.691   8.941 -0.3963  1.6830 -1.0835
34231SOL     OW 7054   1.844   0.569   6.250 -0.0697 -0.5234 -0.0787
34231SOL    HW1 7055   1.884   0.483   6.238 -2.3161 -1.7261  0.4105
34231SOL    HW2 7056   1.849   0.610   6.164 -0.4687 -1.8536 -0.7698
34232SOL     OW 7057   4.831   3.708   5.806 -0.0424 -0.4807 -0.0110
34232SOL    HW1 7058   4.900   3.762   5.767  0.9106 -1.6717 -0.0322
34232SOL    HW2 7059   4.764   3.702   5.737  1.0999 -1.6087 -1.0787
34233SOL     OW 7060   1.270   9.498  10.637  0.3664 -0.0706 -0.6733
34233SOL    HW1 7061   1.260   9.406  10.661 -0.2499  0.1511 -0.0562
34233SOL    HW2 7062   1.183   9.536  10.650  0.6075  0.5944 -0.9501
34234SOL     OW 7063   2.309   5.160  10.240  0.1948 -0.3184 -0.0982
34234SOL    HW1 7064   2.262   5.237  10.273  0.5439 -0.2782  0.3226
34234SOL    HW2 7065   2.396   5.193  10.217  0.5930 -0.7073  0.7717
34235SOL     OW 7066   2.574   5.628   7.529  0.4776  0.3064  0.2640
34235SOL    HW1 7067   2.594   5.595   7.617  0.9471  2.7673  1.1713
34235SOL    HW2 7068   2.558   5.550   7.477  3.4552 -1.4223  1.7234
34236SOL     OW 7069   0.727   0.033   8.101  0.7141  0.4341  0.2630
34236SOL    HW1 7070   0.673   0.043   8.023  0.1512  0.6538  0.6811
34236SOL    HW2 7071   0.748  -0.061   8.103  1.4890  0.5741 -0.6456
34237SOL     OW 7072   7.249   9.271   8.824 -0.0112 -0.4103  0.7545
34237SOL    HW1 7073   7.207   9.245   8.742  1.9089 -1.2841 -0.0154
34237SOL    HW2 7074   7.179   9.312   8.875 -1.5240 -0.8855 -0.8408
34238SOL     OW 7075   7.702   4.698   0.511 -0.0966  0.1825  0.1995
34238SOL    HW1 7076   7.733   4.773   0.459  0.4096 -0.9418 -1.1771
34238SOL    HW2 7077   7.769   4.631   0.499 -1.0683 -0.8733  0.5123
34239SOL     OW 7078   5.555   4.451   9.781  0.1164 -0.3062  0.5112
34239SOL    HW1 7079   5.501   4.487   9.710 -1.0528  0.2924  1.6669
34239SOL    HW2 7080   5.645   4.458   9.748 -0.2692  1.4216 -0.2965
34240SOL     OW 7081   4.123   1.389   8.445  0.1887  0.2454 -0.0919
34240SOL    HW1 7082   4.093   1.302   8.471  1.4225  0.1937  1.3310
34240SOL    HW2 7083   4.208   1.373   8.403  0.5935  0.7669  0.5051
34241SOL     OW 7084   4.155   8.597   3.313 -0.3843 -0.2804  0.2052
34241SOL    HW1 7085   4.165   8.622   3.404  2.3458 -2.3679  0.5807
34241SOL    HW2 7086   4.213   8.656   3.265  0.2019 -0.8920  0.1548
34242SOL     OW 7087   1.888   5.022   8.392 -0.2259  0.3112 -0.1236
34242SOL    HW1 7088   1.799   5.032   8.357 -1.0203  0.1488  1.7309
34242SOL    HW2 7089   1.927   5.109   8.382 -1.5397  1.1538  1.3832
34243SOL     OW 7090   1.057   2.578   5.037 -1.0541 -0.0883 -0.0646
34243SOL    HW1 7091   1.050   2.482   5.030  1.0045 -0.1918 -1.7345
34243SOL    HW2 7092   0.976   2.611   4.998 -1.2795 -1.1565 -0.5343
34244SOL     OW 7093   0.383   4.440   1.735  0.5231 -0.0185 -0.0762
34244SOL    HW1 7094   0.385   4.461   1.829 -1.2132  1.3344 -0.3031
34244SOL    HW2 7095   0.429   4.356   1.729  1.5785  0.3503  1.8419
34245SOL     OW 7096   2.366   9.782  10.381  0.4339 -0.2105 -0.1611
34245SOL    HW1 7097   2.388   9.781  10.287  1.0313 -0.0289 -0.0272
34245SOL    HW2 7098   2.300   9.713  10.390  0.2382 -0.1128 -0.7444
34246SOL     OW 7099   5.282   1.814   2.272  0.3354  0.3136  0.2112
34246SOL    HW1 7100   5.252   1.899   2.239 -0.3675  0.3369  0.8896
34246SOL    HW2 7101   5.333   1.836   2.350 -0.2614  0.0898  0.6731
34247SOL     OW 7102  10.479   5.708   0.608 -0.1775  0.3183 -0.2718
34247SOL    HW1 7103  10.484   5.643   0.537 -0.3881  0.6553 -0.5982
34247SOL    HW2 7104  10.546   5.773   0.585  2.1037 -1.2164  1.5524
34248SOL     OW 7105  10.635   0.814   6.139  0.5105  0.0045  0.6370
34248SOL    HW1 7106  10.593   0.800   6.224  2.2316 -1.4919  1.3244
34248SOL    HW2 7107  10.729   0.821   6.160  1.0781 -1.2886 -1.1949
34249SOL     OW 7108   6.559  10.914   2.332 -0.7250 -0.4183  0.4412
34249SOL    HW1 7109   6.574  10.819   2.330 -1.0939 -0.6134  3.1853
34249SOL    HW2 7110   6.597  10.946   2.250  0.6519 -2.7747  0.0641
34250SOL     OW 7111   5.577   7.443   8.559 -0.2544  0.7581 -0.2503
34250SOL    HW1 7112   5.609   7.523   8.518 -1.3185  0.7101 -1.2308
34250SOL    HW2 7113   5.511   7.472   8.622 -0.9834  0.6385 -0.9461
34251SOL     OW 7114   0.133   9.027   9.992  1.0453  0.7015  0.1218
34251SOL    HW1 7115   0.091   8.981  10.065 -0.2665  0.7930 -0.5405
34251SOL    HW2 7116   0.221   8.989   9.987  0.0183 -1.8727 -0.4551
34252SOL     OW 7117   2.203   8.103   3.939 -0.0417 -0.9120  0.3177
34252SOL    HW1 7118   2.249   8.108   4.023 -0.0098 -1.0808  0.3112
34252SOL    HW2 7119   2.263   8.145   3.876  0.1085 -1.1401  0.3069
34253SOL     OW 7120   7.693   0.231   6.977  0.0881 -1.1394 -0.3308
34253SOL    HW1 7121   7.736   0.248   6.893  2.5807 -0.6432  0.9373
34253SOL    HW2 7122   7.667   0.318   7.008  0.6047 -1.1345  0.1012
34254SOL     OW 7123   6.653   5.590   3.538 -0.6538  0.7540 -0.9093
34254SOL    HW1 7124   6.620   5.678   3.522 -0.7717  0.8275 -0.2831
34254SOL    HW2 7125   6.579   5.544   3.578  0.2207  1.1636  1.3034
34255SOL     OW 7126   6.213   7.384   5.416  0.1405  0.6049  0.1475
34255SOL    HW1 7127   6.276   7.449   5.446  0.2220  1.0667 -0.9532
34255SOL    HW2 7128   6.262   7.331   5.353  0.0452 -0.4651  0.9572
34256SOL     OW 7129   2.360   4.560   5.390 -0.6392 -0.1792 -0.1320
34256SOL    HW1 7130   2.446   4.570   5.431  0.5385 -0.1514 -2.4663
34256SOL    HW2 7131   2.330   4.473   5.417  0.2165 -0.2865  0.5095
34257SOL     OW 7132   8.473   3.380   5.508 -0.0565 -0.0739 -0.0544
34257SOL    HW1 7133   8.552   3.341   5.470  0.7175  0.5718  0.8318
34257SOL    HW2 7134   8.455   3.325   5.585 -1.3089 -1.0602 -1.0005
34258SOL     OW 7135   5.853   3.827   8.314 -0.3956  0.2250 -0.2698
34258SOL    HW1 7136   5.795   3.798   8.243  2.4248 -0.7653 -2.3452
34258SOL    HW2 7137   5.894   3.907   8.280 -0.8514  1.2115  1.3768
34259SOL     OW 7138   2.185   5.361   3.203 -0.0351  0.5267 -0.3028
34259SOL    HW1 7139   2.181   5.339   3.110  4.9632  0.7301 -0.8398
34259SOL    HW2 7140   2.181   5.277   3.247 -2.2117  0.4100 -0.6051
34260SOL     OW 7141   8.411   4.951  10.296  0.6654 -0.1385 -0.2042
34260SOL    HW1 7142   8.444   5.017  10.356  0.1906  1.0446 -1.1898
34260SOL    HW2 7143   8.329   4.921  10.335 -0.8399  2.2763 -1.2711
34261SOL     OW 7144  10.449   9.863   2.868 -0.2760  0.0723 -0.3177
34261SOL    HW1 7145  10.420   9.772   2.876  2.7431 -1.0306 -0.5696
34261SOL    HW2 7146  10.423   9.888   2.779  0.0579 -1.0551 -0.7538
34262SOL     OW 7147   5.324   1.908   6.551  0.1630 -0.1880  0.5714
34262SOL    HW1 7148   5.345   1.829   6.501 -2.0429 -1.0132  0.8356
34262SOL    HW2 7149   5.266   1.958   6.494 -2.6225 -1.2724  2.2347
34263SOL     OW 7150   4.733   3.722   0.911 -0.1813 -0.0784 -0.0415
34263SOL    HW1 7151   4.783   3.643   0.891  1.6481  1.3097 -1.2376
34263SOL    HW2 7152   4.644   3.700   0.883  0.7027 -1.0346 -2.3760
34264SOL     OW 7153   9.151   0.329   1.455  0.8238 -0.2883  0.0287
34264SOL    HW1 7154   9.189   0.299   1.372 -1.3457 -0.1300 -1.0876
34264SOL    HW2 7155   9.171   0.422   1.458  2.0011 -0.5272  0.3496
34265SOL     OW 7156   5.490   2.687   8.012  0.5114  0.3697  0.0619
34265SOL    HW1 7157   5.457   2.604   7.975  1.0138  1.0575 -2.1095
34265SOL    HW2 7158   5.584   2.685   7.993  0.3527  1.9131 -1.1329
34266SOL     OW 7159   1.828   9.738   0.885 -0.7010 -0.2180  0.2839
34266SOL    HW1 7160   1.889   9.795   0.839 -0.1468 -2.0576 -1.3902
34266SOL    HW2 7161   1.745   9.785   0.883  0.0197  1.0998  0.1416
34267SOL     OW 7162   9.802   2.517   3.993 -0.3946  0.3299 -0.1712
34267SOL    HW1 7163   9.737   2.534   3.924 -0.1473 -1.1211 -0.7837
34267SOL    HW2 7164   9.883   2.497   3.946 -0.8355 -3.3768  0.3539
34268SOL     OW 7165  10.403   2.324  10.462 -0.1681  0.1997  0.2544
34268SOL    HW1 7166  10.336   2.353  10.400  0.8097  0.1855 -0.8373
34268SOL    HW2 7167  10.478   2.301  10.408  0.4835 -0.4828  1.4024
34269SOL     OW 7168   4.473   4.670   4.531 -0.1065 -0.1365 -0.1908
34269SOL    HW1 7169   4.526   4.730   4.583  1.3490  0.1765 -1.9599
34269SOL    HW2 7170   4.387   4.671   4.574  1.2545 -0.6727  2.7760
34270SOL     OW 7171   6.740   4.942   9.267  0.7186  0.2851 -0.0509
34270SOL    HW1 7172   6.767   4.871   9.325 -2.0201  1.4206  2.9275
34270SOL    HW2 7173   6.821   4.990   9.248  2.1040 -1.6430  0.7116
34271SOL     OW 7174   3.132   5.931   7.467  0.0489  0.3108  0.3265
34271SOL    HW1 7175   3.193   5.862   7.493 -1.1774 -0.9555 -0.0602
34271SOL    HW2 7176   3.052   5.885   7.443 -0.1778  1.6973 -1.8786
34272SOL     OW 7177   9.988   4.537   8.241  0.1179  0.1589  0.2973
34272SOL    HW1 7178  10.002   4.604   8.174 -1.3715  1.5938  1.3415
34272SOL    HW2 7179   9.894   4.516   8.235 -0.2178  0.8318  2.3160
34273SOL     OW 7180   7.298   7.350   0.430 -0.1870  0.0184  0.6314
34273SOL    HW1 7181   7.324   7.280   0.370 -1.5443  0.2387 -0.2575
34273SOL    HW2 7182   7.361   7.345   0.502  2.6429  0.8822 -1.6114
34274SOL     OW 7183   6.424   6.604   9.893 -0.7068 -0.3300  0.1669
34274SOL    HW1 7184   6.481   6.537   9.855 -0.5678 -0.2107  0.1631
34274SOL    HW2 7185   6.472   6.686   9.879 -0.3803 -0.3450  1.1252
34275SOL     OW 7186   7.694   1.577   1.111  0.0310  0.3666 -0.0957
34275SOL    HW1 7187   7.787   1.558   1.094  0.8574  2.2761  1.9174
34275SOL    HW2 7188   7.661   1.609   1.027  1.7391  1.5797 -0.3605
34276SOL     OW 7189   0.508   6.304   2.028 -0.3084  0.3790 -0.3987
34276SOL    HW1 7190   0.499   6.397   2.008  0.1333  0.7617  1.0193
34276SOL    HW2 7191   0.458   6.260   1.960 -0.8668  1.6754 -0.8695
34277SOL     OW 7192   1.752   8.231   5.042 -0.0446 -0.3217  0.4181
34277SOL    HW1 7193   1.697   8.231   4.963 -0.9591  0.1866  1.0359
34277SOL    HW2 7194   1.828   8.178   5.018 -1.5680 -2.4767  0.0635
34278SOL     OW 7195   8.875   5.341   5.087 -0.2734 -0.3810  0.3664
34278SOL    HW1 7196   8.935   5.354   5.014 -0.1570 -0.8282  0.3806
34278SOL    HW2 7197   8.930   5.307   5.158 -0.2354  0.8299  0.9329
34279SOL     OW 7198   2.438   2.644   3.349  0.1960  0.0757  0.2262
34279SOL    HW1 7199   2.422   2.738   3.344 -0.3943 -0.0820 -1.4834
34279SOL    HW2 7200   2.355   2.606   3.377 -0.7064 -0.1875 -2.5000
34280SOL     OW 7201  10.537   0.156   5.416 -0.1073  0.5464 -0.2041
34280SOL    HW1 7202  10.566   0.214   5.487 -0.0955  3.0282 -2.1257
34280SOL    HW2 7203  10.443   0.173   5.408  0.0969  1.1803 -1.4974
34281SOL     OW 7204   0.981   7.341   6.471 -0.6055  0.0770 -0.6149
34281SOL    HW1 7205   1.012   7.376   6.388  0.8158  0.4110  0.0338
34281SOL    HW2 7206   1.056   7.296   6.508 -1.3313 -0.3951  0.3286
34282SOL     OW 7207   1.737   5.021  10.126  0.6773 -0.3397  0.3794
34282SOL    HW1 7208   1.690   4.961  10.068 -0.7302 -1.6048  2.6830
34282SOL    HW2 7209   1.672   5.088  10.149  0.9868 -0.2619  1.0602
34283SOL     OW 7210   5.206   2.228   6.777  0.1183 -0.0923  0.5545
34283SOL    HW1 7211   5.143   2.156   6.767 -1.4356  1.2391  0.2910
34283SOL    HW2 7212   5.173   2.278   6.852  1.8700 -0.3102  1.5143
34284SOL     OW 7213   0.603   5.192   2.507 -0.0777 -0.2096 -0.1688
34284SOL    HW1 7214   0.603   5.284   2.532  1.2652 -0.4998  1.0897
34284SOL    HW2 7215   0.511   5.168   2.498 -0.4249  1.3846 -1.0797
34285SOL     OW 7216   9.746   2.762   6.187  0.2608 -0.0446 -0.1668
34285SOL    HW1 7217   9.755   2.841   6.241 -1.5152 -0.3349  0.6329
34285SOL    HW2 7218   9.706   2.793   6.105  0.8576  0.0706 -0.4192
34286SOL     OW 7219   2.411   7.545   0.375  0.2437 -0.1605  0.3587
34286SOL    HW1 7220   2.484   7.500   0.418  0.9517 -0.2256 -0.8512
34286SOL    HW2 7221   2.340   7.481   0.374  0.2493 -0.1883  1.3225
34287SOL     OW 7222   9.548   6.051   5.474  0.4381  0.2001 -0.6764
34287SOL    HW1 7223   9.561   6.128   5.420  0.5768 -0.1094 -1.0894
34287SOL    HW2 7224   9.589   6.072   5.558  0.3430  0.6271 -0.7372
34288SOL     OW 7225   9.601   0.214   2.173 -0.6652  0.0134  0.3770
34288SOL    HW1 7226   9.506   0.211   2.176 -0.6652 -0.7692 -0.1771
34288SOL    HW2 7227   9.621   0.297   2.130 -1.0520  0.8053  1.6535
34289SOL     OW 7228   5.937   4.949   4.892  0.5339 -0.2308  0.2405
34289SOL    HW1 7229   5.854   4.952   4.941 -0.2344 -1.2515 -0.9444
34289SOL    HW2 7230   6.003   4.928   4.959 -0.3908 -0.9166  0.9743
34290SOL     OW 7231   4.475   0.983   4.620 -0.0609 -0.0487  0.0630
34290SOL    HW1 7232   4.517   0.928   4.687 -1.2652 -0.6607  0.3382
34290SOL    HW2 7233   4.395   1.014   4.661  0.4777  1.7974 -0.1599
34291SOL     OW 7234   0.521   4.650   9.703  0.0846  0.4233 -0.1760
34291SOL    HW1 7235   0.494   4.702   9.778 -0.1986  0.5722 -0.3772
34291SOL    HW2 7236   0.555   4.714   9.640  0.8807  0.2415  0.0616
34292SOL     OW 7237   8.774   1.908   0.820 -0.2531  0.1624  0.0184
34292SOL    HW1 7238   8.851   1.897   0.764 -0.3781  0.5050 -0.2211
34292SOL    HW2 7239   8.802   1.972   0.886  0.1700 -0.8528  0.8617
34293SOL     OW 7240   1.568   6.159   1.289  0.0152 -0.4581 -0.0117
34293SOL    HW1 7241   1.635   6.143   1.222  0.3546 -1.5631  0.5705
34293SOL    HW2 7242   1.485   6.151   1.241  0.2379  2.3013 -1.0446
34294SOL     OW 7243   6.297   1.496   4.640  0.1936 -0.2370 -0.0872
34294SOL    HW1 7244   6.274   1.483   4.732 -0.2303 -2.1505 -0.4209
34294SOL    HW2 7245   6.391   1.478   4.636  0.3835  0.6585  0.0874
34295SOL     OW 7246   5.837   1.388   6.090  0.5103 -0.2239 -0.3143
34295SOL    HW1 7247   5.862   1.381   6.182  0.1468 -0.2541 -0.2203
34295SOL    HW2 7248   5.750   1.426   6.091  1.4275  2.0501 -0.7282
34296SOL     OW 7249   5.929   6.096   2.979 -0.3502 -0.2478  0.0437
34296SOL    HW1 7250   5.899   6.183   3.004  1.2243  0.3811 -0.0770
34296SOL    HW2 7251   5.889   6.036   3.041 -2.9042  0.3159 -0.9507
34297SOL     OW 7252   2.708   5.821   3.683 -0.5530  0.2641  0.0802
34297SOL    HW1 7253   2.701   5.764   3.759  0.1971 -0.8851 -0.6987
34297SOL    HW2 7254   2.801   5.841   3.676 -0.3743 -0.9598 -1.4623
34298SOL     OW 7255   3.897   3.928   3.333  0.5896  0.3060 -0.4426
34298SOL    HW1 7256   3.937   3.962   3.254 -0.2613 -1.6601 -1.8016
34298SOL    HW2 7257   3.951   3.853   3.358  0.5900  0.6232  0.5903
34299SOL     OW 7258   3.123   4.531   4.230 -0.0818  0.1325  0.0802
34299SOL    HW1 7259   3.191   4.487   4.179  1.1741  2.4147 -0.3273
34299SOL    HW2 7260   3.138   4.501   4.320  0.5966 -0.4257 -0.2035
34300SOL     OW 7261   3.567   1.232   4.277 -0.4342  0.4820  0.0515
34300SOL    HW1 7262   3.496   1.296   4.285 -0.2998  0.6244  0.1263
34300SOL    HW2 7263   3.616   1.261   4.200  0.5480  1.4019  0.9891
34301SOL     OW 7264   5.696   0.228   3.264  0.3990  0.3643  0.2491
34301SOL    HW1 7265   5.716   0.180   3.184  1.2398  1.1325 -0.0249
34301SOL    HW2 7266   5.652   0.165   3.321  0.9016 -0.5325 -0.3473
34302SOL     OW 7267   3.922   0.591   3.505 -0.4474  0.1685  0.2527
34302SOL    HW1 7268   4.005   0.563   3.467 -0.1544  2.1739 -0.7117
34302SOL    HW2 7269   3.905   0.527   3.574  1.5109 -0.7275 -0.0135
34303SOL     OW 7270   9.458   4.442   0.002 -0.0162 -0.2991  0.5045
34303SOL    HW1 7271   9.454   4.373  -0.065  1.4663 -0.7001  0.7765
34303SOL    HW2 7272   9.466   4.394   0.085 -0.9785  0.2028  0.9031
34304SOL     OW 7273   4.701   6.013  10.326  0.4007  0.5713 -0.0860
34304SOL    HW1 7274   4.610   6.033  10.305  0.4038  0.4765 -0.1887
34304SOL    HW2 7275   4.742   6.099  10.339  0.5483  0.6639 -1.0855
34305SOL     OW 7276   2.061  10.218   5.674 -0.1533 -0.3416 -0.2220
34305SOL    HW1 7277   2.110  10.294   5.706  1.2835 -0.6268 -1.6349
34305SOL    HW2 7278   2.116  10.143   5.697 -1.2017 -0.9189  0.4814
34306SOL     OW 7279   8.217   4.374   6.336  0.0684  0.2058 -0.3628
34306SOL    HW1 7280   8.195   4.400   6.426 -2.3315 -0.9374 -0.5445
34306SOL    HW2 7281   8.171   4.437   6.281 -0.5694 -0.6078 -0.7771
34307SOL     OW 7282   2.386   5.099   4.753 -0.4489 -0.6575  0.2429
34307SOL    HW1 7283   2.451   5.084   4.685 -2.1060 -1.0057 -1.3225
34307SOL    HW2 7284   2.434   5.087   4.835  1.5424 -0.4523 -0.8474
34308SOL     OW 7285   0.738   1.974   4.321  0.4444  0.2969 -0.0832
34308SOL    HW1 7286   0.721   2.067   4.306  0.9879  0.4361  0.1436
34308SOL    HW2 7287   0.833   1.965   4.307  0.5094 -0.0866  0.5729
34309SOL     OW 7288   0.644   8.405   7.191 -0.2683  0.5722 -0.0772
34309SOL    HW1 7289   0.631   8.477   7.129  0.6086 -0.4981 -1.5916
34309SOL    HW2 7290   0.577   8.341   7.167  0.7409 -0.3026 -0.6574
34310SOL     OW 7291   2.375   6.908   8.240 -0.0132 -0.4131 -0.0209
34310SOL    HW1 7292   2.412   6.820   8.249 -0.6126 -0.7476 -0.6848
34310SOL    HW2 7293   2.335   6.925   8.325 -2.8958 -2.2466 -0.8353
34311SOL     OW 7294   0.712   3.839   7.608 -0.2180 -0.0730  0.2495
34311SOL    HW1 7295   0.785   3.901   7.600 -0.1184 -0.2122  0.0876
34311SOL    HW2 7296   0.733   3.769   7.547 -1.6680  1.0184 -1.5908
34312SOL     OW 7297   4.807   6.041   1.238  0.1868  0.4032  0.0324
34312SOL    HW1 7298   4.848   6.111   1.288  0.1296  0.4809 -0.0288
34312SOL    HW2 7299   4.841   5.960   1.277 -0.7638  0.4406  0.9855
34313SOL     OW 7300   0.777   6.804   6.948  0.2219  0.1302  0.3520
34313SOL    HW1 7301   0.697   6.753   6.952  0.7243 -0.5991  2.3188
34313SOL    HW2 7302   0.771   6.865   7.022  1.9963 -0.8325  1.3641
34314SOL     OW 7303   7.250   6.131   7.424 -0.3316 -0.6577 -0.0320
34314SOL    HW1 7304   7.342   6.138   7.449 -0.0678 -2.7970 -0.2222
34314SOL    HW2 7305   7.244   6.174   7.339  0.4553 -0.3848  0.0476
34315SOL     OW 7306   5.446   1.807   2.746 -0.1151  0.4448 -0.1483
34315SOL    HW1 7307   5.359   1.813   2.787 -0.2130  2.3836 -0.5470
34315SOL    HW2 7308   5.492   1.740   2.797 -2.2260 -1.6206 -0.7317
34316SOL     OW 7309   7.888   5.996   1.126  0.0337 -0.2552 -0.0794
34316SOL    HW1 7310   7.804   5.999   1.172  0.5211 -3.1179  1.2227
34316SOL    HW2 7311   7.953   6.019   1.193  0.3876  0.9546 -0.8164
34317SOL     OW 7312   2.899   0.519   8.099  0.3760  0.0564 -0.5860
34317SOL    HW1 7313   2.899   0.425   8.076 -1.7894 -0.6485  1.8555
34317SOL    HW2 7314   2.886   0.563   8.015 -1.1539 -2.0051 -1.5372
34318SOL     OW 7315   6.751   9.080   5.014 -0.0278 -0.3332 -0.5260
34318SOL    HW1 7316   6.746   9.176   5.006 -1.5767 -0.2559  0.8167
34318SOL    HW2 7317   6.805   9.066   5.092 -0.4742 -0.5259 -0.2509
34319SOL     OW 7318   1.126   1.715   2.770  0.5050  0.1368 -0.2536
34319SOL    HW1 7319   1.156   1.652   2.705  0.1289 -0.1190 -0.1829
34319SOL    HW2 7320   1.195   1.781   2.774  1.4293 -0.8580  0.4975
34320SOL     OW 7321   2.673   7.374   1.289 -0.4883 -0.1166  0.3894
34320SOL    HW1 7322   2.589   7.393   1.247  0.0608  1.4311 -0.0968
34320SOL    HW2 7323   2.690   7.283   1.268 -1.9815 -0.4322  0.3980
34321SOL     OW 7324   0.759   0.547   4.564 -0.0750 -0.0955 -0.0394
34321SOL    HW1 7325   0.819   0.610   4.604  1.3130 -0.6663 -1.1286
34321SOL    HW2 7326   0.799   0.527   4.479 -0.5493 -2.3146  0.2117
34322SOL     OW 7327   0.501   9.249   4.532 -0.2136  0.3781  0.3619
34322SOL    HW1 7328   0.593   9.275   4.534 -0.2426  1.0768 -2.5307
34322SOL    HW2 7329   0.503   9.158   4.501 -0.4871  0.0631  1.2408
34323SOL     OW 7330   4.488   9.187   0.311 -0.1404 -0.0730 -0.1042
34323SOL    HW1 7331   4.453   9.123   0.250  1.2145 -0.2032 -0.7760
34323SOL    HW2 7332   4.488   9.142   0.396 -1.3881 -0.1258 -0.1126
34324SOL     OW 7333   3.945  10.210  10.802 -0.2877  0.1819 -0.4243
34324SOL    HW1 7334   3.999  10.230  10.878  0.0794 -1.4621 -0.2206
34324SOL    HW2 7335   3.954  10.116  10.790 -0.9161  0.3012 -2.0784
34325SOL     OW 7336   1.032   8.840   9.107  0.1350 -0.0211  0.5527
34325SOL    HW1 7337   0.983   8.785   9.046 -0.8958  0.0611  1.2907
34325SOL    HW2 7338   1.056   8.917   9.055  2.1855 -1.4026 -0.6911
34326SOL     OW 7339  10.585   1.114   9.465  0.0975  0.2208 -0.1354
34326SOL    HW1 7340  10.509   1.120   9.523  0.5052 -0.6587  0.5172
34326SOL    HW2 7341  10.596   1.203   9.431 -1.3396  0.3257 -0.4164
34327SOL     OW 7342   1.629   8.796   0.139 -0.0923 -0.9392 -0.0056
34327SOL    HW1 7343   1.586   8.810   0.223 -0.1361  0.4908 -0.2458
34327SOL    HW2 7344   1.563   8.752   0.085 -0.7464 -0.1032  0.1001
34328SOL     OW 7345   8.708   0.870   7.120  0.4036 -0.0263  0.2769
34328SOL    HW1 7346   8.636   0.931   7.137  2.7452  2.9548  0.3611
34328SOL    HW2 7347   8.678   0.819   7.045 -1.2510  2.1072 -0.6350
34329SOL     OW 7348  10.710   3.254   5.319  1.0440 -1.0410  0.5401
34329SOL    HW1 7349  10.620   3.248   5.352  0.5302  2.2988  0.1484
34329SOL    HW2 7350  10.699   3.286   5.229  2.6063  0.9511  1.0032
34330SOL     OW 7351   9.478   4.165  10.422  0.1875  0.0173  0.7650
34330SOL    HW1 7352   9.546   4.102  10.446  1.6833  0.9587 -0.8073
34330SOL    HW2 7353   9.503   4.246  10.467  0.0472  0.3369  0.2759
34331SOL     OW 7354   8.623   0.053  10.663  0.1673  0.2396 -0.0365
34331SOL    HW1 7355   8.706   0.010  10.681 -0.1770 -0.0881  0.8467
34331SOL    HW2 7356   8.647   0.138  10.626  0.8884  0.1645  0.2422
34332SOL     OW 7357   7.041  10.745  10.363 -0.5720 -0.3391  0.2354
34332SOL    HW1 7358   7.055  10.791  10.280 -1.5704  0.7577  0.6422
34332SOL    HW2 7359   6.972  10.795  10.406  0.4720 -0.3842  2.0844
34333SOL     OW 7360   2.646   4.855   7.629  0.5357 -0.3684  0.9142
34333SOL    HW1 7361   2.672   4.941   7.662  2.2877 -0.9555  1.1597
34333SOL    HW2 7362   2.725   4.820   7.588  0.0107 -2.0770  1.2753
34334SOL     OW 7363   7.852   5.785   3.834  0.3160 -0.0571  0.1057
34334SOL    HW1 7364   7.772   5.820   3.793  2.0209  1.5804 -2.0371
34334SOL    HW2 7365   7.850   5.820   3.923 -0.9628  0.6081 -0.1557
34335SOL     OW 7366   4.409   3.208   2.603 -0.1867  0.3471 -0.4517
34335SOL    HW1 7367   4.478   3.254   2.650 -0.8312 -0.2396  1.1424
34335SOL    HW2 7368   4.341   3.194   2.669 -1.2105 -0.3588 -1.6221
34336SOL     OW 7369   5.840   1.335   4.062  0.0128  0.3698  0.2985
34336SOL    HW1 7370   5.876   1.317   4.149  1.0793  1.0560  0.0103
34336SOL    HW2 7371   5.850   1.254   4.014  2.0164  0.7883 -0.0521
34337SOL     OW 7372   1.654   4.112   4.557 -0.2864  0.1393 -0.4646
34337SOL    HW1 7373   1.619   4.171   4.624  0.3107  0.2243 -0.2245
34337SOL    HW2 7374   1.717   4.057   4.604 -0.4216 -0.3139 -0.8037
34338SOL     OW 7375   9.679   7.328   2.615  0.7611 -0.1475  0.4858
34338SOL    HW1 7376   9.685   7.279   2.533 -0.5682  1.1002 -0.3956
34338SOL    HW2 7377   9.770   7.347   2.637  1.1744 -1.0630 -0.3378
34339SOL     OW 7378   9.138   6.613   8.172  0.7714 -0.1335  0.2221
34339SOL    HW1 7379   9.141   6.664   8.253  5.0322  0.7537 -0.2794
34339SOL    HW2 7380   9.158   6.524   8.198 -0.0192 -0.2783  0.3541
34340SOL     OW 7381   8.350   4.963   8.707 -0.5489  0.5917  0.7280
34340SOL    HW1 7382   8.430   5.015   8.714  1.0338 -1.6765  0.6816
34340SOL    HW2 7383   8.360   4.894   8.772 -0.7498 -1.8094 -1.6097
34341SOL     OW 7384   7.724   1.851   6.701 -0.0397 -0.4074 -0.4658
34341SOL    HW1 7385   7.649   1.887   6.747  0.6806 -0.2754  0.6419
34341SOL    HW2 7386   7.705   1.865   6.608 -0.7744  0.8349 -0.1421
34342SOL     OW 7387   9.476   2.802   0.471 -0.1145 -0.3471 -0.4420
34342SOL    HW1 7388   9.473   2.887   0.429 -0.0283 -0.2968 -0.3478
34342SOL    HW2 7389   9.568   2.776   0.465  0.2437  0.4353  1.2477
34343SOL     OW 7390   7.946   0.159   5.391  0.2991 -0.0505  0.3362
34343SOL    HW1 7391   8.002   0.149   5.314  0.4845  2.1379  0.1310
34343SOL    HW2 7392   7.939   0.254   5.404  1.6482 -0.2825  4.0027
34344SOL     OW 7393   3.923  10.955   1.275 -1.0369 -0.1907 -0.2648
34344SOL    HW1 7394   3.875  11.038   1.281 -2.1711 -0.8161 -0.5718
34344SOL    HW2 7395   3.875  10.895   1.331 -0.3028 -0.7041 -0.1673
34345SOL     OW 7396   3.673   9.671   4.707 -0.6919 -0.4184 -0.9079
34345SOL    HW1 7397   3.636   9.653   4.794 -1.6843  1.3308 -0.9072
34345SOL    HW2 7398   3.732   9.745   4.722  0.0788 -0.8865 -1.5484
34346SOL     OW 7399  10.577   9.907   7.527 -0.0179 -0.5858 -0.1179
34346SOL    HW1 7400  10.611   9.841   7.586  0.6696  0.5360  0.7851
34346SOL    HW2 7401  10.486   9.881   7.511  0.3531 -1.9605 -0.1436
34347SOL     OW 7402  10.697   2.450   7.342  0.1338  0.5134  0.0105
34347SOL    HW1 7403  10.720   2.358   7.354 -0.4595  0.4602  0.8203
34347SOL    HW2 7404  10.776   2.490   7.306  0.4725 -0.2644 -0.1341
34348SOL     OW 7405   6.004   0.327  10.840 -0.1283  0.6344 -0.7453
34348SOL    HW1 7406   6.057   0.353  10.915 -0.8619  1.1360 -0.3917
34348SOL    HW2 7407   5.995   0.407  10.788  1.9111 -0.0907 -2.3755
34349SOL     OW 7408   0.954   5.598   9.156 -0.3001  0.3939 -0.1931
34349SOL    HW1 7409   0.865   5.629   9.142 -1.2448 -1.6916  0.6391
34349SOL    HW2 7410   0.987   5.580   9.068 -0.9309  0.6202 -0.4848
34350SOL     OW 7411  10.441  11.095   6.535  0.0588 -0.5169 -0.3747
34350SOL    HW1 7412  10.377  11.025   6.547 -0.4408 -0.0322 -0.2001
34350SOL    HW2 7413  10.389  11.174   6.523  0.5359 -0.5190 -3.1342
34351SOL     OW 7414   6.145   3.090   2.843 -0.4973  0.0964  0.1605
34351SOL    HW1 7415   6.103   3.017   2.888  1.0499  0.4485  2.3168
34351SOL    HW2 7416   6.073   3.138   2.802 -1.6598 -1.9488 -0.3366
34352SOL     OW 7417   2.939  10.995   9.931 -0.6233 -0.3934 -0.9324
34352SOL    HW1 7418   2.848  11.012   9.954 -0.5807 -0.6828 -0.5331
34352SOL    HW2 7419   2.938  10.982   9.836 -0.7229  1.3179 -1.1893
34353SOL     OW 7420   9.588   9.545   8.432 -0.5312  0.3403  0.0579
34353SOL    HW1 7421   9.574   9.479   8.499  0.4931  0.4227  0.3784
34353SOL    HW2 7422   9.632   9.617   8.478  1.9282 -0.3628 -1.0314
34354SOL     OW 7423   0.389   5.276   9.304 -0.3956  0.6044 -0.0622
34354SOL    HW1 7424   0.313   5.220   9.290  0.2227  0.1042 -1.5416
34354SOL    HW2 7425   0.457   5.240   9.247  1.1695  0.6524  1.6816
34355SOL     OW 7426   5.619   4.000   8.345 -0.3031 -0.9160 -0.0263
34355SOL    HW1 7427   5.586   4.014   8.434 -0.1699 -0.2927 -0.0731
34355SOL    HW2 7428   5.700   3.950   8.357  0.4466  0.3481  0.2949
34356SOL     OW 7429   0.366   7.756   5.367  0.0340  0.1893  0.8210
34356SOL    HW1 7430   0.365   7.670   5.410 -0.9960 -1.1355 -1.7020
34356SOL    HW2 7431   0.274   7.775   5.348  0.3658  1.2325  0.1566
34357SOL     OW 7432   2.967   4.629   6.140 -0.4745 -0.4597 -0.5731
34357SOL    HW1 7433   2.915   4.709   6.145 -0.0156 -0.2315  0.9664
34357SOL    HW2 7434   3.058   4.658   6.150 -0.3866 -1.2649  1.3468
34358SOL     OW 7435   4.271   5.787   8.065 -0.0413 -0.1249 -0.5986
34358SOL    HW1 7436   4.240   5.705   8.103 -1.5018  0.6007 -0.1393
34358SOL    HW2 7437   4.331   5.760   7.995  1.1135 -1.5244  0.8432
34359SOL     OW 7438   7.979   4.847  10.744 -0.0876 -0.3370  0.2784
34359SOL    HW1 7439   8.018   4.858  10.657  1.1779 -1.7020  0.6219
34359SOL    HW2 7440   8.020   4.914  10.798  0.1511 -0.3515  0.1169
34360SOL     OW 7441   8.580   7.109   8.585 -0.4936 -0.6714  0.3804
34360SOL    HW1 7442   8.651   7.161   8.620  0.3236 -1.6725  0.2729
34360SOL    HW2 7443   8.501   7.160   8.601  0.5411  2.7100 -3.5262
34361SOL     OW 7444  11.071   6.081   9.611  0.1580 -0.2354 -0.3859
34361SOL    HW1 7445  10.992   6.092   9.558  1.3719 -1.7096 -2.6762
34361SOL    HW2 7446  11.041   6.031   9.687 -1.2895  0.0946 -0.6979
34362SOL     OW 7447   2.633   9.211   0.318 -0.3649  0.1864 -0.3221
34362SOL    HW1 7448   2.644   9.208   0.223  0.6841  1.1878 -0.2400
34362SOL    HW2 7449   2.543   9.242   0.330 -0.4027  0.3584 -0.9864
34363SOL     OW 7450   3.310   2.128   7.464  0.4809 -0.1071 -0.2842
34363SOL    HW1 7451   3.319   2.067   7.391 -0.0631 -1.1745  0.5015
34363SOL    HW2 7452   3.346   2.080   7.539  0.8028  0.8653  0.2084
34364SOL     OW 7453   4.693   0.575   7.291 -0.3416 -0.1245  0.0728
34364SOL    HW1 7454   4.624   0.552   7.354  0.0978 -1.6944  0.0380
34364SOL    HW2 7455   4.702   0.669   7.299 -1.6984 -0.0245  0.9089
34365SOL     OW 7456   6.103   1.635   3.062 -0.0238  0.0861  0.1546
34365SOL    HW1 7457   6.026   1.619   3.006 -0.7205 -0.4172  1.2191
34365SOL    HW2 7458   6.091   1.724   3.094 -0.1787  0.0070  0.3227
34366SOL     OW 7459   6.346   9.355   6.472 -0.0902  0.1537 -0.2709
34366SOL    HW1 7460   6.333   9.332   6.380 -0.7272 -0.7468  0.0333
34366SOL    HW2 7461   6.287   9.297   6.520 -0.5406  1.3320  0.6436
34367SOL     OW 7462   9.467   3.677   1.979  0.5451 -0.4548  0.1272
34367SOL    HW1 7463   9.377   3.645   1.974  0.2325  0.4497 -0.3262
34367SOL    HW2 7464   9.467   3.757   1.926  1.8247 -0.9115 -0.6177
34368SOL     OW 7465   4.816   6.949   3.031  0.0669 -0.5407 -0.0765
34368SOL    HW1 7466   4.813   6.960   3.126  0.7736 -0.3857 -0.0621
34368SOL    HW2 7467   4.724   6.945   3.003 -0.1404 -0.5511  0.6065
34369SOL     OW 7468   1.231   7.140   8.909  0.0170  0.2646 -0.4403
34369SOL    HW1 7469   1.232   7.225   8.864  1.1832  0.5595  0.1094
34369SOL    HW2 7470   1.315   7.135   8.953 -1.9394  1.1526  3.8521
34370SOL     OW 7471   6.464   0.024   8.799  0.3681  0.2305 -0.1975
34370SOL    HW1 7472   6.485   0.054   8.887  1.6205  0.4681 -0.5416
34370SOL    HW2 7473   6.387  -0.031   8.809  0.9135 -0.3243  1.1447
34371SOL     OW 7474   7.981   7.925   0.121 -0.4513 -0.2871 -0.2904
34371SOL    HW1 7475   8.005   7.977   0.044 -1.0198  0.3805 -0.0395
34371SOL    HW2 7476   8.053   7.863   0.132 -0.2322 -0.2144 -1.1966
34372SOL     OW 7477   7.659   4.124   7.162 -0.3165  0.0616 -0.3755
34372SOL    HW1 7478   7.740   4.077   7.142 -0.2488 -0.4449  0.9733
34372SOL    HW2 7479   7.604   4.060   7.208 -1.4410  0.4415 -1.1371
34373SOL     OW 7480   7.836   8.644   0.758 -0.2614  0.1925  0.2943
34373SOL    HW1 7481   7.883   8.561   0.748  0.9176  1.0475 -1.8085
34373SOL    HW2 7482   7.749   8.618   0.789  0.2626 -1.7863  0.2405
34374SOL     OW 7483   3.156   0.570   5.969 -0.0494  0.3943 -0.4385
34374SOL    HW1 7484   3.207   0.490   5.959 -0.1953  0.2673 -0.1821
34374SOL    HW2 7485   3.154   0.585   6.064  0.4203  0.9911 -0.5218
34375SOL     OW 7486   2.952   1.784   4.526 -0.2725  0.2948  0.0543
34375SOL    HW1 7487   2.914   1.835   4.454 -0.4784 -0.4674 -0.3861
34375SOL    HW2 7488   2.896   1.803   4.601  0.6270  2.0341  0.3463
34376SOL     OW 7489   2.560   0.717   5.821 -0.0959  0.8634 -0.3921
34376SOL    HW1 7490   2.474   0.679   5.803  0.1253  0.4856 -0.6788
34376SOL    HW2 7491   2.606   0.713   5.737  0.6019  0.0172  0.0087
34377SOL     OW 7492   2.434   3.758   6.494  0.2654  0.9112 -0.0630
34377SOL    HW1 7493   2.400   3.760   6.405  1.4978 -0.7389 -0.6017
34377SOL    HW2 7494   2.359   3.731   6.548 -0.2407  1.0313 -0.6946
34378SOL     OW 7495   4.524   8.121   2.076 -0.8088  0.2268 -0.9354
34378SOL    HW1 7496   4.588   8.053   2.056 -1.4262 -1.0008  1.0119
34378SOL    HW2 7497   4.489   8.147   1.990  1.0680 -0.2429 -1.8960
34379SOL     OW 7498   7.457   9.372   1.961 -0.3133  0.3987 -0.0373
34379SOL    HW1 7499   7.444   9.312   2.034  2.1951  0.9880  0.9743
34379SOL    HW2 7500   7.484   9.454   2.002  1.8454  0.5519 -1.6030
34380SOL     OW 7501   7.749   5.604   8.955 -0.0884  0.2103  0.3450
34380SOL    HW1 7502   7.809   5.543   8.998  0.1809  1.0127  1.1490
34380SOL    HW2 7503   7.674   5.550   8.928 -0.6514 -0.2051  2.5703
34381SOL     OW 7504   5.830  10.895   6.622  0.2946  0.5947  0.5044
34381SOL    HW1 7505   5.827  10.959   6.551  1.0060  0.9162  0.7532
34381SOL    HW2 7506   5.742  10.897   6.660 -0.8281 -1.2151 -1.7751
34382SOL     OW 7507   9.434   2.831   3.331 -0.4519 -0.3967 -0.3957
34382SOL    HW1 7508   9.400   2.898   3.272 -0.4347  0.1294  0.1722
34382SOL    HW2 7509   9.383   2.753   3.311 -1.2800  0.0966 -0.2782
34383SOL     OW 7510  11.031   9.695   7.845  0.5874 -0.5490 -0.0123
34383SOL    HW1 7511  11.018   9.769   7.785  1.2435  1.3593  2.0490
34383SOL    HW2 7512  11.021   9.617   7.790 -2.1924  0.9816 -1.8986
34384SOL     OW 7513   0.041   5.669   2.019  0.1828  0.1801 -0.1496
34384SOL    HW1 7514   0.130   5.691   1.991 -0.1180  1.1966 -0.3570
34384SOL    HW2 7515   0.002   5.627   1.943  0.6888 -0.8935  0.1660
34385SOL     OW 7516   7.917   0.274   8.621  0.1561 -0.4759 -0.2392
34385SOL    HW1 7517   7.923   0.238   8.710  2.2777 -0.0721 -0.1699
34385SOL    HW2 7518   7.898   0.367   8.634 -0.8386 -0.6611 -0.2773
34386SOL     OW 7519   6.205   2.752   5.312  0.1972  0.1585 -0.2868
34386SOL    HW1 7520   6.162   2.719   5.390  1.5910 -0.6437  0.1743
34386SOL    HW2 7521   6.147   2.822   5.280 -1.2524 -0.6638  0.4587
34387SOL     OW 7522  10.978   5.054   5.571 -0.9549 -0.1248 -0.4263
34387SOL    HW1 7523  11.025   5.050   5.488  0.3665 -2.5054  0.3691
34387SOL    HW2 7524  10.930   4.972   5.576  0.9771 -1.2137  2.2290
34388SOL     OW 7525   4.392   5.977   0.078 -0.2511 -0.4038  0.0090
34388SOL    HW1 7526   4.407   6.056   0.027 -1.5092  1.9083  2.9735
34388SOL    HW2 7527   4.471   5.967   0.132 -0.9559  0.1117  1.1652
34389SOL     OW 7528   7.817   6.993  10.310  0.2822  0.5777  0.0544
34389SOL    HW1 7529   7.724   7.010  10.324  0.6135  2.3904  0.3372
34389SOL    HW2 7530   7.840   6.928  10.376 -0.9797 -0.6686 -0.6769
34390SOL     OW 7531   8.767   5.103   9.414 -0.2851  0.4412  0.0227
34390SOL    HW1 7532   8.850   5.136   9.448  0.0440  1.1426 -1.3663
34390SOL    HW2 7533   8.727   5.057   9.488  0.8212  1.0495  1.0390
34391SOL     OW 7534   3.715   3.543   1.684 -0.2176  0.3997 -0.5913
34391SOL    HW1 7535   3.786   3.601   1.656  0.2070 -0.4426 -1.3049
34391SOL    HW2 7536   3.670   3.593   1.753  0.4433  1.3586 -0.8205
34392SOL     OW 7537  10.250   6.998   7.053  0.3106 -0.0815  0.2765
34392SOL    HW1 7538  10.305   6.920   7.041  0.4759 -0.3846  2.5024
34392SOL    HW2 7539  10.161   6.964   7.058  0.2146  0.0697 -0.3503
34393SOL     OW 7540   3.767   6.179   1.241 -0.3139 -0.6043 -0.3672
34393SOL    HW1 7541   3.853   6.168   1.201 -0.5864  0.9654 -1.4534
34393SOL    HW2 7542   3.722   6.096   1.223  0.2837 -0.6917 -1.5409
34394SOL     OW 7543  10.030   1.632   1.888  0.1324 -0.4472  0.3077
34394SOL    HW1 7544   9.997   1.711   1.930  0.1603 -0.1358 -0.2454
34394SOL    HW2 7545   9.952   1.587   1.857  0.1566 -0.2354 -0.0731
34395SOL     OW 7546   6.856   6.041   6.511 -0.0804 -0.1709  0.4619
34395SOL    HW1 7547   6.852   6.076   6.422  1.6235 -2.4287 -0.6044
34395SOL    HW2 7548   6.927   6.090   6.553  0.4172 -0.3973 -0.0949
34396SOL     OW 7549   5.098   0.591  10.732 -0.3318 -1.0202 -0.0878
34396SOL    HW1 7550   5.158   0.615  10.803 -0.8978 -1.0719  0.4114
34396SOL    HW2 7551   5.066   0.675  10.698  1.1457 -0.9201 -1.3586
34397SOL     OW 7552   2.939   1.310   5.435 -0.3771 -0.2870  0.4593
34397SOL    HW1 7553   2.908   1.337   5.522  1.4654 -1.7692  1.6729
34397SOL    HW2 7554   2.886   1.234   5.413  0.3526 -1.0279  1.1741
34398SOL     OW 7555  10.814   6.663   0.495  0.0368 -0.2205  0.0653
34398SOL    HW1 7556  10.767   6.710   0.427 -1.2780 -1.6378 -0.0591
34398SOL    HW2 7557  10.897   6.710   0.504  0.9479 -0.8694 -3.5867
34399SOL     OW 7558   7.975   0.291   4.667 -0.0027 -0.0767  0.4612
34399SOL    HW1 7559   7.883   0.269   4.661  0.0587 -0.2794  0.2544
34399SOL    HW2 7560   7.983   0.376   4.623 -0.1788  0.2016  0.9525
34400SOL     OW 7561   7.803   3.417   2.363 -0.2260  0.5547  0.2044
34400SOL    HW1 7562   7.881   3.462   2.396  2.8082 -2.6780 -1.8530
34400SOL    HW2 7563   7.810   3.329   2.398 -3.8413  0.4455  1.0183
34401SOL     OW 7564   9.750   3.968   5.429 -0.0577  0.3017 -0.6625
34401SOL    HW1 7565   9.763   3.897   5.493 -0.3110 -0.2903 -1.2504
34401SOL    HW2 7566   9.820   3.956   5.365 -0.4910  0.1744 -1.1194
34402SOL     OW 7567   8.382   1.283  10.276 -0.7166  1.1145 -0.2601
34402SOL    HW1 7568   8.451   1.309  10.214  1.9574  0.9110  2.4321
34402SOL    HW2 7569   8.388   1.187  10.278 -1.5432  1.0553 -0.4564
34403SOL     OW 7570   0.962   0.796   2.646  0.5902 -0.1571  0.4113
34403SOL    HW1 7571   0.990   0.847   2.723 -2.2353  3.4365 -0.6430
34403SOL    HW2 7572   1.018   0.828   2.575 -0.6385  0.9733 -0.0909
34404SOL     OW 7573   4.678   4.013   1.735 -0.2980  0.3003  0.3022
34404SOL    HW1 7574   4.760   3.997   1.783 -0.5924  3.6833  2.2224
34404SOL    HW2 7575   4.707   4.045   1.649  0.2897 -1.6423 -0.2657
34405SOL     OW 7576   5.255   5.387   0.367 -0.1492  0.0564  0.0378
34405SOL    HW1 7577   5.348   5.396   0.389  0.1624 -0.2095 -1.1042
34405SOL    HW2 7578   5.252   5.397   0.272 -1.0998 -1.4952 -0.1247
34406SOL     OW 7579   7.467   1.455   5.148 -0.3192 -0.0485 -0.0407
34406SOL    HW1 7580   7.484   1.531   5.092  0.4833 -0.7034 -0.7065
34406SOL    HW2 7581   7.554   1.425   5.175 -0.2089 -3.2470 -3.2026
34407SOL     OW 7582   7.962   7.092   5.595  0.2428  0.6563 -0.4627
34407SOL    HW1 7583   7.932   7.019   5.540 -1.8276  1.0128  0.1049
34407SOL    HW2 7584   7.997   7.051   5.673 -0.8941  0.2212 -0.1547
34408SOL     OW 7585   4.683  10.322   7.919  0.7788  0.1713  0.0624
34408SOL    HW1 7586   4.645  10.263   7.855  0.4930  0.7882 -0.3476
34408SOL    HW2 7587   4.778  10.309   7.910  0.7048 -0.7760  0.5216
34409SOL     OW 7588   1.050   7.165   0.960  0.2047 -0.1380 -0.3587
34409SOL    HW1 7589   0.958   7.187   0.952  0.3137  0.3238 -0.3919
34409SOL    HW2 7590   1.095   7.250   0.964  0.6842 -0.3529 -1.0171
34410SOL     OW 7591   5.271  10.027   1.996 -0.5820 -0.1421 -0.6175
34410SOL    HW1 7592   5.308  10.007   1.910  0.4787  1.7303 -0.6532
34410SOL    HW2 7593   5.340  10.076   2.041 -1.7218  0.3435  0.6852
34411SOL     OW 7594   1.857  10.865   4.437 -0.2276 -0.6305  0.5777
34411SOL    HW1 7595   1.886  10.899   4.521  2.4626 -0.0276 -0.5000
34411SOL    HW2 7596   1.784  10.922   4.412 -0.4527 -0.2419  2.0403
34412SOL     OW 7597   5.129   7.950   5.375 -0.8370 -0.5162 -0.7243
34412SOL    HW1 7598   5.122   7.977   5.283  1.1402  0.2202 -0.7055
34412SOL    HW2 7599   5.078   8.015   5.422 -1.1310 -0.3735 -1.2265
34413SOL     OW 7600   8.421   5.614   5.386 -0.0505 -0.3108 -0.3225
34413SOL    HW1 7601   8.494   5.673   5.406 -1.7103  1.6664  0.2821
34413SOL    HW2 7602   8.421   5.607   5.291  0.7645 -0.0984 -0.3460
34414SOL     OW 7603   9.873   0.790   5.868 -0.0565 -0.0407  0.2242
34414SOL    HW1 7604   9.815   0.813   5.796 -1.0266 -1.1128  0.6187
34414SOL    HW2 7605   9.960   0.818   5.840 -0.8447  2.4540 -0.0224
34415SOL     OW 7606   9.948  10.376   0.975 -0.4787 -0.2363  0.3785
34415SOL    HW1 7607   9.866  10.328   0.983 -1.1469  0.8593  0.3672
34415SOL    HW2 7608   9.922  10.464   0.947  0.7455 -0.0214 -0.1626
34416SOL     OW 7609   6.141   4.286  10.382 -0.4960 -0.4101  0.1991
34416SOL    HW1 7610   6.069   4.307  10.442  0.8591  2.2996  1.0907
34416SOL    HW2 7611   6.210   4.251  10.439  0.0194  0.0932 -0.1039
34417SOL     OW 7612   6.236  10.418   3.117 -0.6817 -0.1906 -0.0257
34417SOL    HW1 7613   6.316  10.408   3.065 -0.2146  1.9171  0.1943
34417SOL    HW2 7614   6.178  10.471   3.063 -2.0204 -1.7413 -0.2044
34418SOL     OW 7615   9.378  10.317   4.434 -0.0433 -0.3824  0.5352
34418SOL    HW1 7616   9.352  10.252   4.369 -1.4038  1.7840 -1.2792
34418SOL    HW2 7617   9.468  10.340   4.410 -0.8742  1.1577 -1.4001
34419SOL     OW 7618   8.319   6.220   9.167  0.0454 -0.1559 -0.0522
34419SOL    HW1 7619   8.256   6.285   9.135 -0.4259 -0.5076  0.1530
34419SOL    HW2 7620   8.364   6.190   9.088 -0.4369 -0.3075 -0.2756
34420SOL     OW 7621   3.048   0.386   7.057 -0.5406  0.7709  0.0381
34420SOL    HW1 7622   3.123   0.435   7.023  0.4312 -0.2431  0.6095
34420SOL    HW2 7623   3.070   0.294   7.039 -0.9631  0.3560  1.4871
34421SOL     OW 7624   1.008   4.303   5.004 -0.2008 -0.1641 -0.0146
34421SOL    HW1 7625   1.080   4.258   4.960 -2.5971 -2.2262 -2.0665
34421SOL    HW2 7626   0.995   4.383   4.953  1.2374  0.8197  1.0481
34422SOL     OW 7627   6.373   3.006  10.685 -0.1069  0.7000 -0.1004
34422SOL    HW1 7628   6.363   2.949  10.609 -2.1640  2.1105 -0.9843
34422SOL    HW2 7629   6.465   3.030  10.685  0.3615 -0.9599 -0.8968
34423SOL     OW 7630   5.126   0.665   2.569  0.1807  0.1047 -0.1229
34423SOL    HW1 7631   5.125   0.733   2.502  1.4765 -1.5261 -1.9307
34423SOL    HW2 7632   5.060   0.602   2.540  0.0482 -0.1377  0.6787
34424SOL     OW 7633   5.440   7.252   4.355 -0.1612 -0.0392 -1.0991
34424SOL    HW1 7634   5.431   7.346   4.371  0.2739 -0.1615 -0.0968
34424SOL    HW2 7635   5.407   7.211   4.435 -1.1182 -0.7806 -1.8442
34425SOL     OW 7636   5.473   7.993   6.760 -0.2411 -0.2451 -0.5881
34425SOL    HW1 7637   5.447   7.926   6.823 -1.8234  0.7505 -0.1194
34425SOL    HW2 7638   5.401   7.996   6.697  0.4387  0.1124 -1.3787
34426SOL     OW 7639  10.460   7.248   0.654  0.4974  0.2272  0.0804
34426SOL    HW1 7640  10.512   7.327   0.637 -1.4734  1.5731 -0.0689
34426SOL    HW2 7641  10.412   7.269   0.734  1.2653 -1.5671  1.0463
34427SOL     OW 7642   5.338   0.449   0.574 -0.4352 -0.2401 -0.1048
34427SOL    HW1 7643   5.382   0.398   0.505 -0.1906  0.1760 -0.2572
34427SOL    HW2 7644   5.253   0.405   0.584 -0.7621  0.0994 -1.1685
34428SOL     OW 7645   9.682   5.697  10.202 -0.3230 -0.8020  0.2239
34428SOL    HW1 7646   9.700   5.620  10.257 -0.5586 -2.3613 -1.7657
34428SOL    HW2 7647   9.615   5.667  10.141 -2.1503  1.7389  0.8523
34429SOL     OW 7648   6.611   8.152   7.152 -0.1566  0.1451 -0.1293
34429SOL    HW1 7649   6.638   8.236   7.187 -0.4724  0.6788 -1.1258
34429SOL    HW2 7650   6.545   8.119   7.214 -1.2036  1.3734 -0.5550
34430SOL     OW 7651   7.050   7.458   0.120  0.2342 -0.2679 -0.6099
34430SOL    HW1 7652   7.016   7.480   0.033 -1.1841  2.2075  0.4399
34430SOL    HW2 7653   6.973   7.429   0.170  0.7760 -0.4065  0.1709
34431SOL     OW 7654   7.973   5.441  10.070  0.6393 -0.5714 -0.5621
34431SOL    HW1 7655   7.981   5.535  10.059  1.3412 -0.5022  0.3984
34431SOL    HW2 7656   7.890   5.418  10.027  0.6400  0.4170 -1.1116
34432SOL     OW 7657   1.229  10.782   8.239 -0.3336  0.2721  0.9509
34432SOL    HW1 7658   1.183  10.706   8.275 -0.5995 -0.2141 -0.3594
34432SOL    HW2 7659   1.234  10.765   8.145  1.4276  0.9137  0.8897
34433SOL     OW 7660   5.061   3.022   3.187  0.5334  0.1602  0.4987
34433SOL    HW1 7661   4.982   3.056   3.229 -1.3330 -1.1937 -1.6622
34433SOL    HW2 7662   5.092   3.094   3.132 -1.2235 -0.3026 -1.1992
34434SOL     OW 7663   8.110   4.566   3.348  0.3064 -0.8637  0.0450
34434SOL    HW1 7664   8.075   4.482   3.318 -0.1262 -0.2506 -1.2025
34434SOL    HW2 7665   8.199   4.570   3.312  1.4740 -2.0389  2.5138
34435SOL     OW 7666   1.973  10.693   5.977  0.2960  0.0885  0.6433
34435SOL    HW1 7667   1.953  10.742   6.057 -0.4093  0.8788  0.0025
34435SOL    HW2 7668   1.890  10.690   5.929  0.3523 -1.6247  0.5899
34436SOL     OW 7669   0.671   3.424   1.864 -0.2514 -0.0654  0.4811
34436SOL    HW1 7670   0.612   3.389   1.797  0.5321 -1.9704  0.7254
34436SOL    HW2 7671   0.757   3.425   1.822  0.1213 -0.5963  1.2021
34437SOL     OW 7672   6.118   5.697   1.260 -0.4120 -0.1954  0.1833
34437SOL    HW1 7673   6.141   5.788   1.240 -1.9258  0.1814  0.0415
34437SOL    HW2 7674   6.031   5.686   1.223  0.6529 -2.4260 -1.8929
34438SOL     OW 7675   0.528   3.231   5.440  0.2175  0.2033 -0.2658
34438SOL    HW1 7676   0.432   3.236   5.448  0.2273  0.2855 -0.1958
34438SOL    HW2 7677   0.548   3.284   5.364  0.1317 -0.5029 -0.7866
34439SOL     OW 7678   3.297   4.825   0.453  0.2197  0.0149 -0.3707
34439SOL    HW1 7679   3.257   4.801   0.536 -0.8324 -0.5416 -1.0130
34439SOL    HW2 7680   3.329   4.914   0.467 -0.1330  0.0036  0.5687
34440SOL     OW 7681   8.484   3.829   0.750 -0.3714 -0.1533  0.0752
34440SOL    HW1 7682   8.466   3.736   0.766  0.9368 -0.1282  2.0644
34440SOL    HW2 7683   8.519   3.861   0.833  3.3621  1.0772 -1.7555
34441SOL     OW 7684   9.266   5.384   6.714 -0.2425 -0.2332  0.1957
34441SOL    HW1 7685   9.340   5.444   6.722 -0.2998 -0.1681  0.2436
34441SOL    HW2 7686   9.288   5.327   6.641 -0.5270  0.3273 -0.3318
34442SOL     OW 7687   7.853   1.659   8.086  0.4826  0.2929  0.4329
34442SOL    HW1 7688   7.887   1.699   8.167 -0.1833  1.1517  0.3073
34442SOL    HW2 7689   7.798   1.587   8.116 -0.5390  1.2081  0.8067
34443SOL     OW 7690   5.640   9.310   9.644 -0.1569  0.4930  0.0631
34443SOL    HW1 7691   5.698   9.315   9.568  1.3963  2.2188  1.2570
34443SOL    HW2 7692   5.690   9.352   9.714 -2.7381  1.7518  1.2710
34444SOL     OW 7693   6.185   7.417   8.237  0.0800 -0.0433 -0.6908
34444SOL    HW1 7694   6.167   7.510   8.228 -0.9415 -0.1738 -0.1692
34444SOL    HW2 7695   6.224   7.391   8.154 -2.7051  0.1641 -2.1856
34445SOL     OW 7696   7.731   6.137   7.153 -0.0474 -0.2084  0.6472
34445SOL    HW1 7697   7.716   6.108   7.063 -1.4825 -1.2030  1.1742
34445SOL    HW2 7698   7.818   6.178   7.151 -0.0642 -0.1779 -1.1817
34446SOL     OW 7699   0.702   2.879   9.262 -0.5143 -0.1873 -0.1790
34446SOL    HW1 7700   0.640   2.822   9.305 -0.4607  1.0450  1.6181
34446SOL    HW2 7701   0.746   2.926   9.333  0.1604  1.3365 -1.5304
34447SOL     OW 7702   1.680   7.212   9.980  0.6892  0.8363 -0.0151
34447SOL    HW1 7703   1.713   7.160   9.907 -0.6177 -1.7182  1.1244
34447SOL    HW2 7704   1.653   7.295   9.939  1.2107  0.0151 -2.1939
34448SOL     OW 7705   8.635   4.962  10.691  0.0392 -0.4346 -0.4197
34448SOL    HW1 7706   8.645   4.874  10.653  0.4243 -1.1107  1.1509
34448SOL    HW2 7707   8.725   4.990  10.710 -0.1864 -0.9309  1.6676
34449SOL     OW 7708   8.520   2.088  10.678 -0.1181  0.4969  0.1746
34449SOL    HW1 7709   8.440   2.117  10.634 -0.7009  1.0812  1.5795
34449SOL    HW2 7710   8.572   2.048  10.608 -2.2862 -1.3640 -0.4959
34450SOL     OW 7711  10.098   4.285   3.813  0.2897 -0.9505  0.0608
34450SOL    HW1 7712  10.072   4.195   3.795  0.1261 -0.4893 -2.3472
34450SOL    HW2 7713  10.170   4.302   3.753 -0.5984  0.9261 -0.5714
34451SOL     OW 7714   9.411   4.605   3.024  0.1648  0.4855 -0.2308
34451SOL    HW1 7715   9.384   4.576   2.936  1.6288  0.5484 -0.7233
34451SOL    HW2 7716   9.494   4.651   3.010  0.1981  0.8877  1.1424
34452SOL     OW 7717   8.463   0.618   6.897  0.2187  0.4820  0.5198
34452SOL    HW1 7718   8.412   0.558   6.951  1.6946 -0.6662  0.6865
34452SOL    HW2 7719   8.455   0.703   6.940 -1.4595  0.3218  0.5770
34453SOL     OW 7720   3.047   3.964  10.245 -0.0740 -0.0912 -0.1493
34453SOL    HW1 7721   3.023   3.880  10.207  0.4615 -0.9459  1.3035
34453SOL    HW2 7722   3.137   3.951  10.276  0.1693  1.1581 -0.2787
34454SOL     OW 7723   0.534   8.828   6.156 -0.0555 -0.0226 -0.2681
34454SOL    HW1 7724   0.581   8.773   6.218 -2.1417  2.0687  3.6195
34454SOL    HW2 7725   0.444   8.794   6.158 -0.3922  0.7738 -1.2940
34455SOL     OW 7726   1.969   3.219   5.726 -0.4052  0.0971  0.5318
34455SOL    HW1 7727   2.032   3.199   5.796  0.4545  0.4335 -0.1281
34455SOL    HW2 7728   2.016   3.199   5.646 -1.0885  0.5358  0.0158
34456SOL     OW 7729   7.050   8.389   7.814  0.2346  0.1257 -0.1996
34456SOL    HW1 7730   7.135   8.349   7.796  0.3811 -0.0446  0.8150
34456SOL    HW2 7731   6.986   8.328   7.776  0.4668 -0.9835  1.0987
34457SOL     OW 7732   8.845  10.872   6.755 -0.3558  0.2186  0.1279
34457SOL    HW1 7733   8.940  10.885   6.748 -0.5616  0.9069 -2.0016
34457SOL    HW2 7734   8.808  10.960   6.752 -1.1695 -0.1375 -2.0513
34458SOL     OW 7735   8.884   5.064   9.093 -0.0757 -0.2526  0.4380
34458SOL    HW1 7736   8.922   5.134   9.039 -1.0617  0.3458  0.4994
34458SOL    HW2 7737   8.863   5.106   9.176 -1.9362 -0.2435  0.0124
34459SOL     OW 7738   6.139   3.998  10.705  0.1752 -0.1146  0.5199
34459SOL    HW1 7739   6.116   3.907  10.725  1.0619 -0.2095  1.1679
34459SOL    HW2 7740   6.195   3.993  10.628 -2.9759  0.2277 -2.0090
34460SOL     OW 7741   8.069   9.329   8.636 -0.0774  0.2935 -0.8043
34460SOL    HW1 7742   8.008   9.281   8.580  0.8004 -0.3728 -1.2268
34460SOL    HW2 7743   8.155   9.314   8.596  0.5792 -0.1433  0.6642
34461SOL     OW 7744   0.877   9.673   6.040 -0.3096 -0.1113  0.2183
34461SOL    HW1 7745   0.831   9.650   5.959  0.6195  1.0345 -0.6757
34461SOL    HW2 7746   0.969   9.675   6.016  0.0466 -0.3850  1.4861
34462SOL     OW 7747   5.273   4.589   5.962  0.6452  0.2819  0.3835
34462SOL    HW1 7748   5.230   4.529   5.901  0.0056  0.2092  0.8980
34462SOL    HW2 7749   5.263   4.675   5.922  3.1510 -0.0870 -1.2831
34463SOL     OW 7750   1.185   8.369   7.438  0.3073  0.5911 -0.1644
34463SOL    HW1 7751   1.138   8.286   7.427  2.1161 -0.6104  0.8343
34463SOL    HW2 7752   1.249   8.370   7.367 -1.3877  2.4681 -1.8311
34464SOL     OW 7753   3.970   6.703   4.821  0.1357  0.3298 -0.2215
34464SOL    HW1 7754   3.931   6.783   4.856 -0.2309  0.2542 -0.4495
34464SOL    HW2 7755   4.064   6.716   4.830  0.0580  0.5194  0.3245
34465SOL     OW 7756   2.796   9.443   9.715  0.2049  0.0394  0.0408
34465SOL    HW1 7757   2.755   9.447   9.801  0.6673  0.2656  0.2553
34465SOL    HW2 7758   2.878   9.397   9.729 -1.0673 -2.7242 -0.8428
34466SOL     OW 7759   9.816   3.907   0.439 -0.0265 -0.1025  0.1724
34466SOL    HW1 7760   9.824   3.812   0.424  1.0972  0.0182 -0.0930
34466SOL    HW2 7761   9.888   3.928   0.497 -0.5445  0.5305  0.5977
34467SOL     OW 7762  10.953   1.619   6.205 -0.0157 -0.3625  0.4309
34467SOL    HW1 7763  10.908   1.655   6.128 -2.3288  0.4971  2.0655
34467SOL    HW2 7764  10.969   1.695   6.261 -1.3667 -1.2871  2.1970
34468SOL     OW 7765   8.761   0.974  10.299 -0.4482  0.2064  0.1058
34468SOL    HW1 7766   8.686   1.010  10.345 -1.6150  0.3026 -1.7667
34468SOL    HW2 7767   8.828   1.042  10.305 -2.0883  2.1718 -2.0201
34469SOL     OW 7768   0.107  11.105   2.989 -0.5225 -0.0588  0.2508
34469SOL    HW1 7769   0.036  11.137   2.932 -0.4074  2.0207  1.1858
34469SOL    HW2 7770   0.159  11.183   3.009 -0.0937 -0.8468  2.5466
34470SOL     OW 7771   9.836   2.343   8.780 -0.1298 -0.0557  0.1049
34470SOL    HW1 7772   9.912   2.296   8.745 -1.0405 -1.3277 -0.2589
34470SOL    HW2 7773   9.835   2.320   8.873 -0.3990 -0.5296 -0.0111
34471SOL     OW 7774   1.948  10.562   9.089  0.6885 -0.3725 -0.6717
34471SOL    HW1 7775   1.908  10.570   9.002  0.4431 -1.2326 -0.6419
34471SOL    HW2 7776   2.040  10.584   9.076  0.3538  1.0025 -0.8632
34472SOL     OW 7777   5.285   6.074   4.025 -0.1840  0.5430  0.2009
34472SOL    HW1 7778   5.233   6.117   4.093  0.2636  1.9849 -0.3193
34472SOL    HW2 7779   5.308   5.989   4.062 -0.9525  0.8124  1.3610
34473SOL     OW 7780   7.882   4.714   7.601  0.2700  0.0390 -0.1879
34473SOL    HW1 7781   7.827   4.718   7.523 -0.6117 -0.4131  0.3890
34473SOL    HW2 7782   7.933   4.634   7.590 -0.5371 -0.5358  0.1162
34474SOL     OW 7783   2.366   0.081   0.347  0.4844  0.4143  0.5930
34474SOL    HW1 7784   2.403   0.137   0.415 -0.0073  1.1297  0.2800
34474SOL    HW2 7785   2.434   0.078   0.279  0.4669  0.7236  0.5617
34475SOL     OW 7786   7.709   4.645   6.622  0.0611 -0.0675 -0.5243
34475SOL    HW1 7787   7.787   4.659   6.568 -0.0436  0.2211 -0.6017
34475SOL    HW2 7788   7.744   4.638   6.711  0.0992  0.9712 -0.4482
34476SOL     OW 7789   7.104   1.178   6.666 -0.2761 -0.2568  0.4521
34476SOL    HW1 7790   7.030   1.186   6.726 -0.0713 -0.7477  0.7816
34476SOL    HW2 7791   7.146   1.096   6.692  1.5797  1.0000  1.6018
34477SOL     OW 7792   9.289  10.976   0.217 -0.7080  0.3219  0.1835
34477SOL    HW1 7793   9.266  10.884   0.232 -1.4719  0.6486  1.0333
34477SOL    HW2 7794   9.211  11.025   0.241 -0.1957  1.2282  0.0268
34478SOL     OW 7795   4.163   1.154   4.483  0.4587 -0.3683  0.5291
34478SOL    HW1 7796   4.213   1.222   4.438  1.5674  0.4097  2.7679
34478SOL    HW2 7797   4.072   1.184   4.478  0.5312 -0.3434 -1.1559
34479SOL     OW 7798   3.677  10.465   2.143 -0.1622 -0.7214 -0.5357
34479SOL    HW1 7799   3.736  10.431   2.076 -0.6546 -2.1273 -0.2820
34479SOL    HW2 7800   3.736  10.496   2.213  0.2932 -2.1404 -0.2683
34480SOL     OW 7801   8.182   1.362   6.056 -0.3603  0.0882  0.2659
34480SOL    HW1 7802   8.229   1.381   5.974 -1.0562 -1.4780 -0.5459
34480SOL    HW2 7803   8.153   1.448   6.088 -0.0917  0.7324 -1.1441
34481SOL     OW 7804   4.595   0.057   1.154  0.6748  0.8114 -0.0648
34481SOL    HW1 7805   4.595   0.024   1.244  0.7742 -0.0968 -0.3788
34481SOL    HW2 7806   4.557  -0.015   1.102  2.2053  0.5905 -0.9708
34482SOL     OW 7807   7.344   4.788   6.754  0.3543 -0.3262 -0.0448
34482SOL    HW1 7808   7.373   4.803   6.844  2.0776 -0.8178 -0.4741
34482SOL    HW2 7809   7.404   4.721   6.721 -0.6123 -0.5584 -1.3861
34483SOL     OW 7810   9.718   9.801   2.985 -0.0717 -0.0096 -0.3071
34483SOL    HW1 7811   9.671   9.854   2.920 -1.0474 -1.2510 -0.6747
34483SOL    HW2 7812   9.651   9.776   3.048  0.2537 -1.1322 -0.3760
34484SOL     OW 7813   1.944   7.881   1.762  0.2422  0.5858  0.8278
34484SOL    HW1 7814   1.963   7.885   1.856 -0.3306  1.5248  0.9193
34484SOL    HW2 7815   2.030   7.891   1.720  0.2394  3.0280  1.2437
34485SOL     OW 7816   8.434   1.210  10.800  0.1178  0.2918  0.0108
34485SOL    HW1 7817   8.526   1.199  10.778 -0.2879 -1.8287 -0.8959
34485SOL    HW2 7818   8.389   1.215  10.716 -0.5637  2.0238  0.4333
34486SOL     OW 7819   8.749   8.133   8.275 -0.1847  0.0247  0.5071
34486SOL    HW1 7820   8.772   8.045   8.247  0.0769  0.0768  0.5559
34486SOL    HW2 7821   8.673   8.121   8.333  1.5622 -0.4713  2.8306
34487SOL     OW 7822   4.831   4.049   9.720  0.3013  0.1580  0.6853
34487SOL    HW1 7823   4.925   4.060   9.731  0.9310  0.7207 -3.5557
34487SOL    HW2 7824   4.806   4.115   9.654 -2.9066 -0.5167  1.0403
34488SOL     OW 7825   6.430  10.102   0.936  0.4555  0.3134 -0.5912
34488SOL    HW1 7826   6.433  10.082   0.842  0.4668 -0.3307 -0.4587
34488SOL    HW2 7827   6.514  10.145   0.953  1.0939 -0.8795 -0.5999
34489SOL     OW 7828  10.733   6.464   5.355 -0.2911 -0.3677 -0.0989
34489SOL    HW1 7829  10.828   6.458   5.356 -0.3533 -1.6153  0.5612
34489SOL    HW2 7830  10.714   6.541   5.302  1.0514 -0.6509 -1.0418
34490SOL     OW 7831   0.564   8.271   3.996 -0.2596  0.0466  0.0536
34490SOL    HW1 7832   0.492   8.214   3.968  0.1068 -0.6626  0.5228
34490SOL    HW2 7833   0.528   8.320   4.070 -1.0888  1.6081 -1.3095
34491SOL     OW 7834   5.473   9.357   2.280 -0.2359 -0.2083  0.5979
34491SOL    HW1 7835   5.473   9.450   2.300 -0.5965 -0.2399  0.7463
34491SOL    HW2 7836   5.436   9.315   2.358 -0.6940 -0.4175  0.2733
34492SOL     OW 7837   2.017   5.718   4.942  0.6464 -0.0322 -0.0801
34492SOL    HW1 7838   2.097   5.699   4.990  1.7081  3.0361 -0.4601
34492SOL    HW2 7839   2.005   5.642   4.884  2.1326 -1.4503  1.3807
34493SOL     OW 7840   6.730   4.608   7.369 -0.3772  0.0908  0.1802
34493SOL    HW1 7841   6.819   4.604   7.334 -1.5373 -0.3543 -3.0782
34493SOL    HW2 7842   6.715   4.701   7.386 -0.6118  0.8772 -3.4591
34494SOL     OW 7843   5.806   4.885   2.336 -0.2192  0.0075  0.1661
34494SOL    HW1 7844   5.836   4.903   2.425 -0.0497 -0.7060  0.2582
34494SOL    HW2 7845   5.720   4.928   2.330  0.4073  1.3268  0.1775
34495SOL     OW 7846   8.547   8.147   4.343  0.0875 -0.7044  0.3955
34495SOL    HW1 7847   8.624   8.172   4.395 -1.4040 -0.3884  2.5686
34495SOL    HW2 7848   8.494   8.094   4.402 -0.7775 -2.0547 -1.4908
34496SOL     OW 7849   3.902   1.878   6.820  0.3542 -0.1674  0.1960
34496SOL    HW1 7850   3.937   1.958   6.781  2.7712 -0.9116  0.6682
34496SOL    HW2 7851   3.926   1.808   6.759  0.6393 -0.8506  1.0662
34497SOL     OW 7852   0.801   6.871   8.493  0.2874 -0.3017 -0.2920
34497SOL    HW1 7853   0.706   6.876   8.486  0.3277 -0.0569 -0.6929
34497SOL    HW2 7854   0.833   6.932   8.427  0.7138  1.1232  1.1911
34498SOL     OW 7855  10.699   5.384   8.289 -0.4578 -0.5856 -0.0753
34498SOL    HW1 7856  10.790   5.363   8.313 -0.4891 -0.5997  0.0354
34498SOL    HW2 7857  10.691   5.477   8.309 -0.4405 -0.5639 -0.1719
34499SOL     OW 7858   8.174   4.582   8.206  0.8748 -0.2592  0.1687
34499SOL    HW1 7859   8.178   4.604   8.299  2.4191 -1.0921  0.3401
34499SOL    HW2 7860   8.184   4.487   8.203  0.8876 -0.2388 -0.8454
34500SOL     OW 7861   3.423   5.503   1.694 -0.2842  0.1772 -0.3185
34500SOL    HW1 7862   3.329   5.488   1.688  0.0422 -2.7477  0.4064
34500SOL    HW2 7863   3.452   5.514   1.603 -1.3289  1.5085 -0.5227
34501SOL     OW 7864   1.355   2.031   8.729  0.4611  0.2268 -0.7252
34501SOL    HW1 7865   1.285   2.096   8.732  1.9028  1.8445 -0.3102
34501SOL    HW2 7866   1.314   1.953   8.692 -1.7715  0.8129  0.3155
34502SOL     OW 7867   2.904   2.590   6.396  0.0921  0.1774 -0.3143
34502SOL    HW1 7868   2.928   2.680   6.378  0.2366  0.3953  0.8944
34502SOL    HW2 7869   2.988   2.544   6.407  0.0421 -0.2869 -1.6775
34503SOL     OW 7870   7.164   8.995   3.251 -0.7477  0.4388  0.1498
34503SOL    HW1 7871   7.095   8.990   3.317 -1.3714  2.5819 -0.2630
34503SOL    HW2 7872   7.161   8.910   3.207 -0.6882 -0.8425  2.4501
34504SOL     OW 7873   6.429   8.864   8.792  0.3491 -0.2107  0.2907
34504SOL    HW1 7874   6.350   8.812   8.803  0.1899  0.1525  0.9153
34504SOL    HW2 7875   6.436   8.879   8.698 -0.1698 -0.4837  0.2098
34505SOL     OW 7876  10.853  10.055   7.678  0.0262  0.2540  0.1609
34505SOL    HW1 7877  10.893   9.990   7.620  0.3157 -0.7178  1.4033
34505SOL    HW2 7878  10.869  10.139   7.634  0.5512 -0.4116 -0.9761
34506SOL     OW 7879  10.361   1.956   7.665  0.2726 -0.5523 -0.2686
34506SOL    HW1 7880  10.289   1.926   7.720  0.2111 -0.2895 -0.2059
34506SOL    HW2 7881  10.381   2.044   7.697  0.4567 -0.5279 -0.4482
34507SOL     OW 7882   9.102  10.746   6.243  0.6340  0.4571 -0.2897
34507SOL    HW1 7883   9.052  10.734   6.162  0.0784 -0.1215  0.1292
34507SOL    HW2 7884   9.097  10.840   6.261 -2.3840  0.1603  1.0142
34508SOL     OW 7885   6.125  10.778  10.501 -0.4400  0.6978  0.6322
34508SOL    HW1 7886   6.055  10.843  10.506 -0.5049  0.8853 -1.7775
34508SOL    HW2 7887   6.201  10.827  10.470 -0.5030 -0.3113 -1.2595
34509SOL     OW 7888   1.912   2.035   6.085  0.8708 -0.2768  0.7228
34509SOL    HW1 7889   1.924   1.944   6.110  1.4046 -0.4039  0.0468
34509SOL    HW2 7890   1.835   2.035   6.029  1.4967 -0.5038 -0.1670
34510SOL     OW 7891   1.799   3.362   4.817 -0.5044  0.0390  0.3879
34510SOL    HW1 7892   1.805   3.327   4.906  0.4842  0.3114  0.4390
34510SOL    HW2 7893   1.787   3.456   4.829 -0.3052  0.0841  0.2337
34511SOL     OW 7894   0.407   0.527   6.014 -0.6415  0.3980  0.3569
34511SOL    HW1 7895   0.383   0.443   6.053  0.6096  0.3127  1.0007
34511SOL    HW2 7896   0.502   0.523   6.004 -0.7003  1.2458 -0.7938
34512SOL     OW 7897   8.404   3.094   0.990 -0.3722  0.2042  0.0481
34512SOL    HW1 7898   8.401   3.150   1.068  0.4320 -0.9372  0.9202
34512SOL    HW2 7899   8.312   3.080   0.968 -0.6157  0.3120  0.9582
34513SOL     OW 7900   9.590  11.034   1.173  0.0420  0.0887  0.0042
34513SOL    HW1 7901   9.528  11.062   1.105 -1.5029 -0.5693  1.0840
34513SOL    HW2 7902   9.582  10.938   1.174 -1.5071  0.1733  2.4586
34514SOL     OW 7903   7.551   8.015   9.445  0.1654 -0.3856  0.0499
34514SOL    HW1 7904   7.581   7.925   9.434 -0.7714 -0.7301  0.1855
34514SOL    HW2 7905   7.622   8.058   9.493 -0.0893 -1.4924  1.4945
34515SOL     OW 7906   5.685   7.262   1.729 -0.3337  0.2420 -0.4353
34515SOL    HW1 7907   5.721   7.175   1.747  0.9779  0.3827 -2.0879
34515SOL    HW2 7908   5.633   7.251   1.650 -0.7159  0.8235 -0.2719
34516SOL     OW 7909   8.739   1.570   9.187 -0.3706 -0.7251 -0.1652
34516SOL    HW1 7910   8.785   1.493   9.153 -0.6375 -0.6172 -0.7803
34516SOL    HW2 7911   8.789   1.595   9.265  0.4029 -0.8223 -0.6173
34517SOL     OW 7912   1.819   5.516   5.237  0.1151  0.0318 -0.9657
34517SOL    HW1 7913   1.906   5.483   5.215  0.6912  0.1125  0.9793
34517SOL    HW2 7914   1.759   5.447   5.209  1.0554 -1.3630  0.2878
34518SOL     OW 7915   4.219   9.994   3.149  0.0904  0.0814  0.0779
34518SOL    HW1 7916   4.150   9.970   3.210  0.9518 -0.3988  0.8859
34518SOL    HW2 7917   4.296  10.010   3.204  0.4525  1.3279 -0.7299
34519SOL     OW 7918   4.430   6.605   9.170 -0.2036 -0.0421  0.1071
34519SOL    HW1 7919   4.423   6.651   9.253 -0.5472 -0.4408  0.3028
34519SOL    HW2 7920   4.350   6.552   9.165 -0.5246  0.4907 -0.7907
34520SOL     OW 7921   4.727   3.705   7.698 -0.0612  0.8031 -0.1304
34520SOL    HW1 7922   4.754   3.691   7.607 -1.4580 -1.8441 -0.2311
34520SOL    HW2 7923   4.635   3.731   7.693  0.2897  2.2985  0.5129
34521SOL     OW 7924  10.758   0.696   4.907 -0.0625  0.3088  0.3125
34521SOL    HW1 7925  10.744   0.780   4.952  0.1874 -1.1120  3.2761
34521SOL    HW2 7926  10.695   0.637   4.948 -0.4781 -0.9199 -1.9787
34522SOL     OW 7927   3.494   4.028   9.784  0.1849  0.5261 -0.4160
34522SOL    HW1 7928   3.474   4.076   9.703  0.2525 -0.8189 -1.2663
34522SOL    HW2 7929   3.462   4.084   9.854 -1.0151  1.1731 -1.4381
34523SOL     OW 7930   3.011  10.521   3.646  0.6856 -0.0246 -0.2609
34523SOL    HW1 7931   2.945  10.479   3.591  3.0587 -2.1395 -1.7175
34523SOL    HW2 7932   2.967  10.597   3.682 -2.5551 -1.3563 -1.0436
34524SOL     OW 7933   2.419   4.713   5.158  0.8043  0.1830  0.1489
34524SOL    HW1 7934   2.392   4.671   5.240 -0.0341 -1.6700 -1.0209
34524SOL    HW2 7935   2.496   4.765   5.182  1.3397 -1.3022  1.8791
34525SOL     OW 7936   2.877   7.160   2.106 -0.5494  0.0965  0.3626
34525SOL    HW1 7937   2.936   7.233   2.086  1.1711 -1.0949  0.8878
34525SOL    HW2 7938   2.884   7.148   2.200  0.4527 -1.7360  0.1027
34526SOL     OW 7939   3.045   9.657   5.065  0.3989 -0.5942 -0.3108
34526SOL    HW1 7940   2.955   9.638   5.092  0.9634  0.0266  2.2525
34526SOL    HW2 7941   3.034   9.713   4.988 -1.5219  1.1834  1.1087
34527SOL     OW 7942   1.003   2.862   4.851 -0.0706  0.0320 -0.2663
34527SOL    HW1 7943   1.082   2.885   4.900  0.5339  0.1257 -1.2576
34527SOL    HW2 7944   0.950   2.812   4.913  0.8712 -0.2263  0.3504
34528SOL     OW 7945   0.629   8.258   2.907 -0.0028 -0.2561  0.0166
34528SOL    HW1 7946   0.683   8.181   2.893  1.4543  0.8785 -0.9432
34528SOL    HW2 7947   0.598   8.282   2.820 -0.0123  0.5235  0.2282
34529SOL     OW 7948   7.634   5.227   8.198 -0.4509  0.0342 -0.2609
34529SOL    HW1 7949   7.618   5.234   8.292 -0.6689  0.5692 -0.3337
34529SOL    HW2 7950   7.557   5.181   8.165 -0.0878 -0.7051 -0.0968
34530SOL     OW 7951   3.686   1.394   4.075 -0.6319  0.0720  0.2518
34530SOL    HW1 7952   3.772   1.352   4.080 -0.0699  1.2430  0.9248
34530SOL    HW2 7953   3.702   1.485   4.102 -1.4426  1.2895 -2.9175
34531SOL     OW 7954   9.798   4.972   4.877 -1.0132 -0.2884  0.1986
34531SOL    HW1 7955   9.804   4.979   4.782 -1.7221  0.1355  0.1788
34531SOL    HW2 7956   9.874   5.019   4.909  0.4252 -2.2305 -0.1828
34532SOL     OW 7957   4.291   5.233   8.749  0.0719 -0.0983  0.0150
34532SOL    HW1 7958   4.335   5.237   8.833 -1.1121  1.0496  0.6151
34532SOL    HW2 7959   4.211   5.182   8.766 -0.2404  0.2489 -0.3794
34533SOL     OW 7960   0.406   2.230   0.945  0.3532  0.0471  0.0085
34533SOL    HW1 7961   0.468   2.299   0.967  1.0181 -0.5356 -0.0031
34533SOL    HW2 7962   0.393   2.182   1.027  0.3110 -0.1343 -0.1038
34534SOL     OW 7963   6.708   7.600   3.293 -0.5823  0.2976  0.6826
34534SOL    HW1 7964   6.777   7.575   3.232 -1.7629 -2.4224  0.3255
34534SOL    HW2 7965   6.733   7.557   3.375 -1.9404 -0.9840  0.4635
34535SOL     OW 7966   8.608   4.804   4.452  0.0082 -0.5774 -0.0402
34535SOL    HW1 7967   8.534   4.824   4.395 -0.6597  3.0640  1.8110
34535SOL    HW2 7968   8.570   4.765   4.530 -0.2028  1.7987  1.1485
34536SOL     OW 7969   9.032   0.636  10.918 -0.7613  0.1207 -0.1434
34536SOL    HW1 7970   8.950   0.657  10.964 -0.7027  0.3499 -0.1418
34536SOL    HW2 7971   9.010   0.560  10.865 -1.1387  0.5370 -0.5913
34537SOL     OW 7972   5.571   0.117   2.490  0.2424  0.2291 -0.3739
34537SOL    HW1 7973   5.629   0.064   2.545 -0.0432  0.2072 -0.0897
34537SOL    HW2 7974   5.610   0.204   2.492  0.4717  0.1298 -0.4880
34538SOL     OW 7975   4.024   5.805   5.180  0.2717  0.2763 -0.0131
34538SOL    HW1 7976   4.074   5.873   5.135  0.8342  1.9891  2.9134
34538SOL    HW2 7977   4.091   5.748   5.217  0.1145  1.4725  2.2939
34539SOL     OW 7978   5.845   4.447   4.218  0.1576 -0.0711  0.0694
34539SOL    HW1 7979   5.837   4.513   4.288  0.2594 -0.9705  0.9495
34539SOL    HW2 7980   5.908   4.485   4.157  0.3089  0.6064  0.6273
34540SOL     OW 7981   5.163   1.623   9.545 -0.2453  0.2490 -0.8441
34540SOL    HW1 7982   5.101   1.639   9.474 -0.7756 -0.2809 -0.5092
34540SOL    HW2 7983   5.128   1.673   9.619  0.3888  0.9225 -0.9978
34541SOL     OW 7984   3.974   8.592   0.136 -0.9297 -0.1266 -0.1463
34541SOL    HW1 7985   4.063   8.590   0.172 -0.8347  1.8580 -0.1597
34541SOL    HW2 7986   3.986   8.620   0.045 -1.4391 -1.8299 -0.7721
34542SOL     OW 7987   4.128  10.380   5.294  0.6297  0.1851  0.1830
34542SOL    HW1 7988   4.208  10.328   5.291  0.0974 -0.6973  0.6411
34542SOL    HW2 7989   4.154  10.465   5.329  1.3448 -0.1252  0.4100
34543SOL     OW 7990  10.399   3.952   9.997 -0.0602 -0.6515  0.4625
34543SOL    HW1 7991  10.357   3.968   9.912 -0.2621 -0.1652  0.6512
34543SOL    HW2 7992  10.481   3.907   9.975 -0.5529 -1.3890  0.0739
34544SOL     OW 7993   7.233   7.382  10.290  1.3176  0.6607  0.0652
34544SOL    HW1 7994   7.256   7.416  10.203 -1.3241 -0.1025 -0.9987
34544SOL    HW2 7995   7.164   7.441  10.321 -0.3800 -1.2258  0.0017
34545SOL     OW 7996   0.134   3.911   0.238 -0.0235 -0.2038  0.4406
34545SOL    HW1 7997   0.041   3.933   0.249 -0.0682 -0.5288  0.7093
34545SOL    HW2 7998   0.177   3.954   0.312 -0.5000 -3.5765  2.9030
34546SOL     OW 7999   2.888   0.952   7.391 -0.3277  0.3371 -0.8362
34546SOL    HW1 8000   2.798   0.927   7.414 -0.7003  1.0232 -1.5210
34546SOL    HW2 8001   2.914   1.013   7.460  0.3464 -1.3135  0.4700
34547SOL     OW 8002   2.415   0.087   7.763 -0.1889  0.1619  0.0036
34547SOL    HW1 8003   2.356   0.153   7.726  0.5120  0.5533 -0.4383
34547SOL    HW2 8004   2.376   0.003   7.737 -0.1923  0.4264 -0.8659
34548SOL     OW 8005   2.586   8.692   0.516  0.1623  0.3129  0.4043
34548SOL    HW1 8006   2.516   8.752   0.490  1.3947  1.2290 -0.9476
34548SOL    HW2 8007   2.625   8.663   0.433  2.5454  1.2560  1.1021
34549SOL     OW 8008   9.807  10.270   6.560  0.6323  0.2584  0.4352
34549SOL    HW1 8009   9.846  10.355   6.542  1.3685 -0.2293 -0.3593
34549SOL    HW2 8010   9.845  10.243   6.644 -0.5489  1.2434  1.3094
34550SOL     OW 8011   2.174   3.002   4.469 -0.1670  0.2651 -0.0267
34550SOL    HW1 8012   2.167   2.911   4.498 -2.3974  0.3581 -0.1335
34550SOL    HW2 8013   2.143   3.000   4.378  0.4177  1.0369 -0.2531
34551SOL     OW 8014   1.550   8.180   5.616  0.2679 -0.4514  0.6855
34551SOL    HW1 8015   1.628   8.161   5.668 -0.4381  1.0877  2.4041
34551SOL    HW2 8016   1.563   8.270   5.586 -0.7836 -0.2200  0.8917
34552SOL     OW 8017  10.519   6.755   6.854  0.5571 -0.0126 -0.1754
34552SOL    HW1 8018  10.542   6.673   6.898  0.5842  0.5954  0.9830
34552SOL    HW2 8019  10.477   6.728   6.772  0.2804 -1.1878  0.3365
34553SOL     OW 8020   2.350   0.446   7.766 -0.0569 -0.7687 -0.0558
34553SOL    HW1 8021   2.394   0.492   7.838 -0.9316 -0.6349  0.4047
34553SOL    HW2 8022   2.417   0.438   7.698  0.6868 -0.6026  0.6434
34554SOL     OW 8023   8.782   0.455   7.672 -0.2010  0.2052  0.2825
34554SOL    HW1 8024   8.770   0.467   7.766 -0.1803  0.8499  0.2044
34554SOL    HW2 8025   8.832   0.532   7.644  2.1734 -1.2730  0.2192
34555SOL     OW 8026  10.599   8.424   7.463 -0.6279  0.9970  0.2137
34555SOL    HW1 8027  10.592   8.360   7.392 -3.0971  1.4961 -0.0949
34555SOL    HW2 8028  10.616   8.508   7.419 -0.4331  1.0380  0.3642
34556SOL     OW 8029   8.230   3.747  10.004  0.1403  0.0294  0.3508
34556SOL    HW1 8030   8.213   3.659   9.969 -0.5767  0.3087 -0.0335
34556SOL    HW2 8031   8.211   3.740  10.097 -0.5532 -0.0765  0.2110
34557SOL     OW 8032   9.095   9.857   5.036  0.4963 -0.2359 -0.1408
34557SOL    HW1 8033   9.151   9.877   4.961  0.5570 -0.7455 -0.2340
34557SOL    HW2 8034   9.086   9.940   5.082  0.7265  0.0087 -0.5327
34558SOL     OW 8035   2.353   6.134   9.305  0.3097 -0.5280  0.2858
34558SOL    HW1 8036   2.409   6.211   9.316  0.8850 -0.6405 -1.6086
34558SOL    HW2 8037   2.290   6.141   9.377  1.6242  0.5706  1.4085
34559SOL     OW 8038   0.724   3.892   5.565  0.1881  0.2123 -0.5653
34559SOL    HW1 8039   0.772   3.814   5.594 -0.1228 -0.2738 -1.3236
34559SOL    HW2 8040   0.638   3.882   5.605  0.7792  1.2520  1.0689
34560SOL     OW 8041   3.702   7.041   9.044  0.0885  0.4300 -0.0016
34560SOL    HW1 8042   3.610   7.017   9.052  0.4007 -0.6533  0.4639
34560SOL    HW2 8043   3.730   7.002   8.961  0.2296  0.4062  0.0554
34561SOL     OW 8044   0.610   4.431   1.280  0.8349  0.0351  0.5265
34561SOL    HW1 8045   0.558   4.460   1.205 -0.6784 -1.3013  1.0095
34561SOL    HW2 8046   0.646   4.347   1.253 -0.6073 -0.9879  1.6306
34562SOL     OW 8047   4.200  10.969   2.110  0.6692  0.2955  0.1831
34562SOL    HW1 8048   4.118  11.000   2.148  0.6334  1.3190 -0.6864
34562SOL    HW2 8049   4.174  10.929   2.027  1.0949  1.2521 -0.4353
34563SOL     OW 8050   8.837   9.670   4.064 -0.0351 -0.3197 -0.5253
34563SOL    HW1 8051   8.761   9.691   4.010 -1.4169 -1.1418  1.0263
34563SOL    HW2 8052   8.863   9.754   4.102 -0.0729 -0.0158 -1.1455
34564SOL     OW 8053   5.159   6.827   5.215 -0.2203  0.4602 -0.0449
34564SOL    HW1 8054   5.160   6.732   5.204  0.0867  0.5223 -0.6240
34564SOL    HW2 8055   5.078   6.845   5.261 -0.2425 -0.0904  0.1414
34565SOL     OW 8056   7.358   4.477   8.506  0.1957 -0.0897  0.0948
34565SOL    HW1 8057   7.399   4.542   8.564  1.3334  0.2674 -1.0751
34565SOL    HW2 8058   7.430   4.440   8.456 -0.6237 -1.2681 -0.2490
34566SOL     OW 8059   0.677   2.992   8.725 -0.4358 -0.3066 -0.0169
34566SOL    HW1 8060   0.704   2.913   8.680 -1.6587  0.4891 -2.2744
34566SOL    HW2 8061   0.602   2.965   8.779 -0.9396 -0.6959 -0.8885
34567SOL     OW 8062   8.119   1.566   9.005 -0.4499 -0.1454 -0.3909
34567SOL    HW1 8063   8.031   1.563   8.970 -0.7570 -0.7373  0.4083
34567SOL    HW2 8064   8.142   1.660   9.005 -1.7013  0.1919  0.8806
34568SOL     OW 8065   4.114   6.132   7.526  0.2787  0.2145 -0.2968
34568SOL    HW1 8066   4.047   6.104   7.588  0.7599 -1.7639 -0.6057
34568SOL    HW2 8067   4.186   6.162   7.582 -0.4578  1.4738  0.0353
34569SOL     OW 8068  10.440   9.377   7.939  0.5993 -0.1092 -0.0020
34569SOL    HW1 8069  10.473   9.454   7.894  0.3241  0.5602  0.9003
34569SOL    HW2 8070  10.473   9.385   8.029 -1.4448  0.2819  0.7783
34570SOL     OW 8071   1.607  10.940   7.328 -0.1910 -0.8055 -0.1106
34570SOL    HW1 8072   1.526  10.904   7.291 -0.2206  0.5215 -1.4355
34570SOL    HW2 8073   1.635  11.006   7.265  0.4135  0.7540  1.6889
34571SOL     OW 8074   5.183   1.335   6.505  0.1793  0.7441 -0.7958
34571SOL    HW1 8075   5.249   1.401   6.526  0.7918  0.6385 -2.2626
34571SOL    HW2 8076   5.210   1.300   6.420 -0.8928 -0.4355 -0.6851
34572SOL     OW 8077   8.196   3.978   1.792 -0.9693  0.2317 -0.3893
34572SOL    HW1 8078   8.198   4.047   1.858 -1.6485  0.5722 -0.7179
34572SOL    HW2 8079   8.283   3.937   1.797 -0.8713  0.5315  0.4151
34573SOL     OW 8080   8.469   6.337   6.785  0.6529  0.1768 -0.5455
34573SOL    HW1 8081   8.391   6.350   6.731  1.2021 -0.8199 -1.6292
34573SOL    HW2 8082   8.534   6.396   6.748  0.1519  1.7234  0.9731
34574SOL     OW 8083   6.534   6.007   9.902 -0.1911 -0.1308 -0.0544
34574SOL    HW1 8084   6.493   5.922   9.891  0.5362 -0.4264 -0.6075
34574SOL    HW2 8085   6.572   6.027   9.816  0.7064  0.1744  0.3916
34575SOL     OW 8086   2.986   5.319   3.408 -0.4295  0.0403 -0.5375
34575SOL    HW1 8087   2.957   5.228   3.395  0.6095 -0.6733  1.5648
34575SOL    HW2 8088   2.908   5.365   3.437 -0.3304 -1.0295  1.6583
34576SOL     OW 8089   0.190   3.280   8.972 -0.1803 -0.0293  0.0126
34576SOL    HW1 8090   0.160   3.190   8.959 -1.6062  0.0288  2.4967
34576SOL    HW2 8091   0.110   3.332   8.982  0.6484  1.1851  0.6140
34577SOL     OW 8092   0.330   5.991   8.314  0.2500 -0.1469 -0.2867
34577SOL    HW1 8093   0.332   5.987   8.218  0.2271 -1.9331 -0.2444
34577SOL    HW2 8094   0.411   6.036   8.338  0.3221  0.2025 -1.1268
34578SOL     OW 8095   9.084   1.080   2.131 -0.8192  0.3173  0.4819
34578SOL    HW1 8096   9.157   1.090   2.070 -0.7920  1.6285  0.7040
34578SOL    HW2 8097   9.051   0.991   2.115  0.0311  0.1598 -0.4841
34579SOL     OW 8098   4.756   7.423  11.097  0.1987 -0.7643 -0.1438
34579SOL    HW1 8099   4.820   7.354  11.081  0.5616 -0.9173  1.7206
34579SOL    HW2 8100   4.738   7.418  11.191  0.6463  1.9923  0.1909
34580SOL     OW 8101   3.110   4.340   4.432 -0.2975 -0.1761  0.5115
34580SOL    HW1 8102   3.182   4.280   4.414  0.7805  1.4708 -0.8796
34580SOL    HW2 8103   3.036   4.303   4.383  0.7512  0.3775 -1.5961
34581SOL     OW 8104   5.158   7.938   7.032 -0.2218  0.2234 -0.5695
34581SOL    HW1 8105   5.155   7.925   7.127  0.7461  0.3133 -0.5183
34581SOL    HW2 8106   5.219   8.011   7.020 -0.1089  0.0148 -1.2791
34582SOL     OW 8107  10.915   1.849   6.956 -0.9240 -0.3515 -0.2008
34582SOL    HW1 8108  10.903   1.921   6.894 -2.3409  0.3414  0.8361
34582SOL    HW2 8109  10.984   1.795   6.916 -2.1843 -0.2846 -2.7188
34583SOL     OW 8110   6.626   0.756   5.918 -0.1672  0.0517 -0.2249
34583SOL    HW1 8111   6.646   0.689   5.853  1.0044  1.0888 -0.9892
34583SOL    HW2 8112   6.703   0.813   5.918 -1.1849  1.4950  0.2613
34584SOL     OW 8113   9.268   3.787   4.689 -0.5095 -0.1890 -0.4278
34584SOL    HW1 8114   9.239   3.799   4.779 -2.3851 -0.2406 -0.9891
34584SOL    HW2 8115   9.276   3.692   4.678 -0.6557 -0.2008 -0.4294
34585SOL     OW 8116   9.711   2.290   8.542 -0.5125  0.1747  0.3997
34585SOL    HW1 8117   9.741   2.199   8.551  2.2058  0.8664 -0.6631
34585SOL    HW2 8118   9.740   2.332   8.623  0.9749  0.7035 -0.3620
34586SOL     OW 8119   1.882  10.456   7.410 -0.7070 -0.0898  0.4434
34586SOL    HW1 8120   1.863  10.543   7.373 -1.3808  0.1664  1.3664
34586SOL    HW2 8121   1.820  10.398   7.366 -0.0495 -0.1679 -0.4019
34587SOL     OW 8122   2.584   5.085   2.244 -0.3681 -0.2372  0.5075
34587SOL    HW1 8123   2.583   5.001   2.198 -0.6021  0.2595 -0.4031
34587SOL    HW2 8124   2.674   5.093   2.275  0.5268  0.5720 -2.0434
34588SOL     OW 8125   8.979   1.225   4.074  0.1844 -0.3305 -0.8555
34588SOL    HW1 8126   8.927   1.181   4.007  0.2286  0.4197 -1.3930
34588SOL    HW2 8127   9.070   1.210   4.047  0.1911  0.6310 -1.4104
34589SOL     OW 8128   4.160   3.551   5.928 -0.5050  0.5022 -0.3322
34589SOL    HW1 8129   4.237   3.533   5.874 -1.3467 -2.0367 -0.8335
34589SOL    HW2 8130   4.091   3.570   5.865 -0.6334  1.4379  0.0665
34590SOL     OW 8131   6.904   3.781  10.796  0.2103  0.0667 -0.0521
34590SOL    HW1 8132   6.827   3.827  10.761  0.6095  0.3324 -0.5896
34590SOL    HW2 8133   6.867   3.717  10.857 -0.4967 -0.2400 -0.7706
34591SOL     OW 8134   1.180   3.948   6.385  0.0823  0.1768 -0.6941
34591SOL    HW1 8135   1.264   3.993   6.370 -0.4978  1.0275 -1.5534
34591SOL    HW2 8136   1.116   4.002   6.338 -1.3337  0.8481  1.8289
34592SOL     OW 8137   2.059   6.133   5.442 -0.4058  0.6309  0.2090
34592SOL    HW1 8138   2.126   6.065   5.444  1.5813  2.5145  1.3282
34592SOL    HW2 8139   2.092   6.198   5.380 -1.7268  1.1412 -0.0030
34593SOL     OW 8140   6.053   9.580   1.031  0.3905 -0.4532  0.5420
34593SOL    HW1 8141   5.975   9.535   0.999  0.1298  0.4787 -0.1663
34593SOL    HW2 8142   6.020   9.640   1.098  0.3329  0.7007 -0.4932
34594SOL     OW 8143   9.698   6.895   3.932  0.1052 -0.1991 -0.2582
34594SOL    HW1 8144   9.786   6.860   3.944  0.1789  0.2580  0.6728
34594SOL    HW2 8145   9.706   6.988   3.957 -0.6772 -0.2086  0.0527
34595SOL     OW 8146   6.467   3.079   2.411 -0.4991  0.5795 -0.4510
34595SOL    HW1 8147   6.462   3.100   2.318 -0.4927  0.3352 -0.5075
34595SOL    HW2 8148   6.390   3.122   2.449 -1.0500 -0.1232 -0.7297
34596SOL     OW 8149  11.083   9.001   1.066  0.4078  0.3110 -0.4791
34596SOL    HW1 8150  11.055   9.083   1.106  0.3048  0.1121 -0.1355
34596SOL    HW2 8151  11.127   8.953   1.137 -0.2235 -0.2632 -0.4601
34597SOL     OW 8152   3.836   5.176   8.939 -0.4546  0.5034 -0.4984
34597SOL    HW1 8153   3.754   5.132   8.962 -0.2480  0.5325  0.3394
34597SOL    HW2 8154   3.853   5.234   9.013 -0.2017  1.2569 -1.1395
34598SOL     OW 8155   4.636   7.536   1.684  0.0651 -0.4826  0.3337
34598SOL    HW1 8156   4.603   7.623   1.703 -0.5835 -1.0291  1.8754
34598SOL    HW2 8157   4.602   7.515   1.597  1.6999  1.4531 -0.8727
34599SOL     OW 8158  10.155   7.473   7.767  0.6284 -0.6211  0.2859
34599SOL    HW1 8159  10.210   7.453   7.843  1.3807  0.3776  0.0254
34599SOL    HW2 8160  10.100   7.395   7.756  0.3970 -0.7319  1.9421
34600SOL     OW 8161   7.581   1.918   1.956  0.1242 -0.0798 -0.5792
34600SOL    HW1 8162   7.611   1.830   1.934 -0.4333 -0.4989  0.2840
34600SOL    HW2 8163   7.649   1.976   1.922  0.8671 -0.8898 -0.5014
34601SOL     OW 8164   2.557  10.885   6.465  0.4581 -0.1764  0.1228
34601SOL    HW1 8165   2.633  10.893   6.522  0.8949 -0.6400 -0.3859
34601SOL    HW2 8166   2.591  10.848   6.384 -0.1065  0.7075 -0.5399
34602SOL     OW 8167   2.014   7.703   7.425  0.0119  0.4577 -0.7560
34602SOL    HW1 8168   1.982   7.619   7.393 -0.4528 -0.2146  1.3484
34602SOL    HW2 8169   2.102   7.710   7.388  0.7026 -1.7484  0.2836
34603SOL     OW 8170   8.273   2.790   3.683  0.4129  0.5237 -0.2373
34603SOL    HW1 8171   8.265   2.735   3.605  0.4706  1.0623 -0.6324
34603SOL    HW2 8172   8.208   2.859   3.670 -0.5592 -0.1527  0.8622
34604SOL     OW 8173   8.166   3.655   2.702 -0.4399  0.1710 -0.9944
34604SOL    HW1 8174   8.251   3.624   2.734 -0.4620 -0.1750 -1.2645
34604SOL    HW2 8175   8.153   3.739   2.747 -0.4341 -0.2654 -0.1534
34605SOL     OW 8176   4.229  10.165   7.302 -0.2401  0.2742 -0.2715
34605SOL    HW1 8177   4.158  10.107   7.272  0.4337 -0.5817 -0.2577
34605SOL    HW2 8178   4.279  10.111   7.364  0.6802  0.7114 -0.6175
34606SOL     OW 8179   8.895   9.638   1.306  0.1756  0.4164 -0.6032
34606SOL    HW1 8180   8.967   9.696   1.281 -0.0941  1.0345  0.0254
34606SOL    HW2 8181   8.892   9.644   1.401 -0.4771  0.1134 -0.6031
34607SOL     OW 8182   1.333  10.082   7.046 -0.0115  0.1637 -0.4314
34607SOL    HW1 8183   1.397  10.081   6.974  2.0427  0.3550  1.2812
34607SOL    HW2 8184   1.330   9.991   7.076  0.4318  0.3721  0.2744
34608SOL     OW 8185   1.864   5.412   1.373 -0.2356 -0.4871 -0.5602
34608SOL    HW1 8186   1.857   5.369   1.287 -2.1946 -2.1751  0.3434
34608SOL    HW2 8187   1.786   5.467   1.378 -0.6233 -1.0963  0.4602
34609SOL     OW 8188   0.366   7.936   9.554  0.2866  0.4679 -0.2293
34609SOL    HW1 8189   0.426   7.994   9.601 -0.5897  1.3026 -0.1092
34609SOL    HW2 8190   0.414   7.912   9.475  1.5639 -0.5133  0.8026
34610SOL     OW 8191   0.798   5.325   8.575  0.2387  0.0859  0.1121
34610SOL    HW1 8192   0.848   5.357   8.651 -0.5301  0.2355  0.5710
34610SOL    HW2 8193   0.757   5.404   8.539  1.4833  0.1843 -1.1441
34611SOL     OW 8194   8.102   3.186   4.247 -0.2370  0.1706  0.3020
34611SOL    HW1 8195   8.098   3.096   4.280 -1.7693 -0.4652 -1.4060
34611SOL    HW2 8196   8.013   3.203   4.215  0.6392  1.3635 -1.6599
34612SOL     OW 8197   4.987   8.580   4.510  0.0648 -0.6596 -0.3719
34612SOL    HW1 8198   5.065   8.524   4.516  0.1991 -0.3921  0.5232
34612SOL    HW2 8199   4.937   8.559   4.589 -1.3360 -1.6314 -1.4761
34613SOL     OW 8200   2.659  10.822   3.193 -0.3083  0.4763 -0.3927
34613SOL    HW1 8201   2.637  10.906   3.153  0.0468  0.6793 -0.1729
34613SOL    HW2 8202   2.751  10.832   3.220 -0.1616 -0.0897 -0.6478
34614SOL     OW 8203   7.937   1.365   0.528 -0.1391 -0.1522  0.0750
34614SOL    HW1 8204   7.972   1.300   0.588  0.1696 -0.8998 -0.8921
34614SOL    HW2 8205   7.850   1.386   0.564  0.4267  0.1641  1.3164
34615SOL     OW 8206   2.341   7.855   2.908 -0.4765 -0.5258 -0.3241
34615SOL    HW1 8207   2.252   7.853   2.943 -0.6137 -1.2419 -0.7003
34615SOL    HW2 8208   2.339   7.926   2.843 -0.8392 -0.7083 -0.5117
34616SOL     OW 8209   0.688   5.631   5.934 -0.2097 -0.3490 -0.8661
34616SOL    HW1 8210   0.685   5.702   5.999 -0.9560 -1.3559  0.2540
34616SOL    HW2 8211   0.774   5.638   5.895  0.6589 -0.2562  0.9369
34617SOL     OW 8212   7.137   1.654   2.744  0.3579  0.1055  0.8173
34617SOL    HW1 8213   7.102   1.612   2.822 -0.0618 -1.2300 -0.0573
34617SOL    HW2 8214   7.153   1.582   2.683  1.4106  1.0405 -0.0531
34618SOL     OW 8215  10.926   6.221  10.393 -0.0451  0.3083 -0.5231
34618SOL    HW1 8216  10.893   6.232  10.304  0.5204  3.6334 -0.4375
34618SOL    HW2 8217  10.879   6.286  10.445  1.4195  0.1567  1.0957
34619SOL     OW 8218   8.618   2.072   0.290 -0.0461  0.2164  0.2167
34619SOL    HW1 8219   8.570   2.101   0.212  0.2986  0.2864  0.0278
34619SOL    HW2 8220   8.682   2.142   0.305 -0.6960  0.6353  1.0870
34620SOL     OW 8221   0.203   3.268   7.212 -0.2059  0.6958  0.2860
34620SOL    HW1 8222   0.287   3.295   7.249  0.2040  1.4923 -1.1770
34620SOL    HW2 8223   0.144   3.267   7.287  1.2027 -0.4041  1.4478
34621SOL     OW 8224   9.561   6.914   9.476  0.0482  0.8588 -0.2417
34621SOL    HW1 8225   9.603   6.834   9.508 -2.8630 -0.5981  0.2635
34621SOL    HW2 8226   9.526   6.890   9.390 -3.0407  0.6269  0.9439
34622SOL     OW 8227   7.537   2.439   9.230  0.0019 -0.1940 -0.0218
34622SOL    HW1 8228   7.542   2.396   9.315 -2.7084 -0.6566 -0.0104
34622SOL    HW2 8229   7.540   2.533   9.250  2.3210 -0.2663  0.2571
34623SOL     OW 8230   1.728   5.498   1.964  0.2825  0.1553  0.0419
34623SOL    HW1 8231   1.760   5.411   1.988 -0.6381 -0.6275 -1.4313
34623SOL    HW2 8232   1.736   5.549   2.045  1.0439 -1.2186  0.8858
34624SOL     OW 8233   1.430   5.570   9.353 -0.1862 -0.0692  0.0518
34624SOL    HW1 8234   1.506   5.564   9.411  0.5749  0.8704 -0.8209
34624SOL    HW2 8235   1.400   5.660   9.361 -0.2542 -0.0061 -0.7594
34625SOL     OW 8236   6.663   8.548   0.716  0.1856  0.5292  0.1772
34625SOL    HW1 8237   6.607   8.606   0.664 -1.0270  0.2507  1.1486
34625SOL    HW2 8238   6.748   8.553   0.672 -0.7556  0.3852 -1.7746
34626SOL     OW 8239   0.252   4.833  10.831  0.2577 -0.2744  0.2000
34626SOL    HW1 8240   0.173   4.864  10.786 -0.1348 -0.3241  0.8388
34626SOL    HW2 8241   0.232   4.743  10.856  0.0833  0.0601  1.3243
34627SOL     OW 8242   6.129   5.247   8.560 -0.4254 -0.3631 -0.0608
34627SOL    HW1 8243   6.178   5.321   8.596 -0.1637  0.7829 -2.5438
34627SOL    HW2 8244   6.055   5.235   8.620 -0.3092  1.7230  0.5740
34628SOL     OW 8245   0.127   4.472   7.712 -0.6504  0.1648  0.0298
34628SOL    HW1 8246   0.037   4.466   7.745 -0.4997  0.0434  0.4265
34628SOL    HW2 8247   0.179   4.495   7.789 -0.0977 -1.4117  0.1476
34629SOL     OW 8248   0.061   3.201  10.421  0.6068  0.5195 -0.1387
34629SOL    HW1 8249   0.002   3.268  10.455 -0.6958 -0.1640 -0.9583
34629SOL    HW2 8250   0.005   3.145  10.367  2.1257  0.1559 -1.4093
34630SOL     OW 8251   6.329   0.314  10.225  0.1600  0.6531 -0.0648
34630SOL    HW1 8252   6.361   0.224  10.232  1.6142  1.1504 -0.0406
34630SOL    HW2 8253   6.281   0.329  10.306 -0.2079 -0.1468 -0.1345
34631SOL     OW 8254  10.128   4.528   3.937  0.8150 -0.2802  0.4330
34631SOL    HW1 8255  10.115   4.442   3.899 -1.4727 -0.4392  1.4071
34631SOL    HW2 8256  10.156   4.583   3.864 -2.1924 -0.8498 -1.3215
34632SOL     OW 8257  10.740   3.927   1.046 -0.2950  0.6279 -0.3455
34632SOL    HW1 8258  10.754   3.867   0.972 -0.7593 -1.8335  1.4143
34632SOL    HW2 8259  10.823   3.972   1.057  0.3942 -0.3871 -1.1779
34633SOL     OW 8260   9.470   1.681   4.349 -0.1988  0.3957 -0.1749
34633SOL    HW1 8261   9.560   1.662   4.322  0.0576  1.2712  0.0392
34633SOL    HW2 8262   9.421   1.603   4.324  0.2430  0.6870 -2.1378
34634SOL     OW 8263   3.911   7.578   7.465  0.6566 -0.6181  0.0948
34634SOL    HW1 8264   3.843   7.521   7.429 -0.6575  1.7551 -1.4075
34634SOL    HW2 8265   3.979   7.517   7.495 -1.1154 -2.9934 -0.3882
34635SOL     OW 8266   8.441   5.215   1.094 -0.5730  0.4538 -0.0805
34635SOL    HW1 8267   8.488   5.287   1.136 -0.0193 -0.2742  0.5836
34635SOL    HW2 8268   8.507   5.147   1.082 -1.6293 -1.0291  1.9060
34636SOL     OW 8269   8.834   5.285   6.872  0.2334 -0.4078  0.2328
34636SOL    HW1 8270   8.922   5.322   6.860 -0.0750  0.1047 -0.4711
34636SOL    HW2 8271   8.815   5.301   6.965  0.1726  1.0779 -0.0114
34637SOL     OW 8272   0.832   8.601   4.125  0.0443 -0.0070  0.6944
34637SOL    HW1 8273   0.764   8.571   4.065 -1.1779  1.5127  1.2498
34637SOL    HW2 8274   0.890   8.654   4.071  1.2821 -1.9098  0.0591
34638SOL     OW 8275   6.563  10.584   5.539 -0.1718  0.8089  0.2672
34638SOL    HW1 8276   6.641  10.610   5.490  0.0043 -0.0300  0.0855
34638SOL    HW2 8277   6.535  10.502   5.498 -1.3245  1.2523  0.1361
34639SOL     OW 8278   3.675   3.551   3.025 -0.3000  0.1566 -0.0849
34639SOL    HW1 8279   3.604   3.573   3.086 -0.9281  0.0497 -0.7620
34639SOL    HW2 8280   3.685   3.456   3.035 -0.9313  0.0159 -0.6884
34640SOL     OW 8281   5.012  10.178   6.772 -0.4052 -0.4810 -0.2853
34640SOL    HW1 8282   4.958  10.146   6.700  0.5815  0.7615 -1.6577
34640SOL    HW2 8283   4.955  10.175   6.848 -1.3492 -2.2792 -1.0102
34641SOL     OW 8284   3.972   9.802  10.126 -0.1727  0.1888  0.2098
34641SOL    HW1 8285   3.956   9.852  10.046  0.4386  0.8595  0.4936
34641SOL    HW2 8286   3.947   9.712  10.105 -0.6129  0.4815 -0.5325
34642SOL     OW 8287   7.677   8.767   9.899  0.0650  0.2105 -0.0810
34642SOL    HW1 8288   7.734   8.745   9.826  1.1552 -2.0192  1.3156
34642SOL    HW2 8289   7.730   8.821   9.957  1.6425 -3.3107  2.0935
34643SOL     OW 8290   7.184   6.250   5.482 -0.4114 -0.0918 -0.2432
34643SOL    HW1 8291   7.229   6.332   5.459 -0.5791 -0.0461 -0.4149
34643SOL    HW2 8292   7.251   6.183   5.475 -0.7409 -0.2818 -2.1989
34644SOL     OW 8293   4.757   7.079   8.921  0.5551 -0.1262 -0.5092
34644SOL    HW1 8294   4.707   7.149   8.880  0.1313  0.1888  0.4997
34644SOL    HW2 8295   4.818   7.124   8.980 -0.5717 -0.5795  1.1021
34645SOL     OW 8296   0.297   2.945  10.173 -0.4157 -0.1700  0.3829
34645SOL    HW1 8297   0.211   2.926  10.212 -0.2710 -0.0610  0.7569
34645SOL    HW2 8298   0.315   3.035  10.199 -0.7162  0.2051 -0.6745
34646SOL     OW 8299   8.101   5.845   6.290 -0.3387  0.3877 -0.4631
34646SOL    HW1 8300   8.151   5.858   6.210 -0.0205  0.0832 -0.3147
34646SOL    HW2 8301   8.166   5.842   6.359 -0.3859 -1.7204 -0.4512
34647SOL     OW 8302   4.801   6.067   9.625  0.2607  0.4291  0.2750
34647SOL    HW1 8303   4.875   6.128   9.630  1.1932 -0.4502 -1.8129
34647SOL    HW2 8304   4.825   5.996   9.684  0.8631  0.3703 -0.0333
34648SOL     OW 8305   3.937   7.555   1.964 -0.0263 -0.1225  0.1936
34648SOL    HW1 8306   4.009   7.613   1.988 -0.0454  0.4956 -1.1519
34648SOL    HW2 8307   3.860   7.593   2.006  0.2899 -0.3419  0.9892
34649SOL     OW 8308  10.913   5.192   5.082 -0.4380 -0.7388 -0.3778
34649SOL    HW1 8309  10.900   5.113   5.030  1.5394 -2.0135  0.9240
34649SOL    HW2 8310  10.980   5.242   5.034 -0.7214 -0.5078 -0.5312
34650SOL     OW 8311  10.494   3.826   8.888  0.7917  0.1197  0.1830
34650SOL    HW1 8312  10.516   3.776   8.810  0.3041 -1.3736  0.9621
34650SOL    HW2 8313  10.579   3.850   8.926  1.1334 -2.0768  0.9719
34651SOL     OW 8314   8.074   8.574   6.468 -0.4406  0.1733  0.5318
34651SOL    HW1 8315   8.048   8.572   6.560  0.1183  1.3620  0.7405
34651SOL    HW2 8316   8.100   8.484   6.449 -1.7826 -0.3786  1.1514
34652SOL     OW 8317   1.885   9.573   4.418  0.1052  0.0765  0.0071
34652SOL    HW1 8318   1.950   9.620   4.472  0.3651 -0.5403  0.2385
34652SOL    HW2 8319   1.935   9.541   4.343  0.0731 -0.4165  0.1950
34653SOL     OW 8320   2.880   6.183   8.691  0.4380 -0.0517  0.2873
34653SOL    HW1 8321   2.878   6.272   8.656  1.0144  0.8427  2.3466
34653SOL    HW2 8322   2.791   6.149   8.677  0.0172  1.0991  0.0833
34654SOL     OW 8323   2.959   7.162   4.464  0.3804  0.1161  0.2168
34654SOL    HW1 8324   2.995   7.093   4.409 -1.6168 -0.1720 -0.8342
34654SOL    HW2 8325   3.000   7.149   4.550  2.2494 -0.5066 -0.7189
34655SOL     OW 8326   7.723   2.836   0.961 -0.1156  0.4079  0.1514
34655SOL    HW1 8327   7.726   2.740   0.965 -1.3650  0.3858  1.6252
34655SOL    HW2 8328   7.633   2.855   0.933  0.8591  1.1751 -2.9146
34656SOL     OW 8329  10.878   1.179  10.796  0.4974  0.3285 -0.3767
34656SOL    HW1 8330  10.793   1.164  10.837 -0.2856 -0.5299 -2.1991
34656SOL    HW2 8331  10.866   1.258  10.744  1.0230  0.5758 -0.1284
34657SOL     OW 8332   0.521   6.764   6.662 -0.4445 -0.6032 -0.4004
34657SOL    HW1 8333   0.531   6.855   6.689  0.1203 -0.9991  0.8138
34657SOL    HW2 8334   0.533   6.714   6.743 -0.3310 -1.7733 -1.1180
34658SOL     OW 8335   9.901   4.259  10.669  0.2451 -0.0066 -0.0812
34658SOL    HW1 8336   9.909   4.341  10.717 -1.3290  1.5136 -2.1649
34658SOL    HW2 8337   9.833   4.210  10.715  1.9953 -0.7748  1.8559
34659SOL     OW 8338   6.641   3.287   1.409  0.0860 -0.5581 -0.5062
34659SOL    HW1 8339   6.714   3.327   1.457 -0.8409  0.5342  0.0481
34659SOL    HW2 8340   6.671   3.198   1.391  1.3815 -0.2774  0.0843
34660SOL     OW 8341   6.806   8.017   6.600 -0.2919 -0.1620  0.3369
34660SOL    HW1 8342   6.717   8.036   6.628 -1.2939 -0.1107 -2.5774
34660SOL    HW2 8343   6.841   8.101   6.571 -0.0751 -0.5454 -0.5389
34661SOL     OW 8344   8.852   3.652   7.264  0.0175 -0.3762 -0.0621
34661SOL    HW1 8345   8.759   3.675   7.269 -0.4705 -2.0611 -0.6341
34661SOL    HW2 8346   8.865   3.624   7.173  0.6139 -1.9383  0.4602
34662SOL     OW 8347   7.449   3.409   6.562 -0.5074 -0.0193  0.3337
34662SOL    HW1 8348   7.425   3.473   6.494  0.8831  1.2685  0.9869
34662SOL    HW2 8349   7.494   3.339   6.515 -1.2108 -0.0750 -0.2804
34663SOL     OW 8350   7.395   1.097   0.668  0.1099  0.2630 -0.3122
34663SOL    HW1 8351   7.437   1.169   0.715 -0.8793  1.3250 -0.9822
34663SOL    HW2 8352   7.382   1.029   0.734 -0.2905  1.2938  0.7141
34664SOL     OW 8353   6.393   0.518   8.470  0.1780 -0.1304  0.1208
34664SOL    HW1 8354   6.486   0.530   8.489  0.4234 -1.2787 -0.2526
34664SOL    HW2 8355   6.357   0.480   8.550 -0.4447  2.2311  1.0399
34665SOL     OW 8356  10.254   5.708   7.392 -0.1927  0.3739  0.0710
34665SOL    HW1 8357  10.347   5.730   7.399  0.0625 -0.1965 -1.1258
34665SOL    HW2 8358  10.215   5.741   7.472  1.2767 -0.5415  1.2203
34666SOL     OW 8359   7.279   6.275   5.169  0.3843 -0.3713 -0.5533
34666SOL    HW1 8360   7.373   6.260   5.162  0.5426  0.8313 -1.2094
34666SOL    HW2 8361   7.271   6.360   5.212 -0.4677 -1.4971  1.7045
34667SOL     OW 8362   1.400   0.597   3.442  0.0750 -0.3255 -0.1145
34667SOL    HW1 8363   1.354   0.531   3.495 -2.4319 -0.0753 -1.8078
34667SOL    HW2 8364   1.373   0.681   3.479 -0.1848 -0.1897 -0.5977
34668SOL     OW 8365  10.567   6.898   6.015  0.3413 -0.4404  0.0945
34668SOL    HW1 8366  10.520   6.816   6.000  2.5827 -1.9664  1.0610
34668SOL    HW2 8367  10.559   6.913   6.109  1.4342 -0.5082  0.2027
34669SOL     OW 8368  10.910   0.874   8.469  0.1023  0.1499 -0.4137
34669SOL    HW1 8369  10.887   0.950   8.415  0.2729 -0.7232 -1.7401
34669SOL    HW2 8370  10.956   0.815   8.410  1.5103 -0.2604  1.0247
34670SOL     OW 8371   1.586   3.127   8.834  0.0492 -0.4812 -0.2555
34670SOL    HW1 8372   1.495   3.145   8.809  0.1471 -1.2018 -1.1843
34670SOL    HW2 8373   1.632   3.208   8.812 -0.1651 -0.5254 -0.9115
34671SOL     OW 8374  10.902   7.161   7.621  0.4489 -0.0952 -0.1936
34671SOL    HW1 8375  10.837   7.231   7.611  2.2193  1.6956  0.0869
34671SOL    HW2 8376  10.899   7.114   7.537 -1.0895  0.0329 -0.2275
34672SOL     OW 8377   7.198   8.997   1.424  0.1139 -0.0713 -0.0886
34672SOL    HW1 8378   7.216   8.924   1.364  1.2780  0.8878 -0.9434
34672SOL    HW2 8379   7.283   9.018   1.462 -0.3845  0.2281  0.8954
34673SOL     OW 8380   8.449   3.591  10.745  0.0470 -0.0131  0.2760
34673SOL    HW1 8381   8.510   3.663  10.729 -1.2770  0.7706 -1.6604
34673SOL    HW2 8382   8.503   3.512  10.740  1.3620  0.7618  1.5002
34674SOL     OW 8383   5.440   5.253   2.700 -0.9515  0.3745  0.0767
34674SOL    HW1 8384   5.434   5.348   2.709 -1.3321  0.3896 -0.3415
34674SOL    HW2 8385   5.525   5.231   2.738 -1.6596  0.6592  1.9599
34675SOL     OW 8386   6.289  10.713   8.004  0.2327  0.2402  0.2283
34675SOL    HW1 8387   6.217  10.761   8.046 -0.3393  0.0607 -0.5346
34675SOL    HW2 8388   6.354  10.780   7.985  0.8431  0.2318  2.0507
34676SOL     OW 8389  10.751   4.500   8.971 -0.0599  0.3676  0.4228
34676SOL    HW1 8390  10.830   4.446   8.966 -0.6274 -1.2583  4.7681
34676SOL    HW2 8391  10.679   4.437   8.967 -1.3011  1.7488 -2.5906
34677SOL     OW 8392   1.642  10.868   6.302  0.4140 -0.5328 -0.0539
34677SOL    HW1 8393   1.714  10.911   6.347  2.0694 -1.3151 -1.8432
34677SOL    HW2 8394   1.627  10.787   6.351  0.1791  0.0194  0.8032
34678SOL     OW 8395   7.608   1.899   0.221  0.0963  0.6058 -0.4568
34678SOL    HW1 8396   7.578   1.848   0.296  1.9595 -0.0911 -0.1362
34678SOL    HW2 8397   7.640   1.834   0.159  1.0700  1.3107 -0.7071
34679SOL     OW 8398   1.574   9.920   1.835  0.1699  0.3821  0.1078
34679SOL    HW1 8399   1.666   9.910   1.860  0.0300  2.3711  1.6235
34679SOL    HW2 8400   1.574   9.995   1.776 -0.6028  1.1416  1.0447
34680SOL     OW 8401   9.524   8.201   4.873  0.1349  0.1339  0.0611
34680SOL    HW1 8402   9.552   8.144   4.944  0.2021 -1.4521 -1.1786
34680SOL    HW2 8403   9.445   8.160   4.838  0.5717  0.4004 -1.2978
34681SOL     OW 8404   0.579   8.105   9.705  0.3159 -0.0187 -0.2634
34681SOL    HW1 8405   0.623   8.126   9.623 -1.4798  0.1636 -1.2144
34681SOL    HW2 8406   0.558   8.190   9.743 -0.4396 -0.0998 -0.4974
34682SOL     OW 8407   2.466   8.827   6.301  0.0615  0.1127 -0.8446
34682SOL    HW1 8408   2.506   8.890   6.241 -0.4783 -0.3297 -1.6968
34682SOL    HW2 8409   2.442   8.753   6.244 -0.9670 -0.0829 -0.1778
34683SOL     OW 8410   4.511   9.723   1.721 -0.0812  0.6871 -0.4905
34683SOL    HW1 8411   4.600   9.758   1.719  0.4299 -0.5780 -1.1869
34683SOL    HW2 8412   4.494   9.707   1.814  0.3636  1.0478 -0.3398
34684SOL     OW 8413  10.215   6.516   5.774 -0.0518 -0.1174 -0.2907
34684SOL    HW1 8414  10.214   6.559   5.859 -0.4973  0.7473 -0.7150
34684SOL    HW2 8415  10.273   6.571   5.720 -1.5330  0.6624 -1.1678
34685SOL     OW 8416   2.507   7.672  10.789 -0.2032  0.1158 -0.0376
34685SOL    HW1 8417   2.480   7.689  10.699 -0.4966 -0.2445 -0.0181
34685SOL    HW2 8418   2.550   7.587  10.786 -1.7499 -0.7262  0.4581
34686SOL     OW 8419  10.877   2.787  10.220  0.2888  0.1628 -0.2447
34686SOL    HW1 8420  10.935   2.823  10.153  2.4184  0.5810  1.7056
34686SOL    HW2 8421  10.791   2.787  10.179  1.1081  2.4484 -2.2265
34687SOL     OW 8422   1.793   3.659   5.205 -0.0338 -0.0537 -0.2550
34687SOL    HW1 8423   1.765   3.745   5.175  1.7754  0.7023  0.1078
34687SOL    HW2 8424   1.869   3.637   5.151  0.2812 -0.8544  0.4706
34688SOL     OW 8425   1.010   1.633   2.048 -1.0895  0.1824  0.1124
34688SOL    HW1 8426   1.018   1.591   1.962  0.2470 -1.0556  0.8006
34688SOL    HW2 8427   0.984   1.562   2.107 -1.8920  0.9974  0.7726
34689SOL     OW 8428   2.788   7.603  10.376  0.5726  0.0944 -0.1434
34689SOL    HW1 8429   2.858   7.538  10.365  0.2979 -0.2065 -0.1198
34689SOL    HW2 8430   2.830   7.676  10.420  0.6091 -0.5528  0.9228
34690SOL     OW 8431   1.582   8.206   1.465  0.2187  0.6961 -0.1181
34690SOL    HW1 8432   1.657   8.162   1.506  1.5335  0.3686 -2.6996
34690SOL    HW2 8433   1.525   8.134   1.438  0.9050  0.6783 -1.6219
34691SOL     OW 8434   7.084   1.126   0.686  0.0441  0.3327 -0.0861
34691SOL    HW1 8435   7.095   1.034   0.710  0.1349 -0.3828 -2.6193
34691SOL    HW2 8436   7.173   1.160   0.680  0.0978  0.0861 -0.8234
34692SOL     OW 8437   7.285   7.476  10.041 -0.0350 -0.2233 -0.6578
34692SOL    HW1 8438   7.244   7.552   9.999  3.0981  2.0610  0.0252
34692SOL    HW2 8439   7.375   7.477  10.008  0.9036 -1.9040  1.6238
34693SOL     OW 8440   0.141   3.391   6.116  0.1216  0.0550  0.1222
34693SOL    HW1 8441   0.074   3.451   6.086 -0.3757 -0.4559  0.2019
34693SOL    HW2 8442   0.215   3.448   6.140 -0.9733  0.7746  1.9135
34694SOL     OW 8443   4.273   9.631   5.087  0.3955 -0.4339  0.2617
34694SOL    HW1 8444   4.327   9.566   5.040 -0.4461 -0.9085 -0.0721
34694SOL    HW2 8445   4.246   9.585   5.167 -1.3122 -1.0170 -0.6004
34695SOL     OW 8446   6.130   7.814   0.990 -0.0960  0.2492 -0.1229
34695SOL    HW1 8447   6.182   7.883   0.950  0.2596  0.4448  0.6652
34695SOL    HW2 8448   6.083   7.857   1.062  0.5278 -0.4215  0.7091
34696SOL     OW 8449   7.891   9.171   3.745 -0.4609 -0.6824  0.3858
34696SOL    HW1 8450   7.817   9.113   3.729 -0.7606 -0.1051 -0.3360
34696SOL    HW2 8451   7.961   9.136   3.690 -0.9522  0.2266 -0.8753
34697SOL     OW 8452   2.091   1.769   3.598 -0.1073 -0.2048  0.3134
34697SOL    HW1 8453   2.058   1.681   3.580 -1.1335  0.1847  0.2433
34697SOL    HW2 8454   2.158   1.784   3.530 -0.9979 -0.3566 -0.6230
34698SOL     OW 8455   7.877   4.179   7.598  0.1953  0.1847  0.2794
34698SOL    HW1 8456   7.938   4.163   7.671  0.3592 -1.2217 -0.1416
34698SOL    HW2 8457   7.925   4.151   7.520  0.0403  1.7297 -0.4021
34699SOL     OW 8458   5.139   4.773   9.274  0.3815  0.0512  0.3214
34699SOL    HW1 8459   5.081   4.819   9.212 -0.0855 -0.9605 -0.0162
34699SOL    HW2 8460   5.169   4.696   9.225 -1.2030 -1.6121  1.8091
34700SOL     OW 8461   7.991   5.851   8.567  0.3372 -0.1399 -0.0350
34700SOL    HW1 8462   8.075   5.875   8.605  0.2006 -0.7608  0.6886
34700SOL    HW2 8463   8.004   5.762   8.534  1.0524  1.0425 -3.3098
34701SOL     OW 8464   9.872   1.535   3.428 -0.0643  0.4394  0.4361
34701SOL    HW1 8465   9.846   1.470   3.494 -0.2155  1.2621  1.2178
34701SOL    HW2 8466   9.793   1.549   3.376 -0.9899  2.1997  2.1828
34702SOL     OW 8467   7.514   6.500   7.057  0.5431 -0.3689  0.2706
34702SOL    HW1 8468   7.499   6.461   6.971  0.7615  0.1099  0.0089
34702SOL    HW2 8469   7.532   6.426   7.114 -0.7392 -0.7912  0.1586
34703SOL     OW 8470   2.310   6.111   0.441  0.1009 -0.5966 -0.0338
34703SOL    HW1 8471   2.215   6.114   0.445  0.1158 -0.9159  0.8258
34703SOL    HW2 8472   2.332   6.152   0.358 -0.8346 -1.4646 -0.7320
34704SOL     OW 8473   1.058  10.235   1.383  0.5133  0.1924 -0.2890
34704SOL    HW1 8474   0.977  10.198   1.348  0.8409  0.5707 -1.4976
34704SOL    HW2 8475   1.122  10.225   1.312  1.3951  0.3518  0.4633
34705SOL     OW 8476   1.224  11.096   8.006 -0.0570 -0.4529 -0.0521
34705SOL    HW1 8477   1.236  11.119   8.098 -0.4955 -1.1420  0.1869
34705SOL    HW2 8478   1.273  11.014   7.995 -0.9197 -0.9662 -0.1426
34706SOL     OW 8479   9.626   5.496   3.145  0.5959  0.1634 -0.2241
34706SOL    HW1 8480   9.634   5.430   3.214  2.2398  0.3134 -0.2135
34706SOL    HW2 8481   9.697   5.558   3.163  1.2598  0.0565 -2.1832
34707SOL     OW 8482  11.028   4.401   7.254 -0.0199  0.4144  0.5640
34707SOL    HW1 8483  10.996   4.414   7.343  1.2966 -0.0258  1.1284
34707SOL    HW2 8484  11.040   4.490   7.220  1.0226  0.6288  1.4254
34708SOL     OW 8485   4.094  10.326  10.169  0.1604  0.0854  0.5765
34708SOL    HW1 8486   4.188  10.331  10.185  0.4896 -0.5397 -0.9928
34708SOL    HW2 8487   4.075  10.232  10.175 -0.0032  0.0119 -0.9193
34709SOL     OW 8488   0.553   4.924  10.224  1.0272 -0.1025 -0.0908
34709SOL    HW1 8489   0.601   4.876  10.157  1.7494 -0.8154  0.9117
34709SOL    HW2 8490   0.501   4.858  10.269  1.1350  0.2386  0.5487
34710SOL     OW 8491   8.482   4.359   9.766  0.2066 -0.4126 -0.2875
34710SOL    HW1 8492   8.533   4.397   9.694 -0.1861 -1.6888 -1.2884
34710SOL    HW2 8493   8.544   4.304   9.813 -0.0920 -1.6224 -1.2456
34711SOL     OW 8494   9.426   2.881  10.211  0.5327  0.3073 -0.2078
34711SOL    HW1 8495   9.412   2.786  10.206  0.6490  0.1031  2.0072
34711SOL    HW2 8496   9.516   2.890  10.243  0.7347  1.2058 -0.9817
34712SOL     OW 8497   8.166  10.452  10.164 -0.1483  0.8050  0.2329
34712SOL    HW1 8498   8.237  10.387  10.159 -0.7589  0.2314 -1.9152
34712SOL    HW2 8499   8.086  10.400  10.169 -0.5347  1.4315  0.6791
34713SOL     OW 8500   6.370   5.575   3.433  0.0023 -0.2071  0.2862
34713SOL    HW1 8501   6.352   5.534   3.517 -1.6726  0.2469  0.1882
34713SOL    HW2 8502   6.344   5.666   3.445  2.5187  0.6103  0.1370
34714SOL     OW 8503   6.269   9.874  10.455 -0.2605  0.3441 -0.0088
34714SOL    HW1 8504   6.237   9.843  10.540 -3.2834 -0.4900 -1.3268
34714SOL    HW2 8505   6.303   9.795  10.413 -0.3683  0.4160 -0.2295
34715SOL     OW 8506   9.203   1.886   1.911 -0.8753  0.1262 -0.0720
34715SOL    HW1 8507   9.153   1.804   1.908 -0.1503 -0.3188 -0.2385
34715SOL    HW2 8508   9.188   1.921   1.999  0.5813 -1.3338  0.8128
34716SOL     OW 8509   9.131   5.376   9.729  0.2945 -0.8584 -0.2520
34716SOL    HW1 8510   9.058   5.390   9.789  0.6912  0.8840 -0.1044
34716SOL    HW2 8511   9.208   5.367   9.785  0.6162  0.4283 -0.4418
34717SOL     OW 8512   6.918   6.556   6.929  0.5474  0.0984 -0.0611
34717SOL    HW1 8513   6.859   6.531   7.000  0.8778  0.6811  0.4311
34717SOL    HW2 8514   6.866   6.548   6.850  0.3997 -1.3189  0.1613
34718SOL     OW 8515   6.809   3.202   6.612 -0.0076 -0.1861  0.0802
34718SOL    HW1 8516   6.823   3.204   6.517 -1.3225  0.4546 -0.1142
34718SOL    HW2 8517   6.874   3.265   6.646  0.9410 -0.9259 -0.3020
34719SOL     OW 8518   2.552   6.956   1.419 -0.2247 -0.2578 -0.5049
34719SOL    HW1 8519   2.624   7.013   1.391 -0.6008  0.2753 -0.4134
34719SOL    HW2 8520   2.535   6.899   1.344 -1.7548  1.6721 -1.7472
34720SOL     OW 8521   7.236   4.075   9.201  0.0207 -0.2504 -0.6530
34720SOL    HW1 8522   7.156   4.127   9.197  0.0264 -0.2330 -0.5617
34720SOL    HW2 8523   7.208   3.992   9.241  0.0600 -0.2211 -0.5655
34721SOL     OW 8524   7.586   7.736   9.368 -0.1512  0.0955 -0.2506
34721SOL    HW1 8525   7.667   7.755   9.322 -0.5371  0.0730 -0.9435
34721SOL    HW2 8526   7.530   7.693   9.303 -0.2607 -1.0293  0.5613
34722SOL     OW 8527   4.287   0.245   5.407 -0.0517 -0.4363 -0.1512
34722SOL    HW1 8528   4.212   0.245   5.349 -1.2201  0.4680  1.2870
34722SOL    HW2 8529   4.362   0.260   5.350 -1.5079  5.5502 -1.1128
34723SOL     OW 8530   4.008   0.351   7.295  0.7083 -0.2124  0.6080
34723SOL    HW1 8531   4.078   0.290   7.272 -1.7324 -2.7337 -0.7402
34723SOL    HW2 8532   3.957   0.304   7.361  0.0350  1.3912  1.2597
34724SOL     OW 8533   8.864  10.520  10.516  0.1512  0.9679  0.7114
34724SOL    HW1 8534   8.930  10.525  10.585 -1.1613  0.5038  2.0424
34724SOL    HW2 8535   8.842  10.427  10.510 -1.5295  1.2781  1.4526
34725SOL     OW 8536   7.924   9.368   9.287  0.5650 -0.3347  0.1516
34725SOL    HW1 8537   7.904   9.376   9.193 -1.7725 -1.7632  0.4203
34725SOL    HW2 8538   7.983   9.293   9.293  1.6166  0.4436 -0.2387
34726SOL     OW 8539   9.615   3.124   2.218  0.1186 -0.1326 -0.5304
34726SOL    HW1 8540   9.701   3.153   2.247  0.3644 -0.4554 -0.9249
34726SOL    HW2 8541   9.624   3.111   2.123 -1.1589  2.7564 -1.1654
34727SOL     OW 8542   8.215   7.894   5.431  0.1423 -0.2728  0.6714
34727SOL    HW1 8543   8.135   7.945   5.417  0.0823 -0.6878 -0.7023
34727SOL    HW2 8544   8.190   7.803   5.413  0.7774 -0.4812  0.7878
34728SOL     OW 8545   5.432   2.394   8.906  1.0053  0.1171 -0.6408
34728SOL    HW1 8546   5.479   2.379   8.988  0.7257 -0.2239 -0.5380
34728SOL    HW2 8547   5.481   2.463   8.862  0.5702  1.0445  0.2884
34729SOL     OW 8548   6.151   6.410   8.451 -0.3156 -0.0351 -0.2648
34729SOL    HW1 8549   6.231   6.456   8.476  0.6640 -1.5227 -0.4949
34729SOL    HW2 8550   6.086   6.437   8.515  0.4946  0.8352  0.2178
34730SOL     OW 8551   7.326   4.132   4.839  0.4247  0.4263 -0.2234
34730SOL    HW1 8552   7.406   4.183   4.827  0.7254  0.4542  1.6027
34730SOL    HW2 8553   7.329   4.106   4.931  0.3015 -2.9046 -1.0488
34731SOL     OW 8554   3.103   1.651   5.335  0.2094  0.1626  0.0410
34731SOL    HW1 8555   3.120   1.742   5.358  2.8140  0.1888 -1.6310
34731SOL    HW2 8556   3.078   1.653   5.243 -3.2439 -0.5785  0.8215
34732SOL     OW 8557   2.903   6.418   3.665 -0.0819  0.0446  0.5216
34732SOL    HW1 8558   2.880   6.502   3.625 -0.2225  0.5610  1.6701
34732SOL    HW2 8559   2.998   6.411   3.651 -0.5093 -1.1786 -2.4749
34733SOL     OW 8560   5.976   4.961   2.552 -0.1672 -0.1977  0.4236
34733SOL    HW1 8561   6.068   4.947   2.529 -0.3444  1.3850 -1.5740
34733SOL    HW2 8562   5.975   4.961   2.647  1.4840 -2.5630  0.5363
34734SOL     OW 8563  10.241   6.582   7.964  0.2144  0.0303 -0.1834
34734SOL    HW1 8564  10.318   6.571   7.908  0.0047  0.3742 -0.5498
34734SOL    HW2 8565  10.269   6.552   8.050  1.0378  0.9789 -0.1027
34735SOL     OW 8566   5.453   6.142   6.129 -0.2402 -0.2994  0.3180
34735SOL    HW1 8567   5.485   6.232   6.140 -0.8113 -0.2560  1.8504
34735SOL    HW2 8568   5.386   6.149   6.061 -0.1520  0.4039  0.2949
34736SOL     OW 8569  10.081   0.758   4.535 -0.0408 -0.1646  0.1671
34736SOL    HW1 8570  10.094   0.750   4.441 -0.2739  1.6505 -0.0481
34736SOL    HW2 8571  10.112   0.846   4.556  3.4179 -1.6507  2.3894
34737SOL     OW 8572   7.324   9.050   9.001  0.0573  0.6019 -0.4346
34737SOL    HW1 8573   7.286   9.111   9.065 -0.5780  0.6930 -0.8900
34737SOL    HW2 8574   7.320   9.097   8.918 -0.4723 -0.0724 -0.8010
34738SOL     OW 8575   3.002   7.281   2.623 -0.0269  0.4762  0.1590
34738SOL    HW1 8576   2.912   7.249   2.629 -0.3172  1.2320  0.0187
34738SOL    HW2 8577   3.014   7.333   2.702  0.5981 -0.3380  0.6193
34739SOL     OW 8578   1.954   2.336   5.454  0.1837 -0.2823 -0.1755
34739SOL    HW1 8579   1.859   2.332   5.441  0.3242  0.3356 -1.5622
34739SOL    HW2 8580   1.977   2.428   5.438  1.0149 -0.4006  0.2545
34740SOL     OW 8581   7.448   4.783   5.160  0.1637  0.2352  0.2235
34740SOL    HW1 8582   7.503   4.839   5.105 -0.8898  1.6688  0.5782
34740SOL    HW2 8583   7.358   4.801   5.132 -0.2402 -0.9976  0.6283
34741SOL     OW 8584   5.570   7.717   5.202  0.1895  0.2520  0.2549
34741SOL    HW1 8585   5.661   7.732   5.176  0.8331 -0.7409  1.7964
34741SOL    HW2 8586   5.562   7.764   5.285 -0.5229 -0.1761  0.4296
34742SOL     OW 8587   7.268   1.861   3.649 -0.0265  0.2107 -0.0236
34742SOL    HW1 8588   7.266   1.898   3.561 -0.7829 -0.5008 -0.3214
34742SOL    HW2 8589   7.354   1.885   3.683  0.3639  0.3121 -1.0435
34743SOL     OW 8590   0.060   9.167   2.850 -0.9097  0.4576  0.4802
34743SOL    HW1 8591   0.104   9.152   2.934  0.3822  1.1451 -0.0509
34743SOL    HW2 8592  -0.030   9.191   2.875 -0.4980  0.8618  1.6742
34744SOL     OW 8593   1.164  10.138   5.034  0.1328 -0.3281  0.1104
34744SOL    HW1 8594   1.162  10.161   5.127  2.4938 -0.4333  0.2546
34744SOL    HW2 8595   1.257  10.147   5.009 -0.5729  0.7342 -2.5044
34745SOL     OW 8596   8.937   0.132   3.518  0.4841  0.0302 -0.0868
34745SOL    HW1 8597   8.954   0.042   3.491 -0.6314 -0.2775  0.1970
34745SOL    HW2 8598   8.975   0.186   3.449 -0.3892 -0.7032 -1.1668
34746SOL     OW 8599   8.447   6.112   8.941 -0.3556  0.7283 -0.6450
34746SOL    HW1 8600   8.406   6.119   8.855  0.2544 -0.5167 -1.0579
34746SOL    HW2 8601   8.535   6.147   8.929  0.6028 -1.6911 -1.2020
34747SOL     OW 8602   2.527   8.028   9.669 -0.2093  0.1756  0.1569
34747SOL    HW1 8603   2.577   7.956   9.631  0.7458  0.9632 -0.1131
34747SOL    HW2 8604   2.548   8.026   9.762 -1.6085 -1.0008  0.4860
34748SOL     OW 8605   3.904   0.749   6.810 -0.4438  0.3048 -0.5608
34748SOL    HW1 8606   3.858   0.742   6.726 -0.4626 -0.3371 -0.4992
34748SOL    HW2 8607   3.834   0.766   6.874 -0.5471 -0.2201 -0.5315
34749SOL     OW 8608   1.585   0.639   7.240  0.1442 -0.1105 -0.5491
34749SOL    HW1 8609   1.506   0.611   7.192 -0.2249 -1.1444  0.6052
34749SOL    HW2 8610   1.555   0.708   7.299  0.2834  0.0934 -0.7152
34750SOL     OW 8611   1.091  10.595   8.382 -0.0492  0.6477  0.3180
34750SOL    HW1 8612   1.113  10.514   8.336 -0.2674  0.9344 -0.3032
34750SOL    HW2 8613   1.110  10.576   8.474  1.4728  0.4364 -0.0151
34751SOL     OW 8614   8.634   6.796   7.621  0.0401 -0.2476 -0.2333
34751SOL    HW1 8615   8.603   6.870   7.673  0.1722 -1.3603  1.5077
34751SOL    HW2 8616   8.680   6.836   7.547 -1.2799  1.3940 -0.2132
34752SOL     OW 8617   2.313   5.182   3.925  0.4068  0.1582  0.2019
34752SOL    HW1 8618   2.295   5.238   3.850 -0.9478 -0.7085 -0.1655
34752SOL    HW2 8619   2.352   5.240   3.990  1.0226  1.0504 -0.9291
34753SOL     OW 8620  11.088   0.861   0.236 -0.0750 -0.1062  0.2250
34753SOL    HW1 8621  11.180   0.887   0.240 -0.2713  0.7349 -0.4257
34753SOL    HW2 8622  11.075   0.807   0.314  1.1549 -0.8622 -0.0513
34754SOL     OW 8623   7.286   0.636   3.024  0.4603  0.5298  0.0985
34754SOL    HW1 8624   7.228   0.688   2.968  0.2958  0.6101  0.3445
34754SOL    HW2 8625   7.358   0.696   3.045  0.7883  0.3421 -0.4429
34755SOL     OW 8626   0.944   5.617   7.141  0.2063  0.1272  0.5175
34755SOL    HW1 8627   1.031   5.645   7.114  0.1138  0.2823  0.3764
34755SOL    HW2 8628   0.890   5.695   7.133  0.0416  0.0178  0.5493
34756SOL     OW 8629   8.008  10.354   5.096  0.1736 -0.1882  0.1197
34756SOL    HW1 8630   7.978  10.263   5.091  1.5476 -0.6737  0.3782
34756SOL    HW2 8631   7.992  10.379   5.187 -0.5543 -0.0259 -0.0423
34757SOL     OW 8632   1.531  10.045   5.681  0.1939  0.2419  0.3894
34757SOL    HW1 8633   1.620  10.072   5.701  0.3392  0.2959 -0.3207
34757SOL    HW2 8634   1.509   9.982   5.750  0.4888  0.8168  1.0192
34758SOL     OW 8635   1.839   2.986   6.825  0.1179  0.0820  0.6373
34758SOL    HW1 8636   1.828   2.893   6.843 -0.0045 -0.3521 -1.4569
34758SOL    HW2 8637   1.752   3.023   6.835  0.4298  0.3395  3.0582
34759SOL     OW 8638   4.744   6.861   8.639 -0.3708  0.1273  0.0652
34759SOL    HW1 8639   4.708   6.782   8.598  0.4088 -0.4241  0.3981
34759SOL    HW2 8640   4.772   6.831   8.726 -0.7862  0.9586  0.4908
34760SOL     OW 8641   8.206   7.310   8.724  0.0387  0.0044  0.1051
34760SOL    HW1 8642   8.112   7.304   8.708  0.1761 -1.6982 -0.2908
34760SOL    HW2 8643   8.219   7.398   8.760 -1.8295 -0.0548  1.0619
34761SOL     OW 8644   0.838   5.666   8.599  0.0842 -0.7918 -0.1170
34761SOL    HW1 8645   0.897   5.666   8.675 -0.8853  0.0672  0.6719
34761SOL    HW2 8646   0.888   5.624   8.530  0.7181 -2.3565  1.2250
34762SOL     OW 8647   5.353   0.871   7.749  0.3763 -0.3649  0.6639
34762SOL    HW1 8648   5.298   0.794   7.762  0.9805 -0.6664  1.4360
34762SOL    HW2 8649   5.375   0.869   7.656 -1.4875  0.1544  0.1495
34763SOL     OW 8650   4.161   0.985   5.833  0.3010 -0.6970  0.1256
34763SOL    HW1 8651   4.245   0.989   5.879  0.7356 -1.5778 -0.5697
34763SOL    HW2 8652   4.169   0.910   5.774 -1.1495 -1.1081  0.3958
34764SOL     OW 8653   2.400   1.652   5.271 -0.2056  0.2214  0.2398
34764SOL    HW1 8654   2.306   1.633   5.276 -0.0213 -0.6750  0.4668
34764SOL    HW2 8655   2.433   1.630   5.358  0.2961  0.0674  0.0117
34765SOL     OW 8656   9.964   1.188   9.674 -0.0398 -0.2100 -0.2650
34765SOL    HW1 8657   9.919   1.243   9.611  1.2024  1.2700  0.0707
34765SOL    HW2 8658   9.898   1.126   9.704 -1.2660  0.5607 -1.2830
34766SOL     OW 8659   9.761   4.768   6.064 -0.8007  0.4565 -0.4847
34766SOL    HW1 8660   9.702   4.823   6.116 -0.6109 -0.0711  0.3211
34766SOL    HW2 8661   9.844   4.771   6.112 -0.6538 -0.1381 -0.6911
34767SOL     OW 8662   7.834   8.478   9.257 -0.0691  0.5334 -0.0231
34767SOL    HW1 8663   7.738   8.486   9.254 -0.2253 -0.2196  1.6509
34767SOL    HW2 8664   7.863   8.500   9.169 -1.5924  3.1414  0.0049
34768SOL     OW 8665   9.522   8.274   2.790  0.5344 -0.4262  0.0895
34768SOL    HW1 8666   9.471   8.218   2.732  0.0489 -0.6089  0.6742
34768SOL    HW2 8667   9.603   8.227   2.806  0.8864 -0.1569 -0.8124
34769SOL     OW 8668   1.006   1.144   1.133  0.1677  0.5662  0.1521
34769SOL    HW1 8669   1.036   1.215   1.076  0.2657 -1.4596 -2.4618
34769SOL    HW2 8670   0.911   1.140   1.118  0.1679  0.1178  0.2582
34770SOL     OW 8671   5.209   4.509   3.499 -0.6672 -0.0720  0.1549
34770SOL    HW1 8672   5.177   4.454   3.570 -0.1345  1.1819  1.4221
34770SOL    HW2 8673   5.129   4.536   3.452 -1.0049 -1.0722  0.1275
34771SOL     OW 8674   0.560   6.272   3.097 -0.2481  0.1826 -0.4059
34771SOL    HW1 8675   0.519   6.187   3.081 -0.4236  0.3282 -0.7327
34771SOL    HW2 8676   0.632   6.277   3.035  0.7584 -0.4031  0.6973
34772SOL     OW 8677   7.423   4.068   8.219 -0.0454 -0.6285 -0.0348
34772SOL    HW1 8678   7.433   4.122   8.141 -0.0468 -3.0631 -1.8262
34772SOL    HW2 8679   7.466   3.986   8.196 -1.0140 -1.8095  2.1458
34773SOL     OW 8680   4.927   8.658   3.924 -0.4822 -0.0677  0.1365
34773SOL    HW1 8681   4.923   8.596   3.851 -0.4285  0.2277 -0.1182
34773SOL    HW2 8682   4.898   8.741   3.887  0.2176  0.2465  0.2725
34774SOL     OW 8683   5.079   8.928   6.145  0.5740 -0.0971  0.2026
34774SOL    HW1 8684   4.994   8.970   6.159  1.4436  1.4167  1.1681
34774SOL    HW2 8685   5.093   8.874   6.223  0.0884 -1.1295 -0.4024
34775SOL     OW 8686   7.457   9.680   9.544 -0.0327 -0.0295  0.0594
34775SOL    HW1 8687   7.421   9.674   9.633 -0.0150 -0.1855  0.0560
34775SOL    HW2 8688   7.396   9.737   9.498  1.3019  2.1761  0.8585
34776SOL     OW 8689   2.385   2.466   8.067  0.3185  0.1583 -0.0603
34776SOL    HW1 8690   2.377   2.376   8.098  4.0161 -0.3846 -0.1504
34776SOL    HW2 8691   2.477   2.489   8.084  0.0199  3.2588 -1.8055
34777SOL     OW 8692   2.041   3.311   9.468 -0.2606 -0.7407  0.2337
34777SOL    HW1 8693   2.118   3.277   9.513 -0.3906 -0.8227  0.3944
34777SOL    HW2 8694   2.076   3.354   9.390  0.1396  1.1843  1.4163
34778SOL     OW 8695  10.295   7.515   4.226 -0.2460 -0.5430  0.1463
34778SOL    HW1 8696  10.305   7.440   4.168 -0.8010  0.7800 -1.7864
34778SOL    HW2 8697  10.216   7.559   4.194  0.0285  0.8104  1.2488
34779SOL     OW 8698  10.358   0.503   6.559 -0.1840  0.5162  0.0080
34779SOL    HW1 8699  10.329   0.489   6.649 -3.2162 -0.4979 -1.0095
34779SOL    HW2 8700  10.286   0.551   6.518  1.4362  1.5980 -1.7417
34780SOL     OW 8701   6.316   1.541   2.352  0.0980  0.2962 -0.3442
34780SOL    HW1 8702   6.241   1.539   2.411  0.4070 -1.0634  0.0475
34780SOL    HW2 8703   6.391   1.558   2.409  0.0462  2.3550 -0.8251
34781SOL     OW 8704   3.597   3.005  10.396  0.5167  0.0461 -0.1628
34781SOL    HW1 8705   3.637   2.944  10.457 -0.1494  0.9055  1.1787
34781SOL    HW2 8706   3.602   3.090  10.440 -2.8973  0.1777  0.1735
34782SOL     OW 8707   9.565   5.699   2.852  0.0350  0.7047  0.5419
34782SOL    HW1 8708   9.524   5.713   2.766  1.0705  0.3755 -0.0203
34782SOL    HW2 8709   9.544   5.778   2.901 -1.3468  0.5163  0.3108
34783SOL     OW 8710   4.872   2.317   2.562 -0.2521  0.1422 -0.0642
34783SOL    HW1 8711   4.784   2.314   2.526 -0.5769 -0.2687  0.7551
34783SOL    HW2 8712   4.868   2.264   2.642  1.1178 -1.1634 -0.8208
34784SOL     OW 8713   1.799   3.861   0.750 -0.3264  0.1141 -0.4512
34784SOL    HW1 8714   1.888   3.862   0.785 -0.4757 -1.8011  0.0735
34784SOL    HW2 8715   1.743   3.864   0.827 -0.6623 -2.0743 -0.5604
34785SOL     OW 8716   9.407  10.839   1.461 -0.1954  0.1867 -0.7809
34785SOL    HW1 8717   9.372  10.753   1.439  2.3123 -0.9723 -0.5233
34785SOL    HW2 8718   9.366  10.860   1.545 -1.4025 -0.3934 -1.2021
34786SOL     OW 8719   6.450   9.887   5.725 -0.3181 -0.1130  0.6922
34786SOL    HW1 8720   6.496   9.803   5.724  1.0993  0.5970  1.9620
34786SOL    HW2 8721   6.515   9.949   5.757 -1.8768  1.1435  1.5318
34787SOL     OW 8722   0.513   1.512   0.137 -0.8442 -0.8584  0.0103
34787SOL    HW1 8723   0.568   1.590   0.133 -0.5913 -1.0579 -0.3863
34787SOL    HW2 8724   0.426   1.545   0.162 -1.1978 -0.2185 -1.9180
34788SOL     OW 8725   1.548   0.782   5.130  0.4860 -0.4394 -0.1344
34788SOL    HW1 8726   1.564   0.874   5.107 -1.5397 -0.4773 -2.0470
34788SOL    HW2 8727   1.497   0.748   5.057  0.4566 -2.8763  0.9437
34789SOL     OW 8728   3.907   1.719   2.351 -0.3216  0.9205  0.1362
34789SOL    HW1 8729   3.961   1.644   2.324  0.6547  1.7025 -0.1658
34789SOL    HW2 8730   3.830   1.714   2.294  0.1571  0.6453 -0.5080
34790SOL     OW 8731   2.521  10.705   5.407  0.0843  0.4399 -0.1416
34790SOL    HW1 8732   2.584  10.634   5.409 -0.7919 -0.3924 -1.0156
34790SOL    HW2 8733   2.450  10.677   5.465 -0.5422  0.3080 -0.9492
34791SOL     OW 8734   3.298   0.852   4.591  0.0130  0.0034 -0.4131
34791SOL    HW1 8735   3.327   0.895   4.511  0.6424 -0.4115 -0.4170
34791SOL    HW2 8736   3.290   0.759   4.567 -2.0659  0.1787 -0.6171
34792SOL     OW 8737   2.910   0.109   1.545 -0.3282  0.2983  0.3053
34792SOL    HW1 8738   2.942   0.194   1.574  0.7773  1.0834 -2.8783
34792SOL    HW2 8739   2.989   0.060   1.523 -1.0407  0.2366 -2.4007
34793SOL     OW 8740   9.709   8.877   3.186  0.2234  0.1324  0.2748
34793SOL    HW1 8741   9.720   8.783   3.166  0.4273  0.0357  0.8356
34793SOL    HW2 8742   9.621   8.883   3.225 -0.4103  0.4049 -1.1134
34794SOL     OW 8743   1.323  10.635  11.008  0.0097 -0.0483  0.0721
34794SOL    HW1 8744   1.262  10.577  11.055 -2.7070  1.9149 -0.7930
34794SOL    HW2 8745   1.334  10.594  10.923  0.0558 -0.5269  0.3036
34795SOL     OW 8746   0.577  10.494   7.968 -0.3549  0.6110  0.3051
34795SOL    HW1 8747   0.579  10.589   7.957  1.0377  0.6983  1.0438
34795SOL    HW2 8748   0.614  10.479   8.056  0.6053 -0.6622 -0.2819
34796SOL     OW 8749   2.455   2.126   7.445 -0.0991  0.2875 -0.7851
34796SOL    HW1 8750   2.441   2.120   7.539  0.2785  1.4595 -0.6400
34796SOL    HW2 8751   2.402   2.200   7.417  0.8495  0.8055 -1.2647
34797SOL     OW 8752   8.475   5.776   8.177 -0.1924 -0.9965  0.0484
34797SOL    HW1 8753   8.424   5.806   8.252  0.5575 -1.1677  0.6340
34797SOL    HW2 8754   8.435   5.820   8.102 -1.5644 -1.5528  0.4091
34798SOL     OW 8755   2.316   7.097   5.406 -0.6592  0.5010 -0.6995
34798SOL    HW1 8756   2.339   7.181   5.368  0.2794  0.1777 -0.8582
34798SOL    HW2 8757   2.308   7.114   5.500 -0.3927  0.7498 -0.7233
34799SOL     OW 8758   1.161   8.521   3.287 -0.0524  0.1616  0.0886
34799SOL    HW1 8759   1.146   8.595   3.346 -1.6557  0.0221 -0.0876
34799SOL    HW2 8760   1.073   8.486   3.269  0.6996 -2.3283  0.8262
34800SOL     OW 8761   6.295   6.004   3.106 -0.6389 -0.0528 -0.0180
34800SOL    HW1 8762   6.364   5.938   3.110  1.2697  1.7995 -0.4327
34800SOL    HW2 8763   6.277   6.014   3.013 -1.8171 -0.7982  0.1029
34801SOL     OW 8764   1.739   0.775   3.887  0.3494  0.0222 -0.1943
34801SOL    HW1 8765   1.787   0.781   3.804  0.7009 -0.8518 -0.0609
34801SOL    HW2 8766   1.699   0.861   3.897  0.7489  0.3164 -1.0029
34802SOL     OW 8767   1.556   1.578   1.552 -0.1176 -0.8483 -0.2399
34802SOL    HW1 8768   1.508   1.617   1.625 -0.6565 -1.3771 -0.2991
34802SOL    HW2 8769   1.498   1.589   1.476  0.1556 -0.8729 -0.4548
34803SOL     OW 8770  10.020   2.068   8.467 -0.0133  0.1451  0.4181
34803SOL    HW1 8771   9.981   1.994   8.513 -0.4329 -0.9748 -1.6005
34803SOL    HW2 8772  10.080   2.029   8.404  1.3131  1.6582  0.6762
34804SOL     OW 8773   0.915   5.717   6.790 -0.3610 -0.1944  0.6417
34804SOL    HW1 8774   0.919   5.623   6.776 -0.5269 -0.2868  1.1663
34804SOL    HW2 8775   0.837   5.730   6.844 -1.1045  0.3992 -0.5456
34805SOL     OW 8776   6.751   7.180   8.321  0.0229  0.2884 -0.1703
34805SOL    HW1 8777   6.709   7.248   8.374  2.5336  0.0946  2.2663
34805SOL    HW2 8778   6.747   7.101   8.375  2.0941 -0.0813 -0.4646
34806SOL     OW 8779   5.569   4.919   3.892  0.5193  0.6562  0.4971
34806SOL    HW1 8780   5.520   5.000   3.907  0.6125  0.5754  1.2969
34806SOL    HW2 8781   5.516   4.851   3.933  1.4487  0.6156  1.7030
34807SOL     OW 8782   5.676  10.751   5.668  0.5222  0.1316  0.6115
34807SOL    HW1 8783   5.750  10.717   5.617  1.7640  0.5891  2.0295
34807SOL    HW2 8784   5.633  10.674   5.703 -0.3630 -0.1903 -1.1079
34808SOL     OW 8785   5.290   0.893   3.562 -0.4163 -0.6059 -0.5950
34808SOL    HW1 8786   5.233   0.969   3.567  1.8034  1.1129  0.4560
34808SOL    HW2 8787   5.311   0.886   3.469  0.3723  0.9507 -0.5763
34809SOL     OW 8788   8.718   9.411  11.066  0.3717  0.4464  0.1696
34809SOL    HW1 8789   8.701   9.460  11.147 -1.2018  1.2702 -0.5977
34809SOL    HW2 8790   8.742   9.323  11.095  1.8624  1.2708  1.5602
34810SOL     OW 8791  10.259   1.289  10.672  0.7408 -0.1630  0.1668
34810SOL    HW1 8792  10.239   1.341  10.749  1.8139 -0.0459  0.3914
34810SOL    HW2 8793  10.175   1.272  10.631  0.3858  2.1058 -0.1468
34811SOL     OW 8794   4.635   6.110   8.158 -0.4461  0.1963  0.1380
34811SOL    HW1 8795   4.639   6.019   8.188  0.0093  0.3748  0.6374
34811SOL    HW2 8796   4.562   6.112   8.096  0.3957 -0.8278 -0.9362
34812SOL     OW 8797   5.325   4.325   9.000  0.1265 -0.2596 -0.4639
34812SOL    HW1 8798   5.411   4.284   9.008  1.4448  2.6329  2.2607
34812SOL    HW2 8799   5.338   4.397   8.938  0.2041  1.2188  1.2019
34813SOL     OW 8800   7.302   0.394   8.702  0.6070 -0.2176  0.3985
34813SOL    HW1 8801   7.254   0.467   8.663 -0.8232 -0.8800  0.8408
34813SOL    HW2 8802   7.373   0.376   8.641 -1.2542 -0.9112 -1.6480
34814SOL     OW 8803   2.575   2.935   3.636  0.6093 -0.9816 -0.0482
34814SOL    HW1 8804   2.542   3.024   3.623  1.0440 -1.1605 -3.2467
34814SOL    HW2 8805   2.670   2.946   3.644  0.4673 -1.0101  2.4681
34815SOL     OW 8806   4.309   5.213  10.664 -0.3552 -0.0619 -0.5459
34815SOL    HW1 8807   4.311   5.180  10.575  1.5190 -1.3507 -0.0743
34815SOL    HW2 8808   4.256   5.150  10.713  1.4123 -1.2418 -0.0928
34816SOL     OW 8809   4.490   1.286   9.000 -0.2230 -0.2757  0.7194
34816SOL    HW1 8810   4.506   1.250   9.087 -0.7093  1.5469  1.6264
34816SOL    HW2 8811   4.441   1.218   8.954 -0.0444 -1.2437  1.9112
34817SOL     OW 8812   7.030   6.009   5.368 -0.0208 -0.4015  0.4990
34817SOL    HW1 8813   7.098   5.977   5.310  1.1376  0.2325  1.4636
34817SOL    HW2 8814   7.075   6.069   5.427 -1.0544 -1.3521  2.3377
34818SOL     OW 8815   1.954   2.425   6.076 -0.1341  0.8444  0.0800
34818SOL    HW1 8816   2.046   2.435   6.052 -0.5387 -0.9902 -2.7604
34818SOL    HW2 8817   1.941   2.330   6.085 -1.6033  1.1053  1.1537
34819SOL     OW 8818   7.373   9.871   6.017  0.4255 -0.5511  0.8636
34819SOL    HW1 8819   7.462   9.849   6.045  0.4339 -1.1172  0.4237
34819SOL    HW2 8820   7.332   9.786   6.000  0.4964 -0.2532 -1.0096
34820SOL     OW 8821  10.388   7.524   7.619  0.2661 -0.9453  0.5608
34820SOL    HW1 8822  10.414   7.615   7.606  0.3318 -0.9299  0.7961
34820SOL    HW2 8823  10.300   7.528   7.655  1.0381 -0.8957  2.5721
34821SOL     OW 8824   0.227   7.807   6.250  0.1874 -0.1598  0.5087
34821SOL    HW1 8825   0.274   7.797   6.167  1.4907  2.1951  0.8837
34821SOL    HW2 8826   0.267   7.742   6.308  0.8550 -0.2745 -0.0650
34822SOL     OW 8827  10.527   1.783   1.906  0.0952 -0.1036  0.2326
34822SOL    HW1 8828  10.438   1.763   1.935  0.4933 -2.8219 -0.2109
34822SOL    HW2 8829  10.584   1.737   1.968  1.1899  0.7964 -0.0621
34823SOL     OW 8830   2.280   0.025   4.346 -0.2656  0.1255 -0.2311
34823SOL    HW1 8831   2.293  -0.069   4.334 -0.6694  0.1018 -0.4989
34823SOL    HW2 8832   2.204   0.046   4.292 -0.2665  0.5809 -0.0591
34824SOL     OW 8833   2.100   5.517   6.780 -0.2018  0.2666 -0.3175
34824SOL    HW1 8834   2.105   5.529   6.685  0.0351  0.3692 -0.2943
34824SOL    HW2 8835   2.043   5.442   6.793 -0.6352  0.5610 -0.5246
34825SOL     OW 8836   5.802   5.830   1.924  0.2830 -0.0222  0.5524
34825SOL    HW1 8837   5.887   5.828   1.968 -0.8063 -0.9215  2.7529
34825SOL    HW2 8838   5.805   5.755   1.865  1.1735  0.2378  0.2439
34826SOL     OW 8839   7.887   9.355   5.312  0.1135  0.4945 -0.1243
34826SOL    HW1 8840   7.800   9.315   5.305  0.1425  0.2524  0.7932
34826SOL    HW2 8841   7.870   9.442   5.346  0.1346  0.9357 -1.1965
34827SOL     OW 8842   4.232   7.510   0.653 -0.3034 -0.2147 -0.0004
34827SOL    HW1 8843   4.158   7.468   0.698  1.2578 -1.0602  1.9037
34827SOL    HW2 8844   4.258   7.581   0.711  0.2942  0.1719 -0.7291
34828SOL     OW 8845   5.443   3.987   5.303 -0.5667  0.3879 -0.1664
34828SOL    HW1 8846   5.484   4.074   5.301 -0.3406  0.2729 -0.5142
34828SOL    HW2 8847   5.353   4.002   5.272 -0.7792  0.6280  0.5341
34829SOL     OW 8848  10.584   2.556   6.795  0.3396  0.1577  0.4927
34829SOL    HW1 8849  10.517   2.570   6.729  0.7214 -0.1028  0.0402
34829SOL    HW2 8850  10.566   2.468   6.829 -0.1747  0.4949  1.1206
34830SOL     OW 8851   0.399  10.587   6.419  0.4525  0.7196 -0.2125
34830SOL    HW1 8852   0.331  10.654   6.421 -0.7807 -0.3482 -2.2450
34830SOL    HW2 8853   0.407  10.564   6.326  2.7608 -0.0423  0.1165
34831SOL     OW 8854   4.044   1.040   1.338  0.1682  0.1239  0.1025
34831SOL    HW1 8855   4.133   1.005   1.337  0.3670  0.5064  1.8326
34831SOL    HW2 8856   4.046   1.114   1.277  1.9544  2.1714  2.4413
34832SOL     OW 8857  10.647   7.423  10.587 -0.9097  0.4551 -0.2158
34832SOL    HW1 8858  10.658   7.461  10.500 -0.0846  0.4594 -0.1141
34832SOL    HW2 8859  10.639   7.329  10.572  2.6391 -0.0039 -0.1133
34833SOL     OW 8860   0.341   0.872   4.358 -0.4073 -0.2670  0.3648
34833SOL    HW1 8861   0.418   0.815   4.345 -0.0951  0.2051  0.1251
34833SOL    HW2 8862   0.282   0.819   4.411 -0.2572 -0.9441 -0.1217
34834SOL     OW 8863   9.829  11.075   5.418  0.1457  0.3555  0.0170
34834SOL    HW1 8864   9.836  10.994   5.469 -3.4855 -0.6873 -0.8542
34834SOL    HW2 8865   9.848  11.048   5.328  0.5038  0.8569 -0.0624
34835SOL     OW 8866   9.853   3.671  11.073  0.7011  0.5108 -0.4744
34835SOL    HW1 8867   9.884   3.706  10.989  1.5026  0.7259 -0.0923
34835SOL    HW2 8868   9.906   3.715  11.139  1.2053 -0.8379  0.0601
34836SOL     OW 8869   9.776   5.315   7.779  0.3457 -0.3991 -0.0249
34836SOL    HW1 8870   9.764   5.349   7.690 -1.0615  0.2165  0.3738
34836SOL    HW2 8871   9.695   5.338   7.824  1.5540  0.5207  1.8030
34837SOL     OW 8872   6.530   9.390  10.656 -0.2036  0.3990 -0.3030
34837SOL    HW1 8873   6.437   9.364  10.660 -0.4490  1.1424 -1.0312
34837SOL    HW2 8874   6.529   9.485  10.653  0.6009  0.4222 -0.0692
34838SOL     OW 8875   7.791   3.427   6.436 -0.3290 -0.2074  0.3352
34838SOL    HW1 8876   7.792   3.437   6.341  0.3054 -1.6921  0.1565
34838SOL    HW2 8877   7.737   3.350   6.452 -0.3398 -0.0366  1.1645
34839SOL     OW 8878   9.951   1.315   3.038  0.1461 -0.1367 -0.3034
34839SOL    HW1 8879   9.871   1.335   3.086 -1.1575 -1.5691 -1.7675
34839SOL    HW2 8880  10.015   1.294   3.106 -1.2708 -0.8823  0.8586
34840SOL     OW 8881  10.171   0.139   5.895  0.1583  0.0272 -0.3087
34840SOL    HW1 8882  10.224   0.104   5.823 -0.7486 -1.6141 -0.2391
34840SOL    HW2 8883  10.233   0.186   5.950  1.1616 -0.0937 -1.2964
34841SOL     OW 8884   6.884   1.143   4.527 -0.7269  0.2496 -0.3360
34841SOL    HW1 8885   6.868   1.208   4.459 -2.4821  1.1266  0.8568
34841SOL    HW2 8886   6.980   1.134   4.529 -0.6089  0.4731 -2.6203
34842SOL     OW 8887   0.507   7.771   3.548 -0.5171 -0.3555 -0.3171
34842SOL    HW1 8888   0.489   7.821   3.627  2.6239 -0.3999  0.5629
34842SOL    HW2 8889   0.490   7.832   3.476 -1.8256  0.1999  0.4163
34843SOL     OW 8890   2.999   9.678   6.716 -0.5190  0.4280 -0.2212
34843SOL    HW1 8891   3.015   9.642   6.803 -0.4762  1.5799  0.2750
34843SOL    HW2 8892   3.085   9.681   6.675 -0.5820 -0.3904 -0.4152
34844SOL     OW 8893   9.244   9.944   4.196  0.1778  0.4668  0.0947
34844SOL    HW1 8894   9.190   9.896   4.258 -0.4951  1.8111  0.5929
34844SOL    HW2 8895   9.245  10.034   4.230 -0.7595  1.4064 -2.1989
34845SOL     OW 8896   9.175   9.247   2.031  0.2463  0.3065 -0.4025
34845SOL    HW1 8897   9.197   9.219   1.942  0.0621 -0.8088 -0.1167
34845SOL    HW2 8898   9.080   9.258   2.030  0.1608 -0.3641 -0.1787
34846SOL     OW 8899   2.810   1.161   7.847  0.0957 -0.2337 -0.3133
34846SOL    HW1 8900   2.834   1.253   7.861  0.5589 -0.1261 -1.6500
34846SOL    HW2 8901   2.714   1.160   7.852  0.1006  0.2880 -0.0954
34847SOL     OW 8902   6.725   2.260   7.450 -0.0222 -0.1055 -0.0491
34847SOL    HW1 8903   6.670   2.336   7.470  1.4469  1.0728 -0.2163
34847SOL    HW2 8904   6.683   2.219   7.375 -1.3533 -0.0149  0.6149
34848SOL     OW 8905   9.540   2.999   6.557 -0.2863  0.8056 -0.4827
34848SOL    HW1 8906   9.471   2.940   6.526 -0.2607 -1.7719  3.5797
34848SOL    HW2 8907   9.620   2.964   6.518 -0.0072 -3.4394  3.0690
34849SOL     OW 8908   5.118   7.773   5.618 -0.2516 -0.4159 -0.2804
34849SOL    HW1 8909   5.113   7.810   5.530 -1.0044 -2.0863 -0.9851
34849SOL    HW2 8910   5.041   7.716   5.625  0.2628 -0.9850  1.1415
34850SOL     OW 8911   5.552   8.992   8.156  0.0134  0.5899 -0.0094
34850SOL    HW1 8912   5.462   8.983   8.124  0.0842 -0.9575  0.1597
34850SOL    HW2 8913   5.603   9.011   8.077 -0.2770  0.0368 -0.3408
34851SOL     OW 8914   8.169   6.021   3.464 -0.1097  0.1488 -0.0214
34851SOL    HW1 8915   8.148   6.037   3.372  1.0147  0.5065 -0.2315
34851SOL    HW2 8916   8.121   5.942   3.486  0.1575 -0.3468 -1.1278
34852SOL     OW 8917   7.792   0.691   8.369 -0.7416  0.3533  0.1524
34852SOL    HW1 8918   7.827   0.668   8.455  1.0911  1.7363 -0.1770
34852SOL    HW2 8919   7.820   0.619   8.312 -1.1505 -0.0922  0.4998
34853SOL     OW 8920   6.014   7.576   3.043  0.1997  0.0387 -0.0370
34853SOL    HW1 8921   5.929   7.613   3.066  0.8994  1.8461 -0.2077
34853SOL    HW2 8922   6.049   7.544   3.126 -0.9160 -1.4121 -0.0776
34854SOL     OW 8923   9.166   5.737   2.577 -0.7184 -0.2899 -0.0727
34854SOL    HW1 8924   9.169   5.642   2.574  0.3047 -0.2684 -2.7938
34854SOL    HW2 8925   9.097   5.760   2.514  0.5449  0.7398 -1.1490
34855SOL     OW 8926   0.948   9.585   9.626  0.1427  0.4502  0.4314
34855SOL    HW1 8927   0.894   9.611   9.701 -0.6144 -0.8152  0.3551
34855SOL    HW2 8928   0.887   9.543   9.566  0.4839  2.4974 -1.5002
34856SOL     OW 8929   5.142   1.260   6.762 -0.3927 -0.0184 -0.0524
34856SOL    HW1 8930   5.127   1.167   6.782 -0.1840  0.0037  0.2167
34856SOL    HW2 8931   5.181   1.260   6.675 -0.3764 -0.1838 -0.0455
34857SOL     OW 8932   2.366   8.731   3.609 -0.4552 -0.9823 -0.0371
34857SOL    HW1 8933   2.377   8.826   3.610  0.1559 -1.0487  1.4451
34857SOL    HW2 8934   2.413   8.702   3.531 -0.4829 -0.0998 -0.3884
34858SOL     OW 8935   0.698   8.179   1.747 -0.4745  0.1172 -0.2736
34858SOL    HW1 8936   0.694   8.184   1.651  1.9138 -4.4610 -0.8919
34858SOL    HW2 8937   0.778   8.227   1.770 -1.1185  1.3341 -0.4531
34859SOL     OW 8938   7.304   9.515   5.473  0.1116 -0.2099  0.2507
34859SOL    HW1 8939   7.372   9.462   5.513  1.4706  1.1448 -0.1490
34859SOL    HW2 8940   7.336   9.532   5.384 -1.5727 -0.9605 -0.5430
34860SOL     OW 8941  10.016   8.259   8.847  0.3040  0.3591 -0.2159
34860SOL    HW1 8942  10.071   8.333   8.871 -0.8383  0.9635  0.6562
34860SOL    HW2 8943  10.028   8.195   8.917  2.7268 -1.1756 -1.8713
34861SOL     OW 8944   9.496   8.034   1.636 -0.1064 -0.1455 -0.3389
34861SOL    HW1 8945   9.444   7.972   1.586 -1.2936  0.1130  0.5378
34861SOL    HW2 8946   9.440   8.111   1.645  0.1976 -0.0677  1.0977
34862SOL     OW 8947   9.401   0.174   4.771  0.2565 -0.6372  0.4055
34862SOL    HW1 8948   9.328   0.210   4.821  0.1218  0.2476 -0.3849
34862SOL    HW2 8949   9.372   0.086   4.746 -0.8775 -0.0290 -0.5303
34863SOL     OW 8950   4.110   4.696   0.415  0.4828  0.1483 -0.2728
34863SOL    HW1 8951   4.056   4.775   0.413  1.0467  0.6097  1.1388
34863SOL    HW2 8952   4.127   4.681   0.508 -0.3304 -2.1661 -0.4212
34864SOL     OW 8953   9.623   5.126   4.523 -0.4547  0.2266  0.5122
34864SOL    HW1 8954   9.581   5.159   4.444  2.1211  1.2865 -0.5073
34864SOL    HW2 8955   9.599   5.033   4.526  0.5334 -0.2212 -2.3796
34865SOL     OW 8956   2.146  10.744   5.319  0.1535 -0.5837 -0.4123
34865SOL    HW1 8957   2.126  10.708   5.232 -0.3579  1.0977 -1.0464
34865SOL    HW2 8958   2.222  10.800   5.304  0.2230 -0.4874  0.2867
34866SOL     OW 8959  10.899   1.457   5.521  0.2153  0.2463  0.5438
34866SOL    HW1 8960  10.954   1.472   5.598 -1.2384  1.4331  1.4070
34866SOL    HW2 8961  10.919   1.529   5.462  0.1834  0.2262  0.5079
34867SOL     OW 8962   0.614   9.681   8.987  0.4017  0.1800  0.0998
34867SOL    HW1 8963   0.525   9.699   9.017 -0.5361  0.3719 -2.5081
34867SOL    HW2 8964   0.656   9.767   8.981  0.9712  0.0535  1.7613
34868SOL     OW 8965   5.577   5.409   1.676  0.2016 -0.2190 -0.2138
34868SOL    HW1 8966   5.505   5.473   1.676 -0.5836 -1.0758  0.9198
34868SOL    HW2 8967   5.569   5.365   1.591 -1.0169 -0.7294  0.1437
34869SOL     OW 8968   2.411   2.858   5.709  0.2425 -0.4340 -0.0512
34869SOL    HW1 8969   2.340   2.921   5.721 -0.9847 -1.3820 -1.8970
34869SOL    HW2 8970   2.481   2.907   5.666 -1.2016 -0.5175 -2.6969
34870SOL     OW 8971   0.493   7.934   3.780 -0.4587  0.5037  0.5406
34870SOL    HW1 8972   0.436   7.987   3.836  0.3863  2.0386  0.0056
34870SOL    HW2 8973   0.579   7.938   3.822  0.0416  1.1538 -0.5045
34871SOL     OW 8974   3.088   1.298   2.939  0.0758 -0.1266 -0.8011
34871SOL    HW1 8975   3.134   1.365   2.887 -1.3425  2.2068  0.7337
34871SOL    HW2 8976   3.123   1.308   3.027 -2.8658  1.4696  0.3501
34872SOL     OW 8977  10.210   9.647   5.895  0.0874  0.8254  0.8100
34872SOL    HW1 8978  10.151   9.579   5.864 -0.1481  0.5516  1.8546
34872SOL    HW2 8979  10.225   9.702   5.817  0.6069 -0.6184 -0.1489
34873SOL     OW 8980   4.181   7.729   3.487  0.1527 -0.1266  0.2183
34873SOL    HW1 8981   4.168   7.785   3.564  1.1982 -1.3817  1.3684
34873SOL    HW2 8982   4.109   7.752   3.428 -1.5949 -0.1391  2.2036
34874SOL     OW 8983   7.130   7.823   3.226 -0.1941 -0.7356  0.4558
34874SOL    HW1 8984   7.119   7.779   3.142  0.2466  1.0602 -0.5952
34874SOL    HW2 8985   7.041   7.843   3.254 -0.3510 -1.4822  0.5147
34875SOL     OW 8986   1.729   6.031   4.095  0.7683 -0.1473 -0.3275
34875SOL    HW1 8987   1.739   6.080   4.013  1.1530 -0.8184 -0.6915
34875SOL    HW2 8988   1.783   5.953   4.082  0.9958 -0.1541  0.6541
34876SOL     OW 8989   7.659   2.992   4.959  0.6171  0.0293 -0.2037
34876SOL    HW1 8990   7.753   3.003   4.973  0.2621  0.3480  2.3832
34876SOL    HW2 8991   7.627   3.079   4.939  0.8761 -0.1352 -1.4415
34877SOL     OW 8992   9.452   8.363   1.697  0.1383  0.3214 -0.4358
34877SOL    HW1 8993   9.445   8.329   1.787 -0.9609  1.4228 -0.0860
34877SOL    HW2 8994   9.538   8.333   1.668 -0.6535 -2.5497 -0.0928
34878SOL     OW 8995   7.381   6.983  10.885  0.2806 -0.4610  0.0681
34878SOL    HW1 8996   7.335   6.906  10.853 -0.2331 -0.7213  1.3543
34878SOL    HW2 8997   7.427   6.953  10.963  3.0004 -0.3039 -1.3454
34879SOL     OW 8998  10.693   3.794   2.876  0.1481 -0.4117  0.2863
34879SOL    HW1 8999  10.669   3.708   2.910  0.7123  0.4110  3.0698
34879SOL    HW2 9000  10.659   3.856   2.941 -0.8669  1.5786 -1.9644
34880SOL     OW 9001   6.518   2.246   0.556 -0.4221 -0.0988 -0.2425
34880SOL    HW1 9002   6.572   2.193   0.498 -0.1189 -0.0679  0.0082
34880SOL    HW2 9003   6.514   2.196   0.638  0.4666  0.5897  0.2425
34881SOL     OW 9004   1.939   4.239   3.003 -0.7288 -0.5045  0.3729
34881SOL    HW1 9005   1.940   4.248   3.098 -3.1218  0.4858  0.3738
34881SOL    HW2 9006   1.944   4.328   2.969 -1.5162 -0.7138 -0.3537
34882SOL     OW 9007   8.997   2.034   9.907 -0.1629  0.4315  0.2967
34882SOL    HW1 9008   9.056   2.039   9.832  0.4936 -1.2442  0.6642
34882SOL    HW2 9009   8.909   2.029   9.868  0.0850  0.6914 -0.3116
34883SOL     OW 9010   1.584  10.035   7.370 -0.2695 -0.2085  0.0026
34883SOL    HW1 9011   1.625  10.110   7.326 -1.7340 -0.5858 -2.1580
34883SOL    HW2 9012   1.620   9.959   7.325 -1.7955 -0.6168 -0.5535
34884SOL     OW 9013   1.756  11.064   2.627  0.0164 -0.2759  0.0386
34884SOL    HW1 9014   1.801  11.110   2.698  0.0031 -0.3438  0.0911
34884SOL    HW2 9015   1.665  11.091   2.634 -0.0022 -0.3541  0.1053
34885SOL     OW 9016   5.792   2.378   6.896  0.0894 -0.1593 -0.4078
34885SOL    HW1 9017   5.849   2.408   6.966  1.4850 -0.6226 -1.3087
34885SOL    HW2 9018   5.762   2.459   6.854  1.7270  0.1048 -1.1673
34886SOL     OW 9019   0.236   1.528   0.422 -0.6648 -0.0771 -0.4195
34886SOL    HW1 9020   0.207   1.564   0.338 -0.9395  1.2848  0.2447
34886SOL    HW2 9021   0.156   1.523   0.474 -0.6632 -1.7947 -0.5101
34887SOL     OW 9022   4.604   5.900   1.852  0.2204 -0.5471 -0.0691
34887SOL    HW1 9023   4.532   5.852   1.811  1.6359 -2.5218 -0.3533
34887SOL    HW2 9024   4.633   5.961   1.784 -1.3804  0.5536  0.1776
34888SOL     OW 9025   7.484   0.569   1.744  0.0888  0.6242 -0.0585
34888SOL    HW1 9026   7.568   0.542   1.707 -0.9159  0.3447 -2.3350
34888SOL    HW2 9027   7.430   0.588   1.667 -2.3470 -0.4619  1.2848
34889SOL     OW 9028   7.033   5.541   0.890  0.6366  0.2221  0.2000
34889SOL    HW1 9029   7.054   5.631   0.914  0.2106  0.3161  0.2326
34889SOL    HW2 9030   7.099   5.518   0.824  0.6644  0.6018  0.0905
34890SOL     OW 9031   0.544   8.167   9.327 -0.3170  0.2252 -0.3389
34890SOL    HW1 9032   0.546   8.164   9.232 -0.2318 -0.8216 -0.3219
34890SOL    HW2 9033   0.630   8.199   9.353 -0.1769  0.0579 -0.6026
34891SOL     OW 9034   9.250   3.648   7.923  0.3387 -0.4806 -0.3747
34891SOL    HW1 9035   9.192   3.616   7.992 -0.1708  1.6038  0.2340
34891SOL    HW2 9036   9.210   3.729   7.894  3.1422  1.3274  0.4003
34892SOL     OW 9037   9.071   7.187   7.593  0.3073  0.7953 -0.3220
34892SOL    HW1 9038   9.154   7.186   7.640 -0.3971  1.4206  1.0076
34892SOL    HW2 9039   9.023   7.112   7.628  0.6469 -0.1281 -1.7664
34893SOL     OW 9040   3.650   8.329   1.289 -0.3065 -0.1798 -0.1519
34893SOL    HW1 9041   3.709   8.385   1.239 -0.4964 -0.4650 -0.6952
34893SOL    HW2 9042   3.565   8.339   1.247 -0.0583 -1.9820 -1.1707
34894SOL     OW 9043   4.296   4.250   9.921  0.0475 -0.3460  0.1000
34894SOL    HW1 9044   4.244   4.295   9.855 -0.2981  0.0890  0.6518
34894SOL    HW2 9045   4.265   4.287  10.004  0.2602 -1.1001  0.5194
34895SOL     OW 9046   3.362   1.052   4.412  0.1827 -0.5595  0.4622
34895SOL    HW1 9047   3.433   1.013   4.361  0.4652 -0.2647  0.6288
34895SOL    HW2 9048   3.317   1.110   4.351 -1.6536 -2.8042 -0.4581
34896SOL     OW 9049   1.573   8.582  10.015 -0.0206  0.0291 -0.7450
34896SOL    HW1 9050   1.516   8.617   9.946 -0.2512 -2.8548 -2.1574
34896SOL    HW2 9051   1.521   8.590  10.095 -1.6208 -0.6502 -1.6624
34897SOL     OW 9052   0.310   8.126  10.009 -0.0410  0.4670 -0.6007
34897SOL    HW1 9053   0.337   8.058   9.948 -0.4114  1.1219 -1.5199
34897SOL    HW2 9054   0.391   8.175  10.027  0.5373 -1.0464  1.2038
34898SOL     OW 9055   6.486   7.844   6.522  0.0097  0.3876 -0.1962
34898SOL    HW1 9056   6.518   7.895   6.596 -0.7565  0.1023  0.3435
34898SOL    HW2 9057   6.501   7.900   6.446 -0.0295  1.0642  0.2825
34899SOL     OW 9058   7.046   3.323   6.520  0.1273  0.0820  0.3325
34899SOL    HW1 9059   7.074   3.334   6.611  1.0096  0.7862 -0.0112
34899SOL    HW2 9060   7.119   3.277   6.478  0.1084  0.5553 -0.2266
34900SOL     OW 9061   9.080  11.021   3.341  0.2853  0.1495 -0.9981
34900SOL    HW1 9062   9.136  11.086   3.383 -1.8503  2.7666 -1.8707
34900SOL    HW2 9063   9.118  10.937   3.365  3.4738  1.6793 -0.1072
34901SOL     OW 9064   7.425   4.803   2.309  0.7254 -0.2312  0.0724
34901SOL    HW1 9065   7.483   4.787   2.383  0.8353 -3.7323 -0.5999
34901SOL    HW2 9066   7.339   4.774   2.340  0.5246 -0.5494 -0.7676
34902SOL     OW 9067   3.832   5.659   7.203  0.0525  0.4328  0.5611
34902SOL    HW1 9068   3.869   5.736   7.158  1.1152  0.4430  1.3986
34902SOL    HW2 9069   3.821   5.594   7.134  2.0509  0.3047  0.3067
34903SOL     OW 9070   0.253   9.586   4.748  0.0977 -0.0491  0.4868
34903SOL    HW1 9071   0.328   9.527   4.741 -0.4456 -0.9649  1.8695
34903SOL    HW2 9072   0.212   9.585   4.662  1.8138  0.7057 -0.3915
34904SOL     OW 9073   2.370   8.158   3.336  0.2979 -0.4539 -0.3298
34904SOL    HW1 9074   2.295   8.114   3.376 -0.4620  0.2406 -0.9687
34904SOL    HW2 9075   2.387   8.109   3.255 -0.1856  0.0565 -0.7503
34905SOL     OW 9076   8.554   5.896   3.701  0.4161 -0.1229 -0.0762
34905SOL    HW1 9077   8.514   5.965   3.648  0.3236  0.0583  0.2231
34905SOL    HW2 9078   8.481   5.855   3.747  0.5385  0.0183  0.2509
34906SOL     OW 9079   3.692   7.225  11.017  0.2121 -0.2764  0.8543
34906SOL    HW1 9080   3.637   7.146  11.008 -0.0588  0.0417 -0.4313
34906SOL    HW2 9081   3.758   7.200  11.082 -0.0497 -1.4662  0.6964
34907SOL     OW 9082   0.443   9.567   9.898  0.0723 -0.3665  0.3036
34907SOL    HW1 9083   0.401   9.486   9.925 -1.5835  0.0926 -0.7306
34907SOL    HW2 9084   0.423   9.629   9.968 -2.0006  0.1327 -0.6423
34908SOL     OW 9085   7.653   5.140  10.602 -0.4688 -0.9613 -0.4973
34908SOL    HW1 9086   7.612   5.162  10.518 -1.4405 -0.1756  0.1503
34908SOL    HW2 9087   7.741   5.112  10.579 -0.4591 -0.0202 -1.7190
34909SOL     OW 9088   4.590   0.306   2.339  0.3747 -0.0004  0.5441
34909SOL    HW1 9089   4.549   0.303   2.252  0.5339 -1.3974  0.4976
34909SOL    HW2 9090   4.661   0.369   2.329  0.0133  0.3071 -0.1711
34910SOL     OW 9091   7.461   7.065   2.304  0.1858  0.9981  0.2253
34910SOL    HW1 9092   7.493   7.050   2.393 -0.3347  0.1320  0.2809
34910SOL    HW2 9093   7.518   7.012   2.249 -0.2195  0.5936  0.1794
34911SOL     OW 9094   4.241   1.550   5.525  0.1325  0.1589  0.0193
34911SOL    HW1 9095   4.280   1.478   5.476 -2.0527 -0.5023 -0.9009
34911SOL    HW2 9096   4.283   1.546   5.611  1.2409 -1.1673 -0.5358
34912SOL     OW 9097   8.194   0.284   3.658 -0.1717 -0.4769 -0.5163
34912SOL    HW1 9098   8.195   0.190   3.640 -0.4643 -0.5650 -0.0910
34912SOL    HW2 9099   8.286   0.309   3.656 -0.0740 -0.8162 -0.4195
34913SOL     OW 9100   7.493   9.526   7.980  0.0423  0.1528  0.0016
34913SOL    HW1 9101   7.502   9.469   8.056  1.4499  1.0904  0.5791
34913SOL    HW2 9102   7.583   9.548   7.956 -0.3819 -0.0270 -1.8806
34914SOL     OW 9103   2.540   9.627   9.273  0.0445  0.1286  0.3787
34914SOL    HW1 9104   2.514   9.536   9.282 -0.3882  0.0799 -1.1518
34914SOL    HW2 9105   2.630   9.630   9.307  0.0521 -0.8466  0.4708
34915SOL     OW 9106   1.429   2.786   5.089 -0.0573 -0.4721  0.2897
34915SOL    HW1 9107   1.508   2.742   5.119  1.3681  2.0630  0.5607
34915SOL    HW2 9108   1.360   2.757   5.148  0.7693 -2.2777  0.4219
34916SOL     OW 9109   1.400   5.644   7.896 -0.0654 -1.0480  0.3270
34916SOL    HW1 9110   1.325   5.685   7.939 -0.2732 -1.1105  0.0251
34916SOL    HW2 9111   1.416   5.699   7.819  0.9770 -0.3033  1.0413
34917SOL     OW 9112  10.167  10.601   9.405 -0.7041 -0.0158 -0.5028
34917SOL    HW1 9113  10.239  10.665   9.400 -0.0931 -0.7658 -1.8649
34917SOL    HW2 9114  10.126  10.606   9.320 -1.1913 -0.8426 -0.3164
34918SOL     OW 9115   9.366   5.959   1.770 -0.1239 -0.3191 -0.4209
34918SOL    HW1 9116   9.370   6.029   1.705 -0.5579 -1.7309 -2.0080
34918SOL    HW2 9117   9.372   5.878   1.720 -2.1932 -1.5202  1.1080
34919SOL     OW 9118   0.547   2.075   4.078  0.2059 -0.1353  0.6982
34919SOL    HW1 9119   0.591   1.990   4.072 -0.8516 -0.6982  0.6378
34919SOL    HW2 9120   0.477   2.061   4.142 -0.0777  0.6473  0.5663
34920SOL     OW 9121   7.698   0.306  10.125 -0.0430  0.8876 -0.0697
34920SOL    HW1 9122   7.618   0.264  10.094 -0.3064  2.2308 -1.3170
34920SOL    HW2 9123   7.767   0.242  10.107 -0.7858 -0.2086  0.8509
34921SOL     OW 9124   0.200   0.133  10.228 -0.3029  0.4132  0.7670
34921SOL    HW1 9125   0.225   0.198  10.293 -0.6072 -0.0880  1.3945
34921SOL    HW2 9126   0.104   0.136  10.228 -0.3264  1.9848 -1.2703
34922SOL     OW 9127   7.993   8.893   1.362 -0.2087  0.1936  0.6193
34922SOL    HW1 9128   7.991   8.905   1.267 -2.0466  1.7538  0.8102
34922SOL    HW2 9129   8.026   8.976   1.396  0.1064 -0.2314  1.3669
34923SOL     OW 9130   6.112   6.628   3.040 -0.2059  0.2790 -0.5447
34923SOL    HW1 9131   6.076   6.715   3.059  0.6085  1.4236 -3.6230
34923SOL    HW2 9132   6.040   6.583   2.995 -0.1253 -0.0653 -0.3248
34924SOL     OW 9133   9.869   1.680   8.183 -0.2511 -0.1033 -0.0610
34924SOL    HW1 9134   9.908   1.625   8.251  1.0287 -1.8954 -2.0816
34924SOL    HW2 9135   9.778   1.651   8.178 -0.2249 -0.3106  0.5562
34925SOL     OW 9136   1.177  10.331   3.039  0.2168  0.1116  0.4936
34925SOL    HW1 9137   1.212  10.251   3.000 -0.6685  0.7790 -1.8482
34925SOL    HW2 9138   1.181  10.316   3.133  2.4524 -1.6455  0.1993
34926SOL     OW 9139   6.361   7.973   9.554 -0.3579 -0.3262  0.2284
34926SOL    HW1 9140   6.391   7.886   9.581  1.4735 -0.0187 -0.6546
34926SOL    HW2 9141   6.355   8.023   9.636  0.6431 -0.6956  0.5392
34927SOL     OW 9142   8.365   5.007   3.442 -0.6221  0.4516  0.5290
34927SOL    HW1 9143   8.438   5.063   3.415 -1.7404  1.0821 -1.3381
34927SOL    HW2 9144   8.405   4.922   3.460  0.4773  0.4995 -1.4519
34928SOL     OW 9145   5.281   2.560   7.212  0.1796  0.0582 -0.2646
34928SOL    HW1 9146   5.329   2.497   7.265  1.2861  0.5115 -0.6914
34928SOL    HW2 9147   5.295   2.531   7.122  0.9366  1.0637 -0.4845
34929SOL     OW 9148   6.860   4.276   3.045 -0.1240 -0.4574  0.3514
34929SOL    HW1 9149   6.883   4.198   2.994  0.2594 -0.8870  1.1522
34929SOL    HW2 9150   6.944   4.312   3.073 -0.3110 -1.5761  2.6180
34930SOL     OW 9151   8.457   6.874  10.209  0.3674  0.5255  0.2394
34930SOL    HW1 9152   8.382   6.924  10.176 -0.6348 -1.0208  0.0562
34930SOL    HW2 9153   8.469   6.906  10.298 -0.0728  1.2872  0.0316
34931SOL     OW 9154  10.808   0.651   3.987 -0.1370 -0.4222  0.0078
34931SOL    HW1 9155  10.813   0.746   3.979 -1.7605 -0.3392 -0.4449
34931SOL    HW2 9156  10.719   0.634   4.018 -0.6839 -1.8679 -2.0932
34932SOL     OW 9157   1.643   0.732   1.526 -0.2369 -0.6041 -0.1651
34932SOL    HW1 9158   1.584   0.743   1.451  0.2546  2.1669 -0.2610
34932SOL    HW2 9159   1.688   0.817   1.534  0.6775 -1.2318  2.4862
34933SOL     OW 9160   5.478   7.454   0.276  0.1186  0.5733  0.3973
34933SOL    HW1 9161   5.450   7.545   0.270  0.8790  0.8185  0.4565
34933SOL    HW2 9162   5.430   7.409   0.206  0.4960  1.2160 -0.2882
34934SOL     OW 9163   3.882   0.382   4.108 -0.5194 -0.2151  0.1974
34934SOL    HW1 9164   3.789   0.397   4.127 -0.8394 -2.0004  0.2091
34934SOL    HW2 9165   3.928   0.410   4.187 -1.0296  0.7711  0.1561
34935SOL     OW 9166   5.138   4.324   9.742  0.7277 -0.0326 -0.0976
34935SOL    HW1 9167   5.162   4.413   9.716 -1.4535  0.5670 -0.2511
34935SOL    HW2 9168   5.144   4.325   9.838  1.5393  0.0108 -0.1443
34936SOL     OW 9169   1.641   8.679   3.610  0.0414  0.0654 -0.0887
34936SOL    HW1 9170   1.595   8.632   3.541  0.7247  0.3977 -0.7843
34936SOL    HW2 9171   1.603   8.646   3.691  0.3673 -1.5276 -0.5619
34937SOL     OW 9172   8.882   2.843   1.484  0.2371 -0.1625  0.1480
34937SOL    HW1 9173   8.825   2.773   1.452  0.0649  0.2472 -0.4573
34937SOL    HW2 9174   8.834   2.882   1.556 -1.7012  2.1543 -2.2144
34938SOL     OW 9175   1.827   4.223   6.510 -0.0724  0.0211 -0.3519
34938SOL    HW1 9176   1.816   4.244   6.417 -0.5996  0.6003 -0.1628
34938SOL    HW2 9177   1.922   4.226   6.523 -0.1035  2.7468 -0.2591
34939SOL     OW 9178   8.484   6.198   2.396 -0.2722 -0.0120  0.4898
34939SOL    HW1 9179   8.540   6.162   2.465 -0.3151  1.4017  1.2988
34939SOL    HW2 9180   8.403   6.149   2.404 -0.0957 -0.2246  1.1102
34940SOL     OW 9181   5.719   3.648   0.853  1.1434 -0.4226  0.3218
34940SOL    HW1 9182   5.632   3.610   0.854  1.4053 -1.0642  2.3123
34940SOL    HW2 9183   5.719   3.705   0.776 -1.6120  0.9056  1.1532
34941SOL     OW 9184  10.490   8.160   6.388  0.2495  0.1442 -0.7051
34941SOL    HW1 9185  10.495   8.101   6.313 -0.6524  0.1175 -0.7495
34941SOL    HW2 9186  10.565   8.218   6.377  1.0102 -0.8152 -0.8022
34942SOL     OW 9187   9.009   4.087   4.669 -0.4821  0.0775 -0.3575
34942SOL    HW1 9188   8.960   4.159   4.707 -0.1914  0.0563  0.0737
34942SOL    HW2 9189   8.943   4.033   4.624 -0.8965 -0.1018  0.4458
34943SOL     OW 9190   1.340  10.991   7.255  0.5994 -0.2624 -0.0631
34943SOL    HW1 9191   1.264  10.933   7.252  1.0209 -0.7930 -0.6940
34943SOL    HW2 9192   1.358  11.013   7.164  0.6733  0.5752  0.1393
34944SOL     OW 9193   8.871  10.660   1.608  0.1880  0.5264 -0.6449
34944SOL    HW1 9194   8.784  10.693   1.583 -0.6012 -1.3463 -0.4985
34944SOL    HW2 9195   8.853  10.586   1.666  1.7879 -1.4232 -2.4799
34945SOL     OW 9196  11.000   0.484   5.398  0.4526  0.3549  0.2664
34945SOL    HW1 9197  11.008   0.419   5.467  0.0044  0.5084  0.4701
34945SOL    HW2 9198  11.068   0.462   5.335  0.7138  0.0740  0.6455
34946SOL     OW 9199   9.625   0.868   0.551  0.5130  0.6452  0.5527
34946SOL    HW1 9200   9.618   0.789   0.498  0.4214  0.7556  0.3977
34946SOL    HW2 9201   9.690   0.922   0.505 -0.1975  1.1126  0.0694
34947SOL     OW 9202   9.301   8.013   6.237 -0.1298  0.1141 -0.3980
34947SOL    HW1 9203   9.338   7.973   6.158 -0.8199 -0.0170 -0.6653
34947SOL    HW2 9204   9.329   8.105   6.233  0.8156 -0.1560 -0.1827
34948SOL     OW 9205   9.536   2.012   6.005 -0.0267  0.6207  0.0773
34948SOL    HW1 9206   9.619   2.000   5.959 -0.3251 -0.5184 -0.1989
34948SOL    HW2 9207   9.515   2.105   5.994  1.1947  0.9188  0.1433
34949SOL     OW 9208   5.019   9.279   3.811 -0.0645  0.0821  0.1240
34949SOL    HW1 9209   4.940   9.324   3.841 -1.0791 -2.2650  1.2339
34949SOL    HW2 9210   4.986   9.203   3.763  1.4693 -1.2274  1.0444
34950SOL     OW 9211   0.092  10.891   1.301 -0.3336  0.3678  0.0619
34950SOL    HW1 9212   0.034  10.962   1.329  0.7944  2.2979 -2.1347
34950SOL    HW2 9213   0.069  10.876   1.209 -0.8787 -2.5633  0.5497
34951SOL     OW 9214   3.844   9.748   2.719 -0.0060 -0.0371  0.1508
34951SOL    HW1 9215   3.832   9.770   2.627 -2.0504  1.3656  0.6917
34951SOL    HW2 9216   3.757   9.722   2.749 -0.0557  2.3917  2.3726
34952SOL     OW 9217   9.160   7.577   4.254  0.1968 -0.1547  0.6193
34952SOL    HW1 9218   9.166   7.508   4.321  2.2016  0.8222  1.5443
34952SOL    HW2 9219   9.081   7.556   4.205  0.5760 -2.9875  1.0134
34953SOL     OW 9220   7.974   2.681   7.822 -0.1336 -0.0806 -0.1446
34953SOL    HW1 9221   7.900   2.733   7.856 -0.0364  0.6202 -0.9629
34953SOL    HW2 9222   7.953   2.591   7.847  0.2313  0.4393  2.2971
34954SOL     OW 9223   6.636  10.977   6.347 -0.4944  0.1246 -0.2344
34954SOL    HW1 9224   6.676  10.893   6.367  0.1231  0.6796  0.9412
34954SOL    HW2 9225   6.631  10.979   6.251 -0.6185 -1.2750 -0.2803
34955SOL     OW 9226   4.782   5.786   5.625  0.1150  0.1772 -0.2211
34955SOL    HW1 9227   4.694   5.753   5.645  0.3353 -0.4337 -0.2399
34955SOL    HW2 9228   4.837   5.748   5.694  0.5795 -0.4944 -0.9544
34956SOL     OW 9229   0.577   1.450   7.361  1.2426  0.7922  0.5949
34956SOL    HW1 9230   0.586   1.528   7.417  1.2582  2.2675 -1.3373
34956SOL    HW2 9231   0.482   1.435   7.357  1.1246  1.6002 -0.1055
34957SOL     OW 9232   5.054   7.149   9.109 -0.2850 -0.1325  0.1714
34957SOL    HW1 9233   4.995   7.220   9.136 -0.1977 -0.1895  0.5203
34957SOL    HW2 9234   5.057   7.090   9.185  1.0200  0.3908  0.5626
34958SOL     OW 9235   7.142   6.459   2.666 -0.7595  0.5140  0.0421
34958SOL    HW1 9236   7.134   6.514   2.744 -1.8353  0.4753 -0.0340
34958SOL    HW2 9237   7.222   6.489   2.624  0.3835 -0.0977  1.6560
34959SOL     OW 9238   1.688   7.937   0.178 -0.1762  0.6434 -0.1131
34959SOL    HW1 9239   1.781   7.925   0.199 -0.7149 -0.3870  2.0097
34959SOL    HW2 9240   1.653   7.983   0.254 -1.0703  2.8163 -1.7540
34960SOL     OW 9241   6.715   3.431   0.725 -0.1017  0.3250 -0.3453
34960SOL    HW1 9242   6.632   3.467   0.755 -1.5770 -0.8388 -2.7065
34960SOL    HW2 9243   6.765   3.508   0.695 -0.6433  0.9556  0.3345
34961SOL     OW 9244   2.378   5.442   7.108 -0.0561  0.1626 -0.5459
34961SOL    HW1 9245   2.307   5.378   7.113  0.7765 -0.7485  0.3328
34961SOL    HW2 9246   2.385   5.477   7.197  0.8639 -0.0891 -0.5051
34962SOL     OW 9247   4.402   5.431   0.633  0.2532 -0.2086  0.1491
34962SOL    HW1 9248   4.356   5.485   0.568  2.3950  2.0270  0.3625
34962SOL    HW2 9249   4.355   5.347   0.631 -1.1777  0.5186 -2.6194
34963SOL     OW 9250   0.737   7.288   2.598  0.6244  0.1627 -0.3392
34963SOL    HW1 9251   0.779   7.304   2.514  0.8091  2.3131  0.1106
34963SOL    HW2 9252   0.646   7.317   2.586  0.7945  1.0077  0.3504
34964SOL     OW 9253   8.152   3.261   2.365  0.2421  0.3122 -0.0131
34964SOL    HW1 9254   8.196   3.340   2.336 -0.4840  0.1376 -1.7440
34964SOL    HW2 9255   8.108   3.228   2.287  1.3189 -2.3443  0.3954
34965SOL     OW 9256   7.362   2.468   1.608 -0.4571 -0.5202 -1.0674
34965SOL    HW1 9257   7.322   2.382   1.622 -1.0925  0.1093  1.4701
34965SOL    HW2 9258   7.448   2.449   1.570 -1.0160 -2.2046 -1.5603
34966SOL     OW 9259   1.900   5.741   7.863 -0.0779  0.1143 -0.2378
34966SOL    HW1 9260   1.982   5.730   7.816 -0.2377  2.4646 -1.2051
34966SOL    HW2 9261   1.919   5.805   7.931 -0.5386 -1.2080  1.2147
34967SOL     OW 9262   0.103   6.212   4.167  0.4134 -0.1616 -0.0863
34967SOL    HW1 9263   0.177   6.271   4.154 -1.1227  1.7974 -0.3151
34967SOL    HW2 9264   0.042   6.232   4.096 -0.3204 -1.8180  0.0122
34968SOL     OW 9265   6.541   7.042  10.070 -0.0174 -0.7253 -0.3325
34968SOL    HW1 9266   6.512   7.031  10.161  0.2327  0.4503 -0.0947
34968SOL    HW2 9267   6.489   7.116  10.038  0.5059 -0.5954 -0.8840
34969SOL     OW 9268   8.103  10.847   7.098  0.4082  0.3117 -0.0588
34969SOL    HW1 9269   8.021  10.895   7.110  0.3467  0.2759 -0.3219
34969SOL    HW2 9270   8.098  10.814   7.008  1.3045  1.4564 -0.5588
34970SOL     OW 9271   0.874   4.976   9.384 -0.2047 -0.1909 -0.1142
34970SOL    HW1 9272   0.953   4.931   9.356 -0.1845  0.1073 -0.5430
34970SOL    HW2 9273   0.905   5.054   9.430 -0.2121  1.2350 -2.3638
34971SOL     OW 9274   5.528   2.689   0.475  0.1279 -0.5006 -0.2001
34971SOL    HW1 9275   5.592   2.623   0.499  0.7638 -0.1914 -0.9946
34971SOL    HW2 9276   5.568   2.772   0.499  0.1606 -0.2875 -0.9473
34972SOL     OW 9277   2.375   3.476   4.106  0.0316 -0.1195 -0.0706
34972SOL    HW1 9278   2.368   3.480   4.201 -0.5717 -1.0850 -0.0633
34972SOL    HW2 9279   2.337   3.558   4.076 -0.1270  0.0241  0.5054
34973SOL     OW 9280   4.491   5.740   1.478  0.7204  0.4137 -0.0281
34973SOL    HW1 9281   4.430   5.720   1.549  1.3608  0.4694  0.5616
34973SOL    HW2 9282   4.479   5.833   1.462  1.4834  0.6959  0.9274
34974SOL     OW 9283  10.302   7.843   9.374 -0.2240  0.5396  0.2138
34974SOL    HW1 9284  10.320   7.766   9.320  0.2342  0.6723  0.1717
34974SOL    HW2 9285  10.280   7.808   9.461 -2.6772  0.2366 -0.4612
34975SOL     OW 9286   4.596  10.559   3.798 -0.4533 -0.1216  0.3946
34975SOL    HW1 9287   4.674  10.536   3.749 -0.5887 -1.6567  0.8494
34975SOL    HW2 9288   4.623  10.631   3.855  0.4995 -0.3182  0.1931
34976SOL     OW 9289   6.660   1.869   6.034 -0.5800 -0.1083  0.1786
34976SOL    HW1 9290   6.666   1.898   5.943 -0.8915 -2.3742 -0.6271
34976SOL    HW2 9291   6.631   1.778   6.029 -0.5426 -0.3264  2.5536
34977SOL     OW 9292   5.983   2.248   2.922 -0.1126 -0.5536  0.3045
34977SOL    HW1 9293   5.995   2.342   2.908  0.9435 -0.2858  2.5794
34977SOL    HW2 9294   5.890   2.239   2.946 -0.3296 -0.1777 -0.3659
34978SOL     OW 9295   1.343   1.477   1.097 -0.2782  0.0180 -0.2751
34978SOL    HW1 9296   1.369   1.510   1.010 -0.2361 -0.1377 -0.3222
34978SOL    HW2 9297   1.281   1.407   1.078 -0.7803  0.4286 -0.1585
34979SOL     OW 9298   7.170   9.444   2.115  0.5785 -0.1940  0.0780
34979SOL    HW1 9299   7.218   9.362   2.124  0.1914 -0.3082  1.2780
34979SOL    HW2 9300   7.232   9.503   2.071  2.5043  0.1489  2.9209
34980SOL     OW 9301  10.972   0.461   4.107 -0.5022 -0.5290 -0.3602
34980SOL    HW1 9302  10.992   0.492   4.196  2.1713  0.0188 -1.0461
34980SOL    HW2 9303  10.919   0.531   4.069 -1.8690 -0.8710  0.8292
34981SOL     OW 9304   4.771   1.743  11.072 -0.4358  0.0520  0.3086
34981SOL    HW1 9305   4.694   1.737  11.129  0.0970  1.1883  1.1933
34981SOL    HW2 9306   4.842   1.771  11.130  0.8216 -1.5744 -0.3575
34982SOL     OW 9307   1.659   2.653   2.732 -0.0383 -0.0541  0.0957
34982SOL    HW1 9308   1.564   2.659   2.725 -0.1565  0.0953  1.4950
34982SOL    HW2 9309   1.685   2.601   2.656 -1.4816 -2.0997  0.8890
34983SOL     OW 9310   7.457  10.911   0.078 -0.4905  0.4181  0.3654
34983SOL    HW1 9311   7.450  10.827   0.034  4.2748 -0.0833  0.0309
34983SOL    HW2 9312   7.430  10.975   0.012 -2.0361 -0.6571 -0.1129
34984SOL     OW 9313   0.405   3.493   1.327  0.2713  0.0312 -0.2886
34984SOL    HW1 9314   0.314   3.472   1.309  0.8824 -1.3792 -2.0666
34984SOL    HW2 9315   0.407   3.589   1.334 -1.4033  0.0499  0.3621
34985SOL     OW 9316   4.993   8.011   4.071 -0.4091 -0.1010 -0.0618
34985SOL    HW1 9317   5.021   8.098   4.044 -0.1554 -1.1462 -3.5593
34985SOL    HW2 9318   4.941   7.978   3.998 -0.4623 -2.9206  1.1141
34986SOL     OW 9319  10.753   2.923   7.287  0.2536 -0.1704 -0.3588
34986SOL    HW1 9320  10.772   2.840   7.242  0.4801  0.0812 -0.7279
34986SOL    HW2 9321  10.835   2.947   7.329 -0.8114 -2.4045  3.5888
34987SOL     OW 9322   0.032   5.849   7.743  0.0480 -1.0821 -0.3218
34987SOL    HW1 9323  -0.051   5.801   7.754 -1.1338  0.9036  0.0174
34987SOL    HW2 9324   0.038   5.865   7.649  1.2728 -3.1847 -0.6541
34988SOL     OW 9325   0.250  10.992   8.760  0.2303  0.4168  0.3700
34988SOL    HW1 9326   0.312  10.943   8.814 -0.4146  0.5149  1.2116
34988SOL    HW2 9327   0.202  11.047   8.822  1.2825  2.5306 -0.5941
34989SOL     OW 9328   4.072   2.650   9.213  0.8837  0.1075 -0.1678
34989SOL    HW1 9329   4.072   2.722   9.276 -0.8030 -0.4959  0.5888
34989SOL    HW2 9330   4.063   2.693   9.128  0.2426  0.8079  0.2410
34990SOL     OW 9331   9.173   0.364   7.426 -0.6065 -0.5052 -0.1660
34990SOL    HW1 9332   9.239   0.295   7.431 -0.0105  0.1082  0.8032
34990SOL    HW2 9333   9.169   0.388   7.334  1.0739 -0.0353 -0.1474
34991SOL     OW 9334   3.154   1.147   3.802  0.4194 -0.0914  0.0159
34991SOL    HW1 9335   3.179   1.171   3.713  0.9772 -0.4995  0.0529
34991SOL    HW2 9336   3.233   1.106   3.838 -0.3104 -1.4371  0.1479
34992SOL     OW 9337  10.367   5.243  11.006  0.2380 -0.1793  0.0849
34992SOL    HW1 9338  10.424   5.166  11.004  2.0362  1.0824  0.6260
34992SOL    HW2 9339  10.341   5.251  11.098  3.3670  2.0854  0.9240
34993SOL     OW 9340   4.139   3.700   0.272 -0.6674  0.3306  0.4165
34993SOL    HW1 9341   4.115   3.612   0.302 -0.0941  0.0170 -0.0355
34993SOL    HW2 9342   4.112   3.702   0.180  1.5106 -0.2506 -0.3051
34994SOL     OW 9343   5.620   3.302  10.488  0.1410 -0.1738 -0.2212
34994SOL    HW1 9344   5.548   3.363  10.502  2.5267  2.6783  0.8521
34994SOL    HW2 9345   5.621   3.248  10.567 -0.3750  0.2938  0.1116
34995SOL     OW 9346   2.112   5.115   7.834 -0.2227 -0.0402 -0.5272
34995SOL    HW1 9347   2.196   5.160   7.828 -0.2498 -0.0397 -0.9095
34995SOL    HW2 9348   2.129   5.042   7.894 -0.6209  1.4648  1.5145
34996SOL     OW 9349   6.596   3.584   1.975 -0.3501 -0.4983 -0.0388
34996SOL    HW1 9350   6.536   3.547   2.039  0.0504  0.5424  0.9735
34996SOL    HW2 9351   6.591   3.679   1.989  1.7457 -0.3900  0.2892
34997SOL     OW 9352   6.296   3.410   9.646  0.4936  0.3875  0.4212
34997SOL    HW1 9353   6.244   3.481   9.683  0.0501  0.5312 -0.4225
34997SOL    HW2 9354   6.243   3.331   9.661 -0.6189  0.6861 -1.4964
34998SOL     OW 9355  10.940   9.970   2.674 -0.0197  0.0301 -0.2660
34998SOL    HW1 9356  10.978   9.902   2.730 -0.6211 -0.6446 -0.6706
34998SOL    HW2 9357  10.912   9.924   2.595 -0.3564  0.7645 -0.5856
34999SOL     OW 9358   3.752   6.816   4.638  0.1651 -0.1161  0.2764
34999SOL    HW1 9359   3.671   6.821   4.690 -0.4674 -1.0669 -0.5778
34999SOL    HW2 9360   3.803   6.748   4.681  1.1209  1.3691  1.5912
35000SOL     OW 9361   4.550   4.722   6.012 -0.0597 -0.0943 -0.2900
35000SOL    HW1 9362   4.518   4.632   6.005  2.1647 -0.8522 -1.9422
35000SOL    HW2 9363   4.645   4.714   6.008  0.2099  2.3687 -0.5999
35001SOL     OW 9364   8.060   6.971   7.003  0.4081 -0.3583 -0.1016
35001SOL    HW1 9365   8.016   7.039   7.055 -0.2172 -1.0555  0.2917
35001SOL    HW2 9366   8.132   7.017   6.960  1.8326  0.0252  2.4602
35002SOL     OW 9367   4.256   5.425   2.024 -0.2092  0.1352 -1.1220
35002SOL    HW1 9368   4.182   5.417   1.964 -1.5555  2.3949  0.0881
35002SOL    HW2 9369   4.216   5.437   2.110  1.5073  1.8612 -0.4893
35003SOL     OW 9370   3.146   7.799  10.637 -0.2710  0.5035  0.2351
35003SOL    HW1 9371   3.082   7.849  10.688  0.0690 -0.5848  1.7924
35003SOL    HW2 9372   3.211   7.771  10.701  0.9861  0.3500 -1.0729
35004SOL     OW 9373   2.550   6.447   9.493 -0.5038  0.3483  0.2099
35004SOL    HW1 9374   2.589   6.365   9.523 -0.7263  0.5063  0.9643
35004SOL    HW2 9375   2.582   6.458   9.404  3.2628  1.6991  1.5104
35005SOL     OW 9376   7.807   9.847  10.463  0.3737  0.1832 -0.1028
35005SOL    HW1 9377   7.792   9.934  10.500 -0.5192 -0.1798  0.4111
35005SOL    HW2 9378   7.869   9.863  10.392  0.4880  1.1919  0.1972
35006SOL     OW 9379   8.055   8.223   4.895  0.1305 -0.4615 -0.1506
35006SOL    HW1 9380   7.995   8.149   4.889 -0.5349 -0.1949  2.0233
35006SOL    HW2 9381   8.120   8.208   4.828 -2.3956 -0.7247 -2.7509
35007SOL     OW 9382  11.023   5.280   0.126  0.5681 -0.2283  0.0966
35007SOL    HW1 9383  11.022   5.313   0.216  2.7912 -0.2115  0.1655
35007SOL    HW2 9384  11.085   5.336   0.080  1.1870 -1.6534 -0.8738
35008SOL     OW 9385   9.999   9.404   0.509  0.3971 -0.3342 -0.0029
35008SOL    HW1 9386  10.001   9.308   0.511  1.1325 -0.3167  0.3930
35008SOL    HW2 9387   9.968   9.429   0.597  0.1906 -0.2098 -0.1107
35009SOL     OW 9388   0.790   5.538   8.085 -0.1519  0.4507 -0.1006
35009SOL    HW1 9389   0.747   5.496   8.160  0.5152  0.4621  0.3009
35009SOL    HW2 9390   0.785   5.472   8.016  0.9819 -0.3946  0.5564
35010SOL     OW 9391   3.369   8.655   5.332  0.1317  0.0792  0.6295
35010SOL    HW1 9392   3.297   8.595   5.314  0.5663 -0.2786  0.0614
35010SOL    HW2 9393   3.448   8.603   5.318  0.5307  0.9508 -0.5084
35011SOL     OW 9394   5.443   5.208   9.292  0.2510 -0.6014 -0.2114
35011SOL    HW1 9395   5.424   5.145   9.361  0.5381 -1.4474 -0.8813
35011SOL    HW2 9396   5.396   5.174   9.215 -2.1636  1.6425  0.1287
35012SOL     OW 9397   7.875   4.181   6.839  0.0030  0.1606  0.2377
35012SOL    HW1 9398   7.852   4.179   6.932 -0.3260  1.5892  0.2213
35012SOL    HW2 9399   7.914   4.096   6.821 -3.0589 -1.5141  0.8542
35013SOL     OW 9400   8.402   7.640   3.013 -0.0574  0.2011  0.1860
35013SOL    HW1 9401   8.469   7.686   3.065 -1.5985 -0.2274  2.7520
35013SOL    HW2 9402   8.319   7.676   3.045 -1.1389  0.6100 -2.8042
35014SOL     OW 9403   1.498   3.316   5.344 -0.1631  0.3605  0.0350
35014SOL    HW1 9404   1.531   3.231   5.313 -0.3838 -0.5204  2.0416
35014SOL    HW2 9405   1.408   3.319   5.312 -0.5981 -0.8207  1.0627
35015SOL     OW 9406   4.352   8.687   6.391 -0.0623 -0.1543  0.3145
35015SOL    HW1 9407   4.276   8.673   6.447 -0.0410 -0.6631  0.2209
35015SOL    HW2 9408   4.318   8.732   6.314  0.0506  1.3293  1.1074
35016SOL     OW 9409   4.209   7.903   4.428 -0.7023  0.0694  0.4472
35016SOL    HW1 9410   4.300   7.922   4.449 -0.6562 -0.2374  0.5384
35016SOL    HW2 9411   4.204   7.912   4.333 -0.3233 -0.9116  0.3133
35017SOL     OW 9412   9.901   5.410   5.792  0.0884 -1.0062 -0.0711
35017SOL    HW1 9413   9.994   5.410   5.815  0.0055  1.2299  0.5142
35017SOL    HW2 9414   9.890   5.331   5.739  2.5873 -0.7340 -1.1870
35018SOL     OW 9415   0.894   1.211  10.470  0.3552  0.8702 -0.4396
35018SOL    HW1 9416   0.891   1.212  10.375 -0.3466 -0.9481 -0.4845
35018SOL    HW2 9417   0.966   1.269  10.493  1.6326  0.0452 -2.1492
35019SOL     OW 9418   4.549   0.451   5.031  0.1485 -0.0139 -0.1416
35019SOL    HW1 9419   4.595   0.416   4.954 -0.3561  0.7118 -0.7798
35019SOL    HW2 9420   4.541   0.544   5.013  0.4634  0.2526  1.0287
35020SOL     OW 9421   4.820   4.636   0.672  0.4587 -0.3199 -0.1101
35020SOL    HW1 9422   4.886   4.677   0.616  1.0903 -0.4936  0.4947
35020SOL    HW2 9423   4.844   4.663   0.760 -1.7388  1.6992 -0.0300
35021SOL     OW 9424   4.771   6.331   9.085 -0.0413  0.1060 -0.0369
35021SOL    HW1 9425   4.683   6.313   9.117 -0.0406 -2.6185 -1.2985
35021SOL    HW2 9426   4.828   6.312   9.159 -0.4427  0.9623  0.5010
35022SOL     OW 9427   3.553  10.635   0.862 -0.2791 -0.4002  0.2498
35022SOL    HW1 9428   3.521  10.710   0.813  0.2749 -0.6445 -0.5044
35022SOL    HW2 9429   3.488  10.621   0.931 -0.0114  1.2249  0.8730
35023SOL     OW 9430   8.319  10.316   0.497  0.5449 -0.7577 -0.3442
35023SOL    HW1 9431   8.233  10.355   0.507  0.6266 -1.0946  2.2679
35023SOL    HW2 9432   8.302  10.224   0.479  0.2803 -1.2166  1.9772
35024SOL     OW 9433   9.374   1.415   6.999 -0.4325 -0.1948 -0.1045
35024SOL    HW1 9434   9.394   1.419   7.093  1.8315  0.6660 -0.5541
35024SOL    HW2 9435   9.358   1.323   6.982  0.9454 -0.6446  0.8354
35025SOL     OW 9436   2.273   6.513   1.731  0.1532  0.3453 -0.1783
35025SOL    HW1 9437   2.201   6.489   1.673  1.0604 -0.4962 -0.9938
35025SOL    HW2 9438   2.244   6.486   1.818 -0.6158  0.2694 -0.4484
35026SOL     OW 9439  10.956   3.178   2.902  0.0469  0.5225  0.1745
35026SOL    HW1 9440  10.977   3.086   2.893  2.6252  1.0411  0.0730
35026SOL    HW2 9441  11.041   3.221   2.912 -1.1176  2.8078  0.9841
35027SOL     OW 9442   6.099   9.740   1.522  0.1943  0.2366  0.6805
35027SOL    HW1 9443   6.136   9.810   1.576  0.3916  0.5305  0.1680
35027SOL    HW2 9444   6.170   9.676   1.514  1.0401  1.3247 -1.2534
35028SOL     OW 9445   7.080   9.629  10.457  0.3937  0.0876  0.1331
35028SOL    HW1 9446   7.116   9.641  10.369  0.0251  0.1813 -0.0062
35028SOL    HW2 9447   7.142   9.570  10.501  1.4216  1.2723  0.3297
35029SOL     OW 9448   3.634   6.191   3.862 -0.4114  0.3100  0.0007
35029SOL    HW1 9449   3.640   6.223   3.952  0.7908  0.6266 -0.1764
35029SOL    HW2 9450   3.608   6.100   3.871 -2.1110  0.8194  0.5833
35030SOL     OW 9451   9.968   2.077   2.772 -0.2042  0.4124 -0.7906
35030SOL    HW1 9452   9.938   2.133   2.844 -0.1655  0.0457 -0.4883
35030SOL    HW2 9453  10.036   2.129   2.729  0.7543  0.0850  0.2894
35031SOL     OW 9454   8.098   2.430   3.432 -0.2265  0.2962  0.3419
35031SOL    HW1 9455   8.097   2.422   3.336 -0.7383 -1.2058  0.4421
35031SOL    HW2 9456   8.154   2.357   3.460  1.8341  2.0655  1.1220
35032SOL     OW 9457   4.624   5.064   9.158  0.0984  0.0398  0.1178
35032SOL    HW1 9458   4.590   5.122   9.090  2.5349  1.3929 -0.0621
35032SOL    HW2 9459   4.586   4.979   9.138  0.4445  0.4671 -2.7492
35033SOL     OW 9460   7.991   6.532   0.675 -0.7026  0.4544 -0.3447
35033SOL    HW1 9461   7.940   6.614   0.676  0.9745  1.5394  0.3064
35033SOL    HW2 9462   7.985   6.501   0.585 -1.8974  0.9256 -0.4543
35034SOL     OW 9463   3.439  10.639   0.532 -0.3102 -0.5494 -0.2014
35034SOL    HW1 9464   3.363  10.654   0.475  1.4625  0.7645 -2.4144
35034SOL    HW2 9465   3.464  10.726   0.562  1.3880 -0.7185 -1.0288
35035SOL     OW 9466   7.570   0.733   7.890 -0.0216  0.4743 -0.0375
35035SOL    HW1 9467   7.558   0.677   7.966 -1.8217  0.6301 -0.1641
35035SOL    HW2 9468   7.665   0.742   7.881  0.3810 -2.9808 -0.3640
35036SOL     OW 9469   2.693   1.487   8.979 -0.3469 -0.2814 -0.4783
35036SOL    HW1 9470   2.666   1.407   8.933 -0.5089  0.0844 -1.0291
35036SOL    HW2 9471   2.734   1.540   8.911 -0.0497  0.0187 -0.0669
35037SOL     OW 9472   7.045   4.760   3.963  0.2510 -0.4042  0.5952
35037SOL    HW1 9473   7.024   4.687   3.906 -0.1270 -0.4440  0.7839
35037SOL    HW2 9474   7.034   4.838   3.908 -1.4929 -0.3436  0.9844
35038SOL     OW 9475   4.874   9.732   1.306  0.3988  0.1431 -0.1436
35038SOL    HW1 9476   4.956   9.761   1.347 -0.8501  1.8802  1.2922
35038SOL    HW2 9477   4.892   9.734   1.212  2.4268 -0.9761  0.1619
35039SOL     OW 9478   5.734   7.459   3.421  0.1655  0.1669  0.2690
35039SOL    HW1 9479   5.659   7.514   3.444 -0.2376 -0.0023 -0.6276
35039SOL    HW2 9480   5.809   7.519   3.421  0.1072  0.2656  1.5384
35040SOL     OW 9481   1.104   6.889   1.967  0.1084  0.1242 -0.0819
35040SOL    HW1 9482   1.121   6.899   2.060  0.0850 -1.1417  0.0850
35040SOL    HW2 9483   1.173   6.829   1.936  1.1053  1.7881 -1.2332
35041SOL     OW 9484   3.302   9.467   0.659  0.4927 -0.4441  0.3460
35041SOL    HW1 9485   3.366   9.436   0.722  0.0967 -1.4150  0.2901
35041SOL    HW2 9486   3.263   9.545   0.700  1.8637  0.3081  0.2618
35042SOL     OW 9487   6.087   8.853   3.332 -0.2192  0.0525  0.4465
35042SOL    HW1 9488   6.139   8.778   3.304  0.2973  0.9252 -1.0524
35042SOL    HW2 9489   5.997   8.820   3.335 -0.0008 -0.6287 -0.2380
35043SOL     OW 9490   9.680   2.592   5.014  0.0828 -0.6986 -0.0557
35043SOL    HW1 9491   9.642   2.573   4.929  0.5808  1.5136 -0.8361
35043SOL    HW2 9492   9.605   2.595   5.073 -0.4261 -0.8334 -0.6863
35044SOL     OW 9493   8.574   2.160   6.771  0.1887 -0.0288 -0.4827
35044SOL    HW1 9494   8.611   2.248   6.775 -1.4213  0.7332 -1.2535
35044SOL    HW2 9495   8.518   2.154   6.848 -2.4848  1.0447 -2.1797
35045SOL     OW 9496   6.617   1.046   4.435 -0.5745  0.4091  0.3076
35045SOL    HW1 9497   6.551   1.082   4.376 -1.8239  2.1542  2.6198
35045SOL    HW2 9498   6.701   1.067   4.393 -1.3707  2.9133 -0.2119
35046SOL     OW 9499   9.242   0.788   9.644  0.3768 -0.4954 -0.3183
35046SOL    HW1 9500   9.211   0.709   9.600 -1.0325 -0.4968  0.6088
35046SOL    HW2 9501   9.167   0.817   9.696  1.5232  0.3056  0.9533
35047SOL     OW 9502   5.552   9.928   8.118  0.4001 -0.0740 -0.1579
35047SOL    HW1 9503   5.471   9.947   8.165  0.5698 -1.0198  0.5580
35047SOL    HW2 9504   5.526   9.918   8.027 -0.0731  0.9187 -0.1499
35048SOL     OW 9505   3.972   4.801   8.768 -0.3998 -0.4279  0.1456
35048SOL    HW1 9506   3.940   4.713   8.787 -0.2652 -0.2767  1.1392
35048SOL    HW2 9507   4.056   4.788   8.725 -0.7902 -0.7970 -0.5063
35049SOL     OW 9508   6.431   6.242   4.790  0.3103  0.6417 -0.0478
35049SOL    HW1 9509   6.406   6.335   4.788  1.8508  1.0714 -0.1794
35049SOL    HW2 9510   6.519   6.241   4.827  0.1310 -0.8255  0.3940
35050SOL     OW 9511   7.624   4.995   5.774 -0.4760  0.0504 -0.0624
35050SOL    HW1 9512   7.639   5.083   5.809  0.8399 -0.5254  0.9122
35050SOL    HW2 9513   7.634   4.937   5.850 -1.2268 -0.9533 -0.7049
35051SOL     OW 9514   4.022   1.348   0.636 -0.0984 -0.1720  0.0138
35051SOL    HW1 9515   4.040   1.282   0.569 -0.1046  2.3967 -2.7319
35051SOL    HW2 9516   3.931   1.373   0.622 -0.3528 -0.0922  1.5504
35052SOL     OW 9517  10.200   3.888   8.208 -0.0451 -0.0983 -0.4149
35052SOL    HW1 9518  10.141   3.962   8.196 -0.0440  0.0118  0.1999
35052SOL    HW2 9519  10.286   3.927   8.223  0.1491 -0.2541 -1.1176
35053SOL     OW 9520   8.242   6.861   4.313 -0.3430 -0.0138  0.0298
35053SOL    HW1 9521   8.207   6.807   4.384  0.2234 -1.8960 -1.0357
35053SOL    HW2 9522   8.166   6.909   4.280 -1.0464 -0.7902  0.4776
35054SOL     OW 9523   7.846   0.515   2.702 -0.4978 -0.7755 -0.0467
35054SOL    HW1 9524   7.925   0.554   2.740  0.6096 -0.5403 -2.4434
35054SOL    HW2 9525   7.786   0.507   2.776  0.8290  1.4078  1.3795
35055SOL     OW 9526   2.256   3.570   4.351  0.4758  0.5536 -0.2488
35055SOL    HW1 9527   2.252   3.662   4.374  1.5943  0.5980 -0.1434
35055SOL    HW2 9528   2.252   3.523   4.434 -2.4901  0.3594 -0.4240
35056SOL     OW 9529   7.616   2.472   4.769  0.3459 -0.1419  0.2220
35056SOL    HW1 9530   7.625   2.559   4.809  1.2540 -0.1181  0.0007
35056SOL    HW2 9531   7.610   2.412   4.843 -0.5722  0.1243  0.3783
35057SOL     OW 9532   1.080   3.827   7.528  0.3574  0.1883 -0.3439
35057SOL    HW1 9533   1.171   3.851   7.542  0.9349 -0.3657 -2.6835
35057SOL    HW2 9534   1.067   3.750   7.583  0.6572  1.4004  1.5269
35058SOL     OW 9535  10.138   0.485   7.551  0.2573  0.7535 -0.4929
35058SOL    HW1 9536  10.206   0.523   7.605 -1.5333  0.6119  2.0262
35058SOL    HW2 9537  10.058   0.493   7.603 -2.3672  3.5729 -4.3534
35059SOL     OW 9538  10.347   0.684  10.600  0.4753  0.4198  0.2797
35059SOL    HW1 9539  10.411   0.748  10.632  0.5003 -0.0527  1.2169
35059SOL    HW2 9540  10.390   0.599  10.612  1.1465  0.2489 -2.5386
35060SOL     OW 9541   7.601   7.899  10.094 -0.3054  0.4399  0.1349
35060SOL    HW1 9542   7.597   7.834  10.024  0.9598 -0.8988  1.2218
35060SOL    HW2 9543   7.684   7.945  10.079  0.3563 -0.3885  1.1761
35061SOL     OW 9544   4.801   5.153   2.476 -0.2907 -0.3934  0.4096
35061SOL    HW1 9545   4.882   5.165   2.525  0.3357 -1.5221 -0.2973
35061SOL    HW2 9546   4.732   5.188   2.532  1.0668  5.4297 -0.9403
35062SOL     OW 9547   9.446   4.457   5.325 -0.1443  0.0018 -0.1697
35062SOL    HW1 9548   9.471   4.542   5.287 -0.6767 -0.0575 -0.6779
35062SOL    HW2 9549   9.394   4.415   5.256 -0.7001 -0.3280  0.4428
35063SOL     OW 9550   5.750  10.592   6.162 -0.0545 -0.4419 -0.2940
35063SOL    HW1 9551   5.702  10.615   6.083 -0.2496 -1.0775 -0.3676
35063SOL    HW2 9552   5.685  10.555   6.221 -0.0103  0.5168  0.3876
35064SOL     OW 9553   9.682   6.597   1.410  0.1722  0.3221 -0.0163
35064SOL    HW1 9554   9.733   6.577   1.488 -0.4653 -2.9534 -0.3058
35064SOL    HW2 9555   9.724   6.546   1.340 -1.7213 -0.1469 -0.8716
35065SOL     OW 9556   9.881   0.937   2.774  0.3671  0.3486  0.0777
35065SOL    HW1 9557   9.862   0.945   2.867 -1.2065  1.6160 -0.2934
35065SOL    HW2 9558   9.922   1.020   2.750 -1.8494  1.2576 -0.8618
35066SOL     OW 9559   5.385   2.379   2.946  0.1400  0.0400  0.5322
35066SOL    HW1 9560   5.407   2.465   2.911 -0.4950 -0.6591 -1.7213
35066SOL    HW2 9561   5.374   2.323   2.869  0.2282 -2.0049  1.9107
35067SOL     OW 9562   4.803   7.536   2.547  0.1911 -0.3919  0.3272
35067SOL    HW1 9563   4.813   7.490   2.630  1.0266  0.0388  0.4748
35067SOL    HW2 9564   4.874   7.503   2.492  0.7683  0.6730  0.4173
35068SOL     OW 9565   4.262   0.534   5.162 -0.1183  0.1924  0.1995
35068SOL    HW1 9566   4.168   0.523   5.151 -0.4768  3.0200 -0.3806
35068SOL    HW2 9567   4.301   0.464   5.109 -1.9154  1.0838 -2.5279
35069SOL     OW 9568   6.421   5.485   9.148  0.8464 -0.4537 -0.6895
35069SOL    HW1 9569   6.343   5.500   9.096  1.3349 -1.1506 -1.6664
35069SOL    HW2 9570   6.448   5.396   9.124  1.1263 -0.7630  0.7125
35070SOL     OW 9571   1.832   6.492   6.931 -0.1667 -0.1107 -0.3553
35070SOL    HW1 9572   1.787   6.458   7.009 -0.0621  0.5098 -0.0197
35070SOL    HW2 9573   1.891   6.560   6.965  3.4569 -2.9571 -0.2533
35071SOL     OW 9574   6.909   5.816   8.719  0.0655  0.0675  0.1685
35071SOL    HW1 9575   6.951   5.849   8.639  1.7608 -3.7628 -0.7655
35071SOL    HW2 9576   6.837   5.761   8.687 -0.7316  0.3442  1.4207
35072SOL     OW 9577   1.722   7.043   8.903 -0.3523 -0.4024  0.2043
35072SOL    HW1 9578   1.750   6.961   8.944  1.6100  0.5548  0.9375
35072SOL    HW2 9579   1.802   7.096   8.900 -0.9374  0.4865 -2.7678
35073SOL     OW 9580   9.258   4.284   9.996  0.1107 -0.3280 -0.0139
35073SOL    HW1 9581   9.282   4.323   9.911 -0.1769  0.5329  0.2897
35073SOL    HW2 9582   9.323   4.319  10.057 -0.7948  0.5466  0.4663
35074SOL     OW 9583   1.836   8.424   7.179  0.0145 -0.0567  0.3534
35074SOL    HW1 9584   1.873   8.511   7.165 -1.3078  0.1898 -2.1258
35074SOL    HW2 9585   1.741   8.436   7.171 -0.3605 -1.4082  2.0929
35075SOL     OW 9586  10.489   1.793   2.829  0.0801  0.4483  0.8324
35075SOL    HW1 9587  10.555   1.725   2.830 -0.8154 -0.6764 -2.3773
35075SOL    HW2 9588  10.437   1.778   2.907  1.2866 -1.0894  1.3781
35076SOL     OW 9589   7.878   0.345   2.482 -0.0879 -0.7027 -0.1371
35076SOL    HW1 9590   7.971   0.324   2.483  0.3832  0.8741 -2.4067
35076SOL    HW2 9591   7.866   0.406   2.554  0.4189 -1.6201  0.7423
35077SOL     OW 9592   4.943   8.780   6.987  0.4498  0.5202  0.2665
35077SOL    HW1 9593   4.872   8.843   6.981  0.4352  0.3291 -2.5451
35077SOL    HW2 9594   4.899   8.696   7.005  0.2528  0.8251  1.2971
35078SOL     OW 9595   2.855   0.972   0.552  0.0103 -0.2040  0.7285
35078SOL    HW1 9596   2.854   1.064   0.579 -1.1903  0.4229 -1.2909
35078SOL    HW2 9597   2.876   0.974   0.459 -0.3790 -1.9629  0.5712
35079SOL     OW 9598   4.821   8.040   2.164  0.3418 -0.2913 -0.2236
35079SOL    HW1 9599   4.782   8.011   2.246 -0.2320 -1.8659 -1.0067
35079SOL    HW2 9600   4.912   8.058   2.186 -0.0465  0.2907  0.9581
35080SOL     OW 9601  10.458   1.999   3.318 -0.0888 -0.7958 -0.3106
35080SOL    HW1 9602  10.537   1.996   3.264  0.1287 -1.7033  0.0476
35080SOL    HW2 9603  10.386   1.989   3.255  0.0664  0.1403 -0.6488
35081SOL     OW 9604   2.226   4.310   2.901 -0.8417  0.0796 -0.2830
35081SOL    HW1 9605   2.211   4.308   2.806 -0.2555  2.0026 -0.4628
35081SOL    HW2 9606   2.156   4.364   2.936 -0.4573  0.2533  0.2382
35082SOL     OW 9607   4.233   9.056   1.076  0.1627  0.2994  0.4592
35082SOL    HW1 9608   4.273   9.094   0.998  2.6285  0.9592  1.9622
35082SOL    HW2 9609   4.254   9.116   1.147  1.8559 -2.3791  2.4301
35083SOL     OW 9610   6.682   6.837   4.268 -0.4861  0.0017 -0.6774
35083SOL    HW1 9611   6.722   6.796   4.192 -0.1126 -1.0137  0.0526
35083SOL    HW2 9612   6.705   6.781   4.341 -1.1723  0.7457  0.1385
35084SOL     OW 9613   3.527   8.917   1.376  0.3881 -0.1260 -0.6535
35084SOL    HW1 9614   3.444   8.963   1.383 -0.5850 -1.8447 -0.3160
35084SOL    HW2 9615   3.588   8.968   1.429 -1.3027 -0.6669  1.9862
35085SOL     OW 9616   5.221   9.027   6.472  0.3292  0.7312 -0.0806
35085SOL    HW1 9617   5.281   9.001   6.402 -0.9274 -1.6219 -0.3824
35085SOL    HW2 9618   5.146   9.065   6.427  0.1565  0.5765  0.0729
35086SOL     OW 9619   1.690  11.061   2.100 -0.5070  0.4737 -0.4101
35086SOL    HW1 9620   1.635  11.136   2.119 -1.5901 -0.5171  0.4683
35086SOL    HW2 9621   1.689  11.009   2.180 -0.7033 -1.0455 -1.3594
35087SOL     OW 9622   3.653   7.029   2.857  0.2262  0.4282 -0.2008
35087SOL    HW1 9623   3.683   6.938   2.858 -0.4307  0.2081  1.0941
35087SOL    HW2 9624   3.666   7.057   2.766  1.7059 -0.5198 -0.3118
35088SOL     OW 9625   6.352   1.690   3.808  0.5454  0.0788 -0.5585
35088SOL    HW1 9626   6.418   1.645   3.861  1.6037  0.4910 -1.4784
35088SOL    HW2 9627   6.368   1.659   3.719  0.3351  1.1691 -0.9855
35089SOL     OW 9628   0.085  10.104   3.142 -0.3247 -0.0548 -0.5569
35089SOL    HW1 9629   0.013  10.059   3.099 -1.2103  1.7016 -0.9972
35089SOL    HW2 9630   0.119  10.165   3.076 -1.6145  2.6043  1.0709
35090SOL     OW 9631   9.214  10.233   1.697  0.3700  0.2881 -0.8664
35090SOL    HW1 9632   9.298  10.265   1.729 -0.6040  0.9517  1.1975
35090SOL    HW2 9633   9.165  10.312   1.676  0.4564 -0.1095 -2.7486
35091SOL     OW 9634   8.050   7.399   1.170  0.3518 -0.1492 -0.3164
35091SOL    HW1 9635   8.003   7.370   1.248  2.1898 -0.4096  0.7693
35091SOL    HW2 9636   8.009   7.352   1.098  0.7962 -2.6117  0.9277
35092SOL     OW 9637   9.964   7.706  10.485 -0.8381  0.3605  0.1449
35092SOL    HW1 9638  10.040   7.666  10.529 -1.8666 -0.3020  1.3884
35092SOL    HW2 9639   9.911   7.632  10.455 -1.1903  0.8131 -0.3686
35093SOL     OW 9640   0.714   2.839   3.860  0.2729  0.3105  0.3996
35093SOL    HW1 9641   0.807   2.825   3.845  0.3632  0.0643  1.1248
35093SOL    HW2 9642   0.706   2.932   3.881  0.7671 -0.1375  2.9608
35094SOL     OW 9643   1.197   8.517  10.414  0.2545 -0.2416 -0.2389
35094SOL    HW1 9644   1.189   8.468  10.332  1.3590  1.1654 -1.2533
35094SOL    HW2 9645   1.288   8.505  10.440  0.5067  1.1327 -0.4365
35095SOL     OW 9646   3.025   3.896   0.841 -0.1201 -0.2990 -0.2245
35095SOL    HW1 9647   3.108   3.900   0.793  0.2236 -0.2316  0.3590
35095SOL    HW2 9648   2.958   3.895   0.773  0.3469 -0.0150 -0.7033
35096SOL     OW 9649   6.912   2.986   4.654 -0.5098 -0.3421 -0.5136
35096SOL    HW1 9650   6.936   2.975   4.746 -1.0897  0.8436 -0.2090
35096SOL    HW2 9651   6.849   2.916   4.638 -0.6261 -0.3792  0.0764
35097SOL     OW 9652   0.358  10.522   5.929  0.0018 -0.6145 -0.7244
35097SOL    HW1 9653   0.402  10.582   5.989  1.9226 -1.1594 -1.4973
35097SOL    HW2 9654   0.317  10.579   5.864  0.7924 -0.0716 -0.7731
35098SOL     OW 9655   4.673   1.966   4.955  0.2204  0.4423  0.5700
35098SOL    HW1 9656   4.762   1.971   4.920 -0.0106 -2.1205 -0.6739
35098SOL    HW2 9657   4.682   1.914   5.036 -0.0192  1.1068  1.0296
35099SOL     OW 9658   7.919   1.194  10.079 -0.4095 -0.2945  0.2510
35099SOL    HW1 9659   7.906   1.103  10.052  1.1070 -1.1694  2.1722
35099SOL    HW2 9660   7.980   1.188  10.153 -2.1530  2.0584  2.0454
35100SOL     OW 9661   6.372   8.249   2.217  0.3193  0.1403 -0.0587
35100SOL    HW1 9662   6.465   8.241   2.195  0.6624  1.2949  0.8694
35100SOL    HW2 9663   6.372   8.292   2.302 -1.0763  0.1616 -0.0589
35101SOL     OW 9664   6.563   5.902   0.239 -0.4973 -0.2463 -0.1971
35101SOL    HW1 9665   6.604   5.844   0.174  0.7606  0.6307 -0.2180
35101SOL    HW2 9666   6.470   5.898   0.218 -0.0266  1.1219 -3.0276
35102SOL     OW 9667  10.601   2.015   5.374  0.1066  0.0009  0.0435
35102SOL    HW1 9668  10.640   2.030   5.288  0.0375  0.9657  0.1669
35102SOL    HW2 9669  10.675   2.014   5.435 -0.0006  1.6330  0.2523
35103SOL     OW 9670   4.397   9.199   8.614 -0.6923 -1.0353  0.4527
35103SOL    HW1 9671   4.369   9.151   8.692 -2.1282 -2.1043 -0.6998
35103SOL    HW2 9672   4.316   9.222   8.569  0.0165  1.3023  0.2352
35104SOL     OW 9673   6.581   5.327   2.776 -0.5541 -0.7602 -0.6107
35104SOL    HW1 9674   6.628   5.282   2.706 -1.8798 -1.0364 -1.3613
35104SOL    HW2 9675   6.649   5.356   2.836  0.5164 -1.6410 -1.3607
35105SOL     OW 9676   5.180   2.242   4.537  0.5043 -0.1384  0.0739
35105SOL    HW1 9677   5.227   2.166   4.571  0.3776 -0.2892 -0.0838
35105SOL    HW2 9678   5.138   2.281   4.613  0.8816 -0.0043  0.2156
35106SOL     OW 9679   6.901   8.911  10.126  0.2538 -0.3479  0.2819
35106SOL    HW1 9680   6.962   8.890  10.197  0.7283  1.8632  0.5913
35106SOL    HW2 9681   6.841   8.976  10.164 -0.9131 -0.7981 -0.6992
35107SOL     OW 9682  10.989   9.627   1.472 -0.7946 -0.3487 -0.1979
35107SOL    HW1 9683  10.963   9.535   1.472  0.1274 -0.6189  0.6454
35107SOL    HW2 9684  10.982   9.653   1.380 -2.2188 -0.9121 -0.2738
35108SOL     OW 9685  10.145   9.419   1.872 -0.1803 -0.2434  0.7083
35108SOL    HW1 9686  10.240   9.427   1.868 -0.1554 -0.7720 -0.0829
35108SOL    HW2 9687  10.119   9.472   1.947  0.7898 -0.5582  1.2891
35109SOL     OW 9688   9.264   6.578   6.303 -0.2857  0.2040  0.5602
35109SOL    HW1 9689   9.259   6.613   6.214 -0.8820 -0.5081  0.2930
35109SOL    HW2 9690   9.354   6.548   6.312  0.3916  2.2413  0.9917
35110SOL     OW 9691   5.503   3.564   3.989 -0.3045  0.1697  0.5207
35110SOL    HW1 9692   5.517   3.513   4.068 -1.1596 -0.8348  0.0472
35110SOL    HW2 9693   5.412   3.594   3.996 -0.3235  0.2426  0.0131
35111SOL     OW 9694   5.212   5.071   3.739 -0.2859 -0.2996 -0.1860
35111SOL    HW1 9695   5.265   5.067   3.659 -0.5464 -0.7303 -0.3347
35111SOL    HW2 9696   5.124   5.049   3.711 -0.1121 -1.9261  0.4663
35112SOL     OW 9697   3.424   4.313   7.650 -0.3237  0.4100  0.1813
35112SOL    HW1 9698   3.500   4.288   7.597 -1.1652 -2.5141  0.1896
35112SOL    HW2 9699   3.362   4.350   7.587 -0.3169 -0.6466 -0.4601
35113SOL     OW 9700   5.199   9.905   6.652 -0.4375 -0.2057  0.0360
35113SOL    HW1 9701   5.256   9.981   6.641  0.1826 -0.5007  1.0456
35113SOL    HW2 9702   5.123   9.924   6.597 -0.3073  1.1687  0.2820
35114SOL     OW 9703   1.229   1.197   2.335  1.1092 -0.1828 -0.0372
35114SOL    HW1 9704   1.150   1.245   2.363  0.4012 -1.4546  0.2365
35114SOL    HW2 9705   1.271   1.255   2.272 -0.8173 -0.0550 -1.2932
35115SOL     OW 9706  10.227   7.596   5.310 -0.3890 -0.2797 -0.5181
35115SOL    HW1 9707  10.228   7.644   5.227 -0.4460  0.3530 -0.1545
35115SOL    HW2 9708  10.272   7.654   5.372  1.0740 -1.3999 -0.4655
35116SOL     OW 9709   8.693   8.571  10.419  0.2408 -0.0241  0.0641
35116SOL    HW1 9710   8.722   8.606  10.335  0.8480  0.8704  0.6243
35116SOL    HW2 9711   8.616   8.519  10.398 -0.5289  1.4272 -0.8448
35117SOL     OW 9712   9.731   9.121   8.914 -0.6899 -0.3345  0.0290
35117SOL    HW1 9713   9.764   9.088   8.831 -2.0250  1.3119 -1.2425
35117SOL    HW2 9714   9.731   9.216   8.903  0.1727 -0.0189  2.3658
35118SOL     OW 9715   3.873   8.412   2.265 -0.6056  0.1364 -0.1370
35118SOL    HW1 9716   3.960   8.373   2.256 -0.2909  0.9425 -0.7271
35118SOL    HW2 9717   3.823   8.348   2.316  0.8677  0.5057  1.9101
35119SOL     OW 9718  10.584   2.986   4.613 -0.5095  0.0005 -0.4779
35119SOL    HW1 9719  10.522   2.987   4.540 -1.2405 -1.9072  0.0684
35119SOL    HW2 9720  10.530   2.999   4.691 -0.1538 -1.0458 -0.0420
35120SOL     OW 9721   6.502   0.948   9.052  0.2281 -0.1633 -0.4855
35120SOL    HW1 9722   6.475   1.035   9.022 -0.2634 -0.3169 -0.4908
35120SOL    HW2 9723   6.421   0.896   9.054  0.0535  0.0835  2.0123
35121SOL     OW 9724   6.557   5.103   2.003 -0.3591  0.3453 -0.4101
35121SOL    HW1 9725   6.565   5.008   1.995 -0.0433  0.4455 -1.3407
35121SOL    HW2 9726   6.616   5.138   1.937  0.8516  1.2266  1.0693
35122SOL     OW 9727   6.237   7.380   6.416 -0.6765  0.2069  0.2662
35122SOL    HW1 9728   6.230   7.453   6.478  2.1940 -0.0216  1.0110
35122SOL    HW2 9729   6.179   7.404   6.343 -0.8859  2.5316  1.1244
35123SOL     OW 9730   7.211   7.958   6.555  0.1117 -0.1691  0.1379
35123SOL    HW1 9731   7.252   7.871   6.553  0.0656 -0.1889 -1.7897
35123SOL    HW2 9732   7.118   7.939   6.568  0.1480 -0.4080  0.0710
35124SOL     OW 9733   2.423  10.038   6.233  0.0718 -0.0274  0.1749
35124SOL    HW1 9734   2.457  10.122   6.264  0.6767 -0.2499  0.1185
35124SOL    HW2 9735   2.335  10.032   6.272  0.9686 -0.5196  2.2399
35125SOL     OW 9736   5.212   5.154   9.700  0.4102 -0.3268 -0.0411
35125SOL    HW1 9737   5.119   5.168   9.715  0.6772  0.3327  1.0964
35125SOL    HW2 9738   5.245   5.114   9.780  1.2371  0.1145 -0.1379
35126SOL     OW 9739   7.124   2.679   4.556 -0.3758  0.2932 -0.6247
35126SOL    HW1 9740   7.111   2.683   4.651  1.8352 -0.7525 -0.2317
35126SOL    HW2 9741   7.123   2.586   4.536  2.7204  0.2421 -1.0082
35127SOL     OW 9742   0.002   6.916   1.566 -0.0347  0.0024 -0.0096
35127SOL    HW1 9743  -0.039   6.896   1.650  1.7030 -1.0610  0.6417
35127SOL    HW2 9744  -0.001   6.833   1.517 -1.5691  0.7602 -1.2706
35128SOL     OW 9745  10.543  10.546  10.835  0.4056 -0.1889  0.3100
35128SOL    HW1 9746  10.556  10.523  10.743 -0.5811  0.3454  0.0233
35128SOL    HW2 9747  10.579  10.634  10.843 -0.1621  0.0600  0.2414
35129SOL     OW 9748   8.680   9.738  10.386  0.0560  0.1202  0.6125
35129SOL    HW1 9749   8.670   9.644  10.400 -1.9982  0.4641  1.9127
35129SOL    HW2 9750   8.706   9.747  10.295  0.3929 -1.6993  0.5049
35130SOL     OW 9751   5.791  10.124   1.163  0.1765  0.2187  0.1642
35130SOL    HW1 9752   5.836  10.051   1.121  2.0765  0.7526  1.1823
35130SOL    HW2 9753   5.860  10.175   1.204 -1.3159  1.4153  1.3098
35131SOL     OW 9754   0.527  10.231   0.926  0.1390 -0.3455  0.0054
35131SOL    HW1 9755   0.474  10.271   0.994  0.6652  0.3666  0.0064
35131SOL    HW2 9756   0.472  10.235   0.847 -0.3445 -0.8838  0.3096
35132SOL     OW 9757   1.995   1.162   8.485 -0.5078 -0.0071 -0.2823
35132SOL    HW1 9758   2.053   1.182   8.412  0.4358 -1.8134 -0.0944
35132SOL    HW2 9759   2.046   1.183   8.563 -0.3280 -0.9444 -0.1285
35133SOL     OW 9760   6.446   8.755  10.104  0.2380  0.0302 -0.4582
35133SOL    HW1 9761   6.431   8.794  10.190  0.3224 -0.2659 -0.3088
35133SOL    HW2 9762   6.511   8.687  10.119  1.9982  1.4964 -1.1607
35134SOL     OW 9763   8.690   7.431   6.143 -0.0258 -0.3735  0.2042
35134SOL    HW1 9764   8.717   7.374   6.071 -0.6965 -2.3905  1.4979
35134SOL    HW2 9765   8.595   7.437   6.135 -0.1224 -0.7825  1.0440
35135SOL     OW 9766   3.603   4.085   2.959 -0.7763 -0.3824  0.4878
35135SOL    HW1 9767   3.653   4.165   2.973 -1.7645  0.2816  0.3751
35135SOL    HW2 9768   3.651   4.017   3.005  0.6122  0.0763 -0.2433
35136SOL     OW 9769   1.612   5.403   6.889 -0.7145  0.0470  0.0250
35136SOL    HW1 9770   1.616   5.348   6.968 -0.2995 -0.7359 -0.5331
35136SOL    HW2 9771   1.519   5.427   6.882 -0.4103  2.3043  2.2038
35137SOL     OW 9772   6.161  10.433   9.769  0.2286 -0.0415  0.1285
35137SOL    HW1 9773   6.205  10.382   9.838 -0.1665 -1.1431 -0.4004
35137SOL    HW2 9774   6.084  10.380   9.747  0.6014  0.0538 -1.4988
35138SOL     OW 9775   6.182   6.293   3.046  0.1255  0.9232  0.0644
35138SOL    HW1 9776   6.123   6.220   3.027  0.2877  0.5993  0.7703
35138SOL    HW2 9777   6.230   6.307   2.964  1.6398 -1.1987  0.5313
35139SOL     OW 9778   2.621   3.684   1.141  0.0794 -0.1215 -1.0182
35139SOL    HW1 9779   2.694   3.624   1.158  1.9965  1.8529 -1.9089
35139SOL    HW2 9780   2.552   3.627   1.107  0.8029 -2.1990  0.7359
35140SOL     OW 9781   2.024   2.594   7.577 -0.0305 -0.1384 -0.0721
35140SOL    HW1 9782   1.993   2.528   7.515 -1.1026 -0.5334  0.8463
35140SOL    HW2 9783   2.068   2.543   7.646  0.9756  0.2761 -0.3975
35141SOL     OW 9784   1.116  10.115   4.616 -0.4057  0.3704  0.2227
35141SOL    HW1 9785   1.169  10.195   4.615 -1.3419  1.0139  0.1799
35141SOL    HW2 9786   1.048  10.133   4.681 -1.7672  0.3943 -1.1485
35142SOL     OW 9787   5.815  10.425   1.905  0.0069 -0.1909  0.5036
35142SOL    HW1 9788   5.798  10.337   1.938 -1.8569  0.4786  1.4951
35142SOL    HW2 9789   5.730  10.456   1.876  0.9391  0.6860 -1.4411
35143SOL     OW 9790   1.324  10.311   0.742 -0.4049 -0.8799 -0.6505
35143SOL    HW1 9791   1.243  10.360   0.730 -0.2487 -0.2044  0.8372
35143SOL    HW2 9792   1.365  10.350   0.819  0.7302 -2.0238 -0.6339
35144SOL     OW 9793   2.186   6.612   3.487 -0.3515  0.3610  0.2103
35144SOL    HW1 9794   2.124   6.565   3.432  0.7076 -0.9557  0.0929
35144SOL    HW2 9795   2.203   6.694   3.440 -0.5150 -0.1370 -0.7359
35145SOL     OW 9796   4.547   5.778   2.825  0.1402  0.5046  0.2731
35145SOL    HW1 9797   4.628   5.759   2.777  0.2580  1.4169  0.0765
35145SOL    HW2 9798   4.564   5.863   2.866 -0.8181  0.8418 -0.0041
35146SOL     OW 9799   4.590   2.610   2.442 -0.3328  0.3304 -0.1500
35146SOL    HW1 9800   4.517   2.549   2.451 -1.7393  2.0279  0.2989
35146SOL    HW2 9801   4.611   2.636   2.532 -0.1062  0.9210 -0.3696
35147SOL     OW 9802   7.893   7.810   0.406  0.0545 -0.1223  0.3032
35147SOL    HW1 9803   7.932   7.731   0.367  0.4683 -0.2092  0.8731
35147SOL    HW2 9804   7.931   7.882   0.356 -0.3609 -0.2777 -0.2539
35148SOL     OW 9805   0.807   2.594   1.506 -0.1818 -0.0009 -0.3699
35148SOL    HW1 9806   0.796   2.654   1.432 -0.0516  0.4500 -0.0317
35148SOL    HW2 9807   0.718   2.574   1.535 -0.2924 -1.1954 -1.4333
35149SOL     OW 9808   3.336   1.638   5.115 -0.4921  0.2958 -0.4857
35149SOL    HW1 9809   3.374   1.572   5.058 -1.4058  1.5056 -2.6146
35149SOL    HW2 9810   3.345   1.602   5.203 -0.7145 -2.5235 -1.5141
35150SOL     OW 9811   9.564   9.500   7.752  0.2336 -0.0232 -0.9604
35150SOL    HW1 9812   9.650   9.488   7.713  0.9277 -1.2576  0.8558
35150SOL    HW2 9813   9.511   9.429   7.717  0.6260 -0.6459 -0.3093
35151SOL     OW 9814   8.551   3.217   9.712  0.1028  0.3222 -0.2040
35151SOL    HW1 9815   8.486   3.185   9.650  0.2606  2.0516 -1.3229
35151SOL    HW2 9816   8.545   3.157   9.786 -3.0084  0.6091 -0.0962
35152SOL     OW 9817   3.652   4.381   2.378  0.2954  0.4204 -0.2059
35152SOL    HW1 9818   3.619   4.323   2.309 -1.4401 -1.1635  1.8308
35152SOL    HW2 9819   3.599   4.460   2.370 -0.2108  0.0647 -0.3989
35153SOL     OW 9820  10.318   7.219  11.056 -0.0633  0.2193  0.0480
35153SOL    HW1 9821  10.273   7.248  11.136  0.3410 -0.8399  0.6844
35153SOL    HW2 9822  10.247   7.200  10.994 -0.7136 -2.8789  1.5176
35154SOL     OW 9823   7.625   0.997   4.663  0.2074  0.2548 -0.2443
35154SOL    HW1 9824   7.587   1.020   4.747 -1.0153 -1.1189 -0.3666
35154SOL    HW2 9825   7.719   0.992   4.679 -0.1344 -1.8909  1.5807
35155SOL     OW 9826   7.982   4.708   2.696 -0.4116 -0.4076  0.0950
35155SOL    HW1 9827   8.026   4.646   2.755  1.9437  1.8584  0.9510
35155SOL    HW2 9828   7.977   4.789   2.747 -1.3648  0.7241 -1.7094
35156SOL     OW 9829   6.930   1.488   1.148 -0.0371  0.1474  0.1587
35156SOL    HW1 9830   7.005   1.462   1.094 -1.0518  0.1999 -1.3239
35156SOL    HW2 9831   6.874   1.411   1.151 -1.2607  0.9506 -1.1259
35157SOL     OW 9832   3.807   6.636   0.950 -0.2215  0.1275  0.0791
35157SOL    HW1 9833   3.850   6.719   0.969  1.0266 -0.4363 -0.1986
35157SOL    HW2 9834   3.845   6.574   1.012 -0.7635 -0.3504 -0.0521
35158SOL     OW 9835   1.198   2.613   5.709  0.6345 -0.4720  0.6678
35158SOL    HW1 9836   1.269   2.677   5.715  1.4391 -1.2185 -0.3780
35158SOL    HW2 9837   1.232   2.535   5.752  0.6299 -0.9739 -0.2079
35159SOL     OW 9838   2.810   1.842   3.824  0.0773  0.2541 -0.0858
35159SOL    HW1 9839   2.850   1.778   3.883 -0.6706  1.0845  1.3963
35159SOL    HW2 9840   2.735   1.796   3.786  0.5699 -0.2972 -0.3881
35160SOL     OW 9841   3.919   1.233   4.431 -0.4802  0.4072  0.4196
35160SOL    HW1 9842   3.832   1.257   4.463 -0.4216 -0.0878  0.9727
35160SOL    HW2 9843   3.914   1.244   4.336 -1.3681 -0.3066  0.3688
35161SOL     OW 9844   4.873   1.654   8.072  0.1660  0.2734  0.2779
35161SOL    HW1 9845   4.914   1.731   8.032  0.2065  0.0700 -0.0807
35161SOL    HW2 9846   4.883   1.585   8.006  0.2124 -0.0631  0.6326
35162SOL     OW 9847   4.313   2.025  10.061 -0.8599 -0.4637  0.4030
35162SOL    HW1 9848   4.238   2.063  10.107 -1.7162 -2.4066  0.6979
35162SOL    HW2 9849   4.388   2.048  10.115 -0.9782  2.6204 -0.5392
35163SOL     OW 9850   6.945   9.243   5.621 -0.1028 -0.0942 -0.0048
35163SOL    HW1 9851   6.918   9.329   5.589 -0.4844 -0.4891 -0.7644
35163SOL    HW2 9852   7.033   9.230   5.584 -1.0936 -1.1498 -2.1324
35164SOL     OW 9853   0.191   2.976   1.399  0.2185  0.1969  0.4365
35164SOL    HW1 9854   0.166   2.910   1.335  0.7907  0.9564 -0.6038
35164SOL    HW2 9855   0.287   2.982   1.392  0.1985  0.9955  0.6362
35165SOL     OW 9856   4.049   7.187   6.319 -0.0954 -0.2700 -0.2296
35165SOL    HW1 9857   4.101   7.139   6.255  0.6125  0.5401 -0.2808
35165SOL    HW2 9858   4.111   7.211   6.387 -0.3562  0.8729 -0.3805
35166SOL     OW 9859   2.553  10.006   9.569  0.2712  0.3878  0.1501
35166SOL    HW1 9860   2.636  10.051   9.584 -0.1310  1.7262 -1.2702
35166SOL    HW2 9861   2.488  10.077   9.565 -0.5561 -0.3940 -1.1335
35167SOL     OW 9862   8.705   1.924  10.464  0.2793 -0.5507  0.6500
35167SOL    HW1 9863   8.677   1.836  10.489 -0.6878 -0.1180  1.1569
35167SOL    HW2 9864   8.800   1.921  10.468  0.2350 -1.3380  1.4963
35168SOL     OW 9865   9.499   0.949   7.457 -0.1920 -0.0804 -0.0107
35168SOL    HW1 9866   9.512   0.867   7.410  0.1927 -0.3029  0.4831
35168SOL    HW2 9867   9.453   0.924   7.537  1.3710 -0.0472  0.9289
35169SOL     OW 9868   6.255   6.205   5.459 -0.4243 -0.1341  0.0280
35169SOL    HW1 9869   6.272   6.199   5.553  0.5889  2.1828  0.0739
35169SOL    HW2 9870   6.338   6.181   5.418  0.3896  2.5325 -0.0696
35170SOL     OW 9871   9.084   4.330   3.668  0.9210  0.0796 -0.4930
35170SOL    HW1 9872   9.016   4.365   3.726  0.4504 -1.1614 -0.2641
35170SOL    HW2 9873   9.079   4.384   3.589 -1.8363 -1.2552 -1.3788
35171SOL     OW 9874  10.697   7.488   6.734  0.1408  0.5786 -0.6495
35171SOL    HW1 9875  10.753   7.505   6.659  1.0652 -1.0140 -0.3744
35171SOL    HW2 9876  10.622   7.441   6.698 -1.7826  3.7512 -1.2136
35172SOL     OW 9877   9.690   3.275   8.886  0.2720 -0.3849  0.1790
35172SOL    HW1 9878   9.746   3.312   8.954 -0.1804 -0.5956  0.6773
35172SOL    HW2 9879   9.750   3.234   8.824  0.6105 -2.9730  2.0730
35173SOL     OW 9880   6.561   2.511   8.852  0.7504  0.2460  0.1588
35173SOL    HW1 9881   6.543   2.500   8.758  1.4172 -0.9709  0.1559
35173SOL    HW2 9882   6.495   2.574   8.882  0.2389  0.3005 -1.0267
35174SOL     OW 9883   5.067   5.067   5.859 -0.0044 -0.0035 -0.7713
35174SOL    HW1 9884   5.077   5.124   5.782 -1.5440  0.8342 -0.3893
35174SOL    HW2 9885   4.981   5.027   5.848 -0.6367  0.7902  0.9192
35175SOL     OW 9886  10.111   3.902  10.713 -0.3567 -0.0037  0.0102
35175SOL    HW1 9887  10.140   3.825  10.664  0.5443 -0.8342  1.7483
35175SOL    HW2 9888  10.143   3.977  10.661  1.2710 -0.8552 -0.2984
35176SOL     OW 9889   9.474  10.298   1.838 -0.4836  0.0319  0.0494
35176SOL    HW1 9890   9.498  10.388   1.857 -1.4679 -0.0318  1.7460
35176SOL    HW2 9891   9.557  10.251   1.835  0.1098  1.0939 -1.6747
35177SOL     OW 9892   7.959   9.808   7.699  0.7309 -0.0570  0.3155
35177SOL    HW1 9893   7.944   9.728   7.749  0.8216  0.9340  1.9842
35177SOL    HW2 9894   7.981   9.777   7.611 -3.1504 -1.7768 -0.2388
35178SOL     OW 9895   4.807   5.025   3.395 -0.5597 -0.8164  0.5665
35178SOL    HW1 9896   4.846   5.001   3.311  0.1427 -1.3193  1.0279
35178SOL    HW2 9897   4.726   5.070   3.371 -0.1205 -0.4982 -0.3914
35179SOL     OW 9898   0.653  10.431   8.731  0.1901 -0.0949  0.8713
35179SOL    HW1 9899   0.568  10.388   8.740 -0.0482  0.2715  0.3796
35179SOL    HW2 9900   0.714  10.360   8.713 -0.1294 -0.2771  0.5009
35180SOL     OW 9901   4.280   9.718   3.616  0.0397 -0.2937 -0.1495
35180SOL    HW1 9902   4.203   9.707   3.560 -0.6623  1.5005  0.4125
35180SOL    HW2 9903   4.253   9.781   3.682  2.5479  1.8561 -1.0204
35181SOL     OW 9904   9.533   0.467   1.111  0.5263  0.5896  0.2589
35181SOL    HW1 9905   9.562   0.457   1.201  1.6087 -0.1307 -0.1435
35181SOL    HW2 9906   9.613   0.455   1.059 -0.2399  0.0403 -0.8324
35182SOL     OW 9907   1.567   9.071   2.501 -0.0835 -0.3525 -0.0416
35182SOL    HW1 9908   1.641   9.027   2.544  0.6837  0.4568 -0.4980
35182SOL    HW2 9909   1.582   9.164   2.518 -0.3152 -0.0934 -1.1910
35183SOL     OW 9910   4.040   4.744   3.821  0.1186  0.3765  0.6626
35183SOL    HW1 9911   4.041   4.818   3.761 -1.7187 -0.7217 -0.8187
35183SOL    HW2 9912   4.121   4.697   3.804  0.0663  0.6214 -0.2735
35184SOL     OW 9913   6.638  10.619   0.143  0.9241 -0.3606 -0.3771
35184SOL    HW1 9914   6.693  10.658   0.211  1.1144  0.0109 -0.7415
35184SOL    HW2 9915   6.655  10.672   0.066  1.5706 -1.4684 -1.0198
35185SOL     OW 9916   6.812   7.598   4.031 -0.2019  0.1533  0.1875
35185SOL    HW1 9917   6.826   7.512   3.990  0.0625  0.5757 -0.6344
35185SOL    HW2 9918   6.786   7.578   4.121  0.5444 -0.7742  0.2099
35186SOL     OW 9919   0.576   1.814   0.178  0.3611 -0.2244  0.1051
35186SOL    HW1 9920   0.659   1.826   0.132  1.6235 -1.3471  1.9134
35186SOL    HW2 9921   0.602   1.796   0.269 -1.8767 -0.4988  0.7524
35187SOL     OW 9922  10.599  11.002   1.028  0.0975 -0.6165 -0.0876
35187SOL    HW1 9923  10.520  11.045   0.995 -0.1579 -0.0516  1.2081
35187SOL    HW2 9924  10.598  11.019   1.122  1.1114 -1.6758  0.1330
35188SOL     OW 9925   7.391   2.493  11.088  0.7222  0.1365  0.0228
35188SOL    HW1 9926   7.481   2.463  11.102  0.4018 -1.3637 -0.9434
35188SOL    HW2 9927   7.364   2.450  11.007 -1.1129 -0.0195  0.6850
35189SOL     OW 9928   8.417   0.074   8.878 -0.3403  0.1803 -0.2404
35189SOL    HW1 9929   8.488   0.023   8.840 -0.2247 -0.8048  1.2312
35189SOL    HW2 9930   8.347   0.070   8.813  0.1444 -0.7550 -0.7235
35190SOL     OW 9931   3.810   7.937   9.978 -0.4280 -0.0594 -0.3058
35190SOL    HW1 9932   3.851   7.852   9.969 -0.0262  0.1923 -0.8950
35190SOL    HW2 9933   3.750   7.927  10.052 -1.5697 -1.3205 -1.3405
35191SOL     OW 9934   8.439   5.604   5.130 -0.4404 -0.1422  0.5799
35191SOL    HW1 9935   8.526   5.581   5.162  0.1852  0.5479 -0.5439
35191SOL    HW2 9936   8.409   5.526   5.084  0.1094  0.0091 -0.0585
35192SOL     OW 9937   0.554   8.927  10.748  0.0531  0.6946  0.6015
35192SOL    HW1 9938   0.610   9.004  10.742 -0.2371  0.8171 -1.1069
35192SOL    HW2 9939   0.465   8.962  10.755 -0.0579  0.5259  0.0782
35193SOL     OW 9940   7.673   0.935   9.424  0.1784 -0.2428  0.3924
35193SOL    HW1 9941   7.582   0.907   9.418  0.0584  0.3332 -0.8515
35193SOL    HW2 9942   7.674   0.999   9.495 -0.4507 -0.0649  0.2511
35194SOL     OW 9943   3.733   1.030   3.583 -0.9105 -0.0578  0.2978
35194SOL    HW1 9944   3.731   1.104   3.644 -1.5891 -0.6711  1.0441
35194SOL    HW2 9945   3.646   1.030   3.543 -1.2357 -0.9724  0.9662
35195SOL     OW 9946   6.848   8.052   9.551  0.0684  0.0914 -0.1298
35195SOL    HW1 9947   6.846   8.079   9.643 -0.8749  0.0556 -0.1307
35195SOL    HW2 9948   6.881   8.130   9.505  1.9056 -0.3386  0.3586
35196SOL     OW 9949   6.321   6.553   6.078 -0.2871 -0.2025 -0.7368
35196SOL    HW1 9950   6.376   6.545   6.000  2.4093 -1.3994  1.1405
35196SOL    HW2 9951   6.340   6.474   6.128 -2.3978  0.2378  0.8746
35197SOL     OW 9952   2.566  10.481   4.278 -0.3684  0.6495  0.4017
35197SOL    HW1 9953   2.491  10.449   4.227  1.5218 -0.5887 -1.7692
35197SOL    HW2 9954   2.552  10.445   4.365 -2.8469  1.4261  0.4272
35198SOL     OW 9955   2.135   2.876   5.438  0.2650 -0.3960 -0.3137
35198SOL    HW1 9956   2.061   2.884   5.498 -0.9793 -0.0017 -1.8155
35198SOL    HW2 9957   2.135   2.959   5.390  3.9766  1.2056  2.0316
35199SOL     OW 9958   5.552   6.960   3.671  0.2874 -0.0506  0.2779
35199SOL    HW1 9959   5.565   6.963   3.576 -1.0729 -0.3234  0.0721
35199SOL    HW2 9960   5.587   6.876   3.698 -0.4240 -0.4978 -0.1689
35200SOL     OW 9961   6.473  10.217   5.099 -0.2556 -0.2614 -0.1798
35200SOL    HW1 9962   6.396  10.246   5.051 -0.1505  0.4495  0.0727
35200SOL    HW2 9963   6.518  10.159   5.038 -1.2060 -1.0259 -0.1779
35201SOL     OW 9964   1.055   2.405   6.682 -0.8035  0.1954  0.1277
35201SOL    HW1 9965   1.040   2.499   6.676  0.6349  0.4183 -0.4395
35201SOL    HW2 9966   1.023   2.370   6.599  0.8292  0.5537 -0.7133
35202SOL     OW 9967   3.484   1.634   3.678 -0.7697 -0.5177  0.2442
35202SOL    HW1 9968   3.404   1.685   3.663 -0.8825 -0.8086 -0.1461
35202SOL    HW2 9969   3.454   1.545   3.696 -0.5164 -0.7742 -0.5372
35203SOL     OW 9970   6.139   5.984   4.149  0.0273 -0.0657  0.4453
35203SOL    HW1 9971   6.093   6.047   4.206  0.8675  0.0448  1.0155
35203SOL    HW2 9972   6.102   5.999   4.062  0.2394  1.2490  0.5662
35204SOL     OW 9973   5.873   9.686   7.816  0.7596  0.4739  0.4992
35204SOL    HW1 9974   5.829   9.602   7.824  1.3271  0.0836 -0.3542
35204SOL    HW2 9975   5.894   9.711   7.906 -1.4575  0.8387  0.9683
35205SOL     OW 9976   3.947   6.833   9.245  0.0996 -0.2964 -0.2791
35205SOL    HW1 9977   4.037   6.842   9.215 -0.1291  0.2783 -0.7993
35205SOL    HW2 9978   3.896   6.889   9.187 -0.3310  0.9868  1.2731
35206SOL     OW 9979   9.064   1.404   2.843  0.1838 -0.2537 -0.0461
35206SOL    HW1 9980   9.136   1.359   2.887 -0.0793 -0.8853 -0.2507
35206SOL    HW2 9981   9.024   1.337   2.787  0.2278  0.4113 -0.8998
35207SOL     OW 9982   1.215   3.011   8.671 -0.2418 -0.4671 -0.2533
35207SOL    HW1 9983   1.206   2.971   8.758 -0.9483 -0.1000 -0.1444
35207SOL    HW2 9984   1.249   3.098   8.689  2.0040 -1.2319 -0.5441
35208SOL     OW 9985   2.153   2.844   5.136  0.3526  0.2190  0.2609
35208SOL    HW1 9986   2.183   2.754   5.150  1.2380  0.5111  0.2993
35208SOL    HW2 9987   2.233   2.893   5.119 -0.2365  0.7728 -1.0236
35209SOL     OW 9988  10.324   4.586   0.223  0.0422  0.1380  0.6162
35209SOL    HW1 9989  10.341   4.680   0.229  0.4967  0.0477  0.8192
35209SOL    HW2 9990  10.233   4.579   0.197  0.5656  0.6728 -1.5575
35210SOL     OW 9991   6.953   2.140   2.089 -0.3325 -0.0965 -0.2631
35210SOL    HW1 9992   7.027   2.089   2.055 -1.8575 -2.0894 -0.8213
35210SOL    HW2 9993   6.894   2.148   2.014 -1.2275  0.3782  0.4778
35211SOL     OW 9994  10.722   7.413   4.068 -0.2356  0.4745  0.0245
35211SOL    HW1 9995  10.720   7.473   4.142 -1.2328 -0.1188  0.4950
35211SOL    HW2 9996  10.791   7.448   4.011  0.7325  0.7897  1.3459
35212SOL     OW 9997   6.097  10.133   8.356  0.4095  0.1465  0.0748
35212SOL    HW1 9998   6.125  10.100   8.442 -2.5730  1.3867  1.6888
35212SOL    HW2 9999   6.082  10.054   8.304  2.2827 -0.6422  0.6256
35213SOL     OW10000   6.088   1.541   4.464 -0.2554 -0.1331 -0.0675
35213SOL    HW110001   6.097   1.633   4.488 -1.7618  0.2379 -0.8233
35213SOL    HW210002   6.145   1.494   4.527  0.1507  1.2468  0.6337
35214SOL     OW10003   6.653   8.564  10.145 -0.1020 -0.0201 -0.2837
35214SOL    HW110004   6.667   8.486  10.198 -0.3951 -0.0890 -0.3086
35214SOL    HW210005   6.729   8.568  10.087 -0.0843 -0.2799 -0.2758
35215SOL     OW10006   6.657   6.367   5.506  0.0026 -0.9679 -0.1398
35215SOL    HW110007   6.725   6.429   5.481  0.7406 -2.0572 -0.9474
35215SOL    HW210008   6.582   6.421   5.530  0.4068  0.2208 -1.4319
35216SOL     OW10009   7.572   8.851  10.895  0.4705 -0.5687  0.1564
35216SOL    HW110010   7.642   8.876  10.955  0.9834 -0.1319 -0.6014
35216SOL    HW210011   7.531   8.933  10.869 -0.5864 -0.8505  0.8894
35217SOL     OW10012   7.837   3.096   4.695  0.4640 -0.5324 -0.2145
35217SOL    HW110013   7.796   3.010   4.687 -1.5370 -0.1012  3.4324
35217SOL    HW210014   7.861   3.103   4.787  0.4817  2.8458 -0.3384
35218SOL     OW10015   8.459   9.965   8.060  1.0096 -0.6213 -0.8074
35218SOL    HW110016   8.506  10.048   8.068 -0.0263 -0.0120 -0.7705
35218SOL    HW210017   8.525   9.898   8.077  1.8287  0.2019 -0.6512
35219SOL     OW10018   8.676   8.456   2.407 -0.0291  0.0671 -1.2290
35219SOL    HW110019   8.584   8.466   2.381  0.0715  0.0814 -1.5855
35219SOL    HW210020   8.721   8.528   2.363 -0.0777  0.9811  0.1515
35220SOL     OW10021   2.912   3.146   6.508 -0.7740  0.0443  0.3353
35220SOL    HW110022   2.829   3.098   6.505 -1.7011  1.5810  0.2325
35220SOL    HW210023   2.909   3.194   6.591 -0.4305  0.8370 -0.0953
35221SOL     OW10024   9.509   8.028   6.012  0.3313  0.1082  0.7279
35221SOL    HW110025   9.481   8.103   5.959  1.8170  0.1699 -0.0087
35221SOL    HW210026   9.592   8.056   6.051  0.2839 -0.7087  1.4385
35222SOL     OW10027   4.560   8.743   2.212 -0.2738  0.5253  0.2304
35222SOL    HW110028   4.643   8.710   2.246 -0.1140 -0.0699 -0.7107
35222SOL    HW210029   4.572   8.838   2.208  0.2163  0.4765  0.4566
35223SOL     OW10030   3.145   9.093   0.242  0.1464 -0.0585 -0.2252
35223SOL    HW110031   3.073   9.114   0.301 -0.2425 -2.2324  0.1724
35223SOL    HW210032   3.117   9.013   0.197  1.6524 -0.0842 -1.2099
35224SOL     OW10033   4.448   2.175   6.787 -0.1647 -0.3852 -0.7187
35224SOL    HW110034   4.468   2.084   6.811 -0.1947 -0.2767 -0.2774
35224SOL    HW210035   4.434   2.220   6.870  0.3881  0.1526 -0.9060
35225SOL     OW10036   6.653   0.480   2.494  0.6869 -0.2389 -0.9698
35225SOL    HW110037   6.642   0.385   2.484  0.6073 -0.4103  0.4949
35225SOL    HW210038   6.607   0.500   2.576  1.4303  0.9261 -0.8223
35226SOL     OW10039   1.632   7.631   0.099 -0.0860  0.6247  0.3182
35226SOL    HW110040   1.665   7.706   0.149 -0.5332  2.3690 -1.8599
35226SOL    HW210041   1.540   7.623   0.126 -0.1066  1.0345  0.3839
35227SOL     OW10042   0.278   9.569   3.491 -0.0717  0.4822  0.4846
35227SOL    HW110043   0.286   9.661   3.466  0.5654 -0.0212 -1.3408
35227SOL    HW210044   0.360   9.530   3.461 -0.7884 -0.8724  0.2311
35228SOL     OW10045   7.162   2.863   9.753 -0.3187 -0.2449  0.1883
35228SOL    HW110046   7.243   2.820   9.727  0.5144  1.1976  0.3068
35228SOL    HW210047   7.144   2.926   9.682  0.2324  1.4503  1.4833
35229SOL     OW10048   0.717   7.096   3.724 -0.5715 -0.6330  0.0038
35229SOL    HW110049   0.677   7.054   3.648 -1.5132 -0.2339  0.2713
35229SOL    HW210050   0.766   7.170   3.688  0.0461 -1.1980 -0.3367
35230SOL     OW10051   4.105  10.947   5.119  0.2899 -0.2935  0.0076
35230SOL    HW110052   4.095  10.853   5.107 -2.9244 -0.1515  0.5830
35230SOL    HW210053   4.093  10.983   5.031  0.5947 -0.3839 -0.0704
35231SOL     OW10054   8.086   4.092   7.428 -0.0458  0.5165 -0.3007
35231SOL    HW110055   8.106   4.029   7.358  0.1006  0.5219 -0.2642
35231SOL    HW210056   8.171   4.113   7.466 -0.1314  0.4563 -0.0728
35232SOL     OW10057   9.471   0.138   8.539  0.4332  0.0159 -0.3607
35232SOL    HW110058   9.533   0.127   8.467  0.2003  0.8520 -0.7119
35232SOL    HW210059   9.450   0.232   8.537 -1.0603 -0.3005 -0.4482
35233SOL     OW10060   6.031   5.931  10.798 -0.2730  0.1095 -0.3215
35233SOL    HW110061   5.938   5.938  10.820  0.1477  1.9315  1.0276
35233SOL    HW210062   6.046   6.001  10.734  0.2762  0.1432 -0.1593
35234SOL     OW10063   4.861   9.917   5.890  0.0446  0.8288 -0.3126
35234SOL    HW110064   4.944   9.887   5.855  0.1390 -0.4915  0.9486
35234SOL    HW210065   4.795   9.869   5.841  0.0883  0.6682 -0.2128
35235SOL     OW10066   3.934   1.415   9.904 -0.1330 -0.1576 -0.0659
35235SOL    HW110067   3.903   1.327   9.923  2.1876 -1.3521 -1.4013
35235SOL    HW210068   3.872   1.450   9.840 -0.8381 -0.9585  0.1658
35236SOL     OW10069   9.582   1.713   9.299  0.1157 -0.0942  0.2651
35236SOL    HW110070   9.495   1.676   9.291  0.3177 -0.7149  0.9016
35236SOL    HW210071   9.568   1.802   9.331 -0.2734 -0.2530  0.5400
35237SOL     OW10072   2.033   0.477   8.529 -0.4756  0.3143 -0.0039
35237SOL    HW110073   2.001   0.406   8.473 -0.7550  0.1547  0.3504
35237SOL    HW210074   1.975   0.550   8.510  0.7796  0.9607 -1.5316
35238SOL     OW10075   6.745  10.795   7.306 -0.1262  0.0714 -0.4124
35238SOL    HW110076   6.675  10.841   7.260 -2.1171 -0.7428  1.6199
35238SOL    HW210077   6.755  10.713   7.258 -0.4349  0.2792 -0.8402
35239SOL     OW10078   4.339   7.937   3.410 -0.6485  0.1456  0.0925
35239SOL    HW110079   4.255   7.891   3.406  0.7821 -2.5482 -1.4798
35239SOL    HW210080   4.340   7.991   3.331 -0.9194  0.2047  0.1274
35240SOL     OW10081   2.746   0.975   3.948  0.1847 -0.1435 -0.1701
35240SOL    HW110082   2.779   0.946   4.033  2.3509  0.9853 -0.5647
35240SOL    HW210083   2.685   1.046   3.969  0.6491  0.0844  0.4449
35241SOL     OW10084   6.400   5.387   7.255 -0.0863  0.5463  0.1791
35241SOL    HW110085   6.422   5.322   7.322 -0.9839 -0.2368 -0.2620
35241SOL    HW210086   6.464   5.456   7.268  1.8321 -1.0568 -0.2452
35242SOL     OW10087   9.395   8.248   5.764  0.2842  0.4493 -0.1251
35242SOL    HW110088   9.473   8.255   5.708  0.8404 -1.8589  0.2381
35242SOL    HW210089   9.322   8.247   5.703  0.8549 -1.5906 -0.8761
35243SOL     OW10090   0.531  10.912   9.179  0.0907  0.7051 -0.3775
35243SOL    HW110091   0.546  10.832   9.229 -0.2041  1.2529  0.6144
35243SOL    HW210092   0.584  10.978   9.223  1.4965  0.7733 -2.0682
35244SOL     OW10093   7.669   7.160   0.115  0.1362  0.3184  0.5951
35244SOL    HW110094   7.646   7.091   0.053 -0.0238  1.0170 -0.1296
35244SOL    HW210095   7.760   7.141   0.139  0.1322 -0.0676  0.3091
35245SOL     OW10096   7.139   2.027   4.735  0.4254 -0.0555 -0.2373
35245SOL    HW110097   7.159   2.105   4.788 -1.2904  0.9418 -0.9618
35245SOL    HW210098   7.224   1.986   4.721  1.1793  0.7320  1.6019
35246SOL     OW10099  10.503   5.133   6.260  0.5690 -0.0204 -0.5020
35246SOL    HW110100  10.532   5.219   6.230  1.6327  0.2477  1.1857
35246SOL    HW210101  10.409   5.143   6.274  0.6466  0.8043 -0.5062
35247SOL     OW10102   0.808   9.898   1.693  0.1285  0.6161 -0.4913
35247SOL    HW110103   0.724   9.941   1.677 -0.4897  0.7149  2.3616
35247SOL    HW210104   0.866   9.933   1.625 -1.0583  3.8911 -0.0342
35248SOL     OW10105   8.764  10.523   4.758  0.1010  0.4210  0.0987
35248SOL    HW110106   8.825  10.450   4.748  0.3277  0.1372  2.7280
35248SOL    HW210107   8.681  10.490   4.724  0.8562  0.0325 -1.4586
35249SOL     OW10108   6.805  10.170   4.545  0.1066 -0.1151 -0.4909
35249SOL    HW110109   6.759  10.159   4.628  1.6735  0.3356  0.4847
35249SOL    HW210110   6.835  10.261   4.547  1.7604 -0.6351 -0.6823
35250SOL     OW10111   7.219   4.909   9.683 -0.2859  0.2334  0.7913
35250SOL    HW110112   7.182   4.939   9.601 -1.1356  1.1089  1.4674
35250SOL    HW210113   7.298   4.962   9.694 -0.2551  0.2239  0.6205
35251SOL     OW10114  10.756   9.686  11.082 -0.1124  0.2717  0.2105
35251SOL    HW110115  10.754   9.782  11.088 -0.1609  0.2601  0.3635
35251SOL    HW210116  10.722   9.656  11.166  1.4438  0.1155  0.8240
35252SOL     OW10117   7.965   3.607   2.530 -0.0404  0.3662 -0.0873
35252SOL    HW110118   8.053   3.606   2.567 -0.0266  0.8508 -0.0978
35252SOL    HW210119   7.910   3.569   2.598  0.2706 -0.5683 -0.3412
35253SOL     OW10120   5.565   3.988   2.981 -0.6073 -0.1620  0.1789
35253SOL    HW110121   5.469   3.993   2.986 -0.6729  1.5338 -1.5382
35253SOL    HW210122   5.590   4.066   2.933  1.6999 -0.4133  0.8718
35254SOL     OW10123   0.364   2.143   7.781  0.0219  0.0709  0.3020
35254SOL    HW110124   0.396   2.078   7.845 -0.7071 -1.5815 -0.9282
35254SOL    HW210125   0.426   2.215   7.787  1.0343 -0.8452  1.5559
35255SOL     OW10126   4.498   2.826   8.782 -0.3410 -0.4650  0.1110
35255SOL    HW110127   4.455   2.803   8.699  0.0226  0.0421 -0.2284
35255SOL    HW210128   4.583   2.782   8.777  0.2761  0.7170 -0.4500
35256SOL     OW10129   0.464   3.677  10.410 -0.7302 -0.0848 -0.3088
35256SOL    HW110130   0.513   3.723  10.478  1.7850 -2.6897 -0.1909
35256SOL    HW210131   0.395   3.632  10.458 -0.9662  0.6237  0.0417
35257SOL     OW10132   1.931   9.093   9.233  0.0035 -0.2211 -0.5029
35257SOL    HW110133   1.942   9.002   9.207 -1.1418 -0.1131 -1.4608
35257SOL    HW210134   1.986   9.103   9.311  1.3087 -1.3273 -1.2494
35258SOL     OW10135  10.343   0.669   5.753 -0.2135  0.5384 -0.3970
35258SOL    HW110136  10.359   0.668   5.847 -0.4690  0.3901 -0.3531
35258SOL    HW210137  10.389   0.592   5.720 -0.4553  0.3654 -0.3352
35259SOL     OW10138   9.054   3.380   8.729  0.4195 -0.2732 -0.1747
35259SOL    HW110139   9.007   3.337   8.658  0.2073 -0.4814  0.0861
35259SOL    HW210140   9.073   3.309   8.791  1.3532 -0.2481 -0.4175
35260SOL     OW10141   3.469  10.531   4.404 -0.3923  0.2641 -0.3995
35260SOL    HW110142   3.550  10.559   4.361 -0.6307  0.3659 -0.7861
35260SOL    HW210143   3.403  10.536   4.335 -0.5751 -0.5987 -0.2963
35261SOL     OW10144   4.270  10.112   2.446  0.3505  0.2954 -0.2686
35261SOL    HW110145   4.225  10.166   2.512  1.3727  0.2678  0.4738
35261SOL    HW210146   4.319  10.175   2.393 -0.2514  0.2915 -0.8377
35262SOL     OW10147   8.103   7.180   6.224  0.0497 -0.0356  0.5126
35262SOL    HW110148   8.083   7.099   6.177  1.5186 -0.6526  0.9094
35262SOL    HW210149   8.069   7.165   6.312 -0.7176  0.2472  0.2700
35263SOL     OW10150   8.340   3.494   3.664  0.2027  0.3864 -0.0149
35263SOL    HW110151   8.273   3.426   3.660  1.5117 -1.1719  2.3287
35263SOL    HW210152   8.308   3.555   3.730  0.6000  0.2365  0.3125
35264SOL     OW10153  10.378   3.843   1.247  0.0962  0.1053  0.0287
35264SOL    HW110154  10.315   3.771   1.253  1.4545 -1.0978  0.3200
35264SOL    HW210155  10.384   3.861   1.153  0.3245 -0.7025 -0.1163
35265SOL     OW10156   0.386   2.967   7.190 -0.5789 -0.3003  0.0942
35265SOL    HW110157   0.302   3.013   7.194 -1.1790 -1.2982 -0.7544
35265SOL    HW210158   0.435   3.002   7.264 -0.2769  3.1048 -1.5176
35266SOL     OW10159  10.107   6.883   3.393 -0.0706  0.6638 -0.0782
35266SOL    HW110160  10.057   6.803   3.378  1.3582 -0.2442 -0.2105
35266SOL    HW210161  10.086   6.908   3.483  0.9555 -0.9879  0.6603
35267SOL     OW10162   3.009   1.537   4.824 -0.4340 -0.3668  0.1616
35267SOL    HW110163   2.960   1.589   4.761 -1.1419 -1.0720  0.1186
35267SOL    HW210164   3.038   1.599   4.891  0.8124  0.4963 -1.1239
35268SOL     OW10165   0.950  10.897   9.457  0.1269  0.0037  0.8566
35268SOL    HW110166   0.904  10.871   9.537  0.4279  0.8814  1.3193
35268SOL    HW210167   0.946  10.992   9.456 -1.4021 -0.0141 -1.0844
35269SOL     OW10168   3.488   2.829   3.906  0.0183 -0.0361  0.2462
35269SOL    HW110169   3.431   2.815   3.982 -0.0271 -1.3323 -0.0169
35269SOL    HW210170   3.572   2.855   3.945 -0.1330 -0.2337  0.7163
35270SOL     OW10171   9.788   0.627   6.471 -0.2039 -0.0910 -0.3928
35270SOL    HW110172   9.752   0.589   6.551 -1.5384  1.3513 -0.2583
35270SOL    HW210173   9.722   0.608   6.404  0.2765 -0.1316 -0.8576
35271SOL     OW10174   6.401   3.915   4.081 -0.7345  0.0244  0.5777
35271SOL    HW110175   6.377   3.938   4.170 -0.3363  1.8209  0.2461
35271SOL    HW210176   6.493   3.888   4.086 -1.0802 -1.1836  0.8915
35272SOL     OW10177   5.825   4.354   7.275 -0.0832  0.0777  0.4519
35272SOL    HW110178   5.892   4.286   7.269  0.4002  0.3722  1.9843
35272SOL    HW210179   5.865   4.430   7.231  0.4382  0.1381  1.0197
35273SOL     OW10180   0.338   0.957   1.691 -0.6342 -0.6409 -0.9530
35273SOL    HW110181   0.283   1.020   1.646 -0.3618 -0.0542 -0.4801
35273SOL    HW210182   0.372   1.005   1.767 -0.3821 -1.3370 -0.6185
35274SOL     OW10183   1.823   3.989   3.027  0.7838  0.0016  0.8301
35274SOL    HW110184   1.848   4.074   2.993  0.0228  0.0136  0.2690
35274SOL    HW210185   1.870   3.981   3.110 -0.5107  1.7324  1.7958
35275SOL     OW10186   5.005   1.953   7.397  0.6411  0.2520  0.7439
35275SOL    HW110187   5.039   1.952   7.307  0.1278 -2.6924  0.4711
35275SOL    HW210188   4.956   2.035   7.403  2.4844  1.5688 -0.9113
35276SOL     OW10189   8.574   3.505   0.190  0.3836 -0.4852  0.0207
35276SOL    HW110190   8.615   3.497   0.276 -0.1710 -0.6257  0.2789
35276SOL    HW210191   8.502   3.566   0.203  0.2724 -0.5386 -0.3347
35277SOL     OW10192   8.764   7.809   3.661 -0.3975 -0.0384 -0.0580
35277SOL    HW110193   8.772   7.813   3.757  1.3131 -2.4131 -0.0066
35277SOL    HW210194   8.854   7.816   3.629 -0.9769  1.0173 -1.5337
35278SOL     OW10195   1.771   0.016   5.888 -0.3875  0.5124 -0.5546
35278SOL    HW110196   1.754  -0.074   5.913 -2.2052  0.1133 -2.9374
35278SOL    HW210197   1.851   0.039   5.936 -0.0938 -2.1897  0.4268
35279SOL     OW10198   9.664   3.648   9.894  0.6959  0.6591  0.2607
35279SOL    HW110199   9.640   3.555   9.902 -0.3045  0.9575  1.0773
35279SOL    HW210200   9.585   3.689   9.859  0.4998  1.4510  1.5565
35280SOL     OW10201   1.367   8.316   8.067 -0.0167  0.2681 -0.5179
35280SOL    HW110202   1.416   8.395   8.043  0.2593  0.1696 -0.2943
35280SOL    HW210203   1.416   8.244   8.027 -1.5329  0.3570 -2.6756
35281SOL     OW10204   0.342   0.534   9.475  0.1018  0.3068  0.3189
35281SOL    HW110205   0.300   0.481   9.407  0.0993 -0.6920  1.0722
35281SOL    HW210206   0.288   0.521   9.553  1.0419  0.0567  0.9513
35282SOL     OW10207   3.863   5.878  10.854 -0.5571 -1.0554  0.6805
35282SOL    HW110208   3.919   5.840  10.786 -0.3230 -0.1037  0.3249
35282SOL    HW210209   3.806   5.939  10.807 -0.2411 -0.2132  1.3566
35283SOL     OW10210  10.352   3.412   1.218 -0.1151  0.8073 -0.0726
35283SOL    HW110211  10.363   3.369   1.303 -1.8202  0.7854  0.1713
35283SOL    HW210212  10.311   3.347   1.163 -0.9594  1.4861 -0.2688
35284SOL     OW10213   8.933  10.415   3.161  0.0813 -0.3087  0.0123
35284SOL    HW110214   8.981  10.497   3.166  0.3102 -0.3675 -1.0599
35284SOL    HW210215   8.961  10.366   3.239 -0.0077  0.5870  0.6188
35285SOL     OW10216   4.006   8.953   4.961  0.1559 -0.3198  0.5082
35285SOL    HW110217   4.045   9.038   4.979 -0.4632  0.1414 -0.2593
35285SOL    HW210218   4.020   8.902   5.041  1.1418  0.2631  0.7189
35286SOL     OW10219   4.824   6.813   4.891 -0.0275  0.1003  0.0511
35286SOL    HW110220   4.820   6.818   4.986 -1.2618 -0.8789  0.0764
35286SOL    HW210221   4.743   6.856   4.862 -0.2282 -0.6294 -0.4986
35287SOL     OW10222   4.055   7.327   6.692 -0.4093  0.3032  0.5614
35287SOL    HW110223   3.981   7.370   6.736  0.7669  1.3122  1.6071
35287SOL    HW210224   4.102   7.282   6.762  0.3298  0.2042  0.0128
35288SOL     OW10225   6.573   0.007   6.954  0.6574  0.1651  0.5395
35288SOL    HW110226   6.641  -0.026   6.895  1.0470  0.3899  0.8600
35288SOL    HW210227   6.490  -0.016   6.910  0.9407  1.4707 -0.7452
35289SOL     OW10228   4.370   9.810   3.344  0.6235  0.1870  0.3352
35289SOL    HW110229   4.307   9.741   3.323  1.4948 -0.5630  0.1021
35289SOL    HW210230   4.447   9.762   3.377  1.3901  1.0274 -0.2107
35290SOL     OW10231   5.707   5.921   0.255 -0.4109  0.0056 -0.2457
35290SOL    HW110232   5.771   5.898   0.187 -1.1242 -0.7312 -0.6851
35290SOL    HW210233   5.627   5.878   0.228 -1.2264  1.2637  0.0824
35291SOL     OW10234   7.751   0.968   7.253 -0.4924  0.3915 -0.5208
35291SOL    HW110235   7.662   0.934   7.240 -0.3822  0.0458 -0.3666
35291SOL    HW210236   7.798   0.897   7.297 -0.8712  1.5190  1.9146
35292SOL     OW10237   9.893   5.948   1.608 -0.4329 -0.1652 -0.1029
35292SOL    HW110238   9.842   5.921   1.532  1.1100 -0.5347 -1.0411
35292SOL    HW210239   9.920   6.037   1.588  0.0602 -0.2978 -0.0366
35293SOL     OW10240   8.615  10.612  10.449 -0.2716  0.4613  0.4680
35293SOL    HW110241   8.686  10.561  10.489  0.0264  1.8473  1.8088
35293SOL    HW210242   8.660  10.678  10.396 -0.4568  1.9613  2.0866
35294SOL     OW10243   3.281   3.908   1.116 -0.2294  0.2003 -0.7887
35294SOL    HW110244   3.288   3.872   1.027 -0.8579  0.4961 -0.9617
35294SOL    HW210245   3.366   3.891   1.155 -0.1335 -0.4367 -1.2613
35295SOL     OW10246   7.640   4.570   2.267  0.2965 -0.5561 -0.5385
35295SOL    HW110247   7.659   4.540   2.356  0.8535  1.5769  0.1263
35295SOL    HW210248   7.680   4.657   2.262 -1.8940  0.4552 -2.0441
35296SOL     OW10249   1.093   9.075  10.206  0.1538 -0.3358 -0.4986
35296SOL    HW110250   1.170   9.129  10.191  0.3919 -0.2642  0.8186
35296SOL    HW210251   1.127   8.985  10.208  0.2346 -0.3014  0.1228
35297SOL     OW10252   3.607  10.284   0.737 -0.7884 -0.3915  0.0667
35297SOL    HW110253   3.675  10.312   0.799  0.6346  0.1244 -1.6358
35297SOL    HW210254   3.548  10.359   0.731  0.3172  0.4341 -0.8446
35298SOL     OW10255   9.993   2.460   7.363 -0.2919  0.2763  0.2427
35298SOL    HW110256  10.030   2.396   7.303 -3.2430  0.8073 -2.3805
35298SOL    HW210257   9.955   2.407   7.434  0.2464 -0.6210 -0.1207
35299SOL     OW10258   8.142   2.685   6.287  0.4734 -0.4273  0.1173
35299SOL    HW110259   8.212   2.744   6.259 -1.3988  1.2788 -1.3152
35299SOL    HW210260   8.160   2.668   6.379  0.8154  2.9876  0.8300
35300SOL     OW10261   7.857   7.605   0.891  0.6463  0.0423 -0.0839
35300SOL    HW110262   7.851   7.627   0.798 -1.1102  0.3606  0.0709
35300SOL    HW210263   7.918   7.670   0.926 -1.6324  2.5069 -0.3389
35301SOL     OW10264   5.747   8.912   4.435  0.4120  0.0210 -0.2985
35301SOL    HW110265   5.794   8.863   4.367  1.7383 -1.1482  1.3648
35301SOL    HW210266   5.812   8.973   4.470 -0.2310  0.5550 -0.0012
35302SOL     OW10267   4.764   8.180   2.826  0.2247 -0.2833  0.0792
35302SOL    HW110268   4.811   8.144   2.751  3.0737  0.0475  1.5697
35302SOL    HW210269   4.682   8.131   2.829 -0.2011 -0.0618 -3.3844
35303SOL     OW10270   2.579  10.247   3.392  0.0070  0.6061 -0.6408
35303SOL    HW110271   2.503  10.205   3.354  0.0853  0.3069 -0.4666
35303SOL    HW210272   2.578  10.336   3.356  0.1050  0.3173 -1.3756
35304SOL     OW10273   6.474   9.384   1.616  0.1498  0.1234  0.2204
35304SOL    HW110274   6.500   9.292   1.617  1.0328  0.3240  2.2035
35304SOL    HW210275   6.555   9.432   1.598  0.4379  0.5811  2.3608
35305SOL     OW10276  10.808   7.675   9.243  0.3388  0.2341 -0.1658
35305SOL    HW110277  10.767   7.691   9.328  0.7784  0.5399 -0.0095
35305SOL    HW210278  10.738   7.636   9.190 -0.3661  1.3884 -0.1259
35306SOL     OW10279   6.993   0.656   1.161  0.2793 -0.1958  0.2639
35306SOL    HW110280   7.053   0.712   1.211  0.6757 -0.5689  0.2031
35306SOL    HW210281   7.048   0.612   1.097  0.0200 -0.8994  0.5179
35307SOL     OW10282   5.060   8.487   1.163  0.0091 -0.5832  0.0769
35307SOL    HW110283   5.132   8.456   1.109  1.9884  1.1038  1.5731
35307SOL    HW210284   5.047   8.578   1.136 -2.8620 -1.3254 -1.3943
35308SOL     OW10285   8.398  10.999   3.286  0.2611  0.2886  0.1369
35308SOL    HW110286   8.331  11.031   3.346  0.4469 -0.6420  0.8646
35308SOL    HW210287   8.478  11.043   3.316  0.0206  1.2869 -0.6403
35309SOL     OW10288   1.600   4.196   9.165  0.5126 -0.6675 -0.3571
35309SOL    HW110289   1.608   4.281   9.123  3.4438 -1.5146 -1.7698
35309SOL    HW210290   1.634   4.209   9.253  1.2420 -0.4090 -0.6696
35310SOL     OW10291   3.197   6.650   1.677 -0.2288 -0.1268 -0.0460
35310SOL    HW110292   3.286   6.621   1.699 -0.0898  0.2289 -0.1377
35310SOL    HW210293   3.143   6.621   1.751 -0.5859 -2.9651 -1.2896
35311SOL     OW10294  10.813   0.842   1.736 -0.6032  0.0293  0.0267
35311SOL    HW110295  10.836   0.855   1.643 -0.6908  1.3544  0.1638
35311SOL    HW210296  10.884   0.884   1.784 -0.1691 -1.3143  0.5995
35312SOL     OW10297   7.786   4.551   5.227 -0.5270  0.5332 -0.4365
35312SOL    HW110298   7.692   4.538   5.232 -0.5138  0.9145  1.8225
35312SOL    HW210299   7.797   4.631   5.177 -1.4816  1.1183  0.2568
35313SOL     OW10300   3.338   4.680   4.934 -0.0982  0.2137  0.1289
35313SOL    HW110301   3.412   4.695   4.993  0.2290 -0.3487 -0.1240
35313SOL    HW210302   3.278   4.624   4.983 -0.1511  0.3123  0.1765
35314SOL     OW10303  10.667   7.640   6.954  0.4602  0.5018 -0.1002
35314SOL    HW110304  10.701   7.580   6.888 -0.3807 -0.5122  0.3587
35314SOL    HW210305  10.584   7.671   6.919  0.2487  0.3461  0.2575
35315SOL     OW10306   7.711   2.612   1.603  0.3558 -0.3493  0.6578
35315SOL    HW110307   7.691   2.571   1.688 -1.7829 -0.3662  0.2034
35315SOL    HW210308   7.673   2.552   1.538  0.8333  0.3098 -0.2443
35316SOL     OW10309   8.760   6.494   5.254 -0.8349  0.1638  0.3871
35316SOL    HW110310   8.812   6.440   5.195 -0.0197  0.8383  0.4781
35316SOL    HW210311   8.791   6.471   5.341  0.4969  1.7279  0.3723
35317SOL     OW10312   8.841   8.790   5.339  0.1845  0.0183 -0.5381
35317SOL    HW110313   8.819   8.880   5.362 -2.0058 -0.5235 -0.3603
35317SOL    HW210314   8.813   8.781   5.248  2.0139 -0.0198 -1.1446
35318SOL     OW10315   1.402   9.507   4.532 -0.0134 -0.3809  0.1361
35318SOL    HW110316   1.461   9.581   4.519  1.3270 -1.3645  0.4173
35318SOL    HW210317   1.406   9.489   4.626  1.8985 -2.5380 -0.2795
35319SOL     OW10318   4.911   4.637   6.323 -0.2485  0.1556 -0.7944
35319SOL    HW110319   4.873   4.655   6.409  1.8431  0.6459  0.0963
35319SOL    HW210320   4.921   4.542   6.321 -0.1966  0.1489 -0.4269
35320SOL     OW10321   1.814   3.392   7.739 -0.3463 -0.3010 -0.0411
35320SOL    HW110322   1.857   3.354   7.662  0.6759 -2.7842  1.6419
35320SOL    HW210323   1.722   3.369   7.729  0.1818 -3.0516  0.7249
35321SOL     OW10324   0.837   9.603   5.528  0.0701  0.2936 -0.7236
35321SOL    HW110325   0.886   9.685   5.519  1.2905 -0.4392 -1.0757
35321SOL    HW210326   0.799   9.588   5.441  2.2994 -0.9549 -1.5803
35322SOL     OW10327  10.779   3.364   2.978 -0.1721 -0.1504 -0.1781
35322SOL    HW110328  10.840   3.291   2.972  0.2892  0.0955  1.1576
35322SOL    HW210329  10.819   3.423   3.042 -1.6085  0.2121  0.4183
35323SOL     OW10330   4.070   0.705   4.966 -0.2961 -0.1610 -1.2479
35323SOL    HW110331   4.137   0.767   4.936  0.6874 -0.6783 -0.2228
35323SOL    HW210332   4.058   0.726   5.059 -2.4020  0.6305 -1.6350
35324SOL     OW10333   8.531   7.551   4.737 -0.0398 -0.2447  0.1869
35324SOL    HW110334   8.502   7.600   4.660  0.9636 -0.2274 -0.1911
35324SOL    HW210335   8.554   7.619   4.800  2.1396 -0.1666 -0.6277
35325SOL     OW10336   7.384  10.137   8.150 -0.4769  1.0275 -0.3233
35325SOL    HW110337   7.307  10.124   8.095 -0.5479  0.2565 -0.0483
35325SOL    HW210338   7.458  10.139   8.088 -0.2292 -2.5145 -0.3305
35326SOL     OW10339   0.963   5.378   8.818 -0.5060 -0.0520  0.5000
35326SOL    HW110340   0.969   5.474   8.823 -0.7961  0.2468 -2.8867
35326SOL    HW210341   1.053   5.349   8.821 -0.3074  0.4733 -0.1454
35327SOL     OW10342   3.155   6.659   7.034  0.1430  0.1793 -0.0965
35327SOL    HW110343   3.165   6.752   7.014 -2.6058  0.2473 -1.5769
35327SOL    HW210344   3.108   6.657   7.118  0.4421  0.1108  0.0708
35328SOL     OW10345   0.240   8.171   7.287 -0.2096  0.0457 -0.5870
35328SOL    HW110346   0.313   8.114   7.268  0.5922  0.6045  0.6910
35328SOL    HW210347   0.175   8.115   7.329 -0.5761 -0.4686 -1.8083
35329SOL     OW10348   7.151   1.734   0.111  0.1019  0.4463 -0.0693
35329SOL    HW110349   7.114   1.646   0.105 -1.3037  0.8087  2.0457
35329SOL    HW210350   7.124   1.778   0.031 -1.1955 -0.3606 -0.0935
35330SOL     OW10351   9.569  10.698   4.112  0.2512 -0.5394  0.0495
35330SOL    HW110352   9.535  10.780   4.148 -0.3180 -1.1513  0.9444
35330SOL    HW210353   9.586  10.717   4.020  1.7977  1.0906  0.6159
35331SOL     OW10354   9.764   6.664  10.737  0.2490  1.1945 -0.2502
35331SOL    HW110355   9.803   6.616  10.664  0.5882  0.8609  0.1447
35331SOL    HW210356   9.675   6.683  10.709 -0.5145 -1.2480  0.2753
35332SOL     OW10357   6.779   5.193   6.077  0.2801 -0.0239 -0.0812
35332SOL    HW110358   6.812   5.244   6.151 -2.2876 -0.0988  1.2209
35332SOL    HW210359   6.738   5.116   6.117  0.3758 -0.9899 -1.7249
35333SOL     OW10360   5.698   4.356   3.580 -0.6201 -0.1542  0.0119
35333SOL    HW110361   5.726   4.306   3.503 -1.1330 -0.6430  0.1310
35333SOL    HW210362   5.607   4.380   3.560 -0.3217  0.9042 -0.1229
35334SOL     OW10363   2.497   6.493   7.153  0.2504  0.1788 -0.1901
35334SOL    HW110364   2.413   6.449   7.165  1.1319 -1.8662 -1.0800
35334SOL    HW210365   2.516   6.532   7.238 -1.6971  0.9100 -0.0508
35335SOL     OW10366   9.534  10.855   3.606 -0.0574 -0.4795  0.3150
35335SOL    HW110367   9.544  10.789   3.537 -1.5872  0.3409 -0.7466
35335SOL    HW210368   9.543  10.938   3.560 -2.5734  0.1175  0.7904
35336SOL     OW10369   9.671   2.841   1.589  0.2100  0.1266 -0.0266
35336SOL    HW110370   9.580   2.814   1.582  0.3725 -0.4656  0.0118
35336SOL    HW210371   9.713   2.770   1.638  0.7745  0.1880 -0.4054
35337SOL     OW10372   5.086   8.311   5.340 -0.7465 -0.3182 -0.2508
35337SOL    HW110373   5.062   8.308   5.247 -1.8026  1.2857 -0.0616
35337SOL    HW210374   5.157   8.376   5.344  1.2110 -2.3038 -0.2541
35338SOL     OW10375   4.316   6.978  10.013  0.3229 -0.0407  0.6059
35338SOL    HW110376   4.285   7.044  10.075  1.2599  1.1353 -0.1430
35338SOL    HW210377   4.353   7.028   9.941  1.1179 -1.3957  0.0386
35339SOL     OW10378   4.739   4.477  10.578 -0.0406  0.2588 -0.3421
35339SOL    HW110379   4.720   4.385  10.560  0.2556 -0.0097  0.6566
35339SOL    HW210380   4.833   4.486  10.566  0.2141  0.0043  1.2622
35340SOL     OW10381   2.384   2.323   2.326  0.1134 -0.6150  0.3763
35340SOL    HW110382   2.393   2.407   2.281 -1.2200 -1.1908 -1.0524
35340SOL    HW210383   2.377   2.346   2.419 -0.8016  0.9083 -0.0398
35341SOL     OW10384   1.325  10.467  10.489 -0.0404 -0.7029  0.1185
35341SOL    HW110385   1.343  10.426  10.404 -0.3449  0.0526 -0.3184
35341SOL    HW210386   1.233  10.450  10.506 -0.6083  1.1709 -0.8538
35342SOL     OW10387   3.448  10.975   6.335  0.1910  0.1899  0.5070
35342SOL    HW110388   3.392  11.032   6.387  0.9145  0.4206  1.0499
35342SOL    HW210389   3.388  10.912   6.295 -0.5219  0.8193  0.5635
35343SOL     OW10390  10.491  10.352   7.777 -0.3778  0.2932  0.2613
35343SOL    HW110391  10.477  10.291   7.704  0.1302  0.0491  0.3629
35343SOL    HW210392  10.411  10.404   7.780 -0.6300 -0.0613 -0.1236
35344SOL     OW10393   7.612   9.435   9.478  0.0789  0.2688 -0.1182
35344SOL    HW110394   7.588   9.526   9.493 -0.0307 -0.1113  2.5272
35344SOL    HW210395   7.697   9.439   9.435  0.6703  1.6419  1.0955
35345SOL     OW10396   2.338   7.072   6.947  0.1679  0.0624 -0.3127
35345SOL    HW110397   2.366   7.057   7.037  0.4247 -1.7986 -0.6647
35345SOL    HW210398   2.328   7.167   6.941  0.3376  0.2466  1.6053
35346SOL     OW10399   7.723   1.356  10.175  0.3104 -0.4408  0.1750
35346SOL    HW110400   7.643   1.329  10.128  0.5401  0.3137 -0.6800
35346SOL    HW210401   7.785   1.285  10.159  0.0362 -0.7140  0.2862
35347SOL     OW10402   4.479   8.609   9.392 -0.0756  0.2377  0.1601
35347SOL    HW110403   4.458   8.680   9.331 -0.2243 -0.9864 -1.2774
35347SOL    HW210404   4.424   8.626   9.468  0.1496  1.8469  0.0073
35348SOL     OW10405   6.086   7.181   3.032  0.4400 -0.0024 -0.3079
35348SOL    HW110406   6.151   7.244   3.000  0.6346  0.1085  0.2797
35348SOL    HW210407   6.005   7.231   3.038 -0.1354 -0.5516 -2.6221
35349SOL     OW10408  10.255  11.079   1.593 -0.5379 -0.0491 -0.2344
35349SOL    HW110409  10.189  11.015   1.619  1.2928 -0.9236  2.6663
35349SOL    HW210410  10.337  11.030   1.595  0.5839  1.7427 -0.6941
35350SOL     OW10411   7.336   3.308   7.370  0.1541  0.3925 -1.3193
35350SOL    HW110412   7.339   3.301   7.275 -0.2924 -1.7767 -1.2351
35350SOL    HW210413   7.378   3.392   7.390  0.5887  0.7120 -3.3893
35351SOL     OW10414   6.581   6.414   8.642 -0.0452  0.5986 -0.3197
35351SOL    HW110415   6.566   6.357   8.717 -1.6025  1.5602  0.1338
35351SOL    HW210416   6.624   6.491   8.679  0.8566  0.3108 -0.7304
35352SOL     OW10417   8.882   9.332  10.701 -0.0418 -0.2050 -0.7146
35352SOL    HW110418   8.810   9.285  10.742  0.0364  0.5053  0.2498
35352SOL    HW210419   8.961   9.300  10.745  0.1015  0.0774 -0.7576
35353SOL     OW10420   4.713   6.328   0.496  0.2403  0.2091  0.4382
35353SOL    HW110421   4.671   6.300   0.415  1.6956  2.5992 -1.2401
35353SOL    HW210422   4.774   6.257   0.517 -0.4436 -0.6217 -0.2981
35354SOL     OW10423   7.480  10.945   8.115  0.1757  0.2099 -0.3112
35354SOL    HW110424   7.389  10.916   8.119  0.1661 -1.1347 -4.8188
35354SOL    HW210425   7.531  10.866   8.129  0.6833  0.7564  1.0997
35355SOL     OW10426  10.711   6.421   4.520  0.0951  0.1912 -0.4242
35355SOL    HW110427  10.746   6.503   4.487  0.6046  0.0704 -0.1969
35355SOL    HW210428  10.766   6.353   4.480  1.9237  0.1041  1.9842
35356SOL     OW10429   3.688   5.674   8.249  0.0235  0.1452  0.3006
35356SOL    HW110430   3.608   5.634   8.214 -0.6114  1.0446  0.6725
35356SOL    HW210431   3.759   5.618   8.217 -0.7968 -1.0646  0.5291
35357SOL     OW10432   8.249  10.891   4.261 -0.1701 -0.2953  0.1768
35357SOL    HW110433   8.209  10.977   4.273  0.5289 -0.0693  1.0184
35357SOL    HW210434   8.341  10.903   4.287 -0.1833 -1.4152  0.8292
35358SOL     OW10435   3.513   0.971   7.742  0.7881  0.7855 -0.6033
35358SOL    HW110436   3.524   0.976   7.647  0.9425  0.6156 -0.5951
35358SOL    HW210437   3.471   1.053   7.766 -0.4725  0.2682 -0.9807
35359SOL     OW10438   8.665  10.188   7.270 -0.3838  0.7233 -0.0977
35359SOL    HW110439   8.624  10.180   7.356  0.6512 -1.3606  0.2583
35359SOL    HW210440   8.759  10.181   7.288 -0.0351  1.9754 -1.2526
35360SOL     OW10441   7.938   9.278  10.306  0.3920 -0.3625 -0.0129
35360SOL    HW110442   7.891   9.253  10.386  0.1058  1.0052  0.2660
35360SOL    HW210443   8.010   9.333  10.336  0.4209 -0.0251 -0.6802
35361SOL     OW10444   7.390   4.549   4.763  0.2943 -0.0331 -0.7053
35361SOL    HW110445   7.380   4.523   4.671 -1.9013 -0.9978 -0.2624
35361SOL    HW210446   7.441   4.477   4.802 -1.2279 -1.1140 -0.6119
35362SOL     OW10447   2.160   5.289   0.421 -0.6768  0.3476  0.2455
35362SOL    HW110448   2.107   5.367   0.437  0.4582  1.1849  0.0473
35362SOL    HW210449   2.196   5.267   0.507  1.9822  2.3051 -0.2371
35363SOL     OW10450   4.981   9.291   4.862 -0.1851  0.2890  0.5895
35363SOL    HW110451   5.022   9.207   4.882  2.5442  1.1238 -0.9948
35363SOL    HW210452   5.020   9.352   4.924  0.2922  0.9255 -0.3095
35364SOL     OW10453   7.023   8.154   3.685  0.1534  0.3250 -0.1671
35364SOL    HW110454   6.953   8.219   3.697  0.2578  0.3065  0.5870
35364SOL    HW210455   7.076   8.162   3.764  0.6901 -0.0463 -0.4900
35365SOL     OW10456   4.311   0.664   5.854 -0.5854  0.3949 -0.2796
35365SOL    HW110457   4.335   0.574   5.876 -0.2432 -0.0894 -2.4587
35365SOL    HW210458   4.394   0.706   5.832 -1.0141  0.4617 -1.8618
35366SOL     OW10459   1.359   4.546   9.675 -0.1431 -0.1965  0.8485
35366SOL    HW110460   1.427   4.531   9.609 -0.1206 -0.2482  0.8829
35366SOL    HW210461   1.357   4.641   9.686 -1.2397 -0.0574 -0.3758
35367SOL     OW10462   3.164  10.718   0.755 -0.4155 -0.5110  0.2589
35367SOL    HW110463   3.198  10.689   0.671  2.0821 -1.5770  1.5085
35367SOL    HW210464   3.238  10.764   0.796 -1.3012 -0.6622  2.1421
35368SOL     OW10465   7.213   6.464   0.048 -0.3516 -0.3806  0.1798
35368SOL    HW110466   7.229   6.387   0.103 -1.8071 -0.8086  0.0494
35368SOL    HW210467   7.123   6.453   0.018  0.2587  0.0779 -1.9270
35369SOL     OW10468   5.782   9.372   5.765 -0.3048  0.0650 -0.4449
35369SOL    HW110469   5.721   9.315   5.812 -0.2699  1.3570  1.2552
35369SOL    HW210470   5.726   9.436   5.721 -0.2358  0.2926 -0.1996
35370SOL     OW10471   0.085   4.475   5.226  0.1715  0.2418  0.4799
35370SOL    HW110472   0.046   4.493   5.311  2.9317 -0.5492  2.0155
35370SOL    HW210473   0.072   4.381   5.214 -1.3822  0.5592 -0.6778
35371SOL     OW10474  10.359   7.566   9.996 -0.2652  0.1080  0.1624
35371SOL    HW110475  10.356   7.500   9.926 -0.4502 -0.1654  0.4271
35371SOL    HW210476  10.280   7.618   9.984 -0.5359 -0.2309  0.4477
35372SOL     OW10477   6.528   5.169   9.859 -0.4145  0.0892 -0.2349
35372SOL    HW110478   6.607   5.165   9.913 -0.2605  2.9457 -0.0691
35372SOL    HW210479   6.460   5.127   9.912  0.7080 -1.3477  0.1211
35373SOL     OW10480   6.561   4.174   0.544  0.5977 -0.0857 -0.2019
35373SOL    HW110481   6.564   4.138   0.456 -0.0251  0.3142 -0.3908
35373SOL    HW210482   6.602   4.260   0.537  2.9807 -1.0759  0.4409
35374SOL     OW10483  10.370   0.963  11.097 -0.2124 -0.3473  0.0037
35374SOL    HW110484  10.292   0.988  11.147  0.5325 -0.1573  1.1313
35374SOL    HW210485  10.430   1.037  11.109 -0.2965  0.0760 -1.8867
35375SOL     OW10486   7.346   3.227   9.785 -0.2761  0.0538 -0.2773
35375SOL    HW110487   7.294   3.246   9.864 -0.5603  2.1560 -0.9186
35375SOL    HW210488   7.281   3.206   9.718 -0.2365  1.0387 -0.6450
35376SOL     OW10489   0.177   9.509   3.184  0.5639 -0.7928  0.2159
35376SOL    HW110490   0.141   9.551   3.262 -1.2062 -0.5727 -0.6685
35376SOL    HW210491   0.110   9.523   3.116  1.8526 -1.3503 -1.2239
35377SOL     OW10492   1.806   1.133   2.091 -0.2786  0.0304 -0.3427
35377SOL    HW110493   1.752   1.064   2.129  1.2111 -0.3391  1.2354
35377SOL    HW210494   1.854   1.090   2.021  0.3325 -0.4494  0.3620
35378SOL     OW10495   2.264   7.483  10.303  0.5331 -0.0562  0.2768
35378SOL    HW110496   2.332   7.450  10.243 -1.0933 -0.3604 -1.5169
35378SOL    HW210497   2.284   7.575  10.314  1.8620 -0.3747  0.6935
35379SOL     OW10498   6.522   7.013   0.668  0.0627 -0.4274 -0.0330
35379SOL    HW110499   6.495   7.079   0.733  0.0598  1.8465 -2.1785
35379SOL    HW210500   6.449   7.011   0.605 -0.1240 -2.8735  0.1757
35380SOL     OW10501   4.199   3.293   7.916  0.1398  0.2666  0.5824
35380SOL    HW110502   4.178   3.227   7.849  0.4570 -0.5102  1.2271
35380SOL    HW210503   4.128   3.357   7.909 -0.6957 -0.6400  0.5754
35381SOL     OW10504   4.987   4.378   7.907  0.2628  0.2500 -0.1911
35381SOL    HW110505   5.004   4.335   7.990  2.0374 -0.3416 -0.7978
35381SOL    HW210506   4.893   4.394   7.906 -0.1092 -1.6260  1.0007
35382SOL     OW10507   8.939  10.074   4.833  0.0737 -0.1169  0.2715
35382SOL    HW110508   8.889  10.020   4.772 -1.1512  1.3800 -0.1047
35382SOL    HW210509   8.985  10.011   4.889 -0.0670 -1.5235 -1.1345
35383SOL     OW10510   2.028   4.260   3.610 -0.4301  0.2080  0.3587
35383SOL    HW110511   2.021   4.229   3.701 -0.7831 -1.6307 -0.2528
35383SOL    HW210512   2.015   4.182   3.557 -1.6562  1.4705 -1.3236
35384SOL     OW10513   0.883   6.858   5.050  0.2828  0.3361 -0.1210
35384SOL    HW110514   0.788   6.861   5.040  0.1471 -0.8289  0.6753
35384SOL    HW210515   0.902   6.769   5.079  1.2122  1.5966  3.6975
35385SOL     OW10516   5.962   4.075   2.130  0.0359  0.0282  0.2787
35385SOL    HW110517   5.920   4.096   2.213  0.5814 -1.0321  0.8412
35385SOL    HW210518   5.977   3.981   2.134 -1.5354 -0.3941 -1.7722
35386SOL     OW10519   4.302   6.651   7.184 -0.4511 -0.1602 -0.5033
35386SOL    HW110520   4.391   6.618   7.196 -1.0289 -2.0314 -1.0150
35386SOL    HW210521   4.314   6.739   7.149  1.1803  1.1488  2.9534
35387SOL     OW10522   9.497   7.706   1.508 -0.0563 -0.3744 -0.1441
35387SOL    HW110523   9.419   7.652   1.502  0.3849 -0.9266 -1.1390
35387SOL    HW210524   9.488   7.771   1.438  1.6144 -2.1499 -2.1476
35388SOL     OW10525   6.634   0.343   0.686 -0.1696  0.0416 -0.0869
35388SOL    HW110526   6.667   0.307   0.604  0.0065 -3.2126  1.2647
35388SOL    HW210527   6.565   0.282   0.713 -1.4247  1.9874  1.3858
35389SOL     OW10528   6.275   9.549  11.013  0.2658  0.0460  0.0411
35389SOL    HW110529   6.243   9.638  11.002  1.0902  0.2568 -0.8125
35389SOL    HW210530   6.369   9.555  10.997  0.1903 -1.1300 -1.0345
35390SOL     OW10531   3.343   2.755   2.512 -0.1593 -0.3662 -0.0709
35390SOL    HW110532   3.416   2.734   2.453 -1.2378 -1.9980 -0.8898
35390SOL    HW210533   3.268   2.709   2.475 -1.4013  0.4657  1.3093
35391SOL     OW10534   7.494   8.618   7.117 -0.7643  0.5630 -0.2080
35391SOL    HW110535   7.462   8.705   7.093  1.7150  2.2034  1.9328
35391SOL    HW210536   7.549   8.591   7.044 -1.8996  0.5603 -1.0797
35392SOL     OW10537   5.052   2.695  10.802  0.2057  0.6010 -0.5364
35392SOL    HW110538   5.132   2.709  10.852  0.7204 -0.9002 -0.8998
35392SOL    HW210539   4.983   2.687  10.869  0.7267 -0.3871 -0.0989
35393SOL     OW10540   1.610   6.490  10.091 -0.1283 -0.8286  0.1619
35393SOL    HW110541   1.569   6.525  10.012  0.3394  0.8849  0.6431
35393SOL    HW210542   1.547   6.425  10.123 -1.6859  0.4891 -0.0654
35394SOL     OW10543   0.097   9.958   7.624 -0.6523 -0.7738 -0.4612
35394SOL    HW110544   0.092  10.027   7.558  1.4724  0.0894  0.1764
35394SOL    HW210545   0.127   9.881   7.576 -0.9235 -0.6603 -0.8147
35395SOL     OW10546  10.021   8.348   8.075 -0.3299  0.5455  0.1147
35395SOL    HW110547  10.088   8.384   8.132 -1.9834  2.1766  1.1226
35395SOL    HW210548   9.992   8.422   8.021 -0.1708 -0.5146 -1.5069
35396SOL     OW10549   3.547   2.771   7.875  0.6165  0.0951  0.5352
35396SOL    HW110550   3.510   2.807   7.794  0.7735  1.6222  1.0988
35396SOL    HW210551   3.607   2.839   7.906  0.9160 -0.6642  1.6778
35397SOL     OW10552   5.269   5.434   8.133  0.6862 -0.5207 -0.0280
35397SOL    HW110553   5.288   5.384   8.213 -1.4188  0.2689  1.0423
35397SOL    HW210554   5.247   5.367   8.068  1.1479 -1.1224  0.4286
35398SOL     OW10555   4.703   6.128   3.956  0.0630 -0.0582  0.2875
35398SOL    HW110556   4.766   6.128   3.885  0.8750 -0.5923  0.9957
35398SOL    HW210557   4.619   6.147   3.913  0.4282 -0.9902 -0.8962
35399SOL     OW10558  10.921   8.090   0.915  0.7933  0.3916 -0.4249
35399SOL    HW110559  11.007   8.070   0.953  1.4818 -1.9922 -2.8869
35399SOL    HW210560  10.859   8.046   0.973  1.4092  0.4071  0.2591
35400SOL     OW10561   8.956   5.462   1.770 -0.5893 -0.3987  0.5538
35400SOL    HW110562   9.011   5.500   1.838 -2.5693  2.2579  0.8095
35400SOL    HW210563   9.003   5.480   1.688 -0.0954 -0.0444  0.9083
35401SOL     OW10564   9.556   8.915   1.366 -0.3479  0.2453  0.6286
35401SOL    HW110565   9.591   8.990   1.319 -0.4572  1.5669  2.5361
35401SOL    HW210566   9.630   8.854   1.373 -0.2017  0.2331 -0.7465
35402SOL     OW10567   9.816   5.910   4.505 -0.2967  0.3790 -0.0274
35402SOL    HW110568   9.805   5.818   4.528  1.5928 -0.3978 -1.9278
35402SOL    HW210569   9.878   5.943   4.571 -1.1110  0.3619  0.7631
35403SOL     OW10570   1.580   0.502   8.860  0.3194  0.0365 -0.0429
35403SOL    HW110571   1.644   0.573   8.867 -0.5725  0.9949 -1.1912
35403SOL    HW210572   1.526   0.525   8.785 -1.9637 -0.2447  1.3964
35404SOL     OW10573   7.382   9.472   1.725 -0.4800 -0.1340  0.1321
35404SOL    HW110574   7.402   9.411   1.796  0.0437 -0.2926 -0.1509
35404SOL    HW210575   7.290   9.496   1.739 -0.3088  0.0351  1.0137
35405SOL     OW10576   4.378   5.904   4.307  0.3100 -0.0216 -0.5377
35405SOL    HW110577   4.418   5.987   4.284  2.1628 -0.8648 -0.5346
35405SOL    HW210578   4.445   5.839   4.288 -0.2504 -1.3201  1.5651
35406SOL     OW10579   0.534   0.410   4.679  0.2011  0.4622  0.0869
35406SOL    HW110580   0.618   0.443   4.648 -0.1799 -0.0273 -1.5751
35406SOL    HW210581   0.554   0.326   4.718  0.3870 -0.1626 -1.2835
35407SOL     OW10582  10.725   5.425   2.307  0.1805 -0.2595  0.6252
35407SOL    HW110583  10.800   5.475   2.275  0.5164 -1.0084  0.2162
35407SOL    HW210584  10.721   5.446   2.401  0.8900 -0.2016  0.6507
35408SOL     OW10585   7.361  10.801   2.113  0.2839  0.8130 -0.1100
35408SOL    HW110586   7.292  10.824   2.051 -0.9926 -2.3793 -0.0096
35408SOL    HW210587   7.424  10.750   2.062  1.1726  1.3182  0.4402
35409SOL     OW10588   5.999   9.771   0.813 -0.1081  0.1586  0.0067
35409SOL    HW110589   6.051   9.779   0.733 -0.5289 -0.8095 -0.3856
35409SOL    HW210590   6.010   9.680   0.840 -1.3419  0.0031  0.0714
35410SOL     OW10591   0.042   3.217   1.489  0.3302 -0.2379  0.0620
35410SOL    HW110592   0.102   3.145   1.472  1.3434 -0.1745  2.7437
35410SOL    HW210593  -0.022   3.181   1.551 -0.2225  0.6742  0.0379
35411SOL     OW10594   2.745   1.687   5.279  0.3860 -0.2945 -0.2035
35411SOL    HW110595   2.678   1.755   5.287  0.3910 -0.4389  1.3373
35411SOL    HW210596   2.770   1.689   5.186 -2.2371 -0.7130 -0.9994
35412SOL     OW10597  10.288   4.240   4.022  0.5557  0.0357 -0.3969
35412SOL    HW110598  10.236   4.302   3.971  0.5600  1.6361  1.4384
35412SOL    HW210599  10.321   4.178   3.957 -1.6816  0.3346 -1.9418
35413SOL     OW10600   5.148  10.380  11.050 -0.6847 -0.0551  0.3042
35413SOL    HW110601   5.110  10.403  11.135 -0.4754 -0.5494  0.5314
35413SOL    HW210602   5.206  10.306  11.068 -2.1357 -1.4727 -0.5770
35414SOL     OW10603   1.893   1.545   8.192  0.0789  0.0424 -0.6024
35414SOL    HW110604   1.875   1.457   8.223  1.5944 -0.7735 -1.8279
35414SOL    HW210605   1.810   1.576   8.155 -0.0138 -1.7283 -2.0324
35415SOL     OW10606   3.520   7.287   7.908  0.0275  0.0259 -0.1612
35415SOL    HW110607   3.589   7.265   7.970  0.5115  1.7417 -0.0519
35415SOL    HW210608   3.441   7.294   7.961  0.0193 -0.6326 -0.0808
35416SOL     OW10609   1.747   2.487   2.535 -0.0329  0.6958  0.3832
35416SOL    HW110610   1.771   2.511   2.445 -1.6390  0.4216 -0.1445
35416SOL    HW210611   1.793   2.404   2.550  2.1443  1.8823  0.7118
35417SOL     OW10612   2.261   4.267   4.087 -0.9819 -0.0276  0.0607
35417SOL    HW110613   2.271   4.190   4.031 -1.5482 -0.3359  0.3807
35417SOL    HW210614   2.310   4.245   4.167 -0.6690  0.1756 -0.0730
35418SOL     OW10615   7.981   9.494   2.594 -0.2611 -0.1478  0.2758
35418SOL    HW110616   8.002   9.569   2.650  2.2744 -0.4295 -0.1973
35418SOL    HW210617   7.980   9.419   2.653 -0.9952 -0.0166  0.4478
35419SOL     OW10618   1.405   1.165   0.987 -0.7127 -0.3105  0.2171
35419SOL    HW110619   1.335   1.163   0.922  1.0605 -0.1163 -1.7887
35419SOL    HW210620   1.429   1.073   0.999  0.2074 -0.2335 -0.8707
35420SOL     OW10621   7.439   7.360   9.678 -0.2347  0.0455 -0.3315
35420SOL    HW110622   7.493   7.318   9.611  0.5659 -1.8606  1.4106
35420SOL    HW210623   7.372   7.295   9.700  0.7289 -0.2239  2.0902
35421SOL     OW10624   2.981   6.991   7.339  0.2733  0.0603  1.0347
35421SOL    HW110625   2.949   7.076   7.311 -0.3429 -0.2358  0.8408
35421SOL    HW210626   2.970   6.934   7.263  1.7118  0.0599  0.7935
35422SOL     OW10627   9.199   0.996   8.167  0.1393  0.3637  0.0167
35422SOL    HW110628   9.181   0.910   8.128 -2.5189  0.5068  0.7142
35422SOL    HW210629   9.166   1.059   8.103 -2.4711  0.6451  1.4883
35423SOL     OW10630   2.020   5.079   4.870  0.1649 -0.0727  0.3092
35423SOL    HW110631   1.937   5.106   4.830  0.4672  0.8373  0.2728
35423SOL    HW210632   2.051   5.006   4.816 -0.8671 -0.7872  0.6411
35424SOL     OW10633   9.192   2.495   9.020  0.2122 -0.0157  0.2520
35424SOL    HW110634   9.146   2.578   9.031 -1.1225 -0.6666 -0.2992
35424SOL    HW210635   9.214   2.491   8.927 -1.7135 -1.2529 -0.2041
35425SOL     OW10636  10.040   3.193   3.735 -0.1697 -0.1387 -0.4819
35425SOL    HW110637  10.004   3.189   3.824 -0.3487  0.6972 -0.5096
35425SOL    HW210638   9.964   3.186   3.677 -0.4906  2.5795 -0.5397
35426SOL     OW10639   3.323   1.597   8.626 -0.0117 -0.1395  0.0902
35426SOL    HW110640   3.372   1.670   8.664 -0.0160 -0.6299  1.0623
35426SOL    HW210641   3.332   1.609   8.531 -2.4452  2.7914  0.0712
35427SOL     OW10642   1.261   0.805   6.847 -0.4800  0.4443  0.0714
35427SOL    HW110643   1.204   0.809   6.924  1.1365  1.4553  1.2756
35427SOL    HW210644   1.309   0.723   6.857 -2.0642 -0.7096 -1.2574
35428SOL     OW10645   6.483   6.661   2.607  0.2472  0.1605 -0.3600
35428SOL    HW110646   6.425   6.634   2.677 -1.2365 -0.8936 -1.9249
35428SOL    HW210647   6.550   6.592   2.604 -1.6418 -1.7498 -2.1484
35429SOL     OW10648   8.559   9.080   0.591 -0.0739 -0.3578  0.8273
35429SOL    HW110649   8.541   9.076   0.497  1.0370 -1.1372  0.6242
35429SOL    HW210650   8.610   9.160   0.602 -1.5701  0.6030  1.0440
35430SOL     OW10651  10.278   6.417  10.541  0.1971 -0.3406 -0.2759
35430SOL    HW110652  10.334   6.488  10.572  0.9542 -1.2157  0.4212
35430SOL    HW210653  10.268   6.433  10.447 -0.5553  1.2899  0.0466
35431SOL     OW10654  11.026   0.982   2.633  0.2842 -0.2947  0.3385
35431SOL    HW110655  10.931   0.999   2.630 -0.3779 -3.4963 -0.6295
35431SOL    HW210656  11.038   0.929   2.712  0.9949 -1.1901 -0.3537
35432SOL     OW10657   8.964   3.086   2.133 -0.4394 -0.4968  0.5660
35432SOL    HW110658   9.031   3.131   2.184 -0.5742 -1.3179  1.4976
35432SOL    HW210659   9.013   3.038   2.066 -0.3070  1.1592 -0.6047
35433SOL     OW10660   4.900  11.077   9.216  0.9615  0.4331  0.0890
35433SOL    HW110661   4.970  11.105   9.274  0.5258  1.7512  0.0179
35433SOL    HW210662   4.822  11.122   9.249  0.2176 -0.7157 -0.0541
35434SOL     OW10663   8.756   9.417   2.773 -0.0616 -0.0466  0.4685
35434SOL    HW110664   8.785   9.407   2.682 -0.3035 -0.3633  0.4224
35434SOL    HW210665   8.669   9.456   2.765  0.4622  1.1799  0.6150
35435SOL     OW10666   0.052  10.457   9.072  0.0359  0.6471  0.3341
35435SOL    HW110667   0.129  10.401   9.059  0.1266  0.8232  0.1183
35435SOL    HW210668   0.015  10.469   8.985 -1.2526 -0.8605  0.6294
35436SOL     OW10669  10.805   3.960   9.776 -0.8401  0.4006 -0.6065
35436SOL    HW110670  10.822   3.888   9.837 -2.3985  1.5985  1.3918
35436SOL    HW210671  10.761   3.919   9.702  1.1534 -1.1224 -1.0045
35437SOL     OW10672   2.836   0.081   7.998 -0.3783  0.3514 -0.2545
35437SOL    HW110673   2.928   0.108   8.007 -0.4515  0.2708  0.9356
35437SOL    HW210674   2.802   0.136   7.928  0.3905  0.9136 -0.2029
35438SOL     OW10675   6.045   1.273   1.773  0.7594 -0.4600 -0.1769
35438SOL    HW110676   5.979   1.204   1.765  0.6294 -0.3957  0.2885
35438SOL    HW210677   6.006   1.349   1.729  0.4358 -0.3653  0.2639
35439SOL     OW10678   0.106   3.095   7.033  0.1471  0.0632 -0.1376
35439SOL    HW110679   0.157   3.159   7.083  0.6986  0.1658 -0.8140
35439SOL    HW210680   0.153   3.086   6.951  0.1563 -1.3462  0.0044
35440SOL     OW10681   1.633   2.779   7.590 -0.0927  0.7992  0.0968
35440SOL    HW110682   1.539   2.785   7.573 -0.6458 -2.4375  1.2859
35440SOL    HW210683   1.673   2.776   7.503 -1.4731 -1.1731 -0.5521
35441SOL     OW10684   2.817  10.776   4.970 -0.2187 -0.0211  0.7206
35441SOL    HW110685   2.840  10.771   5.063  1.4791 -0.7630  0.2982
35441SOL    HW210686   2.901  10.770   4.924 -0.9961  0.6684 -0.8661
35442SOL     OW10687   5.604   4.720   6.075 -0.3126  0.0432  0.2950
35442SOL    HW110688   5.522   4.769   6.074 -0.6860 -0.5349  1.4368
35442SOL    HW210689   5.651   4.750   5.997 -1.5319  0.4986 -0.2831
35443SOL     OW10690   9.660  10.253   2.558  0.0271  0.1337  0.1782
35443SOL    HW110691   9.754  10.249   2.539  0.2663 -3.2598  1.4014
35443SOL    HW210692   9.617  10.228   2.477  0.3041 -0.3489  0.1778
35444SOL     OW10693   8.034   2.398   5.021  0.1943  0.3354 -0.4840
35444SOL    HW110694   8.081   2.411   5.104 -0.9024 -0.1817  0.2446
35444SOL    HW210695   7.961   2.459   5.025 -0.3675 -0.3199 -0.6760
35445SOL     OW10696   6.417   9.386  10.211 -0.2778  0.7326 -0.3220
35445SOL    HW110697   6.496   9.390  10.158 -1.2557  0.4049 -1.8570
35445SOL    HW210698   6.364   9.318  10.170 -0.9172  0.1896  1.3216
35446SOL     OW10699   5.811   5.732   6.197 -0.3899 -0.1730 -0.4112
35446SOL    HW110700   5.761   5.809   6.170 -0.2891  0.7740  1.8894
35446SOL    HW210701   5.746   5.663   6.205 -1.1386  0.6414  1.0092
35447SOL     OW10702  10.844   5.056   9.808  0.6637  0.3936  0.0704
35447SOL    HW110703  10.819   5.110   9.734 -1.5149  0.7060  0.9653
35447SOL    HW210704  10.798   4.973   9.795 -1.5201  1.1719  2.0350
35448SOL     OW10705   4.515   8.106   0.007 -0.2237  0.4393  0.1388
35448SOL    HW110706   4.451   8.135  -0.058  0.1827 -0.8226 -0.8808
35448SOL    HW210707   4.517   8.175   0.072 -1.0797  1.4787 -0.9013
35449SOL     OW10708   0.135   8.363   5.148  1.0623  0.4071  0.6293
35449SOL    HW110709   0.040   8.369   5.139  0.9933 -1.4883 -0.6147
35449SOL    HW210710   0.151   8.376   5.241 -0.3726  1.0753  0.8192
35450SOL     OW10711   3.747   8.651   1.591  0.1767 -0.0298  0.3024
35450SOL    HW110712   3.731   8.558   1.609  1.7923 -0.4578 -0.2856
35450SOL    HW210713   3.683   8.697   1.645 -0.4188 -1.4691  0.8856
35451SOL     OW10714   0.664   5.670   7.191  0.1491 -0.5140  0.2481
35451SOL    HW110715   0.739   5.613   7.206  0.3977  0.4658  3.3740
35451SOL    HW210716   0.588   5.617   7.219  0.1007 -0.2042  0.7063
35452SOL     OW10717   4.581   4.063   0.088  0.7403 -0.1474  0.2135
35452SOL    HW110718   4.671   4.058   0.057  0.3795 -0.7402 -0.7612
35452SOL    HW210719   4.534   3.995   0.039 -0.4772  0.8882 -0.1020
35453SOL     OW10720   2.829   3.876   9.325 -0.3958  0.3178 -0.2724
35453SOL    HW110721   2.803   3.817   9.254 -0.6648  0.4750 -0.3065
35453SOL    HW210722   2.889   3.937   9.283 -2.0040  1.5877 -0.8384
35454SOL     OW10723   6.718   1.813   2.417 -0.0685  0.1570 -0.4546
35454SOL    HW110724   6.713   1.759   2.338  0.7530 -0.0856 -0.3481
35454SOL    HW210725   6.706   1.903   2.387  0.0392  0.0459 -0.8236
35455SOL     OW10726   0.550   5.615   3.064 -0.4941 -0.4406  0.4329
35455SOL    HW110727   0.536   5.547   2.998  0.4592 -0.4523  0.2230
35455SOL    HW210728   0.511   5.694   3.026  0.1110 -0.4317 -0.1952
35456SOL     OW10729   2.700   3.466   2.159  0.1648 -0.3414 -0.2798
35456SOL    HW110730   2.772   3.405   2.142  0.2408 -0.3677  0.1187
35456SOL    HW210731   2.732   3.521   2.231 -0.9823 -1.6595  1.2895
35457SOL     OW10732   6.380  10.707   0.140  0.0815 -0.2693  0.5128
35457SOL    HW110733   6.468  10.671   0.133  1.1045  1.8588  1.4169
35457SOL    HW210734   6.379  10.779   0.077 -0.2215  1.1201  2.0377
35458SOL     OW10735   7.698   0.825   6.901 -0.1083 -0.3547 -0.3111
35458SOL    HW110736   7.654   0.757   6.952 -1.0807 -0.8479 -1.7515
35458SOL    HW210737   7.687   0.797   6.810  0.8254  0.9454 -0.8413
35459SOL     OW10738   9.944   5.417   8.810 -0.4580  0.3235 -0.2818
35459SOL    HW110739   9.934   5.496   8.864 -0.1821  0.1983 -0.0467
35459SOL    HW210740   9.861   5.411   8.762 -0.3069  1.0154 -0.6520
35460SOL     OW10741   0.762   1.588   9.347 -0.1514 -0.0326  0.6135
35460SOL    HW110742   0.857   1.576   9.349 -0.0978  0.4408  1.0194
35460SOL    HW210743   0.731   1.545   9.426 -0.0563  1.5894  1.5700
35461SOL     OW10744   7.558   4.895   4.186 -0.1894 -0.3390 -0.4572
35461SOL    HW110745   7.548   4.803   4.209  1.9607 -0.1393  1.7388
35461SOL    HW210746   7.511   4.942   4.254 -0.4432  0.2078 -1.0024
35462SOL     OW10747   6.228   8.055   0.557  0.1491  0.5785 -0.3939
35462SOL    HW110748   6.150   8.087   0.512 -1.2334  0.0407  1.4765
35462SOL    HW210749   6.237   8.112   0.633  0.3877 -0.5805  0.4856
35463SOL     OW10750   1.898   1.144   6.529  0.0442  0.1719 -0.2631
35463SOL    HW110751   1.901   1.061   6.483 -1.1792 -0.4540  0.7424
35463SOL    HW210752   1.828   1.193   6.487  0.0600  0.2753 -0.1700
35464SOL     OW10753   3.261   4.642  10.237  0.2808  0.1624  0.3800
35464SOL    HW110754   3.244   4.729  10.200 -0.7759 -0.4105 -0.5332
35464SOL    HW210755   3.175   4.610  10.263  0.4197 -1.3242 -0.9032
35465SOL     OW10756  10.730   8.335   5.445  0.3842 -0.3171 -0.2373
35465SOL    HW110757  10.723   8.277   5.521 -0.7010  1.6627  1.2646
35465SOL    HW210758  10.640   8.345   5.415  0.3964  1.4297  0.2259
35466SOL     OW10759   2.414  10.098   1.411  0.1716 -0.0299 -0.7079
35466SOL    HW110760   2.472  10.131   1.342  2.7711 -4.1505 -0.8508
35466SOL    HW210761   2.344  10.053   1.365  1.6523 -2.3763 -0.7962
35467SOL     OW10762   6.849   3.940   1.885  0.1640  0.1318  0.4024
35467SOL    HW110763   6.778   3.880   1.862  0.8591 -0.0094 -1.6223
35467SOL    HW210764   6.829   3.969   1.973 -1.6672 -0.9586  0.3892
35468SOL     OW10765   7.107   9.432   1.782  0.2763 -0.2626  0.2179
35468SOL    HW110766   7.098   9.526   1.767 -0.1255 -0.1887  0.8901
35468SOL    HW210767   7.056   9.415   1.861 -1.0854 -1.3296 -0.8420
35469SOL     OW10768   9.045   6.691   2.298 -0.4997 -0.0600 -0.0814
35469SOL    HW110769   9.048   6.602   2.263  1.9776  0.3155 -1.0280
35469SOL    HW210770   8.963   6.727   2.266 -1.8283 -2.1163  0.7501
35470SOL     OW10771   7.865   2.520   2.449 -0.2743 -0.1579 -0.3280
35470SOL    HW110772   7.806   2.447   2.429 -1.0835  0.5110 -0.4226
35470SOL    HW210773   7.823   2.566   2.522 -0.0150  0.4815 -0.5731
35471SOL     OW10774   1.661   6.578   5.515  0.3213 -0.0660 -0.2330
35471SOL    HW110775   1.686   6.652   5.460  1.7813 -1.5029 -1.5923
35471SOL    HW210776   1.739   6.560   5.568 -0.9726  1.1467  2.2554
35472SOL     OW10777   1.042   0.779   0.273  0.0724 -0.5889 -0.4321
35472SOL    HW110778   0.987   0.766   0.350  1.6061  0.9620  0.9922
35472SOL    HW210779   0.983   0.765   0.199 -1.8386 -0.5156  1.0091
35473SOL     OW10780   3.035   6.824   7.929  0.3647 -0.8458  0.3384
35473SOL    HW110781   3.121   6.857   7.954  0.3639  1.0842 -1.8117
35473SOL    HW210782   3.005   6.884   7.860 -2.8993 -1.1918  1.2546
35474SOL     OW10783   1.239   2.673   9.466  0.1819 -0.0270  0.5822
35474SOL    HW110784   1.263   2.627   9.546 -0.5909 -0.6099  0.4839
35474SOL    HW210785   1.305   2.645   9.402 -0.2499 -0.9808  0.5350
35475SOL     OW10786   1.525   5.905  10.093 -0.0618 -0.0969 -0.9359
35475SOL    HW110787   1.455   5.898  10.028 -0.2323  0.7078 -0.8520
35475SOL    HW210788   1.499   5.979  10.148 -0.3572 -1.2596  0.5827
35476SOL     OW10789   0.430   1.099   4.489  0.1807 -0.4595 -0.2713
35476SOL    HW110790   0.438   1.176   4.433 -1.2859  1.2980  1.7491
35476SOL    HW210791   0.385   1.034   4.436 -0.5447  0.8852 -1.3569
35477SOL     OW10792   8.234   8.523   1.717  0.1281 -0.5958  0.6209
35477SOL    HW110793   8.176   8.567   1.655 -1.1492 -1.2831  1.2928
35477SOL    HW210794   8.284   8.462   1.663 -0.3533 -0.5685  0.1284
35478SOL     OW10795   6.823   0.755   5.463 -0.3609 -0.7253 -0.2162
35478SOL    HW110796   6.856   0.824   5.521  0.9874 -1.2934 -0.2533
35478SOL    HW210797   6.893   0.689   5.463 -0.3862 -0.8092 -2.3854
35479SOL     OW10798   2.074   5.393   2.881 -0.3478  0.1712  0.1091
35479SOL    HW110799   1.991   5.347   2.889 -1.0850  1.6128  1.1611
35479SOL    HW210800   2.102   5.377   2.791 -1.8934 -0.1161 -0.3411
35480SOL     OW10801   8.291   5.118   3.720  0.1780  0.0540 -0.9304
35480SOL    HW110802   8.259   5.204   3.690  1.1972  0.6808 -0.2802
35480SOL    HW210803   8.335   5.081   3.643  1.0129  0.7670 -0.8093
35481SOL     OW10804   5.459   2.251   4.802  0.5817 -0.1482  0.1176
35481SOL    HW110805   5.396   2.184   4.776  0.9820 -0.8048  0.8019
35481SOL    HW210806   5.538   2.202   4.825  1.1878  0.6275 -0.2634
35482SOL     OW10807   2.444   9.243  10.259  0.5541  0.4172  0.2220
35482SOL    HW110808   2.421   9.161  10.216  0.3648 -0.1449  1.3669
35482SOL    HW210809   2.377   9.254  10.327 -0.2131  2.2012 -0.7509
35483SOL     OW10810   8.950   0.078   8.930 -0.0429 -0.0390 -0.1516
35483SOL    HW110811   8.902   0.027   8.864 -0.3176 -0.8836  0.6788
35483SOL    HW210812   8.905   0.057   9.012  1.0869  0.0074  0.4853
35484SOL     OW10813   7.770   7.389  10.289  0.5928 -0.2093  0.2988
35484SOL    HW110814   7.772   7.332  10.366 -0.2060  1.1125  1.3520
35484SOL    HW210815   7.681   7.426  10.289  0.2439 -0.9247 -1.8521
35485SOL     OW10816   2.236   0.023   2.264 -0.0232 -0.1768  0.2962
35485SOL    HW110817   2.182   0.098   2.289 -0.4731  0.0058 -1.1246
35485SOL    HW210818   2.175  -0.051   2.260  0.4145 -0.6545  1.6747
35486SOL     OW10819   5.870   4.036   1.625  0.0526 -0.1630 -0.4569
35486SOL    HW110820   5.815   4.108   1.655  0.6710  0.4431 -0.7489
35486SOL    HW210821   5.872   4.046   1.530  0.9384  0.0351 -0.4269
35487SOL     OW10822   5.629   6.306   6.432 -0.2119 -0.0044 -0.2505
35487SOL    HW110823   5.665   6.248   6.365  0.3739 -1.6351  1.3950
35487SOL    HW210824   5.648   6.394   6.400  3.1837 -0.7409 -0.6375
35488SOL     OW10825   1.305   3.472   8.963  0.0590  0.6432 -0.5619
35488SOL    HW110826   1.363   3.544   8.939 -1.1829  1.4820 -1.1013
35488SOL    HW210827   1.217   3.508   8.957 -0.5240 -0.4017  0.9279
35489SOL     OW10828   4.845   6.283   2.002  0.2048 -0.2128 -0.2872
35489SOL    HW110829   4.798   6.307   1.922  1.9236  1.3885 -0.8731
35489SOL    HW210830   4.852   6.187   1.997  0.6534 -0.1100 -2.2830
35490SOL     OW10831   8.525   5.694   4.113  0.0607  0.0216  0.7439
35490SOL    HW110832   8.481   5.635   4.174  2.3989 -2.8132 -0.0907
35490SOL    HW210833   8.590   5.639   4.070  0.4985  2.6126 -2.1970
35491SOL     OW10834   0.338   0.307   6.156  0.6703 -0.4690 -0.2560
35491SOL    HW110835   0.250   0.285   6.187 -0.0052  2.1546 -0.1074
35491SOL    HW210836   0.397   0.269   6.221 -0.1380 -4.0489 -1.4166
35492SOL     OW10837   0.425   7.784   1.082  0.0039 -0.0169  0.0471
35492SOL    HW110838   0.406   7.819   0.995 -1.3474 -1.0262 -0.0954
35492SOL    HW210839   0.349   7.731   1.104  0.7589 -0.5862  1.4340
35493SOL     OW10840   7.013   9.547   7.399  0.5052 -0.4909 -0.1659
35493SOL    HW110841   7.063   9.570   7.321  0.2222 -0.6663 -0.3989
35493SOL    HW210842   6.946   9.616   7.406  1.4343  0.3667  0.7588
35494SOL     OW10843   6.123   7.335   3.872  0.1387 -0.1305 -0.2859
35494SOL    HW110844   6.051   7.274   3.885 -0.3710  0.4061 -0.5656
35494SOL    HW210845   6.202   7.280   3.874 -0.0099 -0.3935  2.8480
35495SOL     OW10846   5.739   7.858   4.056  0.1530 -0.4822  0.1686
35495SOL    HW110847   5.827   7.848   4.094 -0.4514  0.0670  1.7939
35495SOL    HW210848   5.696   7.774   4.073 -0.1351 -0.2184  0.7713
35496SOL     OW10849   1.356   0.306   8.287 -0.0704  0.1690  0.5552
35496SOL    HW110850   1.381   0.266   8.371 -1.4588 -1.1392  0.3939
35496SOL    HW210851   1.265   0.332   8.299 -0.2531  0.0614 -0.4977
35497SOL     OW10852   7.320   0.350   5.732  0.1678 -0.2789  0.4760
35497SOL    HW110853   7.414   0.364   5.721  0.7592 -1.5746  3.0123
35497SOL    HW210854   7.308   0.255   5.722 -0.7748 -0.2069  0.7831
35498SOL     OW10855   0.957   3.389   4.369 -0.6247  0.2999 -0.0581
35498SOL    HW110856   0.950   3.294   4.380  0.7442 -0.0303 -1.7228
35498SOL    HW210857   0.898   3.425   4.436 -1.9884 -1.7239 -0.0878
35499SOL     OW10858   1.392   0.842   3.008  0.0383  0.4766 -0.3266
35499SOL    HW110859   1.445   0.794   3.072 -1.0221  0.2453  0.3948
35499SOL    HW210860   1.449   0.849   2.931  1.3158  0.6916  0.5959
35500SOL     OW10861   4.169  10.962   3.542  0.1993  0.3955  0.8680
35500SOL    HW110862   4.087  10.996   3.506 -0.2739  1.6394  2.9171
35500SOL    HW210863   4.159  10.867   3.541 -1.0195  0.5161  0.5363
35501SOL     OW10864   9.543   5.948   3.469  0.5295  0.5829  0.1086
35501SOL    HW110865   9.593   5.990   3.539  0.5427  1.6098 -0.4934
35501SOL    HW210866   9.464   5.914   3.512  0.5943  1.0965  0.6425
35502SOL     OW10867   3.600   5.092   9.524 -0.2686  0.4539  0.5048
35502SOL    HW110868   3.553   5.009   9.532  0.4316 -0.0028 -0.0262
35502SOL    HW210869   3.612   5.121   9.615 -0.1838 -0.2187  0.7175
35503SOL     OW10870   9.783   8.609   8.874  0.5203  0.0481 -0.2442
35503SOL    HW110871   9.806   8.523   8.909 -0.2639  0.4378  1.3066
35503SOL    HW210872   9.820   8.671   8.937  0.0740  0.8084 -0.7223
35504SOL     OW10873   5.157   9.145   1.379 -0.5291 -0.0838 -0.3663
35504SOL    HW110874   5.090   9.214   1.378  0.1237  0.5905  0.7317
35504SOL    HW210875   5.240   9.192   1.384 -0.1003 -0.9408  1.2949
35505SOL     OW10876   5.570   4.823   3.449  0.3287 -0.1060  0.8606
35505SOL    HW110877   5.538   4.755   3.390 -0.0005  1.4249 -0.8462
35505SOL    HW210878   5.580   4.780   3.534 -0.3078 -2.1271 -0.0377
35506SOL     OW10879   1.012   2.551   4.736 -0.4918  0.6862  0.5811
35506SOL    HW110880   1.012   2.575   4.643  1.2175  0.6266  0.5359
35506SOL    HW210881   0.998   2.634   4.782 -0.2200  0.9026  0.2843
35507SOL     OW10882   8.941   0.091   0.045 -0.1535 -0.7530 -0.0605
35507SOL    HW110883   8.903   0.177   0.063  0.9249 -0.5403  1.3380
35507SOL    HW210884   8.869   0.040   0.007 -0.5362  1.0670 -1.9216
35508SOL     OW10885   3.991   2.596   7.586 -0.5510  0.3304 -0.5680
35508SOL    HW110886   4.009   2.503   7.575 -0.0916  0.2665  0.5627
35508SOL    HW210887   3.919   2.614   7.526  0.1777 -0.4649 -1.7183
35509SOL     OW10888   7.217   1.123   7.111 -0.1719  0.6419 -0.2777
35509SOL    HW110889   7.180   1.044   7.148 -0.0330  0.1437 -1.1793
35509SOL    HW210890   7.300   1.095   7.071  0.4672  1.4575  0.4092
35510SOL     OW10891   9.025   5.109   6.385  0.2067 -0.0753 -0.6742
35510SOL    HW110892   9.072   5.192   6.386  0.9449 -0.4773  0.5086
35510SOL    HW210893   8.937   5.131   6.354  0.1877  1.2549  0.2496
35511SOL     OW10894   6.357   3.738   0.879  0.4080  0.1135 -0.3521
35511SOL    HW110895   6.317   3.708   0.798  1.2438  1.9360 -1.4898
35511SOL    HW210896   6.329   3.829   0.888 -0.0189 -0.1627  1.6600
35512SOL     OW10897   9.903   7.625   2.842 -0.0296  0.5926 -0.3987
35512SOL    HW110898   9.897   7.653   2.933  0.2052  2.1032 -0.8234
35512SOL    HW210899   9.829   7.565   2.830  0.3839 -0.2255  0.9692
35513SOL     OW10900   0.038   3.901   0.908  0.1822 -0.5860  0.1776
35513SOL    HW110901  -0.023   3.870   0.974  0.9486  0.1504  1.2548
35513SOL    HW210902  -0.006   3.883   0.825 -2.0201  0.9412  0.9279
35514SOL     OW10903   9.610   1.395   9.272  0.3616  0.0323  0.5115
35514SOL    HW110904   9.543   1.459   9.296 -0.2285  0.4888 -2.1073
35514SOL    HW210905   9.581   1.314   9.312 -0.7164  0.6520  1.0343
35515SOL     OW10906   9.240   5.989   5.500  0.3200 -0.6957 -0.9255
35515SOL    HW110907   9.335   5.995   5.507  0.1760  0.3707  0.4816
35515SOL    HW210908   9.217   5.909   5.546  0.4161 -0.0307  0.3242
35516SOL     OW10909   2.323   5.164   0.901 -0.1538  0.3434 -0.1221
35516SOL    HW110910   2.394   5.228   0.901  0.5143 -0.3258 -2.0560
35516SOL    HW210911   2.332   5.118   0.984 -0.9231  2.9711  1.5438
35517SOL     OW10912   3.241   4.391   1.834 -0.0636 -0.0179  0.5086
35517SOL    HW110913   3.198   4.421   1.754 -0.3950  0.9642  1.0397
35517SOL    HW210914   3.307   4.457   1.852 -1.0194  0.6060  1.8827
35518SOL     OW10915   8.423   4.450   9.299 -0.0966 -0.6371 -0.4831
35518SOL    HW110916   8.494   4.401   9.257  0.8257 -0.0505  0.3280
35518SOL    HW210917   8.409   4.526   9.243  0.9948  0.0420  0.1196
35519SOL     OW10918   3.029   4.600   2.890  0.3960 -0.4059  0.9149
35519SOL    HW110919   2.991   4.520   2.855  1.6923 -1.1568  1.1817
35519SOL    HW210920   2.961   4.636   2.947 -0.2038 -1.2988  0.7817
35520SOL     OW10921   6.292  10.408   0.275 -0.3421 -0.0143 -0.1094
35520SOL    HW110922   6.318  10.454   0.355  0.0760  0.7260 -0.6546
35520SOL    HW210923   6.204  10.440   0.257 -0.1237  0.4537 -0.3839
35521SOL     OW10924   7.272   2.074   7.448  0.1864  0.3149 -0.1207
35521SOL    HW110925   7.196   2.103   7.498  0.6389 -1.1539  1.5209
35521SOL    HW210926   7.239   2.058   7.360 -1.0545  1.1643  0.1751
35522SOL     OW10927   5.917   2.019   6.601  0.0221 -0.2316 -0.0228
35522SOL    HW110928   5.851   2.069   6.648  0.4020  0.8628 -0.6228
35522SOL    HW210929   5.867   1.963   6.541 -0.4023 -0.5315  0.6024
35523SOL     OW10930   5.487   2.213   1.110 -0.5218  0.2561  0.7218
35523SOL    HW110931   5.447   2.232   1.194 -1.5973 -1.8094  0.7340
35523SOL    HW210932   5.473   2.292   1.058 -2.7889  0.3551  1.4114
35524SOL     OW10933   7.354  10.211   5.114  0.5655  0.0052  0.0032
35524SOL    HW110934   7.349  10.240   5.022  1.6605  3.0780  0.7908
35524SOL    HW210935   7.267  10.174   5.132  0.2085 -0.3344 -2.1446
35525SOL     OW10936   1.357   9.353   3.172  0.0568  0.2403 -0.3479
35525SOL    HW110937   1.387   9.368   3.262 -1.9006  2.3177  0.0427
35525SOL    HW210938   1.436   9.324   3.125  1.8453  2.0027  1.3692
35526SOL     OW10939   8.339   6.081   5.606  0.1105  0.0935  0.0284
35526SOL    HW110940   8.433   6.095   5.617  0.2858 -2.0121  1.6042
35526SOL    HW210941   8.323   5.992   5.637 -2.6699  0.9268  1.2973
35527SOL     OW10942   2.727   7.230   3.214  0.0622  0.1629 -0.0532
35527SOL    HW110943   2.643   7.195   3.243  0.8221 -2.2568 -0.5211
35527SOL    HW210944   2.705   7.281   3.136 -0.9426 -0.9788 -0.5654
35528SOL     OW10945   1.760   5.233   4.080 -0.1622  0.6864  0.4574
35528SOL    HW110946   1.722   5.198   4.160  1.0135 -2.6896 -0.2946
35528SOL    HW210947   1.699   5.207   4.011  1.7487 -2.0393 -0.3741
35529SOL     OW10948   9.383   6.996  10.126 -0.6474 -0.1510 -0.0591
35529SOL    HW110949   9.418   6.998  10.215 -1.2012 -1.2290  0.2127
35529SOL    HW210950   9.302   7.047  10.131  0.3714  1.5878 -0.4783
35530SOL     OW10951   2.546   1.026   3.383  0.4970  0.5414 -0.1536
35530SOL    HW110952   2.586   1.031   3.296  1.1378 -0.5208  0.0605
35530SOL    HW210953   2.494   0.946   3.381 -0.1333  0.9354  0.1897
35531SOL     OW10954   0.792   0.005   8.631 -0.3597 -0.0327  0.6574
35531SOL    HW110955   0.697   0.014   8.619 -0.1038  1.1430 -0.8221
35531SOL    HW210956   0.816   0.081   8.683 -0.2536 -0.4353  1.1944
35532SOL     OW10957   4.357   2.428   6.934 -0.1755 -0.5842  0.4963
35532SOL    HW110958   4.376   2.504   6.989  0.5977 -1.2317  1.1683
35532SOL    HW210959   4.376   2.353   6.990 -1.9032 -1.2903  0.1753
35533SOL     OW10960  11.117   9.554   2.436 -0.6764 -0.1215 -0.3143
35533SOL    HW110961  11.194   9.610   2.423 -0.1858 -0.8869 -0.7699
35533SOL    HW210962  11.043   9.614   2.427 -0.1648  0.4483 -0.8834
35534SOL     OW10963   6.010   4.188   8.747 -0.2182  0.0711  0.0730
35534SOL    HW110964   6.031   4.179   8.840 -1.4664 -0.1217  0.3541
35534SOL    HW210965   5.925   4.145   8.738  0.4675 -1.0305 -1.4044
35535SOL     OW10966   4.214   4.739   5.514  0.2024  0.3515 -0.0975
35535SOL    HW110967   4.219   4.692   5.597 -0.0777 -0.6511 -0.6339
35535SOL    HW210968   4.301   4.778   5.503  0.7590 -0.8796 -0.1332
35536SOL     OW10969   4.112  10.901   4.592  0.1402 -0.0175 -0.1073
35536SOL    HW110970   4.189  10.957   4.593  1.6997 -2.0716  0.9232
35536SOL    HW210971   4.069  10.918   4.676 -0.4654  0.9610 -0.5893
35537SOL     OW10972   2.802  10.425   3.492  0.0264  0.0615 -0.0045
35537SOL    HW110973   2.778  10.334   3.509  0.2844 -0.3410 -1.6687
35537SOL    HW210974   2.840  10.425   3.405  0.1937  1.7483  0.0232
35538SOL     OW10975  10.655   9.480   6.652 -0.5650  0.1025  0.1116
35538SOL    HW110976  10.586   9.434   6.700 -1.6086  0.4260 -1.0235
35538SOL    HW210977  10.611   9.514   6.574  0.6201  1.3415 -0.0487
35539SOL     OW10978   9.421   1.759   3.072  0.4723  0.1320  0.5033
35539SOL    HW110979   9.505   1.803   3.060 -0.0814  1.3375  0.8698
35539SOL    HW210980   9.424   1.685   3.011  2.3178 -0.6561  1.4811
35540SOL     OW10981   3.993   4.090  10.532 -0.1047  0.6198  0.2899
35540SOL    HW110982   3.964   4.052  10.614 -0.2066 -2.2615 -0.9711
35540SOL    HW210983   4.088   4.091  10.538 -0.1194  0.6704  0.5279
35541SOL     OW10984   7.667   6.301   1.666 -0.7105 -0.2602  0.0740
35541SOL    HW110985   7.622   6.385   1.669  0.5162  0.5409 -1.8976
35541SOL    HW210986   7.605   6.239   1.704 -1.3183  1.6405  2.3814
35542SOL     OW10987  10.289   4.517   7.415 -0.0498  0.4992 -0.0535
35542SOL    HW110988  10.356   4.554   7.358  1.8526  0.3114  1.9061
35542SOL    HW210989  10.293   4.423   7.398  0.0059  0.5166 -0.1390
35543SOL     OW10990   4.890   0.851   2.253 -0.3637  0.1629 -0.4434
35543SOL    HW110991   4.805   0.892   2.270 -0.1538  1.0534 -1.4168
35543SOL    HW210992   4.871   0.782   2.190 -0.8028 -1.6844  1.6009
35544SOL     OW10993   2.449   4.711   8.327  0.1903 -0.1934  0.5782
35544SOL    HW110994   2.505   4.776   8.284 -1.3166  3.0609  3.0507
35544SOL    HW210995   2.510   4.658   8.378  1.3263  2.4089  2.1781
35545SOL     OW10996   1.513   5.490   0.337 -0.4182  0.1471 -0.0054
35545SOL    HW110997   1.557   5.417   0.380 -0.5991 -0.4320 -0.7892
35545SOL    HW210998   1.574   5.520   0.270 -0.6108  0.2921 -0.1207
35546SOL     OW10999   5.217   4.019   5.122  0.4269 -0.1027 -0.0453
35546SOL    HW111000   5.204   4.111   5.100 -0.9032 -0.4731 -0.8544
35546SOL    HW211001   5.144   3.997   5.180  0.4946 -0.7596 -0.1990
35547SOL     OW11002   3.990   0.669   0.427  0.1701  0.4879  0.2573
35547SOL    HW111003   4.001   0.636   0.516 -0.3848 -0.1739  0.0828
35547SOL    HW211004   4.001   0.764   0.435  0.3409  0.4073  0.9934
35548SOL     OW11005   7.595   6.846   3.550 -0.2971  0.6852 -0.2158
35548SOL    HW111006   7.637   6.764   3.524 -1.3922  0.2688 -0.7478
35548SOL    HW211007   7.593   6.842   3.646  2.1138  1.3808 -0.0737
35549SOL     OW11008   3.700   5.014   0.103 -0.4292  0.6145 -0.1084
35549SOL    HW111009   3.686   5.087   0.043  1.5518  0.3363 -1.0059
35549SOL    HW211010   3.763   4.957   0.058  0.5653  0.0202  1.8969
35550SOL     OW11011   8.206   3.647   1.023  0.1735  0.3373 -0.1008
35550SOL    HW111012   8.221   3.567   1.073  0.6875  0.4279 -0.1113
35550SOL    HW211013   8.238   3.717   1.079  0.9561  0.4201 -0.6407
35551SOL     OW11014   3.002   5.026   3.029  0.1796 -0.2692 -0.1772
35551SOL    HW111015   2.950   5.008   2.951  0.9077  1.4392 -1.1082
35551SOL    HW211016   3.006   5.122   3.035  0.8631 -0.3546  1.4670
35552SOL     OW11017   8.999   7.883   4.687  0.0433 -0.1051 -0.7354
35552SOL    HW111018   8.980   7.822   4.759  0.3853 -0.6649 -1.1121
35552SOL    HW211019   9.012   7.967   4.730  1.2021 -0.6162 -0.0347
35553SOL     OW11020   0.064   4.995   7.828  0.1839 -0.0811  0.7185
35553SOL    HW111021   0.152   5.033   7.820  0.8375 -1.4248  1.1409
35553SOL    HW211022   0.022   5.044   7.898 -0.1113  1.8224 -0.7265
35554SOL     OW11023   0.087   0.027   2.525 -0.4016  0.1523 -0.3983
35554SOL    HW111024   0.088   0.120   2.547 -1.7330  0.3613 -1.1283
35554SOL    HW211025   0.174   0.009   2.490 -0.0584  1.0653 -0.0355
35555SOL     OW11026   2.722   9.460   2.392 -0.0168 -0.3052 -0.1817
35555SOL    HW111027   2.628   9.454   2.376  0.4391 -2.8826 -2.9193
35555SOL    HW211028   2.739   9.394   2.460 -0.2530  1.0650  1.2775
35556SOL     OW11029   9.339   5.351   9.965  0.4204 -0.0646  0.0662
35556SOL    HW111030   9.261   5.372  10.016  0.3785 -0.4961  0.1892
35556SOL    HW211031   9.379   5.277  10.012  0.1076 -0.8039 -0.7886
35557SOL     OW11032   1.557   8.114   7.988  0.5885 -0.3531 -0.3957
35557SOL    HW111033   1.510   8.032   7.972 -1.3878  0.5505  0.4269
35557SOL    HW211034   1.645   8.099   7.954 -0.3036 -2.1255 -2.0606
35558SOL     OW11035   0.959   8.727   4.762  0.2287  0.6331 -0.3775
35558SOL    HW111036   0.933   8.683   4.681  3.3482 -1.8740 -0.2318
35558SOL    HW211037   0.949   8.660   4.830  0.6267  1.6648  0.7283
35559SOL     OW11038  11.019   9.707   1.173 -0.3737 -0.0465 -0.2764
35559SOL    HW111039  11.027   9.612   1.162  0.4920 -0.0711  0.4340
35559SOL    HW211040  10.943   9.731   1.120 -1.4026 -1.3232  0.5527
35560SOL     OW11041   8.800   1.910  10.123 -0.0452  0.2005  1.1379
35560SOL    HW111042   8.849   1.928  10.204  2.6280  0.4517 -0.4391
35560SOL    HW211043   8.785   1.816  10.125 -1.0614  0.3549  2.4387
35561SOL     OW11044  10.752   9.112   9.203  0.4416  0.3862 -0.0688
35561SOL    HW111045  10.706   9.032   9.230  0.6927 -0.0155 -0.8014
35561SOL    HW211046  10.684   9.178   9.199  0.1437  0.0928  0.0891
35562SOL     OW11047   3.987  10.401   5.062  0.8634  0.4622 -0.3354
35562SOL    HW111048   4.028  10.387   5.147 -0.0040 -1.9973 -0.2610
35562SOL    HW211049   3.893  10.392   5.077  0.7196 -0.5972 -1.5958
35563SOL     OW11050   3.521   8.234   9.826  0.6779  0.1742  0.3475
35563SOL    HW111051   3.427   8.246   9.815  0.8894  3.0399  0.8539
35563SOL    HW211052   3.533   8.224   9.921  1.0691  3.1044  0.6867
35564SOL     OW11053   4.216   8.089   6.894  0.1751  0.5819 -0.4900
35564SOL    HW111054   4.296   8.140   6.905 -0.2822  1.0086  1.2136
35564SOL    HW211055   4.178   8.120   6.812  0.7636  1.7852 -0.3242
35565SOL     OW11056   8.492   7.857   3.628 -0.4113 -0.2493 -0.6518
35565SOL    HW111057   8.584   7.857   3.654 -1.0377  0.3569  1.8050
35565SOL    HW211058   8.493   7.823   3.538  2.2380  0.2710 -0.9129
35566SOL     OW11059  10.215  10.382   6.312 -0.2056  0.0740  0.0649
35566SOL    HW111060  10.217  10.444   6.384 -0.9832 -0.5481  0.6289
35566SOL    HW211061  10.139  10.407   6.260  0.6955  0.9075 -0.9195
35567SOL     OW11062   4.102   9.202   0.442  0.6675 -0.4374  0.1206
35567SOL    HW111063   4.047   9.125   0.456  1.3136 -1.2554 -1.4709
35567SOL    HW211064   4.171   9.194   0.507  1.4586 -1.9750 -0.8310
35568SOL     OW11065  10.466   7.125   4.267  0.2457  0.6111  0.7221
35568SOL    HW111066  10.534   7.124   4.199 -2.0232 -0.6167 -1.7149
35568SOL    HW211067  10.466   7.035   4.301  1.7382  1.3507  2.8905
35569SOL     OW11068   0.487   3.336   6.965  0.6731 -0.0103  0.0190
35569SOL    HW111069   0.469   3.386   7.045  1.0577  0.2686 -0.0692
35569SOL    HW211070   0.572   3.368   6.935 -0.4927  1.6243 -1.8149
35570SOL     OW11071   4.447   1.010   4.103 -0.0292  0.2285 -0.5015
35570SOL    HW111072   4.488   0.951   4.166  0.2930 -0.5023 -1.3723
35570SOL    HW211073   4.490   1.094   4.117  0.7699 -0.1833 -0.4464
35571SOL     OW11074   0.635   5.676   0.186 -0.6351  0.0447 -0.1962
35571SOL    HW111075   0.588   5.598   0.215 -0.3219 -1.1024 -2.5148
35571SOL    HW211076   0.573   5.721   0.128 -0.5350  1.1229  0.5096
35572SOL     OW11077   7.168   9.260   0.572  0.2982  0.0015 -0.0373
35572SOL    HW111078   7.123   9.188   0.617  0.6833 -0.1137  0.1669
35572SOL    HW211079   7.165   9.332   0.635 -0.8107  0.4340 -0.5529
35573SOL     OW11080   1.753   1.561   6.281 -0.0954 -0.1410 -0.6487
35573SOL    HW111081   1.690   1.519   6.340 -0.1865  0.2584 -0.4595
35573SOL    HW211082   1.784   1.637   6.330  0.1389 -0.0395 -0.9541
35574SOL     OW11083   0.626   4.230   6.137 -0.0081  0.3824 -0.2054
35574SOL    HW111084   0.714   4.261   6.157 -0.4955  1.5673  0.2093
35574SOL    HW211085   0.569   4.300   6.166 -1.3917 -1.9036  3.2485
35575SOL     OW11086   1.952   6.062   6.668 -0.3595 -0.3181 -0.1198
35575SOL    HW111087   2.010   6.121   6.717  2.3492 -1.2915 -1.9180
35575SOL    HW211088   1.982   5.974   6.692 -0.6106 -0.8452 -1.6161
35576SOL     OW11089  10.857   8.409   8.583 -0.1233 -0.7284 -0.2933
35576SOL    HW111090  10.786   8.385   8.642  1.1317  0.2349  1.7129
35576SOL    HW211091  10.830   8.375   8.498 -2.9822 -0.3471  0.3610
35577SOL     OW11092   3.018   7.511  10.026 -0.4793  0.5593  0.0415
35577SOL    HW111093   2.931   7.497  10.063  0.2841 -0.5691  1.5046
35577SOL    HW211094   3.015   7.467   9.941 -1.5934  1.2994 -0.3193
35578SOL     OW11095   1.775   2.336   8.566  0.4625 -0.1129  0.4785
35578SOL    HW111096   1.727   2.358   8.646  0.9578 -1.7920  1.2864
35578SOL    HW211097   1.713   2.354   8.495 -0.7265 -0.5667  1.3807
35579SOL     OW11098  11.100   1.646   0.786  0.5377  0.3701 -0.4502
35579SOL    HW111099  11.011   1.668   0.757  0.4670  1.2246  0.3802
35579SOL    HW211100  11.141   1.609   0.708  0.2287  2.2143 -1.5533
35580SOL     OW11101   0.954   7.556   6.778  0.0885 -0.2134 -0.4846
35580SOL    HW111102   0.863   7.586   6.783  0.0797 -0.4453  2.3054
35580SOL    HW211103   0.991   7.604   6.704 -1.0897  3.5390  1.1072
35581SOL     OW11104   6.742   9.981   7.502 -0.1920  0.0531 -0.3266
35581SOL    HW111105   6.828  10.023   7.513 -0.1864 -0.3322  1.3931
35581SOL    HW211106   6.679  10.050   7.523 -0.2606 -0.0383 -0.2309
35582SOL     OW11107   1.956   1.036   6.907 -0.0686 -0.2150  0.0713
35582SOL    HW111108   1.948   1.017   6.813 -2.3965 -0.6194  0.2865
35582SOL    HW211109   1.936   0.954   6.950  0.6226  0.0645  0.9408
35583SOL     OW11110   6.142   0.799   7.908  0.3776 -0.1361  0.6116
35583SOL    HW111111   6.067   0.771   7.856  0.6792  2.7762 -1.6679
35583SOL    HW211112   6.199   0.722   7.912 -1.2142 -1.4284 -0.4900
35584SOL     OW11113   1.807   0.192   7.530  0.7299 -0.1852 -0.1182
35584SOL    HW111114   1.755   0.248   7.473 -0.5506 -1.7118 -0.5396
35584SOL    HW211115   1.799   0.232   7.617 -1.7778 -0.6762 -0.0372
35585SOL     OW11116   0.319   8.228   7.967  0.3123  0.2858  0.4927
35585SOL    HW111117   0.230   8.194   7.959  0.4603 -0.0115  0.1004
35585SOL    HW211118   0.359   8.211   7.882  0.5743  0.9119  0.4891
35586SOL     OW11119  10.485   6.659   0.388 -0.2735 -0.4027 -0.3018
35586SOL    HW111120  10.392   6.674   0.373 -0.4016  0.3416  1.0425
35586SOL    HW211121  10.488   6.596   0.460  0.2187  0.7857  0.7616
35587SOL     OW11122   9.403   1.501   3.332 -0.0661 -0.8975 -0.0174
35587SOL    HW111123   9.480   1.549   3.302 -0.1432 -1.0920 -0.5408
35587SOL    HW211124   9.375   1.547   3.411 -0.1140 -0.1188 -0.4816
35588SOL     OW11125   3.796   2.964  10.192  0.0822  0.2629  0.2100
35588SOL    HW111126   3.715   2.980  10.239 -0.3805  0.2910 -0.5852
35588SOL    HW211127   3.865   2.986  10.254 -0.5203  0.6750  0.7370
35589SOL     OW11128   8.553   7.783   7.602 -0.5395  0.6376  0.3206
35589SOL    HW111129   8.498   7.716   7.644  0.0542  0.2556  0.4978
35589SOL    HW211130   8.633   7.736   7.577 -0.4995  1.0777 -0.3976
35590SOL     OW11131   2.064  10.125   9.155 -0.3808 -0.1958  0.2187
35590SOL    HW111132   2.122  10.065   9.202 -0.4111  0.6063  1.3147
35590SOL    HW211133   2.111  10.145   9.074  1.1131  0.7859  1.2823
35591SOL     OW11134   4.391  10.259   5.208  0.8371  0.2491  0.3051
35591SOL    HW111135   4.385  10.244   5.113  2.4517  0.0058  0.2141
35591SOL    HW211136   4.396  10.171   5.245  2.0696  0.3763  0.4550
35592SOL     OW11137  10.831   9.660   2.320 -0.4645  0.2012 -0.0256
35592SOL    HW111138  10.736   9.664   2.309 -0.4473 -0.6168 -0.5937
35592SOL    HW211139  10.863   9.618   2.240  0.0185 -2.6768  1.5428
35593SOL     OW11140   0.597   3.203   6.634  0.1257 -0.1166 -0.7864
35593SOL    HW111141   0.579   3.264   6.562 -1.4899  0.3923  0.0000
35593SOL    HW211142   0.688   3.219   6.657 -0.0096  1.3778 -1.1915
35594SOL     OW11143   4.780   7.547   3.088 -0.3219 -0.5950 -0.2120
35594SOL    HW111144   4.778   7.608   3.014 -1.4770 -0.5499 -0.1582
35594SOL    HW211145   4.689   7.542   3.117  0.0615 -0.9042  0.9717
35595SOL     OW11146   2.335   0.751   2.829 -0.2816  0.1295  0.0229
35595SOL    HW111147   2.260   0.811   2.830 -0.4973 -0.0931 -1.3067
35595SOL    HW211148   2.307   0.677   2.775 -0.1359 -1.3784  1.9153
35596SOL     OW11149   7.040   5.892   3.626  0.1197  0.0099 -0.3689
35596SOL    HW111150   7.009   5.813   3.670  1.2995 -0.2132  0.1105
35596SOL    HW211151   7.046   5.957   3.696 -2.7681  1.2001 -1.0674
35597SOL     OW11152   2.848   4.278   7.774  0.5164 -0.3847  0.6079
35597SOL    HW111153   2.919   4.235   7.822  1.9051  0.1766 -0.8520
35597SOL    HW211154   2.892   4.327   7.704 -1.2603  0.6309  0.1287
35598SOL     OW11155  10.214   9.303   6.856 -0.0606  0.5135  0.4579
35598SOL    HW111156  10.212   9.243   6.931  1.2033 -0.6266 -0.3706
35598SOL    HW211157  10.167   9.257   6.787 -0.0577  0.9636  0.1558
35599SOL     OW11158  10.807   1.109   2.367 -0.2189  0.3072 -0.1182
35599SOL    HW111159  10.827   1.202   2.381  0.4419  0.3430 -1.1610
35599SOL    HW211160  10.888   1.072   2.331 -0.7399 -0.4870 -0.5127
35600SOL     OW11161   3.418   2.477   7.214  0.1357  0.1109  0.5595
35600SOL    HW111162   3.434   2.447   7.304 -1.1927 -0.6126  0.5824
35600SOL    HW211163   3.323   2.474   7.204  0.2963 -1.2475 -1.3242
35601SOL     OW11164   4.067   3.601  10.780 -0.2811  0.0319  0.2698
35601SOL    HW111165   3.982   3.582  10.741  0.1419  0.9524 -1.1690
35601SOL    HW211166   4.088   3.689  10.750  1.4119 -0.3645  0.1772
35602SOL     OW11167   7.840   2.216   2.210 -0.0201  0.1039  0.0815
35602SOL    HW111168   7.925   2.260   2.200  0.2298 -0.4469 -0.2147
35602SOL    HW211169   7.795   2.267   2.278  0.0020  1.2281 -0.7246
35603SOL     OW11170   8.890   1.408   4.907  0.1031 -0.4987  0.3373
35603SOL    HW111171   8.905   1.336   4.846  1.5442 -2.0669  2.3841
35603SOL    HW211172   8.814   1.379   4.959  0.6484 -0.5411  1.1273
35604SOL     OW11173   0.423   3.976   0.442 -0.2813 -0.3158 -0.2714
35604SOL    HW111174   0.418   4.001   0.350  0.9732 -0.2797 -0.3401
35604SOL    HW211175   0.509   4.005   0.470  0.0409 -1.8811  0.4398
35605SOL     OW11176   4.995   5.028   0.726  0.3795  0.5572 -0.2477
35605SOL    HW111177   4.964   5.068   0.645 -2.7472 -1.3807 -0.1836
35605SOL    HW211178   5.076   4.983   0.702 -0.6566 -0.2676 -2.4278
35606SOL     OW11179  10.854   6.802   7.891 -0.0117 -0.1923 -0.2722
35606SOL    HW111180  10.916   6.827   7.959  1.6743 -0.4648 -1.6409
35606SOL    HW211181  10.813   6.721   7.925  2.0137 -1.2755 -0.2589
35607SOL     OW11182   8.534   2.522   1.212 -0.1355 -0.9659  0.2048
35607SOL    HW111183   8.593   2.448   1.201  0.0758 -0.6063 -1.2671
35607SOL    HW211184   8.511   2.549   1.123 -2.0858 -0.7401  0.7210
35608SOL     OW11185   8.506   6.792   8.280 -0.4863 -0.7075  0.1150
35608SOL    HW111186   8.507   6.699   8.304  1.3648 -0.8551 -0.3393
35608SOL    HW211187   8.428   6.802   8.226 -0.0809 -2.3056 -0.8529
35609SOL     OW11188   3.569   5.936   3.654 -0.2410 -0.2359  0.1762
35609SOL    HW111189   3.572   5.843   3.678  0.6013 -0.1301  0.5098
35609SOL    HW211190   3.648   5.973   3.691 -0.8165  0.7299  0.4748
35610SOL     OW11191  10.276   9.869   8.077  0.4682 -0.3461 -0.0979
35610SOL    HW111192  10.281   9.963   8.094 -3.0333 -0.2412  1.1336
35610SOL    HW211193  10.247   9.862   7.986 -1.1140 -0.0847  0.3504
35611SOL     OW11194   9.959   1.447   0.895 -0.2583 -0.1622  0.2197
35611SOL    HW111195  10.003   1.532   0.898  2.7325 -1.4995 -1.2004
35611SOL    HW211196   9.928   1.434   0.985  2.7773  0.7748  1.5663
35612SOL     OW11197   4.313   3.208   7.327 -0.3552  0.3517 -0.0333
35612SOL    HW111198   4.401   3.180   7.354 -0.1163  0.5488 -0.5893
35612SOL    HW211199   4.266   3.220   7.410 -0.3156 -1.1773  0.2459
35613SOL     OW11200  10.241   4.880   5.609 -0.2060  0.0822  1.0928
35613SOL    HW111201  10.178   4.949   5.633 -0.5769  0.2656 -0.2933
35613SOL    HW211202  10.208   4.801   5.652 -1.2319  0.2516  0.6588
35614SOL     OW11203   5.093   5.208   8.922 -0.2309 -0.3728 -0.2311
35614SOL    HW111204   5.000   5.188   8.926 -1.0454  2.9322  2.6348
35614SOL    HW211205   5.100   5.272   8.851 -0.3480  0.0187  0.1026
35615SOL     OW11206   1.792   2.922   8.801  0.5913 -0.0610  0.3562
35615SOL    HW111207   1.842   2.934   8.720  1.0971 -0.2696  0.6318
35615SOL    HW211208   1.732   2.996   8.803  0.0556 -0.4536 -0.5833
35616SOL     OW11209   5.375   8.697   2.247  0.2965 -0.2362 -0.6669
35616SOL    HW111210   5.424   8.724   2.170  0.5634 -1.0216 -0.7834
35616SOL    HW211211   5.436   8.706   2.320  0.5324 -0.9424 -0.7712
35617SOL     OW11212  10.840   9.058   0.138  0.6896 -0.4687  0.2353
35617SOL    HW111213  10.925   9.084   0.174  1.0136  0.5656 -1.1936
35617SOL    HW211214  10.786   9.039   0.215  0.7514  3.4543  1.4447
35618SOL     OW11215  10.949   7.448   7.466  0.2628  0.2583  0.3799
35618SOL    HW111216  10.890   7.520   7.492  0.3746  1.6480 -2.7449
35618SOL    HW211217  11.012   7.442   7.537 -1.9114  0.6929  2.4840
35619SOL     OW11218   5.907   7.194   5.949 -0.0668  0.2315 -0.1601
35619SOL    HW111219   5.968   7.124   5.973 -0.9192 -0.5415 -0.1562
35619SOL    HW211220   5.943   7.231   5.868  0.5738  0.0053  0.0177
35620SOL     OW11221   2.133   1.701   0.308 -0.0508 -0.2503 -0.5932
35620SOL    HW111222   2.123   1.789   0.346 -2.8303  0.3736 -2.5382
35620SOL    HW211223   2.089   1.643   0.370  0.7183 -0.1330  0.0827
35621SOL     OW11224   1.088  10.307   1.650 -0.2701  0.2728 -0.0108
35621SOL    HW111225   1.083  10.296   1.555  2.0773 -0.2148 -0.1490
35621SOL    HW211226   1.182  10.308   1.669 -0.6719 -0.6506  2.4280
35622SOL     OW11227   0.729   1.836   9.109 -0.4980  0.1347  0.3989
35622SOL    HW111228   0.732   1.742   9.093  2.0036  0.3024 -0.5429
35622SOL    HW211229   0.713   1.843   9.203 -1.0673 -1.2122  0.4320
35623SOL     OW11230   3.105   8.691  10.801 -0.0835 -0.3445  0.4082
35623SOL    HW111231   3.024   8.640  10.800  1.5129 -3.1744 -2.0636
35623SOL    HW211232   3.169   8.635  10.845  1.2821  0.4348 -0.4872
35624SOL     OW11233  10.436   4.573   1.477 -0.3890  0.4102 -0.2167
35624SOL    HW111234  10.425   4.657   1.431 -2.0012  0.3164 -0.0747
35624SOL    HW211235  10.515   4.584   1.529 -0.3636  1.7088 -0.5010
35625SOL     OW11236   8.465   9.767  10.823  0.4934 -0.0047 -0.1517
35625SOL    HW111237   8.541   9.762  10.765 -0.1333 -1.6149 -0.8900
35625SOL    HW211238   8.473   9.689  10.879 -0.4272  0.0110  0.0018
35626SOL     OW11239   4.898   6.307   1.047 -0.2852 -0.3136  0.3855
35626SOL    HW111240   4.907   6.307   1.143 -0.7183 -0.5009  0.4258
35626SOL    HW211241   4.931   6.222   1.020 -0.5660 -0.4315  0.4081
35627SOL     OW11242   9.493   2.663   0.154  0.3803  0.8364 -0.5369
35627SOL    HW111243   9.518   2.580   0.196  0.7138 -0.2510 -2.7084
35627SOL    HW211244   9.573   2.693   0.111 -0.0439  1.6469 -0.7815
35628SOL     OW11245  10.964   7.603   1.225  0.0442  0.4608  0.1237
35628SOL    HW111246  11.026   7.663   1.182 -0.4321  0.7073 -0.2288
35628SOL    HW211247  11.000   7.516   1.209 -0.3173  0.5243 -1.1143
35629SOL     OW11248   2.493  11.021   4.689  0.1216  0.1375  0.1650
35629SOL    HW111249   2.505  11.115   4.674  1.4226 -0.1820 -1.0709
35629SOL    HW211250   2.553  11.000   4.760 -0.3070  0.2656  0.5688
35630SOL     OW11251   5.602   4.468   4.567 -0.0514  0.2460 -0.6331
35630SOL    HW111252   5.632   4.558   4.581  1.0193 -0.1523 -0.2647
35630SOL    HW211253   5.618   4.424   4.650  2.3152 -1.0400 -1.6690
35631SOL     OW11254   6.168   1.037   4.635  0.2116  0.6800 -0.0871
35631SOL    HW111255   6.259   1.025   4.664  0.3164  0.7067 -0.3959
35631SOL    HW211256   6.128   0.952   4.647  0.1264  0.8122  0.5710
35632SOL     OW11257   3.145   3.933   9.473  0.3660 -0.3655 -0.1595
35632SOL    HW111258   3.120   3.926   9.381  1.0641 -0.9109 -0.3169
35632SOL    HW211259   3.192   3.852   9.492  0.2671 -0.2447  0.6723
35633SOL     OW11260   0.549   9.068   8.773  0.1465  0.1995  0.0855
35633SOL    HW111261   0.492   9.053   8.849  0.7449 -0.5972  0.3802
35633SOL    HW211262   0.520   9.153   8.739  0.7629  1.2690  2.0201
35634SOL     OW11263   7.418   6.156   7.779  0.0384  0.1336  0.0508
35634SOL    HW111264   7.336   6.153   7.730  0.0988  0.5698 -0.0858
35634SOL    HW211265   7.425   6.070   7.821 -1.3253  0.6346  1.4136
35635SOL     OW11266   0.724   4.585   6.629  0.3627  0.0436 -0.1318
35635SOL    HW111267   0.655   4.530   6.592  1.0664 -0.3635 -0.8710
35635SOL    HW211268   0.781   4.605   6.555  1.3346 -0.0757  0.5697
35636SOL     OW11269   7.800   3.791   6.418 -0.2154 -0.7608  0.1264
35636SOL    HW111270   7.725   3.810   6.475  1.2519  1.2673  1.5566
35636SOL    HW211271   7.776   3.830   6.334 -1.5060 -1.8006 -0.0093
35637SOL     OW11272   6.896   8.121   0.105 -0.2680 -0.4983  0.0827
35637SOL    HW111273   6.901   8.145   0.013  0.1659  0.0404  0.2365
35637SOL    HW211274   6.976   8.158   0.143 -0.8479  0.0181  0.8336
35638SOL     OW11275   9.060   4.946   0.919 -0.0708  0.4159 -0.0991
35638SOL    HW111276   9.064   5.019   0.857  1.0293 -0.7174 -1.4559
35638SOL    HW211277   9.071   4.868   0.864  0.6801 -0.6625  1.5069
35639SOL     OW11278  11.066   9.942   4.326  0.1401  0.4787 -0.1375
35639SOL    HW111279  11.010   9.986   4.390 -0.9373 -0.4098 -0.4257
35639SOL    HW211280  11.044   9.849   4.335  0.4298  0.2777 -1.3555
35640SOL     OW11281  10.653   5.823   6.413 -0.1446 -0.2320  0.2952
35640SOL    HW111282  10.557   5.827   6.409 -0.1156 -0.1944 -0.8354
35640SOL    HW211283  10.675   5.746   6.361  0.4485 -0.1186  0.3783
35641SOL     OW11284  11.080   7.389   9.683  0.4395  0.0306  0.0943
35641SOL    HW111285  11.042   7.415   9.599  0.5856  0.1807  0.0739
35641SOL    HW211286  11.108   7.471   9.723 -0.5752  0.0556  0.7610
35642SOL     OW11287   5.174   9.036  11.095 -0.0674 -0.3604 -0.2277
35642SOL    HW111288   5.213   8.949  11.084  0.8781  0.0554 -0.2494
35642SOL    HW211289   5.238   9.096  11.057 -0.1330  0.4502  0.8938
35643SOL     OW11290   5.750   3.521   4.182 -0.8789  0.4342  0.1690
35643SOL    HW111291   5.781   3.430   4.179 -0.6667  0.5284 -0.4676
35643SOL    HW211292   5.822   3.572   4.147 -1.0145  0.8536  0.4938
35644SOL     OW11293   7.918   9.421   8.831 -0.8277  0.2736  0.1033
35644SOL    HW111294   7.966   9.389   8.754 -0.5923  2.6793 -0.8121
35644SOL    HW211295   7.953   9.370   8.904  0.7926 -0.2601 -0.9935
35645SOL     OW11296   4.925   5.619  10.842 -0.4876 -0.2029  0.4364
35645SOL    HW111297   4.846   5.617  10.787  0.3485  0.5800 -0.8435
35645SOL    HW211298   4.907   5.556  10.912 -1.8251 -0.7993 -0.4040
35646SOL     OW11299   6.299   9.358   9.373  1.0200 -0.6013  0.1945
35646SOL    HW111300   6.392   9.376   9.361  0.7432 -0.0371 -1.3855
35646SOL    HW211301   6.296   9.266   9.399  2.0180 -0.6970  0.0139
35647SOL     OW11302   4.854   8.529   7.147 -0.4458  0.1044  0.1552
35647SOL    HW111303   4.845   8.536   7.052  2.3168 -0.0215 -0.1737
35647SOL    HW211304   4.805   8.450   7.169 -0.4911 -0.2963 -1.2690
35648SOL     OW11305   4.818   7.619   8.047  0.6379  0.1462 -0.0231
35648SOL    HW111306   4.846   7.706   8.077  2.1549 -1.1212  2.6484
35648SOL    HW211307   4.724   7.618   8.062  0.3281  1.7547 -1.4701
35649SOL     OW11308   9.327   6.614  10.840  0.1992 -0.9032 -0.0831
35649SOL    HW111309   9.370   6.636  10.757 -0.2161 -0.1811 -0.1139
35649SOL    HW211310   9.235   6.637  10.826  0.2208 -0.2440  0.7640
35650SOL     OW11311   7.956   1.953   2.104  0.1230  0.5407 -0.0782
35650SOL    HW111312   7.905   2.028   2.134 -0.2513  0.1492  0.2734
35650SOL    HW211313   8.028   1.991   2.053 -0.1100  1.1296  0.0329
35651SOL     OW11314   3.570   2.443  10.953 -0.3497  0.0136  0.2725
35651SOL    HW111315   3.563   2.350  10.933 -0.5351  0.3084 -1.0975
35651SOL    HW211316   3.644   2.474  10.902 -2.1184  1.2183 -1.7432
35652SOL     OW11317   9.273   9.000   6.943  0.0005  0.8725 -0.2090
35652SOL    HW111318   9.290   9.045   6.860 -0.0395  0.5817 -0.3763
35652SOL    HW211319   9.346   8.939   6.952  1.2430  2.4727  1.0898
35653SOL     OW11320   9.611  10.287  10.475  0.3905  0.0882  0.2641
35653SOL    HW111321   9.679  10.263  10.537 -0.9207 -2.2339  0.9074
35653SOL    HW211322   9.654  10.288  10.390  1.6512  0.8073  0.8809
35654SOL     OW11323   1.749   9.182   0.876  0.0133  0.2847 -0.1575
35654SOL    HW111324   1.697   9.115   0.832  0.7492 -0.4710  0.1071
35654SOL    HW211325   1.727   9.263   0.830 -2.0277  0.1440  0.4914
35655SOL     OW11326   2.550   8.342   4.169  0.5269  0.3793  0.1720
35655SOL    HW111327   2.488   8.408   4.201  0.1957  0.5012 -0.6887
35655SOL    HW211328   2.619   8.340   4.235  0.0904  0.9380  0.6613
35656SOL     OW11329   2.875   4.201   4.315 -0.0378  0.2064 -1.0209
35656SOL    HW111330   2.850   4.215   4.223  1.0597  2.4644 -1.0694
35656SOL    HW211331   2.841   4.278   4.360  0.3198 -0.3872  0.2913
35657SOL     OW11332  10.362   1.580  10.097 -0.3408 -0.4392 -0.1889
35657SOL    HW111333  10.305   1.635  10.044 -0.6216 -0.3854  0.1638
35657SOL    HW211334  10.334   1.597  10.187  0.8708  0.3468  0.0708
35658SOL     OW11335   1.612   3.068   9.094  0.1110 -0.4516  0.0746
35658SOL    HW111336   1.610   3.151   9.140 -0.9745  0.6318 -1.8201
35658SOL    HW211337   1.614   3.091   9.001 -0.5060 -2.5223 -0.5183
35659SOL     OW11338   5.431   9.919   5.477 -0.4862  0.2899  0.1365
35659SOL    HW111339   5.473  10.003   5.459 -1.0744  0.3761 -0.8773
35659SOL    HW211340   5.378   9.901   5.400  0.5377 -1.5932 -0.1986
35660SOL     OW11341   4.674   9.343  10.336 -0.2265 -0.0735  0.0103
35660SOL    HW111342   4.723   9.425  10.345 -1.0612  0.4936 -0.4941
35660SOL    HW211343   4.728   9.278  10.381 -0.7000  1.1914  2.5669
35661SOL     OW11344   0.488   6.240   8.800  0.7554  0.7397  0.0887
35661SOL    HW111345   0.474   6.279   8.713  1.9426  0.4108 -0.2744
35661SOL    HW211346   0.566   6.286   8.833  0.8227  0.2523  0.6094
35662SOL     OW11347   4.771  11.042   4.864  0.0587 -0.5001  0.4857
35662SOL    HW111348   4.852  11.066   4.821  0.7597 -2.2212  0.7442
35662SOL    HW211349   4.786  10.952   4.895 -2.0256 -0.9707  0.3002
35663SOL     OW11350   4.042   7.813   2.932  0.1032 -0.1782  0.1515
35663SOL    HW111351   4.068   7.734   2.885 -0.5593 -0.5477  0.3927
35663SOL    HW211352   3.987   7.861   2.870  0.9288  0.3660 -0.1842
35664SOL     OW11353  10.058   0.844   7.073  0.8004  0.6310 -0.5774
35664SOL    HW111354  10.147   0.872   7.093  0.9847 -0.3126 -0.0432
35664SOL    HW211355  10.068   0.754   7.040 -0.3028 -1.5091  4.1504
35665SOL     OW11356   8.220   1.048   4.155  0.1004  0.3044 -0.3619
35665SOL    HW111357   8.182   1.080   4.237  0.1771  2.5442 -1.1217
35665SOL    HW211358   8.224   1.126   4.099  2.1888 -0.6865 -1.6943
35666SOL     OW11359  10.893   0.433   8.062  0.4705  0.2867  0.0763
35666SOL    HW111360  10.910   0.364   8.127  0.9764 -1.2546 -1.5857
35666SOL    HW211361  10.809   0.470   8.087  0.0152 -1.1857  0.8493
35667SOL     OW11362   8.176   8.688   0.018  0.3646 -0.2755 -0.1468
35667SOL    HW111363   8.215   8.774   0.030  1.2317 -0.8142  1.0674
35667SOL    HW211364   8.092   8.693   0.063 -0.3706  0.4411 -1.5406
35668SOL     OW11365  10.981   0.626   7.800  0.2116 -0.2110 -0.0811
35668SOL    HW111366  10.943   0.552   7.752 -0.2795 -0.5431  0.8066
35668SOL    HW211367  10.919   0.643   7.871  1.7064 -0.7441  1.4037
35669SOL     OW11368   2.951   1.782   0.411 -0.2123  0.8746 -0.5365
35669SOL    HW111369   2.937   1.832   0.331  0.4603  0.6556 -0.8008
35669SOL    HW211370   2.918   1.694   0.391  0.0432  0.7942 -0.6087
35670SOL     OW11371   9.993   7.357   5.549  0.5206 -0.3757  0.2932
35670SOL    HW111372  10.000   7.431   5.489  2.1593  0.8024  1.8389
35670SOL    HW211373  10.055   7.376   5.618 -0.7657 -2.0385  2.0158
35671SOL     OW11374   7.391   5.976  10.639 -0.1706  0.3342 -0.0219
35671SOL    HW111375   7.419   5.963  10.730 -1.5593  1.3966  0.6095
35671SOL    HW211376   7.372   6.070  10.634 -0.7783  0.1623 -1.2052
35672SOL     OW11377   3.802  10.887   2.349 -0.3419 -0.1184  0.5543
35672SOL    HW111378   3.877  10.942   2.326 -0.4381 -0.0876  0.3022
35672SOL    HW211379   3.784  10.907   2.441  0.4613 -0.7202  0.8524
35673SOL     OW11380   6.369   7.860   2.856  0.5588  0.0157 -0.5469
35673SOL    HW111381   6.434   7.789   2.857  0.7589  0.1838  0.8820
35673SOL    HW211382   6.308   7.837   2.926  0.0379  0.7245 -0.7620
35674SOL     OW11383   3.570   5.934   7.912  0.3934  0.2897  0.4276
35674SOL    HW111384   3.663   5.915   7.897  0.6231  0.6183  1.3913
35674SOL    HW211385   3.569   6.015   7.961 -0.4106  0.2543  0.4885
35675SOL     OW11386   7.188   6.638   4.860 -0.3911 -0.3723 -0.4672
35675SOL    HW111387   7.178   6.701   4.931  0.1865 -2.2619  1.3763
35675SOL    HW211388   7.119   6.573   4.874  1.1496 -2.0436 -0.1807
35676SOL     OW11389   9.138   3.394   6.871 -0.2244 -0.7206  0.2828
35676SOL    HW111390   9.164   3.447   6.947 -0.3323  0.6958 -0.6283
35676SOL    HW211391   9.219   3.378   6.824 -0.3494 -0.4023 -0.0400
35677SOL     OW11392   8.435   6.025  10.439  0.3922  0.3495  0.3033
35677SOL    HW111393   8.440   5.952  10.378  0.4124  0.1540  0.5377
35677SOL    HW211394   8.434   5.985  10.525 -0.4290  0.5786  0.4144
35678SOL     OW11395   0.546   0.923  10.553  0.0805  0.2667 -0.7727
35678SOL    HW111396   0.560   0.838  10.595 -1.1382  1.1063  1.5544
35678SOL    HW211397   0.625   0.974  10.575 -0.1839  0.4277 -0.1479
35679SOL     OW11398   8.568   2.445   5.789 -0.1654 -0.0448 -0.2121
35679SOL    HW111399   8.523   2.521   5.826 -2.5263 -0.3528 -2.2182
35679SOL    HW211400   8.552   2.375   5.853  0.0828  0.5811  0.5543
35680SOL     OW11401  10.902   2.944   3.669  0.5387  0.1921  0.3445
35680SOL    HW111402  10.982   2.891   3.661  0.1190 -0.3231 -0.7559
35680SOL    HW211403  10.847   2.894   3.729  1.2895  0.8946  1.6534
35681SOL     OW11404   9.020   8.220   3.295 -0.0220 -0.4882  0.5003
35681SOL    HW111405   8.930   8.212   3.266  0.4419 -1.2979 -0.8209
35681SOL    HW211406   9.055   8.131   3.290  0.8650 -0.1791  0.8966
35682SOL     OW11407   1.944   0.460   7.894 -0.0989  0.0148  0.2757
35682SOL    HW111408   2.006   0.432   7.961 -0.7188 -0.8430  0.5084
35682SOL    HW211409   1.998   0.497   7.824  0.6641 -0.7489  0.4540
35683SOL     OW11410   6.769   7.183   7.705 -0.4600 -0.3318  0.1117
35683SOL    HW111411   6.699   7.205   7.644 -1.9395  0.7935  2.1084
35683SOL    HW211412   6.828   7.127   7.654 -1.5052  0.6656 -2.3655
35684SOL     OW11413   8.691   2.088   2.642 -0.4415 -0.0061 -0.2683
35684SOL    HW111414   8.606   2.046   2.635 -0.2319 -0.5716  0.4325
35684SOL    HW211415   8.681   2.172   2.596 -2.2101  1.2189  2.1409
35685SOL     OW11416   2.681   8.761   3.047  0.3441 -0.2062 -0.4190
35685SOL    HW111417   2.729   8.727   2.971  1.1129 -0.3156  0.1068
35685SOL    HW211418   2.740   8.749   3.121 -0.3067  0.1092  0.1715
35686SOL     OW11419   4.745   6.985   1.471 -0.5205 -0.2534 -0.0546
35686SOL    HW111420   4.760   6.973   1.565 -1.2861 -1.6037 -0.0819
35686SOL    HW211421   4.656   7.022   1.467  0.1764  1.5150 -0.1946
35687SOL     OW11422   3.065   4.801   0.183 -0.0922  0.3244  0.4011
35687SOL    HW111423   3.109   4.728   0.140  0.8938  0.6226  0.8722
35687SOL    HW211424   3.099   4.801   0.272 -1.1628  0.4885  0.8225
35688SOL     OW11425   1.839   2.653   0.076 -0.2137  0.1681 -0.3647
35688SOL    HW111426   1.856   2.560   0.095  3.4408  0.5450 -1.0754
35688SOL    HW211427   1.850   2.660  -0.019  0.0035  1.4117 -0.2606
35689SOL     OW11428   6.723   9.460   3.509 -0.0730 -0.1179  0.3231
35689SOL    HW111429   6.813   9.465   3.542  0.0465 -1.5004  0.2566
35689SOL    HW211430   6.731   9.480   3.416 -0.2781  2.7898  0.8372
35690SOL     OW11431   1.711   3.397   8.916  0.1924 -0.2443 -0.0090
35690SOL    HW111432   1.707   3.486   8.949 -1.1244 -0.9591  1.9393
35690SOL    HW211433   1.793   3.362   8.950 -0.7967 -0.7337  2.0462
35691SOL     OW11434   1.254   2.921   7.003  0.1161 -0.3215  0.1050
35691SOL    HW111435   1.332   2.925   6.948 -0.5994  0.7446 -0.8785
35691SOL    HW211436   1.211   2.839   6.977 -0.2562  0.2096 -1.0330
35692SOL     OW11437   1.070   0.593   8.353 -0.4629 -0.3363  0.4300
35692SOL    HW111438   1.115   0.642   8.285 -0.0027 -1.4977 -0.1403
35692SOL    HW211439   0.989   0.562   8.312 -0.0398 -1.2974  0.3008
35693SOL     OW11440   1.557   2.977  10.268 -0.4560 -0.4926  0.0962
35693SOL    HW111441   1.563   2.932  10.352  0.5954 -2.0133 -0.7397
35693SOL    HW211442   1.638   2.954  10.222 -0.4140  1.3427 -0.8617
35694SOL     OW11443   6.472   8.770   0.047 -0.7969 -0.5037  0.5066
35694SOL    HW111444   6.445   8.697  -0.009  3.4861 -3.9926  2.2893
35694SOL    HW211445   6.392   8.796   0.093 -2.7937 -3.4829 -0.9507
35695SOL     OW11446   8.417   3.089   0.392 -0.2748 -0.1642 -0.2873
35695SOL    HW111447   8.362   3.098   0.314  0.7999 -0.8425 -1.1668
35695SOL    HW211448   8.393   3.163   0.448 -0.4349  0.8714 -1.6715
35696SOL     OW11449  10.115   2.636   4.833 -0.2328  0.0992 -0.2526
35696SOL    HW111450  10.190   2.640   4.773 -0.0178 -0.2388 -0.0072
35696SOL    HW211451  10.043   2.676   4.784 -0.7398 -2.4421 -1.7041
35697SOL     OW11452   9.385   6.684  10.117  0.0983  0.5611  0.0023
35697SOL    HW111453   9.330   6.763  10.121  0.1199  0.7534 -2.1638
35697SOL    HW211454   9.334   6.623  10.064  1.1906  0.0669 -0.4935
35698SOL     OW11455   6.390   2.298   2.238  0.3461 -0.0527  0.5119
35698SOL    HW111456   6.410   2.330   2.326  0.8031 -0.3575  0.5269
35698SOL    HW211457   6.309   2.249   2.247 -0.6378  1.4853  0.3936
35699SOL     OW11458   6.795   2.660   6.531 -0.2161  0.0464 -0.5791
35699SOL    HW111459   6.824   2.751   6.535  1.2411 -0.3470 -1.3938
35699SOL    HW211460   6.873   2.611   6.506 -0.6688 -1.5944  1.0245
35700SOL     OW11461   7.998  10.904   2.759 -0.0788 -0.0017  0.1284
35700SOL    HW111462   8.035  10.816   2.767 -0.8686 -0.2250  2.0018
35700SOL    HW211463   7.918  10.892   2.708 -0.4458 -0.4804  0.7966
35701SOL     OW11464   1.728   3.254   5.593  0.1355  0.2956 -0.4506
35701SOL    HW111465   1.738   3.210   5.508 -0.1335 -1.6614  0.4837
35701SOL    HW211466   1.808   3.230   5.641  0.3718  1.5426 -0.2043
35702SOL     OW11467   3.701   3.923   3.137  1.1566  0.4410  0.4456
35702SOL    HW111468   3.748   3.853   3.093  0.6168 -0.1809  0.8456
35702SOL    HW211469   3.756   3.946   3.212  1.3912  0.5254  0.2453
35703SOL     OW11470   6.377   8.366   2.593 -0.5488  0.2197  0.1402
35703SOL    HW111471   6.392   8.272   2.583  0.9569  0.4350  0.0161
35703SOL    HW211472   6.412   8.387   2.679  0.2040  0.8307 -0.2916
35704SOL     OW11473  10.723   9.684   4.637  0.3378  0.3942 -0.3617
35704SOL    HW111474  10.807   9.658   4.674 -0.4061  0.2196  1.2672
35704SOL    HW211475  10.744   9.713   4.548  1.8523 -1.3856 -0.6367
35705SOL     OW11476   7.889   4.104   4.940  0.0108 -0.3069  0.1448
35705SOL    HW111477   7.810   4.158   4.942  0.3216  0.1293  1.1013
35705SOL    HW211478   7.955   4.155   4.988  1.1641 -0.2298 -1.4387
35706SOL     OW11479  10.243   3.404   9.993 -0.2226  0.1918  0.6111
35706SOL    HW111480  10.279   3.493   9.990 -0.0200  0.0943 -0.0151
35706SOL    HW211481  10.154   3.413   9.959 -0.5871  0.3280  1.5666
35707SOL     OW11482   2.668   0.371   7.072 -0.5509 -0.2253  0.2506
35707SOL    HW111483   2.651   0.465   7.065  1.0985  0.0362 -0.8254
35707SOL    HW211484   2.628   0.345   7.155 -2.1709  1.1368 -0.0441
35708SOL     OW11485  11.001   8.851   3.329 -0.4920 -0.0101 -0.1417
35708SOL    HW111486  10.911   8.824   3.310 -0.8226  1.7760 -1.3134
35708SOL    HW211487  11.038   8.874   3.244  0.5540  0.8302  0.5132
35709SOL     OW11488   5.413   6.564   1.475  0.6728  0.1492  0.0735
35709SOL    HW111489   5.432   6.537   1.565 -1.6984 -0.4854  0.4332
35709SOL    HW211490   5.375   6.651   1.484  1.5605  0.6142 -0.4668
35710SOL     OW11491   4.421   9.406   0.168 -0.1979 -0.0453 -0.4858
35710SOL    HW111492   4.368   9.459   0.228  0.7311  0.8907 -0.4411
35710SOL    HW211493   4.453   9.333   0.221  0.0546  0.4016 -0.0129
35711SOL     OW11494   2.649  10.664   4.790 -0.0972  0.0998  0.5338
35711SOL    HW111495   2.726  10.695   4.837  2.0258 -1.4688 -1.6190
35711SOL    HW211496   2.654  10.709   4.705 -1.4214 -0.1929  0.2909
35712SOL     OW11497   7.628   4.971   9.809 -0.0636  0.2497 -0.4946
35712SOL    HW111498   7.690   4.902   9.786 -0.3092  0.1667 -0.9289
35712SOL    HW211499   7.570   4.930   9.874 -1.1851 -0.5005 -1.8803
35713SOL     OW11500   4.903   4.232   4.929 -0.1296  0.1990 -0.1769
35713SOL    HW111501   4.860   4.146   4.936 -0.3845  0.3240 -0.1848
35713SOL    HW211502   4.830   4.294   4.925  0.0381  0.3653 -0.8113
35714SOL     OW11503   6.382   6.744   7.655 -0.3265 -0.3302  0.2919
35714SOL    HW111504   6.352   6.740   7.746  0.1986 -0.0843  0.4768
35714SOL    HW211505   6.472   6.713   7.658  0.6553  2.2892  0.2992
35715SOL     OW11506   8.014   9.014   8.411 -0.4960 -0.5073  0.0109
35715SOL    HW111507   8.065   8.995   8.490 -1.5986  2.4070  1.5865
35715SOL    HW211508   8.064   9.082   8.366 -1.4783  0.2355  0.0048
35716SOL     OW11509   3.202   1.019   7.673  0.0242 -0.1707 -0.0221
35716SOL    HW111510   3.147   1.088   7.635  1.5613  0.9906 -0.2424
35716SOL    HW211511   3.216   1.046   7.763 -0.4963 -0.9482  0.3053
35717SOL     OW11512   5.223   1.216   7.143  0.0633  0.4352  0.5573
35717SOL    HW111513   5.291   1.150   7.149  0.1620  0.2662 -1.5835
35717SOL    HW211514   5.266   1.298   7.167  0.6959  0.1520  0.3924
35718SOL     OW11515   0.667   1.957   5.385 -0.2459  0.2265 -0.4566
35718SOL    HW111516   0.689   1.865   5.371 -0.0136  0.1541  0.3210
35718SOL    HW211517   0.599   1.956   5.453  1.0681  0.6906  0.9417
35719SOL     OW11518  10.372   4.114  10.214  0.0131 -0.0472 -0.0214
35719SOL    HW111519  10.391   4.055  10.141 -1.3140 -0.3265 -0.1651
35719SOL    HW211520  10.404   4.199  10.185 -0.9033 -0.0586 -1.1335
35720SOL     OW11521   6.264   1.257   1.447  0.3477 -0.3223  0.0668
35720SOL    HW111522   6.316   1.307   1.510  0.5867 -0.0094 -0.3756
35720SOL    HW211523   6.178   1.249   1.489  0.2209  0.7087  0.0209
35721SOL     OW11524   1.699   0.262   3.982 -0.0615 -0.2038 -0.6714
35721SOL    HW111525   1.759   0.215   3.924 -0.4022 -0.6495 -0.6680
35721SOL    HW211526   1.665   0.334   3.929  0.7138  0.2419 -0.5740
35722SOL     OW11527   1.083   6.401   0.631 -0.0638 -0.3093  0.0029
35722SOL    HW111528   1.005   6.457   0.634  0.3292  0.3012 -0.6350
35722SOL    HW211529   1.050   6.312   0.643 -0.8288 -0.0280  0.0212
35723SOL     OW11530   4.101   8.786   3.063 -0.5600  0.4829 -0.1756
35723SOL    HW111531   4.170   8.749   3.007  0.3944 -0.2673  1.4026
35723SOL    HW211532   4.082   8.871   3.024  2.3564  1.4016  0.1218
35724SOL     OW11533   1.928   5.886   8.419 -0.3247  0.5709 -0.5012
35724SOL    HW111534   1.926   5.827   8.494  1.5515  1.4044  0.2676
35724SOL    HW211535   1.865   5.849   8.357 -1.1200 -0.7350  1.0269
35725SOL     OW11536   0.015   8.709   1.127 -1.1531 -0.9661 -0.2624
35725SOL    HW111537  -0.002   8.624   1.085 -0.3302 -1.3094  0.0768
35725SOL    HW211538  -0.027   8.702   1.213  0.7982 -1.9242  0.6932
35726SOL     OW11539   9.728   8.610   3.150 -0.0096  0.7559  1.0655
35726SOL    HW111540   9.770   8.580   3.069  0.1177  1.8620  0.7091
35726SOL    HW211541   9.675   8.536   3.178  0.4656  0.1168  0.3317
35727SOL     OW11542   0.550   4.427   9.103 -0.7810  0.7881  0.4563
35727SOL    HW111543   0.602   4.346   9.103 -0.0459  1.2059  2.3952
35727SOL    HW211544   0.588   4.479   9.173 -2.9878  1.6894  1.0587
35728SOL     OW11545   3.301   9.855   9.788  0.3875 -0.2358  0.1972
35728SOL    HW111546   3.224   9.868   9.844 -0.3685 -0.7008 -0.7000
35728SOL    HW211547   3.325   9.944   9.760  0.2353 -0.0799  0.5497
35729SOL     OW11548  10.484   6.862   3.777 -0.3673 -0.1704 -0.6705
35729SOL    HW111549  10.420   6.824   3.716 -1.4955  0.2492  0.2155
35729SOL    HW211550  10.546   6.792   3.794 -1.7164 -1.2355 -0.0235
35730SOL     OW11551   7.446   7.192   4.201 -0.2686 -0.5242  0.3463
35730SOL    HW111552   7.366   7.155   4.239  0.8003 -2.8159  0.5198
35730SOL    HW211553   7.437   7.177   4.107 -0.3691 -0.0849  0.2837
35731SOL     OW11554   6.033   3.258   1.790 -0.6512  0.1716 -0.4233
35731SOL    HW111555   5.996   3.334   1.744 -1.9985 -0.0838  0.1808
35731SOL    HW211556   6.113   3.290   1.830 -0.7319  1.0322 -0.9357
35732SOL     OW11557   0.664   3.876   4.234  0.1740 -0.4320 -0.3359
35732SOL    HW111558   0.687   3.785   4.214  3.7365  0.6216 -1.9503
35732SOL    HW211559   0.588   3.893   4.178  1.3447 -1.6245 -2.4731
35733SOL     OW11560   7.041   3.689  10.099  0.2763  0.0440 -0.4318
35733SOL    HW111561   7.025   3.649  10.185  0.1619  1.4875  0.2486
35733SOL    HW211562   7.135   3.681  10.086  0.4341  0.6408  0.2692
35734SOL     OW11563   7.809   2.359   0.272  0.1624  0.0499  0.4436
35734SOL    HW111564   7.798   2.265   0.274 -1.0851  0.0362 -2.2069
35734SOL    HW211565   7.904   2.372   0.271  0.3628 -1.3008 -0.8428
35735SOL     OW11566  10.208   8.779   7.853  0.3630 -0.3390 -0.7497
35735SOL    HW111567  10.255   8.739   7.780  1.9843 -0.0973  0.1156
35735SOL    HW211568  10.274   8.786   7.923 -0.6732  1.0399  0.1336
35736SOL     OW11569   1.965   0.271   7.272 -0.3952  0.0864 -0.4384
35736SOL    HW111570   1.908   0.345   7.288 -0.4831  0.1007 -0.8151
35736SOL    HW211571   2.025   0.270   7.347 -1.2959 -0.3222  0.2912
35737SOL     OW11572   7.391   5.624   0.095 -0.0174  0.2406  0.1315
35737SOL    HW111573   7.308   5.607   0.051  0.4513  1.8146 -1.4594
35737SOL    HW211574   7.377   5.705   0.143  0.5574  0.4515 -0.0512
35738SOL     OW11575   1.350   8.627   3.086  0.1211  0.6108 -0.0748
35738SOL    HW111576   1.322   8.629   2.995  0.4014  0.1636 -0.1693
35738SOL    HW211577   1.288   8.567   3.129 -1.1613  2.1972  0.4222
35739SOL     OW11578   8.362   5.280   7.638 -0.3374 -0.1946  0.0174
35739SOL    HW111579   8.373   5.352   7.576  2.3380 -0.5051 -0.0105
35739SOL    HW211580   8.336   5.206   7.584  1.4922 -0.3409 -0.7517
35740SOL     OW11581  11.094   7.507   3.573 -0.3878 -0.6504 -0.4040
35740SOL    HW111582  11.175   7.532   3.617  0.0485  0.5741 -1.8127
35740SOL    HW211583  11.070   7.422   3.611  0.7933 -0.3804  1.0127
35741SOL     OW11584   5.043   9.413   5.343 -0.4620 -0.0938  0.4531
35741SOL    HW111585   4.959   9.453   5.366  0.1036  1.5458 -0.2185
35741SOL    HW211586   5.093   9.416   5.425  0.0710  1.9367  0.1073
35742SOL     OW11587   3.224   0.177   3.725 -0.6604 -0.1254 -0.1522
35742SOL    HW111588   3.136   0.212   3.724 -1.1284 -1.1188  1.4180
35742SOL    HW211589   3.223   0.111   3.795  1.9174  1.4815  1.6328
35743SOL     OW11590   6.552   9.069   9.952 -0.2405  0.3736 -0.0976
35743SOL    HW111591   6.456   9.067   9.950 -0.2849 -0.2640  1.3894
35743SOL    HW211592   6.575   9.038  10.039  1.2811  2.7818  0.4270
35744SOL     OW11593   9.448   9.943   0.440 -0.0704  0.0912  0.4117
35744SOL    HW111594   9.446   9.860   0.487 -0.8275 -0.4122 -0.4918
35744SOL    HW211595   9.533   9.945   0.397 -1.0172 -1.4736 -1.7208
35745SOL     OW11596   3.104   5.903   5.613 -0.1414 -0.2851  0.0520
35745SOL    HW111597   3.174   5.938   5.557 -0.4007 -0.3891 -0.3388
35745SOL    HW211598   3.024   5.915   5.562 -0.4331 -0.0411  0.5566
35746SOL     OW11599   5.567  10.323   6.284 -0.6214  0.1253 -0.3820
35746SOL    HW111600   5.552  10.327   6.378 -0.2869 -0.0432 -0.3210
35746SOL    HW211601   5.661  10.306   6.275 -0.3785  1.5304 -0.7642
35747SOL     OW11602   2.076   3.006   8.333  0.1368  0.1461  0.1050
35747SOL    HW111603   2.017   3.060   8.280 -0.8434  1.2098  2.1760
35747SOL    HW211604   2.123   3.068   8.388  0.7244 -0.9456  0.8809
35748SOL     OW11605   7.177   9.804   0.674  0.2734  0.3033 -0.5806
35748SOL    HW111606   7.190   9.897   0.654  1.3618  0.5728  1.1769
35748SOL    HW211607   7.136   9.804   0.760  1.5586 -0.8369  0.0716
35749SOL     OW11608   0.600   0.697   8.760  0.6561 -0.1025 -0.0996
35749SOL    HW111609   0.527   0.636   8.770  0.0611  0.6253  0.1243
35749SOL    HW211610   0.573   0.775   8.808  1.7191  0.0754  0.2448
35750SOL     OW11611   6.229   8.142  11.114 -0.2458  0.0082  0.2913
35750SOL    HW111612   6.147   8.151  11.065  0.3701  0.3574 -0.7102
35750SOL    HW211613   6.210   8.181  11.199 -1.0240  0.3897 -0.0410
35751SOL     OW11614  10.154   9.697   4.419  0.1225 -0.5158  0.7402
35751SOL    HW111615  10.239   9.703   4.376  0.1433  0.7220  0.9395
35751SOL    HW211616  10.095   9.663   4.351  0.5993 -0.6114  0.3712
35752SOL     OW11617   0.725   9.135   0.015  0.1097  0.0745 -0.2656
35752SOL    HW111618   0.720   9.201   0.084 -0.4372  0.0467 -0.2716
35752SOL    HW211619   0.807   9.088   0.031  0.0561  0.1651  0.2749
35753SOL     OW11620  10.178   6.675   4.763  0.0062  0.6961 -0.3185
35753SOL    HW111621  10.235   6.751   4.774  1.5754 -0.1884 -1.9012
35753SOL    HW211622  10.214   6.609   4.822  0.9539 -0.0125 -1.6448
35754SOL     OW11623   9.036  10.884   1.622 -0.2745 -0.0630 -0.6855
35754SOL    HW111624   8.998  10.796   1.627  1.0650 -0.6037  0.7584
35754SOL    HW211625   9.053  10.898   1.529 -1.6706 -0.8016 -1.0755
35755SOL     OW11626   8.867   5.441   6.537 -0.3298 -0.0552 -0.3942
35755SOL    HW111627   8.906   5.355   6.524 -1.7865 -0.7987  0.0037
35755SOL    HW211628   8.806   5.452   6.464 -0.1244  0.6738 -0.4703
35756SOL     OW11629   7.449   8.382   1.593 -0.3339 -0.3551 -0.4589
35756SOL    HW111630   7.418   8.318   1.657  1.5505 -1.4177 -0.5180
35756SOL    HW211631   7.372   8.434   1.571 -1.3221 -0.8367  1.6330
35757SOL     OW11632   3.237   1.702   4.236  0.0467 -0.7356  0.2014
35757SOL    HW111633   3.213   1.787   4.198  2.6418  0.7907  1.7071
35757SOL    HW211634   3.320   1.680   4.194  1.1601 -0.7731  2.3257
35758SOL     OW11635   0.401   6.395   2.711 -0.7681 -0.5509 -0.3973
35758SOL    HW111636   0.480   6.359   2.670 -0.1626 -0.1953  0.4296
35758SOL    HW211637   0.433   6.465   2.767 -1.8103  0.4748 -1.0486
35759SOL     OW11638   8.910   0.356   3.686 -0.2717  0.1817 -0.4055
35759SOL    HW111639   8.912   0.265   3.657  1.8510  0.2158 -0.5252
35759SOL    HW211640   8.823   0.368   3.723 -0.3389 -2.1166  0.3161
35760SOL     OW11641   1.353   4.049   1.277  0.0094 -0.3559 -0.4137
35760SOL    HW111642   1.335   3.955   1.278  1.8666 -0.7546  1.3107
35760SOL    HW211643   1.447   4.056   1.263 -0.1402  1.2902 -0.8629
35761SOL     OW11644   3.588  10.205   4.217  0.2778  0.6497 -0.2639
35761SOL    HW111645   3.612  10.221   4.126  0.5922  0.8176 -0.1530
35761SOL    HW211646   3.495  10.227   4.222 -0.0055 -0.3486 -0.7856
35762SOL     OW11647   4.678   9.946   7.214  0.6181  0.7938 -0.1271
35762SOL    HW111648   4.723   9.872   7.174  2.1131  1.5235  0.1278
35762SOL    HW211649   4.612   9.972   7.149  1.9180  0.9608 -1.4130
35763SOL     OW11650   0.111   4.301   5.573 -0.2545 -0.0164 -0.0544
35763SOL    HW111651   0.086   4.295   5.665  0.5111 -0.4678  0.1382
35763SOL    HW211652   0.204   4.322   5.575 -0.4707  1.1027 -0.7421
35764SOL     OW11653   5.686   7.185  10.139 -0.6808  0.1084  0.0616
35764SOL    HW111654   5.629   7.132  10.083  0.2421 -0.8361 -0.0113
35764SOL    HW211655   5.674   7.150  10.227  0.0771 -0.3785 -0.0165
35765SOL     OW11656   0.253   3.139   3.272 -0.0492 -0.3825 -0.1996
35765SOL    HW111657   0.175   3.114   3.322 -0.3839  0.2029 -0.4237
35765SOL    HW211658   0.311   3.064   3.280 -0.5158 -0.7064  0.2198
35766SOL     OW11659   4.550   0.050   7.509  0.5133 -0.1944 -0.4574
35766SOL    HW111660   4.524  -0.043   7.513 -1.1741  0.2630  0.0139
35766SOL    HW211661   4.564   0.075   7.600  0.1054  0.2273 -0.5067
35767SOL     OW11662   5.328   7.389   5.889 -0.1063 -0.2554 -0.4875
35767SOL    HW111663   5.337   7.306   5.843  0.9813  0.0036 -0.7762
35767SOL    HW211664   5.327   7.455   5.820  0.0447  0.0330 -0.2183
35768SOL     OW11665   7.095   9.992   4.796  0.4877 -0.0705 -0.0804
35768SOL    HW111666   7.109   9.898   4.806  1.7521  0.1164  0.0859
35768SOL    HW211667   7.028   9.999   4.728  0.0609 -1.0923  0.2125
35769SOL     OW11668   9.687   0.284   5.555  0.0963  0.1770 -0.2518
35769SOL    HW111669   9.720   0.330   5.477  0.2677  0.0840 -0.2350
35769SOL    HW211670   9.645   0.205   5.520 -0.5606  0.5476 -0.3122
35770SOL     OW11671   7.590   0.418   7.211 -0.1839 -0.4189  0.0873
35770SOL    HW111672   7.592   0.469   7.292 -0.6293 -0.5683  0.1983
35770SOL    HW211673   7.675   0.374   7.208 -1.0999 -2.5430  1.8772
35771SOL     OW11674   6.484   5.382   8.040 -0.4858  0.0592  0.0015
35771SOL    HW111675   6.453   5.428   8.118 -0.8964  0.9247 -0.6570
35771SOL    HW211676   6.500   5.292   8.070 -0.5899  0.3860  1.0840
35772SOL     OW11677   9.442   5.707   3.315  0.4648  0.5168 -0.1402
35772SOL    HW111678   9.515   5.680   3.259  0.3921  0.0365 -0.0071
35772SOL    HW211679   9.484   5.744   3.392  0.5701  0.4805 -0.1798
35773SOL     OW11680   7.453   1.717   1.686  0.2829 -0.0809  0.4670
35773SOL    HW111681   7.387   1.771   1.730 -1.4506 -0.4597 -1.5154
35773SOL    HW211682   7.493   1.777   1.622  1.5204 -0.0080  1.2741
35774SOL     OW11683   4.852   3.370   3.704 -0.1142  0.0689 -0.1236
35774SOL    HW111684   4.848   3.411   3.617 -0.9088 -1.8291 -1.0430
35774SOL    HW211685   4.923   3.415   3.748  0.3107  1.0997 -1.7689
35775SOL     OW11686   6.888   8.672   3.051  0.1368 -0.6654 -0.0451
35775SOL    HW111687   6.949   8.598   3.044  0.9407  0.1021 -1.5170
35775SOL    HW211688   6.829   8.661   2.977  0.9321  0.7369 -0.9279
35776SOL     OW11689   9.656   1.292  10.766 -0.6163  0.0386  0.1918
35776SOL    HW111690   9.718   1.312  10.836  0.4373 -0.0926 -0.6819
35776SOL    HW211691   9.584   1.247  10.810 -0.8806  1.6125  1.4830
35777SOL     OW11692   2.423   5.974   8.550 -0.1426 -0.0220  0.1776
35777SOL    HW111693   2.348   5.968   8.491 -2.5591  1.0460  2.8778
35777SOL    HW211694   2.458   5.885   8.553 -1.8001 -0.7538 -0.6221
35778SOL     OW11695   3.210   6.099   7.691  0.0548 -0.0121 -0.1422
35778SOL    HW111696   3.176   6.063   7.609  0.7427 -0.9497 -0.0325
35778SOL    HW211697   3.223   6.192   7.673 -2.7729  0.4902 -0.1099
35779SOL     OW11698   8.709   4.545   7.900  0.2627  0.4441 -0.0044
35779SOL    HW111699   8.636   4.605   7.883  0.0553  0.2927  0.3266
35779SOL    HW211700   8.781   4.579   7.848 -0.0966  0.4945 -0.4831
35780SOL     OW11701   1.287   3.092  10.507 -0.2367  0.0766 -0.2974
35780SOL    HW111702   1.342   3.108  10.584  0.8545 -2.1887 -0.5338
35780SOL    HW211703   1.340   3.121  10.433 -0.0346 -0.5547 -0.4036
35781SOL     OW11704   3.100   3.901   9.884 -0.0857  0.0314 -0.5336
35781SOL    HW111705   3.102   3.848   9.964  1.9885 -1.3669 -1.3996
35781SOL    HW211706   3.010   3.896   9.853 -0.1676 -2.3247 -0.0859
35782SOL     OW11707   5.778   6.123   5.120  0.0480  0.2183  0.8562
35782SOL    HW111708   5.793   6.030   5.134  0.0304  0.4117  2.3515
35782SOL    HW211709   5.864   6.158   5.097  0.1436 -0.0929  0.7432
35783SOL     OW11710   2.297   6.490   1.126  0.4600  0.1616 -0.0321
35783SOL    HW111711   2.294   6.399   1.155 -0.3067  0.3888  0.6464
35783SOL    HW211712   2.263   6.539   1.201 -1.4624  0.7979 -1.2527
35784SOL     OW11713   2.192   1.734   4.431  0.2698  0.5945  0.3985
35784SOL    HW111714   2.184   1.641   4.413  1.3215  0.7302 -0.9934
35784SOL    HW211715   2.234   1.770   4.353 -0.0225  2.2200  0.9449
35785SOL     OW11716   0.675   7.570   2.699 -0.6072 -0.1577 -0.3596
35785SOL    HW111717   0.749   7.570   2.638 -1.4511  0.1458 -1.4158
35785SOL    HW211718   0.607   7.520   2.654 -1.9219  1.6870 -0.5431
35786SOL     OW11719   0.724   5.582   0.778  0.0061 -0.1287 -0.3508
35786SOL    HW111720   0.656   5.623   0.724 -1.5699 -1.1697  0.7770
35786SOL    HW211721   0.738   5.496   0.737  0.1167 -0.2120 -0.1379
35787SOL     OW11722   9.788   8.929   3.782  0.4507 -0.1272 -0.8588
35787SOL    HW111723   9.786   8.987   3.707  0.1494  0.0499 -0.7181
35787SOL    HW211724   9.714   8.958   3.837  0.7845 -0.1246 -0.4037
35788SOL     OW11725   1.174   7.295   8.490  0.1335 -0.1028  0.6543
35788SOL    HW111726   1.136   7.322   8.407 -0.0496 -0.4744  0.6128
35788SOL    HW211727   1.215   7.210   8.471 -1.6984 -1.2096  1.3985
35789SOL     OW11728   3.470   9.512   2.984 -0.7896  0.3085  0.4521
35789SOL    HW111729   3.414   9.545   3.054 -0.3476 -0.0759  1.0009
35789SOL    HW211730   3.559   9.525   3.017 -0.5914 -0.4738  0.2473
35790SOL     OW11731   1.174   3.945   5.028  0.5599 -0.0659  0.1215
35790SOL    HW111732   1.142   3.984   5.110  0.1033  0.7965 -0.4551
35790SOL    HW211733   1.111   3.875   5.010  0.7523 -0.3681  0.5776
35791SOL     OW11734   2.108   6.764   9.444  0.2782  0.5498  0.6513
35791SOL    HW111735   2.068   6.729   9.524 -0.4431 -3.3684 -1.1744
35791SOL    HW211736   2.034   6.797   9.393  0.5768  1.7403  0.9501
35792SOL     OW11737   6.745   5.601   2.839  0.2407  0.2286 -0.1547
35792SOL    HW111738   6.697   5.584   2.920 -1.4718 -0.4083 -1.2406
35792SOL    HW211739   6.707   5.681   2.804  1.3192  0.7813 -0.1024
35793SOL     OW11740   6.372   8.458   2.055  0.7946  0.2216 -0.3706
35793SOL    HW111741   6.384   8.381   2.110 -0.4959  0.0439 -0.3181
35793SOL    HW211742   6.424   8.526   2.098 -0.4968  0.2046  1.3459
35794SOL     OW11743   2.255   8.114   8.653  0.3564  0.0460  0.2291
35794SOL    HW111744   2.324   8.051   8.677  1.6299  1.2172 -0.2184
35794SOL    HW211745   2.198   8.065   8.594  0.5845 -1.0616  0.8902
35795SOL     OW11746   6.607   4.177   7.603  0.3332  0.2293  0.0070
35795SOL    HW111747   6.555   4.101   7.630  0.7839 -0.1279 -0.1183
35795SOL    HW211748   6.698   4.148   7.613  0.5608  1.3498  1.7333
35796SOL     OW11749   2.325   1.705   6.638 -0.2843  0.4084 -0.3020
35796SOL    HW111750   2.291   1.794   6.650  3.4520  1.9201  0.5156
35796SOL    HW211751   2.414   1.708   6.673 -0.1633 -3.8924  0.3565
35797SOL     OW11752   0.897   0.326   9.343 -0.0653 -0.1233 -0.5200
35797SOL    HW111753   0.908   0.403   9.399  1.1538 -0.4845 -0.2395
35797SOL    HW211754   0.897   0.252   9.403 -0.0132 -0.4309 -0.8936
35798SOL     OW11755   7.166   8.504   8.040 -0.2918 -0.3475 -0.0325
35798SOL    HW111756   7.160   8.598   8.024 -1.2788 -0.5225 -0.8245
35798SOL    HW211757   7.158   8.464   7.953 -0.3499 -1.1739  0.3401
35799SOL     OW11758   0.026   0.496   4.625  0.0110  0.2586  0.2295
35799SOL    HW111759   0.116   0.463   4.619 -0.0839 -0.0163  0.3044
35799SOL    HW211760  -0.007   0.461   4.707  0.0138  0.8108  0.4690
35800SOL     OW11761   3.390   6.140   5.580  0.1110  0.4864 -0.3770
35800SOL    HW111762   3.383   6.048   5.555  1.1659  0.4223 -0.4760
35800SOL    HW211763   3.477   6.167   5.550 -0.5245  1.7770 -1.1613
35801SOL     OW11764   1.112   8.974   3.956 -0.6688 -0.2635  0.1372
35801SOL    HW111765   1.151   9.012   3.878 -2.5610  0.9050 -0.2952
35801SOL    HW211766   1.096   9.048   4.014 -1.0936 -0.8702  0.8210
35802SOL     OW11767   7.823   6.474   3.094 -0.3645 -0.0564  0.5983
35802SOL    HW111768   7.805   6.406   3.030 -1.6978  0.8944 -0.0642
35802SOL    HW211769   7.777   6.551   3.062 -0.6385  0.5856  2.4283
35803SOL     OW11770   4.168   6.378   2.677  0.5192  0.3274 -0.1522
35803SOL    HW111771   4.134   6.295   2.645 -0.7486  0.4703  0.7508
35803SOL    HW211772   4.244   6.396   2.621  0.9600 -1.5260 -0.2282
35804SOL     OW11773   9.295   6.072   5.819  0.3216 -0.5631  0.0217
35804SOL    HW111774   9.317   6.161   5.794  0.1339 -0.6206 -0.3487
35804SOL    HW211775   9.241   6.082   5.898  0.5847 -0.3681  0.1786
35805SOL     OW11776  10.287   8.145   4.116  0.2735  0.3187  0.3907
35805SOL    HW111777  10.375   8.181   4.109  0.6487 -0.4712  0.8783
35805SOL    HW211778  10.252   8.149   4.027  1.7762 -1.7779 -0.3666
35806SOL     OW11779   7.168   4.140   8.612  0.1327  0.2086  0.6046
35806SOL    HW111780   7.162   4.111   8.703 -0.7422 -1.8373 -0.0624
35806SOL    HW211781   7.079   4.164   8.588  0.3947  0.9440  0.3175
35807SOL     OW11782   3.078   9.473   5.315 -0.0928 -0.0144  0.8720
35807SOL    HW111783   3.170   9.458   5.337 -0.2612 -1.5869  0.5864
35807SOL    HW211784   3.081   9.517   5.230  0.4008 -0.6785  0.5350
35808SOL     OW11785  10.483   3.722   1.918  0.3065 -0.0428  0.0723
35808SOL    HW111786  10.573   3.746   1.938  0.4859 -1.0654  0.5611
35808SOL    HW211787  10.452   3.678   1.997 -0.4513 -0.1689 -0.2852
35809SOL     OW11788   6.641   5.037   6.249 -0.0135 -0.1031 -0.0838
35809SOL    HW111789   6.685   5.016   6.332  0.8722 -1.9042 -0.9555
35809SOL    HW211790   6.568   5.093   6.274  0.3621 -0.4227  1.8925
35810SOL     OW11791   5.019   5.117  10.318  0.2629  0.1691 -0.1293
35810SOL    HW111792   4.967   5.188  10.279 -0.2030  0.1595  0.4640
35810SOL    HW211793   5.087   5.162  10.368 -0.1404  0.2074  0.3936
35811SOL     OW11794   1.287   5.077   2.123 -0.1062 -1.1078  0.8166
35811SOL    HW111795   1.356   5.118   2.071 -0.4133 -0.7166  0.7130
35811SOL    HW211796   1.262   4.999   2.073 -1.1117 -0.1903 -0.1541
35812SOL     OW11797   1.769   7.101   8.067  0.2209 -0.5151  0.1164
35812SOL    HW111798   1.675   7.111   8.049  0.0559 -2.3942 -0.2732
35812SOL    HW211799   1.773   7.054   8.150  0.8379 -0.1376  0.3062
35813SOL     OW11800   6.565   9.231   3.544  0.1809 -0.3128  0.5373
35813SOL    HW111801   6.474   9.246   3.517  0.7282 -0.6914 -1.7111
35813SOL    HW211802   6.605   9.318   3.541  0.4015 -0.4480 -0.5581
35814SOL     OW11803   9.539   8.002  10.934  0.1392  0.0885  0.5939
35814SOL    HW111804   9.509   7.918  10.969 -0.8458  0.5903  0.9966
35814SOL    HW211805   9.558   8.055  11.012 -0.6817  0.7276  0.3718
35815SOL     OW11806  10.727   2.445   3.603 -0.7658  0.1268 -0.0956
35815SOL    HW111807  10.787   2.387   3.650 -0.4794  0.0694 -0.5292
35815SOL    HW211808  10.694   2.391   3.531 -1.3193  0.1658  0.1196
35816SOL     OW11809   9.279   7.002   0.763  0.5401 -0.1342 -0.1017
35816SOL    HW111810   9.258   6.909   0.775  1.9805 -0.2847  1.6581
35816SOL    HW211811   9.373   7.007   0.780  0.5880  1.5745 -0.7398
35817SOL     OW11812   3.803   7.468   4.834  0.6929  0.3344 -0.3695
35817SOL    HW111813   3.749   7.390   4.850 -0.2435  0.9895 -0.2690
35817SOL    HW211814   3.748   7.524   4.780  0.8932  1.4350  0.5391
35818SOL     OW11815   6.064  10.252   2.057  0.2811 -0.1330 -0.0432
35818SOL    HW111816   6.099  10.326   2.008  0.0719 -1.2129 -1.9155
35818SOL    HW211817   6.037  10.289   2.141  0.3954  1.8505 -0.8413
35819SOL     OW11818   5.124  10.193   2.166  0.0589 -0.0651  0.7878
35819SOL    HW111819   5.136  10.156   2.254 -1.1106  0.5594  1.2304
35819SOL    HW211820   5.159  10.126   2.107 -1.4298 -1.6451  1.5995
35820SOL     OW11821   3.136   2.246   2.292 -0.1653  0.1094 -0.0423
35820SOL    HW111822   3.203   2.284   2.235 -0.1398  0.4342  0.1977
35820SOL    HW211823   3.149   2.290   2.376 -0.2967 -0.2571  0.1733
35821SOL     OW11824   8.322   9.848   6.131 -0.1037  0.1485  0.3738
35821SOL    HW111825   8.411   9.824   6.105  0.7537  1.2843  2.0601
35821SOL    HW211826   8.267   9.821   6.058  1.4598 -1.7387 -0.1862
35822SOL     OW11827   8.140   0.881   4.926  0.5593  0.0065  0.3250
35822SOL    HW111828   8.193   0.822   4.979 -0.4742  0.0624  1.4677
35822SOL    HW211829   8.188   0.890   4.844  1.1763 -1.7034  0.4661
35823SOL     OW11830  10.107   0.814  10.662 -0.1793  0.3607  0.4731
35823SOL    HW111831  10.191   0.768  10.666  0.4976  1.4451 -0.7190
35823SOL    HW211832  10.042   0.745  10.675  0.8214 -0.9121 -0.8646
35824SOL     OW11833   4.144   4.013   2.559 -0.1247  0.1939 -0.6231
35824SOL    HW111834   4.201   3.937   2.549 -0.3178 -1.0760  4.9368
35824SOL    HW211835   4.198   4.077   2.606 -2.0759  0.3393  1.6126
35825SOL     OW11836   4.357   1.688   7.271 -0.4616 -0.4762 -0.2649
35825SOL    HW111837   4.313   1.749   7.210  1.2564  0.1479 -0.9346
35825SOL    HW211838   4.393   1.620   7.215  1.7123  0.4519 -0.0731
35826SOL     OW11839   4.805   0.981   3.315 -0.6707 -0.8448 -0.4866
35826SOL    HW111840   4.761   1.034   3.381 -0.1824 -0.9957 -0.0253
35826SOL    HW211841   4.734   0.936   3.269 -1.0686 -0.0429 -0.6763
35827SOL     OW11842  10.526   1.083   3.278 -0.0350  0.1301 -0.3036
35827SOL    HW111843  10.612   1.073   3.237 -0.1216  1.0612 -0.7546
35827SOL    HW211844  10.508   1.177   3.273 -0.3100  0.2119  1.3613
35828SOL     OW11845   1.252   5.388   9.962  0.3130  0.0870  0.1362
35828SOL    HW111846   1.208   5.362   9.881 -0.1203  0.8589  0.1235
35828SOL    HW211847   1.343   5.363   9.948  0.1713 -0.1278 -0.4417
35829SOL     OW11848   6.312   6.555   4.959  0.5552 -0.3518  0.1953
35829SOL    HW111849   6.341   6.623   4.898  0.6426  0.3885  1.0484
35829SOL    HW211850   6.285   6.602   5.037 -1.5234 -1.1201  0.0177
35830SOL     OW11851   0.703   6.112   2.612  0.8341 -0.9238 -0.4728
35830SOL    HW111852   0.762   6.051   2.568  0.1869 -0.2409 -2.3877
35830SOL    HW211853   0.740   6.198   2.594 -0.8083 -0.4709 -1.9062
35831SOL     OW11854   2.670   6.767   5.463 -0.2341 -0.3026 -0.0154
35831SOL    HW111855   2.679   6.802   5.374 -0.1591  0.0915  0.1438
35831SOL    HW211856   2.681   6.844   5.519  1.3015 -0.7965  0.3981
35832SOL     OW11857  10.355   8.788   5.511 -1.1494 -0.1431 -0.1255
35832SOL    HW111858  10.346   8.879   5.482 -1.2182  0.9328  2.8811
35832SOL    HW211859  10.440   8.785   5.555 -1.2267 -1.4839 -0.0360
35833SOL     OW11860   2.056  10.873   0.714 -0.7661  0.7367  0.7051
35833SOL    HW111861   2.056  10.854   0.808 -1.6684  0.3413  0.6309
35833SOL    HW211862   2.082  10.965   0.708  1.9316  0.1015  1.1825
35834SOL     OW11863   6.426   7.181   2.736  0.3096  0.5268  0.5461
35834SOL    HW111864   6.442   7.242   2.664  2.4849  0.7951  1.1667
35834SOL    HW211865   6.462   7.097   2.705  0.7591  0.5112  1.0839
35835SOL     OW11866   0.206   8.165   3.096 -0.1035 -0.0232  0.5827
35835SOL    HW111867   0.143   8.119   3.041 -1.0161 -0.0246  1.5989
35835SOL    HW211868   0.290   8.149   3.054 -0.8989  1.2680 -1.6958
35836SOL     OW11869   7.709   0.454   1.621 -0.2560 -0.3335 -0.5477
35836SOL    HW111870   7.804   0.467   1.621 -0.2914 -0.0117  0.2792
35836SOL    HW211871   7.694   0.386   1.687 -0.6364 -0.0806 -0.3709
35837SOL     OW11872   1.015   5.651   5.266  0.1192 -0.2026 -0.5345
35837SOL    HW111873   1.077   5.592   5.224 -0.0832 -0.2457 -0.7718
35837SOL    HW211874   0.972   5.696   5.194  1.2211  1.2326 -0.3518
35838SOL     OW11875   3.090   9.625   9.567 -0.2690  0.1348 -0.5346
35838SOL    HW111876   3.065   9.540   9.603  1.0606  0.1927  0.5867
35838SOL    HW211877   3.077   9.687   9.639  0.4303  0.6007 -0.8003
35839SOL     OW11878   0.653  10.068   5.282 -0.6711  0.1131  0.0930
35839SOL    HW111879   0.746  10.059   5.263 -0.1572  1.0980  1.9392
35839SOL    HW211880   0.635  10.000   5.347 -1.5792 -0.9062 -1.1629
35840SOL     OW11881   9.742   8.687   2.073 -0.4712 -0.4628  0.2593
35840SOL    HW111882   9.689   8.749   2.024 -1.6928 -1.3115  0.4580
35840SOL    HW211883   9.832   8.708   2.050 -0.9284  0.5319 -0.6692
35841SOL     OW11884   0.987   4.009   1.926  0.3304  0.5252  0.4083
35841SOL    HW111885   0.932   3.936   1.897  1.3796  0.3177 -1.1607
35841SOL    HW211886   0.933   4.056   1.990 -1.1348 -0.4323 -0.0846
35842SOL     OW11887   1.221   3.928   9.784 -0.0330 -0.1349 -0.0479
35842SOL    HW111888   1.268   3.923   9.701  0.4129 -0.9158  0.2454
35842SOL    HW211889   1.255   4.007   9.826  1.1485 -0.7661  0.2262
35843SOL     OW11890   5.574   5.917   1.142  0.1649 -0.2532 -0.2017
35843SOL    HW111891   5.616   6.003   1.140  2.2298 -1.1489  1.2325
35843SOL    HW211892   5.499   5.928   1.200  0.2619  0.6309 -0.2328
35844SOL     OW11893   3.911   9.492   5.063 -0.3330  0.3730  0.1252
35844SOL    HW111894   3.901   9.538   5.147  0.1275  0.9527 -0.1308
35844SOL    HW211895   3.937   9.404   5.087 -0.3964  0.4812  0.6004
35845SOL     OW11896   9.597   5.409   9.191 -0.0175 -0.2913  0.5434
35845SOL    HW111897   9.621   5.321   9.162 -0.0448 -0.0582 -0.2118
35845SOL    HW211898   9.506   5.401   9.219  0.0554 -0.5549  0.7014
35846SOL     OW11899   2.208   5.140   9.159  0.0827  0.0757  1.1217
35846SOL    HW111900   2.215   5.052   9.195 -1.1776 -0.0817  1.0253
35846SOL    HW211901   2.115   5.162   9.167  0.0431  0.6709 -0.5070
35847SOL     OW11902   9.137   3.885   7.864  0.0061  0.8883  0.1728
35847SOL    HW111903   9.047   3.913   7.847 -0.1966 -0.6164 -1.6146
35847SOL    HW211904   9.174   3.871   7.777  0.5942 -2.5903  0.8354
35848SOL     OW11905   0.749   4.602  10.941  0.1620 -0.0591 -0.0355
35848SOL    HW111906   0.790   4.538  10.882 -0.8779 -0.4447 -0.3581
35848SOL    HW211907   0.753   4.559  11.027  1.8913  0.6028  0.2693
35849SOL     OW11908   4.827   2.609   6.546 -0.1152 -0.2990  0.2325
35849SOL    HW111909   4.736   2.620   6.573  0.3274 -0.2235  1.7718
35849SOL    HW211910   4.828   2.526   6.498 -0.9431 -0.4368  0.4436
35850SOL     OW11911   7.639   1.165   4.095 -0.0858 -0.5902 -0.5065
35850SOL    HW111912   7.622   1.073   4.118 -2.0387 -1.2019 -3.6857
35850SOL    HW211913   7.692   1.160   4.015  0.5077  1.1211 -0.2608
35851SOL     OW11914   0.219   9.417   6.695 -0.3216  0.5139 -0.4968
35851SOL    HW111915   0.246   9.499   6.655  0.8580 -0.2654 -1.3570
35851SOL    HW211916   0.276   9.351   6.657  0.0956 -0.4595  1.6305
35852SOL     OW11917   1.862   2.638   5.890 -0.6777  0.2603  0.0669
35852SOL    HW111918   1.869   2.581   5.967 -0.1021  1.3810  0.8720
35852SOL    HW211919   1.801   2.593   5.832 -0.4949 -1.0085  0.8259
35853SOL     OW11920   0.231   8.340   9.145 -0.6539 -0.7010  0.2778
35853SOL    HW111921   0.268   8.341   9.056  0.1870  2.4290  0.5639
35853SOL    HW211922   0.262   8.258   9.183  1.2451 -0.8330 -1.4081
35854SOL     OW11923   8.759   5.748   7.186  0.3458 -0.1329  0.4102
35854SOL    HW111924   8.803   5.832   7.187  0.3647 -0.0046 -2.8264
35854SOL    HW211925   8.829   5.683   7.178  0.1823 -0.2721  0.1011
35855SOL     OW11926   6.703   7.289  11.007 -0.3010  0.2109 -0.3111
35855SOL    HW111927   6.686   7.376  10.973 -0.9447 -0.2127 -1.1031
35855SOL    HW211928   6.623   7.239  10.987  1.2261 -1.4638 -2.8126
35856SOL     OW11929   9.286   0.039   0.486 -0.0968  0.1834  0.1396
35856SOL    HW111930   9.335   0.101   0.431  1.6840 -1.3445 -0.1409
35856SOL    HW211931   9.200   0.033   0.445  0.9622 -0.4117 -2.1869
35857SOL     OW11932   6.539   0.226   8.514 -0.4745 -0.0411  0.1602
35857SOL    HW111933   6.580   0.164   8.455 -1.6225  0.0798 -0.8084
35857SOL    HW211934   6.446   0.204   8.512 -0.6223  0.3189  1.5156
35858SOL     OW11935   6.699   5.875   0.469  0.1071  0.1968  0.1026
35858SOL    HW111936   6.667   5.951   0.520 -1.0572 -0.6542  0.6872
35858SOL    HW211937   6.673   5.894   0.379 -1.9266 -0.3406  0.5193
35859SOL     OW11938   0.470   1.774   2.316  0.1724  0.3895  0.3682
35859SOL    HW111939   0.519   1.694   2.337  0.2953  0.3549 -0.0427
35859SOL    HW211940   0.530   1.826   2.264 -0.5176 -0.0377 -0.8993
35860SOL     OW11941   4.718  10.000   7.673  0.0811  0.0602 -0.2378
35860SOL    HW111942   4.661   9.943   7.622  0.4478 -0.5921  0.0759
35860SOL    HW211943   4.658  10.059   7.719 -0.4731 -1.6759  1.3945
35861SOL     OW11944  10.890   0.807   3.634  0.2307 -0.4105 -0.3579
35861SOL    HW111945  10.879   0.898   3.661 -2.3294 -1.0589  1.1610
35861SOL    HW211946  10.856   0.804   3.544  0.4134  0.1282 -0.4462
35862SOL     OW11947   5.603   2.657   3.269 -0.4503  0.3641 -0.0796
35862SOL    HW111948   5.654   2.628   3.345 -1.5220 -0.7874  0.2530
35862SOL    HW211949   5.614   2.587   3.205 -0.4870  0.7712 -0.5360
35863SOL     OW11950  11.003   4.651   7.129 -0.2247  0.5352 -0.1518
35863SOL    HW111951  11.036   4.630   7.042 -0.8304  1.1288 -0.5372
35863SOL    HW211952  10.962   4.737   7.119 -1.2032  0.1633  0.4774
35864SOL     OW11953   7.143   2.415   7.212  0.4772  0.0521 -0.3625
35864SOL    HW111954   7.211   2.348   7.210  0.5538  0.1299 -0.3570
35864SOL    HW211955   7.146   2.456   7.126 -1.0353 -1.4150 -1.1737
35865SOL     OW11956   4.930   4.567   9.414 -0.6036 -0.6582  0.4660
35865SOL    HW111957   4.913   4.604   9.328 -0.9356  1.1377  1.2657
35865SOL    HW211958   4.967   4.481   9.396 -0.6989 -0.3331 -1.4637
35866SOL     OW11959   3.406   3.660   3.545  0.0546  0.1172  0.1404
35866SOL    HW111960   3.368   3.691   3.628 -1.9652 -0.8066 -0.3937
35866SOL    HW211961   3.362   3.712   3.478  2.5993  1.7846 -0.3956
35867SOL     OW11962   1.129   6.150  10.357  0.3469  0.0633  0.2906
35867SOL    HW111963   1.053   6.153  10.299  1.5078 -1.2955 -1.3963
35867SOL    HW211964   1.140   6.240  10.387 -1.1221  0.5324 -0.4941
35868SOL     OW11965   2.036   2.835   7.925  0.6209 -0.2983  0.3237
35868SOL    HW111966   2.073   2.751   7.950 -1.2401 -1.4094 -0.4578
35868SOL    HW211967   1.965   2.849   7.988 -0.1264 -0.1314 -0.5375
35869SOL     OW11968   1.850   8.287   9.890 -0.0104 -0.1293 -0.2582
35869SOL    HW111969   1.875   8.361   9.944 -0.4311 -0.2349  0.0906
35869SOL    HW211970   1.772   8.317   9.843 -1.9412 -1.2319  1.9921
35870SOL     OW11971   6.982   7.292   8.238 -0.2465 -0.1771  0.1434
35870SOL    HW111972   6.928   7.242   8.299 -0.1555  0.8964  1.1498
35870SOL    HW211973   6.920   7.341   8.185 -0.3604 -1.7656 -1.2637
35871SOL     OW11974   8.110   6.269   2.573 -0.1742  0.5933 -0.1052
35871SOL    HW111975   8.062   6.350   2.590 -2.6252 -0.5871 -0.8853
35871SOL    HW211976   8.108   6.222   2.656 -2.2146 -0.3068 -0.6168
35872SOL     OW11977   5.866   8.423   2.923 -0.2362  0.1708  0.0129
35872SOL    HW111978   5.807   8.480   2.972  0.0142 -0.0898  0.6228
35872SOL    HW211979   5.952   8.465   2.931 -0.2476  0.2891 -0.4634
35873SOL     OW11980   9.061   7.718   6.456 -0.5472  0.4263  0.1607
35873SOL    HW111981   9.009   7.709   6.536 -0.3062  1.4363  0.4447
35873SOL    HW211982   9.015   7.785   6.405 -0.3299  0.2669 -0.2501
35874SOL     OW11983   4.221   4.352  10.179  0.2951  0.5045 -0.1176
35874SOL    HW111984   4.158   4.407  10.226 -0.1273  1.0625 -1.2835
35874SOL    HW211985   4.214   4.266  10.221 -0.4174  0.8594  0.5093
35875SOL     OW11986   8.969   8.861   5.062  0.2204  0.0297 -0.1847
35875SOL    HW111987   8.895   8.922   5.064  0.5016  0.3541  0.8372
35875SOL    HW211988   9.006   8.871   4.974 -1.0443 -0.2750 -0.7824
35876SOL     OW11989   2.102   6.814   3.895 -0.3520  0.1620 -0.1768
35876SOL    HW111990   2.158   6.748   3.852  0.2669  0.1976  0.5406
35876SOL    HW211991   2.117   6.799   3.988  1.3469  2.5867  0.0220
35877SOL     OW11992   0.011   2.790   5.726 -0.1545 -0.0253  0.2960
35877SOL    HW111993  -0.042   2.838   5.662  0.0816  1.1712  0.9538
35877SOL    HW211994   0.092   2.840   5.732  0.3670 -0.8776  0.5596
35878SOL     OW11995   4.390   9.416   0.652 -0.7350 -0.2741 -0.0697
35878SOL    HW111996   4.441   9.469   0.714 -0.2456  0.6943 -1.2574
35878SOL    HW211997   4.338   9.480   0.603 -2.3680 -1.1611  0.4113
35879SOL     OW11998   2.251   8.397   7.863  0.7836  0.5711  0.2152
35879SOL    HW111999   2.225   8.396   7.955 -0.1310 -1.5988  0.0042
35879SOL    HW212000   2.346   8.410   7.865  0.9799 -0.7588  1.5768
35880SOL     OW12001  10.861   1.740   7.455 -0.2853  0.0986  1.0710
35880SOL    HW112002  10.772   1.718   7.483 -0.9155  1.7096  0.4099
35880SOL    HW212003  10.868   1.702   7.368 -1.6389  2.8752 -0.3883
35881SOL     OW12004   3.329   2.783   4.847 -0.0626 -0.5167 -0.2558
35881SOL    HW112005   3.424   2.789   4.853 -0.1213 -0.7428  1.3953
35881SOL    HW212006   3.298   2.872   4.866 -0.1736 -0.0674 -2.3091
35882SOL     OW12007   7.845   1.994   1.238  0.0667  0.1231  0.1850
35882SOL    HW112008   7.806   2.079   1.257  1.6289  1.0346 -0.4873
35882SOL    HW212009   7.911   2.012   1.171  1.1098 -1.4665  0.7228
35883SOL     OW12010   9.730   3.346   6.503  0.4213 -0.0304 -0.4779
35883SOL    HW112011   9.694   3.292   6.573  0.1352 -0.0400 -0.6317
35883SOL    HW212012   9.747   3.431   6.545  2.4937 -0.7341  0.2004
35884SOL     OW12013  10.309  10.386  10.638 -0.5044 -0.1779 -0.5785
35884SOL    HW112014  10.220  10.419  10.650 -1.0703 -1.1771 -1.8123
35884SOL    HW212015  10.362  10.464  10.624 -1.1015  0.4610  0.5230
35885SOL     OW12016   1.644   4.046   8.050  0.2561 -0.5885 -0.0143
35885SOL    HW112017   1.707   3.975   8.050  1.0302  0.0102 -2.0476
35885SOL    HW212018   1.578   4.021   8.115  1.0984 -2.5864  0.1337
35886SOL     OW12019   6.430   5.520   3.951 -0.1267  0.1433  0.1339
35886SOL    HW112020   6.373   5.583   3.994 -2.9415 -2.8492  1.2589
35886SOL    HW212021   6.464   5.466   4.023  1.3814 -0.2733 -0.8413
35887SOL     OW12022   1.825   0.200   6.934 -0.2177  0.2445  0.5332
35887SOL    HW112023   1.892   0.152   6.983 -1.0366 -0.9358  0.5528
35887SOL    HW212024   1.844   0.182   6.842  0.3350  1.1028  0.4674
35888SOL     OW12025   7.286   9.638   5.944  0.2151  0.1356 -0.1268
35888SOL    HW112026   7.205   9.611   5.987 -0.8250  0.0633 -2.0015
35888SOL    HW212027   7.343   9.560   5.949  0.0332  0.0582  0.8570
35889SOL     OW12028   0.494  10.440   2.350  0.1926 -0.2663  0.3296
35889SOL    HW112029   0.493  10.423   2.256  0.3656  0.4365  0.1975
35889SOL    HW212030   0.467  10.357   2.389  1.4813 -0.9982 -0.2705
35890SOL     OW12031   2.792   6.078   8.235  0.9703  0.4284  0.7171
35890SOL    HW112032   2.717   6.119   8.277  0.2898 -0.4996  0.4230
35890SOL    HW212033   2.782   6.097   8.142 -0.0185 -1.3782  0.4090
35891SOL     OW12034   4.584   9.424   5.138  0.0157 -0.1908 -0.1933
35891SOL    HW112035   4.661   9.377   5.106 -0.3364 -0.4448 -0.6690
35891SOL    HW212036   4.523   9.356   5.165 -0.5653 -0.0295 -1.0483
35892SOL     OW12037   9.252   3.915   6.941  0.3477 -0.1164 -0.1542
35892SOL    HW112038   9.286   3.975   7.007  0.3800  1.3273 -1.4281
35892SOL    HW212039   9.158   3.910   6.958  0.4899 -0.4736  0.5469
35893SOL     OW12040   7.857   6.869  10.546 -0.5357  0.5296 -0.2263
35893SOL    HW112041   7.790   6.925  10.585 -0.5696  0.1747  0.2367
35893SOL    HW212042   7.815   6.783  10.539 -0.2411  0.3864 -0.2438
35894SOL     OW12043   6.686   1.794   5.552 -0.4855 -0.8180 -0.1564
35894SOL    HW112044   6.761   1.766   5.606 -2.3689 -3.0928  1.4702
35894SOL    HW212045   6.625   1.832   5.615 -0.3764  2.0503 -1.6015
35895SOL     OW12046  10.068   3.368   5.179 -0.2459  0.0881 -0.1040
35895SOL    HW112047  10.062   3.408   5.266 -3.7478  0.3326 -0.3163
35895SOL    HW212048  10.094   3.440   5.121 -1.0440  0.7373  0.3210
35896SOL     OW12049   5.613   5.470   7.118  0.4760 -0.2798 -0.1450
35896SOL    HW112050   5.615   5.549   7.064  1.8720 -0.8670 -1.0158
35896SOL    HW212051   5.668   5.407   7.071 -1.5186 -2.1933 -0.0776
35897SOL     OW12052   7.276   3.495  10.409  0.1854  0.5817 -0.0737
35897SOL    HW112053   7.188   3.491  10.371 -0.0519  0.6515  0.4687
35897SOL    HW212054   7.333   3.468  10.337 -0.3465 -0.3116 -0.1744
35898SOL     OW12055  10.850  10.813   3.896 -0.2960  0.5404  0.6642
35898SOL    HW112056  10.758  10.787   3.904 -0.2067 -0.1569 -0.3722
35898SOL    HW212057  10.856  10.895   3.946 -1.1140 -0.2099  2.0615
35899SOL     OW12058   0.877   5.950  10.596  0.6084  0.2621  0.2832
35899SOL    HW112059   0.829   5.886  10.650  1.6409  0.5415  1.5847
35899SOL    HW212060   0.960   5.907  10.576  0.2855  0.2117 -1.0314
35900SOL     OW12061   7.659   8.323   7.290 -0.0359  0.4279  0.0029
35900SOL    HW112062   7.633   8.338   7.199  2.4471 -1.1769 -1.1062
35900SOL    HW212063   7.606   8.384   7.341 -1.5304  1.3814 -2.5036
35901SOL     OW12064   4.243   0.221   7.545 -0.6641  0.3696 -0.6766
35901SOL    HW112065   4.303   0.244   7.616 -1.1144 -0.5415  0.0197
35901SOL    HW212066   4.200   0.303   7.522 -1.0271  0.5495  0.5998
35902SOL     OW12067   1.188   3.655   5.581 -0.1097 -0.0873  0.1885
35902SOL    HW112068   1.212   3.700   5.662 -0.1897 -0.1796  0.2638
35902SOL    HW212069   1.258   3.676   5.520 -0.5548  0.8044 -0.0264
35903SOL     OW12070   1.835   7.676   2.489 -0.0072  0.1274 -0.4214
35903SOL    HW112071   1.750   7.720   2.494  0.5468  1.3374 -1.1378
35903SOL    HW212072   1.895   7.738   2.530  0.7218 -0.1676 -1.0343
35904SOL     OW12073  10.328   2.327   1.597  0.1133  0.0732  0.3155
35904SOL    HW112074  10.265   2.343   1.528  0.5985  2.1266  0.2832
35904SOL    HW212075  10.353   2.235   1.586 -2.0983 -0.5184 -0.2558
35905SOL     OW12076   2.661   8.577   0.283 -0.2413 -0.4191  0.1486
35905SOL    HW112077   2.720   8.501   0.279 -0.1829 -0.4850  1.4927
35905SOL    HW212078   2.600   8.563   0.212 -0.3405 -1.8531  0.4688
35906SOL     OW12079   8.892   8.786  10.345  0.2759  0.0603 -0.3200
35906SOL    HW112080   8.919   8.733  10.421  0.0443 -0.1025 -0.3486
35906SOL    HW212081   8.910   8.876  10.371  1.0892 -0.0636 -0.4441
35907SOL     OW12082   8.934   8.401   7.789  0.4236  0.2213  0.4699
35907SOL    HW112083   8.946   8.307   7.776  0.2690  0.0671  1.3745
35907SOL    HW212084   8.840   8.412   7.805  0.4909  0.4823  0.7068
35908SOL     OW12085   1.068   6.891   4.681  0.5459  0.0071  0.1107
35908SOL    HW112086   0.983   6.865   4.717  0.3335  1.7310  0.9312
35908SOL    HW212087   1.048   6.967   4.626  1.7672  1.6843  1.8609
35909SOL     OW12088   2.351   8.759   4.438 -0.4144  0.1854 -0.4538
35909SOL    HW112089   2.323   8.830   4.380 -0.3550 -0.3460 -1.1454
35909SOL    HW212090   2.325   8.788   4.526  0.0210  1.2673 -0.6649
35910SOL     OW12091   8.794   2.604   5.712  0.2755  0.2102  0.5578
35910SOL    HW112092   8.761   2.516   5.729  2.2577 -0.7405 -0.2697
35910SOL    HW212093   8.738   2.637   5.641  0.9872 -1.3498 -0.7932
35911SOL     OW12094   1.805   8.870   3.661  0.2804 -0.6053  0.0538
35911SOL    HW112095   1.809   8.775   3.654  0.2429 -0.7215  1.3839
35911SOL    HW212096   1.713   8.889   3.681  0.2785 -0.2792 -0.2456
35912SOL     OW12097  10.068   5.664   2.924  0.7924 -0.2699 -0.0180
35912SOL    HW112098  10.146   5.717   2.937  0.4339  1.5745 -3.8155
35912SOL    HW212099  10.091   5.605   2.852 -1.1642  0.0927 -1.0086
35913SOL     OW12100   7.274   7.972   5.431 -0.8423  0.9251  0.1165
35913SOL    HW112101   7.353   7.970   5.377  0.8134 -0.6793  2.3807
35913SOL    HW212102   7.240   8.061   5.421  1.1519  1.6188 -1.0799
35914SOL     OW12103   5.586  10.669   4.630  0.3219 -0.1409 -0.5394
35914SOL    HW112104   5.651  10.633   4.691 -0.2431  0.4321  0.4207
35914SOL    HW212105   5.541  10.736   4.680 -0.7482 -0.2503 -1.3279
35915SOL     OW12106   5.054  10.731   9.142  0.3042 -0.1796 -0.1251
35915SOL    HW112107   4.966  10.751   9.108 -0.1034 -1.0035  0.4187
35915SOL    HW212108   5.112  10.788   9.092 -0.5011  0.0961 -0.7719
35916SOL     OW12109   3.489   2.992   3.659 -0.3483 -0.5043 -0.3321
35916SOL    HW112110   3.447   3.077   3.675 -0.0125 -0.1193 -1.4455
35916SOL    HW212111   3.489   2.950   3.745 -4.2321 -1.0927 -0.4342
35917SOL     OW12112   1.238   5.690   1.429 -0.1894  0.3895  0.3979
35917SOL    HW112113   1.304   5.719   1.366 -2.5394  0.9502 -1.9591
35917SOL    HW212114   1.239   5.594   1.422 -0.7920  0.4589 -0.9675
35918SOL     OW12115   1.683   9.905   7.143  0.3440  0.4700  0.3192
35918SOL    HW112116   1.683   9.924   7.049 -1.6422 -0.5769  0.0746
35918SOL    HW212117   1.748   9.836   7.153  0.8048  0.8107 -0.2185
35919SOL     OW12118   0.884   7.495   8.039  0.3199  0.1017 -0.0783
35919SOL    HW112119   0.789   7.486   8.045  0.2853  0.5069  0.0522
35919SOL    HW212120   0.897   7.573   7.984  0.5622  0.4867  0.5101
35920SOL     OW12121   6.935   7.317   9.071  0.2354  0.0636  0.0029
35920SOL    HW112122   6.967   7.245   9.124  2.3430  0.2739 -0.8898
35920SOL    HW212123   6.969   7.396   9.114  0.1079  0.3763 -0.4566
35921SOL     OW12124   9.258  10.303   6.373  0.2515 -0.0922  0.3563
35921SOL    HW112125   9.298  10.368   6.316 -1.2296 -0.1727 -0.8548
35921SOL    HW212126   9.281  10.219   6.333 -0.4752 -0.1640  0.0721
35922SOL     OW12127   3.615   0.168   3.788  0.1763 -1.0048  0.3803
35922SOL    HW112128   3.704   0.200   3.806 -0.0089 -0.1939 -0.0862
35922SOL    HW212129   3.599   0.102   3.856  1.6226 -2.1211 -0.2933
35923SOL     OW12130   0.202   8.084   3.710 -0.2735  0.2222  0.3770
35923SOL    HW112131   0.140   8.157   3.723 -0.0039  0.2951  1.4023
35923SOL    HW212132   0.279   8.125   3.670 -0.5333  0.3099 -0.0295
35924SOL     OW12133   7.518   1.963   9.656  0.1714  0.0459 -0.3477
35924SOL    HW112134   7.452   2.002   9.713  1.1830 -0.2752  1.1173
35924SOL    HW212135   7.504   2.004   9.571 -0.9121  1.1249  0.3126
35925SOL     OW12136   3.836   1.639   5.997  0.3513 -0.3305 -0.1292
35925SOL    HW112137   3.745   1.619   5.977 -0.1875  0.6828  1.1504
35925SOL    HW212138   3.835   1.730   6.027  1.6581 -0.5441  0.6656
35926SOL     OW12139   4.731   1.983   7.451  0.0992 -0.0863 -0.2113
35926SOL    HW112140   4.650   1.939   7.425  0.2438  1.4396 -4.0593
35926SOL    HW212141   4.787   1.914   7.487 -1.7426 -1.8070 -0.4938
35927SOL     OW12142   9.664   9.526   6.511 -0.0241  0.8601  0.0869
35927SOL    HW112143   9.654   9.566   6.597 -0.5169  1.9155 -0.4384
35927SOL    HW212144   9.728   9.583   6.466 -0.7465  1.0872 -0.6797
35928SOL     OW12145   3.298   8.063   7.853  0.2095  0.5172  0.2017
35928SOL    HW112146   3.384   8.046   7.813  0.6847  0.4044  1.2378
35928SOL    HW212147   3.318   8.103   7.938 -0.7128 -0.7368  1.0507
35929SOL     OW12148   2.611   7.083   6.840 -0.2246  0.4802  0.1831
35929SOL    HW112149   2.657   7.116   6.918  1.7083 -1.0169 -0.2687
35929SOL    HW212150   2.528   7.049   6.875  1.2404 -1.5724  1.8838
35930SOL     OW12151   5.902   3.999   6.875  0.1127  0.5356  0.5129
35930SOL    HW112152   5.956   3.920   6.867 -0.3136  0.3459 -0.6953
35930SOL    HW212153   5.958   4.070   6.843  0.3057  0.6477  1.0864
35931SOL     OW12154   7.595   2.957  10.982  0.0450  0.1512 -0.2837
35931SOL    HW112155   7.592   2.970  11.077  3.4018  0.2451 -0.0633
35931SOL    HW212156   7.586   3.046  10.947  1.6386  0.5471  0.1756
35932SOL     OW12157  10.121   8.834   0.416  0.1971 -0.9340  0.0299
35932SOL    HW112158  10.084   8.795   0.495  0.8486 -0.6918  0.4521
35932SOL    HW212159  10.197   8.781   0.395 -0.9170 -2.0767 -1.4352
35933SOL     OW12160   0.176   4.149   7.086 -0.0422 -0.1452  0.3869
35933SOL    HW112161   0.097   4.142   7.141  0.5732  0.1922  1.3443
35933SOL    HW212162   0.179   4.241   7.062 -0.0223 -0.1894  0.2253
35934SOL     OW12163   0.152   4.702   0.614 -0.2186 -0.0267  0.3537
35934SOL    HW112164   0.240   4.714   0.648 -0.1426 -0.6681  0.3984
35934SOL    HW212165   0.139   4.607   0.613 -0.6879  0.0339 -0.2090
35935SOL     OW12166  10.001   9.504   9.416  0.8696  0.2385 -0.3365
35935SOL    HW112167  10.078   9.556   9.394 -0.7375  2.2067 -1.7382
35935SOL    HW212168   9.998   9.437   9.348  0.3173  1.3694 -1.4666
35936SOL     OW12169   4.561   6.410   1.309 -0.0581 -0.5708 -0.1801
35936SOL    HW112170   4.634   6.360   1.347  0.3619 -0.0966 -0.3523
35936SOL    HW212171   4.528   6.353   1.239 -1.0873 -1.6175  1.1130
35937SOL     OW12172   3.314   7.214   9.571  0.2968 -0.2584 -0.9832
35937SOL    HW112173   3.345   7.294   9.612  0.5841 -0.3809 -0.9583
35937SOL    HW212174   3.267   7.243   9.493  0.4631 -0.0714 -1.0145
35938SOL     OW12175   3.218   1.798   8.202  0.6086  0.1811 -0.7146
35938SOL    HW112176   3.133   1.808   8.245 -0.9454 -1.2836 -3.2094
35938SOL    HW212177   3.272   1.752   8.267 -1.0716 -0.4814  0.2892
35939SOL     OW12178   8.549  10.236   0.847  0.2247  0.1485 -0.1577
35939SOL    HW112179   8.472  10.293   0.849 -1.9409 -2.5835 -0.3803
35939SOL    HW212180   8.583  10.245   0.758 -1.6047 -0.7345 -0.9910
35940SOL     OW12181   6.117   7.841   4.710 -0.6349  0.1119 -0.6334
35940SOL    HW112182   6.163   7.923   4.695  1.1619 -0.8485 -0.6713
35940SOL    HW212183   6.047   7.839   4.645  0.5865  0.6815 -1.9916
35941SOL     OW12184   7.782   4.095   8.203  0.0137  0.9053  0.6393
35941SOL    HW112185   7.773   4.116   8.296 -0.0183  1.4307  0.5210
35941SOL    HW212186   7.778   4.180   8.158  0.2669  0.6813  0.1781
35942SOL     OW12187   6.724   4.467   8.613  0.4532 -0.3580  0.3400
35942SOL    HW112188   6.751   4.413   8.538  1.3132  0.7364 -0.1768
35942SOL    HW212189   6.775   4.434   8.686  0.9213 -0.3106  0.0422
35943SOL     OW12190   2.738   7.059   4.739  0.3849 -0.3193 -0.7837
35943SOL    HW112191   2.780   7.135   4.779  0.8683 -0.7122 -0.5382
35943SOL    HW212192   2.801   7.027   4.675  0.4059 -0.8226 -0.5181
35944SOL     OW12193   4.964   1.238   7.280  0.1966  0.7527  0.3277
35944SOL    HW112194   4.903   1.191   7.223  0.8223  0.2898  0.0245
35944SOL    HW212195   5.050   1.219   7.243  0.5792  0.8189  1.1656
35945SOL     OW12196   5.586   1.535   8.379  0.3367  0.1236  0.2538
35945SOL    HW112197   5.577   1.620   8.335  0.6021  0.6103  1.0976
35945SOL    HW212198   5.509   1.486   8.353  1.5587 -0.5050 -2.5911
35946SOL     OW12199   1.567   1.103   7.827 -0.2204 -0.5033  0.1785
35946SOL    HW112200   1.479   1.125   7.796 -0.3262 -1.8680 -0.6145
35946SOL    HW212201   1.559   1.012   7.857  0.4481  0.0231  2.0515
35947SOL     OW12202   8.685  11.058   2.128  0.1692  0.3761 -0.3925
35947SOL    HW112203   8.742  11.025   2.058  1.2226 -0.5988  0.8938
35947SOL    HW212204   8.735  11.128   2.169 -1.4536  2.7425 -2.1356
35948SOL     OW12205   0.940   8.761   3.922 -0.1565 -0.3432 -0.3356
35948SOL    HW112206   1.010   8.822   3.943  0.7246 -0.8550 -1.6447
35948SOL    HW212207   0.891   8.804   3.852 -0.9769 -0.1316  0.3484
35949SOL     OW12208   0.347   2.651   2.816  0.2662  0.1506 -0.3359
35949SOL    HW112209   0.382   2.684   2.734  1.0535 -0.0670 -0.0912
35949SOL    HW212210   0.409   2.583   2.843 -1.0598 -1.2360 -0.6030
35950SOL     OW12211   1.045   2.860   9.425  0.2953  0.0112 -0.2806
35950SOL    HW112212   1.011   2.847   9.337 -1.1730 -1.6495  0.4724
35950SOL    HW212213   1.099   2.783   9.442 -4.0749 -2.9521  2.2333
35951SOL     OW12214   0.164   7.190   2.550  0.9405 -0.5478  0.6343
35951SOL    HW112215   0.187   7.228   2.466 -1.2527  0.5371  0.4411
35951SOL    HW212216   0.104   7.253   2.589  1.7585 -1.1006  2.9571
35952SOL     OW12217   5.165   1.092   7.564 -0.1526 -0.0365  0.4509
35952SOL    HW112218   5.243   1.068   7.614  1.0029  0.2742 -1.1491
35952SOL    HW212219   5.191   1.169   7.514 -0.5143 -1.5864 -2.3052
35953SOL     OW12220   8.950   3.565   2.983  0.4289  0.6794 -0.4900
35953SOL    HW112221   8.934   3.502   2.913  2.4379 -2.2895  1.4420
35953SOL    HW212222   8.871   3.560   3.038  1.3772 -2.1673  0.8644
35954SOL     OW12223  10.298   8.968   6.868 -0.1580  0.4640 -0.1981
35954SOL    HW112224  10.243   9.002   6.798  1.0182  2.5809 -0.2101
35954SOL    HW212225  10.298   8.873   6.856 -2.2137  0.5620 -1.3315
35955SOL     OW12226   7.164   2.696   0.003 -0.2736  0.6760 -0.5046
35955SOL    HW112227   7.183   2.773  -0.049  0.3973  1.4940  0.8958
35955SOL    HW212228   7.247   2.650   0.010 -0.4768  0.2833 -0.5888
35956SOL     OW12229  10.345   0.212   6.441  0.2744  0.2654  0.5394
35956SOL    HW112230  10.435   0.239   6.459 -0.1858  2.1260  0.2610
35956SOL    HW212231  10.299   0.293   6.419 -1.4313 -0.6661  0.4558
35957SOL     OW12232  10.295   5.062   3.471  0.0239  0.0458 -0.7071
35957SOL    HW112233  10.293   5.155   3.449  0.4953 -0.1090 -1.4361
35957SOL    HW212234  10.222   5.024   3.422 -0.5444  0.1192  0.0606
35958SOL     OW12235   5.712   3.454   8.549  0.2480  0.2745  0.6745
35958SOL    HW112236   5.696   3.370   8.592  1.6431  0.3230  1.3345
35958SOL    HW212237   5.723   3.516   8.621  0.1086  0.8563  0.2030
35959SOL     OW12238  11.032   6.230   6.126  0.1097  0.4450 -1.0420
35959SOL    HW112239  10.943   6.264   6.126 -0.0701 -0.0168 -0.5634
35959SOL    HW212240  11.086   6.305   6.151 -0.4037  0.1107  1.2008
35960SOL     OW12241   8.799   1.585   2.928 -0.4893 -0.0900 -0.1543
35960SOL    HW112242   8.740   1.549   2.862 -0.5264  1.0178 -0.7556
35960SOL    HW212243   8.869   1.626   2.877  0.4671 -0.8372  0.5422
35961SOL     OW12244   1.490   7.924   3.241 -0.0891 -0.1445  0.0178
35961SOL    HW112245   1.435   7.894   3.313 -0.5685 -0.6557 -0.5537
35961SOL    HW212246   1.437   7.912   3.163  0.4327  0.3838 -0.4346
35962SOL     OW12247   6.458   4.354   8.532 -0.4015  0.1226 -0.2196
35962SOL    HW112248   6.490   4.421   8.593  1.6337 -1.0363  0.0806
35962SOL    HW212249   6.367   4.339   8.558  0.0980  0.3954  1.8972
35963SOL     OW12250   0.190   1.420   1.167  0.5457  0.3033  0.6767
35963SOL    HW112251   0.164   1.503   1.127 -0.7948  0.1407  1.1587
35963SOL    HW212252   0.277   1.403   1.132  1.2716  2.4010  1.3090
35964SOL     OW12253   3.246   5.103  10.673  0.5124 -0.4993 -0.0562
35964SOL    HW112254   3.155   5.113  10.647  0.6285  0.4101 -0.1307
35964SOL    HW212255   3.242   5.055  10.756  0.0575 -1.8557 -0.8262
35965SOL     OW12256   1.011   0.105   9.201 -0.2967  0.4264 -0.9571
35965SOL    HW112257   1.010   0.067   9.288 -1.0593  0.9257 -0.7416
35965SOL    HW212258   0.964   0.188   9.210 -1.5175 -0.1118 -2.1083
35966SOL     OW12259   5.411   9.864   9.878  0.4799  0.4285 -0.2592
35966SOL    HW112260   5.399   9.940   9.935 -0.7986 -0.4770  0.7481
35966SOL    HW212261   5.445   9.796   9.937 -0.2115 -0.3251 -0.7251
35967SOL     OW12262   7.404   3.801   9.503 -0.3305 -0.0977 -0.4019
35967SOL    HW112263   7.478   3.812   9.562 -0.8030 -0.9440  0.3777
35967SOL    HW212264   7.414   3.713   9.468 -1.8429 -0.8840  1.0031
35968SOL     OW12265   9.253   7.564   1.518  0.0057 -0.2587  0.2857
35968SOL    HW112266   9.290   7.508   1.586  1.8465  1.9230  1.2219
35968SOL    HW212267   9.191   7.621   1.565  1.3638  1.3339  0.2558
35969SOL     OW12268   3.477   9.823   2.600 -0.0353 -0.2075  0.5913
35969SOL    HW112269   3.509   9.739   2.635 -0.0234  0.0498  1.2079
35969SOL    HW212270   3.420   9.857   2.669 -1.5609 -0.5890 -0.4383
35970SOL     OW12271   7.142   9.610   6.200  0.0415 -0.2567  0.5325
35970SOL    HW112272   7.058   9.653   6.212 -0.2440 -0.8006  0.4866
35970SOL    HW212273   7.199   9.651   6.265 -0.0472  0.6521  0.0579
35971SOL     OW12274   5.223   5.697   1.925  0.1202  0.8732 -0.4232
35971SOL    HW112275   5.181   5.617   1.956 -0.2194  1.1546 -0.1544
35971SOL    HW212276   5.280   5.723   1.997  0.4876  0.6889 -0.6456
35972SOL     OW12277   4.797  10.477   8.148 -0.5667 -0.0388 -0.3263
35972SOL    HW112278   4.848  10.500   8.071 -0.8311 -0.4538 -0.6296
35972SOL    HW212279   4.706  10.479   8.119 -0.6267 -5.3480 -1.6220
35973SOL     OW12280   5.790   1.155   1.682  0.1175  0.9294 -0.1874
35973SOL    HW112281   5.742   1.082   1.720  1.0910  0.3080 -0.0990
35973SOL    HW212282   5.776   1.228   1.743  0.4307  0.3672  0.5726
35974SOL     OW12283  10.866   8.325   7.700  0.2744  0.3163  0.2415
35974SOL    HW112284  10.805   8.372   7.643  1.0307  1.2229  0.1342
35974SOL    HW212285  10.889   8.246   7.651  0.7892  1.0003 -0.6657
35975SOL     OW12286   6.620   5.381   0.363 -0.1379 -0.4038  0.3329
35975SOL    HW112287   6.617   5.358   0.270 -0.1081  1.9592 -0.3191
35975SOL    HW212288   6.529   5.398   0.387 -0.0614 -0.2622  0.5247
35976SOL     OW12289   1.428  10.348   0.498 -0.0583 -0.1607 -0.3479
35976SOL    HW112290   1.512  10.389   0.518 -0.0400  0.3297 -1.3764
35976SOL    HW212291   1.392  10.324   0.583 -0.1443  2.1422  0.3214
35977SOL     OW12292   7.984   1.539   3.717 -0.1047 -0.1992 -0.3193
35977SOL    HW112293   8.032   1.474   3.769  1.8412  1.0092 -0.4665
35977SOL    HW212294   8.051   1.576   3.659 -1.5921  0.5392 -1.6261
35978SOL     OW12295  10.337   4.151   6.742  0.2391  0.2638 -0.5306
35978SOL    HW112296  10.290   4.228   6.774  0.4161  0.7488 -1.4081
35978SOL    HW212297  10.269   4.084   6.733 -0.0091  0.4748 -0.2777
35979SOL     OW12298   8.083   3.895   4.784 -0.5214  0.3520  0.4856
35979SOL    HW112299   8.156   3.859   4.734 -0.7098  2.2168 -1.2464
35979SOL    HW212300   8.041   3.818   4.824  0.6640 -1.0391 -0.8280
35980SOL     OW12301  10.425   7.302  10.170 -0.0465 -0.1176  0.4283
35980SOL    HW112302  10.475   7.252  10.235  0.1098  0.2724  0.6081
35980SOL    HW212303  10.412   7.240  10.098 -0.5359 -0.6708  0.9753
35981SOL     OW12304   5.328   0.884   2.489 -0.5585 -0.2510 -0.3983
35981SOL    HW112305   5.403   0.887   2.549 -0.5228 -0.2970 -0.4406
35981SOL    HW212306   5.367   0.873   2.403 -0.6401 -0.8355 -0.3629
35982SOL     OW12307  10.563   1.174   5.578 -0.1459 -0.2582 -0.1034
35982SOL    HW112308  10.498   1.123   5.626 -1.4717  0.9372 -0.5743
35982SOL    HW212309  10.611   1.221   5.647 -1.6362  0.9823  0.1400
35983SOL     OW12310   7.264   2.360   9.941  0.0863 -0.0918  0.5510
35983SOL    HW112311   7.190   2.353  10.001 -0.4378  0.3533 -0.0212
35983SOL    HW212312   7.226   2.398   9.861  1.3296  2.4769  1.0547
35984SOL     OW12313   2.505   2.104   8.911  0.0417  0.4504 -0.6151
35984SOL    HW112314   2.415   2.133   8.925 -0.7463 -2.7025  1.8714
35984SOL    HW212315   2.553   2.140   8.986 -0.4490 -2.3100  1.1603
35985SOL     OW12316   5.613   9.027   6.055  0.2659  0.3738  0.0513
35985SOL    HW112317   5.553   8.957   6.028 -0.3001  1.4824 -1.6817
35985SOL    HW212318   5.691   8.980   6.084  0.6398 -1.0183 -2.8126
35986SOL     OW12319   3.078   2.406   6.475  0.0039 -0.3549 -0.4251
35986SOL    HW112320   3.067   2.326   6.422  0.1306 -0.1773 -0.7228
35986SOL    HW212321   3.032   2.387   6.556  0.9947 -1.1806 -0.0303
35987SOL     OW12322   4.080   9.018   9.443  0.3088  0.1614  0.0532
35987SOL    HW112323   4.140   9.030   9.516 -0.2780 -2.7244  1.1560
35987SOL    HW212324   3.995   9.004   9.483 -0.1470 -0.8650 -1.1925
35988SOL     OW12325   1.497   4.645   8.966 -0.0512  0.1654  0.4668
35988SOL    HW112326   1.404   4.668   8.966 -0.1676 -0.1051 -1.4581
35988SOL    HW212327   1.542   4.728   8.983 -0.6251  0.6422 -0.2662
35989SOL     OW12328   1.596   4.404  10.415  0.2670  0.5503  0.4229
35989SOL    HW112329   1.598   4.346  10.491  0.2528  0.5732  0.4411
35989SOL    HW212330   1.575   4.490  10.451  3.8758  1.3957  0.9736
35990SOL     OW12331   6.633   0.136   2.075  0.0790  0.1630  0.1220
35990SOL    HW112332   6.550   0.096   2.051 -0.1577  0.1785  0.8986
35990SOL    HW212333   6.613   0.229   2.086  0.2810  0.2296 -0.0579
35991SOL     OW12334   0.071   8.309   1.462  0.3624 -0.1348  0.3813
35991SOL    HW112335   0.108   8.398   1.467  0.3298 -0.1431  0.7683
35991SOL    HW212336   0.055   8.285   1.553  0.4201 -0.5607  0.2778
35992SOL     OW12337  10.036  10.747   6.053 -0.5614  0.2229  0.4375
35992SOL    HW112338  10.039  10.760   5.959 -1.7996 -0.1197  0.3241
35992SOL    HW212339  10.123  10.770   6.084 -0.9950  3.3254 -0.3807
35993SOL     OW12340   4.436   7.539  10.766 -0.1751 -0.3242  0.4542
35993SOL    HW112341   4.403   7.629  10.759  0.0582 -0.2576  0.2298
35993SOL    HW212342   4.522   7.548  10.806  0.7079 -0.2851 -1.4007
35994SOL     OW12343   6.318   9.582   4.590  0.0378  0.0027  0.1134
35994SOL    HW112344   6.290   9.581   4.498  0.1035  0.8526  0.0703
35994SOL    HW212345   6.398   9.531   4.592  0.4247  0.5818 -0.4434
35995SOL     OW12346   8.663  10.997  10.434  0.8956  0.2038  0.2134
35995SOL    HW112347   8.578  10.960  10.412  1.4610 -0.6757 -0.5498
35995SOL    HW212348   8.654  11.024  10.526  0.1099 -0.7837  0.4505
35996SOL     OW12349   7.365   5.641   2.859 -0.1733 -0.1781  0.8433
35996SOL    HW112350   7.358   5.701   2.933  0.0069  0.3256  0.4510
35996SOL    HW212351   7.456   5.611   2.861 -0.0404  0.2056  0.5361
35997SOL     OW12352   7.740   2.376   5.485 -0.1149 -0.2641 -0.2666
35997SOL    HW112353   7.824   2.421   5.492 -0.1740  0.0450 -1.3931
35997SOL    HW212354   7.703   2.381   5.573  0.9534 -0.2423  0.2025
35998SOL     OW12355   2.370   3.106   6.243  0.0243  0.1712 -0.0211
35998SOL    HW112356   2.399   3.177   6.186 -0.4047 -0.5911 -1.2355
35998SOL    HW212357   2.450   3.062   6.270  0.3856  1.7036  1.6065
35999SOL     OW12358   5.257   3.455   8.470 -0.1341  0.2044 -0.1835
35999SOL    HW112359   5.347   3.440   8.442  0.3396 -2.4373  2.3423
35999SOL    HW212360   5.207   3.459   8.388  2.0279  0.1571 -1.5813
36000SOL     OW12361   7.964   4.121   4.608  0.4879  0.0373 -0.2966
36000SOL    HW112362   7.990   4.194   4.664 -0.3917 -0.6542  1.0841
36000SOL    HW212363   7.983   4.043   4.660  2.3694 -0.8311 -2.1377
36001SOL     OW12364   6.023   9.498   8.373  0.2077 -0.1995 -0.2598
36001SOL    HW112365   6.064   9.508   8.287  0.4394  0.2868 -0.1013
36001SOL    HW212366   6.096   9.502   8.435 -0.2030  3.0314  0.1864
36002SOL     OW12367   8.103   0.536   0.409 -0.3356 -0.0576  0.1512
36002SOL    HW112368   8.042   0.596   0.452 -1.4497 -0.5957 -0.6168
36002SOL    HW212369   8.116   0.573   0.321  1.2919  0.6046  0.6245
36003SOL     OW12370  10.282   0.107   4.489  0.5434 -0.3664  0.3689
36003SOL    HW112371  10.210   0.050   4.460  0.2892 -0.5748  1.3857
36003SOL    HW212372  10.298   0.164   4.413 -0.9271 -0.0890  0.2234
36004SOL     OW12373   3.788   8.269  10.177  0.2433  0.1270  0.0295
36004SOL    HW112374   3.848   8.195  10.171 -0.5707 -0.5172 -0.3253
36004SOL    HW212375   3.717   8.248  10.116 -0.9809  0.2763  1.3543
36005SOL     OW12376  10.699   4.058  11.077 -0.0591 -0.7374  0.1303
36005SOL    HW112377  10.636   4.079  11.147 -0.7360  1.3548 -1.0195
36005SOL    HW212378  10.754   4.137  11.071 -0.0814 -0.8407 -1.7447
36006SOL     OW12379  10.917   2.881   7.568  0.1260  0.0688 -0.1907
36006SOL    HW112380  10.947   2.968   7.592  1.2460 -0.1119 -0.8700
36006SOL    HW212381  10.823   2.891   7.552  0.3534  1.2647 -0.8183
36007SOL     OW12382   8.022   1.504   3.252 -0.1480  0.3747 -0.0476
36007SOL    HW112383   8.079   1.581   3.249 -0.7029  0.7838 -0.3179
36007SOL    HW212384   8.078   1.434   3.287  1.0945  0.2682 -2.1131
36008SOL     OW12385   0.935  10.711   5.217  1.0932  0.3371 -0.0987
36008SOL    HW112386   0.881  10.643   5.176  0.3883  0.4845  0.5606
36008SOL    HW212387   1.025  10.679   5.207  0.7312 -1.1907  1.0291
36009SOL     OW12388   5.996   8.322   6.562 -0.5240 -0.3160  0.0580
36009SOL    HW112389   5.992   8.409   6.602 -1.5953  0.2201 -1.1303
36009SOL    HW212390   6.004   8.262   6.636  4.4134  0.8984  0.8259
36010SOL     OW12391   5.552   9.814   3.074 -0.2974  0.1603  0.4105
36010SOL    HW112392   5.552   9.860   3.158 -0.3324 -0.3435  0.6917
36010SOL    HW212393   5.643   9.821   3.043  0.2631 -1.4931  1.5364
36011SOL     OW12394   9.990  10.477   4.941 -0.0432 -0.4359  0.2443
36011SOL    HW112395  10.030  10.478   4.854  2.1699  2.3401  1.1568
36011SOL    HW212396   9.898  10.453   4.924  0.6446 -1.5112 -2.6056
36012SOL     OW12397   7.302   0.943   0.307  0.2109  0.2715 -0.0178
36012SOL    HW112398   7.344   0.919   0.225  1.6709  0.6655  0.5956
36012SOL    HW212399   7.362   1.004   0.349 -0.9928  0.8819  0.8819
36013SOL     OW12400   4.126   3.740   8.564 -0.1210 -0.1506  0.3628
36013SOL    HW112401   4.104   3.661   8.615 -0.4476 -2.2166 -2.6913
36013SOL    HW212402   4.041   3.783   8.549 -0.2038 -0.2775  0.4673
36014SOL     OW12403   1.333   5.107   7.810  0.8640 -0.2167 -0.1976
36014SOL    HW112404   1.387   5.130   7.734 -0.1877  0.5150 -0.7611
36014SOL    HW212405   1.252   5.073   7.771  0.2750  0.2662  0.5982
36015SOL     OW12406   9.703  11.115  10.016 -0.6146 -0.1776 -0.3240
36015SOL    HW112407   9.699  11.091   9.924  0.9300 -2.0749  0.0300
36015SOL    HW212408   9.736  11.205  10.017 -2.6180  0.6518 -1.6112
36016SOL     OW12409   4.859   7.201   6.165 -0.2308  0.4202 -0.0410
36016SOL    HW112410   4.896   7.122   6.125 -1.4831 -0.3948  0.3525
36016SOL    HW212411   4.935   7.249   6.199  0.6660  0.0472 -1.4209
36017SOL     OW12412   3.918   1.558   4.721 -0.6491  0.7973 -0.1408
36017SOL    HW112413   3.887   1.468   4.710  0.0115  0.8107 -2.8206
36017SOL    HW212414   3.837   1.609   4.734 -1.2322  0.0683 -0.7749
36018SOL     OW12415  10.396   0.171   3.362 -0.2210  0.0697 -0.0415
36018SOL    HW112416  10.388   0.093   3.417 -0.6608  0.9064  1.1242
36018SOL    HW212417  10.319   0.224   3.384 -0.9760 -0.0201 -2.2536
36019SOL     OW12418   2.231   9.359   9.526  0.2572 -0.3993 -0.0779
36019SOL    HW112419   2.155   9.301   9.527  0.6732 -0.9582  0.7282
36019SOL    HW212420   2.277   9.339   9.608  2.6386 -1.9339 -1.6537
36020SOL     OW12421   6.697   1.110   2.562  0.1840  0.8352 -0.0961
36020SOL    HW112422   6.671   1.184   2.508  0.5049 -0.2477 -1.8090
36020SOL    HW212423   6.786   1.129   2.589  0.4346  0.8804 -0.9244
36021SOL     OW12424   1.722   5.350   2.690  0.0497 -0.4630 -0.0708
36021SOL    HW112425   1.649   5.361   2.630  0.5426 -1.5951 -0.8959
36021SOL    HW212426   1.726   5.256   2.708  0.7872 -0.3181  0.6218
36022SOL     OW12427   4.257   8.350   9.979  0.3406  0.5903  0.1284
36022SOL    HW112428   4.298   8.393   9.903 -1.1236  0.1112 -0.9905
36022SOL    HW212429   4.165   8.341   9.954 -0.0867 -0.0122  1.7965
36023SOL     OW12430   5.038   8.690   9.272 -0.4739  0.0092  0.0373
36023SOL    HW112431   5.063   8.763   9.328 -2.3005 -1.2671  2.7715
36023SOL    HW212432   5.014   8.730   9.189  3.2134  1.9186 -0.2872
36024SOL     OW12433   6.012   6.008   0.413 -1.0525  0.3648  0.6529
36024SOL    HW112434   5.957   6.059   0.472 -0.1753 -0.1984  2.0100
36024SOL    HW212435   6.091   5.990   0.463 -0.0065  0.3602 -0.9205
36025SOL     OW12436   6.168   9.081   0.181 -0.6754  0.0614 -0.0589
36025SOL    HW112437   6.154   9.062   0.274  1.3424 -0.3223  0.2113
36025SOL    HW212438   6.126   9.166   0.168  1.0546  1.3257  1.8464
36026SOL     OW12439   7.952   1.018   1.242 -0.0593  0.0076  0.1842
36026SOL    HW112440   8.036   1.061   1.232  0.4359 -1.2818 -1.7786
36026SOL    HW212441   7.917   1.053   1.324  1.6050  1.8269  0.1992
36027SOL     OW12442   9.527   8.278   9.665  0.4003  0.0297  0.2701
36027SOL    HW112443   9.558   8.205   9.612  0.0739  0.2490 -0.2369
36027SOL    HW212444   9.564   8.263   9.752  0.6353 -0.5383  0.0748
36028SOL     OW12445   2.636   8.124   5.863 -0.1512  0.1975 -0.7518
36028SOL    HW112446   2.654   8.192   5.797 -0.4541 -0.9758 -2.0855
36028SOL    HW212447   2.643   8.042   5.815 -1.0319 -0.6695  0.5517
36029SOL     OW12448   7.463   5.065   5.572  0.2774 -0.2336 -0.0637
36029SOL    HW112449   7.457   4.994   5.508  2.7481  1.0466 -1.9336
36029SOL    HW212450   7.517   5.030   5.642  1.1837 -0.3435 -0.7998
36030SOL     OW12451   9.959   3.839   6.316  0.3882 -0.0394 -0.1540
36030SOL    HW112452   9.932   3.815   6.227 -1.0035 -0.9553  0.4784
36030SOL    HW212453  10.047   3.873   6.305  0.7949 -1.4123 -1.7257
36031SOL     OW12454   0.178   4.704   6.488  0.0418 -0.2611  0.1278
36031SOL    HW112455   0.139   4.777   6.439  0.0697 -1.4465 -1.7892
36031SOL    HW212456   0.106   4.669   6.541 -0.2767  0.4150  0.1409
36032SOL     OW12457   1.472   0.390   7.696  0.1022 -0.1182  0.1672
36032SOL    HW112458   1.470   0.298   7.722  0.3448 -0.4370 -0.8899
36032SOL    HW212459   1.458   0.389   7.601  1.1319  0.8451 -0.0257
36033SOL     OW12460   7.897   9.637   4.453 -0.1838  0.3971  0.2053
36033SOL    HW112461   7.874   9.548   4.479  1.3098 -0.0501  0.1021
36033SOL    HW212462   7.834   9.659   4.385 -0.2961 -0.7560 -0.0894
36034SOL     OW12463   0.520   9.775   1.653 -0.3036 -0.4076 -0.2743
36034SOL    HW112464   0.562   9.709   1.708 -0.1735 -0.4697 -0.4469
36034SOL    HW212465   0.485   9.840   1.714  1.4026  0.4758 -0.1771
36035SOL     OW12466  10.247   3.158   5.268 -0.3781 -0.3099 -0.0171
36035SOL    HW112467  10.243   3.253   5.263 -0.7036 -0.2222  1.4003
36035SOL    HW212468  10.211   3.137   5.354 -3.9473 -1.9922 -1.7194
36036SOL     OW12469   6.725   2.126   6.135 -0.0951 -0.3465  0.1561
36036SOL    HW112470   6.778   2.098   6.209  0.8537 -1.1600 -0.8047
36036SOL    HW212471   6.716   2.048   6.080 -1.7158 -0.0486 -0.0477
36037SOL     OW12472   3.733   8.553   9.905 -0.2992  0.1254 -0.1675
36037SOL    HW112473   3.732   8.585   9.815 -0.7711 -0.9662 -0.5704
36037SOL    HW212474   3.641   8.536   9.925 -0.1833  0.2608  0.4812
36038SOL     OW12475   5.840   8.180   4.628  0.0483 -0.0819  0.1954
36038SOL    HW112476   5.889   8.127   4.566 -0.7894 -0.0162 -0.5424
36038SOL    HW212477   5.900   8.251   4.652  0.4875 -0.2774 -0.3064
36039SOL     OW12478   3.429  10.599   1.360  0.0871 -0.7311  0.1235
36039SOL    HW112479   3.382  10.640   1.433 -0.3448  1.0481 -1.0915
36039SOL    HW212480   3.399  10.508   1.360 -2.9669  0.1638 -0.2242
36040SOL     OW12481   4.698   2.732  10.282  0.1576  0.5723 -0.5475
36040SOL    HW112482   4.614   2.714  10.325  0.6008 -0.3842 -0.0366
36040SOL    HW212483   4.686   2.702  10.192  1.1119 -3.4848  0.4323
36041SOL     OW12484   6.233   1.499   4.899 -0.3603  0.4621 -0.0877
36041SOL    HW112485   6.173   1.563   4.937 -0.8159  1.0322 -1.7021
36041SOL    HW212486   6.188   1.415   4.911 -1.2082  0.8093 -0.7046
36042SOL     OW12487   0.516   1.486   3.011  0.2374  0.1929 -0.4844
36042SOL    HW112488   0.438   1.436   3.033  0.9243 -0.6118  0.1941
36042SOL    HW212489   0.558   1.503   3.096  0.5734  0.9927 -0.7994
36043SOL     OW12490  10.024   0.367   6.914 -0.3162  0.0347  0.4077
36043SOL    HW112491  10.016   0.371   6.818  0.9183  1.4431  0.3314
36043SOL    HW212492   9.939   0.332   6.943 -0.2317 -1.7146 -1.2580
36044SOL     OW12493   0.094   3.078  11.094  0.0762 -0.3286  0.6254
36044SOL    HW112494   0.145   3.011  11.138  0.2385  0.8318  2.2997
36044SOL    HW212495   0.016   3.089  11.149  0.8127  1.9428  1.3036
36045SOL     OW12496   0.683   3.099   3.860  0.1289  0.4093 -0.1016
36045SOL    HW112497   0.771   3.136   3.863  0.8332 -1.1369 -0.8373
36045SOL    HW212498   0.626   3.174   3.841  1.3203  1.3427 -0.1165
36046SOL     OW12499   0.420   1.022   0.453 -0.0081 -0.0654 -0.2303
36046SOL    HW112500   0.387   1.111   0.466 -0.0009 -0.1600  0.4368
36046SOL    HW212501   0.398   0.976   0.533 -1.1190 -1.0200 -1.0443
36047SOL     OW12502   1.762   4.625   7.061  0.0806  0.0570  0.6935
36047SOL    HW112503   1.844   4.612   7.014 -0.0505 -0.3353  0.5693
36047SOL    HW212504   1.709   4.549   7.038 -2.1137  2.3462 -2.9048
36048SOL     OW12505   7.943   5.779   6.524 -0.2264  0.1757 -0.2528
36048SOL    HW112506   8.020   5.827   6.555 -1.4304  2.2169 -0.2215
36048SOL    HW212507   7.938   5.799   6.431 -0.9930  0.5113 -0.1491
36049SOL     OW12508   0.186   6.744   5.467 -0.2401  0.3149 -0.0453
36049SOL    HW112509   0.172   6.718   5.558  2.8664 -0.1657  0.4037
36049SOL    HW212510   0.194   6.839   5.470 -0.6638  0.3480  0.0873
36050SOL     OW12511   6.074  10.858   5.595 -0.0665 -0.1629 -0.1165
36050SOL    HW112512   6.031  10.920   5.653 -0.0797  0.1277 -0.4357
36050SOL    HW212513   6.163  10.850   5.630  0.2239  0.7479 -0.6130
36051SOL     OW12514   0.484   4.397   3.259 -0.0779  0.6675  0.3368
36051SOL    HW112515   0.445   4.310   3.273  1.1160  0.1571  0.5532
36051SOL    HW212516   0.549   4.384   3.191 -1.3817  1.8667 -1.2285
36052SOL     OW12517   6.827   0.449   4.888  0.3353  0.3419  0.2008
36052SOL    HW112518   6.859   0.537   4.912  1.4232  0.5813 -1.9002
36052SOL    HW212519   6.870   0.430   4.805 -1.1656 -1.5174 -0.2158
36053SOL     OW12520   9.753   9.611   2.598 -0.3392 -0.5093  0.1654
36053SOL    HW112521   9.687   9.651   2.542 -0.2403 -0.0768  0.3497
36053SOL    HW212522   9.714   9.612   2.685 -0.3507 -0.8531  0.1649
36054SOL     OW12523   2.406   0.035   9.945 -0.4338 -0.2507 -1.0471
36054SOL    HW112524   2.334  -0.022   9.919 -0.2030 -1.1134  0.1085
36054SOL    HW212525   2.379   0.072  10.029  1.4344 -2.5937  0.7528
36055SOL     OW12526   4.211   9.008   4.612  0.6384 -0.1610 -0.4178
36055SOL    HW112527   4.142   8.964   4.564  0.3108 -0.8678  0.6640
36055SOL    HW212528   4.273   8.939   4.636  1.5927  0.4173 -1.1294
36056SOL     OW12529   6.011   1.837   9.709  0.2618 -0.2552  0.7193
36056SOL    HW112530   6.041   1.814   9.796  2.8411  0.9154  0.2274
36056SOL    HW212531   6.046   1.768   9.652  2.8506  1.4574  0.0539
36057SOL     OW12532  10.116   3.777   2.153 -0.1133 -0.0588 -0.0720
36057SOL    HW112533  10.022   3.796   2.153  0.0074  0.6253 -0.7505
36057SOL    HW212534  10.156   3.854   2.194  0.3058  0.7133 -1.8182
36058SOL     OW12535   2.366   7.873   7.615  0.5594 -0.1842  0.6188
36058SOL    HW112536   2.358   7.955   7.664  1.6147  0.6614 -0.5665
36058SOL    HW212537   2.459   7.853   7.618  0.6910  0.0022 -1.1606
36059SOL     OW12538   5.619   0.723   7.097 -0.0978 -0.0772  0.0109
36059SOL    HW112539   5.687   0.764   7.151  1.1078 -1.9932  0.0664
36059SOL    HW212540   5.636   0.756   7.008  1.9504 -1.6761 -0.2575
36060SOL     OW12541   9.151   2.280   2.166 -0.3487 -0.3810  0.3372
36060SOL    HW112542   9.167   2.322   2.251 -0.6392  0.3802  0.0217
36060SOL    HW212543   9.150   2.186   2.186  1.3580 -0.3185  0.8883
36061SOL     OW12544   5.890   2.889   8.975  0.0495 -0.2750  0.0071
36061SOL    HW112545   5.816   2.871   9.033  0.5965  0.6029  0.9978
36061SOL    HW212546   5.967   2.888   9.032  0.8176 -1.1143 -1.0044
36062SOL     OW12547  10.305   1.352   6.253  0.5488 -0.0390 -0.0509
36062SOL    HW112548  10.299   1.349   6.348 -0.8501 -1.3945 -0.1431
36062SOL    HW212549  10.396   1.331   6.234  0.8730  0.3884  0.9931
36063SOL     OW12550   5.685   0.364   2.457 -0.0371  0.8019 -0.4637
36063SOL    HW112551   5.752   0.407   2.510  1.0051  1.3651 -2.1222
36063SOL    HW212552   5.610   0.423   2.461  0.2335  1.1217 -0.0788
36064SOL     OW12553   2.901   0.537   6.364 -0.2592  0.1383  0.7031
36064SOL    HW112554   2.808   0.527   6.344 -0.0275 -1.0275  0.1466
36064SOL    HW212555   2.904   0.563   6.456 -1.0904 -0.7143  0.9754
36065SOL     OW12556   8.543   1.892   6.685 -0.6438  0.1571 -0.0670
36065SOL    HW112557   8.541   1.969   6.742 -2.0152 -0.5795  0.9660
36065SOL    HW212558   8.473   1.836   6.719 -0.3506 -1.0957 -1.4245
36066SOL     OW12559   8.687   5.497   8.922 -0.5026 -0.4979  0.4760
36066SOL    HW112560   8.621   5.439   8.883  0.6510 -1.1062 -0.6667
36066SOL    HW212561   8.757   5.501   8.856  0.4626  0.3680  1.5111
36067SOL     OW12562   1.636   4.586   2.489  0.5213  0.5137  0.0811
36067SOL    HW112563   1.678   4.641   2.423 -2.6299  2.3849 -0.5667
36067SOL    HW212564   1.605   4.509   2.440  0.2345  0.7669 -0.1368
36068SOL     OW12565   7.207   2.544   1.384 -0.2567 -0.1894  0.5661
36068SOL    HW112566   7.229   2.572   1.472 -1.7497 -2.1724  1.6400
36068SOL    HW212567   7.223   2.450   1.383  0.9993 -0.0228 -1.7262
36069SOL     OW12568   7.625   0.377   7.753 -0.3115  0.1251 -0.7739
36069SOL    HW112569   7.613   0.291   7.713 -1.9479  0.4237 -0.9683
36069SOL    HW212570   7.628   0.359   7.847 -1.9829 -0.0305 -0.7295
36070SOL     OW12571   5.665   3.157   0.040  0.8094  0.5624  0.3081
36070SOL    HW112572   5.682   3.069   0.006  1.0399  1.5449 -2.3219
36070SOL    HW212573   5.685   3.151   0.134  2.5806 -1.7127 -0.1375
36071SOL     OW12574   9.461   6.765   2.613  0.0607 -0.2100 -0.3938
36071SOL    HW112575   9.489   6.682   2.574  0.9559 -0.2357  0.2684
36071SOL    HW212576   9.539   6.798   2.656 -1.1498 -0.7876  2.4767
36072SOL     OW12577   7.268   3.232   0.302 -0.3031  0.1669  0.1681
36072SOL    HW112578   7.256   3.151   0.353  0.5551 -0.0673  0.0114
36072SOL    HW212579   7.224   3.299   0.354 -2.6227 -0.6866 -0.5826
36073SOL     OW12580   2.536   4.684  10.601 -0.2300  0.1571 -0.6415
36073SOL    HW112581   2.590   4.607  10.619 -0.3925  0.6502  2.6569
36073SOL    HW212582   2.448   4.649  10.588  0.0106 -0.3389 -0.9576
36074SOL     OW12583   1.437   3.806   3.512 -0.4958 -0.5928  0.1769
36074SOL    HW112584   1.419   3.782   3.603  0.3060 -1.9399  0.0137
36074SOL    HW212585   1.495   3.881   3.517  0.5919 -1.4455  0.8287
36075SOL     OW12586   3.259  11.105   6.497 -0.1923  0.1578  0.0439
36075SOL    HW112587   3.304  11.067   6.573  0.1798 -0.2988 -0.3996
36075SOL    HW212588   3.170  11.123   6.529  0.1455  0.5944  0.7806
36076SOL     OW12589   6.686   5.443   4.086 -0.5816 -0.1361 -0.0691
36076SOL    HW112590   6.707   5.351   4.098 -1.4208 -0.0737  2.2764
36076SOL    HW212591   6.636   5.467   4.164 -2.4528  1.7094 -1.7094
36077SOL     OW12592   3.558   0.202   6.486  0.2498  0.6676  0.1193
36077SOL    HW112593   3.642   0.157   6.487  1.0507  2.1031  0.4245
36077SOL    HW212594   3.567   0.268   6.417 -0.7963  0.5236 -0.1649
36078SOL     OW12595   3.540   5.746   4.922  0.5461  0.0321  1.1989
36078SOL    HW112596   3.579   5.675   4.972  0.5626 -0.4005  0.5842
36078SOL    HW212597   3.571   5.826   4.965  2.0148 -0.2910  0.8111
36079SOL     OW12598   9.763   3.565   6.702  0.6741 -0.4569  0.7017
36079SOL    HW112599   9.826   3.617   6.652 -0.2937 -0.2597 -0.3422
36079SOL    HW212600   9.760   3.608   6.788  0.2001  0.9893 -0.0006
36080SOL     OW12601   9.006  10.893   8.042 -0.1889  0.0720 -0.5904
36080SOL    HW112602   9.055  10.881   8.123 -0.0031  2.2061 -0.3356
36080SOL    HW212603   8.967  10.807   8.025  0.5993 -0.6919  1.1960
36081SOL     OW12604   4.176   7.288   1.928  0.0310 -0.5518  0.0619
36081SOL    HW112605   4.220   7.372   1.910  0.1278 -0.5861  0.1371
36081SOL    HW212606   4.212   7.228   1.863 -0.4715 -0.3905 -0.3720
36082SOL     OW12607   8.701   2.012   4.224  0.5568  0.5907  0.1230
36082SOL    HW112608   8.706   2.097   4.268 -0.7145 -0.7725  3.2205
36082SOL    HW212609   8.763   1.957   4.271  0.9299 -0.3673 -1.4448
36083SOL     OW12610  10.817   5.614   4.752 -0.4170  0.1383 -0.0575
36083SOL    HW112611  10.836   5.642   4.663 -0.1978 -0.8872 -0.3472
36083SOL    HW212612  10.848   5.685   4.807 -0.6252  0.8180 -0.8028
36084SOL     OW12613  10.336   6.507   9.351 -0.3572 -0.4945  0.1356
36084SOL    HW112614  10.374   6.437   9.405  1.6224  1.4130  1.3313
36084SOL    HW212615  10.247   6.518   9.386 -0.0384 -1.1109  1.1808
36085SOL     OW12616   4.505   6.273   3.812 -0.3034  0.0960  0.3195
36085SOL    HW112617   4.552   6.352   3.839  0.6694 -0.0754 -0.7842
36085SOL    HW212618   4.517   6.269   3.717 -1.1295 -0.8833  0.2349
36086SOL     OW12619   0.689   3.691   0.421 -0.3535  0.2548 -0.0035
36086SOL    HW112620   0.618   3.654   0.473 -0.5330  1.7837  0.9068
36086SOL    HW212621   0.661   3.781   0.403  0.9650  0.6179 -0.3516
36087SOL     OW12622   0.796   6.144   5.108 -0.2135 -0.1768 -0.1561
36087SOL    HW112623   0.873   6.095   5.080 -1.4913 -2.0173 -0.6060
36087SOL    HW212624   0.729   6.122   5.045 -0.5208  3.4449 -1.3584
36088SOL     OW12625   3.544   1.157   0.091  0.4848 -0.1472  0.2501
36088SOL    HW112626   3.615   1.198   0.041  0.1278 -0.0089 -0.1482
36088SOL    HW212627   3.469   1.214   0.077 -0.5190 -1.8124 -1.7818
36089SOL     OW12628   2.969   4.379   6.269 -0.3785  0.1867  0.0989
36089SOL    HW112629   2.928   4.321   6.205  1.1058 -0.2855 -0.4821
36089SOL    HW212630   2.949   4.467   6.238  0.5820 -0.0368 -1.2352
36090SOL     OW12631   6.262   0.970   8.248 -0.0203  0.3094  0.6826
36090SOL    HW112632   6.216   1.050   8.223 -1.3022 -0.6355 -0.1166
36090SOL    HW212633   6.347   0.976   8.204 -1.1201  0.0445 -1.6303
36091SOL     OW12634   3.041   7.039  11.058 -0.2729  0.5700 -0.5320
36091SOL    HW112635   3.028   7.084  11.141  0.2710  0.9647 -0.6515
36091SOL    HW212636   2.958   6.994  11.041 -0.3329  0.3609  0.2946
36092SOL     OW12637   9.446  10.145   4.669 -0.0012 -0.1611 -0.3094
36092SOL    HW112638   9.526  10.133   4.619 -1.1976  2.1028 -3.0314
36092SOL    HW212639   9.381  10.172   4.605 -2.2468  0.8576  2.1783
36093SOL     OW12640   5.345   2.004   8.959 -0.3661  0.0800  0.1659
36093SOL    HW112641   5.381   2.000   9.048  0.9824  2.8063 -0.1813
36093SOL    HW212642   5.251   2.018   8.972 -0.5620 -1.7028  1.0848
36094SOL     OW12643   2.829   4.533   7.404  0.2663  0.2516 -0.7831
36094SOL    HW112644   2.824   4.626   7.386  0.3329  0.3119 -0.4941
36094SOL    HW212645   2.887   4.498   7.336 -2.8586 -0.2659 -3.4966
36095SOL     OW12646   8.459   7.985   6.950 -0.0691 -0.2372  0.2348
36095SOL    HW112647   8.545   8.028   6.955 -0.4949  0.8236 -0.9608
36095SOL    HW212648   8.413   8.015   7.028  0.2585  0.0688  0.3173
36096SOL     OW12649   5.848   9.619   3.119  0.1692 -0.1009 -0.0852
36096SOL    HW112650   5.791   9.647   3.047  1.6556  0.6369 -1.0321
36096SOL    HW212651   5.932   9.661   3.100  1.6999 -2.8631  0.0383
36097SOL     OW12652   8.218   9.759   5.543 -0.8891  0.5842  0.1685
36097SOL    HW112653   8.155   9.741   5.613  1.1177 -1.6727  1.5674
36097SOL    HW212654   8.296   9.792   5.588 -0.2721  1.1323 -1.2450
36098SOL     OW12655   5.946   4.675   6.817 -0.1724  0.4324  0.0756
36098SOL    HW112656   5.919   4.613   6.749  0.7923  0.0840 -0.0112
36098SOL    HW212657   5.898   4.648   6.895  0.3599 -0.5440  0.0802
36099SOL     OW12658   5.998   1.063   5.762 -0.9928  0.0862 -0.4601
36099SOL    HW112659   5.949   1.101   5.689  0.8638  0.1727 -1.7274
36099SOL    HW212660   6.014   1.137   5.821 -2.6165 -0.0096  0.1372
36100SOL     OW12661   0.409   4.565   8.147 -0.3361  0.0836  0.2878
36100SOL    HW112662   0.331   4.617   8.128  0.9914  1.6838 -1.2193
36100SOL    HW212663   0.478   4.630   8.158  0.9030 -1.3053  1.0629
36101SOL     OW12664   3.163  10.431   8.398  0.0986  0.6351  0.6235
36101SOL    HW112665   3.230  10.485   8.355 -0.0739  1.6135  1.5553
36101SOL    HW212666   3.083  10.449   8.349  0.9745 -2.9426 -2.5849
36102SOL     OW12667  10.598   3.031   0.180 -0.0426  0.3662 -0.3750
36102SOL    HW112668  10.664   3.089   0.217 -0.7970  0.9453  0.0917
36102SOL    HW212669  10.612   3.035   0.086  0.9074  0.0811 -0.2570
36103SOL     OW12670   8.117   2.821   9.874 -0.0097 -0.3282  0.2406
36103SOL    HW112671   8.200   2.779   9.896 -0.3671 -0.4099  1.4869
36103SOL    HW212672   8.082   2.851   9.958  0.8704  3.7388 -0.6277
36104SOL     OW12673   6.518   9.603   4.168  0.6607  0.5627 -1.1110
36104SOL    HW112674   6.524   9.652   4.086  1.1396  3.3889  0.5083
36104SOL    HW212675   6.429   9.621   4.201  1.4398  1.9142  0.3731
36105SOL     OW12676   9.620   7.839   0.827  0.1028  0.1508 -0.6135
36105SOL    HW112677   9.621   7.908   0.892 -1.6364 -0.6126  0.2937
36105SOL    HW212678   9.665   7.876   0.751  0.1594  1.8676  0.2241
36106SOL     OW12679   8.745   5.946   1.623 -0.5457 -0.5900 -0.2576
36106SOL    HW112680   8.762   5.902   1.706 -1.1556 -1.0484 -0.3756
36106SOL    HW212681   8.827   5.937   1.574 -0.5835 -1.3827 -0.1869
36107SOL     OW12682  10.828   9.190   9.818 -0.1147  0.3065 -0.0392
36107SOL    HW112683  10.785   9.183   9.903 -0.2642  0.7022 -0.0824
36107SOL    HW212684  10.921   9.197   9.838 -0.3060  3.3807  0.2594
36108SOL     OW12685   5.914   4.881   3.191 -0.7671 -0.3147  0.2025
36108SOL    HW112686   5.835   4.930   3.216 -1.0257 -1.2555  1.3393
36108SOL    HW212687   5.911   4.803   3.246  0.7374 -0.5782 -0.0680
36109SOL     OW12688   7.191   9.038  10.137 -0.4950 -0.3885  0.0393
36109SOL    HW112689   7.147   8.993  10.209 -0.5947 -0.3873 -0.0208
36109SOL    HW212690   7.267   8.982  10.117 -1.2177 -1.1178 -0.7645
36110SOL     OW12691   2.323   7.724   9.920  0.1694 -0.7670 -0.9643
36110SOL    HW112692   2.388   7.660   9.948 -0.6570 -0.8517  0.9176
36110SOL    HW212693   2.238   7.681   9.933 -0.3826  0.4743 -0.2037
36111SOL     OW12694   2.452   9.599  10.668  0.1360  0.1989 -0.3950
36111SOL    HW112695   2.373   9.559  10.705 -0.0520 -0.8028 -1.7627
36111SOL    HW212696   2.424   9.630  10.581  0.6550  2.0760  0.0729
36112SOL     OW12697   5.713   8.854   1.099 -0.1368 -0.1340  0.0889
36112SOL    HW112698   5.750   8.889   1.017  2.1882 -3.1910 -0.3778
36112SOL    HW212699   5.662   8.778   1.071 -0.0855 -0.6764  1.3964
36113SOL     OW12700   2.874   6.188   4.518 -0.0647 -0.3224  0.2051
36113SOL    HW112701   2.880   6.279   4.490 -0.0740  0.4032  2.3907
36113SOL    HW212702   2.780   6.169   4.518 -0.2096  0.3081  1.5669
36114SOL     OW12703   3.800   7.393   6.823 -0.4983  0.3770 -0.0679
36114SOL    HW112704   3.707   7.395   6.846 -0.4943 -2.8741  0.8392
36114SOL    HW212705   3.842   7.352   6.898  1.7230  1.7560 -0.4656
36115SOL     OW12706   4.875   5.391  11.002 -0.6045 -0.8108  0.5717
36115SOL    HW112707   4.790   5.423  11.032 -1.1948 -2.6544  0.9862
36115SOL    HW212708   4.908   5.339  11.076  0.8824 -0.1530  0.4080
36116SOL     OW12709  10.936   7.641  10.747 -0.4035 -0.0583 -0.6431
36116SOL    HW112710  10.926   7.553  10.783  0.6814 -1.0897 -2.7136
36116SOL    HW212711  11.030   7.657  10.747 -0.5773  1.0751 -0.4191
36117SOL     OW12712   6.701   0.353   3.140  0.6157  0.2756 -0.2596
36117SOL    HW112713   6.683   0.261   3.159  0.5459 -0.2352 -2.4881
36117SOL    HW212714   6.627   0.400   3.177  0.0271 -0.7091 -0.1388
36118SOL     OW12715  10.205   0.102   8.922  0.1437  0.3839 -0.4028
36118SOL    HW112716  10.264   0.172   8.894 -0.1628  0.3049 -1.2729
36118SOL    HW212717  10.122   0.122   8.881  0.3727 -1.1566 -1.7321
36119SOL     OW12718   2.163   9.400   8.770  0.3296  0.3831  0.0172
36119SOL    HW112719   2.106   9.323   8.768  1.8588 -0.7910 -0.5984
36119SOL    HW212720   2.235   9.375   8.829  0.6408  1.4997  0.1332
36120SOL     OW12721   6.628   5.907   6.587 -0.4898  0.5444 -0.4718
36120SOL    HW112722   6.699   5.966   6.562 -0.4961 -0.1112 -2.1419
36120SOL    HW212723   6.556   5.965   6.611 -0.1546  1.2164 -1.0699
36121SOL     OW12724   7.566   3.233   2.465 -0.0724  0.0491  0.2740
36121SOL    HW112725   7.621   3.179   2.408 -0.5013  0.0072 -0.1096
36121SOL    HW212726   7.594   3.212   2.553 -0.9148 -1.5858  0.1948
36122SOL     OW12727   0.559   5.696   2.670  0.4927  0.3139 -0.3984
36122SOL    HW112728   0.628   5.635   2.697  1.3120  0.7014 -1.5501
36122SOL    HW212729   0.548   5.680   2.577 -1.1670  0.1026 -0.1849
36123SOL     OW12730   9.643   0.259   3.412  0.3206  0.0225  0.2110
36123SOL    HW112731   9.554   0.291   3.396  0.7610  2.2602  1.7819
36123SOL    HW212732   9.637   0.217   3.498  0.6966 -0.1797  0.1374
36124SOL     OW12733  11.056   2.844   2.544 -0.2603 -0.0434  0.6033
36124SOL    HW112734  11.054   2.748   2.536  2.1373 -0.0748 -0.8396
36124SOL    HW212735  11.066   2.875   2.454  2.2454  1.3260  1.2556
36125SOL     OW12736   1.060   7.003   7.578  0.3105 -0.5624  0.4780
36125SOL    HW112737   1.077   6.938   7.509 -0.3446 -0.5942  0.3366
36125SOL    HW212738   1.101   7.083   7.546 -0.5324 -0.4120 -0.2550
36126SOL     OW12739   0.435   4.994  10.736  0.2373  0.2596  0.3932
36126SOL    HW112740   0.355   4.945  10.757  0.9077 -1.5656 -1.0132
36126SOL    HW212741   0.506   4.933  10.757  1.1411  0.8770 -0.7701
36127SOL     OW12742   6.099   9.708   9.304  0.1594  0.8598 -0.9342
36127SOL    HW112743   6.072   9.630   9.257 -1.0845  0.8200 -0.1928
36127SOL    HW212744   6.018   9.747   9.336  0.9386  0.3515  1.9843
36128SOL     OW12745   7.012   1.056   1.186 -0.0733  0.3149 -0.5863
36128SOL    HW112746   7.095   1.077   1.144 -0.4326  0.2866 -1.3376
36128SOL    HW212747   7.023   0.966   1.217  0.3867  0.5280 -0.1284
36129SOL     OW12748   0.958   3.825   6.437  0.5317  0.1477 -0.2700
36129SOL    HW112749   0.904   3.883   6.491  1.0924 -2.0512  2.9953
36129SOL    HW212750   1.033   3.878   6.411 -1.2741  2.1806 -1.6491
36130SOL     OW12751   7.766   2.540   9.536  0.1734  0.1172  0.4193
36130SOL    HW112752   7.813   2.458   9.523  0.0995  0.3393 -1.6186
36130SOL    HW212753   7.785   2.565   9.626 -1.5968 -3.2126  1.9082
36131SOL     OW12754   5.123   1.542   4.862  0.3597  0.1014 -0.1037
36131SOL    HW112755   5.054   1.490   4.903 -0.4762 -0.6638 -2.3177
36131SOL    HW212756   5.083   1.628   4.847  0.8699  0.5820  1.1832
36132SOL     OW12757   7.056   1.803   7.021  0.2130 -0.6224 -0.0862
36132SOL    HW112758   7.023   1.714   7.010 -0.1715 -0.5295  0.2929
36132SOL    HW212759   7.123   1.813   6.953  0.0992 -1.1232 -0.2711
36133SOL     OW12760   6.626   8.870   2.998  0.8627  1.0385 -0.5974
36133SOL    HW112761   6.719   8.891   2.991  0.8686  2.8574  2.7260
36133SOL    HW212762   6.598   8.912   3.080 -3.0230  0.9848 -1.6870
36134SOL     OW12763   8.590   9.421   5.873  0.6974 -0.0301 -0.1343
36134SOL    HW112764   8.551   9.480   5.938  1.0526 -0.4547  0.4727
36134SOL    HW212765   8.665   9.470   5.840  0.3151  0.3289 -0.4847
36135SOL     OW12766   1.847   3.634   9.407 -0.5484 -0.6967  0.8316
36135SOL    HW112767   1.839   3.602   9.497  1.3703 -2.2701  0.4910
36135SOL    HW212768   1.804   3.567   9.354  0.4031 -0.9676  0.3935
36136SOL     OW12769   0.679   9.959  10.858  0.2099  0.0179  0.8359
36136SOL    HW112770   0.641   9.884  10.905 -0.0882 -0.4092 -0.0547
36136SOL    HW212771   0.606  10.020  10.848  0.1916 -0.0331  0.6548
36137SOL     OW12772   6.696   3.911   3.285 -0.0706  0.0509 -0.2564
36137SOL    HW112773   6.641   3.975   3.330  1.3908 -0.3455  2.2950
36137SOL    HW212774   6.780   3.955   3.275  0.8655 -1.2617  1.2746
36138SOL     OW12775   1.790   3.218   9.831 -0.3873  0.2657 -0.1804
36138SOL    HW112776   1.782   3.313   9.834  0.0185  0.2829  1.3018
36138SOL    HW212777   1.816   3.199   9.741 -0.0516  1.5897 -0.3851
36139SOL     OW12778   1.373   8.916   3.570 -0.0340 -0.2909  0.1756
36139SOL    HW112779   1.310   8.844   3.575  1.4125 -1.5597  0.9820
36139SOL    HW212780   1.437   8.896   3.637  1.0716  1.1289 -0.4127
36140SOL     OW12781   5.675   3.430   9.752 -0.3522 -0.6838  0.2925
36140SOL    HW112782   5.756   3.413   9.705 -0.8566 -0.0167 -0.8682
36140SOL    HW212783   5.631   3.346   9.757 -0.3632 -0.7342 -0.5871
36141SOL     OW12784   3.832   0.509   8.573  0.1770 -0.3381 -0.0806
36141SOL    HW112785   3.894   0.449   8.532 -1.6065 -2.2280 -0.1610
36141SOL    HW212786   3.787   0.456   8.639 -2.2184  0.5800 -0.8707
36142SOL     OW12787   6.008   3.754   6.871  0.0882  0.2564  0.0443
36142SOL    HW112788   5.964   3.691   6.814  0.6324 -0.7125  0.6870
36142SOL    HW212789   6.077   3.704   6.915  1.4892  1.6115 -0.5084
36143SOL     OW12790   7.878   3.018   4.445 -0.2049 -0.8540  0.4604
36143SOL    HW112791   7.814   3.078   4.407 -0.4014 -1.3667 -0.0221
36143SOL    HW212792   7.892   3.052   4.533  1.6139  1.4270 -0.6011
36144SOL     OW12793   7.633   3.217   6.503  0.0920  0.3561 -0.0863
36144SOL    HW112794   7.656   3.150   6.568 -1.4310 -0.2639 -0.1446
36144SOL    HW212795   7.577   3.171   6.441  1.8783  0.8196 -2.1418
36145SOL     OW12796   3.378   9.281   6.141 -0.2556  0.0369  0.4472
36145SOL    HW112797   3.306   9.343   6.125  0.4348  0.6112 -0.5797
36145SOL    HW212798   3.454   9.337   6.157 -0.0067 -0.5661  1.4476
36146SOL     OW12799   5.629  10.186   9.438 -0.0813  1.0544 -0.4897
36146SOL    HW112800   5.561  10.126   9.470 -0.4574  0.7209 -1.8259
36146SOL    HW212801   5.585  10.237   9.369  0.4862  2.2518  0.0083
36147SOL     OW12802  10.043   2.675   5.665 -0.2460  0.0651  0.0938
36147SOL    HW112803  10.093   2.600   5.632 -1.5708 -0.0982 -1.6329
36147SOL    HW212804  10.100   2.751   5.648  2.0090 -0.5649  3.6563
36148SOL     OW12805   9.328  10.914   9.930 -0.1799 -0.1847  0.2742
36148SOL    HW112806   9.360  10.991   9.977  1.0707 -0.8389  0.5310
36148SOL    HW212807   9.322  10.943   9.839 -0.1220  0.3387  0.4292
36149SOL     OW12808   3.386   8.456   8.662 -0.0519 -0.0004  0.0195
36149SOL    HW112809   3.402   8.362   8.672  0.2752  0.1797  1.3669
36149SOL    HW212810   3.291   8.464   8.668  0.0475  0.0067  2.8261
36150SOL     OW12811   5.085   6.095   5.782 -0.2847 -0.3420 -0.6228
36150SOL    HW112812   5.124   6.047   5.856 -0.7261 -1.7281 -1.2557
36150SOL    HW212813   5.109   6.186   5.798  1.9834 -0.9411 -0.2325
36151SOL     OW12814   9.727   3.102   2.737  0.8168  0.2154 -0.4428
36151SOL    HW112815   9.639   3.093   2.700  0.2559  0.5823  0.7727
36151SOL    HW212816   9.720   3.175   2.798  2.3764  1.3172 -1.5019
36152SOL     OW12817  10.599  11.025   2.051 -0.5308 -0.0134 -0.0797
36152SOL    HW112818  10.670  10.981   2.004 -0.1493  1.5978 -1.0697
36152SOL    HW212819  10.594  11.112   2.011 -2.1276  0.3961  0.9368
36153SOL     OW12820   5.112   6.312   2.644  0.1460  0.7177 -0.1604
36153SOL    HW112821   5.186   6.325   2.584  0.5928 -0.6159  0.0577
36153SOL    HW212822   5.040   6.285   2.587  0.4991 -0.2941 -0.1520
36154SOL     OW12823   3.930   5.050  10.346  0.2816 -0.4086 -0.0119
36154SOL    HW112824   3.985   5.093  10.280 -0.5328 -0.9052 -1.0343
36154SOL    HW212825   3.877   4.988  10.297  0.3322 -1.4865  1.2522
36155SOL     OW12826   7.140   1.139  10.356 -0.0150  0.4304  0.3966
36155SOL    HW112827   7.210   1.174  10.302  0.3070  0.0995  0.5985
36155SOL    HW212828   7.103   1.216  10.400 -0.5734  0.7623 -0.6232
36156SOL     OW12829   6.189   1.230   8.333  0.1685 -0.0930  0.4058
36156SOL    HW112830   6.145   1.186   8.406 -0.7460  1.6105  0.9223
36156SOL    HW212831   6.252   1.288   8.374  0.6570 -0.1688 -0.2226
36157SOL     OW12832   1.452   4.238   4.745 -0.5396 -0.0450 -0.3937
36157SOL    HW112833   1.526   4.226   4.803  0.4183 -2.1197 -1.8786
36157SOL    HW212834   1.379   4.196   4.790 -0.8128  1.8069  0.9740
36158SOL     OW12835   3.318   8.429   4.091  0.3346 -0.1349  0.3060
36158SOL    HW112836   3.302   8.436   3.997 -1.1267 -1.9956  0.3494
36158SOL    HW212837   3.411   8.406   4.098  0.0751 -1.7502 -0.8433
36159SOL     OW12838  10.954   9.297   7.411  0.0201 -0.3088  0.2742
36159SOL    HW112839  11.026   9.240   7.439  0.3873 -1.1421 -2.1536
36159SOL    HW212840  10.895   9.239   7.362 -0.2204  1.1350 -1.2274
36160SOL     OW12841   5.434   6.900   0.088 -0.2899  0.4856 -0.2806
36160SOL    HW112842   5.410   6.930   0.176 -0.5479  0.6008 -0.3896
36160SOL    HW212843   5.357   6.917   0.035 -0.0092  0.7425 -0.6096
36161SOL     OW12844   9.818   9.810   2.322  0.6661  0.3913  0.0254
36161SOL    HW112845   9.786   9.881   2.379  2.3505  1.7519 -0.6346
36161SOL    HW212846   9.779   9.829   2.236 -0.0206 -0.3358  0.1638
36162SOL     OW12847   1.435   6.295   7.490 -0.2851  0.5348  0.0062
36162SOL    HW112848   1.435   6.357   7.418 -0.2976  0.4179 -0.0945
36162SOL    HW212849   1.343   6.283   7.512 -0.3152  0.1565 -0.3166
36163SOL     OW12850   9.733   3.563   1.889 -0.1627 -0.1458 -0.2275
36163SOL    HW112851   9.717   3.488   1.946 -1.3487  0.4915  0.3035
36163SOL    HW212852   9.651   3.576   1.842  0.3472  0.2239 -1.0375
36164SOL     OW12853   9.625   3.183   6.753  0.2168 -0.6902  0.3187
36164SOL    HW112854   9.605   3.101   6.710 -0.0961 -0.9463  0.9392
36164SOL    HW212855   9.703   3.165   6.806  1.6765  0.0831 -1.4473
36165SOL     OW12856   0.009   3.410   0.417 -0.4821 -0.0481  0.1441
36165SOL    HW112857   0.062   3.466   0.360 -0.1346 -0.9028 -0.3890
36165SOL    HW212858   0.008   3.456   0.501  0.6717  0.2437  0.0107
36166SOL     OW12859   6.334  10.903   9.022  0.1808 -0.0212  0.0107
36166SOL    HW112860   6.421  10.918   8.988  0.4347 -2.2305 -0.5079
36166SOL    HW212861   6.345  10.829   9.083 -1.2061  0.0796  0.4199
36167SOL     OW12862   4.987   4.632   2.687 -0.2893  0.7302 -0.2340
36167SOL    HW112863   5.013   4.700   2.748  0.2990 -0.4283  0.8545
36167SOL    HW212864   4.982   4.552   2.740  1.1923 -0.5106 -1.8404
36168SOL     OW12865   5.695   6.850   2.534  0.3433 -0.3156  0.1930
36168SOL    HW112866   5.704   6.937   2.572 -1.3338  0.9786 -2.1199
36168SOL    HW212867   5.731   6.858   2.445  1.9031 -2.5447  0.5390
36169SOL     OW12868   9.916   3.880   4.865  0.1007  0.3107  0.1286
36169SOL    HW112869   9.844   3.872   4.801 -0.1089  1.1742  0.2435
36169SOL    HW212870   9.975   3.944   4.826  0.3064  0.3456  0.4999
36170SOL     OW12871   5.804  10.318   5.878 -0.0212 -0.1871  0.1628
36170SOL    HW112872   5.725  10.332   5.929 -0.4221  0.4126 -0.6088
36170SOL    HW212873   5.775  10.316   5.787  0.9935  1.3836 -0.2477
36171SOL     OW12874   2.480   2.334   8.719 -0.6701  0.3451  0.1746
36171SOL    HW112875   2.505   2.338   8.811  0.1442 -1.1214  0.0500
36171SOL    HW212876   2.389   2.305   8.720 -0.2834 -0.9289  0.5240
36172SOL     OW12877  10.297   2.172   4.011  0.5369 -0.0646  0.0921
36172SOL    HW112878  10.369   2.166   4.074  0.9436  0.0047 -0.3618
36172SOL    HW212879  10.339   2.197   3.929  0.3922 -2.5835 -0.8590
36173SOL     OW12880   8.230   4.561   7.490 -0.0652 -0.3728  0.5545
36173SOL    HW112881   8.224   4.631   7.554  0.2335  0.7870 -0.6353
36173SOL    HW212882   8.281   4.492   7.533  2.1987  1.3400  0.7884
36174SOL     OW12883  10.190   0.336   3.530  0.0065 -0.3415  0.2185
36174SOL    HW112884  10.126   0.393   3.488  0.8571 -0.6873 -1.6551
36174SOL    HW212885  10.171   0.249   3.495  0.5140 -0.7218  0.8666
36175SOL     OW12886   7.022   2.109   4.080 -0.2160 -0.1987  0.0208
36175SOL    HW112887   6.971   2.084   4.157 -0.0374 -2.2330 -0.4626
36175SOL    HW212888   7.095   2.161   4.115 -0.9014  0.0944  1.0481
36176SOL     OW12889   0.949   6.651   0.974 -0.0198  0.1350  0.1115
36176SOL    HW112890   0.855   6.636   0.968  0.0381 -0.2784  0.2255
36176SOL    HW212891   0.969   6.643   1.067  0.2431 -0.4737  0.0037
36177SOL     OW12892   0.846   9.497   5.038 -0.3897 -0.3952  0.0149
36177SOL    HW112893   0.899   9.417   5.039 -1.3227 -1.0381  1.4238
36177SOL    HW212894   0.756   9.467   5.046 -0.9595  0.7187 -1.7700
36178SOL     OW12895   8.134   3.323   6.860  0.2411 -0.2172  0.6250
36178SOL    HW112896   8.156   3.239   6.819 -1.0417 -0.0376 -0.4997
36178SOL    HW212897   8.052   3.306   6.907 -1.1218  0.8572 -1.2670
36179SOL     OW12898   2.351   9.109   4.374 -0.5082  0.0998 -0.3386
36179SOL    HW112899   2.406   9.153   4.439  1.4054 -0.9790 -1.1678
36179SOL    HW212900   2.403   9.107   4.294 -2.5899  0.8768 -1.8101
36180SOL     OW12901   1.408  10.230   3.276  0.3121  0.1193  1.0639
36180SOL    HW112902   1.451  10.299   3.225 -1.0777 -0.3362 -0.8421
36180SOL    HW212903   1.421  10.151   3.224 -0.9715 -0.4138  1.5264
36181SOL     OW12904   4.839   1.330   8.745 -0.3250 -0.1270 -0.3983
36181SOL    HW112905   4.833   1.251   8.798  0.0329 -0.2165 -0.4904
36181SOL    HW212906   4.766   1.384   8.775  0.0731 -0.0298  0.4325
36182SOL     OW12907  10.787   7.834  10.887 -0.7814  0.1613 -0.4418
36182SOL    HW112908  10.705   7.785  10.895 -0.6068 -0.1542 -0.5436
36182SOL    HW212909  10.845   7.774  10.840  0.6669 -1.0950  2.6731
36183SOL     OW12910   2.810   2.578   9.776  0.5336 -0.0690 -0.2049
36183SOL    HW112911   2.719   2.552   9.761  1.5385 -2.7163 -2.5130
36183SOL    HW212912   2.834   2.537   9.859  0.0484 -0.6049 -0.3287
36184SOL     OW12913   1.621   9.888   2.798 -0.3407  0.1881 -0.7792
36184SOL    HW112914   1.599   9.854   2.885  0.0312  0.0656 -0.7307
36184SOL    HW212915   1.696   9.946   2.813  0.0311 -0.2063 -1.0805
36185SOL     OW12916   1.109   3.622   1.582 -0.3727  0.5347 -0.1414
36185SOL    HW112917   1.198   3.588   1.577 -0.1583  1.2471 -1.9513
36185SOL    HW212918   1.062   3.575   1.513 -1.0235  1.1818 -0.1469
36186SOL     OW12919   1.578   8.297   4.293  0.4069 -0.0684  0.0624
36186SOL    HW112920   1.654   8.346   4.323 -0.9316  2.8899 -0.9243
36186SOL    HW212921   1.581   8.303   4.197 -0.7792 -0.3033 -0.0159
36187SOL     OW12922  10.567   8.859   8.917 -0.3324 -0.5443 -0.3206
36187SOL    HW112923  10.659   8.876   8.938 -0.4162 -2.1811  1.7039
36187SOL    HW212924  10.557   8.764   8.926 -2.2333 -0.3981 -0.4453
36188SOL     OW12925   3.954   4.160   1.117 -0.7213 -0.3113 -0.7085
36188SOL    HW112926   4.006   4.188   1.192 -0.6033 -0.3076 -0.7926
36188SOL    HW212927   3.999   4.083   1.083  0.7213  1.1862 -2.3745
36189SOL     OW12928   4.557   9.684  10.831  0.1693  0.4854  0.1696
36189SOL    HW112929   4.523   9.676  10.920 -0.0880 -0.0841  0.0320
36189SOL    HW212930   4.564   9.778  10.816 -1.5065  0.6443  0.1550
36190SOL     OW12931   9.509   5.937   0.768 -0.4004 -0.1489 -0.4030
36190SOL    HW112932   9.552   5.859   0.802  2.1773  1.0879 -0.5716
36190SOL    HW212933   9.547   5.949   0.681 -0.4707  1.4255 -0.2555
36191SOL     OW12934   9.514   9.949   5.040 -0.1712 -0.2766 -0.5881
36191SOL    HW112935   9.477   9.873   5.087  0.9126 -0.5408 -0.1257
36191SOL    HW212936   9.469  10.024   5.078  0.4127 -0.5180  0.6365
36192SOL     OW12937   8.890   1.070   7.073  0.6482 -0.2365 -0.6508
36192SOL    HW112938   8.815   1.022   7.109  0.5558  0.2447 -0.1902
36192SOL    HW212939   8.895   1.042   6.981 -0.8376  0.6235 -1.0264
36193SOL     OW12940   5.218   8.506   1.404  0.1034  0.5301 -0.2747
36193SOL    HW112941   5.142   8.498   1.346 -0.1968  1.4321 -0.0164
36193SOL    HW212942   5.200   8.444   1.475 -1.6634  2.5233  1.1370
36194SOL     OW12943  10.721   7.055   7.951 -0.0248  0.3390  0.0978
36194SOL    HW112944  10.790   7.122   7.954  0.9045 -0.6236  0.7827
36194SOL    HW212945  10.762   6.980   7.908 -0.1665 -0.7270  1.7145
36195SOL     OW12946  10.043   2.776   1.269 -0.4469 -0.3002 -0.0892
36195SOL    HW112947  10.034   2.722   1.347  0.0500 -1.6953 -0.9705
36195SOL    HW212948   9.976   2.844   1.279 -0.5775 -0.6184  1.3980
36196SOL     OW12949   8.173   1.772   8.783  0.0617 -0.2126 -0.4652
36196SOL    HW112950   8.199   1.804   8.869 -0.7464  1.5877 -0.8466
36196SOL    HW212951   8.229   1.819   8.722  0.6905 -1.5449 -0.9493
36197SOL     OW12952   0.742   0.495   1.437  0.8083  0.3393 -0.2613
36197SOL    HW112953   0.803   0.506   1.510  0.8194  0.1915 -0.2474
36197SOL    HW212954   0.706   0.582   1.422 -0.7825 -0.0088  1.3140
36198SOL     OW12955   6.926   8.246   6.439 -0.2819  0.3982  0.6839
36198SOL    HW112956   6.944   8.309   6.369  2.5428 -0.2501  0.7256
36198SOL    HW212957   6.910   8.163   6.393 -1.1577  0.5308  0.7345
36199SOL     OW12958   6.112   2.234   6.222  0.2097  0.0704 -0.0613
36199SOL    HW112959   6.141   2.200   6.307 -3.1884  0.3661  1.3846
36199SOL    HW212960   6.161   2.316   6.212 -0.8693  1.1891  2.7931
36200SOL     OW12961   6.827   9.733   7.574 -0.1513 -0.0706  0.0643
36200SOL    HW112962   6.745   9.703   7.533 -0.9387  0.7140  1.0127
36200SOL    HW212963   6.834   9.825   7.549  1.9678 -0.7895 -2.3725
36201SOL     OW12964   0.838   3.767   1.904  0.7164  0.6384 -0.2596
36201SOL    HW112965   0.928   3.734   1.905  1.5061  2.5149 -2.3134
36201SOL    HW212966   0.802   3.738   1.820 -0.5520  0.1126  0.4351
36202SOL     OW12967   6.996   7.063   2.596  0.1581  0.4179 -0.0837
36202SOL    HW112968   7.014   7.152   2.626 -1.6590  1.0791 -0.8277
36202SOL    HW212969   6.991   7.070   2.500  0.4077 -0.5837 -0.1911
36203SOL     OW12970   3.585   7.671   3.332  0.1755  0.2290 -0.0972
36203SOL    HW112971   3.523   7.598   3.337 -0.2409  0.5117 -0.9421
36203SOL    HW212972   3.545   7.731   3.269  2.1214 -0.3665 -1.9932
36204SOL     OW12973   8.423   9.455  10.270 -0.3959 -0.0149  0.6657
36204SOL    HW112974   8.512   9.429  10.296 -0.9951 -0.0843  2.8923
36204SOL    HW212975   8.424   9.550  10.275 -0.1690  0.0440 -0.3714
36205SOL     OW12976   6.985   4.892   6.230  0.0708  0.5976  0.0946
36205SOL    HW112977   6.931   4.931   6.299  0.5092  1.3131  0.0542
36205SOL    HW212978   7.058   4.851   6.277  1.6326  3.0498  0.0388
36206SOL     OW12979   5.975   1.198   4.771 -0.0145 -0.2583 -0.0326
36206SOL    HW112980   5.888   1.190   4.732  0.0967  1.8908 -0.8552
36206SOL    HW212981   6.033   1.153   4.709 -0.3655 -0.6344 -0.0966
36207SOL     OW12982   2.752  11.031   3.674  0.4630  0.3943 -0.0490
36207SOL    HW112983   2.683  10.972   3.645  1.9853 -1.7751  0.5201
36207SOL    HW212984   2.827  11.009   3.619  0.9094  2.3460 -0.3082
36208SOL     OW12985   6.442   2.072   6.915 -0.7242  0.1319  0.0595
36208SOL    HW112986   6.374   2.108   6.972 -0.4259  1.9901 -0.7024
36208SOL    HW212987   6.436   1.977   6.928 -3.9934  0.1220 -0.5430
36209SOL     OW12988   3.288   0.794   8.516  0.3645 -0.7481 -0.7719
36209SOL    HW112989   3.318   0.722   8.461  0.2571 -1.0839 -0.4070
36209SOL    HW212990   3.227   0.843   8.461  0.8853 -0.5922 -1.2146
36210SOL     OW12991   6.413   4.016   7.350 -0.5314  0.2645  0.4148
36210SOL    HW112992   6.375   3.932   7.326  0.6171 -0.2454  0.2949
36210SOL    HW212993   6.477   3.995   7.418 -1.7779  1.3350  1.9769
36211SOL     OW12994   2.810   5.837   8.906  0.1459  0.4671  0.3218
36211SOL    HW112995   2.719   5.868   8.907  0.2421  0.8360 -0.9095
36211SOL    HW212996   2.841   5.855   8.995 -1.2933 -0.6715  1.1034
36212SOL     OW12997   9.889   6.460   4.712 -0.3860  0.2982  0.1398
36212SOL    HW112998   9.798   6.461   4.744 -0.5489  0.3062 -0.3181
36212SOL    HW212999   9.916   6.551   4.716 -0.2361  0.2333  0.7230
36213SOL     OW13000   6.611   5.904  10.723  0.4591 -0.0133 -0.1669
36213SOL    HW113001   6.698   5.939  10.707  0.8552 -0.7552  0.3035
36213SOL    HW213002   6.580   5.950  10.801  0.6756 -0.1822  0.0183
36214SOL     OW13003   6.831   7.613   2.990 -0.2585  0.0185  0.6793
36214SOL    HW113004   6.878   7.540   2.950 -1.0950 -0.1913  0.0430
36214SOL    HW213005   6.745   7.577   3.012 -0.5711  0.7169  0.6415
36215SOL     OW13006   0.667   1.582   4.411 -0.4834  0.3729 -0.0078
36215SOL    HW113007   0.689   1.641   4.483 -3.4344 -0.1747  1.5136
36215SOL    HW213008   0.708   1.499   4.435 -0.6463  0.4511  0.5692
36216SOL     OW13009   3.660   5.817   3.210 -0.4881 -0.2976 -0.4567
36216SOL    HW113010   3.725   5.833   3.141 -1.2095  0.3628 -0.9890
36216SOL    HW213011   3.628   5.729   3.192  0.3149 -0.6699 -0.1336
36217SOL     OW13012   2.827   1.585   4.370 -0.0199 -0.5696  0.5538
36217SOL    HW113013   2.900   1.529   4.343 -1.2569 -2.1380  0.3774
36217SOL    HW213014   2.865   1.640   4.439  1.4702 -0.9526  0.0927
36218SOL     OW13015   1.315   1.613   0.414  0.3447 -0.3807  0.6643
36218SOL    HW113016   1.324   1.518   0.428 -1.2547 -0.7765 -0.5854
36218SOL    HW213017   1.386   1.635   0.354  1.5275 -0.5053  1.9849
36219SOL     OW13018   7.234   0.129   4.838  0.1771  0.0526  0.2145
36219SOL    HW113019   7.316   0.098   4.800  0.1264  0.2045 -0.0237
36219SOL    HW213020   7.170   0.061   4.817  0.2884 -0.1644  0.5822
36220SOL     OW13021   6.005   7.119   8.585 -0.2626  0.0672 -0.3957
36220SOL    HW113022   6.050   7.064   8.521 -1.9024 -0.1400 -1.4148
36220SOL    HW213023   5.963   7.188   8.534 -2.8013 -0.9033  0.2120
36221SOL     OW13024  10.394   6.856   1.606 -0.2324 -0.2169 -0.5997
36221SOL    HW113025  10.483   6.889   1.620 -0.3985 -0.2740  0.7023
36221SOL    HW213026  10.403   6.790   1.537  1.4815 -3.2326  2.2311
36222SOL     OW13027   5.601   1.070   6.999  0.1142  0.1823  0.4953
36222SOL    HW113028   5.599   1.166   6.995  1.4262  0.1832 -1.3800
36222SOL    HW213029   5.685   1.050   7.040 -0.0086 -0.1835  0.5732
36223SOL     OW13030   7.260   8.651   5.098 -0.2135  0.2178 -0.1353
36223SOL    HW113031   7.343   8.646   5.051 -0.5983 -0.7085 -0.7480
36223SOL    HW213032   7.200   8.693   5.036 -0.5564 -0.4019 -0.2305
36224SOL     OW13033   6.124   6.366   4.866 -0.2873  0.5635 -0.5081
36224SOL    HW113034   6.065   6.404   4.801  0.7286 -2.2920 -3.3822
36224SOL    HW213035   6.190   6.434   4.882 -1.9590  2.2466 -0.4170
36225SOL     OW13036   2.443   8.342   1.389 -0.3845 -0.2306 -0.0985
36225SOL    HW113037   2.463   8.380   1.474 -2.4565 -0.0581  0.3542
36225SOL    HW213038   2.527   8.311   1.356  1.0681  2.8084  0.4405
36226SOL     OW13039   7.149   6.834   8.873 -0.2389 -0.3178 -0.0998
36226SOL    HW113040   7.082   6.902   8.869 -0.5719 -0.7007 -1.1942
36226SOL    HW213041   7.219   6.865   8.816 -0.4001 -0.9013 -0.6233
36227SOL     OW13042   9.075   7.275   0.030 -0.3591  0.0815 -0.3710
36227SOL    HW113043   9.110   7.357   0.067 -2.3294  1.1558 -0.7518
36227SOL    HW213044   9.081   7.288  -0.065  1.3050 -1.1563 -0.4809
36228SOL     OW13045   6.694  10.195   8.424 -0.0602  0.2714 -0.1267
36228SOL    HW113046   6.636  10.266   8.451 -0.4296  0.2353 -0.7778
36228SOL    HW213047   6.670  10.179   8.332 -1.4091 -2.0356  0.5551
36229SOL     OW13048   5.574   7.144   1.998  0.2824 -0.1215 -0.7104
36229SOL    HW113049   5.487   7.146   1.957 -0.0360  3.8803 -0.2688
36229SOL    HW213050   5.635   7.140   1.925 -0.2155 -1.6294 -1.0811
36230SOL     OW13051   0.169   8.154   4.992 -0.5428 -0.0418 -0.3162
36230SOL    HW113052   0.265   8.149   4.994 -0.5734 -1.3269  1.8684
36230SOL    HW213053   0.148   8.224   5.055 -1.0377 -0.6172  0.1733
36231SOL     OW13054   3.436   5.550   1.952 -0.0642 -0.1315 -0.1239
36231SOL    HW113055   3.531   5.560   1.962 -0.0694  1.2048 -1.1421
36231SOL    HW213056   3.423   5.537   1.858 -0.9749  0.9382 -0.1590
36232SOL     OW13057   2.484   4.729   9.267 -0.3037 -0.1024  0.3047
36232SOL    HW113058   2.550   4.746   9.335 -0.5511  1.6145  0.1503
36232SOL    HW213059   2.517   4.773   9.189 -1.0240 -0.3097 -0.1297
36233SOL     OW13060   9.694   0.110   2.403 -0.1018  0.2590  0.1492
36233SOL    HW113061   9.658   0.151   2.325 -1.1526 -0.4688  0.2344
36233SOL    HW213062   9.772   0.162   2.424 -1.8512  2.8191  0.7956
36234SOL     OW13063   7.603   6.332   1.009 -0.8379 -0.2154 -0.5604
36234SOL    HW113064   7.637   6.280   0.936  0.3677  0.7272 -0.6966
36234SOL    HW213065   7.662   6.407   1.014 -0.0653 -0.9086  2.2366
36235SOL     OW13066   5.034   7.520   1.907  0.3226  0.0591 -0.2953
36235SOL    HW113067   5.023   7.499   1.814  1.9180 -2.2584 -0.0467
36235SOL    HW213068   4.961   7.579   1.927 -0.7799 -0.3485 -2.7121
36236SOL     OW13069   6.510   7.602   9.948 -0.4920  0.5926 -0.1099
36236SOL    HW113070   6.508   7.618   9.854 -0.9918  2.0293  0.1157
36236SOL    HW213071   6.582   7.655   9.980 -0.0081 -0.2764  0.2710
36237SOL     OW13072   5.512  10.632   9.474  0.0504 -0.5152  0.2312
36237SOL    HW113073   5.439  10.665   9.423 -0.4013 -0.0589  1.1561
36237SOL    HW213074   5.539  10.706   9.529  1.1489 -0.6984 -0.0356
36238SOL     OW13075   6.890   7.195   1.869 -0.3809  0.7257 -0.0970
36238SOL    HW113076   6.948   7.140   1.817 -0.0001  0.7105  0.3365
36238SOL    HW213077   6.806   7.150   1.869  0.3019 -0.6760  1.5157
36239SOL     OW13078   8.838  10.228   9.976 -0.4727 -0.2108  0.6267
36239SOL    HW113079   8.824  10.134   9.979  1.3678 -0.5327  0.3426
36239SOL    HW213080   8.822  10.251   9.884  0.2834 -0.4936  0.4083
36240SOL     OW13081   4.491   8.164   2.948  0.1855 -0.3464 -0.2958
36240SOL    HW113082   4.431   8.204   2.886 -2.6184 -1.5498  1.4560
36240SOL    HW213083   4.506   8.076   2.913 -0.9129 -0.8145  0.3564
36241SOL     OW13084   5.143   4.593   3.216 -0.0077  0.2212  0.6743
36241SOL    HW113085   5.222   4.604   3.163  0.4129 -1.0754  0.9870
36241SOL    HW213086   5.074   4.635   3.166  0.6995  0.5118 -0.0777
36242SOL     OW13087   2.986   5.897   0.654  0.5705 -0.1863 -0.3740
36242SOL    HW113088   2.960   5.862   0.739  0.0608 -1.1173 -0.9024
36242SOL    HW213089   2.905   5.923   0.612  0.7066 -0.7588 -1.0140
36243SOL     OW13090   9.706   6.133   8.321  0.1925 -0.1490  0.1616
36243SOL    HW113091   9.740   6.188   8.250  1.3131 -0.4313  0.4599
36243SOL    HW213092   9.774   6.136   8.388 -0.0658 -1.3029  0.4930
36244SOL     OW13093   1.013   7.339   4.312 -0.0837 -1.1608 -0.0627
36244SOL    HW113094   1.077   7.340   4.383 -0.3734 -2.6814  0.2697
36244SOL    HW213095   0.929   7.355   4.355  0.0066  0.3620 -0.4297
36245SOL     OW13096  10.775   6.938   0.712 -0.0821 -0.0309  0.2793
36245SOL    HW113097  10.830   6.877   0.663 -0.0729 -1.5565  2.0756
36245SOL    HW213098  10.688   6.929   0.674 -0.1358 -1.3930  0.6953
36246SOL     OW13099   8.162   7.194   3.477 -0.2135 -0.7343  0.2375
36246SOL    HW113100   8.154   7.290   3.480 -1.3219 -0.7867 -0.7044
36246SOL    HW213101   8.121   7.165   3.559 -1.3065 -0.4705 -0.1953
36247SOL     OW13102   0.356   3.485   9.674  0.1359 -0.1794 -0.1024
36247SOL    HW113103   0.438   3.436   9.682 -0.3258 -1.1118 -0.8190
36247SOL    HW213104   0.381   3.567   9.632  0.7673 -0.2575  0.1100
36248SOL     OW13105   4.135   9.716   6.399  0.0192  0.4673 -0.3109
36248SOL    HW113106   4.068   9.648   6.392  0.4785  0.1761 -2.5779
36248SOL    HW213107   4.097   9.781   6.459 -1.4117 -0.6403  0.0375
36249SOL     OW13108   0.149   4.542   2.225  0.3124 -0.1249 -0.2357
36249SOL    HW113109   0.094   4.464   2.212  0.0697 -0.0819  0.5058
36249SOL    HW213110   0.087   4.614   2.237  0.5315 -0.0133  0.2322
36250SOL     OW13111   2.804   7.165   1.777 -0.9522 -0.2205 -0.1463
36250SOL    HW113112   2.818   7.194   1.868 -1.3961 -2.3977  0.6755
36250SOL    HW213113   2.889   7.131   1.750 -0.0804  2.7836 -1.5584
36251SOL     OW13114   7.218   4.581   0.234  0.5799  0.4172 -0.1364
36251SOL    HW113115   7.205   4.569   0.328  2.0875 -1.2833 -0.0817
36251SOL    HW213116   7.301   4.536   0.216 -0.7954 -1.3302 -2.6493
36252SOL     OW13117   0.901  10.349  10.847  0.0096 -0.3678  0.0449
36252SOL    HW113118   0.954  10.318  10.774 -0.5403 -1.5770  0.1233
36252SOL    HW213119   0.877  10.269  10.894 -0.1811  0.3395  1.1722
36253SOL     OW13120  10.939   0.336   2.170 -0.5151 -1.0190  0.4271
36253SOL    HW113121  10.927   0.350   2.264 -0.7621 -0.5620  0.3315
36253SOL    HW213122  11.030   0.308   2.161 -0.8942 -2.5011  0.9521
36254SOL     OW13123   1.833   6.617   3.620  0.3487 -0.1467  0.0944
36254SOL    HW113124   1.868   6.692   3.571 -1.8080  0.4167 -0.6745
36254SOL    HW213125   1.820   6.650   3.709  1.6006 -0.3371  0.3679
36255SOL     OW13126   5.859   2.133   5.804 -0.0841  0.0268  0.3125
36255SOL    HW113127   5.806   2.086   5.739  1.1611 -0.7206 -0.1842
36255SOL    HW213128   5.910   2.065   5.847 -1.7961  0.3170  3.0419
36256SOL     OW13129   1.968   6.229   4.694  0.6692 -0.2433 -0.7432
36256SOL    HW113130   1.958   6.167   4.767  0.8456  0.0275 -0.4856
36256SOL    HW213131   1.903   6.201   4.630 -0.5742  0.4457  0.1688
36257SOL     OW13132   2.822   1.614   8.772  0.2093 -0.2651  0.6083
36257SOL    HW113133   2.914   1.589   8.775 -0.2578 -2.1916  0.1856
36257SOL    HW213134   2.819   1.701   8.812  1.9503 -0.9165  2.3024
36258SOL     OW13135   0.469   6.188   6.887  0.1402  0.3600  0.8714
36258SOL    HW113136   0.399   6.184   6.822  0.6323 -1.9776  0.4214
36258SOL    HW213137   0.447   6.266   6.940 -2.1470  0.3656  0.0430
36259SOL     OW13138   3.717   2.815   7.219  0.6379  0.4895  0.2480
36259SOL    HW113139   3.738   2.889   7.276  2.3168  0.7933 -0.6894
36259SOL    HW213140   3.797   2.801   7.169  0.3393 -1.9309  0.3431
36260SOL     OW13141  10.928   8.126   8.968 -0.2695 -0.6475 -0.4613
36260SOL    HW113142  10.856   8.076   9.005 -0.8640  0.7967  0.4235
36260SOL    HW213143  10.915   8.121   8.874 -1.2948 -0.7341 -0.3237
36261SOL     OW13144   6.689  10.153   4.811  0.0613 -0.3198 -0.6691
36261SOL    HW113145   6.693  10.098   4.889 -0.0850  0.9638  0.2677
36261SOL    HW213146   6.727  10.237   4.838 -0.5944  0.3678 -1.7898
36262SOL     OW13147   2.374   4.077   4.282 -0.2143 -0.1607  0.1634
36262SOL    HW113148   2.412   3.993   4.308 -0.3132 -0.3995 -0.4396
36262SOL    HW213149   2.412   4.140   4.343  2.3444 -0.1340 -1.2969
36263SOL     OW13150   0.646   6.640   6.268  0.0942  0.1524  0.4542
36263SOL    HW113151   0.569   6.594   6.234 -0.4185  0.7307  0.8174
36263SOL    HW213152   0.672   6.591   6.346  2.0246 -1.9287 -1.3546
36264SOL     OW13153   0.937   4.291   4.100  0.0128  0.4439  0.6363
36264SOL    HW113154   0.961   4.199   4.113 -1.2716 -0.1195 -0.7026
36264SOL    HW213155   0.897   4.317   4.183 -0.1092 -0.3757  0.8439
36265SOL     OW13156   2.080   7.107   5.260  0.0109 -0.4412  0.3590
36265SOL    HW113157   2.134   7.116   5.181 -0.7157 -0.5032 -0.1532
36265SOL    HW213158   2.143   7.098   5.331  0.7949  2.6643  0.2209
36266SOL     OW13159   3.056   3.510   2.331  0.9324 -0.6997 -0.0237
36266SOL    HW113160   3.098   3.592   2.306 -2.6254  1.5863  0.6916
36266SOL    HW213161   3.094   3.488   2.416  0.2914  1.6842  0.9661
36267SOL     OW13162   5.849   9.192   5.354  0.5582 -0.2583  0.1393
36267SOL    HW113163   5.919   9.154   5.407  0.8136  0.0436  0.0228
36267SOL    HW213164   5.805   9.253   5.413  0.4292 -0.4078  0.1965
36268SOL     OW13165   8.483   7.820   4.842  0.3502  0.1985  0.1919
36268SOL    HW113166   8.392   7.830   4.813  0.3612 -0.3919 -0.0748
36268SOL    HW213167   8.521   7.907   4.833  0.9518 -0.2702 -3.6896
36269SOL     OW13168   8.845   6.430   8.429 -0.3948  0.6702 -0.8118
36269SOL    HW113169   8.836   6.512   8.476  0.6445  0.6434 -0.5571
36269SOL    HW213170   8.939   6.418   8.418 -0.1719 -2.1899  2.2767
36270SOL     OW13171   3.391   4.716   6.432  0.7047 -0.1615 -0.5469
36270SOL    HW113172   3.474   4.732   6.388  0.7407 -0.3669 -0.5530
36270SOL    HW213173   3.359   4.634   6.395  2.1638 -1.9775  1.8502
36271SOL     OW13174   5.053   6.067   8.492  0.3645  0.4276 -0.3815
36271SOL    HW113175   5.012   6.029   8.414  0.3159  2.0589 -1.1957
36271SOL    HW213176   4.997   6.140   8.516 -0.2446 -0.7067  1.9143
36272SOL     OW13177   9.115   4.045   5.789 -0.6593  0.6051  0.1274
36272SOL    HW113178   9.062   3.965   5.790  0.6908 -0.3338  0.2128
36272SOL    HW213179   9.177   4.032   5.861  1.1986  0.5782 -1.4153
36273SOL     OW13180   8.032   3.747  10.947 -0.4641  0.1633  0.3352
36273SOL    HW113181   7.992   3.712  10.868  0.0820  0.4932 -0.0997
36273SOL    HW213182   8.042   3.672  11.005 -0.7675 -0.1005  0.0487
36274SOL     OW13183   0.075   9.559   5.943 -0.5230  0.6706 -1.1746
36274SOL    HW113184   0.150   9.567   6.002 -0.7274  1.9492 -1.0655
36274SOL    HW213185   0.113   9.555   5.856 -0.3276  1.1763 -1.1107
36275SOL     OW13186   9.403   0.608   8.929  0.2999  0.0263 -0.1402
36275SOL    HW113187   9.313   0.586   8.955 -0.0010 -0.3281 -1.4449
36275SOL    HW213188   9.422   0.689   8.976 -1.3273  1.0444 -1.1653
36276SOL     OW13189   5.947   3.573   0.979  0.1587  0.6243  0.0858
36276SOL    HW113190   5.992   3.649   1.016  0.7161  0.1751  0.3540
36276SOL    HW213191   5.864   3.607   0.947  1.0882  1.6734 -1.3284
36277SOL     OW13192   1.198   0.556   3.240  0.2978 -0.9513  0.0135
36277SOL    HW113193   1.112   0.558   3.283  1.0974 -0.0942  1.6876
36277SOL    HW213194   1.246   0.629   3.280  1.5808 -0.9860 -1.3871
36278SOL     OW13195   7.564   7.588   4.659  0.0765  0.8349 -0.0606
36278SOL    HW113196   7.587   7.606   4.750  1.9104 -1.9560  0.1873
36278SOL    HW213197   7.649   7.573   4.616 -0.8602 -1.8407 -1.1912
36279SOL     OW13198   2.019   0.257   8.110  0.4427 -0.1149 -0.0592
36279SOL    HW113199   1.994   0.165   8.115 -1.6246  0.3957 -0.1342
36279SOL    HW213200   2.105   0.261   8.151  0.7012 -2.1109 -0.3235
36280SOL     OW13201   7.244   5.628   6.430 -0.0508 -0.2043  0.4612
36280SOL    HW113202   7.238   5.539   6.466  0.1233 -0.2777  0.3098
36280SOL    HW213203   7.154   5.659   6.429 -0.0469 -0.1534  1.0825
36281SOL     OW13204   6.683   3.784   9.991  0.3440 -0.3714 -0.3474
36281SOL    HW113205   6.745   3.854  10.011  0.2688 -0.6493  0.9696
36281SOL    HW213206   6.678   3.783   9.896  1.1961  0.6674 -0.4268
36282SOL     OW13207   9.419   5.683  10.494 -0.0043 -0.2222  0.3185
36282SOL    HW113208   9.345   5.689  10.555 -0.7848  1.9401 -0.7205
36282SOL    HW213209   9.378   5.678  10.408  0.9224  2.8269 -0.4357
36283SOL     OW13210   2.548   4.827   0.725  0.1112 -0.0855 -0.0100
36283SOL    HW113211   2.466   4.861   0.763  0.2749  0.8341 -0.4534
36283SOL    HW213212   2.610   4.828   0.798 -0.6133 -2.1110  0.6953
36284SOL     OW13213   2.385   0.461   9.634  0.0967 -0.2066  0.2170
36284SOL    HW113214   2.394   0.377   9.678 -0.7167 -1.0050 -1.0707
36284SOL    HW213215   2.395   0.526   9.704 -3.2123 -1.4203  2.0747
36285SOL     OW13216   3.556   1.997   6.189  0.1648  0.2261 -0.3559
36285SOL    HW113217   3.476   2.000   6.242 -1.1322 -1.0142 -2.1224
36285SOL    HW213218   3.543   2.065   6.123  1.6804  1.6286  0.7175
36286SOL     OW13219   8.695   8.406  10.673  0.0317  0.1654 -0.3289
36286SOL    HW113220   8.699   8.320  10.631 -0.2775 -0.8971  1.7058
36286SOL    HW213221   8.693   8.468  10.600 -0.3009 -1.5636 -1.8639
36287SOL     OW13222   4.865   6.214   6.363 -0.4182 -0.0219  0.4148
36287SOL    HW113223   4.832   6.300   6.388 -0.1290  0.2306 -0.0426
36287SOL    HW213224   4.807   6.151   6.407  0.5209  0.3684  2.3081
36288SOL     OW13225   1.090   2.113   6.192 -0.6397  0.5564  0.1872
36288SOL    HW113226   1.076   2.067   6.109  0.8232  1.0289 -0.3586
36288SOL    HW213227   1.065   2.050   6.259 -0.5389 -0.3329 -0.5913
36289SOL     OW13228   5.481   7.270   0.496  0.1203 -0.1266 -0.3048
36289SOL    HW113229   5.471   7.330   0.423 -1.3557 -1.8057 -1.5626
36289SOL    HW213230   5.415   7.202   0.481  0.6635 -1.2393  1.8802
36290SOL     OW13231   0.997   2.073   3.320 -0.4853  0.1304 -0.7441
36290SOL    HW113232   0.977   1.988   3.281  0.1625 -0.8298  0.9177
36290SOL    HW213233   0.913   2.105   3.352 -0.2360 -1.7599  2.1168
36291SOL     OW13234   6.794   6.987  10.021  0.3776  0.6938 -0.5337
36291SOL    HW113235   6.828   6.981  10.110 -0.8873  0.7303 -0.0276
36291SOL    HW213236   6.703   7.016  10.031  0.4046  1.3513 -1.8763
36292SOL     OW13237   3.749   9.096   5.403 -0.3190  0.1362 -0.2586
36292SOL    HW113238   3.719   9.169   5.456 -0.6694  0.0173 -0.2950
36292SOL    HW213239   3.703   9.105   5.320 -0.2782 -0.0634 -0.3034
36293SOL     OW13240   3.429   8.997   1.888 -0.1370  0.5185 -0.1010
36293SOL    HW113241   3.509   8.964   1.927  0.2312  0.7058 -0.6852
36293SOL    HW213242   3.435   9.092   1.898 -0.5969  0.4947  0.4413
36294SOL     OW13243   3.416   4.097  10.127  0.5989  0.2388  0.0208
36294SOL    HW113244   3.398   4.024  10.186  0.2271  2.2411  2.5959
36294SOL    HW213245   3.329   4.131  10.104  0.7251  2.0085  1.8560
36295SOL     OW13246   6.253   6.692   6.436  0.2099  0.3731 -0.0001
36295SOL    HW113247   6.306   6.619   6.468  0.9959  0.4306 -1.1268
36295SOL    HW213248   6.171   6.651   6.409  0.6126 -0.0851 -0.5503
36296SOL     OW13249   7.087   1.889   8.388  0.6397  0.1220  0.2550
36296SOL    HW113250   7.128   1.923   8.467  0.8378 -1.9201  1.0905
36296SOL    HW213251   7.039   1.964   8.352  1.8643  1.5189  1.4038
36297SOL     OW13252   2.980   9.221   0.697 -0.0180  0.0079 -0.3040
36297SOL    HW113253   2.922   9.267   0.758  0.5042  1.4851 -0.8815
36297SOL    HW213254   3.021   9.153   0.750 -0.4456  0.5071  0.7000
36298SOL     OW13255   7.326   9.081   5.904  0.0571  0.0785 -0.0475
36298SOL    HW113256   7.285   9.008   5.952  3.1771 -0.6675  1.8189
36298SOL    HW213257   7.392   9.038   5.848 -0.2066  1.3010 -1.3368
36299SOL     OW13258   8.350   4.802   6.383 -0.2094 -0.0724  0.0813
36299SOL    HW113259   8.371   4.775   6.472  1.1486  0.2715 -0.1196
36299SOL    HW213260   8.257   4.826   6.386 -0.1506  0.0207  1.4057
36300SOL     OW13261   8.593  11.018   0.006 -0.0862  1.0807 -0.2850
36300SOL    HW113262   8.678  10.976   0.020 -0.1504  1.3415  1.0191
36300SOL    HW213263   8.575  11.006  -0.087  0.5650 -0.5171 -0.2367
36301SOL     OW13264   0.482   4.097   0.179  0.3693  0.3040  0.1378
36301SOL    HW113265   0.503   4.171   0.235 -0.6320  0.1738  0.7034
36301SOL    HW213266   0.394   4.115   0.146 -0.2222 -1.0070  0.9276
36302SOL     OW13267   5.422  10.168   4.886 -0.0788  0.1658 -0.0205
36302SOL    HW113268   5.380  10.207   4.962  1.3456  2.2560 -0.2309
36302SOL    HW213269   5.441  10.078   4.912 -1.7749  0.1292  1.1938
36303SOL     OW13270   4.785   4.965   5.905  0.0542 -0.1109 -0.1291
36303SOL    HW113271   4.808   4.888   5.957  2.0890 -0.3549 -1.2868
36303SOL    HW213272   4.689   4.969   5.909 -0.0653 -2.3159  0.4680
36304SOL     OW13273   7.550   1.263   0.797  0.3656  0.0186  0.3855
36304SOL    HW113274   7.491   1.338   0.796  0.5496  0.1624 -0.3163
36304SOL    HW213275   7.599   1.272   0.879  0.3134  0.6104  0.3577
36305SOL     OW13276   1.062   7.524   2.913 -0.2131 -0.0094 -0.2178
36305SOL    HW113277   1.108   7.563   2.988 -0.0779  1.0049 -0.8100
36305SOL    HW213278   1.121   7.456   2.881 -0.1628 -0.2816  0.4327
36306SOL     OW13279   6.991   1.277   4.284  0.1212 -0.1278 -0.0128
36306SOL    HW113280   6.928   1.344   4.312 -0.8639 -1.2881  0.6207
36306SOL    HW213281   7.055   1.326   4.232  0.1704  1.5351  1.5153
36307SOL     OW13282   8.927   8.987   6.279 -0.0483  0.9152 -0.0383
36307SOL    HW113283   8.852   8.949   6.325  0.3365  1.4828  1.1140
36307SOL    HW213284   8.907   8.976   6.186 -0.8011 -0.3901  0.2513
36308SOL     OW13285   4.518   3.119   5.711  0.5242 -0.1076 -0.3317
36308SOL    HW113286   4.588   3.053   5.711 -0.2164 -1.1078  3.0157
36308SOL    HW213287   4.440   3.072   5.738 -0.2316  1.9371  1.3688
36309SOL     OW13288   3.301   3.062   4.824 -0.2037  0.6522 -0.0559
36309SOL    HW113289   3.268   3.124   4.759  1.9711  0.9052 -1.0087
36309SOL    HW213290   3.355   3.115   4.883 -1.0295  0.1879  1.1673
36310SOL     OW13291   8.181   1.603   4.572 -0.1997 -0.0493 -0.1937
36310SOL    HW113292   8.119   1.577   4.505  1.1671  0.3965 -1.7145
36310SOL    HW213293   8.198   1.696   4.554  0.4985 -0.0232  0.5267
36311SOL     OW13294   3.792   3.639   6.907  0.3554 -0.0740 -0.2592
36311SOL    HW113295   3.721   3.678   6.959 -0.3802  1.5407 -2.3452
36311SOL    HW213296   3.808   3.554   6.949  1.1133  1.7766  3.7263
36312SOL     OW13297   3.314   7.077   0.659 -0.0600  0.1994 -0.1640
36312SOL    HW113298   3.272   7.086   0.745  0.8801  1.0842  0.2294
36312SOL    HW213299   3.337   7.167   0.635 -0.3815 -0.0375 -1.3836
36313SOL     OW13300  10.035   4.576   2.114 -0.2767  0.1156  0.0847
36313SOL    HW113301   9.961   4.518   2.098 -0.0848 -0.2856  0.6204
36313SOL    HW213302  10.111   4.527   2.085  0.0462 -0.5000  1.8430
36314SOL     OW13303   7.559  10.254   2.390  1.2047  0.2558  0.3158
36314SOL    HW113304   7.500  10.198   2.440 -0.4756  1.8194  0.1838
36314SOL    HW213305   7.646  10.218   2.406  0.3291 -1.5668  1.2705
36315SOL     OW13306   3.162   9.925   1.550  0.5788 -0.4546  0.6358
36315SOL    HW113307   3.068   9.943   1.546  0.5620 -0.6936 -0.1970
36315SOL    HW213308   3.172   9.869   1.627  0.6498  3.0930  3.4496
36316SOL     OW13309   2.141   4.499   4.404  0.3226 -0.3696  0.4424
36316SOL    HW113310   2.189   4.576   4.373 -0.5662 -0.6680 -1.9542
36316SOL    HW213311   2.059   4.534   4.438  0.1921 -0.1726 -0.0517
36317SOL     OW13312   7.097   4.985   7.726  0.3736 -0.3103  0.5635
36317SOL    HW113313   7.122   5.078   7.729  0.3314 -0.2854  0.2549
36317SOL    HW213314   7.072   4.971   7.634  1.1827 -0.8404  0.4176
36318SOL     OW13315  11.083   3.886   4.588 -0.0546  0.2799  0.1961
36318SOL    HW113316  11.113   3.857   4.501  1.1946 -1.9277  1.2782
36318SOL    HW213317  11.063   3.979   4.576  0.7720  0.2289 -2.2681
36319SOL     OW13318   3.847  10.298   1.980 -0.3444  0.6319  0.3420
36319SOL    HW113319   3.780  10.239   1.945 -0.5354  0.5684  0.7973
36319SOL    HW213320   3.883  10.343   1.904 -1.4623  1.2474  0.1637
36320SOL     OW13321   3.116   3.217  10.351  0.0417 -0.5077  0.1009
36320SOL    HW113322   3.023   3.204  10.334 -0.0823 -1.1986  1.2068
36320SOL    HW213323   3.152   3.129  10.359  0.9355 -0.2649 -0.9363
36321SOL     OW13324  10.876   5.858   3.371  0.3831 -0.3951 -0.4795
36321SOL    HW113325  10.868   5.943   3.414  1.5539 -0.0124 -0.9860
36321SOL    HW213326  10.786   5.834   3.350  0.0071  0.5753 -0.0575
36322SOL     OW13327   7.391   2.096   2.542 -0.3082  0.2188 -0.3100
36322SOL    HW113328   7.339   2.094   2.462  1.2934 -0.9012 -1.3853
36322SOL    HW213329   7.475   2.058   2.517 -0.4208 -2.1003  2.3945
36323SOL     OW13330   2.513   2.921   3.130  0.2289 -0.0364 -0.1953
36323SOL    HW113331   2.576   2.954   3.194 -1.5626 -0.9833  2.2236
36323SOL    HW213332   2.564   2.864   3.073  1.5601 -0.9230  1.7863
36324SOL     OW13333   6.144   9.060   3.488 -0.4776  0.4689  0.0807
36324SOL    HW113334   6.125   8.983   3.436 -0.9998 -0.2394  1.2724
36324SOL    HW213335   6.065   9.072   3.542  0.4138  0.5773  1.4065
36325SOL     OW13336   0.555   0.568   3.947 -0.0426 -0.3454  0.2342
36325SOL    HW113337   0.501   0.648   3.948 -0.7782 -0.7841 -1.1288
36325SOL    HW213338   0.499   0.502   3.988 -0.9802 -1.0215 -2.0018
36326SOL     OW13339   7.952   3.907   0.218  0.0420 -0.5322 -0.2652
36326SOL    HW113340   7.896   3.875   0.147  1.8590 -0.8402 -1.6485
36326SOL    HW213341   7.892   3.946   0.282 -1.6482 -0.0210 -2.0898
36327SOL     OW13342   2.397   8.347   4.538  0.0368 -0.3630  0.5789
36327SOL    HW113343   2.412   8.395   4.456 -0.7074 -0.2652  0.4912
36327SOL    HW213344   2.406   8.413   4.606 -0.7775 -0.1283  0.4715
36328SOL     OW13345   5.749   1.400   0.439 -0.4924 -0.0825 -0.4411
36328SOL    HW113346   5.788   1.479   0.475 -2.1244  1.1843 -1.3253
36328SOL    HW213347   5.824   1.348   0.409  0.6451  0.7797  0.7787
36329SOL     OW13348   6.304   9.328   4.147 -0.2480 -0.0485  0.4069
36329SOL    HW113349   6.269   9.411   4.115 -0.7758 -0.6109 -0.5105
36329SOL    HW213350   6.238   9.296   4.207 -0.9916 -0.7498 -0.7571
36330SOL     OW13351  10.066   6.497   1.554  0.1513  0.4444  0.3316
36330SOL    HW113352  10.136   6.498   1.489 -0.5539 -0.2543 -0.4598
36330SOL    HW213353  10.024   6.412   1.543 -0.2928  0.5092  1.3774
36331SOL     OW13354   5.641   6.262   9.673 -0.5629  0.0922  0.1428
36331SOL    HW113355   5.709   6.204   9.639 -1.6708 -0.9424 -0.3823
36331SOL    HW213356   5.593   6.291   9.595 -1.9470 -0.7758  0.6363
36332SOL     OW13357   8.336   7.233   6.130 -0.4644 -0.5494 -0.0436
36332SOL    HW113358   8.254   7.204   6.171 -1.8261  1.4411 -1.1855
36332SOL    HW213359   8.323   7.218   6.037 -1.0156  2.8859 -0.6404
36333SOL     OW13360   6.524  10.082   7.875 -0.1891 -0.0266 -0.2766
36333SOL    HW113361   6.482  10.013   7.926 -0.3417 -1.9513 -2.8366
36333SOL    HW213362   6.587  10.036   7.819 -0.1523  1.9373 -1.9444
36334SOL     OW13363   4.028  11.042   7.388  0.4751  0.3337 -0.3106
36334SOL    HW113364   3.971  11.119   7.393  0.4364  0.2684  0.3003
36334SOL    HW213365   4.116  11.076   7.407  0.2632  0.0079  1.3679
36335SOL     OW13366   7.585   9.164   3.943  0.2348 -0.3527 -0.1536
36335SOL    HW113367   7.594   9.132   3.853  0.7475  0.4798 -0.4015
36335SOL    HW213368   7.657   9.225   3.955 -0.1335 -0.0581  0.6582
36336SOL     OW13369   4.034   3.973   9.671 -0.3133 -0.6068 -0.6014
36336SOL    HW113370   4.093   3.968   9.747 -0.4396 -0.1178 -0.4633
36336SOL    HW213371   3.977   3.897   9.679 -1.6937  0.5131  0.9541
36337SOL     OW13372   7.959  10.875   3.557  0.5141 -0.0689  0.2654
36337SOL    HW113373   7.982  10.908   3.471 -0.0941 -1.4299 -0.4510
36337SOL    HW213374   7.936  10.783   3.542  0.0036 -0.2201  1.8098
36338SOL     OW13375   6.113  10.710   3.221 -0.1104 -0.1976 -0.2888
36338SOL    HW113376   6.189  10.705   3.280  1.2464  1.8933 -1.7211
36338SOL    HW213377   6.074  10.795   3.241 -1.6915 -0.9291 -0.1035
36339SOL     OW13378   4.551   4.687   9.026 -0.0933 -0.6250  0.2631
36339SOL    HW113379   4.517   4.730   9.105  0.3824  0.1885  0.0438
36339SOL    HW213380   4.522   4.743   8.954  1.0514 -0.3222  0.0160
36340SOL     OW13381  10.471   2.286   4.895  0.3519 -0.1339 -0.0385
36340SOL    HW113382  10.405   2.324   4.953 -1.1357  2.3138 -3.0538
36340SOL    HW213383  10.454   2.192   4.897 -1.9751  0.2498  0.7387
36341SOL     OW13384   6.902   4.782   8.654 -0.2218  0.1305 -0.0109
36341SOL    HW113385   6.890   4.708   8.713 -0.9396 -2.0797 -2.7434
36341SOL    HW213386   6.992   4.774   8.623 -0.4491  0.0853 -0.6797
36342SOL     OW13387   3.071   0.568   9.018 -0.2417 -0.1147 -0.1713
36342SOL    HW113388   3.142   0.522   8.975 -0.0855 -0.7876  0.7675
36342SOL    HW213389   2.994   0.513   9.002  0.0356 -1.0353  1.3739
36343SOL     OW13390  10.116   2.923   5.894 -0.1809 -0.6153  0.4520
36343SOL    HW113391  10.030   2.900   5.860 -0.0279  0.5333 -0.7861
36343SOL    HW213392  10.099   2.958   5.982 -1.1665  1.0141 -0.3516
36344SOL     OW13393   2.117   5.653   2.826  0.1909 -0.0531  0.0163
36344SOL    HW113394   2.155   5.675   2.912  1.3959 -2.5002  0.1948
36344SOL    HW213395   2.081   5.565   2.838 -1.9025  0.5640 -1.3542
36345SOL     OW13396  10.973   1.974   2.239  0.4501 -0.4689 -0.7746
36345SOL    HW113397  11.001   2.055   2.197 -1.9534  1.0800  0.3735
36345SOL    HW213398  10.908   1.937   2.179  1.0177 -1.2072 -0.9535
36346SOL     OW13399   6.067   6.271   4.207 -0.1033  0.0741  0.2018
36346SOL    HW113400   6.149   6.305   4.173  1.0079 -1.2994  1.3631
36346SOL    HW213401   6.000   6.304   4.147  1.3487  0.7666 -1.0960
36347SOL     OW13402   9.517   6.720   7.623 -0.4109  0.5121  0.5122
36347SOL    HW113403   9.534   6.711   7.716 -0.8235  1.9794  0.7545
36347SOL    HW213404   9.477   6.807   7.614 -0.7703  0.2232 -0.9724
36348SOL     OW13405   6.326   8.607   9.512  0.5277 -0.2896  0.1792
36348SOL    HW113406   6.352   8.520   9.542  0.2649 -0.3290  0.2902
36348SOL    HW213407   6.266   8.591   9.439  1.3341 -0.1926 -0.5151
36349SOL     OW13408   9.074   8.895   3.054  0.1674  0.2222  0.7354
36349SOL    HW113409   9.041   8.872   2.968  1.0174  3.5113 -0.6233
36349SOL    HW213410   9.130   8.822   3.079 -1.5977 -1.6784 -0.5771
36350SOL     OW13411   8.118   4.929   0.764  0.0876  0.3665 -0.1014
36350SOL    HW113412   8.172   4.945   0.687 -0.6315  2.0019 -0.3114
36350SOL    HW213413   8.181   4.922   0.836  0.6136  2.6644 -0.2747
36351SOL     OW13414   0.293   1.077   4.159 -0.0888 -0.2906 -0.0663
36351SOL    HW113415   0.375   1.101   4.116 -0.8302  0.3006 -1.2135
36351SOL    HW213416   0.308   0.989   4.193  0.9157 -0.3044 -0.5182
36352SOL     OW13417   1.709   1.941   2.202 -0.4550 -0.3827  0.6249
36352SOL    HW113418   1.715   2.037   2.199 -0.3642 -0.3882  0.6263
36352SOL    HW213419   1.704   1.915   2.111 -2.6261 -0.2468  0.6628
36353SOL     OW13420   0.991   1.297   2.413  0.2628 -0.0310 -0.0122
36353SOL    HW113421   0.996   1.311   2.508 -0.9374  1.2200 -0.1044
36353SOL    HW213422   0.910   1.248   2.400 -0.4991  1.3040 -0.5050
36354SOL     OW13423   2.700   8.253   8.626  0.4610 -0.6580 -0.1569
36354SOL    HW113424   2.723   8.178   8.571  0.9321 -0.7105  0.1132
36354SOL    HW213425   2.612   8.277   8.597 -0.1343 -1.9819  0.4851
36355SOL     OW13426  10.878   8.723   7.195 -0.4629  0.0369 -0.1356
36355SOL    HW113427  10.972   8.730   7.181 -0.5635 -0.2275 -0.9849
36355SOL    HW213428  10.861   8.779   7.271  0.3856  0.0239  0.0742
36356SOL     OW13429   4.496   0.774   0.373 -0.0727  0.0637 -0.2223
36356SOL    HW113430   4.545   0.764   0.455 -0.7064  1.2141  0.3219
36356SOL    HW213431   4.443   0.694   0.368  1.2344 -0.8277 -0.4215
36357SOL     OW13432   0.970   8.328   7.875 -0.3877 -0.0074 -0.6117
36357SOL    HW113433   1.021   8.376   7.810 -0.9796  0.1070 -0.9992
36357SOL    HW213434   0.901   8.389   7.901 -0.2954 -0.1367 -0.0469
36358SOL     OW13435  10.726   1.324   7.997  0.7516  0.3471 -0.0601
36358SOL    HW113436  10.798   1.366   7.950  0.1850  3.1253  1.3140
36358SOL    HW213437  10.763   1.304   8.083 -0.4490  3.5709  1.3543
36359SOL     OW13438   3.063   8.470   9.171 -0.0341 -0.1150  0.1244
36359SOL    HW113439   3.049   8.383   9.134 -0.7095 -0.3800  0.9704
36359SOL    HW213440   3.073   8.528   9.095 -0.9285 -0.7062 -0.4617
36360SOL     OW13441   4.402   5.818   7.562  0.3967  0.3253 -0.2588
36360SOL    HW113442   4.437   5.860   7.484  1.1784 -1.2974 -0.8239
36360SOL    HW213443   4.446   5.862   7.635  1.7601  0.0100 -0.8586
36361SOL     OW13444   2.903   3.136   3.415 -0.0805  0.1720  0.1161
36361SOL    HW113445   2.896   3.115   3.508 -1.0028 -0.9503 -0.1824
36361SOL    HW213446   2.992   3.170   3.404  0.0824  0.1760  1.3736
36362SOL     OW13447   8.424   6.309   0.081  0.3853  0.8266  0.2149
36362SOL    HW113448   8.329   6.312   0.075  0.4638  0.8326 -1.5246
36362SOL    HW213449   8.449   6.230   0.033  1.1996  0.0334  1.8787
36363SOL     OW13450   0.424   2.886   2.011  0.1546 -0.4436  0.1655
36363SOL    HW113451   0.451   2.934   2.089 -1.2112  0.4150  0.1442
36363SOL    HW213452   0.351   2.831   2.040 -1.3176  0.9307 -0.7348
36364SOL     OW13453   4.583   5.761   7.083  0.2691 -0.4001 -0.4587
36364SOL    HW113454   4.671   5.724   7.074  0.4272  0.2493 -1.7938
36364SOL    HW213455   4.572   5.774   7.177  1.1611 -1.5175 -0.1784
36365SOL     OW13456   0.849   3.587   2.349 -0.0523  0.6354  0.1253
36365SOL    HW113457   0.944   3.581   2.350 -0.0448  0.7129  0.9711
36365SOL    HW213458   0.825   3.589   2.256  0.6281 -1.4072 -0.1393
36366SOL     OW13459   9.504   3.748  10.522 -0.1040  0.1796 -0.3199
36366SOL    HW113460   9.426   3.777  10.475 -1.0777 -1.6288  0.0757
36366SOL    HW213461   9.576   3.796  10.482 -1.3592  1.6077 -0.9655
36367SOL     OW13462   0.712   1.875   9.375 -0.2426  0.0969 -0.1794
36367SOL    HW113463   0.804   1.890   9.353 -0.3604 -1.0137 -1.5660
36367SOL    HW213464   0.713   1.801   9.435 -0.2983 -0.7375 -1.1917
36368SOL     OW13465   4.386   3.405   6.478 -0.4336  0.4244 -0.7115
36368SOL    HW113466   4.456   3.468   6.491 -0.0040 -0.4122  1.4493
36368SOL    HW213467   4.424   3.337   6.423  0.9466 -0.6115  1.3695
36369SOL     OW13468   6.045  10.468   5.841 -0.1527  0.1998  0.4283
36369SOL    HW113469   5.954  10.445   5.860 -0.3591  0.8748  0.3099
36369SOL    HW213470   6.041  10.510   5.755  0.2943  0.0927  0.3539
36370SOL     OW13471  10.411   5.620   3.821 -0.1549  0.0121 -0.4052
36370SOL    HW113472  10.446   5.570   3.746  1.5451 -1.1479  1.0679
36370SOL    HW213473  10.488   5.662   3.859 -1.0529  0.9194  0.4583
36371SOL     OW13474   7.531  10.051   3.046 -0.6689  0.2703  0.6957
36371SOL    HW113475   7.478  10.104   3.105 -1.0980  0.1092  0.4592
36371SOL    HW213476   7.522  10.094   2.960  1.6273  1.7380  1.1118
36372SOL     OW13477   1.795   2.876  10.199  0.4673 -0.3844  0.0056
36372SOL    HW113478   1.802   2.843  10.109  1.4163  0.4016 -0.2164
36372SOL    HW213479   1.885   2.886  10.229  0.1662 -0.8432  1.1427
36373SOL     OW13480   0.022   8.033   5.199 -0.4544  0.5340  0.1208
36373SOL    HW113481   0.102   8.065   5.240 -0.1176 -0.0441 -0.0618
36373SOL    HW213482   0.029   8.060   5.108  0.6010 -1.3544 -0.4253
36374SOL     OW13483   2.660   7.432   7.217 -0.4356  0.8608  0.4384
36374SOL    HW113484   2.591   7.490   7.251 -2.3243  1.0845 -3.2645
36374SOL    HW213485   2.713   7.489   7.161 -0.8790 -0.4410 -1.3794
36375SOL     OW13486   2.647   9.270   3.007 -0.4896  0.3547  0.0472
36375SOL    HW113487   2.562   9.239   2.976  0.5289 -1.4177 -1.1440
36375SOL    HW213488   2.638   9.365   3.011 -2.6003  0.1873  0.2569
36376SOL     OW13489   6.075   9.100   9.140 -0.1930  0.5130 -1.1506
36376SOL    HW113490   6.090   9.049   9.219  1.3761  2.3421 -0.1686
36376SOL    HW213491   6.132   9.061   9.074  0.9699  0.9341 -0.4178
36377SOL     OW13492   1.489  10.991   6.702  0.2098  0.2657 -0.0143
36377SOL    HW113493   1.457  11.081   6.712 -1.3975 -0.4424  1.8157
36377SOL    HW213494   1.455  10.964   6.617  2.5213  2.0086 -1.6226
36378SOL     OW13495  10.659   2.744  10.072 -0.1335 -0.1575 -0.1903
36378SOL    HW113496  10.613   2.803  10.012 -0.7434  2.7965  2.8761
36378SOL    HW213497  10.589   2.695  10.115 -0.1514  0.9436  1.1239
36379SOL     OW13498   7.834   2.869   7.250  0.1548 -0.1308 -0.1637
36379SOL    HW113499   7.803   2.841   7.164 -1.7459  1.0171  0.0951
36379SOL    HW213500   7.865   2.788   7.291 -0.4345 -0.9783 -1.3187
36380SOL     OW13501   8.627  10.339   9.144 -0.6371 -0.3470 -0.0489
36380SOL    HW113502   8.570  10.415   9.161 -1.0875 -0.8157  0.5737
36380SOL    HW213503   8.658  10.353   9.055 -0.0608  0.9969  0.3288
36381SOL     OW13504   9.036  10.475   6.325 -0.2169 -0.3828  0.3602
36381SOL    HW113505   9.112  10.417   6.323 -0.6348 -1.0059  1.3955
36381SOL    HW213506   9.073  10.563   6.335  0.3640 -0.7510  1.6861
36382SOL     OW13507   7.418   4.868   3.479 -0.2434 -0.0280 -0.2155
36382SOL    HW113508   7.505   4.908   3.478  0.7344 -1.7865  2.3586
36382SOL    HW213509   7.408   4.836   3.569 -3.8705  0.7012 -0.2321
36383SOL     OW13510   3.841   6.892  11.023 -0.2775  0.7065  0.2944
36383SOL    HW113511   3.906   6.962  11.035 -0.4669  1.0484 -0.6003
36383SOL    HW213512   3.828   6.857  11.111  2.1553 -0.3209  0.3173
36384SOL     OW13513   2.111   5.695  10.358 -0.0983  0.3849 -0.7230
36384SOL    HW113514   2.059   5.768  10.325  0.9563  1.4260 -0.1493
36384SOL    HW213515   2.202   5.722  10.345  0.3209 -0.2479  0.6985
36385SOL     OW13516   2.455   3.397   8.538  0.3983 -0.3850 -0.0200
36385SOL    HW113517   2.490   3.312   8.510  0.1001 -0.4836 -0.1062
36385SOL    HW213518   2.377   3.374   8.589 -0.1285 -0.1366 -0.6987
36386SOL     OW13519   1.216   1.097   5.255  0.6469  0.3186  0.2136
36386SOL    HW113520   1.254   1.036   5.192 -0.7382 -0.4024  0.0448
36386SOL    HW213521   1.226   1.053   5.340  1.5117  0.7939  0.3651
36387SOL     OW13522   6.721  10.136   0.973  0.9299  0.1306  0.1897
36387SOL    HW113523   6.808  10.130   0.934  1.5140 -1.2383  1.6007
36387SOL    HW213524   6.733  10.108   1.064 -0.7535  1.1921  0.7854
36388SOL     OW13525  10.986   6.347  10.647 -0.0011  0.3039 -0.7694
36388SOL    HW113526  11.007   6.439  10.633  1.3288  0.2525  0.5620
36388SOL    HW213527  10.890   6.343  10.646 -0.1997  2.1755  1.6253
36389SOL     OW13528   2.523   4.057   2.646  0.4210  0.3485  0.3659
36389SOL    HW113529   2.430   4.035   2.635  0.3650  0.6191  0.2584
36389SOL    HW213530   2.543   4.113   2.570  0.6396  0.3882  0.4515
36390SOL     OW13531  11.062  10.770   9.620 -0.7218  0.4368 -0.2798
36390SOL    HW113532  10.979  10.803   9.587 -0.1663  2.7336  0.4511
36390SOL    HW213533  11.051  10.768   9.715 -0.2713 -0.1936 -0.2370
36391SOL     OW13534   7.864   9.019   1.957  0.1877  0.5732 -0.1109
36391SOL    HW113535   7.846   9.075   2.033 -1.3561  1.5142 -1.1303
36391SOL    HW213536   7.955   9.040   1.933  0.1901  1.3784  0.5546
36392SOL     OW13537   9.095   5.386  10.692 -0.1297 -0.0431  0.2558
36392SOL    HW113538   9.105   5.328  10.767  1.4186 -3.4262 -2.2875
36392SOL    HW213539   9.000   5.393  10.680 -0.4561 -3.5841 -0.2519
36393SOL     OW13540   9.554   5.077  10.964  0.2133 -0.1039  0.1524
36393SOL    HW113541   9.573   5.151  10.907  0.2479  0.0566  0.3691
36393SOL    HW213542   9.483   5.030  10.920  1.1193 -0.7298 -0.6811
36394SOL     OW13543   8.191   7.786   8.998  0.0953 -0.1353  0.3900
36394SOL    HW113544   8.246   7.776   9.076 -0.9522 -0.3130  1.1380
36394SOL    HW213545   8.184   7.881   8.987 -0.0568 -0.0996  0.7538
36395SOL     OW13546   6.117   0.131   6.706  0.5273 -0.0231 -0.2142
36395SOL    HW113547   6.083   0.082   6.781  1.4794 -1.9291 -0.9538
36395SOL    HW213548   6.204   0.161   6.733  0.3005  0.5169 -0.0728
36396SOL     OW13549   6.973  10.431   4.375 -0.5838  0.3834 -0.5040
36396SOL    HW113550   7.036  10.395   4.313 -1.8336 -1.8121 -0.5887
36396SOL    HW213551   7.022  10.498   4.423  1.4610 -0.4382 -1.3425
36397SOL     OW13552   0.138   7.281   5.660 -0.0465  0.0798  0.2842
36397SOL    HW113553   0.095   7.362   5.686 -2.2158 -0.6229 -0.8140
36397SOL    HW213554   0.158   7.292   5.567  4.0193  1.0683  1.0833
36398SOL     OW13555   5.382   7.174   3.732  0.5955 -0.6337 -0.1159
36398SOL    HW113556   5.413   7.115   3.663 -0.2478 -2.8700  1.3125
36398SOL    HW213557   5.297   7.139   3.758  0.7115  0.3620  1.8100
36399SOL     OW13558   4.510  10.485   9.905 -0.1304 -0.5766 -0.4729
36399SOL    HW113559   4.548  10.485   9.993 -0.2903 -0.6649 -0.4051
36399SOL    HW213560   4.475  10.574   9.895  1.0630 -0.1313 -0.9509
36400SOL     OW13561   5.593   1.795   5.316 -0.3078  0.5358  0.2735
36400SOL    HW113562   5.570   1.751   5.398 -0.1352 -2.4956 -1.1670
36400SOL    HW213563   5.688   1.797   5.315 -0.2368 -1.4079 -0.7318
36401SOL     OW13564   5.297   0.196   2.876 -0.6510  0.4013 -0.3920
36401SOL    HW113565   5.216   0.155   2.906  0.2036 -1.0261  0.1090
36401SOL    HW213566   5.335   0.132   2.815  0.6335  0.5227  0.2433
36402SOL     OW13567   5.560   6.646   7.260 -0.4909 -0.0841  0.4012
36402SOL    HW113568   5.577   6.633   7.354 -2.7637  1.5281  1.1260
36402SOL    HW213569   5.481   6.700   7.257  0.5039  1.4206 -2.4423
36403SOL     OW13570   5.824   4.139   3.997  0.7598 -0.3071 -0.0719
36403SOL    HW113571   5.733   4.169   3.996  0.6727 -0.3324 -3.8437
36403SOL    HW213572   5.876   4.218   3.981  1.2586 -0.6356 -0.1064
36404SOL     OW13573   3.474   2.939   5.617  0.4386  0.2536 -0.0885
36404SOL    HW113574   3.417   2.946   5.541  0.0622  1.5616  0.2829
36404SOL    HW213575   3.550   2.890   5.586 -0.1970 -0.1608 -1.0079
36405SOL     OW13576   0.300   9.897   4.521 -0.3279 -0.4797  0.2987
36405SOL    HW113577   0.238   9.962   4.555 -0.9860 -0.7069 -0.4458
36405SOL    HW213578   0.361   9.883   4.593  0.7487  2.0636  0.0107
36406SOL     OW13579   9.617   8.895   6.702 -0.0418  0.4464 -0.2795
36406SOL    HW113580   9.701   8.850   6.696 -0.2783  0.1948 -3.3823
36406SOL    HW213581   9.565   8.841   6.761  0.7677 -1.5831 -1.3148
36407SOL     OW13582   9.137   4.417   2.928  0.6391 -0.3922 -0.5884
36407SOL    HW113583   9.120   4.369   3.009 -0.0166  0.4280 -0.2200
36407SOL    HW213584   9.069   4.484   2.925  0.9205 -0.1327 -1.6019
36408SOL     OW13585   3.951   2.660   8.367 -0.0839 -0.1193  0.4159
36408SOL    HW113586   3.857   2.642   8.366 -1.1752  4.2996  0.6899
36408SOL    HW213587   3.978   2.643   8.457 -0.6938 -1.0001  0.4433
36409SOL     OW13588   1.596   7.986   5.149 -0.2668 -0.1658  0.1322
36409SOL    HW113589   1.668   7.993   5.212 -0.4835 -1.8139  0.6033
36409SOL    HW213590   1.638   7.958   5.068 -0.2981 -0.5639  0.2514
36410SOL     OW13591  10.103   4.035   0.856 -0.3956  0.1859  0.3537
36410SOL    HW113592  10.085   4.051   0.948 -0.7891 -1.1470  0.5393
36410SOL    HW213593  10.109   3.939   0.849  0.5852  0.3089 -0.8302
36411SOL     OW13594   7.570   4.432   9.442  0.4503  0.0337 -0.9040
36411SOL    HW113595   7.483   4.472   9.437  1.0205  1.3591 -0.5960
36411SOL    HW213596   7.554   4.339   9.424 -1.6303 -0.5935  2.9895
36412SOL     OW13597   6.835   3.440   1.823 -0.0272 -0.2226  0.5977
36412SOL    HW113598   6.779   3.479   1.890 -1.2631 -0.7233 -0.1014
36412SOL    HW213599   6.862   3.514   1.768  0.9137  0.1737  1.5593
36413SOL     OW13600   4.744   7.816   5.208  0.0850  0.2462 -0.3693
36413SOL    HW113601   4.804   7.796   5.136  0.6013 -0.8564  0.3444
36413SOL    HW213602   4.738   7.911   5.208  0.7123  0.3027 -1.3592
36414SOL     OW13603   8.925   3.308   4.436  0.2232  0.0586  0.5845
36414SOL    HW113604   8.943   3.349   4.520 -0.7106  1.2822  0.2255
36414SOL    HW213605   8.871   3.372   4.389 -0.3098 -1.1009 -0.4655
36415SOL     OW13606   1.448   1.841   7.104 -0.2110 -0.0166  0.4291
36415SOL    HW113607   1.462   1.759   7.150 -0.1887  0.1512  0.7269
36415SOL    HW213608   1.365   1.874   7.140 -0.9418 -0.5790 -0.6835
36416SOL     OW13609   4.363   7.032   9.273 -0.1324 -0.6903 -0.1114
36416SOL    HW113610   4.457   7.018   9.273 -0.3056 -2.0346 -0.2330
36416SOL    HW213611   4.330   6.972   9.340 -0.9697 -0.9116 -0.6930
36417SOL     OW13612   1.515   9.349   7.048 -0.1752  0.0367 -0.1558
36417SOL    HW113613   1.526   9.444   7.038  1.7421 -0.4239 -3.8323
36417SOL    HW213614   1.481   9.320   6.964 -1.8902 -2.4687  1.3002
36418SOL     OW13615   1.327   1.586   5.896 -0.4399  0.0362 -0.2844
36418SOL    HW113616   1.348   1.495   5.918  4.0454  1.0685  0.5864
36418SOL    HW213617   1.310   1.628   5.980  0.8144  0.6410 -0.3156
36419SOL     OW13618   3.810  10.802   5.126 -0.2646  0.2441 -0.0823
36419SOL    HW113619   3.770  10.877   5.170 -0.8513 -0.1741  0.1010
36419SOL    HW213620   3.759  10.727   5.155  0.9176 -0.3592  0.5013
36420SOL     OW13621   9.808  10.015   7.501  0.5552 -0.4067 -0.2212
36420SOL    HW113622   9.734  10.025   7.443  0.7003 -1.6549 -0.6528
36420SOL    HW213623   9.770   9.998   7.587  0.3388  1.6547  0.1308
36421SOL     OW13624   8.154   8.189   4.594  0.7143 -0.0923 -0.6208
36421SOL    HW113625   8.078   8.230   4.554 -1.7537  0.1095  3.6215
36421SOL    HW213626   8.210   8.262   4.620  0.2089  0.1022 -0.0401
36422SOL     OW13627   6.927   3.938  10.056 -0.0714 -0.0040  0.2539
36422SOL    HW113628   6.992   3.992  10.012  1.5865 -1.2358  1.1140
36422SOL    HW213629   6.963   3.849  10.055 -0.1422 -0.2056  3.6235
36423SOL     OW13630   2.259   9.991   2.447 -0.0854  0.6583 -0.7287
36423SOL    HW113631   2.294   9.938   2.376 -1.2372  0.1979 -0.9855
36423SOL    HW213632   2.316   9.972   2.522 -0.3712 -0.8684 -0.8567
36424SOL     OW13633  10.339   5.889   4.013  0.0753  0.1281 -0.1639
36424SOL    HW113634  10.311   5.955   4.077  1.9824  0.9032 -0.0494
36424SOL    HW213635  10.276   5.818   4.023 -1.1885  1.3092  0.7503
36425SOL     OW13636  10.396   5.911   8.439 -0.1481  0.4080 -0.0066
36425SOL    HW113637  10.304   5.883   8.436  0.3060 -1.2187  0.1982
36425SOL    HW213638  10.411   5.950   8.353 -0.5872 -0.8902 -0.7006
36426SOL     OW13639  10.420   0.287   1.745  0.1065  0.5875  0.2927
36426SOL    HW113640  10.412   0.325   1.657 -1.4015 -2.9666 -1.2889
36426SOL    HW213641  10.360   0.340   1.799 -1.3594  0.9489 -1.5668
36427SOL     OW13642   6.417   8.146   2.884  0.5184  0.2626 -0.5039
36427SOL    HW113643   6.336   8.196   2.897  0.7399  0.2363  1.2278
36427SOL    HW213644   6.387   8.057   2.861  0.0270  0.1162  0.6553
36428SOL     OW13645   6.168   5.760   4.340  0.1998 -0.2744 -0.1611
36428SOL    HW113646   6.179   5.835   4.282  0.9160 -1.3483 -1.4635
36428SOL    HW213647   6.217   5.782   4.419 -1.0300  1.3348  0.1980
36429SOL     OW13648   0.651   0.028   9.324 -0.4269 -0.2622 -0.5834
36429SOL    HW113649   0.716   0.034   9.394  0.1686  1.6781 -1.2342
36429SOL    HW213650   0.694   0.068   9.248 -1.7382 -0.5987 -1.5338
36430SOL     OW13651  10.256   2.671   0.105 -0.3780 -0.3525 -0.0787
36430SOL    HW113652  10.276   2.676   0.198  0.0945  0.4354 -0.2135
36430SOL    HW213653  10.336   2.700   0.061 -0.8873  0.1365 -0.7054
36431SOL     OW13654   0.356   9.776   3.853 -0.2971 -0.2458  0.2470
36431SOL    HW113655   0.382   9.811   3.767 -1.9887 -1.8546 -0.9882
36431SOL    HW213656   0.327   9.687   3.835 -1.2995 -0.4172  2.4088
36432SOL     OW13657   6.241   5.721   4.055  0.1050  0.1750 -0.2068
36432SOL    HW113658   6.217   5.765   4.137  1.7708  0.1250  0.3408
36432SOL    HW213659   6.234   5.789   3.988 -0.5562  0.4030  0.0811
36433SOL     OW13660  10.590   8.083   8.015 -0.1773  0.3482  0.1535
36433SOL    HW113661  10.626   8.028   8.085 -1.4030 -0.5184  0.1360
36433SOL    HW213662  10.619   8.041   7.934 -1.7298 -0.7579  0.1298
36434SOL     OW13663   0.995   0.943   6.395 -0.0565  0.2008 -0.0830
36434SOL    HW113664   1.001   0.953   6.300  0.9382  1.0896  0.0504
36434SOL    HW213665   1.046   0.864   6.415 -0.2586  0.0192 -0.2905
36435SOL     OW13666   6.708   3.345   3.604 -0.1019 -0.6534 -0.0208
36435SOL    HW113667   6.662   3.367   3.685  0.0057 -0.1368 -0.0903
36435SOL    HW213668   6.642   3.304   3.548 -0.1951 -0.9408  0.2982
36436SOL     OW13669  11.030   6.275   0.546 -0.1854  0.4851 -0.0082
36436SOL    HW113670  11.105   6.290   0.603  0.2718 -2.2292  0.2365
36436SOL    HW213671  11.045   6.332   0.471  2.3023 -0.1829 -0.0889
36437SOL     OW13672   8.825   1.505   0.373  0.1894 -0.0970  0.2060
36437SOL    HW113673   8.736   1.477   0.392 -1.0559  2.7283 -1.0010
36437SOL    HW213674   8.844   1.572   0.439  0.9501  0.2132 -0.3095
36438SOL     OW13675   7.599   0.461   0.593  0.5228 -0.3138 -0.1009
36438SOL    HW113676   7.518   0.503   0.566 -1.8404 -1.1193  4.5964
36438SOL    HW213677   7.654   0.532   0.627 -0.9542 -0.2161  2.3183
36439SOL     OW13678   9.047  10.244   9.511 -0.3117  0.5087  0.3163
36439SOL    HW113679   9.090  10.159   9.521 -1.8186 -0.4075 -0.4924
36439SOL    HW213680   9.015  10.244   9.421 -1.6393  1.2718  0.7608
36440SOL     OW13681   9.439   9.973   9.967 -0.1000 -0.5423  0.4435
36440SOL    HW113682   9.531   9.985   9.944  0.0693 -0.6700  1.0249
36440SOL    HW213683   9.419  10.048  10.023 -0.8674  0.4690 -1.1098
36441SOL     OW13684   2.975   6.298   4.963 -0.1138 -0.4673 -0.1405
36441SOL    HW113685   2.989   6.349   4.883 -0.8444 -1.5755 -1.0200
36441SOL    HW213686   2.881   6.279   4.963 -0.2951  0.3017  1.4931
36442SOL     OW13687   3.099   8.918   6.029 -0.1167 -0.2521 -0.2358
36442SOL    HW113688   3.003   8.915   6.036 -0.3606  3.0421 -0.5865
36442SOL    HW213689   3.117   8.903   5.937 -0.2565 -1.0417 -0.1420
36443SOL     OW13690   3.419   7.909   8.453 -0.3956  0.2104  0.1405
36443SOL    HW113691   3.447   7.819   8.473  1.4930  0.4994 -0.9515
36443SOL    HW213692   3.498   7.962   8.467 -0.8426  1.3566 -1.3935
36444SOL     OW13693  10.872   6.165   1.304  0.4906 -0.1753 -0.2722
36444SOL    HW113694  10.778   6.173   1.313  0.5164  0.4387 -0.4765
36444SOL    HW213695  10.905   6.152   1.393  0.3806  1.5345  0.0377
36445SOL     OW13696   4.393   4.885   1.230 -0.0904  0.6031  0.0003
36445SOL    HW113697   4.454   4.883   1.304 -0.4103 -1.2106  0.2630
36445SOL    HW213698   4.442   4.928   1.160  1.8557 -1.5176 -0.0606
36446SOL     OW13699   9.153  10.205   2.954  0.0247 -0.0419 -0.3545
36446SOL    HW113700   9.121  10.122   2.990  0.8737  0.2003  1.0376
36446SOL    HW213701   9.236  10.183   2.912  0.3896  0.1444  0.2629
36447SOL     OW13702   8.251   8.207  10.692 -0.0400  0.3476  0.1850
36447SOL    HW113703   8.164   8.204  10.731  0.0308  1.6913  0.4880
36447SOL    HW213704   8.239   8.258  10.611  0.1442 -0.9487 -0.6907
36448SOL     OW13705   6.265   7.522   0.951 -0.5888 -0.3543 -0.2070
36448SOL    HW113706   6.229   7.608   0.974  1.3176  0.4094  0.1447
36448SOL    HW213707   6.239   7.509   0.860 -0.4617  0.8418 -0.4327
36449SOL     OW13708   1.487   2.804   4.465  0.0944 -0.3821 -0.2467
36449SOL    HW113709   1.489   2.853   4.547 -1.2552  0.7907 -0.8801
36449SOL    HW213710   1.525   2.864   4.400 -2.4530  0.3109 -1.2246
36450SOL     OW13711   4.878   7.217   7.993 -0.3452 -0.6941 -0.4849
36450SOL    HW113712   4.928   7.155   8.046  0.5021  0.9556  0.7406
36450SOL    HW213713   4.790   7.216   8.031  0.6944  1.8625  2.4113
36451SOL     OW13714   6.074   6.672   0.554 -0.2464  0.3211  0.2845
36451SOL    HW113715   6.167   6.649   0.562 -0.2517  0.5635  1.0919
36451SOL    HW213716   6.065   6.701   0.463  0.8468  1.9141  0.6345
36452SOL     OW13717   5.835  10.579   4.085  0.7346 -0.2008  0.1905
36452SOL    HW113718   5.904  10.596   4.149  0.9028 -1.8274  0.4647
36452SOL    HW213719   5.760  10.549   4.137  0.4486 -0.3230 -0.2819
36453SOL     OW13720   2.079   1.961   7.422  0.0746  0.5355 -0.0201
36453SOL    HW113721   2.068   1.875   7.383  2.4198 -0.8567  2.1138
36453SOL    HW213722   2.010   2.015   7.382 -1.4509 -2.2836 -1.4383
36454SOL     OW13723   5.399   6.860   2.264 -0.6744 -0.7165 -0.1959
36454SOL    HW113724   5.439   6.774   2.258  1.1370  0.0411  0.4580
36454SOL    HW213725   5.397   6.879   2.358 -1.3264 -0.1491 -0.3132
36455SOL     OW13726  10.090   5.486  10.568 -0.0983 -0.0913  0.1008
36455SOL    HW113727  10.157   5.454  10.507 -0.3348 -0.2346 -0.0825
36455SOL    HW213728  10.123   5.460  10.654  0.4090  0.4195  0.0665
36456SOL     OW13729  10.931   5.402   0.360  0.1220 -0.1619 -0.2962
36456SOL    HW113730  10.887   5.482   0.388 -0.2696 -0.5403  0.1823
36456SOL    HW213731  10.987   5.377   0.433 -0.8023 -1.0771  0.1198
36457SOL     OW13732   5.229   9.942   5.847 -0.1792 -0.3350  1.3251
36457SOL    HW113733   5.242  10.036   5.856 -1.4600 -0.2388  2.5243
36457SOL    HW213734   5.304   9.912   5.795 -0.2922  1.4868  0.0176
36458SOL     OW13735   4.081   0.100   5.623  0.3551 -0.2890  0.3242
36458SOL    HW113736   4.138   0.120   5.549  2.2341  1.2206  2.0487
36458SOL    HW213737   4.119   0.023   5.664 -0.8548 -1.3059 -0.3909
36459SOL     OW13738   1.463   3.881   4.593  0.8715  0.5088  0.0655
36459SOL    HW113739   1.557   3.867   4.576  0.6875  0.0070 -0.5745
36459SOL    HW213740   1.457   3.886   4.688  1.6482  1.2888  0.0900
36460SOL     OW13741   6.018   8.423   8.611 -0.1025  0.1637 -0.4620
36460SOL    HW113742   5.975   8.350   8.655  0.6254 -1.1713 -1.8707
36460SOL    HW213743   6.073   8.462   8.678 -1.7599  0.5129  0.7697
36461SOL     OW13744   0.539   9.225   7.399  0.1902  0.1255  0.3586
36461SOL    HW113745   0.621   9.199   7.357 -0.1119 -0.0092 -0.1535
36461SOL    HW213746   0.564   9.248   7.488  0.7672 -0.0330  0.2406
36462SOL     OW13747   3.199  10.394   8.682  0.1497  0.2082 -0.1621
36462SOL    HW113748   3.290  10.422   8.675  0.0978  0.4246  0.0165
36462SOL    HW213749   3.164  10.404   8.593  0.8393 -1.8027 -0.7266
36463SOL     OW13750  10.569   0.165   1.942 -0.1891  0.3053  0.0983
36463SOL    HW113751  10.539   0.207   2.023  0.0637  0.7507 -0.0375
36463SOL    HW213752  10.527   0.216   1.873  0.1671  0.3725 -0.0683
36464SOL     OW13753   6.409   0.295   6.321  0.3448 -0.1871  0.0314
36464SOL    HW113754   6.494   0.255   6.338  1.0982  0.9211 -0.9227
36464SOL    HW213755   6.418   0.335   6.234 -1.3129 -0.4386 -0.3108
36465SOL     OW13756   2.021   5.928   5.230 -0.6310  0.4160  0.2880
36465SOL    HW113757   1.952   5.888   5.178  1.1374 -1.7101 -0.6400
36465SOL    HW213758   2.055   5.999   5.176 -0.4512 -0.1700 -0.3843
36466SOL     OW13759   2.850   7.794   5.484 -0.0358 -0.0288 -0.4408
36466SOL    HW113760   2.807   7.878   5.472 -0.3154 -0.3866 -2.2855
36466SOL    HW213761   2.780   7.735   5.511  0.2469  0.3934  1.3209
36467SOL     OW13762   7.210  10.788   2.330 -0.1648 -0.0578  0.4841
36467SOL    HW113763   7.275  10.796   2.260  0.2388  0.6520  0.9350
36467SOL    HW213764   7.262  10.777   2.409 -0.6221 -1.0812  0.6623
36468SOL     OW13765  10.042   8.501   2.019  0.1490 -0.2925 -0.2491
36468SOL    HW113766   9.990   8.447   1.960  0.8634 -1.3982  0.0995
36468SOL    HW213767  10.028   8.590   1.988 -1.9492 -0.5406 -0.1482
36469SOL     OW13768   0.643   9.326   5.108 -0.3729  0.2715 -0.1378
36469SOL    HW113769   0.579   9.395   5.089 -0.4019  0.3722  0.3056
36469SOL    HW213770   0.636   9.313   5.203  0.9392  0.9553  0.0794
36470SOL     OW13771   9.497   2.771  10.585 -0.5057 -0.2414 -0.4085
36470SOL    HW113772   9.419   2.793  10.534 -0.7945  0.4508  0.3060
36470SOL    HW213773   9.545   2.854  10.591 -0.5267 -0.2899  0.5181
36471SOL     OW13774   6.299   8.496   8.747  0.0164 -0.1284 -0.0187
36471SOL    HW113775   6.349   8.422   8.711 -0.9903 -0.5461 -0.5776
36471SOL    HW213776   6.245   8.458   8.816 -1.3741 -0.1500 -1.0823
36472SOL     OW13777   2.388   7.335   6.339  0.4271  0.5210 -0.0288
36472SOL    HW113778   2.447   7.295   6.275  0.0187 -0.5605  0.2531
36472SOL    HW213779   2.422   7.424   6.350 -0.3144  1.2596 -2.8130
36473SOL     OW13780   0.982   9.919   7.933  0.1745  0.0806  0.0834
36473SOL    HW113781   0.984   9.850   7.867  3.4950  3.7203 -4.1977
36473SOL    HW213782   0.911   9.977   7.905 -1.0923 -0.2960  2.2969
36474SOL     OW13783   2.566   2.686   7.285 -0.1473 -0.0556 -0.2239
36474SOL    HW113784   2.535   2.634   7.359 -2.3103 -0.7137 -1.5038
36474SOL    HW213785   2.495   2.748   7.267  1.1165  1.3244 -0.6153
36475SOL     OW13786   6.795   3.163   5.086  0.1672 -0.2981 -0.3751
36475SOL    HW113787   6.885   3.195   5.096  0.3581 -0.7339 -0.6649
36475SOL    HW213788   6.740   3.241   5.097  0.5878 -0.0017 -0.3570
36476SOL     OW13789   9.092   8.735   4.267 -0.1715  0.3929  0.4663
36476SOL    HW113790   9.058   8.802   4.327 -1.4009  0.5686 -0.3898
36476SOL    HW213791   9.180   8.718   4.298 -0.4380  1.1897  1.7333
36477SOL     OW13792   5.806   8.378  10.513  0.5965 -0.0561 -0.1271
36477SOL    HW113793   5.755   8.343  10.440  2.8122 -1.6701 -0.9787
36477SOL    HW213794   5.767   8.336  10.590 -1.4279  1.2663 -0.3482
36478SOL     OW13795   9.685   1.715   6.328 -0.0412  0.0782 -0.2199
36478SOL    HW113796   9.653   1.675   6.408 -3.2850  0.3186 -1.2565
36478SOL    HW213797   9.731   1.645   6.282  0.2448 -0.5440  0.9945
36479SOL     OW13798   2.574   7.907   5.013  0.2844  0.5551  0.0924
36479SOL    HW113799   2.486   7.877   5.034  0.5893 -0.9924 -0.6906
36479SOL    HW213800   2.627   7.828   5.009  1.4326  1.3200 -0.7588
36480SOL     OW13801  10.418   3.965   6.414  0.9903  0.0113  0.2579
36480SOL    HW113802  10.397   3.980   6.322  1.5332 -1.6369 -0.1579
36480SOL    HW213803  10.366   3.888   6.438  1.9563 -0.4482  0.9162
36481SOL     OW13804   9.689   4.969   7.180  0.0780 -0.2485  0.0494
36481SOL    HW113805   9.680   5.009   7.093  0.0591 -1.3107 -0.4592
36481SOL    HW213806   9.727   5.038   7.234  1.2082  0.0847 -1.0976
36482SOL     OW13807   5.971   7.634   8.434 -0.0741  0.0228  0.2041
36482SOL    HW113808   5.996   7.558   8.382  1.5420  0.6256  0.0608
36482SOL    HW213809   6.051   7.661   8.478 -0.3597  2.2626 -0.5461
36483SOL     OW13810   1.640   2.199   1.929 -0.1448  0.0010 -0.4567
36483SOL    HW113811   1.588   2.265   1.882  0.1032 -0.0786 -0.8446
36483SOL    HW213812   1.635   2.121   1.874 -2.0071 -0.9192  0.9176
36484SOL     OW13813   7.348   6.905   8.700  0.4940 -0.6416  0.4188
36484SOL    HW113814   7.403   6.982   8.685  0.0890 -0.3041  0.6467
36484SOL    HW213815   7.332   6.869   8.613 -0.0745  0.0651  0.2190
36485SOL     OW13816   8.055   2.202   2.532  0.0276  0.2217 -0.6657
36485SOL    HW113817   8.141   2.200   2.574 -0.3435 -0.9781  0.0776
36485SOL    HW213818   7.997   2.237   2.599 -0.0984  0.9030 -1.1234
36486SOL     OW13819   2.903   7.269   7.295 -0.4787  1.1098  0.4193
36486SOL    HW113820   2.816   7.307   7.283 -0.9427 -0.0902 -0.2177
36486SOL    HW213821   2.963   7.335   7.261 -1.3168  0.8355 -1.7545
36487SOL     OW13822   7.447   3.874   5.083 -0.1768  0.4240  0.0230
36487SOL    HW113823   7.532   3.913   5.100  0.1843 -1.0421  1.7829
36487SOL    HW213824   7.385   3.947   5.092  0.7341  1.1945  0.1956
36488SOL     OW13825   2.771  10.393   6.866  0.3363 -0.2053  0.0724
36488SOL    HW113826   2.822  10.456   6.916  1.1915  0.0153 -1.0456
36488SOL    HW213827   2.817  10.386   6.782 -0.8447 -0.8500 -0.5416
36489SOL     OW13828   4.907   2.984   1.814  0.3134  0.1653 -0.5211
36489SOL    HW113829   4.884   2.981   1.907  0.7249  0.0903 -0.4197
36489SOL    HW213830   4.823   2.990   1.769 -0.1675 -2.8872 -0.2894
36490SOL     OW13831   3.811   4.684   1.900 -0.0822  0.0365 -0.1617
36490SOL    HW113832   3.779   4.626   1.831 -0.4342  0.4119 -0.3165
36490SOL    HW213833   3.766   4.654   1.979  2.1653 -2.0299  0.4624
36491SOL     OW13834   4.862   8.469   3.307 -0.0281 -0.2955 -0.5132
36491SOL    HW113835   4.946   8.477   3.262  1.5062 -2.1459  1.7229
36491SOL    HW213836   4.802   8.435   3.241  1.3464 -0.2198 -1.8560
36492SOL     OW13837   6.673   4.892   7.187  0.1746  0.0175  0.2401
36492SOL    HW113838   6.598   4.941   7.153  1.0916  0.7672 -0.7839
36492SOL    HW213839   6.685   4.926   7.276 -0.2450  0.4334  0.1401
36493SOL     OW13840   0.992   9.141   7.080  0.8110  0.0170 -0.6191
36493SOL    HW113841   1.034   9.182   7.005 -0.3283  0.1135 -1.2180
36493SOL    HW213842   0.913   9.192   7.094  0.0713 -1.1269 -0.5099
36494SOL     OW13843   3.167   2.040   6.008 -0.3317  0.2826 -0.2307
36494SOL    HW113844   3.183   1.946   6.021  0.9474  0.4492 -0.4671
36494SOL    HW213845   3.144   2.047   5.915  1.8275  0.4340 -0.8164
36495SOL     OW13846   1.160   4.200   1.167 -0.0103  0.3175 -0.9584
36495SOL    HW113847   1.161   4.181   1.073  0.7212 -0.6297 -0.7693
36495SOL    HW213848   1.211   4.130   1.207  0.2738  1.0878  0.0865
36496SOL     OW13849   7.475   7.185   7.431 -0.6944  0.0594 -0.0741
36496SOL    HW113850   7.491   7.279   7.428 -1.4218  0.2027  0.2350
36496SOL    HW213851   7.525   7.150   7.358  0.4381  0.5463  0.4445
36497SOL     OW13852   1.274   1.851   8.552  0.0143 -0.4357 -0.3655
36497SOL    HW113853   1.335   1.843   8.479  0.9132  0.5419  0.2358
36497SOL    HW213854   1.262   1.762   8.585  0.8024 -0.6910 -0.7561
36498SOL     OW13855   4.906   4.858   2.509 -0.4141  0.7209  0.2532
36498SOL    HW113856   4.901   4.775   2.555  2.4077 -0.3951 -1.2021
36498SOL    HW213857   4.876   4.923   2.573 -2.2652 -1.2935  1.5742
36499SOL     OW13858   0.758   1.232   0.275 -0.2096  0.2961  0.2785
36499SOL    HW113859   0.732   1.154   0.325  3.0923 -1.3384 -0.2784
36499SOL    HW213860   0.728   1.214   0.186 -1.1879  0.6251  0.5264
36500SOL     OW13861   5.753   8.179   6.468  0.7162 -0.2718  0.6045
36500SOL    HW113862   5.768   8.093   6.508 -0.7689 -0.5810  0.5539
36500SOL    HW213863   5.834   8.228   6.485  1.3722 -1.4896  1.1112
36501SOL     OW13864   2.423   3.885   6.099 -0.5425  0.2812 -0.1470
36501SOL    HW113865   2.382   3.842   6.025 -1.9392 -0.9064  1.2376
36501SOL    HW213866   2.484   3.821   6.135  0.9066  1.2192 -0.8304
36502SOL     OW13867   4.883   1.721   6.634  0.3803 -0.1369 -0.3407
36502SOL    HW113868   4.845   1.759   6.554  0.8537  1.3267  0.0846
36502SOL    HW213869   4.906   1.631   6.610  1.7760  0.6638 -2.3185
36503SOL     OW13870   4.117   8.532   4.823  0.0746 -0.6545 -0.2994
36503SOL    HW113871   4.106   8.539   4.917 -0.1731  0.6135 -0.4143
36503SOL    HW213872   4.043   8.580   4.786  0.2822 -0.9650 -1.1440
36504SOL     OW13873   7.790   9.238   7.089  0.0014  0.2100  0.2724
36504SOL    HW113874   7.729   9.169   7.114  2.3416 -0.8865  3.5976
36504SOL    HW213875   7.751   9.318   7.123 -0.2322 -0.2843  1.1925
36505SOL     OW13876   7.485   6.003   0.108  0.4054  0.1162  0.2604
36505SOL    HW113877   7.544   5.929   0.099  2.4670  1.6041  0.9506
36505SOL    HW213878   7.480   6.040   0.020  0.3620 -0.0993  0.1713
36506SOL     OW13879   6.410   1.746   4.175  0.0647 -0.0485 -0.2405
36506SOL    HW113880   6.431   1.739   4.082  1.9892 -1.9574  0.2680
36506SOL    HW213881   6.321   1.710   4.182 -0.2003  0.3407 -1.3337
36507SOL     OW13882   2.310   5.991   3.352  0.2915 -0.1151 -1.1743
36507SOL    HW113883   2.301   6.032   3.266  2.1557 -0.4102 -1.5601
36507SOL    HW213884   2.375   6.045   3.397 -0.6068 -0.0105  0.0486
36508SOL     OW13885   9.894   8.622  10.451  0.6372 -0.0496  0.5122
36508SOL    HW113886   9.855   8.655  10.532  0.5655 -1.7279  1.2098
36508SOL    HW213887   9.970   8.678  10.436  0.6841  0.2461  1.7740
36509SOL     OW13888   3.862   3.547   3.608  0.1890 -0.6439  0.4183
36509SOL    HW113889   3.858   3.482   3.538 -1.3677 -0.9061  0.7211
36509SOL    HW213890   3.949   3.536   3.646  1.6011  0.3700 -2.2706
36510SOL     OW13891   7.178   6.224   8.423  0.4043  0.2062 -0.2740
36510SOL    HW113892   7.133   6.188   8.346 -0.0335  0.0615  0.0419
36510SOL    HW213893   7.271   6.213   8.404  0.2982  0.0898 -0.7433
36511SOL     OW13894   6.530   6.487   4.565 -0.2053  0.1936  0.2740
36511SOL    HW113895   6.437   6.466   4.571  0.0764 -2.0577 -1.8532
36511SOL    HW213896   6.540   6.567   4.618 -3.5855  1.3942 -0.6705
36512SOL     OW13897   7.345   3.535   4.503 -0.1269  0.0131  0.5563
36512SOL    HW113898   7.423   3.513   4.451  0.3726 -0.6383  1.5491
36512SOL    HW213899   7.371   3.610   4.555 -0.6546  0.7150 -0.1677
36513SOL     OW13900   1.673   9.519   3.337  0.1406 -0.3736 -0.3690
36513SOL    HW113901   1.593   9.478   3.371  0.0380 -1.5141 -1.8707
36513SOL    HW213902   1.731   9.446   3.316  1.0469  0.3785 -0.5733
36514SOL     OW13903   0.126   3.114   9.747  0.3240  0.7769  0.5120
36514SOL    HW113904   0.107   3.085   9.658  0.8416  2.7362 -0.3056
36514SOL    HW213905   0.209   3.073   9.769 -0.6330 -1.0998  0.8104
36515SOL     OW13906   8.543   7.403   0.891 -0.4182 -0.1055 -0.3316
36515SOL    HW113907   8.491   7.336   0.846  0.7685 -1.3045  0.0335
36515SOL    HW213908   8.533   7.481   0.837 -1.9347 -0.5175 -0.7076
36516SOL     OW13909   7.273   3.164   2.049  0.5525  0.0914 -0.4704
36516SOL    HW113910   7.263   3.083   2.000  2.2402 -0.8181  0.5889
36516SOL    HW213911   7.227   3.148   2.132  2.4066 -0.5137  0.4836
36517SOL     OW13912   9.615  11.080   1.807 -0.5051  0.6777  0.4321
36517SOL    HW113913   9.539  11.100   1.752 -0.3476  1.0682  0.3568
36517SOL    HW213914   9.663  11.162   1.812  1.2081 -0.1256 -1.5541
36518SOL     OW13915   1.096   6.146   6.733  0.1561  0.4987 -0.0882
36518SOL    HW113916   1.157   6.097   6.679  0.4760  0.8064 -0.0080
36518SOL    HW213917   1.149   6.215   6.773 -0.2459  0.7806 -0.0369
36519SOL     OW13918  10.889   5.647   9.319  0.4953  0.6941  0.0737
36519SOL    HW113919  10.968   5.624   9.368 -0.4274 -2.7630  0.1769
36519SOL    HW213920  10.920   5.664   9.230  1.3689 -1.1138 -0.0121
36520SOL     OW13921   9.393   7.289   4.197 -0.2818 -0.0021 -0.0785
36520SOL    HW113922   9.427   7.202   4.176 -0.8676  0.0239 -1.2184
36520SOL    HW213923   9.337   7.276   4.273 -1.4586 -0.9038 -1.0487
36521SOL     OW13924   0.431   0.912   7.512 -0.2950  0.7044 -0.6199
36521SOL    HW113925   0.386   0.974   7.455 -1.1130 -0.0623 -0.8284
36521SOL    HW213926   0.382   0.830   7.503  0.4304  0.1707  0.0703
36522SOL     OW13927   1.991   2.619  10.308 -0.1495 -0.4549  0.0822
36522SOL    HW113928   2.016   2.604  10.216 -0.8423 -0.2453 -0.1468
36522SOL    HW213929   2.046   2.557  10.357  1.1813  0.3380 -0.3403
36523SOL     OW13930   7.060   4.377   0.641 -0.4095 -0.2328 -0.2514
36523SOL    HW113931   6.966   4.358   0.636 -0.4678  0.3184 -1.5524
36523SOL    HW213932   7.077   4.388   0.735 -1.3360 -1.7743  0.1222
36524SOL     OW13933   7.750   1.626   9.550  0.3183 -0.0214  0.5416
36524SOL    HW113934   7.699   1.703   9.525  0.7221  1.3777  3.5802
36524SOL    HW213935   7.686   1.556   9.558 -0.4676  0.6506  0.2402
36525SOL     OW13936   9.678   6.424  11.078 -0.3171  0.1785 -0.0917
36525SOL    HW113937   9.660   6.361  11.008  1.8791  0.3568 -0.8903
36525SOL    HW213938   9.738   6.487  11.039  0.9284  0.3258  1.9141
36526SOL     OW13939   4.972   1.653   6.993 -0.5263 -0.0492 -0.1918
36526SOL    HW113940   5.034   1.688   6.930 -0.6720 -0.4869 -0.5780
36526SOL    HW213941   4.986   1.559   6.992 -0.4019 -0.0474  0.5666
36527SOL     OW13942   8.131   4.510  10.427  0.2292 -0.2634  0.5987
36527SOL    HW113943   8.160   4.477  10.342 -1.1561 -0.5858  0.2332
36527SOL    HW213944   8.202   4.568  10.455  0.6091  0.0279 -0.8742
36528SOL     OW13945   2.469   0.077   2.174 -0.4429 -0.2120 -0.4516
36528SOL    HW113946   2.530   0.058   2.246 -1.2715  1.4450  0.7446
36528SOL    HW213947   2.383   0.056   2.209 -0.7332 -1.1628 -1.6474
36529SOL     OW13948  10.767   4.412   4.900  0.4499  0.4336  0.1338
36529SOL    HW113949  10.718   4.489   4.869  1.9522  1.1744 -0.4758
36529SOL    HW213950  10.850   4.417   4.855  1.2910 -0.5358  1.5069
36530SOL     OW13951   6.853   6.060   7.635 -0.0512 -0.0449  0.3827
36530SOL    HW113952   6.908   6.027   7.706 -0.5764 -0.1416  0.7467
36530SOL    HW213953   6.795   5.987   7.614 -0.3596  0.2146  0.3237
36531SOL     OW13954   0.938  10.007  10.752  0.3006  0.4664 -0.0754
36531SOL    HW113955   0.865  10.007  10.813 -0.1363  0.7651 -0.5879
36531SOL    HW213956   0.901  10.041  10.670  1.5940  3.2911  0.3790
36532SOL     OW13957   4.507   4.419   2.961  0.1536 -0.1240 -0.2227
36532SOL    HW113958   4.541   4.418   2.871 -1.5924  0.8841 -0.9211
36532SOL    HW213959   4.420   4.380   2.955  0.1824 -0.4710  1.1423
36533SOL     OW13960   8.146   3.369   8.228 -0.0914  0.2137  0.4870
36533SOL    HW113961   8.167   3.365   8.135 -0.3060 -1.8883  0.4853
36533SOL    HW213962   8.231   3.360   8.272  0.0585  1.6160  0.5228
36534SOL     OW13963   6.732   8.229   7.812  0.1124 -0.0392  0.2421
36534SOL    HW113964   6.806   8.234   7.751  0.6024  1.1193  0.8871
36534SOL    HW213965   6.690   8.145   7.792  0.8097 -0.1147 -1.0330
36535SOL     OW13966   7.911   9.580   1.918 -0.2957  0.3163  0.1545
36535SOL    HW113967   7.871   9.503   1.878 -2.0115  1.2024  0.0963
36535SOL    HW213968   8.005   9.565   1.908 -0.6060 -1.1978 -0.9309
36536SOL     OW13969  10.940   5.346   5.718 -0.3978  0.1538 -0.2080
36536SOL    HW113970  10.963   5.414   5.781  1.5319 -0.3011 -0.3769
36536SOL    HW213971  10.957   5.263   5.764 -0.5756 -0.2011 -0.7703
36537SOL     OW13972  10.595   8.145   1.944 -0.4494  0.2049 -0.0668
36537SOL    HW113973  10.521   8.121   2.000 -0.5066 -2.0440 -0.9769
36537SOL    HW213974  10.559   8.206   1.880 -0.6829  1.7829  1.4883
36538SOL     OW13975   1.461  10.548   5.614  0.1127 -0.3003  0.2294
36538SOL    HW113976   1.428  10.617   5.672 -2.5069 -1.0649 -0.2568
36538SOL    HW213977   1.497  10.596   5.539  0.3457  0.5710  0.8716
36539SOL     OW13978   2.590   0.449   7.641  0.1444  0.4078 -0.1048
36539SOL    HW113979   2.626   0.403   7.716  0.7893 -0.0864 -0.7012
36539SOL    HW213980   2.665   0.496   7.604  0.0597 -0.1239 -0.9934
36540SOL     OW13981   2.680   4.517  11.006  0.3848 -0.1074 -0.2824
36540SOL    HW113982   2.682   4.476  11.092 -0.1592  0.0077 -0.2128
36540SOL    HW213983   2.690   4.445  10.944 -3.3172 -0.7687 -0.2797
36541SOL     OW13984  10.486   7.990   5.677 -0.2244 -0.3268  0.4223
36541SOL    HW113985  10.472   7.922   5.611  1.0144 -2.2647  2.0182
36541SOL    HW213986  10.423   7.969   5.746 -0.1679  0.4776  0.7245
36542SOL     OW13987   0.377   7.718   4.417 -0.2693 -0.3965 -0.0336
36542SOL    HW113988   0.352   7.794   4.470 -0.3780 -1.2206  1.1303
36542SOL    HW213989   0.303   7.658   4.425  0.6498 -1.4747  0.7554
36543SOL     OW13990   4.474   0.237   9.359 -0.1896 -0.0837 -0.1864
36543SOL    HW113991   4.465   0.293   9.282 -0.0001  0.3506  0.0971
36543SOL    HW213992   4.387   0.199   9.372 -0.4404  0.4922 -0.1333
36544SOL     OW13993   4.372  10.084   0.712 -0.2583  0.0197 -0.3125
36544SOL    HW113994   4.316  10.007   0.702 -0.1124 -0.0058 -1.0162
36544SOL    HW213995   4.454  10.059   0.668 -0.3293  0.6934 -0.8365
36545SOL     OW13996   1.773   9.944   7.717 -0.0641 -0.1484 -0.0702
36545SOL    HW113997   1.851   9.901   7.752 -0.6207 -1.1923 -0.0908
36545SOL    HW213998   1.751   9.894   7.639 -1.5036 -0.6596  0.6414
36546SOL     OW13999   8.641  10.930   9.100 -0.0680  0.8074  0.2453
36546SOL    HW114000   8.689  11.013   9.107  0.8023  0.1813  3.3469
36546SOL    HW214001   8.673  10.878   9.174 -2.5016 -1.3036 -0.0623
36547SOL     OW14002   7.329   6.407   4.793 -0.3362  0.6900 -0.0512
36547SOL    HW114003   7.247   6.375   4.757 -0.8073  1.1991  0.5536
36547SOL    HW214004   7.307   6.491   4.833  0.5788  1.0620 -0.3120
36548SOL     OW14005   1.691   8.292   8.743  0.2124 -0.2723  0.4392
36548SOL    HW114006   1.609   8.319   8.783  0.9220  0.9434  1.1608
36548SOL    HW214007   1.674   8.290   8.649 -0.4984  0.4900  0.5450
36549SOL     OW14008   1.449   7.956   2.893 -0.0246  0.5248  0.0881
36549SOL    HW114009   1.505   8.021   2.934 -1.0185 -0.0748  2.5580
36549SOL    HW214010   1.413   8.001   2.816  1.4017  1.9411  0.2062
36550SOL     OW14011   8.675   6.038   6.672  0.0416  0.6221 -0.8765
36550SOL    HW114012   8.653   6.068   6.760  2.5823  0.6921 -0.1887
36550SOL    HW214013   8.687   6.119   6.621  2.7719  0.7826 -0.1091
36551SOL     OW14014   9.413   8.891   2.406  0.1456  0.1652 -0.6661
36551SOL    HW114015   9.486   8.835   2.378  0.6558 -0.4099  1.5890
36551SOL    HW214016   9.448   8.979   2.405  1.3186 -0.2236  1.5285
36552SOL     OW14017   6.738   0.788   1.085  0.1609  0.2852 -0.0779
36552SOL    HW114018   6.744   0.874   1.045  2.1142 -0.2702 -1.1252
36552SOL    HW214019   6.829   0.765   1.106 -0.6108  0.0609  3.7662
36553SOL     OW14020   9.289  10.842   9.107 -0.6260  0.5648 -0.8392
36553SOL    HW114021   9.335  10.764   9.076  0.0966 -0.0635  1.6221
36553SOL    HW214022   9.301  10.907   9.037  1.7563 -0.4240 -1.4390
36554SOL     OW14023   0.818   2.822   1.854 -0.2936  0.1156 -0.3229
36554SOL    HW114024   0.771   2.848   1.933 -0.7439 -1.0250 -0.1940
36554SOL    HW214025   0.772   2.866   1.783 -0.6206  0.2142 -0.0545
36555SOL     OW14026   7.471   2.797   3.227  0.0868 -0.2079  0.0172
36555SOL    HW114027   7.524   2.721   3.201  0.4436  0.4671 -1.3381
36555SOL    HW214028   7.529   2.847   3.285  1.0368  0.5451 -1.4831
36556SOL     OW14029   0.561   4.777   2.614  0.8988 -0.2117 -0.5941
36556SOL    HW114030   0.624   4.718   2.654  3.1185  2.3442  0.0045
36556SOL    HW214031   0.520   4.725   2.545  2.0329 -2.6598  0.4590
36557SOL     OW14032   2.775   6.419   5.612 -0.4256  0.2977 -0.1804
36557SOL    HW114033   2.700   6.441   5.557  0.2661  0.8345 -0.9374
36557SOL    HW214034   2.765   6.472   5.691 -0.0008  1.5991 -0.9763
36558SOL     OW14035   6.780   3.936   8.263  0.5172 -0.1889 -0.1207
36558SOL    HW114036   6.830   4.003   8.217  0.1227  1.8193  2.1737
36558SOL    HW214037   6.690   3.949   8.234  0.5532 -0.2766 -0.2748
36559SOL     OW14038   8.977   2.222   0.745 -0.1986 -0.0363  0.5064
36559SOL    HW114039   8.957   2.170   0.823 -1.6154 -2.6693 -1.4676
36559SOL    HW214040   9.073   2.217   0.737  0.0409  0.8433  2.3783
36560SOL     OW14041   2.420   2.376   6.971  0.7088  0.1906 -0.4592
36560SOL    HW114042   2.419   2.284   6.944  0.6970 -0.0344  0.2766
36560SOL    HW214043   2.458   2.374   7.059 -1.1551  0.6578  0.3939
36561SOL     OW14044   5.030   7.581   4.149  0.2113  0.0872  0.0982
36561SOL    HW114045   5.007   7.633   4.073  0.5418  1.4176  0.8676
36561SOL    HW214046   4.990   7.626   4.223  2.1817  0.4383  1.0337
36562SOL     OW14047   6.690   5.507  10.984 -0.1472  0.3277  0.1903
36562SOL    HW114048   6.676   5.599  11.010  1.7226  0.8690 -0.5145
36562SOL    HW214049   6.634   5.495  10.908  1.8420  1.9315 -1.6676
36563SOL     OW14050   2.264   0.643   4.383  0.9439 -0.1098  0.1784
36563SOL    HW114051   2.205   0.659   4.457 -0.7621  0.0112 -1.1450
36563SOL    HW214052   2.239   0.557   4.350  1.5262 -0.0676 -0.3951
36564SOL     OW14053   8.355   9.450   2.805  0.4390 -0.1878 -0.6281
36564SOL    HW114054   8.285   9.446   2.870  0.9123 -0.8567 -0.1383
36564SOL    HW214055   8.379   9.358   2.790  0.4857 -0.0266 -1.5870
36565SOL     OW14056   4.462   7.150  10.257 -0.2424  0.6401  0.5963
36565SOL    HW114057   4.488   7.226  10.205  0.5689  0.1437  0.2709
36565SOL    HW214058   4.370   7.135  10.232  0.8032 -1.1930 -2.7494
36566SOL     OW14059   2.183   6.435   0.674 -0.2707  0.0152  0.8440
36566SOL    HW114060   2.182   6.516   0.725  0.6756  0.2697  0.4925
36566SOL    HW214061   2.267   6.438   0.627 -1.4564  0.2146 -1.3894
36567SOL     OW14062  10.647  10.816   4.683  0.2780 -0.3267 -0.4080
36567SOL    HW114063  10.594  10.747   4.643  0.2427 -1.3830  1.3919
36567SOL    HW214064  10.716  10.770   4.731  0.9779  0.9385 -0.1515
36568SOL     OW14065   4.586   6.318   4.759  0.2050  0.0653 -0.4382
36568SOL    HW114066   4.514   6.378   4.778 -1.6069 -1.1970 -2.7321
36568SOL    HW214067   4.664   6.373   4.756 -0.9121  1.7628  0.5145
36569SOL     OW14068   7.548   2.151   6.606  0.3719 -0.0042  0.0639
36569SOL    HW114069   7.533   2.060   6.579  0.6795 -0.0955  0.1863
36569SOL    HW214070   7.643   2.162   6.599  0.3994  0.1284  0.6007
36570SOL     OW14071   9.336   0.388   7.924  0.3008 -0.0032  0.2447
36570SOL    HW114072   9.274   0.332   7.878 -0.5382  0.4034  0.8477
36570SOL    HW214073   9.285   0.426   7.995  0.7584  1.7727 -0.3303
36571SOL     OW14074   2.070  11.035   6.742 -0.5348  0.0105  0.2898
36571SOL    HW114075   2.123  10.981   6.800  0.4908  0.3300 -0.3293
36571SOL    HW214076   1.992  10.982   6.725 -0.6664 -0.2551  1.6132
36572SOL     OW14077   9.490   3.590   6.847  0.1063 -0.2688  0.1374
36572SOL    HW114078   9.519   3.573   6.757  2.2223  1.8663  0.3015
36572SOL    HW214079   9.512   3.510   6.895  0.0328 -0.9935 -0.9971
36573SOL     OW14080   1.001   9.914   2.516 -0.2305 -0.2982  0.2799
36573SOL    HW114081   0.925   9.876   2.561  0.2081 -1.1000  0.3477
36573SOL    HW214082   1.031   9.846   2.457 -0.1666  0.3813 -0.4928
36574SOL     OW14083   4.903   7.132   1.037 -0.1565 -0.7234  0.4678
36574SOL    HW114084   4.911   7.043   1.070  1.2414 -1.0395 -0.5861
36574SOL    HW214085   4.902   7.187   1.115  2.4867 -1.4565  1.1307
36575SOL     OW14086   3.366   1.340   8.066  0.3298 -0.2560  0.1119
36575SOL    HW114087   3.377   1.247   8.046  0.7119 -0.3254  0.5948
36575SOL    HW214088   3.321   1.341   8.151 -4.2297  0.0373 -2.0539
36576SOL     OW14089  11.013   0.984   1.238  0.7698 -0.2407  0.1514
36576SOL    HW114090  10.949   0.949   1.300 -1.1224  2.2161 -0.2620
36576SOL    HW214091  10.975   0.967   1.152 -0.1317  2.3862 -0.0685
36577SOL     OW14092  11.069   9.964   6.313  0.4057  0.4662  0.0149
36577SOL    HW114093  11.073   9.869   6.304  0.7459  0.5195 -0.4950
36577SOL    HW214094  11.160   9.989   6.331  0.1009  0.5787  1.5494
36578SOL     OW14095   7.418   3.500   4.007  0.3870 -0.2619 -0.3587
36578SOL    HW114096   7.444   3.584   4.045 -0.5315 -0.3451  0.4798
36578SOL    HW214097   7.415   3.516   3.913  0.7846  0.4831 -0.2492
36579SOL     OW14098   9.153   2.939   1.371 -0.2866  0.5001 -0.5566
36579SOL    HW114099   9.146   2.849   1.339  0.7232  1.1483 -2.8150
36579SOL    HW214100   9.072   2.954   1.419 -0.6777 -1.4615 -0.5447
36580SOL     OW14101   0.844   6.500   6.839  0.1150 -0.3241  0.1025
36580SOL    HW114102   0.752   6.495   6.814 -0.3940 -0.9378  1.9467
36580SOL    HW214103   0.892   6.470   6.761 -1.1605  0.8027 -1.1689
36581SOL     OW14104   7.556   2.139   3.106 -0.0188 -0.0563 -0.0017
36581SOL    HW114105   7.467   2.102   3.108  0.4609 -1.2220  1.3208
36581SOL    HW214106   7.611   2.071   3.143  1.2595  1.1184  0.3451
36582SOL     OW14107   7.375   9.740   1.327 -0.2288 -0.1002 -0.5734
36582SOL    HW114108   7.388   9.765   1.418  2.1709 -0.4527 -0.7403
36582SOL    HW214109   7.305   9.797   1.296 -2.4220 -1.1966  1.9158
36583SOL     OW14110   2.602   0.490   5.266 -0.2660 -0.0164  0.2225
36583SOL    HW114111   2.512   0.522   5.261 -0.1699  0.0389 -1.9328
36583SOL    HW214112   2.624   0.465   5.176  1.9422  0.1343  0.6617
36584SOL     OW14113   6.863   9.748   8.613 -0.4239 -0.5162 -0.2515
36584SOL    HW114114   6.932   9.788   8.559 -0.1824 -0.3964  0.1418
36584SOL    HW214115   6.850   9.810   8.685 -0.9123 -0.5610 -0.2964
36585SOL     OW14116   7.770   4.316   5.547 -0.7127  0.4203 -0.0231
36585SOL    HW114117   7.827   4.392   5.550 -1.9687  1.3949  0.0063
36585SOL    HW214118   7.686   4.347   5.581 -1.4485 -0.8030 -0.6289
36586SOL     OW14119   6.864   2.863   8.528  0.1419 -0.1060 -0.8081
36586SOL    HW114120   6.947   2.848   8.483  0.0980 -0.9966 -0.6047
36586SOL    HW214121   6.834   2.776   8.554 -0.5717  0.2585 -0.3658
36587SOL     OW14122  11.108   2.855   8.541  0.3303 -0.9896 -0.3292
36587SOL    HW114123  11.042   2.793   8.571  0.6644 -0.8649  0.6978
36587SOL    HW214124  11.125   2.911   8.617  1.7494 -1.1324 -0.5161
36588SOL     OW14125   1.563   5.793   5.373 -0.6112 -0.2835  0.2833
36588SOL    HW114126   1.532   5.846   5.299  1.2119 -1.4226 -1.4075
36588SOL    HW214127   1.650   5.830   5.393 -0.3635 -1.0771  0.6901
36589SOL     OW14128   9.334   0.563   5.890 -0.1375 -0.5738 -0.0610
36589SOL    HW114129   9.332   0.508   5.812 -0.0900  0.9746 -1.2008
36589SOL    HW214130   9.273   0.634   5.872  2.3190  1.6768 -0.1924
36590SOL     OW14131   0.389   7.760   8.889  0.7470 -0.1851  0.0732
36590SOL    HW114132   0.314   7.792   8.940  0.0611 -2.1945  0.4221
36590SOL    HW214133   0.436   7.703   8.950  0.0631 -2.4253 -1.3659
36591SOL     OW14134   5.969  10.064   6.768 -0.6012  0.3187 -0.3131
36591SOL    HW114135   5.989   9.973   6.792  0.4182  0.3583 -0.9593
36591SOL    HW214136   6.054  10.106   6.759 -0.8843  0.4617 -3.3515
36592SOL     OW14137   6.502   2.741   7.470 -0.1724  0.0399 -0.8627
36592SOL    HW114138   6.512   2.789   7.387  0.1240  1.5024 -0.0165
36592SOL    HW214139   6.512   2.808   7.537  0.6801 -1.2956  0.3956
36593SOL     OW14140   0.295   0.130   1.142  0.5073  0.7265  0.0572
36593SOL    HW114141   0.322   0.115   1.051  0.8219 -1.7282  0.4945
36593SOL    HW214142   0.206   0.164   1.135  0.0871 -0.5304 -1.1855
36594SOL     OW14143   8.476   8.312   7.938  0.0602 -0.0591  0.4833
36594SOL    HW114144   8.436   8.395   7.964  1.6403  0.9715 -0.2700
36594SOL    HW214145   8.403   8.261   7.901 -0.6912  1.5377 -0.3397
36595SOL     OW14146   9.631   5.328   3.355 -0.3740 -0.2377 -0.1939
36595SOL    HW114147   9.562   5.289   3.408  1.5621  0.3517  3.0863
36595SOL    HW214148   9.671   5.393   3.412  2.9350 -0.6200 -1.8223
36596SOL     OW14149   7.554   8.933   3.331  0.3614 -0.6948 -0.5981
36596SOL    HW114150   7.617   8.976   3.274 -0.1163  0.2724 -0.4101
36596SOL    HW214151   7.567   8.839   3.315 -0.1533 -0.4477 -2.7224
36597SOL     OW14152   5.903   0.272   6.619  0.4300 -0.2351  0.1542
36597SOL    HW114153   5.976   0.220   6.654 -1.3832 -1.6518  2.1146
36597SOL    HW214154   5.885   0.337   6.688 -1.0440 -0.8555  0.3926
36598SOL     OW14155   4.116   4.060   8.197 -0.1325 -0.4079  0.1349
36598SOL    HW114156   4.159   4.090   8.117 -1.6449  0.0748 -0.5401
36598SOL    HW214157   4.166   3.984   8.225  1.4854  0.4602 -0.2745
36599SOL     OW14158   1.565   7.608   2.830 -0.3853  0.2962  0.4531
36599SOL    HW114159   1.475   7.641   2.832 -0.1063  1.0403  2.2734
36599SOL    HW214160   1.561   7.524   2.876 -0.4388 -0.5791 -1.0652
36600SOL     OW14161   4.544   0.716   3.459 -0.0856 -0.7648  0.0174
36600SOL    HW114162   4.511   0.753   3.377 -1.3340 -0.5018  0.6089
36600SOL    HW214163   4.632   0.753   3.468 -0.2992 -0.0374 -0.7350
36601SOL     OW14164   2.793   1.479   8.292  0.0468  0.0062  0.0494
36601SOL    HW114165   2.812   1.550   8.354  1.8877  0.3537 -0.8143
36601SOL    HW214166   2.862   1.415   8.309 -0.5363 -0.7423 -0.3976
36602SOL     OW14167   1.643   3.274   3.591 -0.5227 -0.4217  0.2028
36602SOL    HW114168   1.680   3.328   3.660 -0.7805  1.5392 -1.1056
36602SOL    HW214169   1.587   3.211   3.636  0.8211 -0.4724  1.8687
36603SOL     OW14170   6.454   2.169   1.121  0.2536  0.3467 -0.5186
36603SOL    HW114171   6.394   2.109   1.164 -1.5840  2.0373 -0.6108
36603SOL    HW214172   6.459   2.137   1.031  0.6252 -0.6145 -0.1693
36604SOL     OW14173   8.176  10.170   8.905 -0.1495  0.6160  0.5892
36604SOL    HW114174   8.114  10.110   8.944  1.3283 -1.6672 -0.3567
36604SOL    HW214175   8.137  10.195   8.821 -0.1664 -0.1885  0.3503
36605SOL     OW14176   9.500   1.526  10.841  0.3131  0.4000 -0.0735
36605SOL    HW114177   9.564   1.595  10.823 -0.4899  0.9820 -0.7681
36605SOL    HW214178   9.541   1.446  10.807  1.6790  0.3030  1.6178
36606SOL     OW14179  10.573   9.725   0.445 -0.0616  0.4950  0.2534
36606SOL    HW114180  10.533   9.755   0.364  0.5441  1.2355  0.2069
36606SOL    HW214181  10.621   9.801   0.477  0.5294 -0.0844  0.7821
36607SOL     OW14182   5.034   0.176   7.975  0.2270  0.3886 -0.0342
36607SOL    HW114183   4.983   0.229   8.036  2.0431  1.3538  0.7249
36607SOL    HW214184   5.069   0.105   8.028  0.8003  0.5273 -0.2187
36608SOL     OW14185   1.484   7.425   7.361  0.0548  0.5565 -0.0224
36608SOL    HW114186   1.556   7.470   7.316  1.4711 -2.4599 -1.0263
36608SOL    HW214187   1.519   7.405   7.448  1.4241 -2.6514 -1.1326
36609SOL     OW14188  10.522   6.520   0.688 -0.3516  0.4431 -0.0388
36609SOL    HW114189  10.581   6.477   0.625  0.6390 -0.4548  1.4352
36609SOL    HW214190  10.579   6.577   0.739 -1.4415  2.5631 -1.0743
36610SOL     OW14191   9.559   2.025   6.906  0.0558 -0.4602  0.4659
36610SOL    HW114192   9.637   2.043   6.854 -0.4372  2.2325  0.5435
36610SOL    HW214193   9.526   1.942   6.870  2.7311 -1.5584  0.2661
36611SOL     OW14194   1.441   4.811   6.534  0.2497 -0.5927  0.1209
36611SOL    HW114195   1.445   4.886   6.475  0.5436 -0.2145  0.6089
36611SOL    HW214196   1.370   4.756   6.499 -0.6501  0.4028  0.3230
36612SOL     OW14197   4.619   5.705   4.339  0.4642  0.2852  0.0440
36612SOL    HW114198   4.667   5.664   4.267 -0.8313  0.8634 -1.2033
36612SOL    HW214199   4.687   5.731   4.401  1.5595 -0.9674 -0.5586
36613SOL     OW14200   7.340   8.786   8.411  0.4254  0.0178  0.0738
36613SOL    HW114201   7.414   8.791   8.471 -0.1045 -0.1603  0.7555
36613SOL    HW214202   7.337   8.695   8.383  0.0597 -0.1282  0.5755
36614SOL     OW14203   4.307  10.183   7.923  0.8842  0.1385 -0.0063
36614SOL    HW114204   4.332  10.221   8.007 -1.5147  0.3749  0.6745
36614SOL    HW214205   4.304  10.089   7.938 -0.6270  0.2519  0.5331
36615SOL     OW14206   3.823   8.874   5.977 -0.4569  0.3753  0.5335
36615SOL    HW114207   3.744   8.854   6.026 -0.0233 -0.1722  1.0243
36615SOL    HW214208   3.843   8.793   5.929  0.4016  0.1439  1.2554
36616SOL     OW14209  10.089   6.398  10.728 -0.3003 -0.6888  0.0853
36616SOL    HW114210  10.139   6.376  10.650 -1.4019 -0.9093 -0.5773
36616SOL    HW214211  10.023   6.329  10.735 -0.4046 -0.5135  1.0486
36617SOL     OW14212   6.397   4.997   6.394  0.4770 -0.1474  0.2525
36617SOL    HW114213   6.386   4.973   6.302  0.4727  0.2260  0.1536
36617SOL    HW214214   6.431   4.918   6.436  1.0368 -0.1465 -0.1825
36618SOL     OW14215  10.566   0.118   4.645 -0.0183 -0.4388  0.5175
36618SOL    HW114216  10.478   0.118   4.606  0.5563 -0.1099 -0.8386
36618SOL    HW214217  10.592   0.210   4.646  1.1009 -0.6832 -1.0407
36619SOL     OW14218   5.500  10.758   7.909 -0.4088  0.0338  0.0467
36619SOL    HW114219   5.503  10.690   7.977  0.4561  0.2812  0.2766
36619SOL    HW214220   5.409  10.786   7.907 -0.4900 -0.1209  0.9739
36620SOL     OW14221   9.227   5.725   6.370  0.4621 -0.0930 -0.4613
36620SOL    HW114222   9.209   5.819   6.365  1.1782  0.0037 -1.8442
36620SOL    HW214223   9.187   5.697   6.452 -3.1679  0.6785 -1.7777
36621SOL     OW14224   4.098   2.082   4.503  0.0349  0.4839  0.3512
36621SOL    HW114225   4.087   1.996   4.543  0.6508  1.3750  2.6502
36621SOL    HW214226   4.144   2.066   4.421 -3.8343 -1.7530 -1.6156
36622SOL     OW14227  10.079  10.538   8.930  0.2169 -0.2976 -0.2524
36622SOL    HW114228  10.051  10.459   8.975 -0.2543 -0.6406 -1.1354
36622SOL    HW214229  10.068  10.519   8.837 -0.3876  0.9741 -0.4729
36623SOL     OW14230  10.119   0.875   3.601  0.0808  0.6979  0.0310
36623SOL    HW114231  10.122   0.966   3.571  2.0805  1.1863  1.5143
36623SOL    HW214232  10.143   0.825   3.523 -1.6363  1.3351 -0.9714
36624SOL     OW14233   0.278   7.024   3.350  0.0663 -0.6670 -0.0759
36624SOL    HW114234   0.280   7.049   3.442  0.8284  0.3612 -0.3483
36624SOL    HW214235   0.368   7.002   3.328 -0.1870 -1.3574 -0.4639
36625SOL     OW14236   3.900   4.878   9.460  0.2013 -0.2829  0.2989
36625SOL    HW114237   3.910   4.884   9.555  1.6246  0.3522  0.1311
36625SOL    HW214238   3.917   4.786   9.440 -1.7471 -0.7987  0.8009
36626SOL     OW14239   7.703   1.889   5.073  0.0783 -0.2802 -0.2295
36626SOL    HW114240   7.768   1.894   5.143  0.0353  0.6329 -0.2337
36626SOL    HW214241   7.628   1.938   5.107 -0.7030 -1.5071 -0.1384
36627SOL     OW14242   8.727   2.614   7.829  0.1521 -0.5908  0.2253
36627SOL    HW114243   8.780   2.635   7.906 -1.7884  1.6707  1.0718
36627SOL    HW214244   8.754   2.677   7.763 -1.8726  1.1479  0.9320
36628SOL     OW14245   5.828   9.789   9.819 -0.3548  0.0244  0.3297
36628SOL    HW114246   5.813   9.827   9.732  1.2731 -1.8124 -0.8277
36628SOL    HW214247   5.922   9.773   9.822 -0.5440 -0.9140  2.0396
36629SOL     OW14248   3.390   7.574   4.330 -0.1318 -0.1838  0.3919
36629SOL    HW114249   3.454   7.535   4.389  1.0794  1.1103 -0.0375
36629SOL    HW214250   3.325   7.504   4.317  1.7488 -1.9553 -0.0616
36630SOL     OW14251   5.172   3.025   4.266  0.0315 -0.0940  0.7072
36630SOL    HW114252   5.079   3.047   4.263 -0.1602 -0.8473  0.7517
36630SOL    HW214253   5.183   2.958   4.198  0.1648 -1.2972  1.8627
36631SOL     OW14254   0.467   9.807   9.759 -0.2114  0.5978  0.1484
36631SOL    HW114255   0.541   9.838   9.707 -0.0209  0.9518  0.6361
36631SOL    HW214256   0.480   9.712   9.763 -0.4114  0.5195 -0.7338
36632SOL     OW14257   5.137   0.991   4.449  0.7094 -0.1420 -0.5145
36632SOL    HW114258   5.100   1.079   4.458 -0.5743 -0.4305 -2.4362
36632SOL    HW214259   5.167   0.968   4.538 -2.5068  0.6589  0.9308
36633SOL     OW14260   8.335   7.086   8.806 -0.5711  0.0587  0.1510
36633SOL    HW114261   8.262   7.026   8.790  0.4772 -0.8375 -1.4557
36633SOL    HW214262   8.303   7.170   8.774 -1.9024  0.3766  2.0585
36634SOL     OW14263   1.317   6.116   1.878  0.3780 -0.1059  1.0501
36634SOL    HW114264   1.229   6.097   1.911  0.5022 -0.0983  1.3953
36634SOL    HW214265   1.370   6.122   1.957  0.5628  0.5470  0.8818
36635SOL     OW14266   3.057   6.052   1.891  0.6546  0.1524  0.3234
36635SOL    HW114267   2.998   6.026   1.820  0.9698  1.0062 -0.2630
36635SOL    HW214268   3.012   6.023   1.971  1.5026 -3.2534 -0.2578
36636SOL     OW14269   4.061   6.203   4.389 -0.6009 -0.5625 -0.3060
36636SOL    HW114270   4.115   6.204   4.468  1.8957 -3.5891 -1.7066
36636SOL    HW214271   4.099   6.270   4.333  0.0679 -0.9306 -0.3048
36637SOL     OW14272  10.925   5.247   1.796 -0.3396 -0.3179 -0.5969
36637SOL    HW114273  10.873   5.215   1.869 -1.1400  0.4479 -0.8184
36637SOL    HW214274  10.888   5.333   1.775  3.3763  2.1606  1.7275
36638SOL     OW14275   6.106   2.628   3.870  0.0531  0.4991 -0.4407
36638SOL    HW114276   6.030   2.664   3.915 -1.0241 -2.3545  0.2294
36638SOL    HW214277   6.170   2.612   3.940 -0.1467 -0.3960 -0.4452
36639SOL     OW14278   1.939   7.484   5.223  0.2561 -0.0931 -0.2588
36639SOL    HW114279   1.854   7.526   5.235  0.2808  0.1323 -0.8296
36639SOL    HW214280   1.940   7.412   5.286 -0.0294  0.3979  0.3096
36640SOL     OW14281   3.394   0.518   1.811  0.3105  0.3036 -0.1803
36640SOL    HW114282   3.396   0.454   1.739  1.7787  0.3990 -0.2462
36640SOL    HW214283   3.454   0.482   1.876 -0.2047  0.7528  0.5464
36641SOL     OW14284   0.488   7.748   8.135 -0.1365 -0.3353 -0.0732
36641SOL    HW114285   0.563   7.736   8.194 -0.8044 -2.4726  0.4393
36641SOL    HW214286   0.422   7.688   8.169 -1.1873 -0.3164 -1.9873
36642SOL     OW14287   9.359   0.913   4.350  0.4078 -0.6433 -0.2582
36642SOL    HW114288   9.309   0.957   4.418  0.4832 -0.6012 -0.2297
36642SOL    HW214289   9.443   0.891   4.392  0.8013  0.1662 -0.5931
36643SOL     OW14290   6.878   7.050   8.073  0.2424  0.8666  0.2218
36643SOL    HW114291   6.793   7.084   8.102  0.5271  0.5247  1.5166
36643SOL    HW214292   6.941   7.090   8.133  1.0701  1.5440 -1.0659
36644SOL     OW14293  11.027   7.689   1.853  0.4042 -0.2431 -0.6695
36644SOL    HW114294  10.940   7.650   1.862 -0.3813  1.3888 -0.8785
36644SOL    HW214295  11.059   7.654   1.769  0.5736 -1.9456  0.0581
36645SOL     OW14296   8.101   4.143   0.526  0.0051  0.5379 -0.1026
36645SOL    HW114297   8.062   4.055   0.524  1.4974 -0.1477 -0.5596
36645SOL    HW214298   8.142   4.148   0.612  0.6654  0.4468 -0.4124
36646SOL     OW14299   7.855   7.318   5.576  0.8804 -0.0763 -0.2810
36646SOL    HW114300   7.907   7.368   5.638  0.1938  0.3599 -0.0372
36646SOL    HW214301   7.882   7.227   5.589 -0.5810 -0.2659  2.0687
36647SOL     OW14302   6.495   8.349   9.767  0.7670  0.0202 -0.1832
36647SOL    HW114303   6.462   8.426   9.814  0.3861 -0.3631  0.1881
36647SOL    HW214304   6.544   8.385   9.693  0.4452  0.6178 -0.1138
36648SOL     OW14305   4.750   1.464   4.000 -0.3859  0.3176 -0.0888
36648SOL    HW114306   4.810   1.408   3.950  1.8989 -0.6102  3.3682
36648SOL    HW214307   4.786   1.552   3.991  1.0975 -0.1051  1.2199
36649SOL     OW14308   7.144   8.499   6.284 -0.2869  0.6791 -0.0471
36649SOL    HW114309   7.223   8.479   6.335 -0.6129  1.4843  0.7883
36649SOL    HW214310   7.131   8.593   6.295 -0.7012  0.7608 -1.1501
36650SOL     OW14311   9.567   7.026   8.052 -0.2011  0.1485  0.4267
36650SOL    HW114312   9.513   7.103   8.068  0.4351  0.0535  3.5285
36650SOL    HW214313   9.651   7.062   8.022 -0.7503  0.4570 -0.8270
36651SOL     OW14314   6.785   0.974  10.770  1.0098  0.0954  0.3751
36651SOL    HW114315   6.799   0.909  10.701 -0.1223 -0.5611  0.7329
36651SOL    HW214316   6.754   1.052  10.724 -1.1751 -0.7973  0.2070
36652SOL     OW14317   6.329   1.752   9.168  0.1512  0.7300 -0.0446
36652SOL    HW114318   6.374   1.723   9.248 -1.5567  1.1058  1.1123
36652SOL    HW214319   6.279   1.675   9.140 -2.1831  1.5916  1.4382
36653SOL     OW14320   6.629   3.772   1.685  0.4445 -0.1235  0.0515
36653SOL    HW114321   6.581   3.705   1.637  0.0835  0.2444 -0.1118
36653SOL    HW214322   6.719   3.739   1.690 -0.0970 -1.4423  1.5462
36654SOL     OW14323   7.507   1.236   8.844 -0.1875 -0.0694 -0.1514
36654SOL    HW114324   7.491   1.245   8.750  1.3234 -1.2603 -0.5815
36654SOL    HW214325   7.506   1.325   8.878  0.5282  0.4945 -1.5393
36655SOL     OW14326   3.801   5.910   3.792 -0.0507  0.3595 -0.0394
36655SOL    HW114327   3.891   5.922   3.820 -0.2430  0.5252  0.5299
36655SOL    HW214328   3.775   5.826   3.829 -0.7396  1.1894  1.5252
36656SOL     OW14329  11.075   3.690   1.491 -0.4064  0.5598  0.0977
36656SOL    HW114330  11.127   3.669   1.413 -0.9439  0.6976 -0.2988
36656SOL    HW214331  11.115   3.769   1.526  0.1091  0.2560  0.2156
36657SOL     OW14332  10.767   2.266   2.438  0.1655 -0.1585 -0.5284
36657SOL    HW114333  10.811   2.183   2.457 -1.8988 -1.3517 -0.6403
36657SOL    HW214334  10.778   2.318   2.518 -0.0286 -1.2506  0.2271
36658SOL     OW14335   9.916  10.225   2.465 -0.0304  0.8474  0.1546
36658SOL    HW114336  10.008  10.200   2.459 -0.3482 -0.6136  0.9860
36658SOL    HW214337   9.894  10.255   2.376  0.7145 -0.7351 -0.6064
36659SOL     OW14338   6.451   1.976   2.585  0.5102 -0.0403  0.1019
36659SOL    HW114339   6.535   2.015   2.608  1.0539 -0.9823 -0.2130
36659SOL    HW214340   6.470   1.882   2.578 -1.0629 -0.5837  2.3281
36660SOL     OW14341   2.755  10.256   0.525  0.1892  0.1659  0.3112
36660SOL    HW114342   2.702  10.334   0.541  0.8219  0.3730  1.4929
36660SOL    HW214343   2.808  10.279   0.448  1.2800  1.4185  1.3867
36661SOL     OW14344   9.584   8.986   0.957 -0.0278  0.0773  0.1473
36661SOL    HW114345   9.582   9.015   0.865  1.4560 -0.3035 -0.0338
36661SOL    HW214346   9.510   8.926   0.964 -0.6118  0.6852 -0.5991
36662SOL     OW14347   3.793   9.596  10.040 -1.3958 -0.2539 -0.4273
36662SOL    HW114348   3.866   9.592   9.979 -2.0173 -1.2693 -1.1489
36662SOL    HW214349   3.759   9.507  10.042 -2.5261  0.1677 -0.0093
36663SOL     OW14350   4.889  10.642   7.960  0.2746  0.2447 -0.5420
36663SOL    HW114351   4.905  10.663   7.868 -1.9390 -0.5985 -1.2016
36663SOL    HW214352   4.932  10.711   8.009  2.7912 -0.0782 -2.1173
36664SOL     OW14353   4.053   0.164   4.316  0.1486 -0.4787  0.1861
36664SOL    HW114354   4.149   0.166   4.315  0.1310  0.6606 -0.0181
36664SOL    HW214355   4.028   0.168   4.224 -0.0949 -1.4861  0.2008
36665SOL     OW14356   9.947   2.342   6.436  0.1046  0.8380  0.1527
36665SOL    HW114357   9.874   2.282   6.422  0.4751  0.5848 -0.7397
36665SOL    HW214358   9.935   2.410   6.369  0.6190  0.8583  0.0772
36666SOL     OW14359   2.764   4.848   8.664  0.5302  0.1788  0.1933
36666SOL    HW114360   2.747   4.768   8.713  1.2029  0.4356  0.8709
36666SOL    HW214361   2.795   4.818   8.578  2.0989 -0.3251  0.8969
36667SOL     OW14362   0.948   6.183   3.552 -0.2542 -0.3410  0.6123
36667SOL    HW114363   0.953   6.090   3.527 -0.0231  0.4669 -2.9527
36667SOL    HW214364   0.957   6.183   3.647 -1.6234 -4.0458  0.8972
36668SOL     OW14365   9.480   8.875   8.206 -0.1269  0.3247 -0.0772
36668SOL    HW114366   9.424   8.818   8.152  0.2096  0.2236 -0.3218
36668SOL    HW214367   9.478   8.836   8.293  1.7929 -1.3114 -0.7000
36669SOL     OW14368   6.994  10.086   7.564 -0.3114 -0.3135 -0.3946
36669SOL    HW114369   7.046  10.166   7.576 -1.8415  0.5691  0.7551
36669SOL    HW214370   7.057  10.022   7.532  1.1627  1.1026 -0.5181
36670SOL     OW14371   6.383   2.230   9.009  0.0602 -0.7085 -0.2797
36670SOL    HW114372   6.377   2.301   9.073 -2.4461 -0.4906 -0.6876
36670SOL    HW214373   6.331   2.159   9.046  0.2616 -1.3299 -1.1489
36671SOL     OW14374   0.090   2.614   2.865 -0.3728 -0.4397 -0.7157
36671SOL    HW114375   0.186   2.614   2.869 -0.3993 -0.3394  1.3791
36671SOL    HW214376   0.070   2.595   2.774  1.6491 -2.3116 -0.8754
36672SOL     OW14377   7.674   9.297  10.485 -0.1898  0.8126 -0.1306
36672SOL    HW114378   7.684   9.202  10.474 -0.0754  0.8114 -0.0163
36672SOL    HW214379   7.592   9.317  10.440  0.0023  0.7281 -0.5145
36673SOL     OW14380   2.824   9.373   0.859  0.0696  0.1360  0.1213
36673SOL    HW114381   2.729   9.363   0.856  0.1459 -0.4252 -2.9159
36673SOL    HW214382   2.839   9.465   0.838  0.2306  0.7310  2.4960
36674SOL     OW14383   8.923   3.966   3.356  0.2230 -0.1422 -0.2395
36674SOL    HW114384   8.948   3.887   3.308 -1.5642 -0.3986 -0.8350
36674SOL    HW214385   9.000   4.023   3.351  0.7994 -1.0028 -1.6344
36675SOL     OW14386   1.197   4.808   2.784 -0.6508 -0.0994 -0.1641
36675SOL    HW114387   1.107   4.838   2.772 -1.2274 -1.2754  0.9068
36675SOL    HW214388   1.216   4.825   2.876  0.7555  1.4156 -0.6947
36676SOL     OW14389   2.095   3.722  10.679 -0.3045 -0.3314 -0.4011
36676SOL    HW114390   2.130   3.707  10.592 -0.7167  1.1237 -0.8556
36676SOL    HW214391   2.152   3.673  10.738  0.8499 -0.1535 -1.3531
36677SOL     OW14392   8.192   3.070   6.727  0.6060 -0.1405  0.1667
36677SOL    HW114393   8.130   3.003   6.757 -1.0604  1.6538  0.9707
36677SOL    HW214394   8.182   3.071   6.632 -0.0037 -0.4498  0.2214
36678SOL     OW14395   0.469  11.015   3.181  0.3615  0.5974  0.0657
36678SOL    HW114396   0.497  10.937   3.134 -0.3973 -0.3977  1.2220
36678SOL    HW214397   0.540  11.033   3.243 -0.0908 -0.0599  0.8016
36679SOL     OW14398   6.905   3.512   8.752 -0.2836 -0.0399  0.1650
36679SOL    HW114399   6.853   3.433   8.735  1.8966 -1.2793 -1.2838
36679SOL    HW214400   6.954   3.492   8.832  0.0729 -0.0672 -0.0573
36680SOL     OW14401  10.177   7.874   2.705  0.2282  0.2762 -0.4221
36680SOL    HW114402  10.114   7.921   2.650  1.4616  2.2971 -0.2303
36680SOL    HW214403  10.158   7.782   2.691 -1.3345  0.7949 -2.0302
36681SOL     OW14404   1.494   7.035   1.951  0.3435 -0.1910  0.6515
36681SOL    HW114405   1.426   7.085   1.906  1.9328  0.3731 -1.2284
36681SOL    HW214406   1.456   7.015   2.037 -1.8735  0.7599 -0.0462
36682SOL     OW14407   2.995   6.221  10.971 -0.4092 -0.5077 -0.5648
36682SOL    HW114408   2.992   6.152  10.904 -2.2164  0.7152 -1.8352
36682SOL    HW214409   2.919   6.203  11.027 -0.8286  0.3691 -0.8397
36683SOL     OW14410   2.161  10.773   9.060 -0.3876 -0.0642 -0.1530
36683SOL    HW114411   2.089  10.790   9.121 -1.6082 -1.6119 -1.0623
36683SOL    HW214412   2.240  10.789   9.110 -1.3560 -0.0798  1.4581
36684SOL     OW14413   5.322  10.353   7.658  0.0568  0.1321 -0.2191
36684SOL    HW114414   5.251  10.399   7.704 -0.4717 -1.4073  0.5847
36684SOL    HW214415   5.297  10.261   7.662  1.9489 -0.4228 -0.2285
36685SOL     OW14416   0.068   1.449   9.300 -0.1514 -0.1241 -0.3024
36685SOL    HW114417   0.055   1.370   9.351  0.0507 -0.1255 -0.2505
36685SOL    HW214418   0.051   1.422   9.209  2.2370 -0.8470 -0.6144
36686SOL     OW14419   2.971   9.706   7.163 -0.0358  0.0158 -0.2877
36686SOL    HW114420   2.966   9.655   7.244 -2.1478 -0.4623 -0.6666
36686SOL    HW214421   2.915   9.782   7.179  1.9501  1.5536 -0.2529
36687SOL     OW14422   6.989   7.949   1.515 -0.4574  0.0191  0.4506
36687SOL    HW114423   6.961   7.865   1.553  1.3521 -1.2192 -0.8152
36687SOL    HW214424   7.059   7.926   1.455  1.2836  2.6509  1.3205
36688SOL     OW14425   0.120   2.323   9.221  0.0378 -0.2742  0.0276
36688SOL    HW114426   0.212   2.342   9.200  0.1899 -0.0848  0.7948
36688SOL    HW214427   0.100   2.383   9.293  0.2313 -2.3271  1.9069
36689SOL     OW14428   4.613   7.066   4.812 -0.7560  0.1032 -0.2134
36689SOL    HW114429   4.609   7.079   4.717 -1.4294  1.1335 -0.0589
36689SOL    HW214430   4.626   7.154   4.847  1.3868 -0.4605  0.5824
36690SOL     OW14431   9.734   7.176   3.650 -0.3721  0.6074 -0.0543
36690SOL    HW114432   9.815   7.176   3.700 -0.6115  1.6668  0.3625
36690SOL    HW214433   9.684   7.249   3.686 -1.9306 -0.5961  0.3590
36691SOL     OW14434   2.995   6.694   5.134  0.1984  0.2538 -0.2168
36691SOL    HW114435   3.023   6.749   5.061 -1.8657  1.0498 -0.4772
36691SOL    HW214436   2.914   6.735   5.165 -0.5520 -1.7452  0.6072
36692SOL     OW14437   9.277   6.145   7.114 -0.5439  0.3734 -0.0319
36692SOL    HW114438   9.332   6.091   7.170 -0.3508 -1.0899 -1.5524
36692SOL    HW214439   9.194   6.153   7.161 -0.5940 -1.3287  0.2108
36693SOL     OW14440   6.630   8.264   2.053  0.2187  0.3347  0.0507
36693SOL    HW114441   6.703   8.202   2.050  0.4676  0.6531 -1.1935
36693SOL    HW214442   6.641   8.311   2.136 -0.7005 -2.0927  1.6707
36694SOL     OW14443   1.600   4.839   0.489 -0.4646  0.6550 -0.2068
36694SOL    HW114444   1.595   4.776   0.418 -2.9014  0.9231 -0.3649
36694SOL    HW214445   1.692   4.842   0.513  0.0493 -1.1810 -1.7729
36695SOL     OW14446   4.814   7.049   0.788 -0.5488 -0.0736 -0.4024
36695SOL    HW114447   4.840   6.957   0.801 -0.0868 -0.1113 -1.4979
36695SOL    HW214448   4.834   7.091   0.872 -0.2880 -0.8629 -0.0559
36696SOL     OW14449   9.121   3.540   7.312 -0.3192  0.0146 -0.1608
36696SOL    HW114450   9.033   3.571   7.292  0.5590  1.5403 -1.8737
36696SOL    HW214451   9.149   3.594   7.386  0.6410  2.5161 -2.1953
36697SOL     OW14452   5.755   8.882   4.749 -0.7508  0.3451 -1.2800
36697SOL    HW114453   5.744   8.972   4.780  1.1100  0.4497 -0.7815
36697SOL    HW214454   5.750   8.888   4.654  1.7484  1.4286 -1.4213
36698SOL     OW14455   6.297   2.377   0.889  0.0984  0.0780 -0.2233
36698SOL    HW114456   6.388   2.371   0.920  0.2052 -0.3366 -0.6130
36698SOL    HW214457   6.298   2.451   0.828 -0.1767  1.0920  0.9592
36699SOL     OW14458   3.332   7.625   2.390 -0.2851  0.1405  0.4666
36699SOL    HW114459   3.419   7.639   2.427  0.4891 -1.2631 -0.6824
36699SOL    HW214460   3.298   7.713   2.373  1.1342  0.7120  0.4478
36700SOL     OW14461   7.770   0.410   1.235  0.3762 -0.2482  0.0398
36700SOL    HW114462   7.844   0.425   1.177  0.3839 -1.2230 -0.2225
36700SOL    HW214463   7.808   0.371   1.314  0.3148  0.6779  0.5412
36701SOL     OW14464   6.731  10.911   3.701 -0.4945  0.8110 -0.8360
36701SOL    HW114465   6.733  10.922   3.606 -2.4930  1.4697 -0.8453
36701SOL    HW214466   6.749  10.998   3.737  0.7515  0.4656 -0.5771
36702SOL     OW14467   5.900   4.356   4.899  0.5383 -0.3156  0.8980
36702SOL    HW114468   5.863   4.362   4.987  1.3133  1.4318  1.1302
36702SOL    HW214469   5.967   4.288   4.906 -0.9655 -1.8919  1.0162
36703SOL     OW14470   6.286   8.292   9.169 -0.0494 -0.3993 -0.4907
36703SOL    HW114471   6.351   8.326   9.107  1.5390  1.1018  1.8416
36703SOL    HW214472   6.331   8.221   9.215  1.5831  2.8925  3.6516
36704SOL     OW14473   8.004   7.662   6.696  0.2990  0.4706 -0.5204
36704SOL    HW114474   8.022   7.581   6.648  1.9725  1.2026 -1.2365
36704SOL    HW214475   7.934   7.704   6.646  0.3946  0.1045 -0.9719
36705SOL     OW14476   0.592   7.883   4.929 -0.0508  0.4367  0.3757
36705SOL    HW114477   0.589   7.827   5.007  1.0156 -1.4442 -0.8591
36705SOL    HW214478   0.528   7.845   4.869  0.6077  0.5776 -0.4403
36706SOL     OW14479   7.478   0.260   7.529 -0.3861 -0.9473  0.2780
36706SOL    HW114480   7.484   0.323   7.457  3.9993  1.1739  2.1440
36706SOL    HW214481   7.535   0.188   7.503  0.3464 -0.6861  1.1210
36707SOL     OW14482   7.992   8.130   6.568  0.1535 -0.1174 -0.2122
36707SOL    HW114483   7.918   8.083   6.607  1.1723 -0.7248  1.0291
36707SOL    HW214484   8.054   8.062   6.543  0.9528  0.4695  0.1367
36708SOL     OW14485   2.357   6.027   2.849 -0.4034 -0.0867 -0.1563
36708SOL    HW114486   2.331   6.113   2.883 -0.0174  0.3118 -0.8495
36708SOL    HW214487   2.283   5.970   2.869 -0.3154  0.1945  1.0808
36709SOL     OW14488   3.391  10.800   9.507  0.2751 -0.3563  0.5706
36709SOL    HW114489   3.363  10.743   9.579  1.1571 -0.3992  0.8916
36709SOL    HW214490   3.309  10.829   9.467 -0.2710  0.3074  2.0819
36710SOL     OW14491   7.224   0.061   0.344  0.1217  0.1281 -0.0694
36710SOL    HW114492   7.300   0.083   0.398  0.8898  0.9746 -1.4377
36710SOL    HW214493   7.235   0.113   0.265 -2.2477  0.7836 -0.0411
36711SOL     OW14494   6.047  10.638   7.561 -0.3281  0.4658 -0.3558
36711SOL    HW114495   6.089  10.613   7.479  0.0802  0.2154 -0.0746
36711SOL    HW214496   5.979  10.572   7.574  0.3316 -0.1392  0.0631
36712SOL     OW14497  10.144  10.207   0.080 -0.3677  0.1765 -0.2104
36712SOL    HW114498  10.229  10.232   0.115 -1.4141  2.2987  1.0526
36712SOL    HW214499  10.159  10.192  -0.013  1.6390 -1.0663  0.2592
36713SOL     OW14500   8.110   6.619   5.885  0.3531 -0.3819 -0.1948
36713SOL    HW114501   8.055   6.574   5.820 -0.1307  0.0911 -0.1189
36713SOL    HW214502   8.199   6.589   5.866  0.1153 -0.8618 -0.5661
36714SOL     OW14503   5.737   7.115   2.219 -1.1569 -0.3435  0.3865
36714SOL    HW114504   5.813   7.164   2.188  0.2610 -1.8330  1.3389
36714SOL    HW214505   5.685   7.099   2.140  0.1815 -0.3844 -0.5093
36715SOL     OW14506   2.257   4.331   9.250  0.4581  0.2564  0.2644
36715SOL    HW114507   2.225   4.286   9.172 -1.6051  0.7228  0.8051
36715SOL    HW214508   2.321   4.270   9.287 -0.1507 -0.9474 -0.5851
36716SOL     OW14509   9.773   1.994   0.454  0.3831 -0.4117 -0.4383
36716SOL    HW114510   9.835   1.933   0.414  0.8906 -0.1911 -0.0065
36716SOL    HW214511   9.806   2.081   0.429  0.2962 -0.2922 -0.1374
36717SOL     OW14512   0.605   9.500   8.101 -0.2851  0.3704  0.2889
36717SOL    HW114513   0.669   9.539   8.160 -0.2530  0.4863  0.1774
36717SOL    HW214514   0.649   9.497   8.016 -0.3291  0.2012  0.2701
36718SOL     OW14515   8.395   9.241  10.915 -0.6550  0.4184  0.4526
36718SOL    HW114516   8.425   9.328  10.887  0.5979  0.3600  1.4984
36718SOL    HW214517   8.474   9.188  10.915 -1.3205 -0.5936  0.3466
36719SOL     OW14518   9.978   3.529   8.683 -0.1422  0.4107 -0.3064
36719SOL    HW114519  10.054   3.512   8.739  1.3100  0.8562 -2.0726
36719SOL    HW214520   9.950   3.617   8.706 -0.2184  0.2049  0.4236
36720SOL     OW14521   2.714   3.172   7.274 -0.2735  0.0134  0.3521
36720SOL    HW114522   2.645   3.109   7.252  1.2984 -1.2499 -1.3538
36720SOL    HW214523   2.718   3.172   7.369 -2.6153  0.1701  0.5071
36721SOL     OW14524   5.048   4.847   7.977 -0.8073  0.6026  0.1944
36721SOL    HW114525   5.090   4.926   8.010  0.5649  0.2712 -0.6791
36721SOL    HW214526   5.043   4.860   7.882  2.0751 -1.4578 -0.3840
36722SOL     OW14527   2.311   5.346   1.831  0.1399  0.3215  0.7384
36722SOL    HW114528   2.325   5.441   1.836  1.4744  0.2618 -0.8449
36722SOL    HW214529   2.307   5.328   1.737 -2.7926 -0.8729  1.0074
36723SOL     OW14530   6.536   8.155   5.946 -0.5300  0.1758 -0.0626
36723SOL    HW114531   6.549   8.076   5.893 -1.0870 -0.2150  0.3672
36723SOL    HW214532   6.573   8.226   5.894 -0.2986 -0.3290 -0.5898
36724SOL     OW14533   2.956   8.892   6.581  0.7985  0.9428 -0.2495
36724SOL    HW114534   2.868   8.926   6.564  1.5920  3.1868 -0.2546
36724SOL    HW214535   2.943   8.827   6.650 -1.0624 -0.1641 -1.5561
36725SOL     OW14536   6.155   5.295   6.570 -0.2002 -0.1542 -0.2259
36725SOL    HW114537   6.149   5.291   6.666  0.3001 -3.9200 -0.1893
36725SOL    HW214538   6.249   5.292   6.552 -0.2373  1.5013 -0.9189
36726SOL     OW14539   8.641  10.474   7.452 -0.2313 -0.0267  0.2750
36726SOL    HW114540   8.575  10.453   7.517  1.3332  2.8057  3.0790
36726SOL    HW214541   8.601  10.545   7.400 -0.5116 -0.4546 -0.0969
36727SOL     OW14542   4.392   9.036   3.742  0.0423 -0.9154  0.3635
36727SOL    HW114543   4.392   9.104   3.811  0.4508 -1.6485  1.1018
36727SOL    HW214544   4.436   8.962   3.782 -1.3251 -2.0033 -0.0549
36728SOL     OW14545   8.405  11.007   4.575  0.6014  0.0491  0.2685
36728SOL    HW114546   8.381  11.074   4.510  0.1955  1.1923  1.5548
36728SOL    HW214547   8.473  11.048   4.628  1.6122 -1.2246  0.0028
36729SOL     OW14548   2.056   9.510   0.454 -0.2828 -0.0810 -0.4763
36729SOL    HW114549   1.992   9.532   0.522  0.0264 -1.7880  0.4192
36729SOL    HW214550   2.006   9.502   0.374 -1.0009 -0.2315 -0.0168
36730SOL     OW14551  10.184   8.719   9.322  0.2132  0.0797  0.2813
36730SOL    HW114552  10.102   8.676   9.297  0.7661  0.5803 -2.7191
36730SOL    HW214553  10.156   8.797   9.371 -0.9678 -0.7969  1.0797
36731SOL     OW14554   9.133   3.979   8.133  0.1399 -0.0034  0.2024
36731SOL    HW114555   9.050   3.934   8.147  0.5984 -0.6840  0.8067
36731SOL    HW214556   9.157   3.959   8.043  0.1542 -0.6608  0.3530
36732SOL     OW14557   9.951   6.257   5.169 -0.5251 -0.0824  0.1258
36732SOL    HW114558   9.882   6.323   5.160  0.1297  0.3749 -2.8564
36732SOL    HW214559   9.917   6.180   5.124  0.1104 -0.5427  0.4136
36733SOL     OW14560   3.459   2.848   2.917  0.3674  0.1548  0.6109
36733SOL    HW114561   3.443   2.912   2.848 -0.8423 -0.7050  0.0500
36733SOL    HW214562   3.554   2.853   2.933  0.9745 -0.6130 -2.1426
36734SOL     OW14563  10.706   1.317   1.682  0.4088 -0.3945 -0.1767
36734SOL    HW114564  10.795   1.353   1.683  0.1091  0.3704 -0.3790
36734SOL    HW214565  10.650   1.393   1.668 -0.3316 -0.7769  0.6444
36735SOL     OW14566  10.645   4.742   0.426  0.1228 -0.3603  0.0206
36735SOL    HW114567  10.557   4.769   0.402  0.2897 -0.3895 -0.6475
36735SOL    HW214568  10.686   4.820   0.462 -0.4641 -0.5714  1.2127
36736SOL     OW14569   8.910  10.800   5.420  0.4029 -0.1279 -0.3403
36736SOL    HW114570   8.826  10.844   5.425 -0.7393 -2.2429  0.1531
36736SOL    HW214571   8.973  10.870   5.404 -1.0938  1.8676  1.8718
36737SOL     OW14572   5.788   3.642   5.899  0.5242  0.9147  0.1510
36737SOL    HW114573   5.868   3.671   5.856 -0.7071  0.4428 -2.6877
36737SOL    HW214574   5.798   3.547   5.908  0.1470  0.7967 -0.5924
36738SOL     OW14575   9.424   0.359   4.009 -0.0586  0.0117 -0.1742
36738SOL    HW114576   9.434   0.296   4.080 -0.4814  0.8168  0.6235
36738SOL    HW214577   9.417   0.444   4.053  4.9887  1.3454 -1.2205
36739SOL     OW14578   1.931   5.325   6.830  0.1151  0.4190 -0.4431
36739SOL    HW114579   1.924   5.231   6.846 -0.7962  0.0080 -2.9071
36739SOL    HW214580   1.849   5.349   6.788 -0.0578  2.5451  0.9648
36740SOL     OW14581   5.236   8.289   0.879  0.0422  0.0255  0.3749
36740SOL    HW114582   5.142   8.280   0.861 -0.2372  0.7007  1.3858
36740SOL    HW214583   5.256   8.215   0.937  0.1288 -0.0997  0.1862
36741SOL     OW14584  10.288   2.238   2.878  0.7196 -0.0645 -0.1056
36741SOL    HW114585  10.203   2.217   2.917 -0.6603  2.6884 -1.2634
36741SOL    HW214586  10.352   2.221   2.947 -0.6844 -2.5149  0.7167
36742SOL     OW14587   2.385   5.226   1.280  0.0188  0.5470 -0.4519
36742SOL    HW114588   2.296   5.222   1.315  0.2416  0.7024  0.1415
36742SOL    HW214589   2.390   5.152   1.220 -0.1241 -0.2266  0.4560
36743SOL     OW14590  10.305   3.994   2.533  0.8532  0.2575  0.8132
36743SOL    HW114591  10.254   3.966   2.610  0.0783 -1.0402 -0.1344
36743SOL    HW214592  10.270   3.942   2.461  0.7947  2.2409 -0.6720
36744SOL     OW14593   3.091   0.382   8.671  0.1645 -0.1021 -0.4047
36744SOL    HW114594   3.047   0.319   8.613 -3.7188  2.9414 -1.1969
36744SOL    HW214595   3.029   0.396   8.742  0.2284  3.5367 -0.8715
36745SOL     OW14596   6.305  10.796   9.747 -0.2784  0.2442  0.2750
36745SOL    HW114597   6.347  10.819   9.664 -0.2872  1.0178  0.4767
36745SOL    HW214598   6.268  10.879   9.779 -0.8854 -0.1819  0.7052
36746SOL     OW14599   0.711   8.723   0.924  0.5721  0.2749 -0.5106
36746SOL    HW114600   0.616   8.708   0.918  0.5666 -0.0530  0.3288
36746SOL    HW214601   0.749   8.653   0.871  0.3197  1.0691 -1.7850
36747SOL     OW14602   9.509   4.553   8.011 -0.3582 -0.0556 -0.0130
36747SOL    HW114603   9.516   4.553   7.915  0.7472  0.1620  0.0522
36747SOL    HW214604   9.488   4.463   8.033 -1.1025 -0.0031 -0.4904
36748SOL     OW14605   6.065   7.985   1.519  0.1755 -0.5489  0.9920
36748SOL    HW114606   6.145   7.988   1.572 -1.4617  0.3575  3.6180
36748SOL    HW214607   6.052   7.892   1.501  1.8493 -0.7047  0.3947
36749SOL     OW14608  10.337   5.154   1.620  1.3434 -0.3935 -0.0270
36749SOL    HW114609  10.406   5.088   1.631  1.9787  0.1387 -0.7421
36749SOL    HW214610  10.289   5.152   1.703  0.8804 -2.2711 -0.3013
36750SOL     OW14611   7.320   7.177   8.868  0.2684 -0.2753 -0.0042
36750SOL    HW114612   7.367   7.246   8.915  1.3925 -0.6698 -0.4979
36750SOL    HW214613   7.299   7.214   8.783 -0.5553 -0.0182  0.3026
36751SOL     OW14614   8.755   4.171   6.694  0.0136  0.2239 -0.1119
36751SOL    HW114615   8.849   4.153   6.707  0.4981  0.7724 -2.4812
36751SOL    HW214616   8.746   4.186   6.600 -2.6240 -0.6128 -0.0613
36752SOL     OW14617   9.087   7.680   4.547  0.0432  0.3561  0.2483
36752SOL    HW114618   9.042   7.750   4.595 -2.7001 -1.8358  1.1501
36752SOL    HW214619   9.041   7.675   4.463 -0.3180 -0.8279  0.5000
36753SOL     OW14620   8.381   8.689   7.949  0.2138 -0.3368  0.2432
36753SOL    HW114621   8.358   8.644   8.030 -2.2973 -0.9958 -0.7587
36753SOL    HW214622   8.472   8.716   7.962 -0.3992  0.5402  3.7125
36754SOL     OW14623   0.679   9.174   2.602 -0.3127 -0.5807  0.2400
36754SOL    HW114624   0.756   9.162   2.657 -1.1436 -1.6108  1.2253
36754SOL    HW214625   0.617   9.108   2.632 -1.5328  0.1169 -0.6300
36755SOL     OW14626  10.722  10.741   2.652  0.2176  0.2050 -0.2314
36755SOL    HW114627  10.780  10.746   2.576  1.1025 -0.8556  0.3542
36755SOL    HW214628  10.772  10.782   2.723  0.5495 -1.2690  0.4263
36756SOL     OW14629   5.011   6.998   4.020 -0.1580 -0.3807 -0.2400
36756SOL    HW114630   4.935   7.050   4.047  2.0828  2.5347  0.8995
36756SOL    HW214631   5.047   6.963   4.102  1.1964  0.4954 -0.4306
36757SOL     OW14632   3.728   9.866   5.278 -0.2464  0.0966  0.7719
36757SOL    HW114633   3.778   9.919   5.216 -0.2857 -0.1443  0.5330
36757SOL    HW214634   3.689   9.930   5.338 -0.3457  0.3423  0.4445
36758SOL     OW14635   1.859   2.369   1.468  0.3066  0.0764  0.9145
36758SOL    HW114636   1.896   2.319   1.395  0.1435  0.3909  0.6096
36758SOL    HW214637   1.903   2.336   1.545  2.6434  1.7211  0.3961
36759SOL     OW14638   9.906   1.040   7.194 -0.6142  0.8748  0.3679
36759SOL    HW114639   9.816   1.007   7.190 -0.2033 -1.0970  3.5609
36759SOL    HW214640   9.959   0.974   7.150 -0.3437 -0.3390  2.3795
36760SOL     OW14641   1.456   5.157   1.049 -0.6274 -0.0083  0.1058
36760SOL    HW114642   1.367   5.189   1.035 -0.5281  0.7633  1.0881
36760SOL    HW214643   1.459   5.134   1.142  0.3581  0.5463  0.2259
36761SOL     OW14644   4.889   8.031   8.229  0.3555  0.1608 -1.0602
36761SOL    HW114645   4.821   7.985   8.181  0.6311 -1.2150 -0.1717
36761SOL    HW214646   4.967   7.976   8.220  0.2946 -0.4270  1.3594
36762SOL     OW14647   8.650   8.438   7.753  0.2533  0.5187  0.5024
36762SOL    HW114648   8.603   8.391   7.823  1.0860 -0.7104  0.2643
36762SOL    HW214649   8.611   8.406   7.672  1.0142 -0.0021  0.3287
36763SOL     OW14650  10.919   9.685   7.070  0.1126  0.8004 -0.4260
36763SOL    HW114651  10.831   9.721   7.064 -0.6845 -0.5806  1.7941
36763SOL    HW214652  10.909   9.594   7.040  0.5111  0.3082  0.8818
36764SOL     OW14653  10.249   3.971   1.869  0.2207 -0.3618  0.4365
36764SOL    HW114654  10.208   3.901   1.920  0.1207 -0.4239  0.2702
36764SOL    HW214655  10.194   3.980   1.791 -0.4340  0.6712  0.9810
36765SOL     OW14656   8.088   4.122   0.898  0.0310 -0.3361  0.1765
36765SOL    HW114657   8.175   4.108   0.861 -0.2998 -0.8860 -0.4242
36765SOL    HW214658   8.091   4.078   0.983  0.7184  0.7146  0.7039
36766SOL     OW14659   2.713   5.203   5.711  0.3761  0.6345 -0.6836
36766SOL    HW114660   2.638   5.248   5.751  0.8977  1.0989 -0.2011
36766SOL    HW214661   2.750   5.268   5.651  0.7092  0.6074 -0.5119
36767SOL     OW14662   1.743   8.609  10.650 -0.6558  0.8328 -0.3388
36767SOL    HW114663   1.672   8.545  10.639 -0.6557  0.2758  2.3432
36767SOL    HW214664   1.815   8.572  10.600 -1.6157  0.3834 -1.4529
36768SOL     OW14665   7.453   4.261   8.012 -0.2315 -0.0501  0.0129
36768SOL    HW114666   7.468   4.255   7.918  0.5167 -1.4142  0.2040
36768SOL    HW214667   7.535   4.296   8.048 -0.5964  0.6938  0.1451
36769SOL     OW14668   5.313   1.869   6.988  0.3587 -0.5529 -0.2047
36769SOL    HW114669   5.404   1.858   6.960  0.5943  2.9523 -1.2367
36769SOL    HW214670   5.263   1.820   6.922  1.4131 -3.2114  0.8330
36770SOL     OW14671   4.722   2.907   6.029  0.3145 -0.2593  0.2339
36770SOL    HW114672   4.779   2.935   5.958 -1.0465 -2.1920 -1.7430
36770SOL    HW214673   4.777   2.849   6.082  0.7909 -0.4187 -0.4198
36771SOL     OW14674   0.980   5.588   2.224  0.4009  0.4254  0.0381
36771SOL    HW114675   1.005   5.641   2.148 -0.3643 -0.6247 -0.9742
36771SOL    HW214676   0.973   5.499   2.190  0.3535 -0.1252  1.4219
36772SOL     OW14677   0.995   0.741   2.230 -0.0777 -0.1387 -0.6015
36772SOL    HW114678   1.082   0.721   2.198  0.2050 -1.0709  0.6501
36772SOL    HW214679   0.994   0.836   2.240  0.7841 -0.1163 -0.6615
36773SOL     OW14680   7.441   8.420   3.643 -0.2401 -0.4858 -0.1486
36773SOL    HW114681   7.434   8.328   3.618  0.9535 -0.7102  0.2849
36773SOL    HW214682   7.397   8.425   3.728 -1.4225 -0.3821 -0.7480
36774SOL     OW14683   0.546   5.608   7.975  0.3498  0.3470 -0.1906
36774SOL    HW114684   0.606   5.565   8.035 -1.2977 -1.4361  0.2698
36774SOL    HW214685   0.565   5.701   7.985  1.2307 -0.0007  1.8744
36775SOL     OW14686   6.019   6.481   0.950 -0.1258 -0.0230 -0.1749
36775SOL    HW114687   6.006   6.458   1.042  2.6502  0.1317  0.3315
36775SOL    HW214688   6.004   6.576   0.947  0.5005  0.0995  0.2992
36776SOL     OW14689   0.695   0.266   3.998  0.4249 -0.2549  0.0543
36776SOL    HW114690   0.621   0.311   4.037  0.5736  0.5552 -0.5712
36776SOL    HW214691   0.661   0.227   3.918  0.4838 -0.6099  0.1963
36777SOL     OW14692   1.970  11.018   3.353  0.0209 -0.1240 -0.2449
36777SOL    HW114693   1.905  10.950   3.336 -0.0409  0.0434 -0.6955
36777SOL    HW214694   1.949  11.087   3.290 -0.4815  0.6997  0.8051
36778SOL     OW14695   1.375   5.421   3.112 -0.3682 -0.2913  0.0155
36778SOL    HW114696   1.311   5.485   3.081 -0.3951 -0.4128 -0.1810
36778SOL    HW214697   1.432   5.405   3.037 -1.3036 -1.6786 -0.4530
36779SOL     OW14698  10.913   5.823   1.597  0.0246 -0.0680 -0.0868
36779SOL    HW114699  10.951   5.908   1.573 -0.4952  0.5448  1.1248
36779SOL    HW214700  10.828   5.846   1.637  0.9372 -0.8922  2.5647
36780SOL     OW14701   1.251   7.169   5.517  0.4889 -0.3772  0.7312
36780SOL    HW114702   1.288   7.111   5.583  0.0687  0.0861  1.3909
36780SOL    HW214703   1.259   7.257   5.555  0.9574 -0.0148 -0.1709
36781SOL     OW14704  10.939   0.569   6.236  0.3342  0.3448 -0.2538
36781SOL    HW114705  11.009   0.553   6.299 -0.3725 -1.4688  0.1373
36781SOL    HW214706  10.944   0.663   6.218  1.0985  0.7708  1.8502
36782SOL     OW14707   2.864   5.884   5.410  0.5003  0.0576  0.3236
36782SOL    HW114708   2.849   5.964   5.460 -0.8835 -0.8828  1.5059
36782SOL    HW214709   2.895   5.914   5.325 -2.2913  2.0102 -0.1485
36783SOL     OW14710   4.510   9.397   8.759 -0.0084 -0.3028  0.1984
36783SOL    HW114711   4.527   9.491   8.766  1.3559 -0.4349 -0.9520
36783SOL    HW214712   4.442   9.389   8.692  2.2377 -0.2610 -2.2420
36784SOL     OW14713  10.707   9.293   2.834 -0.1532 -0.3403 -0.4686
36784SOL    HW114714  10.701   9.278   2.740 -0.1458  1.3620 -0.7867
36784SOL    HW214715  10.618   9.312   2.861 -0.0084  0.2460 -0.3700
36785SOL     OW14716   8.195  10.032   4.559 -0.2062  0.2915  0.1401
36785SOL    HW114717   8.159  10.052   4.646  2.3756  0.2483  1.3253
36785SOL    HW214718   8.282  10.071   4.560  0.5884 -1.2651 -1.7819
36786SOL     OW14719  10.649   9.064   2.006 -0.6914 -0.6788 -0.2199
36786SOL    HW114720  10.610   8.989   1.961  0.8650 -1.9117  0.3775
36786SOL    HW214721  10.642   9.042   2.099 -0.6532  0.1412 -0.0206
36787SOL     OW14722   3.915   7.032   3.245  1.0126  0.2177 -0.4998
36787SOL    HW114723   3.857   7.041   3.170  0.8233  0.9958 -0.2729
36787SOL    HW214724   3.858   7.007   3.317  1.3781 -1.8950 -0.8726
36788SOL     OW14725   0.391   9.823   1.258  1.0232 -0.2059 -0.1220
36788SOL    HW114726   0.415   9.747   1.204 -0.7136 -0.7584 -0.1769
36788SOL    HW214727   0.330   9.872   1.203  0.7952  0.3049  0.5848
36789SOL     OW14728   2.897   6.945   8.991 -0.1007 -0.6010 -0.5394
36789SOL    HW114729   2.953   7.021   9.006  0.6296 -0.9437 -1.4365
36789SOL    HW214730   2.890   6.939   8.896  0.8780 -2.3863 -0.5306
36790SOL     OW14731   2.206   3.477  10.097 -0.0289  0.7509  0.0145
36790SOL    HW114732   2.161   3.402  10.138  3.9019 -0.9715  1.6611
36790SOL    HW214733   2.190   3.466  10.004 -3.4672  0.7350  0.4587
36791SOL     OW14734   1.778   6.743   8.686  1.0731 -0.4314 -0.0070
36791SOL    HW114735   1.818   6.759   8.772 -1.9544  0.2218  1.4051
36791SOL    HW214736   1.797   6.822   8.636  0.7451  0.2766  0.9641
36792SOL     OW14737   1.989  10.693   1.381 -0.4038 -0.4111 -0.1040
36792SOL    HW114738   2.076  10.698   1.421 -1.2898  2.0683  1.7443
36792SOL    HW214739   2.005  10.692   1.287  1.6208  1.0068  0.1741
36793SOL     OW14740   3.953   9.182   1.055 -0.5432 -0.2441 -0.8319
36793SOL    HW114741   4.010   9.143   0.989 -2.4901 -1.9714 -1.6027
36793SOL    HW214742   3.970   9.131   1.134 -0.8523 -0.6337 -1.0117
36794SOL     OW14743   1.940   0.568   4.882  0.1488  0.3836  0.0634
36794SOL    HW114744   1.845   0.557   4.887  0.1675  0.6486  1.4179
36794SOL    HW214745   1.971   0.489   4.837 -0.6400 -0.1760  0.4684
36795SOL     OW14746   1.026   3.396   9.554  0.2896  0.0271  0.1519
36795SOL    HW114747   0.930   3.391   9.554  0.2831  0.1340 -0.1506
36795SOL    HW214748   1.045   3.486   9.527  0.4807 -0.1953 -0.4775
36796SOL     OW14749   3.942   4.007   6.757  0.2520  0.2459  0.4660
36796SOL    HW114750   3.868   4.018   6.816 -2.4540 -0.4934 -2.5096
36796SOL    HW214751   3.966   4.096   6.731 -1.2134  0.4354 -0.3259
36797SOL     OW14752   4.059   0.536   3.170 -0.0919 -0.5791 -0.6494
36797SOL    HW114753   4.109   0.613   3.143  0.5530 -0.3947  0.9659
36797SOL    HW214754   4.094   0.465   3.117  1.1276 -0.2312 -0.3448
36798SOL     OW14755  10.272   3.527   0.489 -0.6734  0.3448  0.0605
36798SOL    HW114756  10.315   3.513   0.405  2.0992  0.6120  1.3224
36798SOL    HW214757  10.216   3.450   0.501  0.6685 -0.8477 -1.0229
36799SOL     OW14758   5.347   0.631   3.667 -0.0219 -0.3584  0.3330
36799SOL    HW114759   5.355   0.580   3.586  2.2584  0.2032  0.1305
36799SOL    HW214760   5.319   0.717   3.638  0.3303 -0.2924  0.1838
36800SOL     OW14761   5.327   7.498   2.529 -1.2251 -0.1372  0.2375
36800SOL    HW114762   5.412   7.509   2.486 -0.9519  1.0020  1.0046
36800SOL    HW214763   5.321   7.405   2.549 -0.1481 -0.2312  0.1661
36801SOL     OW14764   9.648   0.833   3.983 -0.2675 -0.1203 -0.2391
36801SOL    HW114765   9.617   0.886   4.057 -0.8388  0.2147 -0.7059
36801SOL    HW214766   9.743   0.843   3.985 -0.1317 -1.3497  1.3629
36802SOL     OW14767   9.800  10.356   5.163 -0.1068  1.1240 -0.1888
36802SOL    HW114768   9.896  10.357   5.167 -0.0546  0.4302 -1.0181
36802SOL    HW214769   9.779  10.401   5.082 -0.3731 -0.6182 -1.1418
36803SOL     OW14770   4.942   8.847   5.482  0.1742 -0.6345  0.5643
36803SOL    HW114771   4.872   8.805   5.433 -0.4002  1.0268 -0.1119
36803SOL    HW214772   5.022   8.822   5.437 -0.0248 -1.9693  0.9182
36804SOL     OW14773   8.005   5.477   6.258  0.6375 -0.3767 -0.3681
36804SOL    HW114774   8.090   5.471   6.302 -0.2216  0.3503  1.4991
36804SOL    HW214775   7.941   5.459   6.326 -0.7334 -1.6331 -1.8910
36805SOL     OW14776   1.837   6.708   4.151  0.2765 -0.1190 -0.1871
36805SOL    HW114777   1.925   6.742   4.169 -0.2637  2.2852 -1.6424
36805SOL    HW214778   1.788   6.724   4.232  0.6858  0.3662 -0.0306
36806SOL     OW14779  10.518   0.247   3.825  0.4253  0.3438  0.5254
36806SOL    HW114780  10.459   0.178   3.795  0.2746  0.0968  1.3784
36806SOL    HW214781  10.531   0.302   3.747 -2.6283  1.6581  0.7717
36807SOL     OW14782   7.615   5.363   2.380 -0.3499 -0.0345 -0.7180
36807SOL    HW114783   7.635   5.283   2.428 -1.7335 -0.8886 -1.4958
36807SOL    HW214784   7.545   5.405   2.430 -0.7356 -0.1455 -1.1543
36808SOL     OW14785  10.112   6.717   5.994  0.1970  0.6120 -0.8070
36808SOL    HW114786  10.047   6.729   5.925 -1.1840  0.6125  0.4535
36808SOL    HW214787  10.139   6.805   6.018  0.7014  0.6112 -1.3372
36809SOL     OW14788   9.190   4.013   0.806  0.0613  0.1221 -0.2060
36809SOL    HW114789   9.162   4.030   0.896 -1.0063  0.1195 -0.5246
36809SOL    HW214790   9.248   3.936   0.813 -0.6158 -0.3474  0.3911
36810SOL     OW14791  10.468   5.577   3.382  0.0918 -0.0867 -0.1853
36810SOL    HW114792  10.527   5.645   3.349  0.7844 -1.1134 -1.1553
36810SOL    HW214793  10.503   5.554   3.468 -0.5875  1.2731  0.4839
36811SOL     OW14794   1.621   9.004   9.308  0.4901 -0.0559  0.2288
36811SOL    HW114795   1.674   8.971   9.381  1.4138  1.1104  0.1213
36811SOL    HW214796   1.535   8.965   9.321  1.1657 -1.3957  0.8488
36812SOL     OW14797  10.059   3.930   0.583  0.1764  0.0595  0.1983
36812SOL    HW114798  10.096   3.884   0.508 -2.9012  0.3359 -1.6444
36812SOL    HW214799  10.134   3.976   0.622  2.2399 -1.7303 -1.4325
36813SOL     OW14800   8.803  10.085   1.116  0.1810  0.2190 -0.5856
36813SOL    HW114801   8.819   9.991   1.108 -1.4380  0.0005 -2.0538
36813SOL    HW214802   8.709  10.092   1.133  0.5722  1.5435  1.2812
36814SOL     OW14803   2.127   9.421   4.829 -0.2450 -0.4045  0.3496
36814SOL    HW114804   2.135   9.377   4.745  0.4419 -0.7015  0.5643
36814SOL    HW214805   2.067   9.366   4.879 -2.0802  0.6967 -0.5258
36815SOL     OW14806   5.112   8.659   5.742 -0.2909 -0.5602 -0.1040
36815SOL    HW114807   5.094   8.609   5.822  1.6684  0.6534  1.1761
36815SOL    HW214808   5.066   8.742   5.755  0.1937 -0.2856 -0.1434
36816SOL     OW14809   6.498   5.312   4.897  0.4671  0.0367  0.3451
36816SOL    HW114810   6.447   5.291   4.819 -0.6697  1.0733  0.7735
36816SOL    HW214811   6.585   5.330   4.864  0.5663 -1.6136 -0.4300
36817SOL     OW14812   3.484   1.881   9.360  0.2513 -0.2589 -0.5096
36817SOL    HW114813   3.524   1.799   9.388  3.8174  1.2052 -0.8431
36817SOL    HW214814   3.477   1.873   9.265 -0.3506 -0.5233 -0.4488
36818SOL     OW14815   6.750   4.133  10.207 -0.8773  0.2901  0.1427
36818SOL    HW114816   6.762   4.137  10.112 -2.6378  0.0256 -0.1296
36818SOL    HW214817   6.837   4.117  10.242 -0.3578 -0.6652 -1.4976
36819SOL     OW14818  10.668  10.749   6.782  0.1504 -0.0806 -0.4187
36819SOL    HW114819  10.733  10.753   6.712 -0.9747  0.7298 -1.4491
36819SOL    HW214820  10.718  10.765   6.862  1.2067  0.5459 -1.1841
36820SOL     OW14821   1.144  10.350   8.247  0.0012  0.1644  0.0263
36820SOL    HW114822   1.223  10.303   8.220  0.9384  1.6055  0.1689
36820SOL    HW214823   1.087  10.348   8.169  0.8520  0.4741 -0.6164
36821SOL     OW14824   7.869  10.452   6.444 -0.2581  0.3157  0.0660
36821SOL    HW114825   7.941  10.391   6.428  0.6786  1.1800  0.8082
36821SOL    HW214826   7.885  10.525   6.384 -0.5042  0.5183  0.2429
36822SOL     OW14827   5.466   8.973  10.494 -0.1712  0.0965 -0.3244
36822SOL    HW114828   5.408   8.954  10.568 -2.4843  2.3681 -1.3897
36822SOL    HW214829   5.491   8.887  10.460  1.3401 -1.0599  3.2109
36823SOL     OW14830   0.711   0.629   3.744 -0.7917  0.3814  0.2049
36823SOL    HW114831   0.667   0.593   3.821 -2.7536 -0.9582 -1.4507
36823SOL    HW214832   0.655   0.701   3.716 -0.5432  0.3267 -0.4462
36824SOL     OW14833   5.171   0.508   8.078  0.4601 -0.2715  0.5188
36824SOL    HW114834   5.228   0.584   8.069  0.1703 -0.1562 -0.6034
36824SOL    HW214835   5.177   0.483   8.170  2.1390 -0.1337  0.4782
36825SOL     OW14836   7.469  10.091  10.637  0.3223  0.2498 -0.0658
36825SOL    HW114837   7.422  10.010  10.618 -0.8622 -0.2029  3.9667
36825SOL    HW214838   7.424  10.158  10.585 -0.6898 -1.1543 -1.0738
36826SOL     OW14839   9.194   4.400   8.478 -0.0078  0.2709 -0.2090
36826SOL    HW114840   9.270   4.452   8.449 -0.8450  1.2604 -0.7114
36826SOL    HW214841   9.122   4.462   8.479 -1.4198 -1.1976 -2.3994
36827SOL     OW14842   6.716   5.765   9.399  0.2664  0.1095  0.2461
36827SOL    HW114843   6.749   5.796   9.315 -0.7138 -1.4872 -0.7628
36827SOL    HW214844   6.624   5.746   9.384 -0.0468  0.2263  1.8194
36828SOL     OW14845   5.699  10.804   9.318 -0.0706  0.1513  0.1226
36828SOL    HW114846   5.678  10.793   9.411  0.1858 -2.9650 -0.0704
36828SOL    HW214847   5.628  10.760   9.272 -0.2839  1.8103 -1.2337
36829SOL     OW14848  11.042  10.258   2.473 -0.3120 -0.2786  0.2638
36829SOL    HW114849  11.002  10.243   2.559 -1.1756 -0.6336 -0.1849
36829SOL    HW214850  10.994  10.199   2.414  1.7598 -1.7262 -0.0771
36830SOL     OW14851   5.850   9.244   0.479 -0.1918 -0.1369 -0.4870
36830SOL    HW114852   5.787   9.314   0.496 -1.2745 -1.3308  0.6277
36830SOL    HW214853   5.903   9.240   0.559 -1.8820 -2.3161  0.5984
36831SOL     OW14854  10.249   9.329   9.619  0.0900  0.4366 -0.4357
36831SOL    HW114855  10.162   9.324   9.658  1.5792 -0.6204  3.1297
36831SOL    HW214856  10.276   9.420   9.630  0.1904  0.3183  0.3054
36832SOL     OW14857   8.879   4.280   4.811 -0.2091  0.1831 -0.1736
36832SOL    HW114858   8.892   4.327   4.894 -1.9490 -3.1354  2.2280
36832SOL    HW214859   8.794   4.310   4.779 -0.1592  0.4878 -0.0237
36833SOL     OW14860   1.570  10.766   5.007  0.6167 -0.4934 -0.0781
36833SOL    HW114861   1.573  10.806   5.094  0.1489  0.7852 -0.6244
36833SOL    HW214862   1.575  10.672   5.023  0.0951 -0.2949  1.3519
36834SOL     OW14863   7.283   2.007   3.047  0.3686 -0.3855  0.0510
36834SOL    HW114864   7.301   1.915   3.066  0.1921 -0.8982 -1.9932
36834SOL    HW214865   7.284   2.013   2.952 -2.2318  1.1877 -0.0013
36835SOL     OW14866   0.576   0.181   7.249  0.3244 -0.3850 -0.4239
36835SOL    HW114867   0.595   0.124   7.174 -0.6007 -0.0254 -0.9439
36835SOL    HW214868   0.483   0.166   7.267  0.2731  0.3636 -0.0463
36836SOL     OW14869   3.683   8.118   1.816  0.2747 -0.0019 -0.0065
36836SOL    HW114870   3.733   8.106   1.896  0.0457 -2.2532 -0.1353
36836SOL    HW214871   3.641   8.033   1.801  0.5356  0.2482 -2.6598
36837SOL     OW14872   8.882   1.261   0.976  0.1811 -0.4770 -0.0182
36837SOL    HW114873   8.927   1.205   0.913  1.4129  0.2761  0.1791
36837SOL    HW214874   8.949   1.285   1.040  0.1129  2.4660 -0.9189
36838SOL     OW14875   5.639   1.751  10.330 -0.4178 -0.1891  0.1259
36838SOL    HW114876   5.628   1.831  10.279 -1.1449 -0.1542  0.3268
36838SOL    HW214877   5.633   1.780  10.421 -0.1696 -0.4036  0.2114
36839SOL     OW14878   4.944  10.804   1.776  0.4904 -0.0459 -0.2820
36839SOL    HW114879   4.993  10.738   1.825  2.8876  1.4559 -0.4711
36839SOL    HW214880   4.873  10.830   1.835  0.0667 -2.0351  0.1697
36840SOL     OW14881  10.545   1.437   1.221  0.0414 -0.1813 -0.4010
36840SOL    HW114882  10.484   1.511   1.219  0.7169  0.3888 -0.1292
36840SOL    HW214883  10.625   1.473   1.258  0.3928 -1.0445 -0.3082
36841SOL     OW14884   1.349   2.590   6.592 -0.4925  0.6513 -0.2791
36841SOL    HW114885   1.299   2.595   6.510 -1.8342  1.6086  0.5635
36841SOL    HW214886   1.347   2.497   6.615 -0.3562  0.4131 -1.1702
36842SOL     OW14887   2.521  10.244   9.249 -0.3988 -0.2529  0.3280
36842SOL    HW114888   2.567  10.310   9.303 -0.0347 -0.9822  0.9377
36842SOL    HW214889   2.591  10.202   9.199 -0.6046 -0.2895  0.0743
36843SOL     OW14890  10.827   7.313   3.800  0.2248 -0.4247 -0.0795
36843SOL    HW114891  10.782   7.239   3.761  1.2421 -0.8833 -0.4310
36843SOL    HW214892  10.774   7.389   3.777 -0.0263 -0.8760 -1.0112
36844SOL     OW14893   0.222   0.954   0.243 -0.0711 -0.2391 -0.2815
36844SOL    HW114894   0.282   0.950   0.317  2.5692 -1.0763 -2.3311
36844SOL    HW214895   0.202   1.047   0.233 -2.0115 -0.2299  2.4944
36845SOL     OW14896   9.518   1.651   8.448  0.0650  0.3262  0.1387
36845SOL    HW114897   9.467   1.574   8.472 -0.2327  0.8338  1.2029
36845SOL    HW214898   9.546   1.688   8.532  0.9837  0.8565 -0.3848
36846SOL     OW14899   5.013   0.353   6.779  0.3198 -0.3519 -0.6947
36846SOL    HW114900   4.972   0.293   6.718 -0.8718 -1.3561  1.0060
36846SOL    HW214901   5.026   0.302   6.859  2.6339  0.6540 -0.3482
36847SOL     OW14902   7.376   4.203   1.744 -0.3964 -0.2598 -0.0028
36847SOL    HW114903   7.368   4.290   1.783 -0.8532 -0.5056  0.4605
36847SOL    HW214904   7.469   4.196   1.719 -0.3250  0.2943  0.1002
36848SOL     OW14905   2.984   4.680   2.014  0.1616  0.3730  0.3296
36848SOL    HW114906   2.954   4.770   2.000 -3.4173 -0.5391  1.0046
36848SOL    HW214907   2.958   4.633   1.935  0.8194 -0.3208  0.5147
36849SOL     OW14908   1.685   5.354   8.566  0.0767  0.4647 -0.4989
36849SOL    HW114909   1.628   5.277   8.569  0.6713  0.0133 -0.7781
36849SOL    HW214910   1.663   5.398   8.484  0.2214  0.2214 -0.6664
36850SOL     OW14911   6.018   1.410   8.726  0.2693 -0.0601  0.3032
36850SOL    HW114912   6.027   1.475   8.657  1.3181 -1.5793 -1.0606
36850SOL    HW214913   5.934   1.367   8.708  0.8845 -0.9625 -0.5376
36851SOL     OW14914  11.050   8.125  10.697  0.0478  0.3720  0.0405
36851SOL    HW114915  11.052   8.144  10.603  0.1092  0.0009 -0.0339
36851SOL    HW214916  11.008   8.201  10.736 -0.7940  0.1328 -0.3838
36852SOL     OW14917   7.400   1.760   4.240  0.3304 -0.1660  0.1022
36852SOL    HW114918   7.330   1.724   4.295 -0.9417 -0.3587 -1.5678
36852SOL    HW214919   7.358   1.776   4.155  2.5324 -1.2231 -1.2777
36853SOL     OW14920   7.416   3.948   2.846  0.1693 -0.6965  0.3059
36853SOL    HW114921   7.341   3.889   2.838 -2.1760  2.2233 -1.2660
36853SOL    HW214922   7.478   3.917   2.780  0.2211 -2.9087  1.3233
36854SOL     OW14923  10.817   2.625   0.308 -0.9013 -0.0029  0.3172
36854SOL    HW114924  10.831   2.557   0.373 -0.0846 -0.5648 -0.4178
36854SOL    HW214925  10.900   2.674   0.306 -0.5292 -0.6279 -0.9964
36855SOL     OW14926   2.838   7.669  10.656  0.4334  0.0660  0.0782
36855SOL    HW114927   2.921   7.623  10.668  2.0111  2.9130  1.0266
36855SOL    HW214928   2.855   7.732  10.587 -0.4819  1.5717  1.1619
36856SOL     OW14929   0.818   8.809   6.160  0.4119 -0.4103  0.0628
36856SOL    HW114930   0.812   8.761   6.077  1.6969 -1.1240  0.3546
36856SOL    HW214931   0.912   8.824   6.172  0.1517  0.6891  0.8366
36857SOL     OW14932  10.492   3.558   0.992 -0.0231  0.5493  0.5550
36857SOL    HW114933  10.453   3.540   1.078  1.5890 -1.4361  0.9426
36857SOL    HW214934  10.583   3.579   1.011  0.3626  0.0563 -0.6783
36858SOL     OW14935   2.641   1.981   7.931 -0.6315 -0.5888  0.1186
36858SOL    HW114936   2.606   2.064   7.963 -2.7785 -1.1351 -0.6061
36858SOL    HW214937   2.667   1.999   7.841 -0.8232 -0.6159  0.0565
36859SOL     OW14938   2.008   0.906  10.614  0.0276 -0.2452  0.0657
36859SOL    HW114939   1.922   0.898  10.572  0.3820 -1.7454 -0.4347
36859SOL    HW214940   2.067   0.856  10.558  0.5354 -2.2964  2.2263
36860SOL     OW14941   5.959   1.268   1.430 -0.2797 -0.0671 -0.1953
36860SOL    HW114942   6.001   1.234   1.351 -1.5879  2.8765 -2.3646
36860SOL    HW214943   5.887   1.208   1.447  1.3548 -2.0106  0.2181
36861SOL     OW14944   3.981   7.967   2.388  0.2140  0.2935  0.1095
36861SOL    HW114945   4.011   8.058   2.391 -1.2871  0.8519 -0.6095
36861SOL    HW214946   4.057   7.917   2.360  0.9049  1.4130 -0.0711
36862SOL     OW14947  10.171   1.875   6.964 -0.5381 -0.0535 -0.1295
36862SOL    HW114948  10.180   1.838   7.052  0.4994 -0.3615 -0.3550
36862SOL    HW214949  10.237   1.829   6.912 -0.9036  0.3772 -0.9907
36863SOL     OW14950   7.648   8.830   6.439 -0.0515  0.2298 -0.0217
36863SOL    HW114951   7.685   8.878   6.364  2.0333 -2.9072 -1.2052
36863SOL    HW214952   7.721   8.823   6.501 -0.4183 -1.0117  0.2903
36864SOL     OW14953   1.578   9.605   6.997  0.4651 -0.8401  0.0996
36864SOL    HW114954   1.558   9.629   7.087 -1.4381  0.2423 -0.5540
36864SOL    HW214955   1.671   9.626   6.987  0.3119  0.6521  1.3374
36865SOL     OW14956   8.668   3.050   1.992  0.0429  0.2985  0.1234
36865SOL    HW114957   8.734   3.041   2.061  0.1996  1.4264  0.1325
36865SOL    HW214958   8.585   3.053   2.040 -0.3081 -3.2456  0.0270
36866SOL     OW14959   1.137   2.488   0.465  0.5745 -0.2110 -0.0111
36866SOL    HW114960   1.211   2.494   0.404  1.3321  0.9570  0.9782
36866SOL    HW214961   1.164   2.420   0.527 -0.5997 -2.0845 -1.4329
36867SOL     OW14962   0.017  10.707  10.413 -0.0297  0.1233 -0.3541
36867SOL    HW114963  -0.015  10.722  10.502 -0.8816 -1.9880 -0.2493
36867SOL    HW214964  -0.044  10.754  10.357  0.1333  0.9356  0.1371
36868SOL     OW14965   7.410  10.486   5.595 -0.4204  0.5192 -0.7048
36868SOL    HW114966   7.455  10.529   5.522 -1.3507 -0.8593 -2.1702
36868SOL    HW214967   7.342  10.548   5.620 -0.6712  0.6415 -1.6329
36869SOL     OW14968   2.902   1.074   1.763 -0.4119 -0.0447 -0.6643
36869SOL    HW114969   2.955   1.137   1.715 -0.4391 -1.4037 -2.6215
36869SOL    HW214970   2.964   1.022   1.814 -0.1678  0.1997 -0.7157
36870SOL     OW14971   0.685  10.995   7.798 -0.2443 -0.0069  0.0649
36870SOL    HW114972   0.625  11.062   7.832  1.6079  1.7608  0.0612
36870SOL    HW214973   0.735  11.040   7.731  1.1559 -1.3831  0.1247
36871SOL     OW14974   2.961   9.667   0.359 -0.5309 -0.0146 -0.8574
36871SOL    HW114975   2.945   9.618   0.440  2.0141 -0.2052 -0.3945
36871SOL    HW214976   2.941   9.758   0.382  0.8440  0.0471  0.2736
36872SOL     OW14977   6.788   0.444   7.746  0.1075 -0.9878 -0.8114
36872SOL    HW114978   6.747   0.470   7.663  0.1615  0.5542 -0.3929
36872SOL    HW214979   6.719   0.397   7.793 -0.7299  0.2413 -0.7552
36873SOL     OW14980   6.479  10.810   3.635  0.4940 -0.0511  0.5468
36873SOL    HW114981   6.569  10.844   3.636  0.2736  0.5920 -0.4565
36873SOL    HW214982   6.457  10.800   3.728  0.8728  1.7876  0.8892
36874SOL     OW14983   5.237   6.176  10.961  0.0037  0.3380  0.4546
36874SOL    HW114984   5.150   6.176  11.000 -0.1120 -0.0900  0.2045
36874SOL    HW214985   5.271   6.264  10.977 -0.3884  0.4400  0.7396
36875SOL     OW14986   0.256   6.284   9.767 -0.2870  0.5867  0.7427
36875SOL    HW114987   0.342   6.285   9.724 -1.0919  1.4250 -0.9233
36875SOL    HW214988   0.276   6.300   9.860  1.3330  1.0147  0.3607
36876SOL     OW14989   9.551  10.689   3.380 -0.0756  0.0098  0.7463
36876SOL    HW114990   9.645  10.693   3.363 -0.1594  2.5223  0.5318
36876SOL    HW214991   9.511  10.731   3.304 -1.5342 -2.2800  0.1539
36877SOL     OW14992  10.397  10.769  10.030  0.3255 -0.3687 -0.6012
36877SOL    HW114993  10.332  10.786   9.963 -0.8980  0.1354  0.6669
36877SOL    HW214994  10.357  10.799  10.112  0.5744 -3.4745  0.8304
36878SOL     OW14995   1.502   5.962   8.002 -0.2711 -0.1682  0.2553
36878SOL    HW114996   1.513   6.045   8.050  0.2392 -1.0542  1.7442
36878SOL    HW214997   1.546   5.977   7.918  0.3183  0.8814  0.7238
36879SOL     OW14998   5.453   1.785   6.341 -0.4077  0.3655 -0.4883
36879SOL    HW114999   5.422   1.773   6.251 -0.9790 -0.2506 -0.2193
36879SOL    HW215000   5.547   1.804   6.332 -0.4403  0.2092 -1.2067
36880SOL     OW15001   9.643   0.430   2.689  1.0123 -0.6654  0.5277
36880SOL    HW115002   9.709   0.496   2.669  0.3588 -0.5359 -1.3833
36880SOL    HW215003   9.563   0.479   2.708  0.9840 -0.8792  0.9996
36881SOL     OW15004   9.740   3.104   1.284 -0.5332 -0.4569  0.0482
36881SOL    HW115005   9.724   3.163   1.210  0.0140 -0.8251 -0.3657
36881SOL    HW215006   9.671   3.126   1.347  0.8440  2.0792  0.8071
36882SOL     OW15007   1.089  10.480   6.343  0.0940 -0.1568  0.0092
36882SOL    HW115008   1.051  10.429   6.414  0.7326  1.5487  1.6730
36882SOL    HW215009   1.182  10.456   6.343  0.4329  1.0737  0.9188
36883SOL     OW15010   5.862   6.895   9.883  0.2488  0.4630  0.4157
36883SOL    HW115011   5.852   6.827   9.816  1.2717 -1.1300  1.8077
36883SOL    HW215012   5.798   6.962   9.858 -1.6607 -1.5190 -0.3887
36884SOL     OW15013   7.714   6.947   0.480 -0.6333 -0.4279  0.1366
36884SOL    HW115014   7.712   7.043   0.476 -0.2248 -0.4470 -0.8171
36884SOL    HW215015   7.624   6.922   0.504 -1.1247  0.1451 -1.0499
36885SOL     OW15016   6.236   9.448   7.148 -0.0607 -0.3615 -0.1191
36885SOL    HW115017   6.245   9.441   7.053 -1.2587  0.7861 -0.3514
36885SOL    HW215018   6.225   9.542   7.165 -1.6772 -0.6909  0.9431
36886SOL     OW15019  10.255   6.322   3.198  0.1605  0.2240  0.3209
36886SOL    HW115020  10.295   6.312   3.285 -0.9897  0.2551  0.8821
36886SOL    HW215021  10.218   6.236   3.179  0.5386  0.1794 -0.2095
36887SOL     OW15022   7.864   4.391   7.814  0.3700 -0.0538  0.3453
36887SOL    HW115023   7.828   4.384   7.725  0.1737 -0.9974  0.4921
36887SOL    HW215024   7.896   4.303   7.834  2.0797  0.5711  0.5135
36888SOL     OW15025   0.183   8.290   9.513  0.1976 -0.3100  0.2083
36888SOL    HW115026   0.128   8.356   9.555 -1.3558 -0.2237 -1.7998
36888SOL    HW215027   0.270   8.330   9.512 -0.1684  0.5734  1.3732
36889SOL     OW15028   2.720   1.355   8.548 -1.1046 -0.6388 -0.3471
36889SOL    HW115029   2.791   1.325   8.491  0.2302  2.2026 -0.3169
36889SOL    HW215030   2.646   1.368   8.489 -0.7642 -0.9096 -0.8432
36890SOL     OW15031  10.095   3.566   7.670 -0.5220 -0.6093 -0.5441
36890SOL    HW115032  10.142   3.646   7.647 -0.7149 -0.4314 -0.3281
36890SOL    HW215033  10.140   3.533   7.748 -1.0155 -0.2079 -0.0839
36891SOL     OW15034  10.924   1.654   2.912 -0.4764 -0.2728 -0.3515
36891SOL    HW115035  10.973   1.576   2.886  0.9931  0.4643  0.0910
36891SOL    HW215036  10.966   1.682   2.993 -1.5863  0.4621 -0.0069
36892SOL     OW15037   7.479   4.703  10.765  0.5647 -0.3179 -0.5573
36892SOL    HW115038   7.492   4.614  10.732 -1.7075 -1.6890  1.8598
36892SOL    HW215039   7.521   4.702  10.852  0.2023  0.8771 -0.3543
36893SOL     OW15040   1.599  10.981   5.562  0.1090  0.0052  0.0638
36893SOL    HW115041   1.550  10.994   5.643  0.0867 -0.2973  0.0974
36893SOL    HW215042   1.614  11.070   5.530 -2.3106  0.0672 -1.0860
36894SOL     OW15043   4.021   1.232   3.676  0.3885  0.0350 -0.2019
36894SOL    HW115044   4.101   1.223   3.624  0.2633 -0.4702 -0.3159
36894SOL    HW215045   3.988   1.319   3.655  0.9784  0.2958 -0.0529
36895SOL     OW15046   4.511   5.847   8.332  0.0384 -0.1350  0.6692
36895SOL    HW115047   4.560   5.790   8.272 -2.7140 -2.6508  0.6012
36895SOL    HW215048   4.561   5.843   8.414  0.6008 -1.6461  0.2904
36896SOL     OW15049   1.239   3.942   9.479  0.3605  0.3640  0.1556
36896SOL    HW115050   1.227   3.978   9.391  1.1333  1.3040  0.4169
36896SOL    HW215051   1.279   3.856   9.464  0.5408  0.5382 -0.4151
36897SOL     OW15052   2.706   2.958   6.739  0.1068  0.2709 -0.5675
36897SOL    HW115053   2.734   3.029   6.797 -2.0130  0.1206  0.7448
36897SOL    HW215054   2.784   2.903   6.730  0.5320  0.2480  2.2762
36898SOL     OW15055   3.475   9.816   9.043 -0.1530  0.0227 -0.0973
36898SOL    HW115056   3.471   9.742   9.103 -2.0654 -0.0858 -0.3128
36898SOL    HW215057   3.514   9.780   8.963 -2.3068 -1.1796 -0.6947
36899SOL     OW15058   9.495   1.609   6.680  0.0649 -0.1380  0.3207
36899SOL    HW115059   9.544   1.550   6.624  0.0564 -1.2889  1.4755
36899SOL    HW215060   9.428   1.554   6.721 -0.5109  0.8552  0.7614
36900SOL     OW15061   3.285   2.152   6.654  1.0093 -0.1219  0.1317
36900SOL    HW115062   3.234   2.073   6.671  0.3283  0.0040 -1.1862
36900SOL    HW215063   3.267   2.209   6.728 -1.5917  0.3150 -0.7639
36901SOL     OW15064   5.582   8.248   2.729  0.1317 -0.1788  0.0430
36901SOL    HW115065   5.654   8.262   2.668 -0.4975 -0.9409 -0.8880
36901SOL    HW215066   5.571   8.333   2.772  1.3167  0.0586 -0.0754
36902SOL     OW15067   7.970   0.971   5.175 -0.0975  0.1575  0.2006
36902SOL    HW115068   7.997   0.920   5.098 -0.5295 -0.4585  0.4562
36902SOL    HW215069   8.033   0.947   5.243 -1.0421 -0.9815  0.6819
36903SOL     OW15070   5.573   2.448   4.679  0.3683 -0.2340  0.2588
36903SOL    HW115071   5.594   2.522   4.735 -0.6059  0.2749 -0.0163
36903SOL    HW215072   5.548   2.378   4.739 -0.6048  0.2870  0.4765
36904SOL     OW15073   3.697   8.749   7.397  0.1254 -0.4475 -0.1955
36904SOL    HW115074   3.709   8.804   7.320  0.9352  0.3974  0.5191
36904SOL    HW215075   3.631   8.794   7.449  1.8443  0.6771  1.0969
36905SOL     OW15076   0.202   2.098   5.319  0.0878  0.0599 -0.1447
36905SOL    HW115077   0.127   2.076   5.375  2.4999 -3.5224  2.1919
36905SOL    HW215078   0.210   2.023   5.260  1.4866  0.5821 -0.6606
36906SOL     OW15079   4.722   0.505   7.861 -0.0169  0.4691 -0.2265
36906SOL    HW115080   4.787   0.541   7.921 -1.6836  0.3243  1.7468
36906SOL    HW215081   4.697   0.579   7.805 -0.5127  1.3738  1.1584
36907SOL     OW15082   6.006   0.366   2.184  0.2352  0.1223  0.4302
36907SOL    HW115083   6.038   0.418   2.258 -0.8832  0.9683  0.3499
36907SOL    HW215084   5.921   0.405   2.163  0.9705  0.6005 -1.9922
36908SOL     OW15085   1.793  10.379   5.872  0.3866 -0.5371  0.1565
36908SOL    HW115086   1.795  10.441   5.799  0.6306 -1.6885 -0.8344
36908SOL    HW215087   1.856  10.312   5.849  0.8467 -0.6781  1.6758
36909SOL     OW15088   0.148   6.985   5.194  0.2049 -0.6032  0.0205
36909SOL    HW115089   0.182   6.896   5.192  2.1443  0.0386  1.3197
36909SOL    HW215090   0.134   7.008   5.102  0.3846 -1.9776 -0.3693
36910SOL     OW15091   5.566   5.954  10.216  0.2925 -0.0761  0.2891
36910SOL    HW115092   5.624   6.028  10.233  0.0118  0.4719 -0.9877
36910SOL    HW215093   5.581   5.933  10.123 -1.4567  0.0148 -0.0400
36911SOL     OW15094   7.150   1.089   4.916 -0.1061  0.0901 -0.1452
36911SOL    HW115095   7.216   1.048   4.972  1.4003  1.0125 -1.1745
36911SOL    HW215096   7.163   1.183   4.929 -1.2910  0.2887 -0.3066
36912SOL     OW15097   1.008   7.043   9.645  0.3463  0.2165 -0.0793
36912SOL    HW115098   1.038   7.080   9.729 -1.8758 -1.0293  1.3731
36912SOL    HW215099   0.953   6.970   9.670 -1.0799  0.3064 -2.6478
36913SOL     OW15100   3.952   7.094   8.296 -0.0331  0.0675 -0.6667
36913SOL    HW115101   3.950   7.030   8.368 -0.5863  0.7481 -0.0572
36913SOL    HW215102   3.882   7.066   8.238  0.2650 -0.3514 -0.8356
36914SOL     OW15103   7.414  10.303   4.056 -0.1664 -0.2527 -0.1833
36914SOL    HW115104   7.370  10.284   3.973 -1.2673  2.0768 -0.2131
36914SOL    HW215105   7.353  10.360   4.103  1.1541 -0.1535  1.5186
36915SOL     OW15106   4.451  10.938   2.535  0.8041  0.2799 -0.3940
36915SOL    HW115107   4.482  10.917   2.623 -0.7247  1.6310  0.5268
36915SOL    HW215108   4.471  11.031   2.524  0.8068  0.1646 -1.3895
36916SOL     OW15109   6.098   3.469   0.781 -0.0285  0.3091 -0.0452
36916SOL    HW115110   6.136   3.548   0.741 -0.8881  0.2980 -0.9159
36916SOL    HW215111   6.038   3.501   0.847 -1.7116  0.4750 -1.5896
36917SOL     OW15112   9.561   1.857   6.650  0.1570  0.5483 -0.6665
36917SOL    HW115113   9.485   1.868   6.593 -1.0089 -0.3726  0.6190
36917SOL    HW215114   9.565   1.763   6.668  0.5091  0.7898  0.6930
36918SOL     OW15115   2.204   4.058   2.367 -0.2492  0.2490 -0.3607
36918SOL    HW115116   2.281   4.022   2.323 -0.3919 -3.2347  1.8661
36918SOL    HW215117   2.129   4.028   2.316 -0.2696  1.1157 -0.8653
36919SOL     OW15118   2.064   2.344   5.707  0.6939  0.5598  0.0954
36919SOL    HW115119   1.975   2.336   5.674  0.7446 -3.6797  0.4133
36919SOL    HW215120   2.115   2.371   5.631 -0.3241 -1.2672 -1.3271
36920SOL     OW15121   9.161   3.935   9.694 -0.0303 -0.5673 -0.0065
36920SOL    HW115122   9.067   3.946   9.680  0.3150  1.1988 -1.2981
36920SOL    HW215123   9.189   3.877   9.623 -0.1845 -1.3766  0.5855
36921SOL     OW15124   0.062   3.992   9.521 -0.0512 -0.5143 -0.1443
36921SOL    HW115125   0.078   4.077   9.479 -2.0127 -0.4190 -0.8360
36921SOL    HW215126   0.133   3.936   9.490  1.3063  0.8595  0.3593
36922SOL     OW15127   7.922   8.459   5.657 -0.1161  0.5639  0.3640
36922SOL    HW115128   7.965   8.469   5.572  0.6005  0.3544  0.6988
36922SOL    HW215129   7.918   8.547   5.692 -0.2925  0.6323  0.1770
36923SOL     OW15130   6.208   8.865   4.826 -0.6159  0.3948 -0.4335
36923SOL    HW115131   6.201   8.959   4.812  0.8903  0.7424  0.8578
36923SOL    HW215132   6.174   8.851   4.915  0.2723 -0.0982 -0.1597
36924SOL     OW15133   8.093   2.360   5.897 -0.1819  0.2796 -0.3644
36924SOL    HW115134   8.174   2.324   5.933 -0.2400  0.3206 -0.1949
36924SOL    HW215135   8.023   2.309   5.937 -0.3733  1.7601  1.2922
36925SOL     OW15136   0.366   0.871   6.234  0.0432  0.0773 -0.2762
36925SOL    HW115137   0.289   0.910   6.276 -2.0181 -2.6286 -1.2201
36925SOL    HW215138   0.415   0.831   6.306 -0.3744  0.3289  0.1562
36926SOL     OW15139   8.689   9.487   3.337  0.3540 -0.4794 -0.2967
36926SOL    HW115140   8.687   9.476   3.242  0.4111  2.9319 -0.8370
36926SOL    HW215141   8.622   9.554   3.355 -1.9878 -3.2381  2.5696
36927SOL     OW15142   3.811   9.037   1.806 -0.4066  0.0637  0.0406
36927SOL    HW115143   3.739   9.037   1.742 -0.6586 -1.1657  0.2996
36927SOL    HW215144   3.778   9.091   1.878 -1.0094 -0.3353  0.0750
36928SOL     OW15145  10.287   1.187   1.523 -0.2908 -0.7049  0.2296
36928SOL    HW115146  10.368   1.155   1.484 -0.4020 -0.4186 -0.2375
36928SOL    HW215147  10.254   1.251   1.461 -0.9157 -0.8723  0.3859
36929SOL     OW15148   3.075   8.463   6.547  0.0819  0.3118 -0.2652
36929SOL    HW115149   3.132   8.518   6.601  0.5997  0.4068 -0.8972
36929SOL    HW215150   2.987   8.499   6.563  0.3932  1.2505 -0.5673
36930SOL     OW15151  11.086  10.757   3.735  0.4868  0.2648  0.2585
36930SOL    HW115152  11.016  10.752   3.800 -0.5817  2.4615 -0.6392
36930SOL    HW215153  11.144  10.825   3.767  2.7824 -2.0674  1.4033
36931SOL     OW15154   0.792   0.504   8.736 -0.1887 -0.3888 -0.1823
36931SOL    HW115155   0.808   0.481   8.827 -0.2776 -1.4756 -0.4296
36931SOL    HW215156   0.715   0.561   8.739  0.2218  0.1428  0.4734
36932SOL     OW15157   6.290   2.567   7.862  0.4637  0.0522 -0.2008
36932SOL    HW115158   6.288   2.522   7.777  0.9565  1.0034 -0.7297
36932SOL    HW215159   6.285   2.660   7.840  1.5214  0.3552  0.7624
36933SOL     OW15160  10.427   3.962   7.336 -0.2083  0.2825 -0.8876
36933SOL    HW115161  10.394   3.912   7.262 -0.4216 -0.1938 -0.4700
36933SOL    HW215162  10.419   4.054   7.308 -0.9470  0.1346 -1.1747
36934SOL     OW15163  10.781   9.138   7.616 -0.2011  0.5002  0.2547
36934SOL    HW115164  10.766   9.192   7.694 -0.4634 -0.4262  0.8544
36934SOL    HW215165  10.865   9.096   7.631 -0.6655 -0.3850  0.4727
36935SOL     OW15166   0.169   8.602   4.187  0.3310  0.8928  0.0683
36935SOL    HW115167   0.160   8.528   4.127  0.1508 -0.2413  1.4420
36935SOL    HW215168   0.156   8.679   4.132  0.1855 -0.0974 -1.3418
36936SOL     OW15169  11.023   4.455   5.451  0.8022 -0.0526  0.7590
36936SOL    HW115170  11.093   4.394   5.477 -1.4994 -2.2190  2.3472
36936SOL    HW215171  10.983   4.482   5.534  0.1792  1.7379 -0.0677
36937SOL     OW15172   7.973   5.704   4.727  0.7742 -0.6576  0.0118
36937SOL    HW115173   8.019   5.648   4.789  1.3413  0.3108  0.4933
36937SOL    HW215174   7.896   5.734   4.775  1.2667  0.1744  0.3099
36938SOL     OW15175   2.678   5.582   8.016  0.8227 -0.4061  0.3383
36938SOL    HW115176   2.596   5.590   8.064 -0.6284 -1.1600 -1.8669
36938SOL    HW215177   2.725   5.663   8.034 -1.6438  1.3069 -0.4691
36939SOL     OW15178   7.034   8.680   1.759 -0.6401  0.2222 -0.1121
36939SOL    HW115179   6.956   8.731   1.780 -0.2293  1.0969 -0.6448
36939SOL    HW215180   7.107   8.734   1.789 -0.2475 -1.0075  1.2466
36940SOL     OW15181   4.427   8.374   7.711  0.1658 -0.0944 -0.1379
36940SOL    HW115182   4.352   8.320   7.685 -0.0176  0.2693 -0.3825
36940SOL    HW215183   4.420   8.452   7.655  1.1963 -0.4272 -0.7496
36941SOL     OW15184   6.241   4.275   7.042  0.2590 -0.1100  0.5554
36941SOL    HW115185   6.270   4.185   7.027  1.5453  0.2884  0.5384
36941SOL    HW215186   6.299   4.328   6.989 -1.1025  0.6906 -0.1863
36942SOL     OW15187   9.254   5.012   8.646  0.4051  0.3510 -0.0096
36942SOL    HW115188   9.202   4.955   8.702 -0.4529  0.0644 -1.0492
36942SOL    HW215189   9.324   5.044   8.702  0.3694 -0.9905  0.8471
36943SOL     OW15190  11.093   3.352   3.111  0.0982  0.1858 -0.1351
36943SOL    HW115191  11.098   3.268   3.156 -1.6987 -0.5376 -1.1783
36943SOL    HW215192  11.175   3.358   3.062 -0.2294 -1.5266 -0.9608
36944SOL     OW15193   8.044  10.571   0.393 -0.5510  0.2467 -0.1952
36944SOL    HW115194   8.023  10.663   0.378  1.2831  1.1037  1.9802
36944SOL    HW215195   8.132  10.561   0.357 -0.2619 -0.3190  0.6359
36945SOL     OW15196   4.309   9.356   7.376 -0.2386  0.6342 -0.5981
36945SOL    HW115197   4.335   9.428   7.320  0.5661 -1.4121 -3.0120
36945SOL    HW215198   4.391   9.320   7.410 -0.5396  0.0192 -0.5039
36946SOL     OW15199   8.135   9.704   3.447 -0.3912 -0.2913 -0.2506
36946SOL    HW115200   8.208   9.676   3.502  0.2157 -0.3785 -1.0875
36946SOL    HW215201   8.061   9.652   3.478  0.1407 -0.9787 -0.0901
36947SOL     OW15202   6.331  10.147   2.845 -0.3729 -0.2235 -0.6461
36947SOL    HW115203   6.325  10.195   2.763 -0.2724 -0.0969 -0.5798
36947SOL    HW215204   6.379  10.206   2.904 -1.9290  0.4138  0.0373
36948SOL     OW15205   9.300   3.175   8.379 -0.2892 -0.9566  0.8118
36948SOL    HW115206   9.317   3.098   8.434  2.8505  0.0758  1.4768
36948SOL    HW215207   9.372   3.235   8.399  0.1449  0.1655 -3.2421
36949SOL     OW15208   1.451   7.023   5.708  0.3630  0.0557 -0.3319
36949SOL    HW115209   1.495   6.988   5.629 -0.2461  0.4779 -0.8667
36949SOL    HW215210   1.484   6.968   5.779  0.6898 -0.5428 -0.9244
36950SOL     OW15211   8.659   3.123   1.259 -0.8705 -0.1563 -0.0914
36950SOL    HW115212   8.710   3.183   1.313  0.1183  0.1761 -1.3505
36950SOL    HW215213   8.681   3.146   1.169 -0.8348 -2.0850 -0.6248
36951SOL     OW15214   1.638   4.716   2.189  0.1121  0.3513  0.3287
36951SOL    HW115215   1.607   4.631   2.159  0.9757  0.0863  0.1327
36951SOL    HW215216   1.559   4.767   2.206 -0.4223  0.0091 -0.9820
36952SOL     OW15217   4.195   6.405   3.577 -0.4721 -0.9108 -0.4264
36952SOL    HW115218   4.105   6.436   3.569 -0.4236 -0.4249  0.6704
36952SOL    HW215219   4.242   6.446   3.505 -1.3857 -2.2619 -1.8557
36953SOL     OW15220   5.474  10.181   5.426 -0.0142  0.4361  0.1764
36953SOL    HW115221   5.381  10.202   5.435 -0.4597 -1.5451  0.4889
36953SOL    HW215222   5.495  10.203   5.335 -1.4271 -1.3231 -0.6346
36954SOL     OW15223   9.064   0.558   8.984 -0.2183  0.4421 -0.4881
36954SOL    HW115224   9.057   0.470   8.946 -0.1643 -0.1738  0.8715
36954SOL    HW215225   9.071   0.543   9.078 -1.6871  1.9763 -0.0830
36955SOL     OW15226   1.101   9.004   0.661  0.8942  0.0433 -0.3222
36955SOL    HW115227   1.196   8.992   0.664  1.1439  1.4312 -1.6475
36955SOL    HW215228   1.078   9.038   0.748  1.4690 -1.0420  0.2793
36956SOL     OW15229   5.618   4.360   3.169  0.2148  0.1133 -0.1263
36956SOL    HW115230   5.655   4.289   3.222 -0.4893 -0.0760  0.1259
36956SOL    HW215231   5.644   4.339   3.080  2.8934  1.3404  0.2627
36957SOL     OW15232   3.324   5.945   4.011 -0.0403  0.1075 -0.0545
36957SOL    HW115233   3.412   5.964   4.044 -0.2863  0.5717  0.3623
36957SOL    HW215234   3.271   6.020   4.041 -0.9360 -0.9427  1.1232
36958SOL     OW15235   7.834   2.670   5.041 -0.2640  0.0636 -0.2272
36958SOL    HW115236   7.763   2.684   4.979  0.3008  0.1104 -0.8695
36958SOL    HW215237   7.790   2.644   5.122 -1.0179  0.2198 -0.5783
36959SOL     OW15238   4.528   3.190   9.202 -0.2750  0.0739 -0.2140
36959SOL    HW115239   4.623   3.195   9.193 -0.2233  1.0293  0.6861
36959SOL    HW215240   4.502   3.276   9.235 -1.4799 -0.1106 -0.6131
36960SOL     OW15241  10.051   6.738   3.714 -0.6274  0.5029  0.2971
36960SOL    HW115242   9.977   6.738   3.775 -0.5946 -0.5537  0.3518
36960SOL    HW215243  10.021   6.685   3.640 -0.4951  1.3825 -0.3997
36961SOL     OW15244   4.220   8.772   6.157 -0.4073 -0.0451 -0.4601
36961SOL    HW115245   4.179   8.840   6.104 -1.1687 -0.7034 -0.7421
36961SOL    HW215246   4.179   8.690   6.126 -2.1452 -0.3319  2.2416
36962SOL     OW15247   0.200   1.759   2.001 -0.2640 -0.5454  0.2489
36962SOL    HW115248   0.211   1.819   1.928 -0.1144  0.4651  1.0908
36962SOL    HW215249   0.283   1.711   2.006  0.3331  0.5121  0.7456
36963SOL     OW15250   9.554   4.646   9.966  0.0660  0.4727  0.2918
36963SOL    HW115251   9.547   4.697   9.885 -0.2502  1.6371  1.0275
36963SOL    HW215252   9.648   4.632   9.977  0.0887  0.0009 -0.4574
36964SOL     OW15253   2.821   5.687   1.911 -0.5561 -0.0183 -0.1788
36964SOL    HW115254   2.899   5.640   1.882 -0.4903  1.2398 -2.1944
36964SOL    HW215255   2.824   5.680   2.007  2.7203  0.9941 -0.0645
36965SOL     OW15256   3.079   5.243   1.766  0.0796 -0.3973  0.4595
36965SOL    HW115257   3.033   5.201   1.693  0.3120  1.6456 -0.9507
36965SOL    HW215258   3.062   5.186   1.841  0.3794 -2.9657 -1.2870
36966SOL     OW15259   1.339   7.637   1.670 -0.3325 -0.8009 -0.4953
36966SOL    HW115260   1.289   7.675   1.598  1.1951  0.1645 -1.1123
36966SOL    HW215261   1.273   7.605   1.731 -1.6998  0.6114 -1.1468
36967SOL     OW15262   4.489   8.800   4.167 -0.3089  0.1206 -0.1336
36967SOL    HW115263   4.523   8.742   4.236  0.6712  0.3941 -0.3668
36967SOL    HW215264   4.407   8.833   4.203 -0.3023 -0.4964  0.4976
36968SOL     OW15265   7.845   3.732   1.383 -0.0169 -1.2159 -0.2281
36968SOL    HW115266   7.860   3.720   1.477 -3.0814 -0.1448  0.5259
36968SOL    HW215267   7.866   3.825   1.367  0.7114 -1.4504 -0.6806
36969SOL     OW15268   1.767   9.466   6.154  0.3675 -0.3325  0.4256
36969SOL    HW115269   1.725   9.447   6.070 -1.7297 -1.2109  1.6290
36969SOL    HW215270   1.784   9.381   6.193  1.7232  0.0581  0.7704
36970SOL     OW15271   6.216   1.066  10.243 -0.1477  0.8010 -0.8896
36970SOL    HW115272   6.143   1.037  10.298  1.5381 -1.8887  0.1396
36970SOL    HW215273   6.258   1.135  10.294 -0.4457  0.5219 -0.2572
36971SOL     OW15274   5.711  11.075   5.369  0.1332 -0.0612 -0.2865
36971SOL    HW115275   5.804  11.072   5.391 -0.0765  0.3252  0.6648
36971SOL    HW215276   5.677  10.989   5.393 -0.5488  0.9908  3.1155
36972SOL     OW15277  10.198  10.946   1.030  0.7289  0.1607  0.5587
36972SOL    HW115278  10.125  11.007   1.045  0.3660 -0.7003  2.5843
36972SOL    HW215279  10.213  10.905   1.115  1.6614 -1.8111 -0.4896
36973SOL     OW15280   2.893   2.229   7.850  0.5634  0.5595  0.2027
36973SOL    HW115281   2.837   2.187   7.784  1.7598 -0.3935 -0.2423
36973SOL    HW215282   2.929   2.306   7.805  0.8612  0.2759 -0.0544
36974SOL     OW15283   9.433   5.934   7.215  0.5985  0.1453  0.3394
36974SOL    HW115284   9.460   5.999   7.280  0.6608  0.9656 -0.4740
36974SOL    HW215285   9.515   5.906   7.175  0.4413  1.1328 -0.7385
36975SOL     OW15286   5.894   9.220   1.906 -0.4616 -0.0261 -0.5077
36975SOL    HW115287   5.848   9.268   1.975 -1.4608 -0.9280 -0.5262
36975SOL    HW215288   5.927   9.289   1.848  0.2657  0.7430  0.7514
36976SOL     OW15289   8.558   6.454   1.312 -0.4472  0.0097 -0.1386
36976SOL    HW115290   8.597   6.382   1.261 -0.1747  0.4268 -0.5212
36976SOL    HW215291   8.494   6.493   1.253  0.2380  0.8266 -0.3595
36977SOL     OW15292   3.879   5.116   7.862 -0.3945  0.0568 -0.0851
36977SOL    HW115293   3.806   5.069   7.902 -0.9629  1.0093  0.0379
36977SOL    HW215294   3.951   5.108   7.925 -0.4025 -0.8200 -0.1738
36978SOL     OW15295   6.487   6.414   7.775  0.1306 -0.8920  0.2311
36978SOL    HW115296   6.500   6.338   7.718  0.2558 -0.7692  0.0983
36978SOL    HW215297   6.528   6.487   7.729 -1.3562 -0.4041 -0.3934
36979SOL     OW15298   3.099   8.981   5.469 -0.7433 -0.1430 -0.0490
36979SOL    HW115299   3.100   9.023   5.382 -1.7528  0.5302  0.2411
36979SOL    HW215300   3.191   8.974   5.493 -0.3780 -1.2437 -1.5852
36980SOL     OW15301   4.220   1.745   6.042 -0.4543  0.2491 -0.0191
36980SOL    HW115302   4.286   1.685   6.076 -0.1584  0.1881 -0.7001
36980SOL    HW215303   4.137   1.698   6.051 -0.2555 -0.1646 -0.3164
36981SOL     OW15304   8.209   8.691  10.867  0.0806 -0.1911 -0.2080
36981SOL    HW115305   8.119   8.694  10.834  0.0859 -0.7344 -0.2762
36981SOL    HW215306   8.200   8.673  10.961  0.1579 -2.3407 -0.5658
36982SOL     OW15307   2.075   4.399   3.862 -0.1527  0.2439  0.1941
36982SOL    HW115308   2.168   4.407   3.840 -0.1958  0.1692 -0.0121
36982SOL    HW215309   2.066   4.309   3.896 -0.4544 -0.2959 -1.2622
36983SOL     OW15310  10.390   7.171   6.260 -0.1602 -0.0862 -0.1058
36983SOL    HW115311  10.317   7.208   6.309  1.1377  0.5449  1.4224
36983SOL    HW215312  10.380   7.076   6.270 -1.3203 -0.0625 -0.7952
36984SOL     OW15313   1.146   0.085   2.472 -0.5563 -0.3190 -0.0803
36984SOL    HW115314   1.227   0.078   2.421 -0.3517  0.0408  0.1918
36984SOL    HW215315   1.157   0.020   2.542 -0.3352 -0.0045  0.1794
36985SOL     OW15316   4.708   7.069  10.992  0.2109  0.1457 -0.4611
36985SOL    HW115317   4.725   7.058  11.086 -1.5620 -1.8572 -0.2970
36985SOL    HW215318   4.790   7.044  10.950  0.8893  0.6406  0.5300
36986SOL     OW15319   4.939   8.975   9.335 -0.0867 -0.0205  0.2621
36986SOL    HW115320   5.012   9.024   9.299 -1.3732  1.1900 -0.8170
36986SOL    HW215321   4.870   8.983   9.269 -0.8824 -1.9559  0.7833
36987SOL     OW15322   5.289  10.953   5.968  0.1132  0.1312  0.3342
36987SOL    HW115323   5.205  10.908   5.981  0.5944 -0.3984  1.8647
36987SOL    HW215324   5.291  10.973   5.875  0.3005 -3.9541 -0.7227
36988SOL     OW15325   7.559   0.071   9.062 -0.8130  0.9289  0.6102
36988SOL    HW115326   7.501   0.056   8.988  1.0394 -2.1429 -0.4291
36988SOL    HW215327   7.508   0.045   9.139 -0.8406 -2.1757 -0.3188
36989SOL     OW15328   8.696   5.615   0.359  0.1060  0.2499 -0.3917
36989SOL    HW115329   8.710   5.609   0.453  0.9908 -0.8291 -0.5657
36989SOL    HW215330   8.602   5.599   0.348  0.1690 -0.6248  0.2408
36990SOL     OW15331   6.974   1.100   3.015 -0.5550  0.0636 -0.1888
36990SOL    HW115332   6.907   1.147   3.064  1.1367  1.1365  1.1762
36990SOL    HW215333   7.012   1.166   2.957  0.8923  0.0641  0.7340
36991SOL     OW15334   1.995   6.638   9.659  0.2915 -0.3432  0.2416
36991SOL    HW115335   1.940   6.574   9.614  0.8385 -1.7141  1.4175
36991SOL    HW215336   1.981   6.621   9.752 -1.3498  2.8571  0.7245
36992SOL     OW15337   6.628   0.741  10.170 -0.3263 -0.4267 -0.0948
36992SOL    HW115338   6.591   0.659  10.203 -1.0235 -0.3368 -0.6394
36992SOL    HW215339   6.582   0.810  10.217 -0.1020 -0.3315 -0.0100
36993SOL     OW15340   4.655   4.894  10.962 -0.1739  0.6359 -0.2474
36993SOL    HW115341   4.566   4.915  10.933 -0.0116  1.7696  0.0222
36993SOL    HW215342   4.658   4.923  11.054 -0.1475 -1.2857  0.3895
36994SOL     OW15343  10.870   7.508   8.762 -0.1002 -0.6200 -0.0130
36994SOL    HW115344  10.797   7.448   8.745 -0.4080 -0.4577  0.6932
36994SOL    HW215345  10.869   7.568   8.687 -1.6904  0.3396  0.7132
36995SOL     OW15346   1.953   5.125   9.501 -0.1864  0.1722  0.0405
36995SOL    HW115347   1.989   5.185   9.566  2.8377 -0.1543 -1.1447
36995SOL    HW215348   2.017   5.055   9.496 -0.2075  0.2401 -3.3073
36996SOL     OW15349   6.355   2.997   8.109  0.1790  0.0897  0.2136
36996SOL    HW115350   6.412   3.070   8.086 -1.6273  1.5123  0.0218
36996SOL    HW215351   6.375   2.978   8.200  1.2244  0.2859  0.0345
36997SOL     OW15352   9.943   0.010   0.314  0.5889 -0.2429  0.3695
36997SOL    HW115353   9.911   0.010   0.224  1.1448  0.6598  0.1649
36997SOL    HW215354   9.987  -0.074   0.324 -1.3827 -1.3273  0.5143
36998SOL     OW15355   6.691   0.152   5.062  0.6195 -0.3934  0.0089
36998SOL    HW115356   6.785   0.161   5.045  0.8560 -3.9423 -1.3248
36998SOL    HW215357   6.685   0.114   5.149  0.5326 -1.3613 -0.4062
36999SOL     OW15358   3.432   4.721   7.985  0.1907  0.2193  0.0569
36999SOL    HW115359   3.435   4.639   8.035 -0.0853  0.7096  0.9098
36999SOL    HW215360   3.428   4.789   8.053  1.4667  0.9920 -0.6152
37000SOL     OW15361   8.302  10.756   3.398  0.1593  0.2039 -1.1248
37000SOL    HW115362   8.357  10.831   3.374  3.0393 -1.6328 -0.7222
37000SOL    HW215363   8.254  10.785   3.476  0.2566  1.9908 -1.6846
37001SOL     OW15364   7.691   5.849   1.387  0.3459 -0.0716 -0.0073
37001SOL    HW115365   7.643   5.855   1.304  1.3389  0.4099 -0.5582
37001SOL    HW215366   7.732   5.935   1.398  1.2529 -0.5342  0.3362
37002SOL     OW15367   2.463  10.506   2.877 -0.0833 -0.1877  0.3200
37002SOL    HW115368   2.413  10.458   2.943 -0.3656 -0.8657 -0.3668
37002SOL    HW215369   2.534  10.548   2.926 -0.0280 -1.0404  0.9985
37003SOL     OW15370   5.011   4.262   2.985 -0.2590 -0.1738 -0.6846
37003SOL    HW115371   5.051   4.311   3.057 -1.1398  1.8591 -1.5128
37003SOL    HW215372   4.934   4.219   3.024  0.0009 -0.1489 -0.1453
37004SOL     OW15373   2.879   8.931   4.618  0.0319  0.0208 -0.5060
37004SOL    HW115374   2.817   8.875   4.663  1.1637 -0.8925 -0.0212
37004SOL    HW215375   2.845   9.020   4.630 -0.2795 -0.2980  1.2313
37005SOL     OW15376   1.726   8.032   3.401 -0.7188  0.5055  0.1104
37005SOL    HW115377   1.643   7.996   3.367 -1.0406  1.9806 -0.7391
37005SOL    HW215378   1.709   8.125   3.413  1.5016  1.3767 -2.4499
37006SOL     OW15379   6.630  10.173   0.600 -0.2771  0.2164  0.0418
37006SOL    HW115380   6.661  10.200   0.687 -0.4460  0.2217  0.1005
37006SOL    HW215381   6.662  10.083   0.591 -2.7535 -0.9057  1.3657
37007SOL     OW15382   3.801   5.493   6.975 -0.5677 -0.1859  0.3671
37007SOL    HW115383   3.822   5.423   6.914  0.5629 -0.7594  1.3655
37007SOL    HW215384   3.866   5.561   6.957 -1.6061  0.5981 -0.5380
37008SOL     OW15385   2.181   1.178   7.898  0.8853  0.4029  0.4933
37008SOL    HW115386   2.094   1.212   7.878  1.1342  0.3913 -0.7151
37008SOL    HW215387   2.237   1.255   7.900  0.9659  0.3435  0.5328
37009SOL     OW15388   0.404   8.814  10.446  0.0356  0.2078  0.0633
37009SOL    HW115389   0.463   8.879  10.406 -0.0071  0.8553  1.0226
37009SOL    HW215390   0.461   8.739  10.466  0.3972  0.5433  0.3161
37010SOL     OW15391   6.620   7.416   0.693  0.2674  0.7165 -0.3749
37010SOL    HW115392   6.671   7.336   0.685 -2.0740 -0.9917  0.7697
37010SOL    HW215393   6.543   7.402   0.637 -0.8003  1.6086  0.7949
37011SOL     OW15394   5.589   5.712   7.652 -0.0643 -0.0784  0.0185
37011SOL    HW115395   5.509   5.703   7.600 -0.7837 -1.5024  1.2753
37011SOL    HW215396   5.558   5.724   7.741  1.1335  2.7025  0.1515
37012SOL     OW15397   7.233   3.307   8.113  0.6377  0.2845  0.4555
37012SOL    HW115398   7.197   3.380   8.164  0.4190 -0.0635  0.8052
37012SOL    HW215399   7.326   3.327   8.103  0.6735  0.3682  0.9645
37013SOL     OW15400   0.237  10.115   9.862 -0.1526 -0.8764 -0.0946
37013SOL    HW115401   0.307  10.135   9.799 -0.0670 -1.6097 -0.2356
37013SOL    HW215402   0.208  10.201   9.893  0.8676 -0.5708  0.0291
37014SOL     OW15403  10.223   1.600   7.406 -0.6802  0.6464  0.4770
37014SOL    HW115404  10.218   1.593   7.501 -0.5029  0.3414  0.4656
37014SOL    HW215405  10.242   1.511   7.376 -0.8748  0.7144  0.1465
37015SOL     OW15406   4.702   3.589  10.945 -0.2376  0.1499  0.1414
37015SOL    HW115407   4.778   3.644  10.965 -2.0819  2.1690  2.3556
37015SOL    HW215408   4.684   3.543  11.027 -2.3588  1.1041  0.2863
37016SOL     OW15409   6.012   0.236   1.049  0.3331 -0.0790  0.3723
37016SOL    HW115410   6.081   0.291   1.013 -2.3100  1.4090 -2.8930
37016SOL    HW215411   6.005   0.263   1.141  4.8884 -1.3673  1.3386
37017SOL     OW15412   5.342   6.302   0.317  0.1426  0.2333  0.3290
37017SOL    HW115413   5.382   6.373   0.268  1.6421  0.3488  1.6347
37017SOL    HW215414   5.344   6.332   0.408 -0.1255 -1.0603  0.7800
37018SOL     OW15415   5.509   0.777   5.769 -0.3809 -0.2488 -0.7752
37018SOL    HW115416   5.469   0.737   5.847 -1.8205  1.0935 -0.7782
37018SOL    HW215417   5.515   0.705   5.706 -0.7049 -0.9869  0.0185
37019SOL     OW15418   1.353   9.306   7.943  0.7136  0.2325  0.1163
37019SOL    HW115419   1.264   9.334   7.920  0.2372 -0.8755  0.5143
37019SOL    HW215420   1.410   9.371   7.903 -0.2583  0.6644 -0.6059
37020SOL     OW15421   2.456   7.571   7.379  0.1293 -0.0945  0.0576
37020SOL    HW115422   2.404   7.492   7.366 -1.0036  0.7592 -0.6833
37020SOL    HW215423   2.397   7.643   7.358  1.2506  0.9452  0.3751
37021SOL     OW15424   4.895   9.112   1.928 -0.5735  0.1347 -0.5410
37021SOL    HW115425   4.866   9.198   1.959 -0.7609  0.2155 -0.9347
37021SOL    HW215426   4.986   9.126   1.900 -0.2677 -0.0296  0.3244
37022SOL     OW15427   1.916   1.274   1.729  0.5986  0.5322  0.4359
37022SOL    HW115428   1.888   1.331   1.658 -0.2883  0.8015  0.9844
37022SOL    HW215429   2.012   1.275   1.724  0.5371 -0.7740 -1.7618
37023SOL     OW15430   5.569   7.827   0.466  0.2914  0.0626  0.1177
37023SOL    HW115431   5.516   7.849   0.543 -1.3859  1.2744 -1.2988
37023SOL    HW215432   5.598   7.912   0.432 -0.8782 -0.2368 -1.7999
37024SOL     OW15433   0.809   1.113   2.413  0.4377 -0.1116  0.4182
37024SOL    HW115434   0.755   1.096   2.490  1.5450  0.8913  1.4627
37024SOL    HW215435   0.765   1.066   2.342 -1.2671 -0.0989  1.4021
37025SOL     OW15436   3.089   8.828   1.934 -0.6993  0.1874  0.2454
37025SOL    HW115437   3.066   8.898   1.995  1.5188  2.4256 -1.2938
37025SOL    HW215438   3.027   8.837   1.862  0.9310  2.1541 -1.0019
37026SOL     OW15439   6.141   5.671  10.843  0.6924 -0.0141  0.4199
37026SOL    HW115440   6.108   5.759  10.860 -0.5975 -0.9376  3.2838
37026SOL    HW215441   6.063   5.621  10.817  1.4366 -0.3452 -1.3550
37027SOL     OW15442   8.918   8.750   7.919 -0.0136  0.2115  0.1233
37027SOL    HW115443   8.974   8.827   7.914 -0.1880  0.5767  2.4188
37027SOL    HW215444   8.973   8.683   7.960 -0.7533  0.0884  0.9472
37028SOL     OW15445   2.138   6.987   0.245 -0.6008  0.5845 -0.5153
37028SOL    HW115446   2.092   6.921   0.297  2.1004 -2.8599 -2.1032
37028SOL    HW215447   2.194   7.033   0.307  0.7094 -1.7370  0.1410
37029SOL     OW15448   9.693   0.460  11.102  0.2867 -0.0102  0.4458
37029SOL    HW115449   9.742   0.534  11.139  1.0315 -0.3264  0.1093
37029SOL    HW215450   9.601   0.479  11.123  0.5845  0.3964  1.4317
37030SOL     OW15451  10.254   0.327   0.387 -0.0640 -0.3674  0.0962
37030SOL    HW115452  10.216   0.368   0.309  0.1975  0.7586  0.5536
37030SOL    HW215453  10.278   0.239   0.358 -1.6847 -0.6270 -0.6002
37031SOL     OW15454   8.510   3.273   3.438  0.0986  0.3176 -0.0121
37031SOL    HW115455   8.461   3.308   3.363  0.8441  0.2162 -0.5604
37031SOL    HW215456   8.489   3.332   3.510 -0.7844  0.3068 -0.2435
37032SOL     OW15457   2.565   2.403   2.905 -0.2292  0.1260  0.0876
37032SOL    HW115458   2.616   2.355   2.970  1.0335  0.7312 -0.4057
37032SOL    HW215459   2.475   2.394   2.933  0.1588 -0.8708  1.0866
37033SOL     OW15460   7.560   1.180   1.976 -0.0682  0.2380 -0.3421
37033SOL    HW115461   7.522   1.262   1.945 -2.1818 -0.1054  1.1554
37033SOL    HW215462   7.631   1.162   1.914 -2.0509  1.1586 -3.0645
37034SOL     OW15463   3.232   7.611  10.453 -0.3926  0.6170  0.2039
37034SOL    HW115464   3.204   7.694  10.493  1.2981  1.5745 -0.4980
37034SOL    HW215465   3.225   7.626  10.359  0.1841  0.0445  0.0636
37035SOL     OW15466   2.564   6.036   3.801 -0.3630  0.7701  0.5462
37035SOL    HW115467   2.602   5.958   3.761  0.1236  1.8463 -1.1790
37035SOL    HW215468   2.474   6.010   3.823 -0.1133 -0.3617  0.2976
37036SOL     OW15469   6.802   8.750   6.666 -0.3818  0.3614 -0.7192
37036SOL    HW115470   6.838   8.751   6.755 -0.4733  0.4872 -0.6841
37036SOL    HW215471   6.782   8.658   6.649  0.5305  0.1988 -0.9708
37037SOL     OW15472   3.271   4.893  10.866  0.4243 -0.1273 -0.4530
37037SOL    HW115473   3.182   4.923  10.851  0.9047  0.9954 -1.1175
37037SOL    HW215474   3.270   4.801  10.840 -0.4366 -0.0193 -0.8177
37038SOL     OW15475  10.071   2.564   1.075  0.4367 -0.8004  0.3356
37038SOL    HW115476  10.161   2.530   1.066  0.2726 -2.0814  2.6624
37038SOL    HW215477  10.080   2.641   1.132  0.3017  0.6564 -1.5235
37039SOL     OW15478   4.343   5.559   7.655  0.5268 -0.0055 -0.1178
37039SOL    HW115479   4.369   5.641   7.612 -0.4949 -0.0692 -0.8811
37039SOL    HW215480   4.279   5.520   7.596  1.4241 -1.6539 -0.0462
37040SOL     OW15481   6.064   2.758   3.587 -0.0477  0.6390 -0.4751
37040SOL    HW115482   6.057   2.698   3.662 -1.2284  1.1492 -0.1587
37040SOL    HW215483   5.996   2.824   3.602 -1.1876  0.0586 -2.6168
37041SOL     OW15484   6.332   6.956   5.126 -0.4956  0.0258  0.1181
37041SOL    HW115485   6.288   7.012   5.062  0.2854 -0.9512 -1.3391
37041SOL    HW215486   6.408   7.007   5.155  0.3368 -0.3126 -1.3653
37042SOL     OW15487   5.978   0.547   5.651 -0.2334 -0.0882 -0.0669
37042SOL    HW115488   6.056   0.535   5.705  0.4915  0.2588 -0.9978
37042SOL    HW215489   5.905   0.550   5.713  0.4569 -0.7532  0.7914
37043SOL     OW15490   8.769  10.532   5.762  0.2688 -0.5451  0.1696
37043SOL    HW115491   8.708  10.605   5.774 -0.3226 -0.8397 -0.9441
37043SOL    HW215492   8.724  10.472   5.703  0.7463 -1.8381  1.0713
37044SOL     OW15493  10.439   2.178   1.257 -0.2878  0.0781  0.1845
37044SOL    HW115494  10.446   2.108   1.192 -1.1740 -0.3216  0.4963
37044SOL    HW215495  10.493   2.149   1.330  0.5510  0.4351 -0.2777
37045SOL     OW15496   0.836   8.199   2.153  0.2686  0.0848  0.3345
37045SOL    HW115497   0.913   8.190   2.210  0.1538  0.6279  0.5838
37045SOL    HW215498   0.847   8.131   2.087  1.6855  1.0190 -0.4514
37046SOL     OW15499  10.124   3.257   6.004  0.2800 -0.3464  0.0265
37046SOL    HW115500  10.041   3.211   6.014  0.4673 -0.9047 -0.9172
37046SOL    HW215501  10.115   3.305   5.922  0.8587 -0.3182 -0.0232
37047SOL     OW15502   1.462   3.146   9.676  0.0044 -0.5329  0.7274
37047SOL    HW115503   1.399   3.093   9.628  0.7608 -1.7252  1.0113
37047SOL    HW215504   1.479   3.221   9.619  0.5777 -1.7081 -0.7233
37048SOL     OW15505  10.392   1.636   4.857  0.0847  0.6961  0.0465
37048SOL    HW115506  10.413   1.589   4.937 -0.2675  0.3622 -0.0564
37048SOL    HW215507  10.469   1.625   4.801  0.4828  1.2383  0.4721
37049SOL     OW15508   2.098   7.167   3.933 -0.0785  0.0041  0.4156
37049SOL    HW115509   2.119   7.117   4.012 -1.2047  0.1239  0.7995
37049SOL    HW215510   2.176   7.158   3.878  0.3716 -0.8148  1.1639
37050SOL     OW15511   6.156   0.848   5.151 -0.0194  0.0430  0.3003
37050SOL    HW115512   6.226   0.793   5.187  1.5795  1.5834 -0.3372
37050SOL    HW215513   6.147   0.819   5.060  2.1631  1.9684 -0.6276
37051SOL     OW15514   1.956   5.276  10.691 -0.1961 -0.3246 -0.2202
37051SOL    HW115515   2.017   5.340  10.657  1.0836 -1.7122 -0.6498
37051SOL    HW215516   1.949   5.296  10.784  0.6347  0.0811 -0.2408
37052SOL     OW15517   9.845   6.311   6.655 -0.0642  0.1950 -1.0043
37052SOL    HW115518   9.811   6.304   6.745 -0.2615 -2.2663 -1.1992
37052SOL    HW215519   9.934   6.345   6.666 -0.6999  1.7075 -0.0732
37053SOL     OW15520   8.416   7.029  10.900  0.4587 -0.1259  0.1150
37053SOL    HW115521   8.413   7.124  10.908 -1.4393 -0.0658 -0.8305
37053SOL    HW215522   8.509   7.008  10.907  0.9876  1.8576 -0.2779
37054SOL     OW15523   6.650   6.840   6.545 -0.3932 -0.0024 -0.3771
37054SOL    HW115524   6.558   6.866   6.543  0.1003  2.0029 -3.2678
37054SOL    HW215525   6.675   6.831   6.453  2.3082 -0.4211  0.3052
37055SOL     OW15526   6.729   2.596   4.949 -0.6305  0.1993 -0.2745
37055SOL    HW115527   6.746   2.634   4.863 -0.1414 -2.7140 -1.6045
37055SOL    HW215528   6.761   2.662   5.012  2.4564  0.9591 -2.3931
37056SOL     OW15529   8.232   3.154   1.621 -0.5012 -0.2216 -0.0821
37056SOL    HW115530   8.140   3.162   1.596 -0.3562 -1.2135 -1.0297
37056SOL    HW215531   8.264   3.079   1.570  1.1018  0.7321 -0.5363
37057SOL     OW15532   4.701   4.650   0.219 -1.0843  0.0905  0.0661
37057SOL    HW115533   4.759   4.700   0.161 -0.4534  0.1628  0.7417
37057SOL    HW215534   4.716   4.559   0.196 -0.8020  0.1175  0.1358
37058SOL     OW15535   5.206   5.373   5.351 -0.6410  0.0719  0.1095
37058SOL    HW115536   5.158   5.355   5.270 -1.4369 -0.5536  0.7076
37058SOL    HW215537   5.221   5.287   5.389 -1.0233  0.4191  1.0591
37059SOL     OW15538   0.898   2.403   8.935 -0.2596  0.8064 -0.4058
37059SOL    HW115539   0.959   2.473   8.913  0.7404 -0.0476 -0.3872
37059SOL    HW215540   0.887   2.409   9.030  0.3044  0.5531 -0.3238
37060SOL     OW15541   4.733   3.991  10.953  0.3508  0.0410  0.3117
37060SOL    HW115542   4.751   3.980  10.859 -0.3637 -1.8728  0.3543
37060SOL    HW215543   4.812   3.960  10.997 -0.4203 -1.9314  0.3709
37061SOL     OW15544   0.437   2.498   8.083  0.2115  0.0584  0.0860
37061SOL    HW115545   0.531   2.481   8.086  0.2665 -0.1418 -1.6296
37061SOL    HW215546   0.420   2.523   7.992 -1.0227  2.4975  0.9072
37062SOL     OW15547  10.302   3.557   8.659  0.1198  0.8620 -0.2601
37062SOL    HW115548  10.395   3.574   8.671  0.0307  0.5548  1.0484
37062SOL    HW215549  10.261   3.587   8.740 -0.7345 -0.2702 -0.2349
37063SOL     OW15550   9.765   2.552   0.595  0.3136  1.1558  0.2014
37063SOL    HW115551   9.675   2.549   0.629  1.1036  1.1162  2.4357
37063SOL    HW215552   9.815   2.496   0.653  1.6476  0.3616 -1.6122
37064SOL     OW15553  10.376   1.370   0.872 -0.5772  0.3654 -0.0322
37064SOL    HW115554  10.375   1.441   0.807 -2.2377 -0.0689 -0.5337
37064SOL    HW215555  10.327   1.299   0.831  0.2171 -0.7216  0.8537
37065SOL     OW15556   7.581   4.432   5.697 -0.1165  0.4546  0.5496
37065SOL    HW115557   7.630   4.458   5.774  0.4195 -1.0866  0.7713
37065SOL    HW215558   7.529   4.357   5.726  1.2315 -1.1419 -0.8982
37066SOL     OW15559  10.710   0.502   5.955 -0.1912 -0.2815 -0.2104
37066SOL    HW115560  10.688   0.567   5.889 -0.4192 -0.9699 -0.8201
37066SOL    HW215561  10.628   0.488   6.003  0.1902  0.9052  0.8611
37067SOL     OW15562   3.495   3.640   5.418  0.2496  0.1514  0.2705
37067SOL    HW115563   3.571   3.668   5.368 -0.1032  1.7842  0.5848
37067SOL    HW215564   3.528   3.623   5.506  0.5511 -0.9388 -0.0407
37068SOL     OW15565   6.191   8.799   0.164 -0.2729 -0.1792  0.0050
37068SOL    HW115566   6.113   8.743   0.166 -0.9611  0.6850 -1.4017
37068SOL    HW215567   6.158   8.888   0.176  0.7572  0.0263  1.6834
37069SOL     OW15568   2.043   6.358   6.128 -0.0213 -0.0475 -0.4733
37069SOL    HW115569   1.985   6.332   6.199  0.8156 -1.1442 -0.1688
37069SOL    HW215570   2.031   6.290   6.062  1.1969 -0.5036 -0.2418
37070SOL     OW15571   3.236   1.769   4.502 -0.4335  0.2430 -0.7016
37070SOL    HW115572   3.145   1.771   4.532 -0.8579  2.6660 -1.9358
37070SOL    HW215573   3.231   1.737   4.412  0.1456 -1.1270 -0.2678
37071SOL     OW15574   5.106   5.852   4.854 -0.3697  0.5853  0.0996
37071SOL    HW115575   5.055   5.770   4.856 -0.2392  0.4825 -0.5341
37071SOL    HW215576   5.161   5.847   4.932 -2.1845  1.2694  1.4830
37072SOL     OW15577   8.259   7.496   7.213  0.0741 -0.0796  0.2346
37072SOL    HW115578   8.195   7.509   7.143  0.4171  1.4619  0.1501
37072SOL    HW215579   8.270   7.583   7.251  2.0734 -0.2990  0.2604
37073SOL     OW15580   3.396   3.863   1.684 -0.0196 -0.5690 -0.4301
37073SOL    HW115581   3.312   3.909   1.683 -0.5796 -1.5715 -1.6818
37073SOL    HW215582   3.448   3.907   1.617 -0.3624 -1.3486 -1.2384
37074SOL     OW15583   0.629   0.220   6.273  0.2517  0.0040  0.1829
37074SOL    HW115584   0.706   0.253   6.226 -1.2992  0.9421 -1.8545
37074SOL    HW215585   0.596   0.297   6.320  1.1246 -0.6551  1.9425
37075SOL     OW15586   8.159   9.053   6.273 -0.3007 -0.5706 -0.6317
37075SOL    HW115587   8.185   8.966   6.303  2.1834  1.1167  2.7588
37075SOL    HW215588   8.068   9.063   6.303  0.1176 -1.2342  0.9250
37076SOL     OW15589   8.732   5.478  10.295  0.0780 -0.3478 -0.2439
37076SOL    HW115590   8.721   5.567  10.328  0.2782 -0.5178  0.2997
37076SOL    HW215591   8.724   5.486  10.200  0.1254  0.2523 -0.2011
37077SOL     OW15592   5.396   9.127   0.256  0.2545  0.3846 -0.1305
37077SOL    HW115593   5.425   9.203   0.307 -0.0123  0.6887 -0.4252
37077SOL    HW215594   5.362   9.164   0.174  2.7211 -0.2162 -1.5183
37078SOL     OW15595   0.225   8.179   6.890  0.5499 -0.6401 -0.0945
37078SOL    HW115596   0.260   8.243   6.953  1.9270 -0.4300 -1.0335
37078SOL    HW215597   0.177   8.117   6.944  1.0496 -0.0343  1.0864
37079SOL     OW15598   1.473   6.268   0.119 -0.2548  0.1503 -0.4586
37079SOL    HW115599   1.445   6.184   0.082 -1.4916  0.9039 -1.2950
37079SOL    HW215600   1.434   6.334   0.062  0.7163  1.3065  0.1702
37080SOL     OW15601   9.077   5.831   4.422 -0.6210  0.0466  0.0667
37080SOL    HW115602   9.033   5.752   4.452  0.5812 -0.7419 -0.1934
37080SOL    HW215603   9.047   5.842   4.331 -0.2886 -0.4805 -0.1073
37081SOL     OW15604   1.584   8.345   7.681  0.2686 -0.0182  0.7416
37081SOL    HW115605   1.541   8.274   7.633  0.7613 -1.2283  1.9804
37081SOL    HW215606   1.668   8.357   7.636  0.3096 -0.4404  0.6998
37082SOL     OW15607   0.881  10.068   0.104  0.1867 -0.5305  0.0113
37082SOL    HW115608   0.803  10.124   0.101  0.8784  0.5030  0.6584
37082SOL    HW215609   0.848   9.980   0.087 -1.0072  0.0007 -0.5214
37083SOL     OW15610   5.564   8.753   0.784  0.5297  0.3637  0.2875
37083SOL    HW115611   5.500   8.800   0.730  0.7596 -0.6910 -0.9352
37083SOL    HW215612   5.637   8.815   0.793  0.7371  0.3367 -1.1153
37084SOL     OW15613   6.587   0.344   4.643 -0.4554  0.2868 -0.4665
37084SOL    HW115614   6.590   0.252   4.668  1.2685 -0.0410 -1.7086
37084SOL    HW215615   6.655   0.386   4.696 -0.1548  0.5172 -1.0227
37085SOL     OW15616   1.620   5.599   9.928 -0.8482  0.9220  0.1932
37085SOL    HW115617   1.665   5.527   9.971 -0.5530  0.5760 -0.6627
37085SOL    HW215618   1.690   5.646   9.882 -1.1907  1.1218 -0.1245
37086SOL     OW15619   5.531   9.199   8.897 -1.2251  0.2169  0.6175
37086SOL    HW115620   5.438   9.200   8.876 -0.8057 -0.6556 -1.6512
37086SOL    HW215621   5.568   9.132   8.839  1.0375  1.5840  0.3411
37087SOL     OW15622   9.651   8.178   0.812  0.4092  1.0236 -0.0024
37087SOL    HW115623   9.631   8.177   0.718  1.0476  1.5675 -0.1507
37087SOL    HW215624   9.717   8.246   0.822  0.7767  0.5694  0.7616
37088SOL     OW15625   6.915   8.799   7.763  0.6234 -0.0033 -0.8848
37088SOL    HW115626   6.909   8.890   7.735  1.8461  0.1249 -0.7883
37088SOL    HW215627   7.002   8.770   7.734  1.7524 -0.0274  2.1450
37089SOL     OW15628   8.841   2.856   4.639 -0.1170 -0.1587 -0.2980
37089SOL    HW115629   8.802   2.780   4.597  2.7597 -2.0901  0.2494
37089SOL    HW215630   8.785   2.872   4.715 -1.7030 -0.6427 -1.3083
37090SOL     OW15631  10.379  10.729   6.765  0.1512  0.4170  0.0519
37090SOL    HW115632  10.375  10.637   6.788 -0.0070  0.4329  0.0942
37090SOL    HW215633  10.472  10.748   6.754  0.1257 -0.0712 -1.2426
37091SOL     OW15634   5.883   7.323   6.567 -0.4548  0.1643  0.1836
37091SOL    HW115635   5.821   7.289   6.502 -0.8952  1.0704  0.1079
37091SOL    HW215636   5.895   7.415   6.542 -0.2895  0.4091  1.1316
37092SOL     OW15637  10.377   4.130   3.409  0.0099 -0.3185  0.4338
37092SOL    HW115638  10.394   4.043   3.372 -0.6865 -1.5432  2.7841
37092SOL    HW215639  10.449   4.143   3.471 -0.3294  0.4081  0.6785
37093SOL     OW15640   6.580  10.526   3.201  0.1168  0.5839  0.1213
37093SOL    HW115641   6.489  10.535   3.173  0.6005  0.8141 -1.5101
37093SOL    HW215642   6.584  10.573   3.284 -1.0467  1.3695 -0.2339
37094SOL     OW15643   6.786   6.183  10.676 -0.1557 -0.5447 -0.6728
37094SOL    HW115644   6.870   6.187  10.630  0.5700  2.3903  0.6573
37094SOL    HW215645   6.726   6.232  10.621 -0.6059 -1.3425 -0.8945
37095SOL     OW15646   9.400   9.250   7.994  0.7215 -0.5152  0.2121
37095SOL    HW115647   9.348   9.321   7.957  0.5847 -0.3259  0.7469
37095SOL    HW215648   9.433   9.286   8.077 -0.1451 -1.4053  0.9669
37096SOL     OW15649   8.255   6.678   2.314  0.3219  0.1445 -0.6039
37096SOL    HW115650   8.178   6.625   2.296  0.5262 -0.2219 -0.4211
37096SOL    HW215651   8.312   6.664   2.238  1.8326 -2.5726  0.8349
37097SOL     OW15652   2.387  10.974   2.909  0.0919 -0.0556  0.0477
37097SOL    HW115653   2.403  11.068   2.919 -0.5853  0.0722 -0.0684
37097SOL    HW215654   2.337  10.949   2.987  1.2401 -0.5601  0.6568
37098SOL     OW15655   2.286   6.231  11.104  0.1208  0.2643  0.2318
37098SOL    HW115656   2.204   6.187  11.124 -0.3550  0.5840 -0.9366
37098SOL    HW215657   2.345   6.161  11.075  0.1866  0.0720  0.8147
37099SOL     OW15658   9.413   8.193   4.526 -0.4789  0.0222  0.3635
37099SOL    HW115659   9.454   8.116   4.487  0.1962 -0.7345  2.4307
37099SOL    HW215660   9.319   8.175   4.523 -0.6844  1.0399 -2.9119
37100SOL     OW15661   9.857   3.352   1.412  0.0961  0.5164  0.1417
37100SOL    HW115662   9.824   3.270   1.376  1.5241 -0.2998  0.6100
37100SOL    HW215663   9.815   3.420   1.358 -3.1046 -0.3254  1.3532
37101SOL     OW15664  10.490   2.883   1.341  0.2466 -0.0568 -0.1196
37101SOL    HW115665  10.417   2.879   1.402  1.2617 -1.5966  1.0945
37101SOL    HW215666  10.564   2.849   1.391  1.3923 -0.2398 -1.8613
37102SOL     OW15667   7.357   8.739   5.862 -0.8418  0.1151 -0.2107
37102SOL    HW115668   7.382   8.747   5.770 -1.1636 -1.1641 -0.4342
37102SOL    HW215669   7.280   8.682   5.861 -1.2236  0.5864  0.8044
37103SOL     OW15670   7.524   5.842   4.947  0.0103  0.5135 -0.1158
37103SOL    HW115671   7.480   5.903   4.887  0.1119 -0.8272 -1.6402
37103SOL    HW215672   7.472   5.761   4.941  0.1295  0.2891  1.5117
37104SOL     OW15673   1.151   2.724   0.682 -0.0572  0.1933  0.0439
37104SOL    HW115674   1.099   2.805   0.673  0.9943  0.6843 -2.5840
37104SOL    HW215675   1.116   2.666   0.613  1.6617 -0.1239 -0.6025
37105SOL     OW15676   6.835   2.185   0.842 -0.4374  0.2742 -0.1388
37105SOL    HW115677   6.872   2.108   0.886  0.1362 -1.4257 -3.2938
37105SOL    HW215678   6.908   2.246   0.834 -0.2436  0.0897  0.2173
37106SOL     OW15679  10.162   8.176   7.905 -0.4470 -0.0544  0.3405
37106SOL    HW115680  10.123   8.219   7.981 -0.2873  1.1426 -0.2407
37106SOL    HW215681  10.100   8.107   7.882 -1.8249  1.2618 -0.0457
37107SOL     OW15682   1.796   4.218   5.503  0.2342  0.0734  0.3588
37107SOL    HW115683   1.718   4.220   5.447 -0.3023 -1.0514  1.0095
37107SOL    HW215684   1.868   4.246   5.446 -0.5641  0.6796 -0.3864
37108SOL     OW15685   7.644   4.996   3.479 -0.1178 -0.1861 -0.6191
37108SOL    HW115686   7.647   5.078   3.430 -1.7690  0.0278 -0.4243
37108SOL    HW215687   7.681   5.016   3.564  2.1256 -0.3844 -1.4845
37109SOL     OW15688   7.345  10.887   6.959  0.3457  0.1114 -0.2423
37109SOL    HW115689   7.422  10.831   6.969  0.1775 -0.4593 -1.8047
37109SOL    HW215690   7.325  10.884   6.865 -2.0281 -0.3847  0.1990
37110SOL     OW15691   4.022   5.426   1.317 -0.0930 -0.2018  0.2270
37110SOL    HW115692   4.009   5.489   1.387 -1.9483  1.7976 -1.7702
37110SOL    HW215693   4.110   5.445   1.283 -0.6937  1.5085 -0.4668
37111SOL     OW15694   1.034   3.921   7.086 -0.3783 -0.0757  0.1640
37111SOL    HW115695   0.950   3.906   7.130  0.4632  0.0143  1.8792
37111SOL    HW215696   1.093   3.858   7.126  0.4448  0.0048 -0.8841
37112SOL     OW15697   0.960   4.752   2.547 -0.2434 -0.0160  0.1020
37112SOL    HW115698   0.952   4.800   2.465 -1.0986 -1.4287 -0.6862
37112SOL    HW215699   0.924   4.811   2.613 -1.5253  0.3422 -0.8741
37113SOL     OW15700   3.348   5.238   9.471  0.7772  0.0529  0.1202
37113SOL    HW115701   3.357   5.144   9.489 -0.3558  0.1742  1.4426
37113SOL    HW215702   3.403   5.280   9.538 -0.2550  0.3805  0.7836
37114SOL     OW15703   3.705   4.540   9.331 -0.3930  0.4291  0.0731
37114SOL    HW115704   3.618   4.579   9.341 -1.3735 -1.1073 -1.7188
37114SOL    HW215705   3.715   4.483   9.407 -1.7791 -0.7542 -0.5855
37115SOL     OW15706   4.427   4.447   4.940 -0.1117 -0.4754  0.2668
37115SOL    HW115707   4.382   4.509   4.881 -3.1017  0.3186  3.0593
37115SOL    HW215708   4.381   4.364   4.926  1.2501 -1.1113 -0.6345
37116SOL     OW15709   5.706   1.229   2.987  0.2405  0.0500 -0.0877
37116SOL    HW115710   5.789   1.272   3.008 -0.3859  0.6631  1.2140
37116SOL    HW215711   5.728   1.136   2.983  0.5641 -0.0653  2.7617
37117SOL     OW15712   2.135   4.867   6.921  0.7650  0.1626 -0.0920
37117SOL    HW115713   2.180   4.949   6.904 -0.9682  1.8346  2.6665
37117SOL    HW215714   2.182   4.828   6.995  0.5847 -0.5333 -0.3331
37118SOL     OW15715   6.051  10.907   6.918  0.0507 -0.3361  0.3130
37118SOL    HW115716   5.987  10.835   6.917  0.1641 -0.4380 -0.4228
37118SOL    HW215717   5.997  10.986   6.911 -0.0169 -0.4085 -0.0291
37119SOL     OW15718   6.947   2.241   7.032  0.1629  0.3487 -0.1311
37119SOL    HW115719   6.921   2.162   7.080  1.3183 -1.0263 -1.6025
37119SOL    HW215720   7.007   2.287   7.091 -0.8330  0.3478  0.9027
37120SOL     OW15721   4.208   8.789   2.823 -0.1311 -0.2190  0.0464
37120SOL    HW115722   4.294   8.774   2.785  0.4097  1.1974  0.6490
37120SOL    HW215723   4.165   8.849   2.762 -0.8775 -1.2496 -0.4738
37121SOL     OW15724   9.673   3.320  10.479 -0.4887 -0.5344 -0.3009
37121SOL    HW115725   9.611   3.278  10.419 -1.3946 -0.8999  0.8612
37121SOL    HW215726   9.699   3.401  10.434 -1.6692 -0.4659 -0.9005
37122SOL     OW15727   9.593   9.461   4.739 -0.3095  0.2157  0.0924
37122SOL    HW115728   9.635   9.395   4.794  0.1610 -0.3175 -0.8646
37122SOL    HW215729   9.655   9.534   4.737 -0.8207  0.6948  1.1333
37123SOL     OW15730   3.095  11.011   8.939  0.3217  0.2325 -0.3196
37123SOL    HW115731   3.041  11.064   8.880 -1.5714 -0.6124  0.5395
37123SOL    HW215732   3.031  10.959   8.989  1.9081 -0.0500  1.5341
37124SOL     OW15733   7.586   9.885   6.462 -0.3739 -0.2617 -0.1390
37124SOL    HW115734   7.663   9.880   6.405 -0.3352 -1.6819 -0.0020
37124SOL    HW215735   7.573   9.979   6.477  1.5915  0.0013  0.1933
37125SOL     OW15736   7.015   6.364   1.385 -0.2743 -0.0094  0.2350
37125SOL    HW115737   7.076   6.437   1.396  0.7950 -0.9058  0.4114
37125SOL    HW215738   6.985   6.372   1.294 -0.0592  0.5614  0.2048
37126SOL     OW15739   7.575   5.572   8.445  0.6905  0.0304  0.1791
37126SOL    HW115740   7.545   5.614   8.365  0.1417 -0.1824  0.2731
37126SOL    HW215741   7.502   5.579   8.506  1.5641  1.3689  1.1247
37127SOL     OW15742   7.241   9.009   2.759 -0.3512 -0.7081 -0.1470
37127SOL    HW115743   7.201   9.009   2.672 -1.2127  0.2508  0.2321
37127SOL    HW215744   7.251   9.101   2.782 -0.4850 -0.9417  0.9300
37128SOL     OW15745   2.291   7.300   4.298  0.3450 -0.2720  0.8003
37128SOL    HW115746   2.288   7.372   4.236  0.6208 -0.9539 -0.0222
37128SOL    HW215747   2.385   7.282   4.311  0.2872 -0.2698  1.2548
37129SOL     OW15748   8.495   0.304   6.329 -0.1141 -0.1699 -0.8066
37129SOL    HW115749   8.479   0.331   6.419 -1.1812  0.1481 -1.0851
37129SOL    HW215750   8.421   0.248   6.307  0.0550 -0.1174 -1.5357
37130SOL     OW15751   9.791   5.461   6.117 -0.0715 -0.3379 -0.9007
37130SOL    HW115752   9.847   5.534   6.091 -1.1391  0.4307 -1.1262
37130SOL    HW215753   9.702   5.493   6.103 -0.5715 -1.6083 -0.7802
37131SOL     OW15754   2.474   6.933   6.510 -0.1600 -0.3861 -0.4992
37131SOL    HW115755   2.429   7.017   6.501  2.5693  1.2382 -0.1198
37131SOL    HW215756   2.444   6.898   6.593  1.1911  1.9570  1.0842
37132SOL     OW15757   7.317   7.630   7.871 -0.2551  0.1255 -0.1051
37132SOL    HW115758   7.259   7.571   7.824 -0.9211  1.2582 -0.7494
37132SOL    HW215759   7.404   7.615   7.832 -0.4346 -0.3375 -0.3289
37133SOL     OW15760   5.535   1.266   6.287  0.0631 -0.1006 -0.1844
37133SOL    HW115761   5.613   1.248   6.340 -0.2836  0.6678  0.6145
37133SOL    HW215762   5.523   1.361   6.293 -1.5951 -0.3277  0.6856
37134SOL     OW15763   7.774   8.823   1.791  0.4702  0.1117 -0.2939
37134SOL    HW115764   7.767   8.869   1.707  0.4511 -0.1699 -0.4487
37134SOL    HW215765   7.818   8.885   1.849 -0.2775  0.6239 -0.2708
37135SOL     OW15766   9.085   4.312   1.605  0.4941 -0.1149  0.2609
37135SOL    HW115767   9.085   4.407   1.590 -0.4831  0.0586  1.1676
37135SOL    HW215768   9.097   4.274   1.519  1.4203  0.8434 -0.0484
37136SOL     OW15769   8.208  10.393   2.753 -0.1895  0.0991  0.4670
37136SOL    HW115770   8.153  10.322   2.721 -0.3851 -0.2108  1.4532
37136SOL    HW215771   8.240  10.362   2.838  2.0023  0.0184 -0.3294
37137SOL     OW15772  10.319  10.465   1.857  0.4169  0.0049 -0.1740
37137SOL    HW115773  10.376  10.429   1.789  0.6044 -0.7505  0.3797
37137SOL    HW215774  10.243  10.497   1.809 -0.1952 -1.9811 -0.6172
37138SOL     OW15775   8.045   2.838   1.326 -0.4213  0.7132 -0.1029
37138SOL    HW115776   7.991   2.836   1.404  0.2124  1.3610  0.3746
37138SOL    HW215777   8.074   2.929   1.320  2.8101 -0.0615  1.2540
37139SOL     OW15778   4.657   3.852  10.166 -0.2718  0.0071 -0.2643
37139SOL    HW115779   4.673   3.943  10.141  1.8517 -0.1993  0.1498
37139SOL    HW215780   4.624   3.811  10.086 -0.9034  1.0449 -0.5601
37140SOL     OW15781   8.398   0.641   3.677  0.5213  0.4145  0.1809
37140SOL    HW115782   8.478   0.693   3.685  0.7177  0.1304  0.0744
37140SOL    HW215783   8.328   0.702   3.699  0.6286  1.1112 -1.3152
37141SOL     OW15784   4.839   6.280   5.012  0.1596  0.2199  0.0513
37141SOL    HW115785   4.836   6.185   5.004 -1.0634  0.1861  0.6639
37141SOL    HW215786   4.932   6.301   5.023  0.5853 -0.7683 -1.4216
37142SOL     OW15787   9.203   5.688   4.727  0.4017  0.5796  0.3350
37142SOL    HW115788   9.157   5.772   4.727 -0.4408  0.1902 -1.8657
37142SOL    HW215789   9.181   5.649   4.642  2.9042 -0.6948  0.1843
37143SOL     OW15790   3.003   9.857   8.275 -0.3713  0.1423 -0.2615
37143SOL    HW115791   3.055   9.779   8.293 -2.3150 -1.0818  0.3801
37143SOL    HW215792   3.016   9.913   8.351 -0.6747 -0.5463  0.3073
37144SOL     OW15793   3.207   5.384   5.025  0.1750 -0.1666  0.1893
37144SOL    HW115794   3.301   5.390   5.010  0.3929 -0.9279  1.1208
37144SOL    HW215795   3.197   5.311   5.086 -0.9837  0.1794  0.4471
37145SOL     OW15796   8.136   3.618   2.120 -1.0037  0.3022  0.0896
37145SOL    HW115797   8.200   3.594   2.187 -1.9944  1.5093  1.5438
37145SOL    HW215798   8.114   3.536   2.077  0.5839 -0.3146  0.4116
37146SOL     OW15799   7.221   0.373   7.239  0.4841 -0.3533 -0.2421
37146SOL    HW115800   7.160   0.437   7.203  0.0467 -0.7922 -0.2875
37146SOL    HW215801   7.244   0.317   7.164  0.5083 -0.5320 -0.1019
37147SOL     OW15802   4.727   2.472   8.513 -0.1622  0.3401  0.4131
37147SOL    HW115803   4.793   2.518   8.566  1.0161 -0.9663  0.1275
37147SOL    HW215804   4.723   2.384   8.551  0.5864 -0.5808 -1.4967
37148SOL     OW15805   2.982   1.572   8.083  0.4487  0.0613  0.2207
37148SOL    HW115806   2.930   1.622   8.019  1.4724 -0.4159 -1.0291
37148SOL    HW215807   2.918   1.544   8.149 -0.4969  1.2702 -0.1444
37149SOL     OW15808   5.852   7.448   6.818 -0.4233 -0.2659  0.3764
37149SOL    HW115809   5.871   7.392   6.742 -1.2624  0.4139 -0.3499
37149SOL    HW215810   5.931   7.501   6.829  0.1997 -1.2290  0.7833
37150SOL     OW15811   7.219   6.907   3.483  0.3321  0.2226  0.1804
37150SOL    HW115812   7.287   6.932   3.420 -0.4531  1.0005 -0.3676
37150SOL    HW215813   7.262   6.913   3.568  0.9694  0.6300 -0.1652
37151SOL     OW15814   9.053  10.685   9.717 -0.2030  0.2857  0.2870
37151SOL    HW115815   8.958  10.677   9.706 -0.0793  1.2783 -1.8832
37151SOL    HW215816   9.063  10.733   9.799 -1.6708  1.9362 -0.4435
37152SOL     OW15817   3.723   3.269   9.380 -0.2912  0.5527  0.0726
37152SOL    HW115818   3.663   3.294   9.310 -0.4239 -0.0431 -0.0370
37152SOL    HW215819   3.809   3.300   9.351 -0.2235 -0.3071 -0.7010
37153SOL     OW15820   1.972   0.703   1.251 -0.3517  0.3240  0.7686
37153SOL    HW115821   1.994   0.623   1.299 -0.9330  1.0572  2.3114
37153SOL    HW215822   1.881   0.690   1.224 -0.3542  0.3405  0.7688
37154SOL     OW15823  10.971   5.734   4.203  0.0745  0.5436  0.2688
37154SOL    HW115824  10.934   5.816   4.173  1.8347  1.1704 -0.3346
37154SOL    HW215825  10.941   5.669   4.140 -1.9950  0.5160  1.2048
37155SOL     OW15826   0.641   4.421   2.351  0.2471  0.5154  0.1436
37155SOL    HW115827   0.615   4.390   2.264 -2.1677 -0.6833  1.2042
37155SOL    HW215828   0.624   4.515   2.348  1.4506  0.7231 -1.0669
37156SOL     OW15829   9.467  10.724  11.020  0.2223 -0.2572  0.1217
37156SOL    HW115830   9.516  10.664  11.075 -0.6643  0.7501  2.1403
37156SOL    HW215831   9.488  10.811  11.054 -1.0680  0.3484 -0.5208
37157SOL     OW15832   3.740   9.472   6.624  0.5865  0.1641 -0.0952
37157SOL    HW115833   3.678   9.545   6.632 -0.7604 -0.8892 -0.5478
37157SOL    HW215834   3.818   9.511   6.587 -0.1598  1.3639 -0.4629
37158SOL     OW15835   4.044   5.477   5.407  0.7360  0.2797  0.0508
37158SOL    HW115836   4.107   5.514   5.345  0.2092  1.5635  0.2349
37158SOL    HW215837   3.965   5.463   5.354  0.6369  0.3293  0.1849
37159SOL     OW15838   8.637   7.881   5.571  0.7714  0.4239  0.0506
37159SOL    HW115839   8.669   7.943   5.637  1.6278 -0.1744  0.2204
37159SOL    HW215840   8.712   7.824   5.554 -0.2894 -1.2321  0.6821
37160SOL     OW15841   7.080  10.955   7.363 -0.1082 -0.3709 -0.2144
37160SOL    HW115842   7.147  10.899   7.322 -0.0601  0.7181 -1.6910
37160SOL    HW215843   7.117  11.043   7.359 -0.9407  0.0143  0.4486
37161SOL     OW15844  10.284   5.624   0.216 -0.1329 -0.3669 -0.4592
37161SOL    HW115845  10.345   5.569   0.265  3.0773  1.2225 -2.3854
37161SOL    HW215846  10.239   5.675   0.283 -1.0169 -3.0621  1.1638
37162SOL     OW15847   1.675   6.315   6.726 -0.0587 -0.2366 -0.1229
37162SOL    HW115848   1.698   6.346   6.638  1.1136 -1.0122 -0.1056
37162SOL    HW215849   1.714   6.380   6.784 -2.7212  1.5600 -0.1290
37163SOL     OW15850   4.058   7.945   1.845 -0.0618 -0.0681  0.7574
37163SOL    HW115851   4.149   7.919   1.841  0.2961  1.2058  0.0527
37163SOL    HW215852   4.054   8.027   1.796 -1.4319  0.3047  1.4261
37164SOL     OW15853   6.079   1.592   2.502  0.6615  0.0800  0.0617
37164SOL    HW115854   6.024   1.574   2.426 -1.8539 -0.2325  1.8419
37164SOL    HW215855   6.064   1.684   2.522  1.7481  0.3101 -0.1171
37165SOL     OW15856   7.874   7.450   4.223  0.2450  0.2930  0.1419
37165SOL    HW115857   7.961   7.410   4.211  0.4979  0.3053  1.7102
37165SOL    HW215858   7.891   7.527   4.277 -0.7484  0.2701  0.4995
37166SOL     OW15859   2.582   7.650   3.444  0.1210  0.2545  0.1258
37166SOL    HW115860   2.518   7.585   3.416 -0.1985 -0.2236  1.8146
37166SOL    HW215861   2.550   7.733   3.408 -0.7914 -0.1651 -0.0609
37167SOL     OW15862   0.140   1.130   5.534  0.0558  0.6774  0.0015
37167SOL    HW115863   0.200   1.150   5.606  0.0093 -0.3217  0.3380
37167SOL    HW215864   0.183   1.058   5.487 -1.0250 -0.3019  0.4645
37168SOL     OW15865   6.417   6.844   8.144  0.2025 -0.1384 -0.5084
37168SOL    HW115866   6.393   6.931   8.113  0.6440 -0.2354 -1.1540
37168SOL    HW215867   6.491   6.819   8.089  1.6292  0.0500  1.2086
37169SOL     OW15868   1.575   5.899   6.607  0.4920  0.4165  0.9163
37169SOL    HW115869   1.627   5.963   6.558 -1.6297 -0.1441 -2.4100
37169SOL    HW215870   1.622   5.817   6.595  1.0164  0.6222  1.5447
37170SOL     OW15871  10.253   1.785   4.685  0.5309 -0.0029 -0.0914
37170SOL    HW115872  10.292   1.713   4.735 -2.4698 -1.8266 -0.1144
37170SOL    HW215873  10.176   1.810   4.736  0.2212  1.6143 -1.2917
37171SOL     OW15874   9.679   8.702   3.674 -0.0975 -0.2432  0.3666
37171SOL    HW115875   9.709   8.767   3.737  1.1219  0.1189 -0.5546
37171SOL    HW215876   9.606   8.745   3.629  1.0288  0.7392 -0.5944
37172SOL     OW15877   8.963  10.738   5.990  0.2571  0.2225 -0.6919
37172SOL    HW115878   8.871  10.751   5.968 -0.2274 -0.6900  0.6859
37172SOL    HW215879   9.009  10.746   5.906 -1.0349  0.9419 -1.3552
37173SOL     OW15880   1.088   0.657  10.327 -0.5980 -0.3133 -0.7606
37173SOL    HW115881   1.051   0.570  10.347  0.3406 -0.4229  0.6174
37173SOL    HW215882   1.049   0.715  10.393  0.0204 -0.0144 -0.6518
37174SOL     OW15883   7.866   6.094   0.544 -0.2832 -0.1349 -0.0184
37174SOL    HW115884   7.826   6.022   0.593 -0.3055 -0.2710 -0.2345
37174SOL    HW215885   7.922   6.138   0.608 -1.6108  0.7257  0.5811
37175SOL     OW15886   2.055   2.913   9.933  0.5206 -0.3535  0.0409
37175SOL    HW115887   2.119   2.970   9.891 -0.9418 -0.3143 -2.3430
37175SOL    HW215888   1.984   2.971   9.959  0.4085 -0.7055  0.5432
37176SOL     OW15889  10.748   2.158   3.053  0.2216 -0.4287 -0.2644
37176SOL    HW115890  10.761   2.094   2.983  2.0175 -0.5121  0.0807
37176SOL    HW215891  10.657   2.185   3.045 -0.1005 -1.7596 -1.4955
37177SOL     OW15892   7.927  10.898  10.765  0.0856 -0.4799 -0.2576
37177SOL    HW115893   7.948  10.955  10.691 -0.7308 -0.1822 -0.2659
37177SOL    HW215894   7.997  10.833  10.765  1.4431  0.9382  0.2117
37178SOL     OW15895   1.718   3.407   1.891 -0.2941 -0.3670 -0.1269
37178SOL    HW115896   1.761   3.434   1.972  0.2608  0.7861 -0.7841
37178SOL    HW215897   1.630   3.379   1.919  0.3745 -1.3837  1.0432
37179SOL     OW15898   3.349   6.515   4.546 -0.6659 -0.0106  0.1843
37179SOL    HW115899   3.373   6.519   4.454 -2.0313  0.3013 -0.1744
37179SOL    HW215900   3.300   6.433   4.555  0.2273 -0.4961  0.8453
37180SOL     OW15901   3.335  10.603   5.930  0.3396  0.3617  0.2885
37180SOL    HW115902   3.336  10.695   5.905  0.8502  0.8906  2.0687
37180SOL    HW215903   3.246  10.589   5.964 -0.2466 -0.2602 -1.3992
37181SOL     OW15904   7.851   8.512   9.647 -0.5720 -0.6600 -0.3272
37181SOL    HW115905   7.760   8.500   9.673 -0.6935  2.8789  1.5263
37181SOL    HW215906   7.898   8.524   9.729  1.3595 -1.1250 -1.3091
37182SOL     OW15907   1.724   7.578   0.950  0.4451  0.0410 -0.0606
37182SOL    HW115908   1.800   7.526   0.922 -0.5463 -1.9221  0.7054
37182SOL    HW215909   1.657   7.560   0.884 -0.1410 -0.2305  0.6004
37183SOL     OW15910   8.938   2.857   9.770  0.5916  0.1088 -0.5878
37183SOL    HW115911   8.917   2.950   9.780 -1.2317 -0.1782 -1.2885
37183SOL    HW215912   8.864   2.811   9.810  2.0454 -1.0957  0.8809
37184SOL     OW15913   1.838   0.094   4.238  0.4215  0.5525 -0.5051
37184SOL    HW115914   1.801   0.093   4.326  1.2948  1.2701 -0.1166
37184SOL    HW215915   1.766   0.124   4.182 -0.1103  0.1774 -0.0374
37185SOL     OW15916   2.884   5.417   9.565 -0.1378  0.2129 -0.3446
37185SOL    HW115917   2.806   5.422   9.621  0.9522 -0.4982  1.3212
37185SOL    HW215918   2.851   5.391   9.479 -1.7952  0.5802  0.1487
37186SOL     OW15919   5.242   5.080   2.831 -0.2545 -0.0479 -0.8454
37186SOL    HW115920   5.302   5.125   2.772 -0.8992  1.6732 -0.2544
37186SOL    HW215921   5.191   5.150   2.872 -1.1640 -1.3124  0.2979
37187SOL     OW15922   0.550   3.093   9.481  0.1016  0.0138  0.5097
37187SOL    HW115923   0.644   3.082   9.474  0.2239  0.4537  1.3815
37187SOL    HW215924   0.537   3.140   9.564 -0.8916 -0.2446  0.5109
37188SOL     OW15925   3.418   2.301   9.371  0.1862  0.2445  0.4578
37188SOL    HW115926   3.418   2.377   9.430  0.6905  0.9671 -0.4369
37188SOL    HW215927   3.325   2.287   9.351 -0.1443 -1.0717  2.7032
37189SOL     OW15928   6.699   7.518  10.893  0.4001 -0.0066  0.6834
37189SOL    HW115929   6.685   7.532  10.799 -2.5492 -1.1286  0.8639
37189SOL    HW215930   6.637   7.576  10.936 -0.1179 -1.3521  1.8352
37190SOL     OW15931   5.628   3.322   5.128 -0.4936 -0.9422 -0.2265
37190SOL    HW115932   5.617   3.371   5.047 -1.8304 -0.5172  0.1824
37190SOL    HW215933   5.721   3.300   5.131 -0.4348 -1.0352 -1.9026
37191SOL     OW15934   0.458   7.183   5.449  0.7201  0.4199 -0.1692
37191SOL    HW115935   0.546   7.214   5.468  1.2285 -1.9388  1.7939
37191SOL    HW215936   0.465   7.145   5.361  2.6428 -2.5348  1.0771
37192SOL     OW15937   1.143   7.389   1.063 -0.7564 -0.0306  0.0295
37192SOL    HW115938   1.051   7.396   1.090 -0.6618  0.4235  0.2419
37192SOL    HW215939   1.193   7.399   1.144 -0.5164 -0.3073 -0.0818
37193SOL     OW15940   3.989   2.603   3.830 -0.1315  0.2538  0.0526
37193SOL    HW115941   3.949   2.524   3.793  0.5370 -0.2442  0.3699
37193SOL    HW215942   4.070   2.572   3.870  1.3306  1.4521 -1.8259
37194SOL     OW15943   8.682   3.956   3.498  0.6111  0.3318  0.3063
37194SOL    HW115944   8.743   4.004   3.443  0.2564 -0.6645 -1.0166
37194SOL    HW215945   8.734   3.885   3.536  0.1111 -1.2666 -1.7905
37195SOL     OW15946   3.665   4.258   7.914 -0.1522  0.1710 -0.1645
37195SOL    HW115947   3.584   4.281   7.960  0.8165 -0.8721  2.2278
37195SOL    HW215948   3.689   4.338   7.867 -2.1967  0.7070 -0.3948
37196SOL     OW15949  10.560   6.946  10.828  0.0088  0.7254 -0.9666
37196SOL    HW115950  10.600   6.887  10.765  1.9788 -1.4886  2.0506
37196SOL    HW215951  10.479   6.903  10.854  0.1334  0.6530 -0.6839
37197SOL     OW15952  10.327   7.782   0.733 -0.1954  0.0536  0.5879
37197SOL    HW115953  10.352   7.709   0.676 -1.5777 -0.0992  0.1558
37197SOL    HW215954  10.233   7.772   0.746 -0.1933  1.0757  1.5092
37198SOL     OW15955   6.331   7.191   0.103 -0.2032 -0.4855 -0.1393
37198SOL    HW115956   6.342   7.267   0.160 -4.6064 -0.4119  0.9472
37198SOL    HW215957   6.317   7.118   0.162 -0.1469 -1.3433 -1.1572
37199SOL     OW15958   0.950   6.137   7.006  0.3296 -0.9397 -0.2174
37199SOL    HW115959   0.902   6.150   6.925  0.5859 -0.4641 -0.2978
37199SOL    HW215960   0.890   6.089   7.063  0.3455 -1.7521 -0.8764
37200SOL     OW15961  11.099  10.613   1.048  0.6670  0.1796 -0.2499
37200SOL    HW115962  11.180  10.570   1.076  0.7292 -0.2900 -1.0946
37200SOL    HW215963  11.038  10.541   1.031 -0.7336  0.5822  2.5596
37201SOL     OW15964   6.303   9.956   9.701 -0.5014  0.0145  0.0604
37201SOL    HW115965   6.335  10.030   9.648 -1.5804  0.3409 -0.1514
37201SOL    HW215966   6.383   9.913   9.732  0.1449  1.0851 -0.0656
37202SOL     OW15967   1.603   6.620   6.171 -0.3319  0.0934  0.2326
37202SOL    HW115968   1.668   6.673   6.125 -0.9160 -0.3436 -1.1568
37202SOL    HW215969   1.560   6.570   6.101 -2.5229  0.7488  1.0427
37203SOL     OW15970   7.891   1.105   6.683  0.4120  0.4596  0.4526
37203SOL    HW115971   7.942   1.045   6.627  1.1630  2.3846 -1.0369
37203SOL    HW215972   7.958   1.153   6.732 -0.1287  0.6678  0.9858
37204SOL     OW15973   4.264   6.825   8.303  0.1506 -0.2686  0.3847
37204SOL    HW115974   4.318   6.883   8.356 -0.7070 -0.4034  1.4309
37204SOL    HW215975   4.177   6.863   8.307 -0.1555 -0.9099  0.0057
37205SOL     OW15976   4.940   8.265   7.519  0.3998 -0.2245  0.3466
37205SOL    HW115977   4.885   8.256   7.442  0.3066  0.1822  0.3655
37205SOL    HW215978   5.018   8.213   7.498  0.6831  0.4421 -0.3119
37206SOL     OW15979  10.781   8.605   6.526 -0.5599 -0.3175  0.2042
37206SOL    HW115980  10.818   8.669   6.587  1.4140 -0.9351 -0.2461
37206SOL    HW215981  10.775   8.652   6.443  1.1793 -0.7337 -0.2012
37207SOL     OW15982   0.510   9.409   1.304  0.1671 -0.2262 -0.1291
37207SOL    HW115983   0.486   9.458   1.226 -1.0915 -0.3769  0.1348
37207SOL    HW215984   0.605   9.414   1.308  0.1930  0.4146 -1.2512
37208SOL     OW15985   7.840   4.320   0.934  0.2523 -0.4952 -0.4101
37208SOL    HW115986   7.760   4.278   0.903  1.2309 -1.1374 -2.2899
37208SOL    HW215987   7.904   4.249   0.938  1.0031  0.1888  0.0086
37209SOL     OW15988   0.403   2.496  10.635  0.4063  0.2715 -0.0024
37209SOL    HW115989   0.329   2.534  10.589  1.1642  0.8598 -0.7613
37209SOL    HW215990   0.419   2.413  10.591 -0.3278 -0.2695  0.7178
37210SOL     OW15991   3.316   9.923   8.368  0.1025  0.3069 -0.4048
37210SOL    HW115992   3.293  10.016   8.376  1.7046  0.6651  0.3514
37210SOL    HW215993   3.348   9.899   8.455 -1.1628 -1.2268 -0.3324
37211SOL     OW15994   0.805   8.552  10.268  0.0647 -0.8395  0.1979
37211SOL    HW115995   0.803   8.642  10.235 -0.2761 -0.9669 -0.1376
37211SOL    HW215996   0.807   8.561  10.363 -1.3214 -0.4881  0.2133
37212SOL     OW15997   4.599   6.430  10.227  0.4063  0.1337 -0.0942
37212SOL    HW115998   4.661   6.370  10.184  2.0280  1.1226  0.7613
37212SOL    HW215999   4.598   6.401  10.318 -1.1834 -0.4596 -0.2620
37213SOL     OW16000   2.904   7.845   7.566  0.1083 -0.2561 -0.4968
37213SOL    HW116001   2.919   7.810   7.478  0.9561  1.8847 -1.2728
37213SOL    HW216002   2.992   7.853   7.604 -0.3017 -2.2059  1.0483
37214SOL     OW16003  10.093   3.240   8.813 -0.5997 -0.3353  0.2597
37214SOL    HW116004  10.101   3.145   8.814 -1.1495 -0.3917 -0.1228
37214SOL    HW216005  10.005   3.257   8.779  0.0782  0.3206 -1.3285
37215SOL     OW16006   4.624   8.360  10.910 -0.0440 -0.2612 -0.0050
37215SOL    HW116007   4.609   8.268  10.888  0.7720 -0.8159  1.5852
37215SOL    HW216008   4.671   8.395  10.834 -0.2893 -1.1768 -0.5984
37216SOL     OW16009   4.588   1.516   2.222  0.3511 -0.1049  0.4024
37216SOL    HW116010   4.549   1.439   2.263 -3.4419  1.2621 -0.2019
37216SOL    HW216011   4.588   1.582   2.292 -0.2914  0.4615 -0.1182
37217SOL     OW16012   4.967   3.547   0.927 -0.3203 -0.3020 -0.1524
37217SOL    HW116013   5.031   3.618   0.926 -1.2093  0.5467  1.1206
37217SOL    HW216014   5.007   3.480   0.982  1.2266 -1.5598 -2.5985
37218SOL     OW16015   8.894   9.286   2.123 -0.6172 -0.1138 -0.3844
37218SOL    HW116016   8.828   9.283   2.054 -0.7334 -1.3803 -0.2475
37218SOL    HW216017   8.865   9.356   2.181  0.8378  2.8040 -2.8950
37219SOL     OW16018  10.064   2.463  10.542  0.0849 -0.2474 -0.2365
37219SOL    HW116019   9.993   2.438  10.601  1.9102 -1.0129  1.7587
37219SOL    HW216020  10.105   2.539  10.583  2.4335 -1.7884  0.4773
37220SOL     OW16021   3.692   5.089   3.079 -0.2858  0.1241 -0.5678
37220SOL    HW116022   3.717   5.038   3.156  0.4982 -0.0799 -0.9493
37220SOL    HW216023   3.618   5.041   3.041 -2.3155  1.4839  1.3698
37221SOL     OW16024   5.854   6.189   2.112 -0.1091 -0.1738 -0.8101
37221SOL    HW116025   5.886   6.128   2.178  0.1720  0.4048 -0.4038
37221SOL    HW216026   5.922   6.191   2.044 -0.0764 -0.2414 -0.7784
37222SOL     OW16027   8.545  10.830   7.610 -0.4943  0.2816  0.3412
37222SOL    HW116028   8.627  10.824   7.562 -0.7524 -0.5411 -0.0206
37222SOL    HW216029   8.534  10.743   7.650 -0.6901  0.6924  1.2135
37223SOL     OW16030  10.416   7.663   3.157  0.2754 -0.0801 -0.2353
37223SOL    HW116031  10.497   7.711   3.173 -0.5778  1.1316  0.6361
37223SOL    HW216032  10.436   7.607   3.082  1.7330  0.6144 -0.4075
37224SOL     OW16033   6.098   9.411   7.792  0.2765  0.1962 -0.1120
37224SOL    HW116034   6.104   9.506   7.784 -0.6511  0.1503 -2.1149
37224SOL    HW216035   6.029   9.386   7.730 -0.3394 -1.6867  1.2253
37225SOL     OW16036   6.602   5.596   4.481  0.3266  0.2846  0.3990
37225SOL    HW116037   6.675   5.650   4.453  0.3854  0.5393  1.0190
37225SOL    HW216038   6.575   5.634   4.565 -1.2923  0.9612 -0.3730
37226SOL     OW16039   6.707   3.399   9.898 -0.5019  0.5902 -0.2934
37226SOL    HW116040   6.660   3.419   9.818 -1.2452 -0.0066 -0.0201
37226SOL    HW216041   6.709   3.303   9.901 -0.6709  0.6029  0.5004
37227SOL     OW16042   7.550   8.030   1.676  0.6362  0.5213  0.7517
37227SOL    HW116043   7.455   8.034   1.664  0.7204  0.9635  0.1703
37227SOL    HW216044   7.569   7.937   1.684  0.2104  0.3962  0.3619
37228SOL     OW16045   1.049   4.679   8.031  0.7766 -0.2307  0.0122
37228SOL    HW116046   0.988   4.633   7.973  0.5811  0.5464 -0.4154
37228SOL    HW216047   1.121   4.704   7.974  0.4435  0.8055  0.0202
37229SOL     OW16048   2.572   6.817   8.900  0.3004 -0.2511  0.5328
37229SOL    HW116049   2.539   6.801   8.811  0.7622 -0.1252  0.3368
37229SOL    HW216050   2.616   6.736   8.924  3.6792  0.9654 -0.9140
37230SOL     OW16051   0.652   2.135   0.804 -0.3085 -0.2695  0.2242
37230SOL    HW116052   0.661   2.088   0.886 -1.1063 -2.7277 -1.0031
37230SOL    HW216053   0.567   2.177   0.809  0.3626  1.0389  1.2890
37231SOL     OW16054   7.318  10.765   6.328 -0.5974  0.0849 -0.1028
37231SOL    HW116055   7.289  10.674   6.321  0.2025 -0.1780 -0.1347
37231SOL    HW216056   7.387  10.773   6.262  0.9449  0.0331  1.4151
37232SOL     OW16057   5.149   7.390   7.697 -0.0652 -0.1613 -0.1119
37232SOL    HW116058   5.073   7.438   7.730 -0.7715 -0.0495 -1.7846
37232SOL    HW216059   5.184   7.446   7.628 -0.3908 -1.6100 -1.5278
37233SOL     OW16060   7.560   8.763   4.573  0.2149  0.0206  0.1729
37233SOL    HW116061   7.639   8.817   4.569 -1.2575  2.3927  1.0547
37233SOL    HW216062   7.515   8.792   4.652 -1.3893 -1.5323 -0.1070
37234SOL     OW16063   6.295   2.040   4.965 -0.4363 -0.2690  0.6071
37234SOL    HW116064   6.351   1.969   4.996 -0.0432 -0.4691 -0.4848
37234SOL    HW216065   6.298   2.105   5.034 -1.5379 -1.6769  2.0499
37235SOL     OW16066   7.391   8.498   0.258  0.7258 -0.1681 -0.1284
37235SOL    HW116067   7.440   8.567   0.302  2.4253 -0.9621 -0.7006
37235SOL    HW216068   7.301   8.510   0.287  1.1974  1.5328  0.7152
37236SOL     OW16069   6.076  10.214   0.637  0.1378 -0.0068 -0.3401
37236SOL    HW116070   6.096  10.170   0.720 -1.1756 -0.8150 -0.4183
37236SOL    HW216071   6.161  10.245   0.605  0.8504 -0.8566  0.6517
37237SOL     OW16072   9.899  10.236   2.771 -0.0471 -0.7536 -0.1228
37237SOL    HW116073   9.810  10.239   2.736 -0.1120 -0.8851  0.0309
37237SOL    HW216074   9.944  10.309   2.728 -0.5907  0.1343  0.7913
37238SOL     OW16075   5.755   1.594   2.686 -0.0515  0.1500 -0.6882
37238SOL    HW116076   5.724   1.509   2.718 -1.0189  0.1069 -1.6859
37238SOL    HW216077   5.760   1.584   2.591  0.1325  1.1086 -0.7908
37239SOL     OW16078   5.567   1.955   1.911 -0.6525  0.3602 -0.0372
37239SOL    HW116079   5.499   1.901   1.951 -0.1853 -0.3902 -0.2345
37239SOL    HW216080   5.592   1.907   1.832 -0.3580  0.9613 -0.3138
37240SOL     OW16081   8.669   9.255   5.666  0.2645 -0.4322 -0.5542
37240SOL    HW116082   8.587   9.208   5.684  0.3582 -0.2926  0.2699
37240SOL    HW216083   8.673   9.322   5.734  0.5159  0.2827 -1.2568
37241SOL     OW16084   7.446  10.774   1.836  0.0718 -0.1184 -0.6567
37241SOL    HW116085   7.539  10.759   1.849  0.1211 -0.4903 -1.4094
37241SOL    HW216086   7.436  10.869   1.838  0.6403 -0.0285 -1.7187
37242SOL     OW16087   8.516   2.780  11.069  0.3221 -0.4051 -0.3569
37242SOL    HW116088   8.592   2.836  11.083  0.7256 -0.9608 -0.3055
37242SOL    HW216089   8.471   2.778  11.153 -0.8345  1.4719 -0.8532
37243SOL     OW16090   2.660   5.031   6.961 -0.6690 -0.1206  0.1987
37243SOL    HW116091   2.755   5.028   6.970 -0.5777 -0.7107 -0.8106
37243SOL    HW216092   2.641   5.118   6.927 -0.1223 -1.1615 -3.0663
37244SOL     OW16093   2.761  10.528   7.522 -0.1956 -0.1224  0.2985
37244SOL    HW116094   2.752  10.604   7.464  3.3747 -0.5941 -1.1630
37244SOL    HW216095   2.818  10.558   7.592 -1.0154 -0.7334  1.2499
37245SOL     OW16096   8.724   9.495   7.139  0.1334 -0.1614  0.1403
37245SOL    HW116097   8.685   9.407   7.143  0.9762 -0.5086  1.4264
37245SOL    HW216098   8.649   9.554   7.139 -0.4963 -0.8588 -1.8896
37246SOL     OW16099   0.514   7.460   3.635 -0.4996 -0.1091  0.0673
37246SOL    HW116100   0.564   7.415   3.566  1.8295  2.3998 -0.0820
37246SOL    HW216101   0.478   7.537   3.591 -1.1873  0.1708  1.0907
37247SOL     OW16102   9.078   2.278   9.593 -0.1415 -0.2397  0.0135
37247SOL    HW116103   9.056   2.186   9.577  1.7906 -0.4447 -1.9008
37247SOL    HW216104   9.079   2.318   9.507  1.0421  1.0886  0.6089
37248SOL     OW16105   3.859   0.261   3.859  0.5429  0.1280  0.3878
37248SOL    HW116106   3.870   0.311   3.940  0.2969 -1.5653  1.5186
37248SOL    HW216107   3.920   0.187   3.869 -0.5039 -0.8603 -0.3184
37249SOL     OW16108   7.904   8.354   1.728 -0.4114 -0.0699  0.6158
37249SOL    HW116109   7.889   8.446   1.705 -0.4837  0.1935  1.6598
37249SOL    HW216110   7.819   8.323   1.759 -0.3957 -0.5066  0.2283
37250SOL     OW16111   1.361   1.262   9.977  0.2062  0.0837 -0.0498
37250SOL    HW116112   1.413   1.249  10.056  0.1489  0.2192  0.0093
37250SOL    HW216113   1.420   1.308   9.917 -0.1387  1.0672  0.3432
37251SOL     OW16114   0.851   1.405   7.596 -0.1218 -0.3627 -0.2454
37251SOL    HW116115   0.788   1.413   7.667 -0.1651  0.0993 -0.3311
37251SOL    HW216116   0.882   1.315   7.601 -2.2048 -1.2248 -1.3905
37252SOL     OW16117   0.949   3.561   6.934  0.2291  0.2828 -0.0295
37252SOL    HW116118   0.957   3.615   6.855  2.2067 -0.8933 -0.7109
37252SOL    HW216119   1.024   3.587   6.988  0.6378 -1.0328  0.0746
37253SOL     OW16120   7.617   0.403   5.693  0.1487  0.1450  0.1843
37253SOL    HW116121   7.632   0.466   5.622  0.5096  0.9252  0.9394
37253SOL    HW216122   7.685   0.423   5.757  0.2273 -0.9869  0.4677
37254SOL     OW16123   4.155   1.927   8.447 -0.2637  0.2828  0.1351
37254SOL    HW116124   4.217   1.870   8.402 -1.9579  0.3601 -2.5418
37254SOL    HW216125   4.191   2.015   8.437  0.0490  0.1513  0.1047
37255SOL     OW16126   8.598   4.065   5.290 -0.3749 -0.3229  0.0744
37255SOL    HW116127   8.655   3.995   5.323 -0.6583 -0.2022  0.8585
37255SOL    HW216128   8.601   4.056   5.195  1.1411 -0.1697  0.0767
37256SOL     OW16129   7.155   6.034   1.885 -0.0445 -0.8006  0.4882
37256SOL    HW116130   7.125   6.002   1.971  0.5091  0.3026  1.1132
37256SOL    HW216131   7.082   6.087   1.853  0.2525 -0.1157  0.9059
37257SOL     OW16132   0.739   6.364   3.991  0.2318  0.5854  0.0311
37257SOL    HW116133   0.659   6.312   4.001  1.1517 -0.6290  1.4634
37257SOL    HW216134   0.777   6.368   4.079  0.8451  2.6746 -0.2764
37258SOL     OW16135   9.640   3.777  10.141 -0.1388  0.5773  0.2959
37258SOL    HW116136   9.545   3.779  10.144 -0.1949 -0.8741  0.2904
37258SOL    HW216137   9.661   3.728  10.062  0.5797 -0.0315  0.8420
37259SOL     OW16138   4.263   5.824  10.299  0.0322 -0.1585 -0.3546
37259SOL    HW116139   4.293   5.772  10.224  0.6839 -2.5684  1.4517
37259SOL    HW216140   4.171   5.799  10.310  0.0596 -0.1499 -0.1057
37260SOL     OW16141   0.555   5.606   6.530  0.1865 -0.6500 -0.5738
37260SOL    HW116142   0.632   5.600   6.473 -0.8499 -1.3066 -1.9543
37260SOL    HW216143   0.527   5.515   6.542  0.1880 -0.4971  0.7386
37261SOL     OW16144   4.611  10.623   8.397  0.2658  0.8185 -0.1119
37261SOL    HW116145   4.697  10.621   8.355  0.7318  1.7325  0.7550
37261SOL    HW216146   4.555  10.669   8.334  0.1533 -0.5931 -1.0897
37262SOL     OW16147   3.506   5.127   4.559 -0.3938 -0.0499 -0.8972
37262SOL    HW116148   3.475   5.104   4.471 -3.0333 -3.4818  0.6983
37262SOL    HW216149   3.426   5.131   4.612  1.1584  1.3470  1.5235
37263SOL     OW16150   9.926   8.605   0.181 -0.7013  0.0757 -0.0788
37263SOL    HW116151   9.932   8.700   0.190 -1.9772  0.1962 -0.2225
37263SOL    HW216152   9.836   8.584   0.208 -1.0845 -0.8428 -1.8680
37264SOL     OW16153   5.244   0.052   0.160 -0.3218  0.2701 -0.1397
37264SOL    HW116154   5.328   0.047   0.114  0.0207 -2.6797  0.6133
37264SOL    HW216155   5.180   0.015   0.098 -0.2718 -1.4656  0.7876
37265SOL     OW16156  10.367   8.355   8.681 -0.0544 -0.4240  0.5759
37265SOL    HW116157  10.336   8.443   8.704  0.8488 -0.1269  0.6711
37265SOL    HW216158  10.304   8.324   8.616 -0.1766  0.4314  0.2716
37266SOL     OW16159   9.262   7.081   1.823  0.1141  0.3318  0.6860
37266SOL    HW116160   9.261   7.087   1.727  1.5950  3.6479  0.7360
37266SOL    HW216161   9.322   7.009   1.841  0.0684 -0.1496 -0.8619
37267SOL     OW16162   9.847  10.331   7.932  0.1861  0.0073  0.0291
37267SOL    HW116163   9.887  10.321   8.019 -0.2367  1.7878  0.4680
37267SOL    HW216164   9.756  10.353   7.950  0.0611  0.2366 -0.8736
37268SOL     OW16165   0.817   5.704   4.259  0.2092  0.2995  0.6696
37268SOL    HW116166   0.742   5.669   4.212  0.5089  1.9426 -1.1580
37268SOL    HW216167   0.892   5.655   4.225  0.5443  2.0956 -1.3964
37269SOL     OW16168   3.911   7.757   5.841 -0.4786  0.0149  0.2948
37269SOL    HW116169   3.913   7.853   5.841  1.1032  0.0812 -2.4498
37269SOL    HW216170   3.827   7.734   5.802 -0.3027  0.3379 -0.2837
37270SOL     OW16171   5.367   3.606   0.159 -0.1999  0.7879 -0.1238
37270SOL    HW116172   5.457   3.630   0.135 -0.0189  0.0997 -0.1750
37270SOL    HW216173   5.352   3.523   0.113 -0.3395  0.1438  1.0517
37271SOL     OW16174   0.424   1.599   2.020 -0.5737 -0.2153  0.1029
37271SOL    HW116175   0.490   1.624   2.085 -0.9248  1.0125  0.0227
37271SOL    HW216176   0.418   1.504   2.026  0.0513 -0.1960  1.2294
37272SOL     OW16177   0.073   1.633   1.052 -0.0822  0.4562 -0.4691
37272SOL    HW116178   0.015   1.641   0.976 -1.3907  1.1414  0.5581
37272SOL    HW216179   0.111   1.720   1.061  1.4609 -0.0909 -1.3684
37273SOL     OW16180  10.656   1.662   6.670 -0.2187 -0.6939  0.1803
37273SOL    HW116181  10.703   1.738   6.635 -2.3819  0.6499  0.0388
37273SOL    HW216182  10.670   1.667   6.765 -1.7840  0.9751  0.3723
37274SOL     OW16183  10.665  10.054   7.311 -0.1582 -0.2262 -0.1104
37274SOL    HW116184  10.712  10.108   7.375  1.0739 -0.7050 -0.5843
37274SOL    HW216185  10.639   9.976   7.360 -0.1333 -0.1282  0.0612
37275SOL     OW16186   5.764   9.873   2.342 -0.2210  0.0011 -0.4189
37275SOL    HW116187   5.783   9.875   2.435 -1.6357  1.2903 -0.1238
37275SOL    HW216188   5.849   9.856   2.300  0.7885  1.3690  0.9917
37276SOL     OW16189  10.376   8.786   1.178  0.4244  0.4693  0.4259
37276SOL    HW116190  10.336   8.717   1.231 -0.3969  0.8745  0.3416
37276SOL    HW216191  10.393   8.744   1.093  0.0247  0.3467  0.4068
37277SOL     OW16192  10.625   0.943   6.648  0.7020 -0.2222  0.2501
37277SOL    HW116193  10.711   0.902   6.640  0.5912 -0.4363  0.1223
37277SOL    HW216194  10.595   0.953   6.558 -0.5868 -2.6987  0.3151
37278SOL     OW16195   5.481   3.307   2.004  0.2351 -0.4586  0.2020
37278SOL    HW116196   5.503   3.399   1.986 -0.7536 -0.1062  0.7081
37278SOL    HW216197   5.481   3.265   1.919 -0.3237  0.2508 -0.1619
37279SOL     OW16198   6.330   4.878   7.659  0.4716 -0.2197  0.4890
37279SOL    HW116199   6.325   4.783   7.668  0.6195 -0.1504  1.4866
37279SOL    HW216200   6.409   4.894   7.608 -1.4045 -0.7396 -2.8408
37280SOL     OW16201   2.684   8.944   6.510  0.1207  0.7056 -0.3896
37280SOL    HW116202   2.630   8.909   6.438 -1.6811  2.2368  0.1323
37280SOL    HW216203   2.664   9.037   6.511  2.5780  1.2825  0.0983
37281SOL     OW16204   3.872   7.365   8.886 -0.0491 -0.3877  0.2695
37281SOL    HW116205   3.925   7.427   8.935  0.1851 -0.5401  0.2131
37281SOL    HW216206   3.804   7.418   8.845  0.6275 -0.0439 -0.4433
37282SOL     OW16207   7.645   1.010   1.236  0.0664 -0.4908 -0.1192
37282SOL    HW116208   7.740   0.995   1.245  0.2470  0.0828 -1.0245
37282SOL    HW216209   7.609   0.983   1.321  1.0154 -0.8945  0.1719
37283SOL     OW16210   6.944   7.152   4.903 -0.1089  0.0593 -0.0594
37283SOL    HW116211   6.883   7.110   4.963  1.7400 -1.1079  1.0947
37283SOL    HW216212   6.953   7.090   4.831 -1.0758  0.7374 -0.8066
37284SOL     OW16213   1.057   5.238   0.776 -0.2706  0.3445  0.0701
37284SOL    HW116214   1.009   5.185   0.713 -0.9748  1.3488 -0.2538
37284SOL    HW216215   1.004   5.236   0.855 -0.5432  0.9678 -0.0978
37285SOL     OW16216   0.298   2.817   7.582  0.4338 -0.5803 -0.3930
37285SOL    HW116217   0.221   2.776   7.623 -1.0707  1.0611 -1.4280
37285SOL    HW216218   0.340   2.866   7.652 -0.3638 -0.2497 -0.1382
37286SOL     OW16219   0.899  10.939  10.847 -0.3464  0.0439 -0.1255
37286SOL    HW116220   0.988  10.934  10.882 -0.7657  1.4478  1.2840
37286SOL    HW216221   0.910  10.972  10.757  0.5086  2.8631  0.8883
37287SOL     OW16222   3.578   8.816   6.082  0.1598  0.3491  0.9663
37287SOL    HW116223   3.574   8.764   6.162 -0.4810  0.5731  1.0856
37287SOL    HW216224   3.534   8.898   6.105  1.5720  1.1466  0.9322
37288SOL     OW16225   0.567   7.376   9.663 -0.6146  0.2842  0.1480
37288SOL    HW116226   0.632   7.446   9.655  1.5320 -1.5428  0.5296
37288SOL    HW216227   0.488   7.412   9.625  0.4290  2.8643  0.2452
37289SOL     OW16228   6.671   5.694   7.988 -0.1867 -0.2608  0.9988
37289SOL    HW116229   6.669   5.650   8.073 -1.8273  0.5859  1.4508
37289SOL    HW216230   6.634   5.630   7.927 -1.3287 -0.0187  1.4097
37290SOL     OW16231  10.388   1.082   4.001 -0.2303  0.6408 -0.5191
37290SOL    HW116232  10.476   1.046   4.000 -0.0331  1.1128 -0.4625
37290SOL    HW216233  10.400   1.176   3.986 -0.5888  0.9648  1.0524
37291SOL     OW16234   1.091   3.666   1.292 -0.1711 -0.4094 -0.2402
37291SOL    HW116235   1.035   3.592   1.316 -0.3236 -0.6439 -1.2753
37291SOL    HW216236   1.048   3.742   1.330 -2.9071 -0.1511 -3.4111
37292SOL     OW16237   4.019   3.403   1.276  0.0363 -0.6403 -0.1865
37292SOL    HW116238   4.097   3.348   1.272 -0.1648 -0.9076 -0.5228
37292SOL    HW216239   3.998   3.410   1.369  2.2893  2.0287  0.2612
37293SOL     OW16240   2.437   0.062   8.258 -0.4295  0.2345 -0.0768
37293SOL    HW116241   2.434   0.024   8.346 -1.5715  0.3705 -0.0388
37293SOL    HW216242   2.504   0.012   8.212  0.2173  0.1989  0.8878
37294SOL     OW16243   3.168   8.869   7.504 -0.0811 -0.0121 -0.0403
37294SOL    HW116244   3.179   8.796   7.444 -1.1112 -1.9120  1.9478
37294SOL    HW216245   3.125   8.937   7.452  2.3925 -0.0870 -2.3803
37295SOL     OW16246   8.176   0.453   3.448  0.7918 -0.2586  0.0328
37295SOL    HW116247   8.226   0.396   3.389  1.7623 -0.0741  0.6530
37295SOL    HW216248   8.166   0.403   3.528 -0.6116 -0.5422 -0.2868
37296SOL     OW16249   8.638   8.263   0.430 -0.0558 -0.5399  0.1482
37296SOL    HW116250   8.680   8.342   0.466 -0.4492 -0.5503  0.6353
37296SOL    HW216251   8.640   8.201   0.503 -0.1541 -0.8268 -0.0963
37297SOL     OW16252   2.860   0.379   3.638 -0.0269  0.2593 -0.5644
37297SOL    HW116253   2.825   0.376   3.726 -2.0827 -0.0045 -1.3438
37297SOL    HW216254   2.944   0.425   3.647  0.7601 -1.4669  1.7720
37298SOL     OW16255   5.861   0.486   7.911  0.8066  0.1750  0.1925
37298SOL    HW116256   5.928   0.495   7.979  1.6057  1.9291 -0.7449
37298SOL    HW216257   5.847   0.392   7.902  2.1030 -0.1602  1.4170
37299SOL     OW16258   7.555   3.259   3.851  0.3922 -0.0405  0.9377
37299SOL    HW116259   7.590   3.239   3.938 -0.6246 -1.6543  1.0175
37299SOL    HW216260   7.571   3.180   3.800 -0.1323  0.4309  0.0117
37300SOL     OW16261   5.791   4.355   6.383 -0.1687  0.0623 -0.1823
37300SOL    HW116262   5.784   4.271   6.338 -2.5828 -1.0091  1.9773
37300SOL    HW216263   5.734   4.414   6.334 -1.7146 -0.7239  0.6232
37301SOL     OW16264   8.619  10.794   6.601 -0.5930 -0.8298  0.0155
37301SOL    HW116265   8.665  10.831   6.526 -1.8814  1.0047  0.0389
37301SOL    HW216266   8.687  10.778   6.666  0.2362 -0.0279 -0.6306
37302SOL     OW16267   6.607   0.831   0.806 -0.1983 -0.0026 -0.0185
37302SOL    HW116268   6.666   0.873   0.869  1.0632 -2.9979  0.9648
37302SOL    HW216269   6.519   0.856   0.835  0.4533  1.8942  0.4664
37303SOL     OW16270   8.391   0.643   9.318  0.6161 -0.4148  0.3301
37303SOL    HW116271   8.355   0.556   9.302 -1.6160  0.5322 -0.2579
37303SOL    HW216272   8.394   0.684   9.231 -1.2144  1.0589  0.8829
37304SOL     OW16273   8.803  10.830   4.738 -0.3245  0.2026 -0.0342
37304SOL    HW116274   8.800  10.735   4.726  0.5799  0.0716  0.6795
37304SOL    HW216275   8.713  10.853   4.764 -0.0916 -0.7833  1.8668
37305SOL     OW16276   6.864   2.808   9.776  0.3824 -0.3871  0.3630
37305SOL    HW116277   6.848   2.790   9.869 -1.0584 -1.8726 -0.1126
37305SOL    HW216278   6.959   2.799   9.766  0.4751 -0.9688  1.5592
37306SOL     OW16279   5.236   3.730   2.012  0.2102 -0.1053  0.6173
37306SOL    HW116280   5.220   3.739   1.918  1.1292 -0.9036  0.3681
37306SOL    HW216281   5.170   3.785   2.053 -1.0659 -0.7857 -0.4530
37307SOL     OW16282   3.382   3.681  10.478  0.2284  1.0000  0.1205
37307SOL    HW116283   3.399   3.706  10.569  2.1663 -0.4260  0.2265
37307SOL    HW216284   3.469   3.677  10.438 -0.2083 -2.0089 -0.7709
37308SOL     OW16285   9.518   8.231   1.323  0.5395 -0.3946  0.2214
37308SOL    HW116286   9.529   8.154   1.267 -0.7548 -0.8312  0.5103
37308SOL    HW216287   9.536   8.199   1.411 -0.3771 -0.4904  0.3887
37309SOL     OW16288   1.333   7.191   3.717  0.2422  0.0526 -0.2544
37309SOL    HW116289   1.357   7.269   3.666  0.9457 -0.3361 -0.5413
37309SOL    HW216290   1.263   7.151   3.666 -0.0739  0.4551 -0.1441
37310SOL     OW16291   0.895   5.932   8.844  0.1601 -0.3352 -0.4577
37310SOL    HW116292   0.855   5.989   8.778  0.3617 -0.7104 -0.9071
37310SOL    HW216293   0.837   5.940   8.920 -1.4319 -1.6928 -1.4419
37311SOL     OW16294   9.364   9.094   1.764  0.0980  0.0636  0.5570
37311SOL    HW116295   9.396   9.015   1.720 -1.2045 -0.2214  0.0603
37311SOL    HW216296   9.440   9.151   1.770  0.6604 -0.5150 -0.6930
37312SOL     OW16297   3.797   8.058   2.046  0.0424 -0.7617 -0.1071
37312SOL    HW116298   3.844   8.140   2.030 -0.2181 -0.4324  0.7248
37312SOL    HW216299   3.835   8.025   2.127 -3.2279  1.1840  2.5082
37313SOL     OW16300   6.861   8.158   1.829  0.1736 -0.7199  0.3977
37313SOL    HW116301   6.804   8.085   1.805 -0.6433  0.3822 -1.2563
37313SOL    HW216302   6.855   8.218   1.754  3.1983 -0.3510  0.3081
37314SOL     OW16303   2.884  10.331   2.382 -0.1053 -0.6922 -0.0451
37314SOL    HW116304   2.935  10.335   2.463  0.4090 -0.6834 -0.3660
37314SOL    HW216305   2.949  10.316   2.313 -0.6932 -2.2915 -0.2838
37315SOL     OW16306   4.164   5.947  10.607 -0.4077  0.0865  0.3170
37315SOL    HW116307   4.144   6.010  10.537 -0.2700 -0.3965 -0.1713
37315SOL    HW216308   4.232   5.891  10.569 -0.8749 -0.6593  0.5556
37316SOL     OW16309   8.142   1.872   1.017  0.1476 -0.2541 -0.1224
37316SOL    HW116310   8.162   1.869   0.923  0.8803 -1.8168  0.0661
37316SOL    HW216311   8.227   1.878   1.060 -0.2168  1.4493  0.4508
37317SOL     OW16312   2.783  10.382   5.111  0.0731  0.0929 -0.5164
37317SOL    HW116313   2.733  10.300   5.104 -1.7985  1.0334  0.8354
37317SOL    HW216314   2.717  10.451   5.100  1.2327  1.4044  0.4542
37318SOL     OW16315   7.237   0.921   3.471 -0.2643 -0.1452 -0.6730
37318SOL    HW116316   7.249   1.015   3.480 -1.3745 -0.0284 -0.2335
37318SOL    HW216317   7.156   0.903   3.519  0.1343 -1.3784 -0.4298
37319SOL     OW16318   4.473   2.599   7.980 -0.2652  0.0726  0.4608
37319SOL    HW116319   4.402   2.537   7.995  0.1505 -0.7758 -0.9136
37319SOL    HW216320   4.551   2.545   7.969  0.2050  0.8611 -0.2201
37320SOL     OW16321   8.081   4.941   1.117 -0.2083  0.3190  0.0761
37320SOL    HW116322   8.027   4.863   1.106 -0.6437  0.2483  2.3304
37320SOL    HW216323   8.034   4.994   1.181  0.2876  2.2705 -1.1013
37321SOL     OW16324   2.291   8.827   6.932 -0.4241 -0.7369  0.8944
37321SOL    HW116325   2.357   8.760   6.950 -1.3234 -1.9879 -0.2961
37321SOL    HW216326   2.263   8.856   7.019 -0.5651 -2.4812  1.4622
37322SOL     OW16327   2.150   9.842   9.292  0.6368 -0.4596  0.5614
37322SOL    HW116328   2.128   9.795   9.211 -0.3996 -0.7288  0.9948
37322SOL    HW216329   2.215   9.786   9.334 -0.7744 -1.6779  1.2016
37323SOL     OW16330   4.254   9.387   9.427  0.1078 -0.1333 -0.1421
37323SOL    HW116331   4.350   9.389   9.432  0.1390  1.5565 -0.8093
37323SOL    HW216332   4.235   9.322   9.360  0.8152 -0.1460 -0.3381
37324SOL     OW16333   7.292   9.230   3.645 -0.2479  0.5477  0.4080
37324SOL    HW116334   7.317   9.319   3.620 -3.9469  1.6737  0.1857
37324SOL    HW216335   7.300   9.179   3.564 -0.3393  1.2382 -0.0455
37325SOL     OW16336  10.521   1.151   8.732  0.6638 -0.4393 -0.6935
37325SOL    HW116337  10.503   1.123   8.822  0.3846  0.7869 -0.3615
37325SOL    HW216338  10.459   1.101   8.679 -0.0948 -0.1657 -0.0757
37326SOL     OW16339   1.971   9.902   3.847 -0.1687  0.1504 -0.8538
37326SOL    HW116340   1.981   9.832   3.784  0.2612  0.2608 -0.9096
37326SOL    HW216341   2.038   9.967   3.823  1.5643 -0.8050  1.0660
37327SOL     OW16342   2.121  10.595   9.914  0.4578 -0.1996  0.0230
37327SOL    HW116343   2.029  10.618   9.926  0.8857  0.3671  2.6099
37327SOL    HW216344   2.120  10.500   9.901 -0.4976 -0.1808 -0.0814
37328SOL     OW16345   2.585   6.792   7.025 -0.4751 -0.1868 -0.5766
37328SOL    HW116346   2.588   6.711   7.075  1.5244  0.4661  0.4910
37328SOL    HW216347   2.591   6.764   6.933 -1.2749 -1.2883 -0.2977
37329SOL     OW16348  10.741   8.162   2.978 -0.1807 -0.1793 -0.2455
37329SOL    HW116349  10.769   8.129   2.893 -0.7096  0.2581 -0.5903
37329SOL    HW216350  10.755   8.256   2.974 -0.7680 -0.0810 -0.0639
37330SOL     OW16351   1.247   7.031   1.524  0.0291 -0.3976 -0.1561
37330SOL    HW116352   1.271   6.952   1.574  2.2296 -1.9098 -3.2576
37330SOL    HW216353   1.186   6.999   1.458  0.2436  0.6867 -0.8911
37331SOL     OW16354  10.611   8.056   8.556 -0.3835 -0.2655 -0.2094
37331SOL    HW116355  10.525   8.021   8.532 -0.8088 -0.8052  1.8884
37331SOL    HW216356  10.669   7.980   8.554 -0.4701 -0.3592  0.6161
37332SOL     OW16357   7.756   0.607   0.883 -0.7325 -0.6616  0.0113
37332SOL    HW116358   7.715   0.684   0.842 -0.8470 -0.5476  0.3341
37332SOL    HW216359   7.797   0.642   0.962  2.2993 -0.2457 -1.5936
37333SOL     OW16360   7.078   9.382   3.058  0.2208 -0.7683 -0.5499
37333SOL    HW116361   7.135   9.306   3.056  1.1014 -0.1974  0.9201
37333SOL    HW216362   7.138   9.457   3.060 -0.5689 -0.1341  0.4403
37334SOL     OW16363   8.282   6.664   6.776 -0.1594 -0.6140  0.3976
37334SOL    HW116364   8.243   6.585   6.740  0.0149 -0.7094  0.4197
37334SOL    HW216365   8.363   6.676   6.726 -1.1183  0.6287 -0.9668
37335SOL     OW16366   0.279  10.461   3.142 -0.5261 -0.1636  0.4911
37335SOL    HW116367   0.219  10.485   3.212 -0.0066  0.3449  0.7623
37335SOL    HW216368   0.359  10.434   3.186  1.4770  4.4046  0.1392
37336SOL     OW16369   7.831   0.610   9.267 -0.4163  0.0219  0.3595
37336SOL    HW116370   7.827   0.613   9.363 -1.5244  0.1578  0.3214
37336SOL    HW216371   7.859   0.521   9.247 -0.7447 -0.1833  0.7984
37337SOL     OW16372   3.553   7.795   6.607  0.2773  0.8375  0.2817
37337SOL    HW116373   3.618   7.859   6.577  0.8519 -0.2101 -0.8637
37337SOL    HW216374   3.553   7.728   6.538  0.4486 -0.9064  1.8824
37338SOL     OW16375  10.640   0.436   2.060 -0.2998  0.1457  0.2580
37338SOL    HW116376  10.575   0.434   2.130  0.1804  1.0275  0.7550
37338SOL    HW216377  10.602   0.491   1.992  0.5559  2.0841  1.2546
37339SOL     OW16378   0.326   5.761   0.661 -0.3021 -0.1510  0.2131
37339SOL    HW116379   0.258   5.767   0.728  1.2507 -0.6002  1.9113
37339SOL    HW216380   0.344   5.667   0.653 -0.0557 -0.0560 -0.4264
37340SOL     OW16381   9.313   4.625   0.123  0.1794  0.4866  0.3623
37340SOL    HW116382   9.365   4.557   0.080  0.7427  1.3757 -0.3915
37340SOL    HW216383   9.224   4.589   0.126  0.5402 -0.4318  0.3205
37341SOL     OW16384   7.948   5.450   8.778 -0.0055  0.5354  0.3855
37341SOL    HW116385   7.921   5.508   8.707 -0.5573 -1.8344 -1.4483
37341SOL    HW216386   8.044   5.455   8.777  0.0001  0.4662 -0.6108
37342SOL     OW16387   1.148   3.244   5.224  0.3277 -0.5668  0.0636
37342SOL    HW116388   1.130   3.218   5.133 -4.5240 -2.0895  1.1579
37342SOL    HW216389   1.165   3.161   5.269 -0.0529 -0.1478  0.9967
37343SOL     OW16390   7.031   2.414   9.254 -0.2018 -0.3723 -0.2340
37343SOL    HW116391   7.008   2.474   9.324 -1.2156 -0.9257 -0.0764
37343SOL    HW216392   6.947   2.384   9.219  0.2885 -0.9510 -0.9476
37344SOL     OW16393   8.324   0.023   1.299 -0.4662 -0.5729  0.0470
37344SOL    HW116394   8.416   0.016   1.325 -0.1718 -1.1055 -1.0924
37344SOL    HW216395   8.298   0.110   1.328  0.2120 -0.6591  0.9512
37345SOL     OW16396   5.246  10.301   3.038 -0.0516 -0.5422  0.6272
37345SOL    HW116397   5.193  10.301   2.958  0.0961 -1.1437  0.5274
37345SOL    HW216398   5.328  10.259   3.013  0.4240  0.2492  0.8229
37346SOL     OW16399   2.080  10.818   7.629  0.4278 -0.5511 -0.1789
37346SOL    HW116400   2.101  10.730   7.599 -0.2192 -0.3784 -1.1907
37346SOL    HW216401   2.006  10.845   7.575 -1.2280 -0.4444  2.0017
37347SOL     OW16402   1.402  10.321   6.234  1.0600 -0.1879  0.1834
37347SOL    HW116403   1.471  10.315   6.168  0.7336  1.2581 -0.3324
37347SOL    HW216404   1.446  10.355   6.311  0.9049  1.0307 -0.2387
37348SOL     OW16405   0.865   0.277   3.625 -0.0666 -0.3142  0.0156
37348SOL    HW116406   0.868   0.353   3.683 -0.6053  0.8357 -1.3784
37348SOL    HW216407   0.952   0.275   3.585 -0.4430  0.3494 -0.8646
37349SOL     OW16408  11.108   1.232  10.020 -0.3304  0.2355  0.3867
37349SOL    HW116409  11.034   1.272  10.064 -0.1301 -0.0292  0.9788
37349SOL    HW216410  11.180   1.237  10.083  0.1998  0.6233 -0.2340
37350SOL     OW16411   8.347   2.779   0.182  0.0814  0.1465  0.3764
37350SOL    HW116412   8.275   2.824   0.226  0.3464 -0.6126  1.6370
37350SOL    HW216413   8.308   2.696   0.153  0.2612  0.0589  0.3859
37351SOL     OW16414   6.097   2.823   4.455 -0.8875 -0.5181  0.1073
37351SOL    HW116415   6.119   2.890   4.519 -0.0845 -0.3746 -0.3084
37351SOL    HW216416   6.025   2.861   4.404 -1.0186 -0.3285  0.4336
37352SOL     OW16417   3.672   0.893   4.589 -0.1939 -0.2739 -0.1211
37352SOL    HW116418   3.610   0.928   4.653  0.9915  0.1597  0.8230
37352SOL    HW216419   3.756   0.893   4.634  0.6159 -0.3011 -1.5627
37353SOL     OW16420   4.833   7.143   5.068 -0.7475 -0.0569 -0.1710
37353SOL    HW116421   4.773   7.190   5.010 -0.8595  0.0526  0.0295
37353SOL    HW216422   4.775   7.095   5.128 -0.6350 -0.4308 -0.3543
37354SOL     OW16423   2.963  10.114  10.424 -0.5791 -0.4011 -0.0153
37354SOL    HW116424   2.907  10.048  10.465 -2.5815  1.0476 -0.3090
37354SOL    HW216425   3.039  10.121  10.482 -1.2194 -1.5981  1.0040
37355SOL     OW16426   5.268   4.479   4.059  0.3680  0.2697 -0.2889
37355SOL    HW116427   5.300   4.519   3.978  1.3801 -0.1422 -0.1061
37355SOL    HW216428   5.261   4.386   4.039 -0.0410  0.2590 -0.1039
37356SOL     OW16429   6.643   8.200   8.948  0.5463 -0.2943  0.2518
37356SOL    HW116430   6.684   8.169   9.029  0.4235  0.6196  0.6737
37356SOL    HW216431   6.715   8.240   8.899  0.6167 -0.8267 -0.0987
37357SOL     OW16432   0.979   6.157  10.773 -0.0694  0.2970 -0.2775
37357SOL    HW116433   0.907   6.211  10.805 -0.4074  1.1632 -2.3262
37357SOL    HW216434   0.937   6.089  10.720  0.5289 -0.1709 -0.1608
37358SOL     OW16435   8.510   3.412   8.220 -0.2192  1.0253  0.0497
37358SOL    HW116436   8.467   3.480   8.273 -1.1114  0.1939  0.4241
37358SOL    HW216437   8.509   3.334   8.275  0.5368  0.6229 -0.4894
37359SOL     OW16438   4.305   3.773   2.292  0.5167  0.3914  0.0711
37359SOL    HW116439   4.211   3.782   2.279  0.4558 -0.9085 -0.5665
37359SOL    HW216440   4.315   3.751   2.384  0.4578  3.4626  0.9032
37360SOL     OW16441   1.382   5.113   6.850 -0.6861 -0.2724  0.4974
37360SOL    HW116442   1.359   5.202   6.877 -1.0417  0.1715 -1.1938
37360SOL    HW216443   1.407   5.070   6.932 -1.5220  1.0583  1.5090
37361SOL     OW16444  10.392   5.498   9.835 -0.0496  0.6104 -0.3216
37361SOL    HW116445  10.414   5.405   9.823 -1.1839  0.1490  0.8202
37361SOL    HW216446  10.471   5.537   9.872  0.5842  0.1970 -1.2186
37362SOL     OW16447   9.130   6.386   1.762 -0.1275  0.2624  0.0286
37362SOL    HW116448   9.103   6.304   1.804 -1.0440  0.6417  0.2020
37362SOL    HW216449   9.059   6.447   1.780 -0.4964  0.4905 -1.9795
37363SOL     OW16450   1.906   3.767   6.464 -0.8711  0.0059  0.0564
37363SOL    HW116451   1.886   3.822   6.539  0.9042  0.8333 -0.0255
37363SOL    HW216452   1.861   3.809   6.391 -1.2794  0.1065  0.3584
37364SOL     OW16453   3.992   1.580   7.455 -0.2818 -0.7467  0.6296
37364SOL    HW116454   3.900   1.560   7.440 -0.8861  2.0376  0.0833
37364SOL    HW216455   4.039   1.524   7.393 -1.8240 -0.1835 -1.1414
37365SOL     OW16456   8.536   4.749   7.869  0.6470 -0.5199 -0.7080
37365SOL    HW116457   8.619   4.782   7.905  0.7404 -1.5682  0.1009
37365SOL    HW216458   8.469   4.783   7.928  0.6377 -0.8414 -0.5319
37366SOL     OW16459   3.110   2.040   3.519  0.5560 -0.2719 -0.5447
37366SOL    HW116460   3.133   2.125   3.483 -0.8830  0.1878 -0.4339
37366SOL    HW216461   3.038   2.058   3.580  1.7614 -1.2529  1.2794
37367SOL     OW16462  10.942   5.570   1.054  0.0479 -0.3052 -0.8347
37367SOL    HW116463  11.020   5.589   1.107 -0.4031  0.1967 -0.3365
37367SOL    HW216464  10.908   5.657   1.032 -1.5643 -0.4821  0.7349
37368SOL     OW16465   2.646   5.088   3.687  0.0463 -0.3075  0.0231
37368SOL    HW116466   2.707   5.057   3.755  0.1227 -0.0976  0.0512
37368SOL    HW216467   2.679   5.048   3.606 -0.1579 -0.7138  0.1384
37369SOL     OW16468   4.836   4.202   6.631 -0.2035  0.2735 -0.0036
37369SOL    HW116469   4.907   4.233   6.687  0.6116  0.9282 -1.3521
37369SOL    HW216470   4.863   4.114   6.603 -0.0107  0.4383 -0.3457
37370SOL     OW16471   8.249   2.067  11.019 -0.1077 -0.3565  0.5023
37370SOL    HW116472   8.173   2.124  11.032  0.2717  1.0110 -2.4095
37370SOL    HW216473   8.211   1.981  11.000 -0.7469 -0.6885  3.0092
37371SOL     OW16474  10.648   2.570   6.483  0.1955  0.0739 -0.3170
37371SOL    HW116475  10.622   2.517   6.407  0.6749 -0.3624 -0.1769
37371SOL    HW216476  10.687   2.507   6.543  2.2311  0.8205 -0.8031
37372SOL     OW16477   9.983   6.146   2.458 -0.5481 -0.1043 -0.6586
37372SOL    HW116478  10.065   6.185   2.489 -0.6426  0.7415 -1.4268
37372SOL    HW216479   9.915   6.202   2.495 -0.7278 -0.0907 -1.0032
37373SOL     OW16480   0.930   3.727   1.040  0.4378 -0.4741 -0.9962
37373SOL    HW116481   0.935   3.633   1.020  0.9095 -0.9480  1.1245
37373SOL    HW216482   0.972   3.736   1.125 -0.9191  1.4602 -0.4662
37374SOL     OW16483   3.778  10.396   2.674  0.0816 -0.4571 -0.3926
37374SOL    HW116484   3.839  10.352   2.615  0.1660 -0.0816 -0.5880
37374SOL    HW216485   3.692  10.379   2.636  0.0796 -0.8179 -0.2276
37375SOL     OW16486   2.270   4.205   9.979 -0.0406  0.0730 -0.2270
37375SOL    HW116487   2.298   4.239  10.064  0.1196 -1.1149  0.2064
37375SOL    HW216488   2.241   4.283   9.931  2.4796  1.1825 -0.1279
37376SOL     OW16489   7.181   4.620   2.030 -0.0071  0.0471  0.4929
37376SOL    HW116490   7.166   4.540   1.978  2.0599 -0.9832  1.3776
37376SOL    HW216491   7.107   4.622   2.091 -1.7165  0.5152 -1.4584
37377SOL     OW16492   2.922   9.258   7.151  0.1286  0.1100 -0.3987
37377SOL    HW116493   2.967   9.320   7.093  4.5364 -2.4908 -0.2587
37377SOL    HW216494   2.955   9.278   7.238 -1.8704  0.2836  0.3685
37378SOL     OW16495   5.816   5.657   7.261 -0.2943  0.0318 -0.0253
37378SOL    HW116496   5.833   5.579   7.208  0.6893 -0.4643  0.9919
37378SOL    HW216497   5.831   5.730   7.201 -0.4720 -0.5275 -0.7758
37379SOL     OW16498   7.818   3.046   6.664  0.3293  0.4412 -0.1748
37379SOL    HW116499   7.887   3.100   6.625  0.3881  0.1504 -0.4854
37379SOL    HW216500   7.865   2.980   6.714  0.2555  0.7369  0.2929
37380SOL     OW16501   9.897  10.550   7.751  0.0077 -0.5789  0.5279
37380SOL    HW116502   9.990  10.555   7.733  0.1650 -0.5500  1.2906
37380SOL    HW216503   9.889  10.484   7.820 -0.2849  0.8254  1.9201
37381SOL     OW16504   3.428   5.975   8.710  0.0877 -0.1381 -0.2581
37381SOL    HW116505   3.406   6.068   8.722 -0.1550  0.0346 -1.8075
37381SOL    HW216506   3.453   5.945   8.798  0.5063  1.4722  0.2215
37382SOL     OW16507   6.862   4.252   1.885 -0.2069  0.5182 -0.3902
37382SOL    HW116508   6.925   4.180   1.884  1.2013  1.6417  0.8642
37382SOL    HW216509   6.792   4.222   1.944 -0.3237 -0.3347 -0.9541
37383SOL     OW16510   9.191   4.721   4.451 -0.1914 -0.0307  0.0755
37383SOL    HW116511   9.247   4.788   4.411 -1.3119  0.3389 -0.9243
37383SOL    HW216512   9.235   4.638   4.430  0.0204  0.2531 -0.6345
37384SOL     OW16513   6.764   2.245   4.634  0.5515  0.5899 -0.2924
37384SOL    HW116514   6.691   2.254   4.572  1.2740 -1.4204 -1.5300
37384SOL    HW216515   6.724   2.252   4.720 -1.0333  0.0846 -0.9490
37385SOL     OW16516   7.567   3.817   7.965  0.1173 -0.1861 -0.0576
37385SOL    HW116517   7.645   3.834   7.912 -0.6063  0.4469 -0.9590
37385SOL    HW216518   7.591   3.741   8.018  2.4418  1.8300  2.0214
37386SOL     OW16519  10.830   0.784  10.072  0.4291  0.0324  0.2177
37386SOL    HW116520  10.797   0.777   9.983  0.3231  0.8741  0.1800
37386SOL    HW216521  10.752   0.790  10.127  0.4975  0.3442  0.2845
37387SOL     OW16522   5.496  10.920   6.916 -0.3937  0.1492 -0.0172
37387SOL    HW116523   5.401  10.907   6.924 -0.1497 -1.0441  1.1761
37387SOL    HW216524   5.534  10.833   6.928  0.8536  0.5920 -0.6045
37388SOL     OW16525   7.205   7.370   4.854  0.2608 -0.0547  0.5575
37388SOL    HW116526   7.229   7.430   4.783 -0.1063 -1.0843 -0.4752
37388SOL    HW216527   7.204   7.424   4.933 -1.0370  1.5166 -0.4867
37389SOL     OW16528   4.329   0.203   3.924 -0.1305  0.5551  0.4149
37389SOL    HW116529   4.423   0.215   3.927  0.0221 -0.5652  0.6588
37389SOL    HW216530   4.316   0.127   3.867 -0.8675  0.5387  0.5842
37390SOL     OW16531   1.103   5.894   9.059  0.0946 -0.0906 -0.6675
37390SOL    HW116532   1.077   5.903   8.967 -1.0137 -1.5806 -0.5416
37390SOL    HW216533   1.024   5.919   9.109  0.2658 -0.5611 -0.1563
37391SOL     OW16534   5.623   8.139   7.737  0.0315  0.4580  0.3511
37391SOL    HW116535   5.626   8.156   7.831  1.1805 -0.5589  0.5172
37391SOL    HW216536   5.591   8.049   7.730  0.6727  0.2629 -0.1777
37392SOL     OW16537   1.133   1.396  10.555 -0.0613 -0.2675  0.0342
37392SOL    HW116538   1.224   1.401  10.524  0.1610 -0.1595  0.6881
37392SOL    HW216539   1.102   1.486  10.555 -0.2917 -0.3464 -0.5476
37393SOL     OW16540   1.615   2.953   7.808  0.2785 -0.0142 -0.5250
37393SOL    HW116541   1.644   2.877   7.758 -1.2591 -0.3838 -0.9190
37393SOL    HW216542   1.604   2.921   7.897  0.1073 -0.1309 -0.5878
37394SOL     OW16543   8.731   0.617   1.729  0.4080  0.2011  0.0789
37394SOL    HW116544   8.700   0.615   1.638  0.0668  0.0787  0.1961
37394SOL    HW216545   8.822   0.587   1.723  0.2140 -0.3622 -0.1590
37395SOL     OW16546   8.171   3.387   1.750 -0.3688 -0.1746  0.1809
37395SOL    HW116547   8.239   3.454   1.741  0.1174 -0.6331  0.3648
37395SOL    HW216548   8.202   3.313   1.697 -1.5831  0.2453 -1.1815
37396SOL     OW16549   5.894   0.004   0.985 -0.2500 -0.2108 -0.4651
37396SOL    HW116550   5.813   0.006   0.934 -0.3779 -0.1175 -0.2638
37396SOL    HW216551   5.930   0.092   0.975 -1.1296  0.3559  0.9359
37397SOL     OW16552   0.901   1.357   3.798 -0.1054 -0.0830 -0.2881
37397SOL    HW116553   0.996   1.366   3.800 -0.2165  1.3528 -0.2076
37397SOL    HW216554   0.876   1.391   3.712 -0.6477  1.0024  0.2739
37398SOL     OW16555   1.786   8.429   5.680 -0.6132  0.1082  0.2374
37398SOL    HW116556   1.743   8.441   5.595 -0.5435 -0.7316  0.0734
37398SOL    HW216557   1.875   8.462   5.666  0.1017 -1.9941 -0.7076
37399SOL     OW16558   9.787   1.614   9.834  0.3718  0.1390 -0.1118
37399SOL    HW116559   9.858   1.659   9.881  2.7841 -2.3007 -1.1437
37399SOL    HW216560   9.778   1.663   9.753  1.0449  0.3695 -0.0566
37400SOL     OW16561   4.571  10.682   1.869 -0.1172 -0.4929 -0.1063
37400SOL    HW116562   4.495  10.665   1.925 -1.7550  0.5267 -1.8828
37400SOL    HW216563   4.574  10.607   1.810 -0.5918  0.0860 -0.8850
37401SOL     OW16564  10.007   1.395   2.635  0.0541 -0.0607 -0.3833
37401SOL    HW116565   9.955   1.460   2.587 -0.8535 -0.1389  0.4530
37401SOL    HW216566  10.098   1.417   2.614 -0.2226  1.5414 -0.0602
37402SOL     OW16567   5.120  10.158   9.548  0.1073 -0.0044 -0.0972
37402SOL    HW116568   5.143  10.175   9.457  0.2610  0.5532  0.0390
37402SOL    HW216569   5.027  10.183   9.555 -0.0571 -0.5757 -0.2303
37403SOL     OW16570   1.035   4.893   2.280 -0.4728 -0.2431  0.0534
37403SOL    HW116571   1.038   4.928   2.191 -1.1184 -0.7232 -0.1605
37403SOL    HW216572   1.035   4.798   2.269  0.5181 -0.3185  0.6056
37404SOL     OW16573   3.619   3.486   8.817  0.4148  0.5602  0.0416
37404SOL    HW116574   3.641   3.537   8.895 -0.1654  0.0229  0.5718
37404SOL    HW216575   3.684   3.416   8.816  0.8921  1.0054 -0.3933
37405SOL     OW16576   5.962   2.572   9.385  0.8489 -0.3869 -0.2047
37405SOL    HW116577   5.948   2.662   9.414  0.2456  0.1381 -2.0025
37405SOL    HW216578   5.879   2.528   9.401  0.6584 -0.2097 -0.6602
37406SOL     OW16579   4.981   6.582   3.132 -0.2450  0.2903  0.2915
37406SOL    HW116580   4.995   6.629   3.215  0.3710  0.4301  0.1152
37406SOL    HW216581   5.040   6.506   3.138  0.4141  0.7381 -0.3580
37407SOL     OW16582   5.639   2.210   1.918 -1.0984  0.4356 -0.4400
37407SOL    HW116583   5.620   2.116   1.923 -1.0345  0.4702  0.8301
37407SOL    HW216584   5.570   2.250   1.971  0.0854  0.9161  0.7943
37408SOL     OW16585   0.677   2.244   9.903 -0.3808  0.4136  0.1156
37408SOL    HW116586   0.597   2.267   9.857 -0.8400  0.4837  0.9295
37408SOL    HW216587   0.718   2.328   9.923  0.7736  0.3632 -1.7444
37409SOL     OW16588   6.025   8.750   1.779  0.2955  0.7464 -0.1099
37409SOL    HW116589   6.068   8.835   1.769 -1.1405  1.6339  0.9435
37409SOL    HW216590   6.049   8.721   1.867  0.0546  0.4693 -0.1342
37410SOL     OW16591   5.680   3.819   6.819  0.1549 -0.0677 -0.5394
37410SOL    HW116592   5.773   3.832   6.799  0.0548  1.9039  0.0905
37410SOL    HW216593   5.671   3.846   6.911 -0.7752 -1.7490 -0.0932
37411SOL     OW16594   2.052   3.641   2.529 -0.1241  0.1884  0.4025
37411SOL    HW116595   2.145   3.622   2.542  0.0525  1.5432  1.2365
37411SOL    HW216596   2.011   3.554   2.524  1.1434 -0.4246  0.2758
37412SOL     OW16597   6.569   8.543   4.938  0.2376  0.4829  0.0707
37412SOL    HW116598   6.481   8.570   4.911  0.0847 -0.2175 -0.1503
37412SOL    HW216599   6.614   8.625   4.957 -0.9266  0.8135  1.6543
37413SOL     OW16600   7.000   1.974   8.779 -0.1693 -0.7476  0.3516
37413SOL    HW116601   6.914   1.938   8.756 -0.6343 -0.4427  1.5112
37413SOL    HW216602   6.982   2.066   8.801  0.3565 -0.8096  1.0943
37414SOL     OW16603   8.783   4.489   5.980 -0.0257 -0.3570 -0.6154
37414SOL    HW116604   8.855   4.496   5.917 -1.7302  0.2335 -2.5934
37414SOL    HW216605   8.781   4.396   6.003  1.1806 -0.4264 -0.6819
37415SOL     OW16606  10.250   0.915   5.440 -0.2973  0.6432 -0.3965
37415SOL    HW116607  10.281   0.977   5.507  0.1826  1.6039 -1.4740
37415SOL    HW216608  10.156   0.934   5.432 -0.4162  0.3280  0.1980
37416SOL     OW16609   9.737   4.518  10.297  0.3049 -0.1169  0.4924
37416SOL    HW116610   9.734   4.428  10.266  3.6131 -0.1581 -0.1122
37416SOL    HW216611   9.826   4.530  10.330 -0.5653  2.4242  2.3148
37417SOL     OW16612   1.020   9.711   0.775  0.7402 -0.4485 -0.2626
37417SOL    HW116613   1.012   9.696   0.870  1.8265  0.4304 -0.0116
37417SOL    HW216614   1.107   9.750   0.764  0.2880  0.2611 -1.5268
37418SOL     OW16615   7.360  10.152  10.181 -0.5189  0.1245 -0.4435
37418SOL    HW116616   7.356  10.187  10.270  1.8082 -1.6725  0.4831
37418SOL    HW216617   7.296  10.081  10.180 -0.7453  0.3258 -0.3093
37419SOL     OW16618  10.894   1.746   6.540  0.6003 -0.5962  0.0249
37419SOL    HW116619  10.965   1.803   6.569  1.1417 -0.1577 -1.9993
37419SOL    HW216620  10.921   1.658   6.566 -0.0402 -0.0694  2.8099
37420SOL     OW16621   2.039   5.447   9.912  0.6654 -0.3909 -0.4425
37420SOL    HW116622   2.030   5.540   9.928 -1.1999 -0.3656 -1.3638
37420SOL    HW216623   2.108   5.418   9.972 -0.2877  1.1531  1.5125
37421SOL     OW16624  10.512  10.166   7.561  0.3203 -0.4261 -0.3555
37421SOL    HW116625  10.422  10.152   7.531  0.6842 -2.3886 -0.6927
37421SOL    HW216626  10.553  10.080   7.551  2.1737  0.3867  0.0125
37422SOL     OW16627   9.475   6.656  10.392 -0.0155  0.4875 -0.5011
37422SOL    HW116628   9.454   6.623  10.305 -1.0668  0.4928 -0.2637
37422SOL    HW216629   9.440   6.745  10.394  0.4274  0.6593 -0.2360
37423SOL     OW16630   5.467   1.879   9.598 -0.1123 -0.1113  0.1208
37423SOL    HW116631   5.390   1.933   9.617  0.2326  0.2676  0.4900
37423SOL    HW216632   5.507   1.863   9.684  0.0334 -0.5901 -0.0322
37424SOL     OW16633   9.652   4.746   5.574  0.5644 -0.2971  0.0234
37424SOL    HW116634   9.615   4.759   5.661  1.0212 -0.2237  0.2085
37424SOL    HW216635   9.733   4.797   5.575 -0.0186  0.6915 -0.8404
37425SOL     OW16636   4.623   5.274   7.217  0.1273  0.5253  0.1349
37425SOL    HW116637   4.716   5.264   7.200  0.3942  0.0228  1.7957
37425SOL    HW216638   4.618   5.329   7.295 -0.9996  1.1121 -0.3130
37426SOL     OW16639   1.370   6.728   8.442 -0.2273  0.2960  0.2291
37426SOL    HW116640   1.284   6.707   8.477 -0.9356  0.6818 -1.1846
37426SOL    HW216641   1.366   6.700   8.350  1.4144 -0.3730  0.3259
37427SOL     OW16642   8.290   8.339   6.781  0.4584  0.0384 -0.3002
37427SOL    HW116643   8.212   8.315   6.832  0.3577  0.3461 -0.3039
37427SOL    HW216644   8.302   8.267   6.720  0.3816 -0.1767 -0.0619
37428SOL     OW16645  10.677  10.615   4.095 -0.0879 -0.8532  0.3665
37428SOL    HW116646  10.772  10.616   4.098 -0.0374 -1.0691 -0.6155
37428SOL    HW216647  10.649  10.616   4.186  0.8644 -1.3127  0.6749
37429SOL     OW16648   0.492   9.520   3.046  0.6437 -0.1697 -0.2694
37429SOL    HW116649   0.450   9.606   3.047  1.8123  0.4923 -2.2166
37429SOL    HW216650   0.561   9.526   3.112  0.4198  0.2230 -0.0699
37430SOL     OW16651   7.464   7.558   6.712 -0.9895 -0.0391  0.0590
37430SOL    HW116652   7.454   7.499   6.787 -0.9222  0.8082  0.7475
37430SOL    HW216653   7.535   7.519   6.662  0.0809  0.2352  1.2959
37431SOL     OW16654  10.162   1.306   3.489 -0.0693  0.0429 -0.4488
37431SOL    HW116655  10.085   1.254   3.513  0.1482  0.2126  0.7164
37431SOL    HW216656  10.234   1.266   3.539  0.6085 -0.1149 -1.5122
37432SOL     OW16657   4.699   8.021   1.002 -0.0150  0.0645  0.3488
37432SOL    HW116658   4.760   7.989   0.935  0.0282 -0.9824  0.8697
37432SOL    HW216659   4.677   8.110   0.974  2.3860  0.7964  0.6091
37433SOL     OW16660   4.798   7.165   2.530  0.0428 -0.8524 -0.2770
37433SOL    HW116661   4.727   7.128   2.477  0.7405 -0.3532 -1.5905
37433SOL    HW216662   4.870   7.180   2.469  0.2776  1.4025  0.4453
37434SOL     OW16663   2.220   2.064   3.994 -0.2101 -0.7215 -0.4598
37434SOL    HW116664   2.274   2.092   4.068 -0.4950 -0.3890 -0.3741
37434SOL    HW216665   2.139   2.114   4.004 -0.7368 -1.5759 -0.2949
37435SOL     OW16666   6.419   1.967   9.638  0.4116  0.1721  0.3974
37435SOL    HW116667   6.398   2.023   9.564 -2.7848 -0.7272  0.4733
37435SOL    HW216668   6.499   1.921   9.612 -0.5789 -0.1037 -2.5333
37436SOL     OW16669  10.360   9.576   2.248  0.1806 -0.1485  0.1607
37436SOL    HW116670  10.427   9.511   2.229  1.2224  0.7810  0.5118
37436SOL    HW216671  10.283   9.525   2.275  1.1629 -1.2069  1.0583
37437SOL     OW16672   3.833   9.013   7.644 -0.1207 -0.2310 -0.3153
37437SOL    HW116673   3.825   9.057   7.728  1.7458  1.4679 -0.9430
37437SOL    HW216674   3.790   8.928   7.656  1.8243 -0.8945  2.9735
37438SOL     OW16675   1.569   6.526   1.528  0.3473 -0.0299 -0.5424
37438SOL    HW116676   1.523   6.566   1.454  0.0172  1.4562  0.4162
37438SOL    HW216677   1.517   6.448   1.549 -0.2260  0.1883 -1.1229
37439SOL     OW16678   8.863   6.871   7.903  0.3522  0.3766  0.7983
37439SOL    HW116679   8.807   6.931   7.952  0.6522  0.2038  1.3582
37439SOL    HW216680   8.807   6.795   7.885  0.1238  0.6060  0.5268
37440SOL     OW16681   5.697   2.487   9.440 -0.1043  0.3843  0.2222
37440SOL    HW116682   5.613   2.481   9.394 -1.4057  1.2414  2.3339
37440SOL    HW216683   5.707   2.401   9.481 -0.7731  0.7733  1.2421
37441SOL     OW16684   8.176   3.515   9.908  0.4220 -0.3882  0.6074
37441SOL    HW116685   8.100   3.473   9.948  0.0909 -0.5546 -0.1756
37441SOL    HW216686   8.238   3.443   9.893  0.6741 -0.2771  1.1044
37442SOL     OW16687   9.370   1.699   0.940 -0.7878  0.1742  0.4812
37442SOL    HW116688   9.295   1.747   0.907  0.0027  1.4537  0.4857
37442SOL    HW216689   9.419   1.763   0.993 -0.3681 -0.9743  1.5360
37443SOL     OW16690   7.401   7.612   1.228 -0.5306 -0.0672  0.8196
37443SOL    HW116691   7.335   7.671   1.191 -0.4374 -0.2491  0.3536
37443SOL    HW216692   7.428   7.557   1.154 -0.6488 -0.7241  1.2537
37444SOL     OW16693   1.358  10.954   6.415  0.5689 -0.4292  0.4680
37444SOL    HW116694   1.394  11.033   6.374  2.6075 -1.6070 -0.1426
37444SOL    HW216695   1.391  10.882   6.362 -2.9113 -1.6996 -0.2408
37445SOL     OW16696   0.163   2.529   8.787 -0.0171 -0.5403  0.2026
37445SOL    HW116697   0.080   2.485   8.771  0.0494 -0.9751  1.0050
37445SOL    HW216698   0.228   2.473   8.744 -0.0911 -0.4035 -0.0925
37446SOL     OW16699   9.124   7.643   5.485  0.5325  0.5097  0.0736
37446SOL    HW116700   9.211   7.649   5.446  0.2078 -2.2508 -1.3675
37446SOL    HW216701   9.072   7.709   5.439  0.5124 -1.7233 -3.5641
37447SOL     OW16702   5.315   3.076  10.147  0.4194 -0.5112 -0.0352
37447SOL    HW116703   5.402   3.062  10.110  0.9525 -0.0759  1.0142
37447SOL    HW216704   5.327   3.069  10.242 -0.1597  2.0302  0.3026
37448SOL     OW16705   4.155   4.123   9.467 -0.0680 -0.2918  0.0427
37448SOL    HW116706   4.114   4.082   9.543 -0.2538 -0.4892 -0.1620
37448SOL    HW216707   4.094   4.106   9.395  0.4914 -0.8065 -0.3186
37449SOL     OW16708   8.278   6.715   0.136 -0.2682 -0.2018  0.1506
37449SOL    HW116709   8.305   6.636   0.183 -1.2333 -0.2057  0.7205
37449SOL    HW216710   8.349   6.732   0.074  2.1218  0.9952  2.9808
37450SOL     OW16711   6.523   0.057   1.602  0.3860 -0.5789 -0.3409
37450SOL    HW116712   6.596   0.096   1.649 -1.2185 -0.9574  2.6859
37450SOL    HW216713   6.445   0.089   1.647 -1.3002 -1.4560 -2.4296
37451SOL     OW16714   1.785   7.721   9.077 -0.0132  0.8795  0.4366
37451SOL    HW116715   1.805   7.635   9.115  0.9737  0.5034 -0.8569
37451SOL    HW216716   1.857   7.777   9.107  0.9590  0.4959 -1.0767
37452SOL     OW16717   7.110   6.252   6.303 -0.2970 -0.1790 -0.1631
37452SOL    HW116718   7.032   6.299   6.332 -0.3115 -0.0864 -0.3481
37452SOL    HW216719   7.121   6.278   6.211 -1.1577 -1.6427 -0.7337
37453SOL     OW16720   1.564  10.599   9.760 -0.3014  0.3424 -0.6127
37453SOL    HW116721   1.626  10.527   9.748 -0.4162  0.3397 -1.1943
37453SOL    HW216722   1.503  10.591   9.687 -0.7892  0.5547 -0.2403
37454SOL     OW16723  10.007   6.961   8.488  0.1078 -0.7707  0.3745
37454SOL    HW116724   9.942   7.031   8.491 -0.9056 -1.5563 -1.3947
37454SOL    HW216725  10.065   6.985   8.416  1.4023 -0.4325  1.4922
37455SOL     OW16726   0.000   5.606   2.914 -0.0879  0.0793  0.0739
37455SOL    HW116727   0.053   5.534   2.948 -1.0536 -0.0749  1.3351
37455SOL    HW216728   0.062   5.679   2.907  0.8188 -0.7436 -0.8693
37456SOL     OW16729   4.513   0.809   7.556  0.4107 -0.3492  0.2956
37456SOL    HW116730   4.500   0.716   7.540 -0.0659 -0.0183 -1.4966
37456SOL    HW216731   4.449   0.852   7.500 -0.8292  1.0442  2.6478
37457SOL     OW16732   0.617   9.207   9.478 -0.3554 -0.4979  0.3706
37457SOL    HW116733   0.572   9.288   9.457 -1.5950 -1.2795 -0.0907
37457SOL    HW216734   0.685   9.233   9.541  0.6295  1.2135 -1.2840
37458SOL     OW16735   3.278   7.325   6.926 -0.1868  0.3769 -0.3145
37458SOL    HW116736   3.212   7.257   6.915 -0.4731  0.9024 -2.2639
37458SOL    HW216737   3.280   7.343   7.020 -1.1261 -1.2894  0.0547
37459SOL     OW16738   3.643  10.438   9.519  0.7772  0.0963  0.0034
37459SOL    HW116739   3.679  10.369   9.575  1.2191 -1.0513 -1.6299
37459SOL    HW216740   3.710  10.452   9.453 -0.6353 -0.1875 -1.5483
37460SOL     OW16741   5.674  10.998   1.914  0.7690  0.5705  0.0283
37460SOL    HW116742   5.738  10.957   1.971  1.8169 -0.5038 -1.8073
37460SOL    HW216743   5.592  10.950   1.929  1.5335 -1.0619 -0.7790
37461SOL     OW16744   8.226   3.546   9.327  0.7283 -1.0383  0.6643
37461SOL    HW116745   8.153   3.486   9.342 -0.3850 -0.0560 -0.5710
37461SOL    HW216746   8.196   3.629   9.364  0.7220 -0.3451 -0.8140
37462SOL     OW16747   9.150   2.524   7.824 -0.0438  0.9042 -0.6167
37462SOL    HW116748   9.134   2.537   7.918  2.3978  0.1395 -0.0237
37462SOL    HW216749   9.173   2.612   7.792  2.8399  0.6188  0.3962
37463SOL     OW16750   6.694   1.482   2.796 -0.3353 -0.1212  0.0987
37463SOL    HW116751   6.640   1.555   2.766 -0.7427 -0.8902 -1.1206
37463SOL    HW216752   6.649   1.449   2.874  0.9185  2.1208  1.9133
37464SOL     OW16753  10.566   2.289   3.399  0.0449  0.4385  0.2147
37464SOL    HW116754  10.541   2.203   3.364 -0.8740  0.8551 -0.1911
37464SOL    HW216755  10.504   2.305   3.470 -0.5495  1.2581 -0.4625
37465SOL     OW16756   3.672   6.166   9.776 -0.0991  0.6468 -0.4834
37465SOL    HW116757   3.599   6.164   9.839 -1.2490  2.5810 -1.6366
37465SOL    HW216758   3.740   6.215   9.821  0.1045 -0.2021  0.1803
37466SOL     OW16759   7.365   8.481   3.129 -0.5204  0.1993 -0.2909
37466SOL    HW116760   7.328   8.488   3.217 -0.7310  0.4522 -0.3975
37466SOL    HW216761   7.376   8.572   3.101 -0.0688  0.1225 -0.3651
37467SOL     OW16762   7.532   4.744   8.787  0.2831  0.0215 -0.3288
37467SOL    HW116763   7.514   4.654   8.763 -0.0870  0.0252 -0.0776
37467SOL    HW216764   7.491   4.796   8.718 -2.3971  0.0944  1.1719
37468SOL     OW16765   4.274   7.180   6.143 -0.1878 -0.3797 -0.1422
37468SOL    HW116766   4.281   7.151   6.052 -1.7697 -0.4115 -0.2810
37468SOL    HW216767   4.353   7.146   6.185  0.2112 -0.9916 -1.3424
37469SOL     OW16768   6.220   2.343   9.187 -0.3476 -0.0151  1.2629
37469SOL    HW116769   6.189   2.314   9.273 -1.0528 -2.3173  0.2724
37469SOL    HW216770   6.151   2.319   9.126  1.7013 -1.8792 -0.4728
37470SOL     OW16771   0.343  11.028   7.212 -0.2634  0.2392  0.2286
37470SOL    HW116772   0.432  11.030   7.177 -0.5927  0.6699 -0.6100
37470SOL    HW216773   0.334  11.112   7.258  0.6620 -0.8963  2.7064
37471SOL     OW16774   2.432   9.373   6.600 -0.2305  0.1636 -0.1188
37471SOL    HW116775   2.505   9.405   6.653  0.8134  0.0124 -1.4382
37471SOL    HW216776   2.404   9.292   6.644 -0.6507  1.0114  1.2674
37472SOL     OW16777   5.787   6.918   8.590 -0.2555  0.1554  0.1647
37472SOL    HW116778   5.728   6.901   8.663  2.8697 -1.9830  2.4452
37472SOL    HW216779   5.857   6.971   8.627  0.5035  0.6278 -1.8058
37473SOL     OW16780   7.745   3.721   4.476 -0.1358  0.4156  0.1805
37473SOL    HW116781   7.721   3.693   4.388 -0.2179  3.0148 -0.6852
37473SOL    HW216782   7.816   3.784   4.463 -1.1270  1.9627  1.8419
37474SOL     OW16783   3.463   0.871   5.357 -0.0412 -0.2755  0.3976
37474SOL    HW116784   3.529   0.809   5.329 -0.3949 -0.0896 -0.9206
37474SOL    HW216785   3.406   0.882   5.281  0.2734  2.0079  0.4059
37475SOL     OW16786   7.149   3.423  10.731 -0.2446  0.1684  0.0694
37475SOL    HW116787   7.054   3.428  10.721 -0.0771 -1.0191 -4.2471
37475SOL    HW216788   7.182   3.504  10.694  0.3945 -1.4281 -3.2415
37476SOL     OW16789  10.773   0.942   4.227 -0.3412 -0.1407 -0.0446
37476SOL    HW116790  10.849   0.897   4.192 -0.8111 -1.7323  0.8654
37476SOL    HW216791  10.808   1.005   4.290  0.2277 -0.8649  0.3723
37477SOL     OW16792   7.233   1.934   8.643  0.6427 -0.1299  0.2636
37477SOL    HW116793   7.299   1.954   8.709  1.6651  0.2066 -0.8274
37477SOL    HW216794   7.152   1.924   8.692  1.9057 -3.3108  2.0483
37478SOL     OW16795   3.033   2.875   4.756  0.0402  0.4998 -0.3769
37478SOL    HW116796   3.056   2.923   4.676  0.9600 -0.6902 -0.8590
37478SOL    HW216797   3.114   2.831   4.781 -0.8107 -0.9143 -0.0360
37479SOL     OW16798   7.185   7.520   8.862 -0.5088 -0.0373  0.0525
37479SOL    HW116799   7.104   7.539   8.814 -0.9176 -3.0845 -0.6575
37479SOL    HW216800   7.155   7.480   8.944  0.2909 -0.0375  0.3483
37480SOL     OW16801  10.297   0.326  10.466 -0.0062 -0.2765  0.4941
37480SOL    HW116802  10.256   0.242  10.447  0.7402  0.1199 -4.1440
37480SOL    HW216803  10.224   0.388  10.466 -0.1091 -0.3348 -1.5671
37481SOL     OW16804   8.836   1.040   8.236 -0.4240  0.3916 -0.3027
37481SOL    HW116805   8.913   0.997   8.273 -1.3216 -0.0562  1.1235
37481SOL    HW216806   8.836   1.015   8.144  0.1940 -1.0363  0.0650
37482SOL     OW16807   0.477   5.099   8.946  0.0229 -0.1117  0.2795
37482SOL    HW116808   0.493   5.080   8.854  0.7066 -1.3189  0.6322
37482SOL    HW216809   0.413   5.033   8.973 -2.4462  2.0019 -0.0206
37483SOL     OW16810   5.581   1.142   0.388 -0.5443 -0.5251  0.5780
37483SOL    HW116811   5.611   1.212   0.446 -0.3955 -0.3598  0.3056
37483SOL    HW216812   5.487   1.154   0.382 -0.6144 -0.7752  1.0850
37484SOL     OW16813  10.894   2.110   9.572 -0.0595  0.0638 -0.1161
37484SOL    HW116814  10.895   2.103   9.668  1.5734 -0.8696 -0.1808
37484SOL    HW216815  10.901   2.204   9.555  0.3183  0.1859  0.6732
37485SOL     OW16816   0.209   5.748  10.130 -0.5479  0.7586  0.2760
37485SOL    HW116817   0.167   5.688  10.068 -0.5603  1.5338 -0.4855
37485SOL    HW216818   0.160   5.736  10.211 -0.2560 -0.5954  0.2722
37486SOL     OW16819   4.499  10.310   2.968  0.7132  0.1377  0.1128
37486SOL    HW116820   4.559  10.368   3.015  0.6199  0.8163 -0.5893
37486SOL    HW216821   4.413  10.352   2.978  0.4165 -0.5893  0.7276
37487SOL     OW16822   5.974   7.721  10.831  0.1719 -0.5117 -0.1765
37487SOL    HW116823   5.943   7.691  10.745  2.0987 -0.9894 -0.7468
37487SOL    HW216824   5.960   7.645  10.888 -1.7057  0.0118  0.1435
37488SOL     OW16825   9.328   0.358   9.905 -0.4973 -0.0749 -0.5302
37488SOL    HW116826   9.260   0.367   9.838  0.2612  1.1948 -1.1609
37488SOL    HW216827   9.411   0.362   9.857  0.0637 -2.1638  0.1529
37489SOL     OW16828   9.064   1.334   5.865  0.2151  0.2685  0.1173
37489SOL    HW116829   9.046   1.358   5.774 -1.7775  0.8661  0.6212
37489SOL    HW216830   9.129   1.264   5.859  2.0687  2.0009 -1.6374
37490SOL     OW16831   8.052   2.438   3.753 -0.1095  0.4458 -0.2488
37490SOL    HW116832   8.113   2.403   3.818  0.1936 -0.1105 -0.8229
37490SOL    HW216833   8.104   2.443   3.672 -0.4139  1.3515 -0.4010
37491SOL     OW16834   6.821   1.321  10.065 -0.3773  0.1368  0.1866
37491SOL    HW116835   6.852   1.386  10.128  0.6192  0.0366 -0.1854
37491SOL    HW216836   6.897   1.302  10.010 -0.7618 -1.0531  0.0345
37492SOL     OW16837   8.446   3.781   7.681  0.3379 -0.1374 -0.0950
37492SOL    HW116838   8.500   3.833   7.740  1.2403 -1.1769  0.0331
37492SOL    HW216839   8.482   3.692   7.688 -1.1023 -0.7631 -0.3671
37493SOL     OW16840   3.280   2.326   4.440 -0.1393  0.5135  0.3808
37493SOL    HW116841   3.261   2.399   4.497  0.1118  0.4365  0.5665
37493SOL    HW216842   3.364   2.292   4.471  0.9589  1.6313 -1.1889
37494SOL     OW16843   0.597   3.101  10.461 -0.2767  0.0198 -0.3016
37494SOL    HW116844   0.662   3.160  10.422  0.4179 -0.1467  0.5688
37494SOL    HW216845   0.649   3.026  10.491 -0.9650 -0.3907 -0.1292
37495SOL     OW16846   2.654   5.572   5.708 -0.8751  0.1885 -0.0829
37495SOL    HW116847   2.603   5.492   5.691 -1.4695  0.6487 -0.5344
37495SOL    HW216848   2.604   5.618   5.775 -0.9783  0.5712 -0.4181
37496SOL     OW16849   7.179  10.123   1.128 -0.0554 -0.8310  0.6373
37496SOL    HW116850   7.127  10.055   1.170 -1.2865 -1.2097 -1.3432
37496SOL    HW216851   7.121  10.160   1.061  1.6173  0.0106 -0.4370
37497SOL     OW16852   9.448   6.030   1.449  0.4965  0.3965 -0.1737
37497SOL    HW116853   9.436   5.938   1.472  0.1413  0.5602  0.2890
37497SOL    HW216854   9.377   6.076   1.493  1.3541  1.0508  0.5744
37498SOL     OW16855   9.229   1.206  10.588  0.1307 -0.3592 -0.0763
37498SOL    HW116856   9.235   1.191  10.682 -0.1437 -1.4068 -0.2182
37498SOL    HW216857   9.271   1.130  10.549 -1.0222 -0.6307 -0.8247
37499SOL     OW16858   8.212   7.586   8.764  0.6894  0.6056  0.1769
37499SOL    HW116859   8.299   7.617   8.739  0.5381  0.3212 -0.7253
37499SOL    HW216860   8.184   7.646   8.833  1.1061  1.4311 -0.3519
37500SOL     OW16861   3.745   1.812   4.515  0.1950 -0.0802  0.7283
37500SOL    HW116862   3.835   1.830   4.488 -0.9281  2.2241 -1.9371
37500SOL    HW216863   3.734   1.719   4.496  1.6456 -0.1129 -0.1948
37501SOL     OW16864   2.091   1.555   6.575 -0.0290  0.3090 -0.1731
37501SOL    HW116865   2.081   1.477   6.628  1.2605 -0.6491 -1.2653
37501SOL    HW216866   2.177   1.589   6.599  0.4415  0.0263 -1.4075
37502SOL     OW16867   6.166   1.379   0.612 -0.3146  0.3416 -0.4026
37502SOL    HW116868   6.230   1.450   0.600  0.5168 -0.3927 -0.4059
37502SOL    HW216869   6.144   1.383   0.705  0.8290 -0.2921 -0.0832
37503SOL     OW16870   2.532   0.444   3.068  0.3943 -0.1689  0.2151
37503SOL    HW116871   2.469   0.406   3.130 -1.6539 -0.2308 -1.7627
37503SOL    HW216872   2.521   0.539   3.079 -0.6623 -0.1736 -0.6600
37504SOL     OW16873   1.724  10.317   1.167  0.3766  0.2751 -0.0251
37504SOL    HW116874   1.676  10.318   1.250 -0.1403  2.0638 -0.3095
37504SOL    HW216875   1.777  10.396   1.169 -0.4302  0.9023 -1.8347
37505SOL     OW16876  10.192   5.769   1.393 -0.7361 -0.1151 -0.2268
37505SOL    HW116877  10.266   5.708   1.393 -2.4262 -2.2621  1.2006
37505SOL    HW216878  10.125   5.727   1.339 -2.9639 -0.9974  2.9545
37506SOL     OW16879   2.513   5.449   9.594  0.7513 -0.3326 -0.0350
37506SOL    HW116880   2.470   5.379   9.546 -0.5310  0.5474 -0.2299
37506SOL    HW216881   2.499   5.527   9.540  3.2097 -0.0832 -0.4519
37507SOL     OW16882   1.718   7.631   5.204  0.0240 -0.1607 -0.0640
37507SOL    HW116883   1.747   7.691   5.135 -1.4212  0.3318 -0.2849
37507SOL    HW216884   1.640   7.672   5.241  1.6473  0.4077  3.0510
37508SOL     OW16885   7.983  10.215  10.490 -0.2717  0.4659 -0.1903
37508SOL    HW116886   7.955  10.134  10.533 -2.1619  1.8753  1.4122
37508SOL    HW216887   8.028  10.264  10.559 -2.5157  2.3562  0.0668
37509SOL     OW16888   2.556   3.781   7.990  0.0422  0.3746  0.1555
37509SOL    HW116889   2.633   3.728   7.972 -0.5332 -1.0355  1.6555
37509SOL    HW216890   2.588   3.872   7.987  1.1452 -0.0125 -1.9696
37510SOL     OW16891   1.419   4.130   7.012  0.0918 -0.4039  0.0386
37510SOL    HW116892   1.419   4.052   6.956  0.1292 -0.3061 -0.0992
37510SOL    HW216893   1.495   4.117   7.070  0.6657 -0.0303 -0.6106
37511SOL     OW16894   0.853  10.849   4.563  0.4577  0.8191 -0.3631
37511SOL    HW116895   0.892  10.784   4.621  0.1015  1.0476  0.1495
37511SOL    HW216896   0.769  10.871   4.605  0.5833  1.6226 -0.5108
37512SOL     OW16897   2.896  10.592   4.598  0.0917  0.3049 -0.5255
37512SOL    HW116898   2.885  10.497   4.596  1.3523  0.1122  0.3105
37512SOL    HW216899   2.822  10.626   4.548 -1.1579 -1.0452  0.3492
37513SOL     OW16900   3.192   9.352   4.843  0.3540  0.4690  0.3451
37513SOL    HW116901   3.258   9.421   4.853 -0.7805  1.8010 -0.8091
37513SOL    HW216902   3.191   9.334   4.749 -0.5018  0.0523  0.4259
37514SOL     OW16903  10.629   6.013   2.297  0.3282 -0.2929 -0.3090
37514SOL    HW116904  10.654   5.922   2.314  3.3308  0.5058  0.0707
37514SOL    HW216905  10.687   6.065   2.353 -0.5993  1.9036 -1.2773
37515SOL     OW16906   0.036   4.198   8.779 -0.0123  0.1366 -0.4311
37515SOL    HW116907  -0.041   4.208   8.835  0.0546  1.2288 -0.5059
37515SOL    HW216908   0.095   4.269   8.806  0.3421  0.2138 -1.3559
37516SOL     OW16909   3.491   4.511   2.879  0.3360 -0.0447 -0.0574
37516SOL    HW116910   3.422   4.572   2.906 -1.0606  0.2208 -3.6509
37516SOL    HW216911   3.529   4.551   2.801  3.1428 -1.2609  0.5613
37517SOL     OW16912   8.166   9.959  10.400 -0.2011 -0.2283 -0.8082
37517SOL    HW116913   8.179   9.888  10.463  0.7756  0.7417  0.1428
37517SOL    HW216914   8.092   9.931  10.346  0.1287 -1.9333 -0.4335
37518SOL     OW16915   1.342   7.950  10.626  1.0092 -0.0614  0.0872
37518SOL    HW116916   1.358   7.938  10.532 -1.2397 -2.8368 -0.0919
37518SOL    HW216917   1.308   8.039  10.634 -1.7521 -0.7492 -2.3289
37519SOL     OW16918   3.667   1.551   4.439  0.5632  0.5730  0.0068
37519SOL    HW116919   3.694   1.476   4.493  0.7018  0.3238 -0.4036
37519SOL    HW216920   3.578   1.530   4.412  0.2805  0.9721  0.6163
37520SOL     OW16921   1.551   0.777   2.454  0.1613 -0.6126  0.0069
37520SOL    HW116922   1.563   0.684   2.436  0.1923 -0.5068 -0.5303
37520SOL    HW216923   1.458   0.794   2.434  0.5047 -0.2140 -1.3559
37521SOL     OW16924   8.710   2.965   0.029 -0.2308 -0.3233 -0.1986
37521SOL    HW116925   8.775   3.029  -0.000  0.0364 -1.0470 -1.2504
37521SOL    HW216926   8.732   2.948   0.120  0.1876  0.4741 -0.1394
37522SOL     OW16927   7.111   9.618   4.643 -0.3586 -0.3654  0.3754
37522SOL    HW116928   7.174   9.642   4.712 -1.2730  0.6143  0.8999
37522SOL    HW216929   7.026   9.630   4.684 -0.9101 -1.5697 -0.3642
37523SOL     OW16930  10.869  10.595  10.602  0.0534  0.3001 -0.8528
37523SOL    HW116931  10.933  10.665  10.619  0.2604 -0.1686  0.4537
37523SOL    HW216932  10.896  10.524  10.660  0.3403 -1.2138 -2.7658
37524SOL     OW16933   3.915   2.225   5.567 -0.4287  0.3754 -0.4030
37524SOL    HW116934   3.849   2.171   5.611 -0.5996  1.0357  0.1678
37524SOL    HW216935   3.872   2.310   5.556  1.3642  1.8501  2.8565
37525SOL     OW16936   4.029   4.531   7.338  0.1207 -0.1286 -0.0019
37525SOL    HW116937   4.113   4.541   7.382  0.5337 -1.5341 -0.4055
37525SOL    HW216938   4.027   4.439   7.310 -0.6363  0.3962 -1.8458
37526SOL     OW16939   7.379   2.693   7.383 -0.4491  0.1447  0.3400
37526SOL    HW116940   7.314   2.687   7.453 -1.5059 -0.2027 -0.6299
37526SOL    HW216941   7.447   2.751   7.417 -1.4154  0.7505  1.2833
37527SOL     OW16942   2.946   3.113   5.487 -0.2534  0.3276 -0.0128
37527SOL    HW116943   2.997   3.032   5.487 -0.9716 -0.1875  2.3812
37527SOL    HW216944   3.007   3.179   5.452  1.4837 -0.5931  1.1220
37528SOL     OW16945   5.947   4.303   7.943  0.0467 -0.4335 -0.4294
37528SOL    HW116946   5.945   4.333   8.033 -1.6156  1.5897 -1.0411
37528SOL    HW216947   6.021   4.349   7.903  0.0557 -0.3885 -0.3594
37529SOL     OW16948   1.848   9.111  10.164  0.4867  0.2930  0.6938
37529SOL    HW116949   1.941   9.117  10.144  1.0952 -2.9240  1.9653
37529SOL    HW216950   1.844   9.077  10.253 -1.8918 -0.5426  0.3536
37530SOL     OW16951   8.121   4.912   7.354 -0.1512  0.2596 -0.3457
37530SOL    HW116952   8.125   4.938   7.446 -2.1814 -0.0085 -0.1281
37530SOL    HW216953   8.205   4.870   7.337 -0.1341 -0.6781  1.7147
37531SOL     OW16954   5.893   3.531  10.566  0.3029  0.0448  0.5949
37531SOL    HW116955   5.853   3.508  10.483  0.5039 -0.8135  0.7273
37531SOL    HW216956   5.873   3.458  10.624 -0.9358  1.1966  1.7009
37532SOL     OW16957   5.774   0.520   2.127  0.5971 -0.0302  0.1913
37532SOL    HW116958   5.718   0.581   2.079  1.4845 -0.1895 -1.0932
37532SOL    HW216959   5.791   0.564   2.210  0.4492  1.0512 -0.3312
37533SOL     OW16960   8.706   5.751  10.358  0.0758  0.3545  0.1733
37533SOL    HW116961   8.693   5.829  10.305  1.1054  0.5458  0.1656
37533SOL    HW216962   8.755   5.782  10.434 -0.5551 -0.0813  0.7682
37534SOL     OW16963  10.044   3.228   0.841  0.0077  0.0971  0.2887
37534SOL    HW116964  10.125   3.209   0.793 -0.8400  0.6794 -1.4556
37534SOL    HW216965   9.974   3.216   0.776 -1.2007  0.9750  1.3729
37535SOL     OW16966   6.512   3.993   9.370  0.0772 -0.2286 -0.0920
37535SOL    HW116967   6.603   4.023   9.373 -0.1231  0.3253  0.4615
37535SOL    HW216968   6.461   4.072   9.355 -0.3801 -0.4246  0.4299
37536SOL     OW16969   0.884   0.975   2.046 -0.6641  0.1006 -1.1173
37536SOL    HW116970   0.800   0.996   2.087 -0.0278 -0.9123  0.8347
37536SOL    HW216971   0.863   0.911   1.979 -1.3483 -0.9776  0.0872
37537SOL     OW16972   9.516   6.079   6.145  0.0714 -0.3302 -0.2323
37537SOL    HW116973   9.516   6.028   6.226  1.5941 -0.6642 -0.4205
37537SOL    HW216974   9.486   6.166   6.172  1.4931 -0.1560  0.9076
37538SOL     OW16975   1.353   1.308   7.950  0.2851  0.0158  0.1535
37538SOL    HW116976   1.309   1.340   7.872 -0.1885  1.3676  0.9339
37538SOL    HW216977   1.442   1.343   7.944  0.7272 -1.1499 -0.4968
37539SOL     OW16978   2.067   4.939   7.265  0.5860  0.2578  0.0335
37539SOL    HW116979   2.128   5.013   7.265  0.8869  0.0156  0.5223
37539SOL    HW216980   1.984   4.976   7.295  0.6554  0.4535 -0.0095
37540SOL     OW16981   0.332  10.523   0.886 -0.9963  0.6737 -0.0815
37540SOL    HW116982   0.282  10.462   0.832  2.3318 -1.0261 -1.5393
37540SOL    HW216983   0.297  10.510   0.975 -1.5445 -2.2347 -0.6009
37541SOL     OW16984   0.307   1.705   4.408 -0.1733 -0.2943  0.2388
37541SOL    HW116985   0.350   1.625   4.439 -0.5497 -0.8727 -0.6572
37541SOL    HW216986   0.355   1.776   4.449  0.4819 -0.9749  0.6785
37542SOL     OW16987   8.542   3.192   8.387 -0.9994 -0.9449  0.5638
37542SOL    HW116988   8.525   3.116   8.332  0.8553 -1.5274  0.7133
37542SOL    HW216989   8.584   3.156   8.465 -0.7841  0.1659  0.9818
37543SOL     OW16990   4.664   1.724   0.676  0.1816  0.1004 -0.0503
37543SOL    HW116991   4.699   1.643   0.713  0.0744  0.4367  0.8197
37543SOL    HW216992   4.571   1.723   0.700  0.3017  0.7451  0.4923
37544SOL     OW16993   4.088   6.145   3.337 -0.1286 -0.1993 -0.4366
37544SOL    HW116994   4.044   6.229   3.338 -0.2642 -0.2692  0.8172
37544SOL    HW216995   4.044   6.095   3.268 -2.9227 -0.7075  1.5265
37545SOL     OW16996   6.394   6.552   8.472  0.1226  0.3853  0.2372
37545SOL    HW116997   6.453   6.492   8.517 -0.3406  0.7989  1.4415
37545SOL    HW216998   6.385   6.626   8.532  0.7721  1.7226 -1.2717
37546SOL     OW16999   4.476   2.290   3.386 -0.5395  0.2800  0.0362
37546SOL    HW117000   4.407   2.337   3.434  1.1544  0.6323  2.2863
37546SOL    HW217001   4.542   2.271   3.452  1.6363  0.1253 -2.0564
37547SOL     OW17002   2.896   5.693   1.219  0.5767 -0.6382  0.8842
37547SOL    HW117003   2.805   5.663   1.221 -0.4103  2.1083  1.2000
37547SOL    HW217004   2.908   5.728   1.131  0.4117  1.4049  1.6211
37548SOL     OW17005   8.015   9.698   1.634 -0.1858 -0.8932  0.4631
37548SOL    HW117006   8.006   9.623   1.692 -0.9586  0.6755  2.4679
37548SOL    HW217007   8.110   9.704   1.618 -0.1681 -2.7242 -0.4364
37549SOL     OW17008   6.653   9.192   2.416 -0.3576  0.3861 -0.3450
37549SOL    HW117009   6.613   9.219   2.499  0.7885  1.0690  0.0162
37549SOL    HW217010   6.680   9.102   2.430 -2.5102 -0.4143 -0.9039
37550SOL     OW17011   4.320   2.573   6.702 -0.1560 -0.1259  0.7163
37550SOL    HW117012   4.225   2.568   6.704 -0.1911  0.6180  1.4259
37550SOL    HW217013   4.349   2.532   6.784  0.1774 -1.0085  0.1700
37551SOL     OW17014   2.209   7.912   1.661 -0.1186  0.7305  0.2954
37551SOL    HW117015   2.190   7.930   1.569 -0.9272  1.0380  0.5110
37551SOL    HW217016   2.261   7.987   1.690  1.7225 -0.2432 -0.3707
37552SOL     OW17017   8.808   9.074  10.467 -0.1576  0.6748 -0.0263
37552SOL    HW117018   8.895   9.064  10.504 -0.3194 -0.2403  0.1265
37552SOL    HW217019   8.823   9.106  10.378  0.3028  1.0538  0.1802
37553SOL     OW17020   0.391   4.909   0.273 -0.4272  0.3769  0.5425
37553SOL    HW117021   0.432   4.902   0.187 -1.2748 -1.4297  0.2415
37553SOL    HW217022   0.297   4.913   0.255 -0.5632  1.3055  1.3512
37554SOL     OW17023   4.835   4.986  10.479 -0.6213 -0.4759 -0.3142
37554SOL    HW117024   4.903   5.007  10.415 -1.3263 -2.9251 -2.0075
37554SOL    HW217025   4.883   4.955  10.556  0.2416  2.3983  0.4202
37555SOL     OW17026   6.999   0.525   8.804  0.0195 -0.3140  0.1058
37555SOL    HW117027   7.066   0.569   8.753 -0.0735  0.7937  0.9162
37555SOL    HW217028   6.920   0.576   8.790  0.0468  0.1634  1.5308
37556SOL     OW17029   0.967   8.678   5.778  0.0229 -0.4621  0.5757
37556SOL    HW117030   0.893   8.706   5.832  0.3119  0.1041  0.6803
37556SOL    HW217031   0.932   8.605   5.727 -1.2423  1.0505 -0.8556
37557SOL     OW17032   9.279   7.732   6.145  0.6961 -0.0057  0.1413
37557SOL    HW117033   9.308   7.641   6.146 -3.0061 -1.3518  1.4758
37557SOL    HW217034   9.313   7.769   6.227  0.5871 -0.8246  0.5698
37558SOL     OW17035  10.004   3.846   3.903  0.4117 -0.1060  0.0228
37558SOL    HW117036   9.988   3.878   3.814  0.5168  0.2131  0.1190
37558SOL    HW217037   9.993   3.923   3.959 -0.3303 -0.4413  0.3614
37559SOL     OW17038  10.329   9.031   4.135 -0.5362 -0.4150 -0.0141
37559SOL    HW117039  10.300   9.118   4.109 -0.1431 -0.1183  0.5332
37559SOL    HW217040  10.385   9.002   4.063 -1.6279 -0.7233 -0.7709
37560SOL     OW17041   7.943   8.676   9.451  0.3745 -0.0977 -0.3248
37560SOL    HW117042   7.907   8.624   9.522  0.1050  0.2043 -0.2387
37560SOL    HW217043   7.912   8.633   9.371  1.9474 -1.3686 -0.3170
37561SOL     OW17044   5.519   4.534   5.824 -0.2407 -0.3581  0.6135
37561SOL    HW117045   5.437   4.530   5.873  0.2120 -1.4200  1.3447
37561SOL    HW217046   5.493   4.521   5.733 -0.8339 -1.4650  0.9143
37562SOL     OW17047   7.754   3.276   5.951  0.5743  0.0564 -0.1679
37562SOL    HW117048   7.735   3.188   5.917  3.3140 -0.3574 -0.8849
37562SOL    HW217049   7.725   3.335   5.883 -0.7660 -0.2881  0.0702
37563SOL     OW17050   6.706   4.013   6.948 -0.0056 -0.6493 -0.2073
37563SOL    HW117051   6.666   4.065   6.878  0.0439  0.3766  0.4989
37563SOL    HW217052   6.671   4.050   7.029 -2.3590 -3.6857  0.3491
37564SOL     OW17053   5.885   2.867   4.275 -0.3528 -0.5464 -0.0573
37564SOL    HW117054   5.868   2.777   4.245 -0.3964 -0.4502 -0.3198
37564SOL    HW217055   5.800   2.910   4.271 -1.0124 -1.2930  2.8735
37565SOL     OW17056   8.544   2.435   0.072 -0.3601 -0.2802  0.0665
37565SOL    HW117057   8.540   2.355   0.123 -0.7247 -0.1732  0.2078
37565SOL    HW217058   8.494   2.416  -0.007 -0.9222 -0.0086  0.3551
37566SOL     OW17059   2.048   6.180   5.924  0.2651 -0.2026  0.0931
37566SOL    HW117060   2.076   6.222   5.843 -0.1971 -0.5771 -0.2694
37566SOL    HW217061   2.077   6.090   5.916  0.4190 -0.1844  0.4452
37567SOL     OW17062   1.501   4.355   5.415 -0.3085 -0.4975 -0.0450
37567SOL    HW117063   1.452   4.356   5.497 -1.2849 -1.1583 -0.6004
37567SOL    HW217064   1.481   4.439   5.374 -0.6354 -0.5919 -0.0776
37568SOL     OW17065   0.225  10.564   7.366  0.1763  0.1723  0.4615
37568SOL    HW117066   0.182  10.629   7.422 -0.6448  1.0404 -1.1089
37568SOL    HW217067   0.318  10.578   7.380  0.0110  1.6963  0.1876
37569SOL     OW17068  11.033   4.407   9.610 -0.2495  0.2479 -0.1747
37569SOL    HW117069  10.991   4.322   9.624  0.3403  0.0775  0.6445
37569SOL    HW217070  11.009   4.459   9.686 -0.5900  0.8196 -0.6617
37570SOL     OW17071   3.187   0.011   8.467  0.1755  0.2211 -0.1407
37570SOL    HW117072   3.219   0.058   8.390  1.3246 -0.4792 -0.1197
37570SOL    HW217073   3.253   0.028   8.535 -2.0643  2.9889  1.6034
37571SOL     OW17074  10.725   8.060   3.619  0.0141  0.1188  0.0970
37571SOL    HW117075  10.648   8.054   3.562  0.7610 -1.2881 -0.8468
37571SOL    HW217076  10.689   8.059   3.707 -1.0851 -0.0410 -0.3287
37572SOL     OW17077   4.260  10.096   9.557 -0.0157  0.2045  0.4892
37572SOL    HW117078   4.345  10.128   9.527 -0.0596  0.2704  0.4341
37572SOL    HW217079   4.198  10.164   9.531 -0.5470 -1.1494 -2.1767
37573SOL     OW17080   2.370   3.515   5.434 -0.2171 -0.0642  0.0441
37573SOL    HW117081   2.360   3.481   5.523 -4.0386 -0.8020 -0.5429
37573SOL    HW217082   2.433   3.587   5.444 -0.5056 -0.1192  3.3456
37574SOL     OW17083   8.461   3.362   9.298 -0.7872  0.3151  0.1496
37574SOL    HW117084   8.406   3.439   9.289  0.9868  1.5187 -1.1813
37574SOL    HW217085   8.482   3.337   9.208  0.8455 -0.0421  0.5962
37575SOL     OW17086  11.108   4.741   3.048  0.0047  0.0160  0.1258
37575SOL    HW117087  11.203   4.748   3.047  0.0647 -0.2975  1.4475
37575SOL    HW217088  11.083   4.730   2.956  1.1360  1.2743 -0.3483
37576SOL     OW17089   9.836   4.616   3.970  0.2901  0.1960 -0.5425
37576SOL    HW117090   9.797   4.558   4.035 -1.7390  1.6287 -0.3797
37576SOL    HW217091   9.930   4.599   3.976 -0.0610 -1.5888  0.8873
37577SOL     OW17092   4.138   8.745   4.259  0.0009  0.0425  0.3725
37577SOL    HW117093   4.073   8.701   4.205 -0.3962 -0.2662  1.0866
37577SOL    HW217094   4.145   8.833   4.223 -1.9297  0.5778  1.2021
37578SOL     OW17095   4.850   6.614   5.637 -0.0778  0.1773  0.0707
37578SOL    HW117096   4.835   6.666   5.716 -0.5751  1.9141 -1.1068
37578SOL    HW217097   4.936   6.576   5.649 -0.8047 -0.9389  2.1455
37579SOL     OW17098   7.776   8.039   6.755 -0.4999 -0.1723  0.1979
37579SOL    HW117099   7.771   8.045   6.851  0.3670  0.0985  0.2380
37579SOL    HW217100   7.773   7.945   6.737 -0.7572 -0.2204  0.4880
37580SOL     OW17101   0.543  10.213   7.937  0.2817  0.5856  0.3765
37580SOL    HW117102   0.475  10.162   7.895  2.7780  0.1788 -3.7023
37580SOL    HW217103   0.509  10.302   7.940 -1.8409 -0.2071  2.1600
37581SOL     OW17104   3.707  10.305   8.894 -0.0782 -0.2836  0.2226
37581SOL    HW117105   3.739  10.241   8.830 -0.5226 -1.1725  0.8568
37581SOL    HW217106   3.649  10.254   8.950 -0.3405  0.6683  0.8281
37582SOL     OW17107   0.963   9.390   7.601 -0.1726  0.5190  0.5163
37582SOL    HW117108   0.931   9.300   7.595  0.9154  0.0069  1.6743
37582SOL    HW217109   1.038   9.393   7.542  0.7904  0.1430  1.6592
37583SOL     OW17110   4.713   0.600   8.773  0.2300 -0.5223  0.8959
37583SOL    HW117111   4.781   0.635   8.717  0.4125 -0.7911  0.9486
37583SOL    HW217112   4.677   0.677   8.818  0.8775 -0.4392  1.2857
37584SOL     OW17113   8.821   4.233   5.756 -0.2662  0.0475  0.1477
37584SOL    HW117114   8.805   4.153   5.707  0.1331 -1.3121  2.1357
37584SOL    HW217115   8.882   4.283   5.701 -0.6062 -0.9555 -1.1729
37585SOL     OW17116   5.529   3.150   9.789  0.2119 -0.2707  0.4641
37585SOL    HW117117   5.549   3.145   9.883  1.1721  0.4855  0.3077
37585SOL    HW217118   5.440   3.116   9.783 -0.2879  0.6792  1.8108
37586SOL     OW17119  11.006   2.425   8.786  0.0163  0.3492 -0.4512
37586SOL    HW117120  10.947   2.359   8.751  1.9239 -1.6789 -0.0927
37586SOL    HW217121  10.993   2.422   8.880 -3.2297  3.9488 -0.5822
37587SOL     OW17122   7.926   4.561   9.988  0.2470  0.5243  0.2684
37587SOL    HW117123   7.991   4.495  10.013 -0.9170 -1.2788 -1.2261
37587SOL    HW217124   7.842   4.522  10.010 -0.4526  1.8237 -0.0064
37588SOL     OW17125   5.107   2.007   7.109 -0.0906 -0.1563  0.4943
37588SOL    HW117126   5.162   1.942   7.066 -0.9605 -2.5637  2.7495
37588SOL    HW217127   5.031   2.018   7.052  1.1949  0.8278 -1.1043
37589SOL     OW17128   1.778   8.701   7.416  0.1570 -0.2595  0.2673
37589SOL    HW117129   1.754   8.794   7.410  1.2644  0.0775  0.6804
37589SOL    HW217130   1.705   8.654   7.376  0.5574  0.9236 -2.0696
37590SOL     OW17131   7.558   2.401   9.669  0.1835  0.4782 -0.4080
37590SOL    HW117132   7.632   2.424   9.726  0.2591  0.3112 -0.4390
37590SOL    HW217133   7.577   2.444   9.586 -0.1519  1.1036 -0.1719
37591SOL     OW17134   6.890   9.299   9.156 -0.5999 -0.0220  0.1791
37591SOL    HW117135   6.907   9.391   9.177  0.7093 -0.2718  0.2801
37591SOL    HW217136   6.929   9.287   9.069 -0.4907 -0.5536  0.2989
37592SOL     OW17137   5.873   3.443   5.456  0.4499  0.4977  0.0622
37592SOL    HW117138   5.938   3.390   5.502  0.2049 -0.1765 -0.3363
37592SOL    HW217139   5.788   3.413   5.490  0.2236 -0.5673 -1.3380
37593SOL     OW17140   9.432   2.737   6.879  0.2049 -0.5494  0.1102
37593SOL    HW117141   9.372   2.764   6.809 -1.1859 -1.4370  0.8988
37593SOL    HW217142   9.480   2.816   6.902 -0.2968  0.0698 -0.9137
37594SOL     OW17143   0.176   2.429   7.002  0.0261 -0.6520  0.1617
37594SOL    HW117144   0.117   2.355   7.012 -0.5520 -0.2607 -0.2780
37594SOL    HW217145   0.119   2.506   7.005  0.4865 -0.2743 -0.4608
37595SOL     OW17146   2.468   2.677  10.735 -0.2366  0.5386  0.1874
37595SOL    HW117147   2.553   2.651  10.771  0.9670 -2.3386 -4.0269
37595SOL    HW217148   2.489   2.734  10.662 -1.9934  0.3156 -0.5421
37596SOL     OW17149   4.422   5.234   7.035 -0.3478 -0.0768 -0.0829
37596SOL    HW117150   4.482   5.246   7.109  0.3057  1.3717 -0.7936
37596SOL    HW217151   4.454   5.155   6.992  0.0235 -0.2528  0.4870
37597SOL     OW17152   4.403   9.535   2.473  0.7213 -0.6260  0.1677
37597SOL    HW117153   4.308   9.526   2.474  0.6125  0.3206 -0.5394
37597SOL    HW217154   4.435   9.463   2.527 -0.3180 -2.0130 -1.0056
37598SOL     OW17155   1.457   5.899   2.863 -0.4819 -0.0419 -0.2480
37598SOL    HW117156   1.495   5.818   2.829  0.7160  0.4918 -0.2425
37598SOL    HW217157   1.435   5.950   2.786 -0.0650  0.1443 -0.2454
37599SOL     OW17158   8.046   0.055   2.888  0.2013 -0.0476  0.3768
37599SOL    HW117159   8.051   0.023   2.978 -1.0735 -0.3202  0.3797
37599SOL    HW217160   8.002  -0.015   2.840 -0.2213  0.5847 -0.1938
37600SOL     OW17161   4.257   0.379   8.940 -0.3393 -0.0734 -0.1398
37600SOL    HW117162   4.188   0.432   8.979  0.0608 -0.6748  1.4948
37600SOL    HW217163   4.327   0.380   9.006  0.7517 -0.4189 -1.2550
37601SOL     OW17164   7.143   3.688   9.760 -0.1922 -0.2518 -0.0388
37601SOL    HW117165   7.192   3.705   9.840  0.2077 -0.3728 -0.2555
37601SOL    HW217166   7.065   3.641   9.789  0.8287 -1.9456  0.0947
37602SOL     OW17167  10.067   3.635   4.594 -0.3242 -0.0964 -0.0824
37602SOL    HW117168  10.111   3.720   4.598  0.2189 -0.3224 -0.9560
37602SOL    HW217169   9.980   3.655   4.560 -0.2869  0.1315 -0.0502
37603SOL     OW17170   7.749   7.874   8.455  0.1433 -0.1379 -0.1510
37603SOL    HW117171   7.687   7.876   8.382 -1.1706 -1.6218  0.8511
37603SOL    HW217172   7.731   7.954   8.504 -1.2061 -0.6510  0.2471
37604SOL     OW17173   3.351   0.583   4.522  0.4133 -0.1395  0.2482
37604SOL    HW117174   3.391   0.528   4.455 -0.5772  1.9391 -2.2272
37604SOL    HW217175   3.408   0.574   4.598  2.2096 -1.8188 -1.1975
37605SOL     OW17176   3.379   5.432   6.474  0.3772 -0.1575  0.3191
37605SOL    HW117177   3.312   5.497   6.496  0.2859  0.0519 -0.5525
37605SOL    HW217178   3.451   5.483   6.437  0.7239 -0.4547  0.5739
37606SOL     OW17179   7.033   7.530   9.179  0.0189  0.1141  0.3066
37606SOL    HW117180   6.952   7.554   9.224 -0.1788  3.8849 -1.6221
37606SOL    HW217181   7.103   7.564   9.235 -0.0738  1.8305 -0.5629
37607SOL     OW17182   0.908   4.352   2.955 -0.0097 -0.4319 -0.6065
37607SOL    HW117183   0.947   4.281   2.904  2.7902  0.9183 -0.5782
37607SOL    HW217184   0.845   4.393   2.896 -1.2591 -2.5222 -0.8078
37608SOL     OW17185   7.754   1.164   3.396 -0.1458  0.5194  0.0241
37608SOL    HW117186   7.706   1.084   3.374 -2.4634  1.4686  1.3319
37608SOL    HW217187   7.798   1.144   3.479 -1.7134  0.9187  0.9937
37609SOL     OW17188   4.168   6.384   1.915 -0.4017 -0.4507  0.3744
37609SOL    HW117189   4.083   6.404   1.954 -0.3163  1.6840 -0.4363
37609SOL    HW217190   4.147   6.353   1.827 -0.3345  1.8572 -0.5161
37610SOL     OW17191   3.034   4.060   1.858 -0.1875  0.4403 -0.1855
37610SOL    HW117192   2.950   4.072   1.814  0.8336 -0.2115 -2.4434
37610SOL    HW217193   3.099   4.057   1.787  1.7095  0.4927  1.4487
37611SOL     OW17194   6.963   4.880   5.512 -0.1054 -0.4234  0.1833
37611SOL    HW117195   6.871   4.853   5.519 -0.0852 -0.1981  1.8864
37611SOL    HW217196   6.988   4.858   5.423 -1.3434 -2.0210  0.1814
37612SOL     OW17197   4.158   4.327   2.040 -0.0778  0.0762  0.0485
37612SOL    HW117198   4.241   4.334   2.088 -0.3032  0.2712  0.4208
37612SOL    HW217199   4.171   4.255   1.979  0.1803 -0.2565  0.4872
37613SOL     OW17200   4.979   2.401   2.315 -0.2965  0.3032  0.2432
37613SOL    HW117201   4.907   2.450   2.275 -1.4243 -1.4651  0.0392
37613SOL    HW217202   4.948   2.380   2.403  2.2113  4.2961  2.4010
37614SOL     OW17203   7.495   1.928  10.061 -0.5266 -0.4682  0.0328
37614SOL    HW117204   7.400   1.924  10.046 -0.3897  0.2026 -1.1107
37614SOL    HW217205   7.526   1.840  10.039 -0.9221 -0.8168  0.8188
37615SOL     OW17206  10.643   9.409   1.189  0.3547  0.1992 -0.1807
37615SOL    HW117207  10.636   9.466   1.266 -1.2312  1.1465 -0.9895
37615SOL    HW217208  10.700   9.457   1.129  0.7818 -0.0849 -0.0093
37616SOL     OW17209  10.262   6.179   3.786  0.5777 -0.2383 -0.0959
37616SOL    HW117210  10.236   6.266   3.755  0.6491 -0.0915  0.2593
37616SOL    HW217211  10.179   6.134   3.803  0.5441 -0.1483 -0.0228
37617SOL     OW17212  11.104   2.071   0.299  0.0395 -0.1726 -0.0755
37617SOL    HW117213  11.197   2.056   0.280  0.3377 -0.4750  1.4778
37617SOL    HW217214  11.104   2.139   0.366 -0.9002  0.2133 -0.4463
37618SOL     OW17215   3.181   4.275   2.654 -0.5033 -0.0989 -1.0230
37618SOL    HW117216   3.265   4.267   2.698 -0.7967  1.2960 -0.1321
37618SOL    HW217217   3.199   4.330   2.578 -0.9727  2.3395  0.4978
37619SOL     OW17218   8.427  10.169   8.958 -0.1363  0.2499 -0.1647
37619SOL    HW117219   8.332  10.171   8.963 -0.1130 -1.1660  1.6961
37619SOL    HW217220   8.457  10.164   9.049  1.8426  3.0227 -0.5258
37620SOL     OW17221   2.008   2.506   8.235  0.4676 -0.0492  0.2289
37620SOL    HW117222   2.046   2.523   8.149  1.0696 -0.6903  0.3675
37620SOL    HW217223   2.081   2.476   8.288 -0.1018 -0.6385  0.6855
37621SOL     OW17224   8.731   5.364   4.803  0.2323 -0.0005 -0.3184
37621SOL    HW117225   8.741   5.388   4.895  0.6210 -0.1540 -0.3203
37621SOL    HW217226   8.815   5.385   4.763  0.4844 -1.0636 -0.3831
37622SOL     OW17227   8.927  10.441   4.164 -0.6402  0.0121 -0.0330
37622SOL    HW117228   8.857  10.475   4.108 -1.5174  0.0017  1.0165
37622SOL    HW217229   9.005  10.439   4.108 -0.6445  3.2858 -0.3345
37623SOL     OW17230   4.706  10.001   1.949 -0.0906 -0.1760 -0.2759
37623SOL    HW117231   4.645  10.055   1.899  1.9183  0.5383 -2.1180
37623SOL    HW217232   4.786  10.054   1.955  1.7445 -2.5861 -1.5469
37624SOL     OW17233   9.245   4.125   7.639  0.1821 -0.1743  0.0088
37624SOL    HW117234   9.157   4.163   7.643  0.1199 -0.2817 -0.3210
37624SOL    HW217235   9.231   4.031   7.638  0.1676 -0.2167 -2.2369
37625SOL     OW17236   0.639   7.038   4.554 -0.2460  0.2056  0.1599
37625SOL    HW117237   0.594   6.954   4.563 -0.3858  0.2549 -0.0665
37625SOL    HW217238   0.569   7.101   4.541 -0.0846  0.2139 -0.7028
37626SOL     OW17239   9.865   7.180   4.292 -0.0555  0.1911 -0.8855
37626SOL    HW117240   9.795   7.245   4.301  0.0909  0.2769 -0.3711
37626SOL    HW217241   9.877   7.145   4.380 -0.1229 -0.5299 -1.1497
37627SOL     OW17242   8.481  10.451   8.277  0.0121 -0.0229 -0.2493
37627SOL    HW117243   8.411  10.498   8.322  1.1696  1.4025  0.1478
37627SOL    HW217244   8.559  10.504   8.292  1.2826 -1.7826 -0.2989
37628SOL     OW17245   3.673   7.012   2.291 -0.2035 -0.1603 -0.0679
37628SOL    HW117246   3.607   7.042   2.228 -1.5195 -2.9719 -0.1983
37628SOL    HW217247   3.743   6.975   2.237 -0.4220 -0.7876  0.0602
37629SOL     OW17248   1.961   5.787   5.635  0.4214 -0.0842 -0.0638
37629SOL    HW117249   1.917   5.709   5.602 -0.6143  0.4072  0.1246
37629SOL    HW217250   2.054   5.770   5.620  0.3420 -1.9647  1.2481
37630SOL     OW17251   6.455   2.280   7.216  0.3197  0.4337 -0.3610
37630SOL    HW117252   6.446   2.188   7.243  0.0407  0.4417 -0.4244
37630SOL    HW217253   6.525   2.279   7.152  1.2661  0.4713  0.6475
37631SOL     OW17254   3.770   2.742   4.700 -0.3733  0.2992 -0.0886
37631SOL    HW117255   3.817   2.659   4.708 -1.1200 -0.3580 -1.9388
37631SOL    HW217256   3.830   2.800   4.655  0.0985  0.7592  1.0865
37632SOL     OW17257   6.615  10.212   5.809 -0.3690  0.2388  0.0078
37632SOL    HW117258   6.598  10.305   5.824 -1.1812  0.0875  0.0768
37632SOL    HW217259   6.700  10.196   5.851 -0.1057  0.9953 -0.2190
37633SOL     OW17260   4.765  10.660  10.781 -0.0523 -0.3273 -0.4563
37633SOL    HW117261   4.851  10.619  10.765  0.0118 -0.6099  0.5760
37633SOL    HW217262   4.783  10.754  10.781  0.2438 -0.3831 -0.2921
37634SOL     OW17263   7.147   9.889   1.296  0.1115 -0.6035 -0.2093
37634SOL    HW117264   7.104   9.807   1.320  1.0514 -1.5342 -1.5566
37634SOL    HW217265   7.141   9.943   1.374 -0.3010 -2.0519  0.8002
37635SOL     OW17266   7.121   0.144   0.862 -0.2659 -0.0224  0.2756
37635SOL    HW117267   7.185   0.185   0.919 -1.4991  2.6884 -0.1702
37635SOL    HW217268   7.036   0.165   0.900 -1.0003 -2.1676 -0.0305
37636SOL     OW17269   8.614   1.967   8.622  0.6117 -0.2806 -0.6078
37636SOL    HW117270   8.622   2.046   8.675  3.8517  0.6900 -2.3339
37636SOL    HW217271   8.703   1.934   8.612 -0.5102 -3.7959 -0.6246
37637SOL     OW17272   7.822   1.154   5.346  0.1293 -0.0918  0.1463
37637SOL    HW117273   7.849   1.068   5.314  1.4085  0.6165 -0.7909
37637SOL    HW217274   7.903   1.193   5.379 -0.3793  0.8660  0.2848
37638SOL     OW17275   0.131   1.941   4.808  0.0518 -0.1443  0.1800
37638SOL    HW117276   0.096   2.023   4.845 -1.7208 -0.3312 -0.9863
37638SOL    HW217277   0.071   1.919   4.737  0.5168 -2.4560  0.4386
37639SOL     OW17278   2.865   2.597   8.661  0.3162  0.3529 -0.1640
37639SOL    HW117279   2.784   2.612   8.710 -0.0147  0.6303 -0.7777
37639SOL    HW217280   2.931   2.580   8.728 -0.4329 -0.8179  0.3075
37640SOL     OW17281   2.316   4.099   3.409  0.1253 -0.4263 -0.4558
37640SOL    HW117282   2.401   4.143   3.411 -0.0227  0.0108 -2.1155
37640SOL    HW217283   2.338   4.007   3.394  0.3339 -0.3652 -0.5346
37641SOL     OW17284   3.306   4.401   4.091  0.0939 -0.1533 -0.0498
37641SOL    HW117285   3.304   4.393   3.995 -0.2880  0.1298 -0.0686
37641SOL    HW217286   3.393   4.435   4.110 -0.0487  0.3904 -0.3495
37642SOL     OW17287   3.012   9.887   4.246  0.6188  0.1896  0.0833
37642SOL    HW117288   2.990   9.859   4.336 -0.3857 -0.3654 -0.3136
37642SOL    HW217289   3.103   9.860   4.234  0.4998 -0.5117  0.6522
37643SOL     OW17290   5.021   3.814   4.764 -0.1889 -0.0479 -0.4238
37643SOL    HW117291   4.964   3.868   4.710 -1.9265 -0.9186  0.4347
37643SOL    HW217292   4.961   3.753   4.808  1.6377 -2.6255 -1.2926
37644SOL     OW17293   3.540   2.161   4.862  0.4517 -0.1839  0.3143
37644SOL    HW117294   3.459   2.147   4.912  0.8753 -0.2247  1.0028
37644SOL    HW217295   3.552   2.080   4.813 -0.4235  0.1762 -0.5346
37645SOL     OW17296   0.556   5.000   3.631  0.0109 -0.2499  0.7065
37645SOL    HW117297   0.637   4.955   3.608  0.0619  0.2716 -0.1697
37645SOL    HW217298   0.530   5.045   3.551 -1.2386 -0.5482  0.9241
37646SOL     OW17299   3.302   8.316   4.881  0.4800 -0.0535 -0.5220
37646SOL    HW117300   3.248   8.296   4.805 -1.2532  2.3236 -0.0513
37646SOL    HW217301   3.361   8.385   4.850 -0.6440  1.3633  0.3544
37647SOL     OW17302   5.423   5.913   4.422 -0.2205  0.3072  0.3716
37647SOL    HW117303   5.498   5.901   4.481  0.2499 -2.1998 -0.6303
37647SOL    HW217304   5.347   5.914   4.479  0.4799  2.7173  1.3973
37648SOL     OW17305   2.126   7.603   8.570  0.4031  0.2083  0.0309
37648SOL    HW117306   2.122   7.586   8.476  0.0402  0.7229 -0.0540
37648SOL    HW217307   2.220   7.604   8.591  0.6689  2.8327 -0.8804
37649SOL     OW17308   9.360   2.623   3.548 -0.4225 -0.2540 -0.1789
37649SOL    HW117309   9.358   2.625   3.643  2.4073 -1.8248 -0.0026
37649SOL    HW217310   9.374   2.714   3.522 -2.4480  0.3871  0.7614
37650SOL     OW17311  10.396   3.376  10.523  0.3336  0.8547 -0.1616
37650SOL    HW117312  10.340   3.300  10.506  0.3099  0.5680  1.0960
37650SOL    HW217313  10.351   3.449  10.480  0.8185  0.0253 -2.1446
37651SOL     OW17314   0.432   9.134  10.971  0.4439 -0.5633 -0.3572
37651SOL    HW117315   0.472   9.219  10.986 -0.1770 -0.4891  0.9820
37651SOL    HW217316   0.339   9.153  10.956  0.3794 -0.9666 -0.4809
37652SOL     OW17317   5.918  10.613   3.646  0.1213 -0.1945 -0.6376
37652SOL    HW117318   5.934  10.535   3.594  0.9388 -0.7900  0.4663
37652SOL    HW217319   5.933  10.686   3.585  2.7409 -0.8329 -0.8696
37653SOL     OW17320   4.668  10.589   5.873 -0.3730 -0.6462  0.0055
37653SOL    HW117321   4.695  10.679   5.893  0.4729 -0.6146 -1.2133
37653SOL    HW217322   4.577  10.584   5.905 -0.6637  0.8521 -0.5216
37654SOL     OW17323   8.562   0.721   0.804 -0.6022  0.0882 -0.3612
37654SOL    HW117324   8.620   0.789   0.768 -2.1327  2.1785  0.8531
37654SOL    HW217325   8.551   0.658   0.733 -0.1950  1.8306 -2.0523
37655SOL     OW17326   3.173   4.800   8.643 -0.0350  0.2828 -0.4484
37655SOL    HW117327   3.267   4.801   8.621  0.3262 -0.2676  0.9909
37655SOL    HW217328   3.137   4.729   8.591  0.2511  0.7677 -1.3338
37656SOL     OW17329   8.844   6.825   6.419  0.0164  0.3470  0.3185
37656SOL    HW117330   8.896   6.764   6.366  1.2388  0.4916  1.3168
37656SOL    HW217331   8.753   6.803   6.398  0.3578 -2.5206  1.3873
37657SOL     OW17332   1.166   7.651   7.726 -0.2494  0.0383 -0.1486
37657SOL    HW117333   1.201   7.598   7.654  0.1150  1.4335 -1.0492
37657SOL    HW217334   1.214   7.734   7.719  0.9644 -0.3353  2.7136
37658SOL     OW17335   0.073  10.379   9.856  0.1328  0.0940 -0.2418
37658SOL    HW117336   0.038  10.427   9.931  0.0414  0.4291 -0.4959
37658SOL    HW217337   0.044  10.429   9.780  0.4360 -0.1050 -0.4921
37659SOL     OW17338   4.780   4.159   3.027  0.0745  0.8446  0.1249
37659SOL    HW117339   4.719   4.189   3.094 -1.4146 -0.3875 -0.6270
37659SOL    HW217340   4.726   4.147   2.949  0.9182 -1.8261 -0.1537
37660SOL     OW17341   0.371   2.917   0.844 -0.5846  0.0011 -0.3517
37660SOL    HW117342   0.275   2.913   0.847 -0.6251  1.1890  0.8599
37660SOL    HW217343   0.392   2.942   0.754 -1.2483 -2.9211 -1.4357
37661SOL     OW17344   1.959   7.820   0.198 -0.0218 -0.0140  0.0254
37661SOL    HW117345   2.031   7.882   0.189  0.6696 -0.7022  0.6118
37661SOL    HW217346   1.962   7.768   0.118  0.5179 -0.4225  0.3051
37662SOL     OW17347   9.809   7.370   8.798  0.2969  0.6757 -0.1536
37662SOL    HW117348   9.721   7.407   8.791  0.6386  1.3869 -0.9862
37662SOL    HW217349   9.817   7.343   8.889 -0.9909  0.0541 -0.2063
37663SOL     OW17350   3.441   2.158   8.192 -0.0858  0.5164 -0.3452
37663SOL    HW117351   3.525   2.166   8.147 -0.3146  1.2533 -0.6600
37663SOL    HW217352   3.379   2.136   8.122 -0.0966 -0.4208 -0.0525
37664SOL     OW17353   6.548   2.446   7.811 -0.4009 -0.0473  0.1559
37664SOL    HW117354   6.466   2.494   7.824 -0.2294  0.4085 -0.4033
37664SOL    HW217355   6.546   2.377   7.876 -1.5791 -0.4989 -0.3459
37665SOL     OW17356  10.902   3.555   8.779 -0.2689  0.0119 -0.1578
37665SOL    HW117357  10.835   3.488   8.762 -0.6999  0.3531  0.1928
37665SOL    HW217358  10.971   3.536   8.716  0.8421 -2.4217  1.6020
37666SOL     OW17359   7.662   8.274   6.577  0.0327 -0.2434 -0.3295
37666SOL    HW117360   7.732   8.229   6.625  0.1782 -1.9368 -2.0168
37666SOL    HW217361   7.659   8.361   6.616  1.0104 -1.0938  1.8479
37667SOL     OW17362   2.430   0.479   4.854  0.2060  0.0508 -0.5286
37667SOL    HW117363   2.397   0.566   4.831 -0.7843 -0.1002  0.2281
37667SOL    HW217364   2.366   0.419   4.815  0.8864 -0.3489 -1.0545
37668SOL     OW17365  10.228   1.702   6.614  0.5749 -0.7730  0.8837
37668SOL    HW117366  10.284   1.710   6.692  1.5093 -0.4577  0.2026
37668SOL    HW217367  10.283   1.658   6.549 -0.0130 -0.5753  0.2391
37669SOL     OW17368   8.360   6.728   5.055  0.0420 -0.0722  0.5228
37669SOL    HW117369   8.265   6.730   5.066 -0.2735 -1.4634 -1.4725
37669SOL    HW217370   8.389   6.650   5.103  0.0196 -0.2709  0.2176
37670SOL     OW17371   2.760   4.504   3.923 -0.0391 -0.6330  0.3695
37670SOL    HW117372   2.837   4.555   3.945 -0.3988  0.6726 -1.2156
37670SOL    HW217373   2.790   4.443   3.855 -0.1599 -0.8777  0.5338
37671SOL     OW17374   6.836   0.394   9.252 -0.5233  0.4724 -0.5285
37671SOL    HW117375   6.907   0.435   9.203 -1.5302  3.8889  0.6143
37671SOL    HW217376   6.757   0.418   9.203 -1.0963 -3.0514 -1.6513
37672SOL     OW17377   0.766   1.123  10.970 -0.6571 -0.2886  0.7645
37672SOL    HW117378   0.714   1.180  11.027 -0.5963  1.5141 -0.8929
37672SOL    HW217379   0.710   1.046  10.957 -2.6900  1.2813 -0.3777
37673SOL     OW17380   6.382   5.133   5.960  0.8087  0.0481 -0.0725
37673SOL    HW117381   6.406   5.122   5.868  1.4010 -0.4673  0.1385
37673SOL    HW217382   6.408   5.223   5.980  0.9474  0.0688 -0.3342
37674SOL     OW17383   7.148   4.972   0.063  0.6339  0.1349 -0.8038
37674SOL    HW117384   7.188   4.993   0.148 -2.8283 -1.4613  1.4501
37674SOL    HW217385   7.074   5.032   0.056 -0.3561 -1.1514 -1.6849
37675SOL     OW17386  10.210   6.862   7.734 -0.1082  0.0275  0.3391
37675SOL    HW117387  10.274   6.790   7.734  0.8842  0.8587 -0.6459
37675SOL    HW217388  10.203   6.888   7.826  1.3580  0.2130  0.4329
37676SOL     OW17389  10.444   6.258   5.152  0.5233 -0.0088 -0.4230
37676SOL    HW117390  10.370   6.314   5.175  1.1289  0.8051 -0.4045
37676SOL    HW217391  10.407   6.171   5.146 -0.7217  0.5840 -1.8576
37677SOL     OW17392   2.562   7.199   4.292 -0.7958 -0.6983  0.5550
37677SOL    HW117393   2.643   7.250   4.285 -1.2293  0.0693  0.9896
37677SOL    HW217394   2.588   7.109   4.271 -0.1690 -0.1781 -0.9938
37678SOL     OW17395  11.078   5.715   5.348 -0.3714  0.1861  0.0992
37678SOL    HW117396  11.085   5.722   5.444 -1.2183 -0.7867  0.2518
37678SOL    HW217397  11.111   5.799   5.316 -1.4928  1.1588  1.3238
37679SOL     OW17398   5.215   3.659  10.385  0.4271 -0.1401  0.4975
37679SOL    HW117399   5.303   3.672  10.349  0.2524 -0.0994  0.0831
37679SOL    HW217400   5.205   3.564  10.389 -0.4632 -0.2047 -1.8489
37680SOL     OW17401   6.826   2.082   4.325 -0.0635 -0.2933 -0.3413
37680SOL    HW117402   6.739   2.043   4.317 -0.3418  0.3692 -0.6844
37680SOL    HW217403   6.859   2.051   4.409 -0.7193 -0.3927 -0.1130
37681SOL     OW17404   1.739   1.221   6.870 -0.2448  0.4791 -0.0916
37681SOL    HW117405   1.659   1.181   6.904 -0.0507  0.2271  0.0744
37681SOL    HW217406   1.810   1.172   6.912  0.0182  1.9894  1.3273
37682SOL     OW17407   7.317   7.852   9.111  0.2914 -0.0975 -0.0983
37682SOL    HW117408   7.382   7.865   9.042  0.1463  0.6207 -0.1006
37682SOL    HW217409   7.296   7.940   9.142  0.6141 -0.4127  1.1016
37683SOL     OW17410   6.305   9.148  10.371 -0.7233 -0.0692  0.2288
37683SOL    HW117411   6.275   9.153  10.461 -0.8459 -2.3600  0.3753
37683SOL    HW217412   6.397   9.124  10.377 -0.3110  1.2934 -0.2725
37684SOL     OW17413   4.861   1.822   9.616 -0.3462 -0.5009  0.3602
37684SOL    HW117414   4.883   1.819   9.523  0.7417 -0.7993  0.6088
37684SOL    HW217415   4.770   1.792   9.620  0.1994 -2.4763 -0.4346
37685SOL     OW17416   0.731   9.374   4.764  0.0829  0.0845  0.3301
37685SOL    HW117417   0.735   9.296   4.820 -1.7510 -0.3941 -0.1603
37685SOL    HW217418   0.762   9.344   4.679  1.2641  0.4119  0.6149
37686SOL     OW17419   1.092   7.762   0.908 -0.5565 -0.3431  0.1170
37686SOL    HW117420   1.116   7.854   0.898  1.2575 -0.1241  4.3041
37686SOL    HW217421   1.166   7.713   0.873 -0.2357 -0.0749  0.4069
37687SOL     OW17422   2.671   7.841   0.849  0.1477  0.2460 -0.2075
37687SOL    HW117423   2.633   7.790   0.920  1.4356  0.0249  0.3638
37687SOL    HW217424   2.688   7.777   0.779 -1.1334  0.4661 -0.7346
37688SOL     OW17425   6.806   3.081   7.908  0.2096  0.0098  0.1074
37688SOL    HW117426   6.749   3.147   7.867 -0.6654 -1.0953 -0.5046
37688SOL    HW217427   6.788   3.000   7.860  1.1962 -0.7056  0.9011
37689SOL     OW17428  11.030   0.109   0.146  0.1637  0.0433 -0.1322
37689SOL    HW117429  11.064   0.052   0.215 -3.4530 -0.3682  1.5320
37689SOL    HW217430  11.000   0.188   0.192 -3.3915 -0.7011 -0.8826
37690SOL     OW17431   4.385   8.015   3.919  0.1598 -0.2308  0.0414
37690SOL    HW117432   4.463   8.004   3.864  1.0674 -1.3255  1.4853
37690SOL    HW217433   4.408   8.085   3.980  0.3498 -1.1010  0.9936
37691SOL     OW17434   5.111   9.103  10.720 -0.0421  0.2477  0.1305
37691SOL    HW117435   5.123   9.166  10.648 -2.3292  0.0952 -0.4306
37691SOL    HW217436   5.027   9.062  10.703  0.6197 -1.7899  1.4339
37692SOL     OW17437   2.935   9.183   6.332  0.1247 -0.1755  0.1860
37692SOL    HW117438   2.862   9.178   6.393 -1.9558 -3.0660 -2.2311
37692SOL    HW217439   3.005   9.134   6.373 -1.5719 -2.9604  0.0452
37693SOL     OW17440   8.131   2.168   8.813 -0.1642 -0.4818 -0.0780
37693SOL    HW117441   8.224   2.158   8.790 -0.2567  1.2302 -1.4243
37693SOL    HW217442   8.084   2.131   8.739 -0.5174  1.0351 -0.6325
37694SOL     OW17443   1.535   5.194  10.186  0.6243  0.2026  0.2579
37694SOL    HW117444   1.469   5.140  10.230 -0.3889 -0.3765 -1.8403
37694SOL    HW217445   1.580   5.239  10.258 -0.7621 -0.8399  1.8802
37695SOL     OW17446   6.710   6.124   4.613  0.1410  0.2273  0.4059
37695SOL    HW117447   6.618   6.099   4.603  0.4319 -0.6180 -0.1499
37695SOL    HW217448   6.715   6.159   4.702 -0.1940 -2.0511  1.3726
37696SOL     OW17449   7.413   2.251   1.082  0.3943  0.2664  0.4352
37696SOL    HW117450   7.417   2.336   1.127  1.7409  1.1088 -1.1642
37696SOL    HW217451   7.484   2.254   1.018 -1.4963 -0.7815 -1.8725
37697SOL     OW17452   0.796   1.198   8.157  0.3924  0.1225  0.4001
37697SOL    HW117453   0.755   1.112   8.154 -0.5370  0.4489  2.2142
37697SOL    HW217454   0.874   1.185   8.211 -0.7494  0.7350  2.2917
37698SOL     OW17455   1.483   9.913   1.361  0.3481 -0.3428  0.3758
37698SOL    HW117456   1.548   9.845   1.381  0.0092 -0.2773  1.8724
37698SOL    HW217457   1.458   9.897   1.270  0.0825 -2.4027  0.7455
37699SOL     OW17458  10.791   3.018   3.096  0.3676  0.0715  0.7091
37699SOL    HW117459  10.836   2.978   3.170 -1.2289 -0.2065  1.5704
37699SOL    HW217460  10.859   3.070   3.052  2.2181 -2.5263  0.2585
37700SOL     OW17461   0.350   4.046   9.761  0.1263 -0.3845  0.0356
37700SOL    HW117462   0.384   4.069   9.848 -0.2150 -2.4467  0.7873
37700SOL    HW217463   0.268   4.095   9.754  1.0467  1.2321  0.0627
37701SOL     OW17464  10.275   2.843   6.279 -0.5332  0.2324 -0.0670
37701SOL    HW117465  10.355   2.867   6.232 -0.9962  0.8411 -0.5590
37701SOL    HW217466  10.211   2.908   6.251 -1.1409 -0.1185  0.4984
37702SOL     OW17467   8.490   0.135   2.606  0.6115  0.1600 -0.2673
37702SOL    HW117468   8.457   0.175   2.526 -2.2821  0.1388  0.8117
37702SOL    HW217469   8.449   0.185   2.677 -0.9190 -2.8443  1.1510
37703SOL     OW17470   9.473   5.699   4.677  0.6275  0.0874  0.2938
37703SOL    HW117471   9.382   5.686   4.704  0.1959  1.9891 -0.0888
37703SOL    HW217472   9.511   5.754   4.745 -0.3583  4.5909 -2.3729
37704SOL     OW17473   8.523   6.959   1.821  0.0949  0.0654  0.4639
37704SOL    HW117474   8.508   7.054   1.815 -0.2582  0.0477  0.9812
37704SOL    HW217475   8.513   6.927   1.732 -1.1835  0.3225  0.4960
37705SOL     OW17476   6.796   5.904   9.124  0.3466 -0.2524  0.4552
37705SOL    HW117477   6.759   5.822   9.091 -0.1858 -0.3955  1.3942
37705SOL    HW217478   6.888   5.901   9.096 -0.3175  0.1968 -2.0797
37706SOL     OW17479   6.875   3.003   8.781  0.1986  0.0418 -0.2255
37706SOL    HW117480   6.914   2.937   8.838 -0.9118  0.1521  0.7129
37706SOL    HW217481   6.895   2.973   8.692  1.3912 -0.4953  0.2011
37707SOL     OW17482   9.811   3.093   6.937 -0.5810  0.3965  0.4094
37707SOL    HW117483   9.887   3.051   6.978  0.0708  0.1230 -1.0410
37707SOL    HW217484   9.833   3.186   6.937  1.2763  0.1014 -2.8416
37708SOL     OW17485   1.745   9.259   5.317 -0.0852 -0.1547  0.4509
37708SOL    HW117486   1.705   9.172   5.309 -0.6322 -0.0004  1.3915
37708SOL    HW217487   1.678   9.320   5.287  0.2448 -0.0340 -0.0630
37709SOL     OW17488   8.049   3.960   9.992 -0.1348  0.0818 -0.6540
37709SOL    HW117489   8.109   4.028  10.022 -0.7209  0.5490 -0.4981
37709SOL    HW217490   8.097   3.878  10.001  0.7036  0.5062 -1.1517
37710SOL     OW17491   6.629   6.816   3.034  0.1938 -0.1409 -0.0513
37710SOL    HW117492   6.713   6.820   2.989  0.3323 -0.8086  0.1365
37710SOL    HW217493   6.568   6.862   2.976  1.1967  2.7660  1.0697
37711SOL     OW17494   6.812   9.559   8.162  0.1633  0.1469  0.0718
37711SOL    HW117495   6.782   9.615   8.234 -1.4018 -0.4126 -0.1069
37711SOL    HW217496   6.746   9.571   8.093  2.3451  1.7698 -1.9182
37712SOL     OW17497   5.885  10.095   5.500  0.1480 -0.0672 -0.6479
37712SOL    HW117498   5.945  10.063   5.568  0.7903  0.0701 -1.1317
37712SOL    HW217499   5.823  10.024   5.486 -0.7361  0.3576  0.9211
37713SOL     OW17500   4.728   1.557   2.970  0.2231 -0.5131 -0.4538
37713SOL    HW117501   4.760   1.648   2.967 -0.4352 -0.2918 -0.9381
37713SOL    HW217502   4.764   1.517   2.891 -0.3723 -0.3663 -0.8064
37714SOL     OW17503   6.528   3.793   3.110  0.0897  0.2159  0.0876
37714SOL    HW117504   6.440   3.821   3.135  0.7258  2.1467  0.3016
37714SOL    HW217505   6.585   3.828   3.178  1.0838 -0.6743 -0.2601
37715SOL     OW17506   0.009   0.912   1.626 -0.0572 -0.1334  0.1275
37715SOL    HW117507  -0.011   0.902   1.719 -0.2866  0.5395  0.1515
37715SOL    HW217508   0.095   0.871   1.615  0.2756  0.4032  0.7655
37716SOL     OW17509   9.945   5.098   0.165 -0.5623 -0.4764  0.6833
37716SOL    HW117510   9.941   5.004   0.185 -0.3641 -0.2948  1.6355
37716SOL    HW217511   9.861   5.118   0.124 -0.1155 -1.3245 -0.7175
37717SOL     OW17512   0.508   1.534   4.777 -0.2379 -0.1985  0.0234
37717SOL    HW117513   0.520   1.441   4.798 -0.1709 -0.2073 -0.0554
37717SOL    HW217514   0.430   1.536   4.722 -0.8617 -0.0944  0.8988
37718SOL     OW17515   4.794   1.485   5.943  0.0567 -0.2975 -0.5034
37718SOL    HW117516   4.870   1.527   5.903 -0.8521  1.0065 -0.9538
37718SOL    HW217517   4.814   1.483   6.037  0.4224  0.5329 -0.5549
37719SOL     OW17518  10.147   3.618   8.234 -0.0733  0.2541  0.0516
37719SOL    HW117519  10.059   3.632   8.269 -0.5837 -0.3045 -0.9572
37719SOL    HW217520  10.183   3.706   8.222 -0.4788  0.4837  0.5089
37720SOL     OW17521   0.640   0.011   4.472  0.0141  0.0877  0.4642
37720SOL    HW117522   0.698   0.087   4.479  1.0448 -0.7235  0.8810
37720SOL    HW217523   0.592   0.010   4.555 -0.4822  0.6512  0.1932
37721SOL     OW17524   9.960   8.745   4.368 -0.1487 -0.3534  0.3722
37721SOL    HW117525   9.995   8.659   4.346 -0.1367  0.1095 -1.5362
37721SOL    HW217526  10.034   8.794   4.404  0.1871 -0.6612  0.0881
37722SOL     OW17527   2.177   0.817   3.512 -0.1412 -0.1779 -0.4150
37722SOL    HW117528   2.145   0.727   3.520 -0.5708 -0.0266 -0.4396
37722SOL    HW217529   2.231   0.816   3.433 -1.5822 -0.0015 -1.4332
37723SOL     OW17530   3.042  10.735   6.723 -0.6749  0.0466 -0.7150
37723SOL    HW117531   3.116  10.765   6.777 -0.9949  1.2978 -0.9422
37723SOL    HW217532   2.966  10.742   6.781 -0.9820  1.1720 -1.2144
37724SOL     OW17533   0.107   0.492   6.725  0.0440 -0.1007  0.3971
37724SOL    HW117534   0.077   0.544   6.799  1.5010  0.0423  0.9246
37724SOL    HW217535   0.082   0.402   6.747 -0.4067  0.0741  0.5950
37725SOL     OW17536   1.561   3.582  11.056  0.3351 -0.2152 -0.1431
37725SOL    HW117537   1.591   3.615  11.140 -1.0022 -0.2082  0.3496
37725SOL    HW217538   1.509   3.653  11.019 -0.5865 -0.8772 -0.1523
37726SOL     OW17539   4.666   1.715   3.828 -0.2940 -0.6034 -0.4437
37726SOL    HW117540   4.729   1.644   3.829 -0.7983 -1.0825 -1.2384
37726SOL    HW217541   4.583   1.673   3.805 -0.8990  0.0217  0.5164
37727SOL     OW17542   1.968   4.667   6.022  0.0647 -0.4988  0.5374
37727SOL    HW117543   1.969   4.726   5.946 -0.3789  0.4477  1.2397
37727SOL    HW217544   1.971   4.726   6.097 -0.8315 -1.3629  1.2671
37728SOL     OW17545   2.318   4.592   1.005 -0.4384  0.0383  0.4561
37728SOL    HW117546   2.358   4.645   0.936 -1.5714  0.8220  0.3849
37728SOL    HW217547   2.345   4.634   1.087  0.7720 -0.7981  0.5175
37729SOL     OW17548   3.972   1.597   0.381 -0.5034  0.0236 -0.3051
37729SOL    HW117549   3.901   1.642   0.335 -0.6805  0.3599  0.2982
37729SOL    HW217550   3.929   1.548   0.450 -0.4567 -2.0328 -1.6412
37730SOL     OW17551   0.380   7.459  10.260  0.0823  0.0544  0.2701
37730SOL    HW117552   0.468   7.430  10.236  0.2105  0.5661  0.1079
37730SOL    HW217553   0.390   7.552  10.279 -0.3915  0.0770  0.4158
37731SOL     OW17554   1.348  10.577   7.478  0.3966  0.3262  0.1497
37731SOL    HW117555   1.433  10.602   7.516  0.6589 -0.1180 -0.1376
37731SOL    HW217556   1.370  10.540   7.393 -0.2058  1.5787 -0.5922
37732SOL     OW17557   6.504   9.479   5.860  0.0020  0.1414  0.6569
37732SOL    HW117558   6.550   9.546   5.810  0.9117 -0.2052  1.0133
37732SOL    HW217559   6.414   9.511   5.865  0.3298  1.1361  0.4721
37733SOL     OW17560   0.033   5.212   8.856  0.5484  0.0325 -0.1767
37733SOL    HW117561  -0.037   5.271   8.883 -0.1176 -2.3129  4.1121
37733SOL    HW217562   0.113   5.254   8.887  0.3777 -0.0067  0.3216
37734SOL     OW17563   7.378   8.994   5.133 -0.4099 -0.2642  0.1824
37734SOL    HW117564   7.341   9.081   5.120  1.0821  0.3470 -0.2126
37734SOL    HW217565   7.335   8.961   5.212  1.4918  2.2927  2.5106
37735SOL     OW17566   3.911  10.162   6.135  0.1888 -0.4401 -0.5167
37735SOL    HW117567   3.965  10.182   6.058 -1.3959  0.8288 -1.3621
37735SOL    HW217568   3.828  10.131   6.099 -0.4351 -0.2372  0.7011
37736SOL     OW17569  10.955   4.022   8.547 -0.6046  0.1110  0.4573
37736SOL    HW117570  10.935   4.099   8.600 -0.2784  0.6015 -0.1147
37736SOL    HW217571  11.050   4.016   8.547 -0.6496 -1.3253  1.9093
37737SOL     OW17572  10.896   7.488   5.616  0.1284  0.2400 -0.1813
37737SOL    HW117573  10.852   7.506   5.699 -1.2709  1.4193 -1.1139
37737SOL    HW217574  10.841   7.422   5.573  0.7976 -0.3024 -0.2201
37738SOL     OW17575   6.684   9.270   5.445 -0.3212 -0.3278  0.2512
37738SOL    HW117576   6.689   9.270   5.540 -1.1088  0.8883  0.3236
37738SOL    HW217577   6.755   9.328   5.417 -1.2856  0.8633  0.2179
37739SOL     OW17578   4.720   5.604  10.656 -0.3187 -0.4762  0.3256
37739SOL    HW117579   4.710   5.679  10.597 -0.7371 -0.7328  0.0594
37739SOL    HW217580   4.677   5.532  10.610 -1.0220 -0.5876  1.1316
37740SOL     OW17581   9.672   1.464   1.521 -0.0416 -0.3584  0.0737
37740SOL    HW117582   9.682   1.549   1.478 -1.6039  0.1794  0.7461
37740SOL    HW217583   9.595   1.425   1.479 -0.8554 -0.3468  1.5186
37741SOL     OW17584   2.024   8.667   5.817  0.1094  0.3060 -0.1303
37741SOL    HW117585   2.109   8.674   5.774  0.1134 -0.1089 -0.1964
37741SOL    HW217586   1.966   8.724   5.766 -0.0730 -0.7638 -1.1753
37742SOL     OW17587   5.728   3.842   7.478 -0.1330 -0.1062 -0.3994
37742SOL    HW117588   5.703   3.806   7.563  3.3834 -0.0685  0.8266
37742SOL    HW217589   5.712   3.936   7.486 -1.0545 -0.2644 -0.3038
37743SOL     OW17590   1.795   0.440   1.107  0.1872 -0.0704 -0.3354
37743SOL    HW117591   1.869   0.397   1.065 -0.0212  0.6694 -1.5131
37743SOL    HW217592   1.769   0.381   1.177  1.7321 -0.4574 -0.0610
37744SOL     OW17593   7.017   8.910   3.579  0.0643 -0.1868 -0.0948
37744SOL    HW117594   7.015   8.983   3.518  1.3402 -0.3242 -0.3329
37744SOL    HW217595   6.940   8.922   3.634 -0.1307  0.9330 -0.5919
37745SOL     OW17596   3.691   6.948   1.211  0.3628  0.3695  0.2376
37745SOL    HW117597   3.629   6.942   1.139 -0.8148 -0.3590  1.2585
37745SOL    HW217598   3.700   7.042   1.228 -0.2418  0.4954 -0.1156
37746SOL     OW17599   2.764  10.315   7.321  0.1591  0.0726  0.4994
37746SOL    HW117600   2.679  10.294   7.283 -0.0451  0.0484  0.9595
37746SOL    HW217601   2.747  10.392   7.376  0.6794  0.8351 -0.3553
37747SOL     OW17602  10.498   2.650  10.620  0.3693 -0.0747  0.1225
37747SOL    HW117603  10.458   2.564  10.630  1.5863 -0.5620  1.0437
37747SOL    HW217604  10.503   2.663  10.525 -0.8384 -0.5149 -0.0159
37748SOL     OW17605   1.116   7.466   9.354  0.0887 -0.3497 -0.2212
37748SOL    HW117606   1.149   7.541   9.403  0.6392  0.3189 -1.5771
37748SOL    HW217607   1.037   7.498   9.310 -0.8840 -1.1823  0.8533
37749SOL     OW17608   8.952   1.191  10.316 -0.0666  0.3062 -0.2674
37749SOL    HW117609   9.037   1.183  10.273  0.3674  0.5608  0.5211
37749SOL    HW217610   8.928   1.283  10.305  0.9683  0.8541  1.6853
37750SOL     OW17611   7.456   3.491   9.785  0.2902  0.3855  0.1608
37750SOL    HW117612   7.407   3.528   9.712 -0.8621  0.3948  0.9142
37750SOL    HW217613   7.415   3.406   9.801  0.4654  0.4285  0.8649
37751SOL     OW17614   3.875   6.695   5.318 -0.7977 -0.2994 -0.1247
37751SOL    HW117615   3.847   6.757   5.251 -2.3748 -0.7332  0.0919
37751SOL    HW217616   3.963   6.669   5.292 -1.0919  0.1039 -1.6096
37752SOL     OW17617   3.136   0.822   5.319  0.3264  0.5346 -0.1522
37752SOL    HW117618   3.094   0.772   5.249  1.6706 -1.9200  0.6623
37752SOL    HW217619   3.196   0.880   5.274 -0.3957  0.5799 -1.1005
37753SOL     OW17620   7.905   9.372  10.613 -0.3167  0.2038  0.8712
37753SOL    HW117621   7.918   9.466  10.603 -2.3439  0.3723 -0.6976
37753SOL    HW217622   7.815   9.356  10.586  0.1692 -2.2964  0.4025
37754SOL     OW17623   6.408   4.829   5.664  0.0518 -0.5547  0.1098
37754SOL    HW117624   6.335   4.770   5.645  1.1256 -2.4648  1.6280
37754SOL    HW217625   6.414   4.831   5.759 -0.0188  2.2130  0.1542
37755SOL     OW17626   4.093   3.101   9.192  1.0331 -0.6525 -0.5160
37755SOL    HW117627   4.149   3.121   9.268  1.3760 -0.2407 -0.8679
37755SOL    HW217628   4.154   3.098   9.118  0.7050 -1.0865 -0.7699
37756SOL     OW17629   7.289   6.394  10.389 -0.1914  0.5641 -0.0797
37756SOL    HW117630   7.238   6.315  10.372  0.7733 -0.0434 -0.2314
37756SOL    HW217631   7.352   6.369  10.457 -0.6413  1.5402  0.7327
37757SOL     OW17632  10.636   4.317   1.852 -0.5094  0.9184 -0.0622
37757SOL    HW117633  10.690   4.285   1.779 -0.1088  0.3695  0.4647
37757SOL    HW217634  10.546   4.313   1.819 -0.4070 -0.1324 -0.2446
37758SOL     OW17635   8.574  10.247   7.039  0.5526  0.6159 -0.0797
37758SOL    HW117636   8.582  10.235   7.134  1.0282  1.7513  0.0369
37758SOL    HW217637   8.508  10.316   7.029 -0.8414 -0.7346 -0.6559
37759SOL     OW17638   2.489   3.614  10.036  0.0703 -0.2249  0.2599
37759SOL    HW117639   2.455   3.631   9.948  0.1704 -2.8593 -0.3816
37759SOL    HW217640   2.445   3.679  10.091 -3.4270 -1.2271 -1.0744
37760SOL     OW17641   1.589   3.255   3.340 -0.1674 -0.2447 -0.1065
37760SOL    HW117642   1.621   3.248   3.430  1.8726  0.4891 -0.7281
37760SOL    HW217643   1.661   3.224   3.286 -0.6494  1.0965 -1.5859
37761SOL     OW17644   4.637   1.165   7.899 -0.8043 -0.3130 -0.0897
37761SOL    HW117645   4.732   1.155   7.893 -0.7447 -0.8632  1.5081
37761SOL    HW217646   4.603   1.099   7.838 -0.1843  0.5491 -1.4272
37762SOL     OW17647   6.716   4.091  10.497  0.4340  0.2733 -0.0045
37762SOL    HW117648   6.678   4.093  10.409 -1.0841 -0.5074  0.5835
37762SOL    HW217649   6.809   4.110  10.484  0.0240  1.3980 -1.6316
37763SOL     OW17650   5.358   2.871   2.104 -0.1465  0.7744  0.7628
37763SOL    HW117651   5.450   2.858   2.128 -0.0635 -0.9884 -0.3528
37763SOL    HW217652   5.345   2.816   2.027 -2.4716 -0.0376  1.6430
37764SOL     OW17653   3.143   7.231   8.564 -0.1801 -0.0444 -0.6335
37764SOL    HW117654   3.058   7.276   8.565 -0.2332  0.1112  3.0144
37764SOL    HW217655   3.206   7.300   8.585  0.3759 -0.7228  0.0013
37765SOL     OW17656   8.163   9.460   7.793  0.0164  0.4083 -0.3697
37765SOL    HW117657   8.234   9.397   7.805 -0.5380  0.1163  1.9236
37765SOL    HW217658   8.189   9.536   7.845 -1.8584 -0.2013  1.6105
37766SOL     OW17659   7.614   9.373   3.673  0.6669  0.0163  0.1978
37766SOL    HW117660   7.706   9.355   3.693  0.1614 -3.2832  0.0310
37766SOL    HW217661   7.598   9.329   3.590 -1.2128  0.0351  0.4996
37767SOL     OW17662   7.170   7.695  10.980 -0.8668  0.8997  0.4425
37767SOL    HW117663   7.219   7.668  11.058  0.3051 -0.1052 -0.5985
37767SOL    HW217664   7.085   7.652  10.988 -0.6287  0.5217  0.9759
37768SOL     OW17665   9.564   6.459   1.837 -0.5085  0.5517  0.7499
37768SOL    HW117666   9.579   6.373   1.797 -1.3478  1.2576 -1.1834
37768SOL    HW217667   9.498   6.500   1.782  0.9276  3.0396  0.7653
37769SOL     OW17668   7.021   4.171   6.671 -0.1070 -0.1956 -0.4675
37769SOL    HW117669   7.110   4.180   6.705  0.6393  0.5609 -2.4325
37769SOL    HW217670   6.975   4.248   6.705  0.4421  0.2294 -0.6646
37770SOL     OW17671   0.568   3.137   4.929  0.4599  0.5865 -0.2129
37770SOL    HW117672   0.493   3.130   4.988  0.3175 -2.1094 -0.5842
37770SOL    HW217673   0.643   3.150   4.986  0.1052 -0.1927  0.4472
37771SOL     OW17674   8.635   3.620   4.451 -0.5444 -0.5048 -0.5012
37771SOL    HW117675   8.694   3.592   4.381 -0.5091  0.0247 -0.6853
37771SOL    HW217676   8.685   3.605   4.532 -0.4938 -0.8871 -0.6010
37772SOL     OW17677   4.894   5.084   7.927 -0.1427 -0.1002 -0.4502
37772SOL    HW117678   4.808   5.111   7.895  0.0137  1.0727  0.0539
37772SOL    HW217679   4.915   5.006   7.876 -0.9453  0.3260 -1.4855
37773SOL     OW17680   1.143   5.187   2.717 -0.1242 -0.7625 -0.0986
37773SOL    HW117681   1.104   5.119   2.662  0.2029 -0.9046 -0.1612
37773SOL    HW217682   1.231   5.199   2.681 -1.1793  1.9116 -2.0550
37774SOL     OW17683   1.914   9.210   8.697  0.4689 -0.0155  0.2435
37774SOL    HW117684   1.856   9.179   8.766 -1.1730  0.2634 -0.9490
37774SOL    HW217685   1.862   9.276   8.651  1.4737 -0.2732 -1.3098
37775SOL     OW17686   9.668   5.594   7.355 -0.1255  0.0816  0.3175
37775SOL    HW117687   9.729   5.605   7.282  0.0687  2.7344  0.7826
37775SOL    HW217688   9.585   5.572   7.313  0.4757 -0.7516 -0.5005
37776SOL     OW17689   3.124   6.897   2.277  0.6469 -0.3533  0.4334
37776SOL    HW117690   3.216   6.922   2.286  0.4212 -0.1462  2.8585
37776SOL    HW217691   3.076   6.980   2.278  0.4206 -0.4446 -1.0736
37777SOL     OW17692   5.862   1.884   4.684 -0.2778  0.6806 -0.0291
37777SOL    HW117693   5.942   1.908   4.731 -0.1493  2.3594 -1.0142
37777SOL    HW217694   5.792   1.897   4.748  0.2089 -0.8510  0.8604
37778SOL     OW17695   8.581   7.899  10.740  0.0781 -0.0190  0.0893
37778SOL    HW117696   8.626   7.942  10.667  1.6784  1.1752  1.6901
37778SOL    HW217697   8.538   7.971  10.787 -1.2046 -0.8080  0.1923
37779SOL     OW17698   4.999   5.578  10.015  0.1555 -0.0838  0.6452
37779SOL    HW117699   4.995   5.535   9.930  0.2393  0.1680  0.5122
37779SOL    HW217700   4.908   5.599  10.036  0.2201  0.6845  0.1869
37780SOL     OW17701   7.108   5.430   1.723 -0.4981  0.3846 -0.4531
37780SOL    HW117702   7.089   5.509   1.673  0.3167  0.3136 -0.8919
37780SOL    HW217703   7.024   5.386   1.731 -0.8826  1.0791 -0.5758
37781SOL     OW17704   5.366   7.941   2.223 -0.4216 -0.0044 -0.8006
37781SOL    HW117705   5.381   7.872   2.158  2.6723 -0.4215  0.2034
37781SOL    HW217706   5.334   7.894   2.300  0.3996 -0.1670 -0.5499
37782SOL     OW17707   6.111   6.949   8.812  0.1802  0.3931  0.3726
37782SOL    HW117708   6.055   7.012   8.767  0.7039 -0.3711 -1.4739
37782SOL    HW217709   6.191   6.998   8.832 -0.1749  0.8273  0.7346
37783SOL     OW17710   5.155   4.059   2.813 -0.4109 -0.0440 -0.1300
37783SOL    HW117711   5.186   4.035   2.900 -3.4928 -0.7591  0.9146
37783SOL    HW217712   5.071   4.013   2.804  0.6693 -1.7256 -4.3404
37784SOL     OW17713   2.200   9.618   7.876  0.5873 -0.3044  0.1591
37784SOL    HW117714   2.290   9.643   7.897  0.8337 -1.3069  0.3616
37784SOL    HW217715   2.171   9.567   7.952 -0.7334  1.3521  0.8353
37785SOL     OW17716   0.113   4.769  10.402  0.3136  0.0851  0.0587
37785SOL    HW117717   0.151   4.834  10.343  1.5441 -0.6839 -0.0308
37785SOL    HW217718   0.147   4.685  10.371 -1.9356 -0.7368 -0.3741
37786SOL     OW17719   7.738   0.924   3.049 -0.9815  0.1188  0.0009
37786SOL    HW117720   7.751   0.880   2.965  0.0691  0.5949 -0.0944
37786SOL    HW217721   7.674   0.993   3.031  0.8313  1.6463 -0.9481
37787SOL     OW17722   9.243   3.565   8.641 -0.2968 -0.2253 -0.0379
37787SOL    HW117723   9.188   3.502   8.687 -0.5179  0.7425  1.0934
37787SOL    HW217724   9.189   3.644   8.635  0.1029 -0.0159 -1.0972
37788SOL     OW17725   6.368   9.818   0.404 -0.4485 -0.3544  0.5848
37788SOL    HW117726   6.432   9.851   0.342 -0.9412 -2.2578 -1.0459
37788SOL    HW217727   6.395   9.728   0.421 -0.3256  0.0940  3.2237
37789SOL     OW17728   9.371   5.331   9.249  0.3778  0.3481  0.1112
37789SOL    HW117729   9.371   5.313   9.343 -0.9780 -2.6772 -0.3305
37789SOL    HW217730   9.280   5.349   9.228  0.6263  0.7300 -0.6489
37790SOL     OW17731   1.129  10.350   3.380 -0.0262  0.0323  0.0145
37790SOL    HW117732   1.034  10.344   3.386 -0.0023  0.3506  1.0004
37790SOL    HW217733   1.148  10.443   3.392  0.2971  0.3197 -2.3616
37791SOL     OW17734   4.708   0.822   3.105  0.3968  0.1614  0.3105
37791SOL    HW117735   4.774   0.754   3.091  2.6682  2.4010 -0.7160
37791SOL    HW217736   4.626   0.774   3.119  1.8758 -2.7401 -0.2463
37792SOL     OW17737   4.890   9.922   7.468 -0.1895  0.2492 -0.3988
37792SOL    HW117738   4.830   9.848   7.471 -0.8713  0.8154  0.9385
37792SOL    HW217739   4.880   9.965   7.553  1.1895  1.0957 -0.6220
37793SOL     OW17740   2.379   1.614   6.376  0.5282  0.4427 -0.2956
37793SOL    HW117741   2.368   1.672   6.451  1.7259  0.6916 -0.2934
37793SOL    HW217742   2.405   1.530   6.414 -2.5243 -0.5901 -0.1879
37794SOL     OW17743   0.681  10.722  10.890  0.6201  0.3166 -0.8285
37794SOL    HW117744   0.708  10.803  10.847 -0.3119  0.6753 -0.7460
37794SOL    HW217745   0.686  10.741  10.983  1.3646 -0.0487 -0.7834
37795SOL     OW17746   4.469   0.461   5.978 -0.5115 -0.0940  0.2207
37795SOL    HW117747   4.461   0.366   5.985  0.3730 -0.0602  3.1968
37795SOL    HW217748   4.562   0.477   5.967 -0.5237  0.4162  0.7825
37796SOL     OW17749   2.678   7.614   0.695  0.3900  0.5045 -0.3742
37796SOL    HW117750   2.690   7.617   0.600  0.5194  2.5595 -0.3353
37796SOL    HW217751   2.586   7.593   0.708  0.5776 -0.7357 -0.9107
37797SOL     OW17752   2.536   2.884   5.313  0.0675  0.0398 -0.1185
37797SOL    HW117753   2.616   2.839   5.338  0.7299  1.1432 -0.1904
37797SOL    HW217754   2.510   2.932   5.392  1.3714  2.3803 -1.0040
37798SOL     OW17755   2.062   1.840   9.149  0.2184 -0.8682 -0.0714
37798SOL    HW117756   2.108   1.921   9.170  0.9362 -1.2674 -0.0520
37798SOL    HW217757   2.066   1.788   9.230 -1.0276 -0.5704  0.2031
37799SOL     OW17758   3.073   0.386   4.975  0.0369  0.3984 -0.2712
37799SOL    HW117759   2.995   0.439   4.958  0.1519  0.3857 -0.8641
37799SOL    HW217760   3.142   0.450   4.989 -0.0566  0.4096  0.1307
37800SOL     OW17761   0.856   9.241   5.359  0.4124  1.0651 -0.4917
37800SOL    HW117762   0.798   9.208   5.428  3.3985  1.1813  2.3684
37800SOL    HW217763   0.871   9.166   5.302  1.0452 -0.3550  1.4403
37801SOL     OW17764   7.542   9.621   2.317  0.1166  0.1584  0.0688
37801SOL    HW117765   7.629   9.659   2.301  0.7636  0.0068  2.7984
37801SOL    HW217766   7.484   9.697   2.324 -0.2122  0.2452 -2.4570
37802SOL     OW17767   2.695   6.208   4.234 -0.2375 -0.0320  0.5434
37802SOL    HW117768   2.668   6.180   4.322 -0.0143 -0.4140  0.4913
37802SOL    HW217769   2.677   6.302   4.233 -0.5119 -0.0757  0.8989
37803SOL     OW17770   9.732   2.239   0.173 -0.0061 -0.2110  0.2195
37803SOL    HW117771   9.751   2.317   0.225  0.5235  0.4389 -0.9053
37803SOL    HW217772   9.813   2.188   0.174  0.0399 -0.1420 -0.0689
37804SOL     OW17773   4.498   8.565   3.596 -0.2836 -0.2493  0.4884
37804SOL    HW117774   4.465   8.482   3.631 -0.3603 -0.0120  0.9851
37804SOL    HW217775   4.430   8.595   3.536  0.8217 -1.7992 -1.7090
37805SOL     OW17776   3.226   3.453  10.218  0.2811  0.0629  0.2990
37805SOL    HW117777   3.311   3.468  10.259  1.2523 -0.9306 -1.2742
37805SOL    HW217778   3.190   3.377  10.264  0.9476 -0.4755 -0.0683
37806SOL     OW17779   1.344   8.090   5.209  0.0530  0.6589 -0.5151
37806SOL    HW117780   1.295   8.024   5.161 -0.1996  1.3890 -1.2759
37806SOL    HW217781   1.436   8.068   5.195 -0.0310  0.5109 -0.8172
37807SOL     OW17782   6.980   0.835   0.034 -0.3912 -0.6948  0.0156
37807SOL    HW117783   7.024   0.902  -0.019  0.2609  0.2189  1.6453
37807SOL    HW217784   7.051   0.778   0.064 -0.8247 -1.5285 -0.5071
37808SOL     OW17785   0.341   2.231   0.569 -0.1368 -0.0621  0.1355
37808SOL    HW117786   0.401   2.299   0.598  0.4808 -1.1910  1.6629
37808SOL    HW217787   0.262   2.278   0.543  0.0369  1.2075  1.7441
37809SOL     OW17788   3.006  10.798   4.753 -0.3505  0.8950 -0.2557
37809SOL    HW117789   3.095  10.822   4.728  0.0507 -0.0493  0.2435
37809SOL    HW217790   2.989  10.716   4.705 -0.8068  0.8646 -0.0467
37810SOL     OW17791   4.451   8.146   7.367 -0.4448 -1.2116 -0.0867
37810SOL    HW117792   4.502   8.147   7.448 -1.6209 -1.9692  0.6985
37810SOL    HW217793   4.381   8.210   7.382 -2.2202 -3.1835  0.6085
37811SOL     OW17794   0.832   4.903   8.093  0.1163 -0.1155  0.0337
37811SOL    HW117795   0.878   4.844   8.034  1.3419 -0.7911  1.5921
37811SOL    HW217796   0.879   4.896   8.176 -0.8740  1.6230  0.8091
37812SOL     OW17797   6.996   3.841   2.194  0.7457 -0.2706  0.3524
37812SOL    HW117798   6.934   3.780   2.234  1.2145 -2.0935 -1.5356
37812SOL    HW217799   6.940   3.907   2.152  0.1732 -0.4014  0.8879
37813SOL     OW17800   8.055   4.321   3.268 -0.2648  0.3156  0.3549
37813SOL    HW117801   8.001   4.272   3.331  1.0741 -2.1740 -0.2766
37813SOL    HW217802   8.111   4.254   3.228 -0.8163  1.7842 -3.2994
37814SOL     OW17803   6.048   4.309   6.737  0.8277  0.3997  0.0110
37814SOL    HW117804   5.982   4.336   6.800  0.2329 -4.2495  1.7666
37814SOL    HW217805   6.007   4.238   6.687  3.0340  0.3997 -2.0066
37815SOL     OW17806   4.063   0.785   9.125  0.0193  0.5420 -0.0174
37815SOL    HW117807   4.120   0.841   9.178 -1.1703  2.1119 -0.3250
37815SOL    HW217808   3.975   0.803   9.156 -0.6576  1.0259 -2.0407
37816SOL     OW17809   2.640   3.393   7.107 -0.3915 -0.0954  0.2874
37816SOL    HW117810   2.654   3.465   7.168  4.2333  1.0785 -1.6470
37816SOL    HW217811   2.659   3.314   7.157 -0.3747  0.5064  1.2426
37817SOL     OW17812   3.085   2.469   9.530 -0.2338  0.3533 -0.2542
37817SOL    HW117813   3.105   2.376   9.542 -0.2096  0.3707 -0.1621
37817SOL    HW217814   3.164   2.514   9.558 -0.7705  0.4758  1.1306
37818SOL     OW17815   3.493   8.217   9.115 -0.0936  0.0675  0.3114
37818SOL    HW117816   3.558   8.262   9.059 -0.6041 -0.1618 -0.4850
37818SOL    HW217817   3.440   8.288   9.151  1.2484  0.3464  1.8417
37819SOL     OW17818   7.965   4.758   4.843  0.2565 -0.0105  0.9516
37819SOL    HW117819   7.999   4.843   4.818  0.7116 -0.8013 -1.3354
37819SOL    HW217820   7.889   4.744   4.786 -0.1585 -0.9208  1.6763
37820SOL     OW17821  10.753   0.430   2.658  0.0558 -0.0168 -0.0429
37820SOL    HW117822  10.782   0.456   2.745  0.3893 -1.8652  0.4399
37820SOL    HW217823  10.678   0.487   2.639  0.4870  0.9610  1.0813
37821SOL     OW17824   7.987   7.680  10.045 -0.0512  0.4786  0.3030
37821SOL    HW117825   7.988   7.622  10.122 -0.7156 -0.6392 -0.4957
37821SOL    HW217826   8.038   7.756  10.072 -2.5763  1.4527  2.8679
37822SOL     OW17827   4.418   5.749   5.383  0.3372  0.3051 -0.4125
37822SOL    HW117828   4.419   5.676   5.445 -0.0254  1.3736  0.9178
37822SOL    HW217829   4.433   5.826   5.438  0.9178  1.2181 -1.8036
37823SOL     OW17830   8.102   4.385  10.158 -0.0650  0.3369  0.3034
37823SOL    HW117831   8.157   4.351  10.088  0.2894  1.1732  0.1592
37823SOL    HW217832   8.082   4.309  10.212  1.6089  0.0755  0.6155
37824SOL     OW17833   8.563   0.761  10.153  0.4285  0.1780  0.3341
37824SOL    HW117834   8.512   0.839  10.171  0.4535 -0.3322  3.1845
37824SOL    HW217835   8.642   0.771  10.206  0.0557 -2.0896  1.4651
37825SOL     OW17836   7.377   0.768  10.330  0.2671 -0.0744  0.4074
37825SOL    HW117837   7.352   0.768  10.238  0.4670  1.4391  0.3289
37825SOL    HW217838   7.297   0.746  10.377 -0.0591  0.0661 -0.0768
37826SOL     OW17839   5.112   2.203   6.143  0.1640 -0.2684 -0.2285
37826SOL    HW117840   5.125   2.297   6.153  3.7665 -0.8034  2.2932
37826SOL    HW217841   5.175   2.177   6.076  0.1820 -1.0072  0.0628
37827SOL     OW17842   7.277   1.615   1.204 -0.4054  0.3407  0.4222
37827SOL    HW117843   7.245   1.702   1.227  2.2846  1.2056  1.2773
37827SOL    HW217844   7.317   1.582   1.284  1.4945 -0.2681 -0.7134
37828SOL     OW17845   6.540   6.539   6.321  0.1190 -0.0606  0.0419
37828SOL    HW117846   6.530   6.631   6.297 -0.4078 -0.3418 -0.8771
37828SOL    HW217847   6.527   6.537   6.416  2.2299  1.0850  0.4168
37829SOL     OW17848   1.689   6.260   4.891 -0.0366  0.2831  0.2665
37829SOL    HW117849   1.628   6.205   4.842 -0.1931  1.1713 -0.5535
37829SOL    HW217850   1.713   6.207   4.968  0.9817 -1.5687 -1.2313
37830SOL     OW17851   5.580   1.241   4.354  0.6683  0.0519 -0.2104
37830SOL    HW117852   5.500   1.293   4.350  1.5459  1.3593 -2.0075
37830SOL    HW217853   5.650   1.305   4.368  1.7265 -0.6367 -1.9845
37831SOL     OW17854   5.435   3.691  10.748  0.3774 -0.0552 -0.2385
37831SOL    HW117855   5.473   3.765  10.700  1.8056 -0.8373 -0.3646
37831SOL    HW217856   5.500   3.670  10.815  0.1369 -1.4048 -0.4176
37832SOL     OW17857   8.412   8.114   2.448 -0.0923 -0.9079  0.0206
37832SOL    HW117858   8.423   8.068   2.365 -0.9821 -1.4400  0.1812
37832SOL    HW217859   8.428   8.048   2.515 -1.4105 -1.0246  0.2536
37833SOL     OW17860   8.081   5.232   7.957 -0.6381  0.0700 -0.5356
37833SOL    HW117861   8.038   5.302   7.908  0.7735  1.0126 -0.4860
37833SOL    HW217862   8.047   5.151   7.919 -0.9127  0.7840 -1.8538
37834SOL     OW17863   3.628   7.136   2.551  0.2365 -0.4231  0.2143
37834SOL    HW117864   3.541   7.160   2.519  0.4777  0.4994  0.2070
37834SOL    HW217865   3.682   7.130   2.472  0.2159 -0.8285  0.2314
37835SOL     OW17866   1.544   8.687   5.459 -0.3581 -0.5402  0.2599
37835SOL    HW117867   1.467   8.717   5.412 -0.0352 -0.3994 -0.1888
37835SOL    HW217868   1.554   8.749   5.531 -0.5576 -0.4570  0.2163
37836SOL     OW17869   3.633   8.987   8.278  0.5673 -0.1788  0.4275
37836SOL    HW117870   3.639   8.917   8.343 -0.8019  0.2691  1.0508
37836SOL    HW217871   3.688   9.057   8.313  1.7350 -0.7992 -0.0742
37837SOL     OW17872   9.564   3.860   9.107  0.0985  0.5983  0.0566
37837SOL    HW117873   9.641   3.809   9.134 -0.6526 -0.5840  0.0306
37837SOL    HW217874   9.515   3.801   9.049 -1.4484  0.8710  1.0338
37838SOL     OW17875   2.059   0.285   3.971  0.1376  0.1777  0.2390
37838SOL    HW117876   2.045   0.243   4.056 -1.7240 -0.6393 -0.4109
37838SOL    HW217877   2.115   0.360   3.990  2.2405 -1.6192  1.7109
37839SOL     OW17878   9.772   7.860   5.890  0.0944  0.6772 -0.1495
37839SOL    HW117879   9.799   7.773   5.921 -0.0754  0.8920  0.6250
37839SOL    HW217880   9.685   7.873   5.928 -1.2375 -0.0556 -2.7050
37840SOL     OW17881  10.806   2.901   0.754 -0.4555 -0.7555 -0.7659
37840SOL    HW117882  10.807   2.806   0.769  0.9422 -0.5612  0.5555
37840SOL    HW217883  10.828   2.911   0.661  0.9861 -1.6877 -0.5516
37841SOL     OW17884   3.462   1.172   9.187  0.1318  0.2748  0.2220
37841SOL    HW117885   3.548   1.132   9.172  1.0416  2.9331 -3.1384
37841SOL    HW217886   3.399   1.104   9.162  1.1994 -1.4100  1.8603
37842SOL     OW17887   6.711  10.428   6.830  0.5610  0.1614  0.0596
37842SOL    HW117888   6.711  10.372   6.908  0.6119 -0.2575 -0.2345
37842SOL    HW217889   6.676  10.372   6.760 -0.8558  0.9737  0.0789
37843SOL     OW17890   7.375   5.071   1.106 -0.4337  0.3383  0.3556
37843SOL    HW117891   7.323   5.002   1.066  0.4324  0.4084 -0.9598
37843SOL    HW217892   7.365   5.057   1.200 -0.5334 -1.3836  0.1227
37844SOL     OW17893  10.203   6.212   9.685 -0.0062  0.7047  0.5516
37844SOL    HW117894  10.109   6.196   9.688  0.0575 -0.3583 -1.3494
37844SOL    HW217895  10.242   6.133   9.723  0.1403 -0.7168 -2.2866
37845SOL     OW17896   7.045   9.143   6.750 -0.8054  0.3573  0.0510
37845SOL    HW117897   7.137   9.168   6.759 -0.8394  0.1921  0.9719
37845SOL    HW217898   7.040   9.103   6.663 -0.2061  1.1976 -0.3865
37846SOL     OW17899   0.510   0.200   3.125  0.8577 -0.3648 -0.2892
37846SOL    HW117900   0.482   0.213   3.034 -0.3887 -1.2735 -0.0509
37846SOL    HW217901   0.499   0.106   3.141  0.5314 -0.1350  0.9629
37847SOL     OW17902   3.880   6.329   6.230  0.3514 -0.2862  0.7489
37847SOL    HW117903   3.804   6.270   6.233  0.3705 -0.5300 -1.3774
37847SOL    HW217904   3.844   6.415   6.251 -0.6504 -0.3281 -0.6181
37848SOL     OW17905   3.950   6.735   3.009  0.1500  0.4753 -0.5287
37848SOL    HW117906   3.868   6.754   3.055 -0.0143  0.7586 -0.9416
37848SOL    HW217907   3.942   6.779   2.925  1.3810  1.8740  0.0362
37849SOL     OW17908   4.523  10.665   4.601  0.5437  0.2861 -0.2529
37849SOL    HW117909   4.527  10.610   4.679  0.8243  0.9755  0.2269
37849SOL    HW217910   4.471  10.741   4.628  0.5864  0.4956 -0.7580
37850SOL     OW17911   1.197   7.015   8.531  0.2450  0.2928 -0.1962
37850SOL    HW117912   1.208   6.935   8.581  1.5352  0.5412 -0.0436
37850SOL    HW217913   1.152   7.075   8.591  0.7155  0.1943  0.2672
37851SOL     OW17914   2.459   9.732   7.626 -0.5609 -0.2913  0.3971
37851SOL    HW117915   2.403   9.789   7.678 -1.7610 -0.0085 -1.1336
37851SOL    HW217916   2.524   9.699   7.688 -1.5224  0.5434  1.9071
37852SOL     OW17917   1.354  10.070   9.569 -0.0295 -0.0253 -0.2863
37852SOL    HW117918   1.326  10.126   9.641  2.2734  2.1119 -0.9228
37852SOL    HW217919   1.361   9.983   9.608 -2.0314  0.3917  1.1841
37853SOL     OW17920   5.452   1.746   4.292  0.1251 -0.2429 -0.2510
37853SOL    HW117921   5.375   1.782   4.337  1.1286  2.1607 -0.3110
37853SOL    HW217922   5.522   1.751   4.356  1.0883  1.2373 -1.3545
37854SOL     OW17923   9.454   0.956   2.823  0.3535 -0.0751  0.5219
37854SOL    HW117924   9.492   1.032   2.866 -0.7781 -0.3122  2.0092
37854SOL    HW217925   9.526   0.894   2.815  0.7869  0.3190  1.2675
37855SOL     OW17926   7.522   1.309   8.129  0.0104 -0.3630 -0.0258
37855SOL    HW117927   7.464   1.267   8.066  0.3091  0.2533 -0.7222
37855SOL    HW217928   7.525   1.249   8.204 -4.5989  1.2332  1.7828
37856SOL     OW17929   3.589   3.316   1.825 -0.1051  0.2977 -0.0564
37856SOL    HW117930   3.630   3.387   1.777 -2.7927  1.7104 -0.4536
37856SOL    HW217931   3.554   3.357   1.904  0.2116 -1.0740  0.8480
37857SOL     OW17932   9.791  10.558   1.694  0.5273 -0.0278  0.1321
37857SOL    HW117933   9.756  10.600   1.616  2.0437  0.3082 -0.3949
37857SOL    HW217934   9.818  10.471   1.665  1.8930  0.4059  0.0550
37858SOL     OW17935   7.138   0.610   6.671 -0.1803 -0.3689  0.0644
37858SOL    HW117936   7.188   0.529   6.676  1.6073  0.5851 -1.3973
37858SOL    HW217937   7.199   0.675   6.636 -1.6835  1.5218  0.7405
37859SOL     OW17938   8.877   9.624   6.580 -0.9107 -0.0535 -0.3777
37859SOL    HW117939   8.896   9.556   6.516 -1.2075 -0.7386  0.2414
37859SOL    HW217940   8.815   9.683   6.536  1.4747  1.4422 -1.9292
37860SOL     OW17941   2.175  10.108  10.965 -0.1502 -0.7504 -0.4997
37860SOL    HW117942   2.122  10.109  10.885  1.0400  0.6092 -1.3212
37860SOL    HW217943   2.173  10.198  10.997 -1.0694 -1.4001  1.3576
37861SOL     OW17944   0.616   5.407   0.389  0.6258  0.1269  0.5687
37861SOL    HW117945   0.643   5.318   0.368 -1.6161 -0.3911 -0.3413
37861SOL    HW217946   0.584   5.443   0.306  0.1870  1.2891  1.2104
37862SOL     OW17947  10.719   1.047   7.181  0.4742  0.7000 -0.6394
37862SOL    HW117948  10.668   1.018   7.257  0.6314  0.5915 -0.5768
37862SOL    HW217949  10.659   1.106   7.135  0.5776  1.2204 -0.1253
37863SOL     OW17950   6.584   3.746   2.668 -0.6425  0.2468  0.1165
37863SOL    HW117951   6.634   3.802   2.610 -0.2034  0.5095  0.7327
37863SOL    HW217952   6.593   3.658   2.632  1.3304  0.0775  0.8924
37864SOL     OW17953   4.255   8.382   7.392 -0.9495  0.2246 -0.5517
37864SOL    HW117954   4.161   8.381   7.374 -1.0768  2.6226 -0.3454
37864SOL    HW217955   4.265   8.448   7.460  0.8145 -0.5206 -0.0589
37865SOL     OW17956   9.220   6.872   2.395  0.2255 -0.6164 -0.6816
37865SOL    HW117957   9.148   6.822   2.357 -0.0377 -0.4275 -0.4338
37865SOL    HW217958   9.274   6.806   2.438  0.4472 -0.8129 -1.2476
37866SOL     OW17959   2.229   7.041  10.364 -0.3857  0.1451  0.1223
37866SOL    HW117960   2.180   7.123  10.375 -2.5015 -0.9686 -0.5444
37866SOL    HW217961   2.277   7.031  10.446 -0.2876  1.9089  0.3201
37867SOL     OW17962   8.496   7.797   3.911 -0.7608 -0.1350  0.0546
37867SOL    HW117963   8.462   7.886   3.925 -1.3329 -0.2538 -0.5091
37867SOL    HW217964   8.505   7.790   3.816 -0.6349 -0.6505  0.1020
37868SOL     OW17965   8.876   5.011   7.033 -0.0361 -0.0542  0.3863
37868SOL    HW117966   8.839   5.026   6.946  1.2205 -1.3598 -0.4155
37868SOL    HW217967   8.926   4.931   7.024  0.3289 -0.0800  2.2760
37869SOL     OW17968   8.405   1.135   0.068 -0.0066  0.1496 -0.1299
37869SOL    HW117969   8.419   1.217   0.020 -0.6962  0.6850  0.5453
37869SOL    HW217970   8.331   1.094   0.023  0.2090 -0.0068 -0.3450
37870SOL     OW17971   0.962   4.806   4.789  0.6179  0.1374 -0.3877
37870SOL    HW117972   0.879   4.837   4.825 -0.1639 -1.2615 -0.9284
37870SOL    HW217973   0.962   4.835   4.698 -0.3431 -1.7855 -1.0388
37871SOL     OW17974   4.522   4.053   5.879  0.1247  0.5957 -0.0085
37871SOL    HW117975   4.442   4.063   5.829 -1.3583 -0.9186  1.8912
37871SOL    HW217976   4.569   4.135   5.867 -2.5888  2.3077  0.2789
37872SOL     OW17977  10.112   6.652   4.476 -0.3606  0.0997 -0.2925
37872SOL    HW117978  10.164   6.631   4.553 -0.5080 -2.0073 -0.7139
37872SOL    HW217979  10.034   6.697   4.511  0.2047  0.3966  0.6276
37873SOL     OW17980   0.682   5.849   3.927 -0.3584 -0.2337  0.3592
37873SOL    HW117981   0.740   5.774   3.923 -0.5014 -0.4139  1.4216
37873SOL    HW217982   0.595   5.814   3.907 -0.3367 -0.2454  0.2861
37874SOL     OW17983   9.082   3.626   9.822  0.1125  0.1821  0.0243
37874SOL    HW117984   9.000   3.674   9.830 -0.0874 -0.0480 -0.5825
37874SOL    HW217985   9.059   3.536   9.847  0.4505  0.3521  1.0083
37875SOL     OW17986   1.947  10.463   3.535 -0.5776 -0.1247  0.0499
37875SOL    HW117987   1.875  10.480   3.474 -0.4371  0.0577 -0.0681
37875SOL    HW217988   2.026  10.482   3.484 -0.4878  2.0480  0.8632
37876SOL     OW17989   5.313   8.867   0.351  0.1608  0.3123  0.1342
37876SOL    HW117990   5.225   8.874   0.314  0.3659 -0.8421 -0.6359
37876SOL    HW217991   5.367   8.921   0.295 -0.2559  2.2141  1.4637
37877SOL     OW17992   5.546   7.527  10.908 -0.1351 -0.2851  0.0719
37877SOL    HW117993   5.572   7.436  10.893  0.5645  0.1552 -1.5899
37877SOL    HW217994   5.625   7.568  10.944 -0.9869 -0.6957  2.6259
37878SOL     OW17995   5.313   2.909   1.088 -0.1159  0.4467  0.0181
37878SOL    HW117996   5.388   2.877   1.139 -0.5317 -0.7628 -0.1127
37878SOL    HW217997   5.349   2.927   1.001 -0.0578 -0.5437 -0.1678
37879SOL     OW17998   3.118   4.305   9.048  0.2912  0.8121 -0.4325
37879SOL    HW117999   3.198   4.254   9.064 -0.2270  0.6040  1.9843
37879SOL    HW218000   3.052   4.239   9.025  0.6780  0.9430 -2.0234
37880SOL     OW18001   8.582  10.142   2.346 -0.9772  0.2908  0.5882
37880SOL    HW118002   8.515  10.077   2.367  0.4821 -1.0357  1.2891
37880SOL    HW218003   8.643  10.139   2.419  0.5513  0.5139 -0.6218
37881SOL     OW18004   1.282   4.717   0.195  0.4253 -0.3052 -0.2189
37881SOL    HW118005   1.363   4.761   0.170 -0.0323  0.9092  0.3464
37881SOL    HW218006   1.215   4.751   0.135 -0.3943  1.5818  1.6426
37882SOL     OW18007   4.768   6.067   7.462  0.0166 -0.0128 -0.3278
37882SOL    HW118008   4.863   6.064   7.468  0.0117 -1.9063 -0.7787
37882SOL    HW218009   4.749   6.158   7.439  1.8173  0.0719 -1.7525
37883SOL     OW18010   3.742   7.170   6.348 -0.0183 -0.6902 -0.1511
37883SOL    HW118011   3.734   7.229   6.423  1.5878  1.1459 -1.3594
37883SOL    HW218012   3.664   7.187   6.295  1.0251  1.3532 -1.1234
37884SOL     OW18013   5.836   3.098   7.932 -0.3984  0.1357 -0.1337
37884SOL    HW118014   5.804   3.167   7.990 -0.2776 -0.9059  1.2229
37884SOL    HW218015   5.768   3.031   7.934  1.5905 -2.0418  2.6560
37885SOL     OW18016   4.781   6.743   1.937  0.4382 -0.0735 -0.1349
37885SOL    HW118017   4.708   6.690   1.971 -0.7139  0.7955 -1.1707
37885SOL    HW218018   4.838   6.679   1.895  0.5981 -0.8446  1.1902
37886SOL     OW18019  10.678   9.872  10.307 -0.0846 -0.0831 -0.0831
37886SOL    HW118020  10.760   9.903  10.346  1.2032 -2.2438 -0.9022
37886SOL    HW218021  10.611   9.928  10.346  1.9517  3.7277 -1.4950
37887SOL     OW18022  10.365   1.087   0.559 -0.2250 -0.2045 -0.6086
37887SOL    HW118023  10.419   1.162   0.585  0.1424 -0.7336  0.2177
37887SOL    HW218024  10.424   1.012   0.565 -0.5051 -0.5322 -1.7291
37888SOL     OW18025   3.933   7.564   0.878  0.6260 -0.5689  0.1425
37888SOL    HW118026   3.944   7.658   0.885 -0.3305 -0.2885 -1.7354
37888SOL    HW218027   4.019   7.531   0.850  0.9458 -0.2738  0.7556
37889SOL     OW18028   6.026  10.236   1.281 -0.1159  0.5124 -0.2833
37889SOL    HW118029   6.112  10.269   1.307 -0.7379  1.3409  0.8096
37889SOL    HW218030   5.977  10.231   1.363 -1.5014  1.1893 -1.0425
37890SOL     OW18031   4.705   8.473   5.159  0.5292  0.9178 -0.0421
37890SOL    HW118032   4.620   8.459   5.200  0.8622  3.0437  1.5108
37890SOL    HW218033   4.737   8.384   5.139 -1.5231  0.0330  0.3416
37891SOL     OW18034   5.358   4.486   1.049  0.0501 -0.3293 -0.5711
37891SOL    HW118035   5.324   4.403   1.082  1.9886 -1.3299 -0.9354
37891SOL    HW218036   5.372   4.470   0.955  1.8762 -0.1288 -0.3622
37892SOL     OW18037   4.210   3.044   6.663  0.0758  0.1483 -0.0293
37892SOL    HW118038   4.140   2.983   6.638  0.2577  0.2797 -0.8916
37892SOL    HW218039   4.280   3.027   6.599 -0.0910  1.6341 -0.6451
37893SOL     OW18040   8.868   2.749   1.788 -0.0134  0.1793  0.1262
37893SOL    HW118041   8.943   2.793   1.750  0.4413  1.0552  1.9138
37893SOL    HW218042   8.795   2.809   1.774  0.4059  1.1076  1.6654
37894SOL     OW18043   6.202   2.672  11.100 -0.0990  0.5623 -0.0507
37894SOL    HW118044   6.250   2.601  11.142  0.5041  1.6937  1.2707
37894SOL    HW218045   6.110   2.646  11.107  0.1455 -0.3562 -0.1303
37895SOL     OW18046   1.379   1.620   8.660  0.3529  0.3706  0.5937
37895SOL    HW118047   1.456   1.568   8.639 -0.0750  0.2243 -0.7439
37895SOL    HW218048   1.308   1.556   8.667  0.6067  0.2937  3.5978
37896SOL     OW18049  10.436   1.873   9.948 -0.2601  0.2131 -0.1850
37896SOL    HW118050  10.450   1.795   9.894  0.8731  0.9788 -1.0615
37896SOL    HW218051  10.345   1.897   9.933  0.0308  0.4386 -1.8859
37897SOL     OW18052   5.427   7.919   1.604 -0.0511  0.5122 -0.3292
37897SOL    HW118053   5.404   8.011   1.598 -2.2957  0.3308  3.2481
37897SOL    HW218054   5.469   7.909   1.689  1.1384 -1.6451 -1.0704
37898SOL     OW18055   9.237   2.799   6.708 -0.0440 -0.0789  0.2829
37898SOL    HW118056   9.163   2.743   6.682 -0.6463 -0.3755  2.4948
37898SOL    HW218057   9.196   2.881   6.736  0.5181 -0.0005  0.8759
37899SOL     OW18058   2.413  10.355   2.655 -0.0850 -0.2180  0.0403
37899SOL    HW118059   2.422  10.415   2.729 -0.7720  0.9518 -0.7992
37899SOL    HW218060   2.471  10.390   2.588  0.6757 -1.3815  0.0567
37900SOL     OW18061   3.275   8.830   6.916 -0.3058 -0.1147 -0.0333
37900SOL    HW118062   3.353   8.782   6.946 -1.1518 -0.9836  0.8377
37900SOL    HW218063   3.309   8.915   6.888  0.8309 -0.0704  1.3614
37901SOL     OW18064   3.012   6.303   2.893 -0.7234 -0.7527  0.1065
37901SOL    HW118065   3.047   6.279   2.979 -0.1759  0.0399  0.1230
37901SOL    HW218066   2.919   6.319   2.908 -0.8436 -1.6180  0.3339
37902SOL     OW18067   0.748   3.943   7.217  0.1689 -0.4977  0.1794
37902SOL    HW118068   0.658   3.955   7.246  0.1205 -0.4198  0.0016
37902SOL    HW218069   0.771   4.025   7.174  0.2120 -0.6350 -0.0631
37903SOL     OW18070   2.697  10.409   0.963 -0.7364 -0.0693 -0.1727
37903SOL    HW118071   2.725  10.405   1.054  0.0183  0.2573 -0.3840
37903SOL    HW218072   2.762  10.358   0.915 -2.9816 -3.2814 -0.1604
37904SOL     OW18073   3.309   6.358   0.083 -0.0001 -0.0069  0.0855
37904SOL    HW118074   3.287   6.373  -0.009 -0.2828  1.3697  0.3537
37904SOL    HW218075   3.226   6.370   0.129  0.2993  0.1088  0.5984
37905SOL     OW18076   2.512   3.876   4.400  0.2002 -0.4344 -0.2191
37905SOL    HW118077   2.531   3.795   4.446  1.1036 -0.7489 -1.1028
37905SOL    HW218078   2.537   3.945   4.461  0.1192 -0.8202  0.2552
37906SOL     OW18079   5.327   8.468  10.397 -0.1032  0.3932  0.8048
37906SOL    HW118080   5.292   8.555  10.379 -1.5796 -0.3407 -0.1145
37906SOL    HW218081   5.284   8.441  10.478 -0.2350  0.2220  0.6784
37907SOL     OW18082   9.753   9.698  10.090  0.5688 -0.6927 -0.7851
37907SOL    HW118083   9.688   9.743  10.145  1.4873 -1.2417  0.7990
37907SOL    HW218084   9.783   9.765  10.029  1.2244  0.6308  0.9096
37908SOL     OW18085   0.915   6.612   7.416 -0.3044 -0.0436  0.1942
37908SOL    HW118086   0.845   6.675   7.430 -0.5009 -0.2318  0.0543
37908SOL    HW218087   0.994   6.666   7.410 -0.8175  0.5367 -3.2241
37909SOL     OW18088  10.177  10.463   0.666  0.2814  0.1428 -0.0119
37909SOL    HW118089  10.204  10.380   0.705  1.4685 -0.1929 -1.4359
37909SOL    HW218090  10.257  10.499   0.629 -0.4281  1.3880 -0.4006
37910SOL     OW18091  10.076   0.831   7.358 -0.1770 -0.0288 -0.4267
37910SOL    HW118092  10.155   0.842   7.304  1.3224 -2.4092  1.0633
37910SOL    HW218093  10.023   0.768   7.309  1.0205 -1.9147  0.5633
37911SOL     OW18094   4.532   0.872   4.366 -0.3143 -0.4258  0.6814
37911SOL    HW118095   4.465   0.807   4.344 -0.9559 -0.4108  2.4918
37911SOL    HW218096   4.501   0.913   4.446 -0.4120  2.8160 -0.8370
37912SOL     OW18097   5.169   0.171   8.247 -0.3054 -0.1590 -0.2988
37912SOL    HW118098   5.215   0.187   8.165  0.5186 -2.4341 -0.3740
37912SOL    HW218099   5.197   0.241   8.305  1.2151 -0.0108 -1.1574
37913SOL     OW18100   6.732  10.126   7.202  0.0086 -0.0595  0.0436
37913SOL    HW118101   6.715  10.068   7.276  0.7925 -1.0313 -0.5175
37913SOL    HW218102   6.646  10.143   7.165 -0.4469  0.7757  1.3964
37914SOL     OW18103   7.874   3.190   5.164 -0.0064 -0.6699 -0.4304
37914SOL    HW118104   7.943   3.236   5.211 -0.4842 -2.2738  2.0237
37914SOL    HW218105   7.819   3.153   5.233 -2.4126 -0.7978 -2.3037
37915SOL     OW18106   6.967   5.268   3.265  0.5060  0.0287  0.8556
37915SOL    HW118107   7.022   5.346   3.261 -0.1203  0.4995  1.2709
37915SOL    HW218108   6.892   5.289   3.209 -0.3807  0.3112  2.1217
37916SOL     OW18109   9.751   3.553  10.357  0.3931  0.3974 -0.2409
37916SOL    HW118110   9.818   3.533  10.291 -0.3716 -0.2017 -0.8486
37916SOL    HW218111   9.746   3.649  10.357  0.7829  0.4218 -0.6665
37917SOL     OW18112   9.124   7.718   7.811  0.5017 -0.0934 -0.4857
37917SOL    HW118113   9.063   7.645   7.819  1.1069 -0.5021  0.5204
37917SOL    HW218114   9.167   7.723   7.896  2.3464 -0.2263 -1.3731
37918SOL     OW18115   6.894   2.603   0.945 -0.3136  0.0821 -0.1722
37918SOL    HW118116   6.960   2.671   0.952  0.4545 -0.5443 -1.1141
37918SOL    HW218117   6.928   2.531   0.998  1.0336 -1.1892 -2.6080
37919SOL     OW18118   2.486   5.910   1.216 -0.2620  0.2189  0.6628
37919SOL    HW118119   2.460   5.849   1.285 -0.8446 -0.3591 -0.0510
37919SOL    HW218120   2.478   5.860   1.135  2.4319  0.2165  0.3038
37920SOL     OW18121   4.325   8.336  11.118 -0.3439 -0.0822  0.3449
37920SOL    HW118122   4.396   8.310  11.175  0.6016  0.0430 -0.7321
37920SOL    HW218123   4.248   8.341  11.175  0.9518  2.1589  2.0630
37921SOL     OW18124   6.591   9.090   1.024  0.2321 -0.2018  0.4528
37921SOL    HW118125   6.606   9.047   1.108  1.6327  0.7644  0.7176
37921SOL    HW218126   6.621   9.026   0.959  0.8533 -0.2490  0.7756
37922SOL     OW18127   7.718   4.975   2.697  0.0473  0.4286  0.2402
37922SOL    HW118128   7.690   4.969   2.789  1.4717  2.3358  0.8657
37922SOL    HW218129   7.802   5.020   2.701 -0.4845  1.7637 -2.1003
37923SOL     OW18130   9.143   8.364   3.031  0.4191  0.1743  0.3203
37923SOL    HW118131   9.138   8.292   3.094  1.5532  1.1740  1.6399
37923SOL    HW218132   9.229   8.353   2.990  0.0819  0.0835 -0.3683
37924SOL     OW18133   5.019  11.082   8.404 -0.4760  0.2096  0.5320
37924SOL    HW118134   5.038  10.988   8.392 -0.8613  0.2243 -0.2595
37924SOL    HW218135   5.083  11.125   8.347 -1.6706  0.3327 -0.7592
37925SOL     OW18136  10.188   2.439  10.287 -0.0093  0.1353  0.2769
37925SOL    HW118137  10.191   2.534  10.275 -1.5280  0.3111  1.0144
37925SOL    HW218138  10.124   2.426  10.357  0.7496 -1.3991  0.7385
37926SOL     OW18139   7.342   2.722   2.932  0.0296  0.0661  1.0199
37926SOL    HW118140   7.347   2.628   2.948  2.5677  0.1492  1.1058
37926SOL    HW218141   7.338   2.761   3.019 -1.1391  0.0534  0.9815
37927SOL     OW18142   4.178   9.930   0.423  0.2890 -0.0271  0.1828
37927SOL    HW118143   4.273   9.923   0.409  0.3500  1.5181 -0.3180
37927SOL    HW218144   4.142   9.943   0.335 -0.4321 -0.8742  0.3418
37928SOL     OW18145  10.457   1.862   4.171 -0.3152 -0.1618 -0.4370
37928SOL    HW118146  10.473   1.953   4.195 -2.8656  0.8369 -2.0877
37928SOL    HW218147  10.493   1.811   4.243  1.8126  2.0758  0.2179
37929SOL     OW18148   2.654   0.630   5.539 -0.2054  0.0591 -0.1855
37929SOL    HW118149   2.599   0.595   5.470 -1.0122  1.1560 -0.1155
37929SOL    HW218150   2.732   0.663   5.494 -0.5416  0.3908 -0.5304
37930SOL     OW18151   3.315   4.476   6.363  0.4668  0.4615  0.2023
37930SOL    HW118152   3.227   4.444   6.383  1.2750 -1.2065  1.3847
37930SOL    HW218153   3.371   4.433   6.428  2.1486  1.5904 -0.4264
37931SOL     OW18154  10.321   3.732  10.885  0.4238  0.0143 -0.2540
37931SOL    HW118155  10.353   3.809  10.837  0.6022  1.1668  1.6042
37931SOL    HW218156  10.400   3.689  10.916  0.2973  0.4815  0.7614
37932SOL     OW18157   7.319   3.688   9.987  1.1448  0.3297 -0.0658
37932SOL    HW118158   7.380   3.635   9.936  1.7270 -0.2393  1.1810
37932SOL    HW218159   7.374   3.755  10.029  0.5792  1.2182 -0.7026
37933SOL     OW18160  10.274   2.364   5.894 -0.5841 -0.3193  0.5683
37933SOL    HW118161  10.262   2.329   5.805 -0.8888 -2.6124  1.4479
37933SOL    HW218162  10.198   2.420   5.908 -1.9001 -1.9229  0.2322
37934SOL     OW18163   3.600   4.303   4.254 -0.1799  0.3099  0.5608
37934SOL    HW118164   3.651   4.368   4.303  1.0917 -0.8538  0.8661
37934SOL    HW218165   3.651   4.222   4.264 -1.6418 -0.6935  0.0772
37935SOL     OW18166   7.650   8.576   3.566  0.1950  0.0227 -0.1441
37935SOL    HW118167   7.569   8.525   3.564  0.4444 -0.3566 -1.6862
37935SOL    HW218168   7.649   8.627   3.486  0.3347  1.9004  0.9916
37936SOL     OW18169   9.840   2.085   6.807 -0.1634  0.3057  0.0963
37936SOL    HW118170   9.871   2.026   6.738  0.8334  1.5342 -0.5458
37936SOL    HW218171   9.892   2.062   6.884  1.1509  1.1823 -0.5010
37937SOL     OW18172   1.068   5.014   5.584 -0.7633 -0.1753  0.4806
37937SOL    HW118173   1.046   4.999   5.676 -0.6269 -0.6028  0.4439
37937SOL    HW218174   0.989   5.054   5.547 -2.4608 -3.7572 -0.2113
37938SOL     OW18175   6.873   7.588   5.633  0.0503  0.0900  0.5588
37938SOL    HW118176   6.863   7.597   5.538 -1.2742 -1.5163  0.4937
37938SOL    HW218177   6.913   7.670   5.661  1.5558  0.1426 -1.5283
37939SOL     OW18178   5.758   7.050   6.700  0.0673 -0.3708 -0.4506
37939SOL    HW118179   5.827   7.094   6.650  1.8898 -3.1612 -0.5882
37939SOL    HW218180   5.768   7.083   6.789  0.1361  0.8055 -0.8649
37940SOL     OW18181   7.535   7.559   7.753 -0.0106 -0.2355 -0.1312
37940SOL    HW118182   7.607   7.593   7.700 -0.7730 -1.8310 -2.2975
37940SOL    HW218183   7.498   7.488   7.701 -1.9723 -0.6927  1.7684
37941SOL     OW18184   6.733   5.518   1.426 -0.3887  0.4883 -0.2002
37941SOL    HW118185   6.644   5.555   1.424 -0.3512  0.5582 -1.4016
37941SOL    HW218186   6.785   5.582   1.377  0.1903  0.1257 -0.0528
37942SOL     OW18187  10.189   8.487   1.586  0.1547  0.1421  0.2276
37942SOL    HW118188  10.198   8.408   1.533 -3.6110 -1.3804  1.4806
37942SOL    HW218189  10.201   8.457   1.676  1.1513  1.5548  0.6002
37943SOL     OW18190   7.097   3.265   1.191  0.2312  0.3211 -0.0245
37943SOL    HW118191   7.077   3.232   1.279 -0.2615 -1.3080 -0.7129
37943SOL    HW218192   7.186   3.235   1.173  0.0430 -0.0341 -0.3819
37944SOL     OW18193   7.498   7.914   5.202  0.6200  0.4387  0.2375
37944SOL    HW118194   7.574   7.924   5.259  0.2999  0.2672  0.7009
37944SOL    HW218195   7.483   7.819   5.199  0.4635  0.4687  0.1005
37945SOL     OW18196   5.256   8.957   7.643 -0.2208 -0.0301 -0.1404
37945SOL    HW118197   5.196   8.922   7.577  0.5678 -1.3646 -0.1972
37945SOL    HW218198   5.339   8.910   7.627  0.2285  0.2357  1.2497
37946SOL     OW18199   3.028   7.240   6.628  0.0234 -0.1532  0.6052
37946SOL    HW118200   3.086   7.172   6.662 -1.5168 -1.5747  0.5446
37946SOL    HW218201   3.057   7.254   6.538  0.6122 -0.4248  0.7465
37947SOL     OW18202  10.523   9.605   7.789 -0.5055 -0.2112  0.3713
37947SOL    HW118203  10.503   9.613   7.696  1.0121  0.1650  0.0367
37947SOL    HW218204  10.526   9.696   7.821 -0.5464 -0.3162  0.6784
37948SOL     OW18205  10.284  10.636   1.489  0.2254 -0.1709  0.2241
37948SOL    HW118206  10.283  10.723   1.528 -2.1911 -0.0935  0.1460
37948SOL    HW218207  10.195  10.604   1.500  0.3730 -1.5807 -2.0974
37949SOL     OW18208  10.523   3.546   8.307 -0.2168  0.3485 -0.2691
37949SOL    HW118209  10.429   3.529   8.315 -0.1484 -0.2463 -0.5730
37949SOL    HW218210  10.535   3.566   8.214 -0.0432  0.4056 -0.2335
37950SOL     OW18211  10.650   3.785  10.702 -0.5452  0.3297 -0.1090
37950SOL    HW118212  10.577   3.804  10.760 -1.4129 -0.0514 -1.0480
37950SOL    HW218213  10.610   3.774  10.616  0.6644  0.4830 -0.7098
37951SOL     OW18214   5.932   3.935   2.600 -0.0372  0.2591  0.3204
37951SOL    HW118215   5.966   3.973   2.519  1.6356  0.0618  0.8904
37951SOL    HW218216   6.010   3.903   2.646 -0.7994  1.4865  2.6063
37952SOL     OW18217   5.688   9.618   3.627  0.3353 -0.2538  0.1052
37952SOL    HW118218   5.780   9.634   3.602  0.2567  0.8334  0.4773
37952SOL    HW218219   5.674   9.674   3.703 -0.9824  0.5015 -0.6652
37953SOL     OW18220   0.389   1.809   8.774  0.2022 -0.2601  0.2313
37953SOL    HW118221   0.417   1.739   8.715 -0.2604 -0.3916  0.1624
37953SOL    HW218222   0.468   1.861   8.789  0.3869 -0.3764 -0.2975
37954SOL     OW18223   0.525   5.943   1.875  0.4835  0.1011  0.2259
37954SOL    HW118224   0.469   6.021   1.873  0.3137  0.0609  1.6734
37954SOL    HW218225   0.478   5.877   1.825 -0.3477  0.3496  0.6589
37955SOL     OW18226   0.186   3.661   7.971  0.3391 -0.6010 -0.3845
37955SOL    HW118227   0.098   3.628   7.988 -0.1273  0.5308 -0.5352
37955SOL    HW218228   0.181   3.699   7.883  1.0684 -0.7888 -0.5228
37956SOL     OW18229   8.517   0.317   7.743 -0.6610  0.5464 -0.3709
37956SOL    HW118230   8.598   0.364   7.725 -1.3070  1.4404 -0.9805
37956SOL    HW218231   8.500   0.333   7.836 -0.2771  0.5648 -0.3041
37957SOL     OW18232   3.676   8.044   9.307  0.4189  0.1747  0.2608
37957SOL    HW118233   3.620   8.115   9.275 -0.0094  0.1102  0.8449
37957SOL    HW218234   3.711   8.077   9.390  0.0734 -0.3638  0.6284
37958SOL     OW18235   2.462   3.385   0.644 -0.5573 -0.0355 -0.2834
37958SOL    HW118236   2.456   3.479   0.659  0.7718  0.1291 -0.6557
37958SOL    HW218237   2.514   3.376   0.564 -0.5846 -1.0898 -0.2022
37959SOL     OW18238  10.955   8.833   5.861  0.2311  0.1326 -0.4370
37959SOL    HW118239  10.881   8.777   5.884 -0.3683  0.8587 -0.5689
37959SOL    HW218240  10.942   8.912   5.913  1.5267 -0.1647  0.3853
37960SOL     OW18241   1.319   0.749   3.952 -0.1778 -0.0816  0.7351
37960SOL    HW118242   1.383   0.818   3.971  1.0031 -0.0204 -2.6572
37960SOL    HW218243   1.370   0.668   3.959  0.1269 -0.0962 -1.0311
37961SOL     OW18244  10.139   6.644  10.867  0.4099  0.4296  0.1050
37961SOL    HW118245  10.205   6.696  10.820 -1.1252  0.3638 -2.3036
37961SOL    HW218246  10.123   6.569  10.810 -2.1194  0.7369  0.2944
37962SOL     OW18247   5.567   1.121   6.058 -0.2568 -0.5148 -0.6681
37962SOL    HW118248   5.624   1.159   5.990  0.2134  0.7700  0.3904
37962SOL    HW218249   5.561   1.190   6.124 -3.1576 -0.5473 -0.7749
37963SOL     OW18250   7.856   4.035   1.900 -0.3276 -0.6610 -0.1571
37963SOL    HW118251   7.778   4.041   1.956  1.2899 -0.5665  2.2490
37963SOL    HW218252   7.892   3.948   1.919  2.0669  0.5897  1.6775
37964SOL     OW18253   6.680   5.187   1.768  0.6718 -0.2043 -0.7887
37964SOL    HW118254   6.614   5.255   1.755  0.3753 -0.3047  0.1339
37964SOL    HW218255   6.760   5.223   1.730  1.0795  1.6072  1.5565
37965SOL     OW18256   0.543  10.403   5.301 -0.1997  0.2176 -0.6326
37965SOL    HW118257   0.463  10.367   5.264 -0.2755  1.4140 -1.6972
37965SOL    HW218258   0.596  10.427   5.225  1.5288 -1.2556  0.0358
37966SOL     OW18259   1.463   8.867   8.929  0.4459 -0.3334 -0.6124
37966SOL    HW118260   1.552   8.878   8.897 -0.1767  1.4879 -1.8626
37966SOL    HW218261   1.440   8.952   8.967 -0.8251 -0.6869 -0.5412
37967SOL     OW18262   8.770   0.198   5.045 -0.0349  0.6528 -0.5368
37967SOL    HW118263   8.752   0.289   5.021  1.3745  0.8628 -0.8621
37967SOL    HW218264   8.683   0.160   5.062 -0.5809  2.4523  1.0948
37968SOL     OW18265   9.110   8.995   8.610  0.4071  0.4639 -0.4252
37968SOL    HW118266   9.156   8.976   8.692  0.2527  1.0342 -0.2004
37968SOL    HW218267   9.174   9.042   8.557 -0.6604  3.6982  0.9222
37969SOL     OW18268   7.728   7.788   2.826 -0.3106  0.4920  0.2160
37969SOL    HW118269   7.789   7.722   2.793 -0.0884  0.7383  0.1371
37969SOL    HW218270   7.703   7.839   2.749 -0.2742  0.6708  0.3228
37970SOL     OW18271   0.634   8.238   1.104 -0.1836 -0.0231 -0.2448
37970SOL    HW118272   0.557   8.183   1.114 -0.0576 -0.1548  0.0226
37970SOL    HW218273   0.624   8.307   1.170 -0.5009  0.4655 -0.7984
37971SOL     OW18274   3.128   0.119  10.840 -0.2161 -0.2530  0.1074
37971SOL    HW118275   3.136   0.053  10.771  0.7805 -0.6886  0.6259
37971SOL    HW218276   3.184   0.191  10.811 -1.0802  0.2750 -0.3178
37972SOL     OW18277   3.040   7.177   4.715 -0.4424  0.1129 -0.4166
37972SOL    HW118278   3.048   7.103   4.775 -1.0321  0.5688  0.2296
37972SOL    HW218279   3.093   7.246   4.755 -2.5114  1.1182  0.6935
37973SOL     OW18280   1.142   7.156  10.603  0.2358 -0.1143 -0.2566
37973SOL    HW118281   1.071   7.098  10.576  2.2495 -2.5189 -0.7397
37973SOL    HW218282   1.181   7.186  10.521  0.0597  0.8641  0.0043
37974SOL     OW18283   2.738   7.550   4.357  0.0474  0.0875 -0.0687
37974SOL    HW118284   2.798   7.604   4.409 -0.1651  0.8061 -0.5443
37974SOL    HW218285   2.772   7.461   4.366  0.5385  0.3300  0.5588
37975SOL     OW18286   4.161   9.105   5.621 -0.1179  0.2748  0.4480
37975SOL    HW118287   4.184   9.019   5.655 -1.3651  0.2494  1.2710
37975SOL    HW218288   4.220   9.165   5.667  0.1672 -0.0393  0.4995
37976SOL     OW18289   2.974   2.652   9.194 -0.7469  0.7928 -0.1378
37976SOL    HW118290   3.030   2.669   9.270  0.3326 -0.2053 -0.6811
37976SOL    HW218291   3.019   2.583   9.146 -0.5940  2.4093 -2.5110
37977SOL     OW18292   7.469   1.613   7.053 -0.5526  0.0038  0.2452
37977SOL    HW118293   7.521   1.533   7.047  0.2294  0.6289 -2.2311
37977SOL    HW218294   7.532   1.682   7.072 -0.8556  0.4090 -0.2044
37978SOL     OW18295   0.480   7.276   4.955 -0.5952 -0.1700 -0.0255
37978SOL    HW118296   0.470   7.198   4.900 -1.5618 -0.0797  0.0058
37978SOL    HW218297   0.549   7.253   5.017 -0.0370 -0.5596 -0.7721
37979SOL     OW18298   0.101   3.135   0.363 -0.0333  0.5606  0.1194
37979SOL    HW118299   0.086   3.224   0.393  0.6306 -0.0026  2.2543
37979SOL    HW218300   0.143   3.090   0.437  0.8664 -1.1747 -1.3396
37980SOL     OW18301   0.386   2.623   7.400  0.3076 -0.7899 -0.5196
37980SOL    HW118302   0.299   2.587   7.385 -0.4658  0.2501  1.1620
37980SOL    HW218303   0.370   2.705   7.447  2.1140  0.4333 -1.9072
37981SOL     OW18304  10.779   2.076   5.571 -0.7007 -0.3227 -0.2864
37981SOL    HW118305  10.814   2.163   5.589  1.8769 -1.2481 -0.2850
37981SOL    HW218306  10.764   2.038   5.658  0.6217 -0.7171 -0.1989
37982SOL     OW18307   3.961   8.129   8.005  0.4866 -0.4405 -0.5466
37982SOL    HW118308   3.924   8.041   8.010  1.4485 -0.7839  1.1746
37982SOL    HW218309   3.951   8.164   8.093  4.3411 -0.6080  0.0889
37983SOL     OW18310   1.389   5.835   1.985 -0.3063  0.3747 -0.2344
37983SOL    HW118311   1.388   5.743   2.011 -4.3442 -0.0610 -1.3288
37983SOL    HW218312   1.368   5.883   2.066  0.1623  0.2160 -0.0151
37984SOL     OW18313   0.410   3.087   9.881  0.1044 -0.2313 -0.2072
37984SOL    HW118314   0.476   3.028   9.919 -1.0259 -1.9990 -0.8294
37984SOL    HW218315   0.342   3.093   9.947  1.3727  2.6914  1.0118
37985SOL     OW18316   9.590   2.934   8.861 -0.1095  0.3388 -0.3553
37985SOL    HW118317   9.535   3.013   8.856  0.5976  0.8526 -0.2619
37985SOL    HW218318   9.651   2.953   8.932 -0.5039 -0.6766  0.2730
37986SOL     OW18319   0.980   3.104   1.432 -0.1455 -0.1864  0.1396
37986SOL    HW118320   1.000   3.092   1.525  0.4078  2.4675  0.4516
37986SOL    HW218321   1.001   3.020   1.392 -1.9031 -1.9515  2.5944
37987SOL     OW18322   1.025   9.910   8.828 -0.2794 -0.2891 -0.1609
37987SOL    HW118323   1.056  10.000   8.822  0.1177 -0.2314  1.9275
37987SOL    HW218324   0.930   9.918   8.836 -0.2008  0.0156  0.6111
37988SOL     OW18325  10.792   1.471   3.558 -0.0101 -0.1829 -0.0099
37988SOL    HW118326  10.802   1.557   3.517 -1.0557 -0.0492 -0.0264
37988SOL    HW218327  10.824   1.410   3.492 -0.1798  0.1335 -0.3933
37989SOL     OW18328   7.796   2.394   9.787  0.0431 -0.2239 -0.1976
37989SOL    HW118329   7.866   2.424   9.845 -0.4588  0.6800 -0.0321
37989SOL    HW218330   7.841   2.353   9.713  0.7053 -0.8293  0.5227
37990SOL     OW18331  10.298   0.298  10.808 -0.0411  0.0951  0.4185
37990SOL    HW118332  10.344   0.367  10.760 -1.6851  1.4896  0.7444
37990SOL    HW218333  10.343   0.292  10.892  0.3047  0.5774  0.2723
37991SOL     OW18334   2.486   4.556   3.198  0.3195  0.4123 -0.1258
37991SOL    HW118335   2.535   4.475   3.182  0.4216  0.1175  1.4945
37991SOL    HW218336   2.538   4.624   3.156  1.3249 -0.1024  0.2463
37992SOL     OW18337   0.682   1.790   9.682  0.0247  0.5590  0.2006
37992SOL    HW118338   0.610   1.742   9.642  0.1407  0.8494 -0.3671
37992SOL    HW218339   0.649   1.816   9.768 -0.5460  0.7005 -0.0600
37993SOL     OW18340   1.805   5.057   4.317  0.6428 -0.1216  0.0926
37993SOL    HW118341   1.863   4.993   4.276 -1.2501 -1.6489 -0.3865
37993SOL    HW218342   1.779   5.016   4.399 -0.2895  0.1705 -0.0382
37994SOL     OW18343   3.977   4.354   4.637  0.3908  0.0131  0.1539
37994SOL    HW118344   3.924   4.282   4.670  0.2896  0.0967  0.1727
37994SOL    HW218345   3.991   4.333   4.544  0.3765 -0.0388  0.1635
37995SOL     OW18346   2.683   6.487   4.215  0.1626  0.6606 -0.1976
37995SOL    HW118347   2.678   6.477   4.120  0.1513  3.1026 -0.5240
37995SOL    HW218348   2.776   6.500   4.233  0.1976 -0.0709  0.1640
37996SOL     OW18349   1.382   0.465   5.288  0.4473  0.2289  0.1088
37996SOL    HW118350   1.443   0.471   5.362  1.2262 -1.1817 -0.3954
37996SOL    HW218351   1.330   0.387   5.306 -0.1954  0.5634 -0.2469
37997SOL     OW18352   2.573   1.639   4.465 -0.0396 -0.3556 -0.4029
37997SOL    HW118353   2.511   1.621   4.395 -0.6764 -1.4748  0.4147
37997SOL    HW218354   2.656   1.602   4.434 -0.7999 -2.7629  0.2610
37998SOL     OW18355   4.913   3.626   0.557 -0.2426  0.2801  0.1272
37998SOL    HW118356   4.975   3.579   0.502 -0.5536  0.3033 -0.2519
37998SOL    HW218357   4.962   3.648   0.636  0.2471  0.3549 -0.1942
37999SOL     OW18358   1.286   9.059   9.899  0.2681  0.3820 -0.4905
37999SOL    HW118359   1.253   8.970   9.909 -1.6837  0.6045 -3.7213
37999SOL    HW218360   1.326   9.061   9.812  1.3062  2.3673 -0.0346
38000SOL     OW18361   8.913   4.475   7.704  0.3765  0.1450 -0.1463
38000SOL    HW118362   8.982   4.450   7.643  2.7906 -0.9290  2.7661
38000SOL    HW218363   8.930   4.567   7.723  1.3593 -0.2301  0.8938
38001SOL     OW18364   0.932   7.014  10.508  0.1057 -0.0487  0.4049
38001SOL    HW118365   0.947   7.026  10.414  0.3791  0.0623  0.4603
38001SOL    HW218366   0.837   7.018  10.518 -0.0862 -1.9549 -0.1278
38002SOL     OW18367   3.525   4.437   6.094  0.3646  0.2750  0.9888
38002SOL    HW118368   3.445   4.451   6.145 -1.1726  0.3203 -1.2888
38002SOL    HW218369   3.559   4.525   6.078  0.5036  0.2951  1.3855
38003SOL     OW18370  10.030   4.872  10.846 -0.1460 -0.8772 -0.7989
38003SOL    HW118371   9.946   4.881  10.801 -0.6635  0.1523  0.3152
38003SOL    HW218372  10.038   4.951  10.899  0.5962 -1.8558  0.6230
38004SOL     OW18373   8.093   7.663   1.244  0.2811  0.3910 -0.1844
38004SOL    HW118374   8.075   7.570   1.235  3.2879 -0.3464  0.3008
38004SOL    HW218375   8.041   7.705   1.175 -3.4041 -1.2092  1.3814
38005SOL     OW18376   8.667   3.965   3.193 -0.1325  0.6288 -0.3069
38005SOL    HW118377   8.715   3.886   3.220  0.8441  1.0825 -0.6535
38005SOL    HW218378   8.575   3.943   3.208  0.0460 -0.8896 -1.1791
38006SOL     OW18379   9.599   7.237  10.852 -0.1581 -0.8057  0.6144
38006SOL    HW118380   9.537   7.302  10.884  0.1522 -0.6758  0.9612
38006SOL    HW218381   9.601   7.249  10.757 -0.5878 -0.7474  0.6124
38007SOL     OW18382   2.396   6.824   2.218  0.3940  0.3625 -0.0403
38007SOL    HW118383   2.388   6.814   2.124  0.4871  1.1276 -0.1365
38007SOL    HW218384   2.328   6.887   2.242 -1.6566 -2.0362  0.8551
38008SOL     OW18385  11.102  10.410   5.821 -0.2467  0.2339  0.5506
38008SOL    HW118386  11.138  10.374   5.902  0.4961  0.1721  0.2017
38008SOL    HW218387  11.147  10.494   5.810 -0.9343  0.6199  0.6190
38009SOL     OW18388   6.617   8.373   9.229 -0.0843 -0.4295  0.1357
38009SOL    HW118389   6.672   8.402   9.156 -1.2535 -2.2215 -1.5698
38009SOL    HW218390   6.527   8.389   9.198 -0.6419 -2.3333  0.6299
38010SOL     OW18391   8.817  10.518   1.863  0.2556 -0.0942  0.3311
38010SOL    HW118392   8.834  10.509   1.957 -2.6317  1.5357  1.1420
38010SOL    HW218393   8.751  10.587   1.858 -1.8528 -2.0938 -2.6401
38011SOL     OW18394   0.676   4.989   7.582 -0.3103  0.2910  0.0372
38011SOL    HW118395   0.642   4.934   7.511  0.2002 -1.0028  0.7667
38011SOL    HW218396   0.732   4.931   7.633  0.5264  1.5849  0.6559
38012SOL     OW18397   7.959   2.837  10.135  0.0509 -0.2578  0.1761
38012SOL    HW118398   7.929   2.912  10.186  2.4052  0.4147  0.7021
38012SOL    HW218399   7.904   2.764  10.164 -1.0967  0.8921  0.9586
38013SOL     OW18400   4.992   4.360   1.263  0.5409  0.7228 -0.4231
38013SOL    HW118401   4.942   4.429   1.306 -0.6377 -0.7550  0.6701
38013SOL    HW218402   4.927   4.295   1.236  1.7930 -1.1330  0.7644
38014SOL     OW18403   8.770  10.726   9.705 -0.0459  0.0178 -0.0136
38014SOL    HW118404   8.705  10.659   9.685  1.3928 -1.7447  0.9649
38014SOL    HW218405   8.774  10.780   9.626  0.6956 -2.7050 -1.9609
38015SOL     OW18406   2.327   7.332   4.661  0.1744  0.0919  0.7151
38015SOL    HW118407   2.284   7.401   4.611 -0.4907 -0.6354  0.2603
38015SOL    HW218408   2.370   7.277   4.595  0.9637  0.2385  1.0945
38016SOL     OW18409   3.697   3.567   4.278  0.3264 -0.2066  0.2151
38016SOL    HW118410   3.615   3.594   4.236  0.2386  1.2570  1.2557
38016SOL    HW218411   3.698   3.472   4.269 -1.5318 -0.2634  0.2528
38017SOL     OW18412   7.774   9.420   4.698 -0.2041 -0.6509 -0.1210
38017SOL    HW118413   7.765   9.515   4.685 -1.7526 -0.7795 -0.2111
38017SOL    HW218414   7.722   9.382   4.627 -1.3463 -1.5149  1.1259
38018SOL     OW18415   9.217   3.814   1.873 -0.4698 -0.0706 -0.5018
38018SOL    HW118416   9.144   3.862   1.835 -1.4660 -2.0086 -1.1820
38018SOL    HW218417   9.238   3.861   1.953 -2.3504  0.6421 -0.3785
38019SOL     OW18418   4.081   9.037   6.832 -0.7650  0.4864  0.0951
38019SOL    HW118419   4.172   9.016   6.852 -0.8987  0.3047  0.5289
38019SOL    HW218420   4.086   9.111   6.772 -0.3147  0.0518 -0.4221
38020SOL     OW18421   9.285   5.952   9.480  0.4275 -0.4493  0.6072
38020SOL    HW118422   9.239   6.003   9.413  1.8836  1.0284  0.6769
38020SOL    HW218423   9.330   5.883   9.430 -0.3166 -0.7622  0.3453
38021SOL     OW18424   5.186   3.352   5.161  0.0726  0.2923 -0.0568
38021SOL    HW118425   5.183   3.402   5.079 -0.1112 -0.6936 -0.6717
38021SOL    HW218426   5.272   3.373   5.198  0.0118  1.0359 -0.3049
38022SOL     OW18427   6.708   2.692   5.764  0.3266  0.6124  0.4711
38022SOL    HW118428   6.674   2.655   5.683  3.0536 -0.5897 -0.2602
38022SOL    HW218429   6.631   2.723   5.812 -1.7397 -2.1733 -0.8112
38023SOL     OW18430   0.673   5.751   8.831  0.3832 -0.2145  0.3789
38023SOL    HW118431   0.580   5.731   8.822  0.0346  0.4170  2.2246
38023SOL    HW218432   0.712   5.717   8.750 -1.1395 -2.2961  0.4274
38024SOL     OW18433  10.210   1.536   7.652 -0.2086  0.1067  0.2506
38024SOL    HW118434  10.258   1.557   7.732 -0.3394  0.9004  0.1250
38024SOL    HW218435  10.199   1.441   7.656  0.1117  0.0890  0.9916
38025SOL     OW18436   8.121  10.878   6.450 -0.5006 -0.2609 -0.3995
38025SOL    HW118437   8.064  10.928   6.506  0.3571  2.1114 -1.5149
38025SOL    HW218438   8.066  10.854   6.375 -0.3818  1.0325 -0.9313
38026SOL     OW18439   4.388   1.130   1.462  0.3890  0.1220  0.3899
38026SOL    HW118440   4.408   1.204   1.520 -0.5727  0.2991  0.5168
38026SOL    HW218441   4.422   1.157   1.377  0.5756  0.4594  0.5652
38027SOL     OW18442   6.516   6.885   7.433  0.0912  0.0708 -0.6002
38027SOL    HW118443   6.456   6.863   7.505  0.1228  0.5854 -0.4159
38027SOL    HW218444   6.603   6.861   7.467 -0.0949 -1.8491 -1.3187
38028SOL     OW18445   5.302  10.265  10.456  0.2343  0.1437 -0.3353
38028SOL    HW118446   5.240  10.333  10.486 -0.7857 -0.5063 -0.9167
38028SOL    HW218447   5.373  10.268  10.520 -0.7523  0.4173  0.7838
38029SOL     OW18448   4.055   2.959   7.284 -0.3420 -0.0310  0.2199
38029SOL    HW118449   4.086   3.045   7.313 -1.7040  0.9656 -1.0920
38029SOL    HW218450   4.058   2.905   7.363  0.4280  1.2524  1.1150
38030SOL     OW18451   1.425  10.912   4.804 -0.3124  0.2422 -0.6854
38030SOL    HW118452   1.421  10.857   4.726 -0.4618  1.2625 -1.4062
38030SOL    HW218453   1.483  10.865   4.864 -0.3863 -0.6620 -1.3092
38031SOL     OW18454   3.887   7.342   3.068 -0.2980  0.1866 -0.0313
38031SOL    HW118455   3.888   7.399   3.145 -0.3453  1.7903 -1.1745
38031SOL    HW218456   3.876   7.254   3.104  1.6571  0.6534  1.9281
38032SOL     OW18457  10.058   3.632   7.087  0.1518  0.3515  0.1165
38032SOL    HW118458  10.081   3.670   7.172  1.5381  0.9460 -0.5060
38032SOL    HW218459  10.142   3.612   7.046 -0.4543  1.1022 -1.5699
38033SOL     OW18460   5.754   4.008   4.796 -0.6184 -0.0278 -0.6086
38033SOL    HW118461   5.759   3.967   4.882 -0.1698  1.1428 -0.0490
38033SOL    HW218462   5.839   3.991   4.755 -0.0995  1.0378 -0.0246
38034SOL     OW18463   0.152   6.103   8.484  0.2459  0.1324  0.5830
38034SOL    HW118464   0.212   6.139   8.550  0.4634 -0.9219  0.9836
38034SOL    HW218465   0.210   6.067   8.416  0.0189  1.5057 -0.3651
38035SOL     OW18466   8.603  10.199   2.883 -0.2894 -0.2768  0.3153
38035SOL    HW118467   8.694  10.170   2.877 -0.5918 -1.5036  1.1630
38035SOL    HW218468   8.606  10.292   2.861  0.9330 -0.6271 -1.2234
38036SOL     OW18469   6.061   0.520   2.752  0.4958 -0.0289 -0.1679
38036SOL    HW118470   6.042   0.569   2.672 -0.7307 -0.8028 -0.3753
38036SOL    HW218471   6.141   0.473   2.733  0.7053  0.4963 -0.6072
38037SOL     OW18472   0.683   4.184   6.761 -0.8864 -0.1318  0.4618
38037SOL    HW118473   0.648   4.202   6.673  1.5157 -1.1595 -0.8259
38037SOL    HW218474   0.650   4.096   6.782 -1.5799  0.1719  0.6825
38038SOL     OW18475   3.851   5.618   5.752  0.5840 -0.4543  0.6531
38038SOL    HW118476   3.876   5.529   5.729 -2.4812 -0.8439 -1.6989
38038SOL    HW218477   3.895   5.673   5.687  2.5456 -0.1117  2.1547
38039SOL     OW18478   6.858   4.127   9.626 -0.1186  0.0900 -0.4803
38039SOL    HW118479   6.780   4.092   9.670  1.1212 -1.0032  0.9515
38039SOL    HW218480   6.851   4.222   9.635 -0.0976 -0.0817  1.8043
38040SOL     OW18481   9.840   9.956   1.389 -0.1188 -0.0206 -0.2281
38040SOL    HW118482   9.800   9.900   1.455 -1.5564  1.6872  0.4337
38040SOL    HW218483   9.799   9.930   1.307 -1.4169  0.6033  0.2015
38041SOL     OW18484   4.896   8.492   3.708  0.3032  0.5836  0.0895
38041SOL    HW118485   4.956   8.516   3.637  0.6895  0.9409  0.5252
38041SOL    HW218486   4.867   8.404   3.686 -3.1915  2.2437 -2.9723
38042SOL     OW18487   7.068   6.791   9.992 -0.2447  0.0087  0.2356
38042SOL    HW118488   7.107   6.845  10.061  2.3899 -0.9229 -0.3946
38042SOL    HW218489   7.100   6.702  10.010 -0.7950 -0.5342 -1.2701
38043SOL     OW18490   5.123   3.007  10.794 -0.2035  0.1945  0.0509
38043SOL    HW118491   5.111   2.958  10.713  0.2424 -0.3620  0.3133
38043SOL    HW218492   5.213   2.987  10.821 -0.6104 -0.2705  1.1032
38044SOL     OW18493   0.407   6.768   9.974 -0.3287 -0.1231  0.3393
38044SOL    HW118494   0.395   6.860   9.950  0.8911 -0.7079 -3.0771
38044SOL    HW218495   0.329   6.724   9.941  0.4571 -0.6737 -0.8771
38045SOL     OW18496   8.990   7.879  10.664  0.2433 -0.4962 -0.3308
38045SOL    HW118497   9.053   7.842  10.726 -1.6742 -1.9856  0.8498
38045SOL    HW218498   8.933   7.935  10.717 -0.9494 -1.1704 -0.8391
38046SOL     OW18499   6.286   9.007   8.997  0.0497  0.3176  0.3646
38046SOL    HW118500   6.371   8.997   8.953  0.2665 -0.5272  0.9328
38046SOL    HW218501   6.226   9.033   8.928  0.6126  0.1265 -0.2116
38047SOL     OW18502   3.420   9.457   2.493  0.0590 -0.0928  0.1695
38047SOL    HW118503   3.483   9.386   2.507  1.0315  0.4468 -1.2170
38047SOL    HW218504   3.415   9.466   2.398 -0.1806  1.5651  0.3062
38048SOL     OW18505  10.748   7.339   5.422 -0.0211  0.1603  0.2280
38048SOL    HW118506  10.714   7.386   5.345  0.1761 -1.7360 -1.0968
38048SOL    HW218507  10.680   7.273   5.441 -0.2232  0.8271  1.9224
38049SOL     OW18508   0.707   8.426  10.995  0.0842 -0.1898  0.2071
38049SOL    HW118509   0.736   8.500  11.049  0.2959 -0.2822  0.2229
38049SOL    HW218510   0.741   8.349  11.041 -1.3608 -0.3960  0.9736
38050SOL     OW18511   3.402   6.971   2.389  0.1458 -0.7499  0.6973
38050SOL    HW118512   3.497   6.969   2.377  0.0224  0.4610 -0.8855
38050SOL    HW218513   3.375   7.053   2.348 -1.4068 -0.1656  2.7523
38051SOL     OW18514   4.641   1.524   1.702  0.2426  0.1581 -0.6127
38051SOL    HW118515   4.611   1.487   1.784 -0.9793  1.6315 -0.3396
38051SOL    HW218516   4.730   1.555   1.720  0.1800 -0.0149  0.0029
38052SOL     OW18517   0.718   8.767   8.350  0.7606 -0.5032 -0.3094
38052SOL    HW118518   0.776   8.773   8.275  1.4785  1.5190  0.3466
38052SOL    HW218519   0.770   8.725   8.419  1.8582  2.1364  0.5702
38053SOL     OW18520   5.709  10.176  10.232  0.4077  0.0984  0.1208
38053SOL    HW118521   5.694  10.244  10.298 -2.3162  0.2847 -0.5590
38053SOL    HW218522   5.690  10.094  10.277 -0.3413  0.1420 -0.0951
38054SOL     OW18523  10.962   1.518   6.766 -0.2034 -0.3587 -0.4730
38054SOL    HW118524  10.925   1.456   6.703 -1.1136 -1.0932  0.7100
38054SOL    HW218525  10.946   1.476   6.851  0.1454  1.0159  0.2936
38055SOL     OW18526   6.397   4.072   2.268  0.1153 -0.3261 -0.2606
38055SOL    HW118527   6.446   4.147   2.302  1.5010 -1.1410 -0.3992
38055SOL    HW218528   6.462   4.001   2.262 -1.3101 -1.7594  0.5627
38056SOL     OW18529   4.857   0.153  10.777  0.5139 -0.7637 -0.6776
38056SOL    HW118530   4.910   0.232  10.772  0.8070 -0.5549  2.9984
38056SOL    HW218531   4.917   0.085  10.807 -0.3456 -1.6876 -0.9558
38057SOL     OW18532   2.816   3.372   4.625  0.0091 -0.5158  0.3326
38057SOL    HW118533   2.745   3.318   4.591  0.5133 -0.7238 -0.4197
38057SOL    HW218534   2.844   3.328   4.705 -0.1090 -0.9319  0.1465
38058SOL     OW18535   5.407   2.829   8.828 -0.5732 -0.0798 -0.0875
38058SOL    HW118536   5.320   2.788   8.833 -1.3235  1.2438 -1.4271
38058SOL    HW218537   5.405   2.897   8.895 -0.2934 -0.4980  0.3540
38059SOL     OW18538   3.616  10.016   3.582 -0.0675  0.1103  0.1859
38059SOL    HW118539   3.545  10.077   3.603 -0.2023 -0.3120  1.0073
38059SOL    HW218540   3.572   9.933   3.568  0.1864  0.0365 -0.1608
38060SOL     OW18541   5.641   5.687   5.287 -0.2449  0.7991  0.7529
38060SOL    HW118542   5.623   5.689   5.381 -1.5002 -2.4364  0.7132
38060SOL    HW218543   5.572   5.631   5.251  0.2746  1.8451 -2.1124
38061SOL     OW18544   3.807   7.256   5.681  0.1501 -0.7708  0.0782
38061SOL    HW118545   3.765   7.175   5.652  1.6879 -1.0090 -1.6247
38061SOL    HW218546   3.876   7.272   5.617  2.6087 -0.3515  2.6340
38062SOL     OW18547   8.368   2.284   8.207 -0.5650 -0.4518 -0.0859
38062SOL    HW118548   8.401   2.284   8.117 -0.4010  1.5554 -0.0643
38062SOL    HW218549   8.276   2.309   8.200  0.0184  2.0850  0.4130
38063SOL     OW18550   6.721   8.604   7.836  0.0666  0.2209 -0.6802
38063SOL    HW118551   6.739   8.558   7.918 -2.9838 -2.1790 -1.1774
38063SOL    HW218552   6.800   8.657   7.820  0.9974  0.4130  3.4591
38064SOL     OW18553   6.044   4.171   3.499 -0.3176  0.1019 -0.1357
38064SOL    HW118554   6.091   4.239   3.548  0.9398 -1.6959  1.2925
38064SOL    HW218555   5.991   4.126   3.565 -0.2377 -1.0278 -0.8194
38065SOL     OW18556   6.717   9.986   6.224 -0.5922  0.0626  0.5565
38065SOL    HW118557   6.662  10.020   6.294 -1.0788 -1.1483  0.7886
38065SOL    HW218558   6.660   9.982   6.148  0.2322  2.4763 -0.2909
38066SOL     OW18559   8.381   0.198   5.847  0.2056  0.3965 -0.6578
38066SOL    HW118560   8.341   0.235   5.925 -0.8329  0.1958 -1.0791
38066SOL    HW218561   8.475   0.217   5.856  0.1060  0.3012  0.6530
38067SOL     OW18562   0.785   3.268  10.316  0.3247  0.3314  0.9291
38067SOL    HW118563   0.795   3.313  10.232 -0.1689  0.4593  0.9329
38067SOL    HW218564   0.778   3.339  10.380  2.6846  0.2462  1.3503
38068SOL     OW18565   8.504   8.281   7.567 -0.2350  0.0181 -0.5043
38068SOL    HW118566   8.544   8.210   7.517 -0.0662 -0.0767 -0.2365
38068SOL    HW218567   8.415   8.288   7.532  0.6229  1.6532 -2.6059
38069SOL     OW18568   9.783  10.303   1.573  0.4776  0.6152  0.2383
38069SOL    HW118569   9.787  10.261   1.659  1.0506  0.5721  0.1983
38069SOL    HW218570   9.702  10.271   1.533 -0.8924  2.2380  1.5705
38070SOL     OW18571  10.543   7.655  10.665  0.4863 -0.0269  0.2952
38070SOL    HW118572  10.554   7.722  10.598 -0.0172  1.5146  1.6861
38070SOL    HW218573  10.584   7.576  10.628  0.7278  0.9245 -1.5483
38071SOL     OW18574   8.964   1.355   3.367  0.1457 -0.2542  0.0149
38071SOL    HW118575   8.979   1.311   3.283 -1.0444  0.6905 -0.7116
38071SOL    HW218576   8.937   1.444   3.344  2.4645  0.9406  1.4397
38072SOL     OW18577   9.010   2.950   9.489  0.0139 -0.0100  0.6579
38072SOL    HW118578   8.963   2.955   9.572 -0.8301 -0.6481  0.2410
38072SOL    HW218579   8.941   2.943   9.423  0.6790  0.2408 -0.0776
38073SOL     OW18580   7.473   0.054   8.682  0.1583 -0.0391  0.2630
38073SOL    HW118581   7.462  -0.004   8.607 -0.1902  2.0631 -1.3952
38073SOL    HW218582   7.394   0.040   8.735 -0.9676  0.4414 -1.2236
38074SOL     OW18583   4.214   9.845   3.845  0.3286  0.4251 -0.4955
38074SOL    HW118584   4.193   9.808   3.931  0.4075 -0.7771 -0.9746
38074SOL    HW218585   4.309   9.837   3.839  0.7045  3.1681  0.4619
38075SOL     OW18586   3.000   2.603   1.493 -0.1626  0.1655 -0.0025
38075SOL    HW118587   2.995   2.549   1.414 -1.6898 -1.2146  0.9768
38075SOL    HW218588   2.915   2.646   1.499 -0.3748 -0.3794  1.2897
38076SOL     OW18589   8.500   6.907  10.492 -0.4678 -0.4160  0.5232
38076SOL    HW118590   8.592   6.933  10.485 -0.9161  1.1337 -0.1291
38076SOL    HW218591   8.460   6.976  10.544 -1.7686  0.3928 -1.4618
38077SOL     OW18592   4.848   4.995   0.960 -0.5009 -0.0274 -0.0576
38077SOL    HW118593   4.858   5.089   0.979  3.7614 -0.5466  1.4752
38077SOL    HW218594   4.905   4.980   0.885 -0.9160 -1.4429 -0.1083
38078SOL     OW18595   3.564   8.603   6.240 -0.5346  0.1447  0.6300
38078SOL    HW118596   3.505   8.535   6.273 -1.0377  1.1824  1.9264
38078SOL    HW218597   3.651   8.565   6.248 -0.6541  0.2416  2.9665
38079SOL     OW18598   9.617   7.037   8.399  0.3863  0.1071  0.0212
38079SOL    HW118599   9.677   6.993   8.339  0.4312 -1.4567  1.1546
38079SOL    HW218600   9.540   7.056   8.347  0.0663 -2.0104 -0.3726
38080SOL     OW18601   4.969   2.172   8.824  0.0265 -0.3519 -0.0426
38080SOL    HW118602   4.904   2.237   8.853  0.1635 -0.9410  1.6635
38080SOL    HW218603   5.045   2.225   8.799 -0.1048  0.1922  0.6707
38081SOL     OW18604   6.396   6.272  10.282 -0.2746  1.0422  0.3651
38081SOL    HW118605   6.324   6.309  10.232 -0.9617 -1.0793 -0.3416
38081SOL    HW218606   6.465   6.255  10.217  0.1692  1.3902  0.7335
38082SOL     OW18607   4.851   2.616   1.884  0.3940 -0.3367  0.5394
38082SOL    HW118608   4.765   2.585   1.914  0.1022  0.7152  0.8388
38082SOL    HW218609   4.863   2.575   1.799 -1.4256  1.1848 -0.5412
38083SOL     OW18610   2.871   7.553   7.929 -0.1460 -0.0070  0.1474
38083SOL    HW118611   2.879   7.543   8.024 -1.0883 -1.6155  0.0814
38083SOL    HW218612   2.849   7.646   7.917  2.5311  0.8690  1.2783
38084SOL     OW18613   9.050   5.267   0.149  0.1636 -0.1174  0.3373
38084SOL    HW118614   9.078   5.296   0.235 -0.8405 -0.7851  0.9054
38084SOL    HW218615   8.964   5.306   0.137 -0.2793 -1.1038  0.2143
38085SOL     OW18616   8.576   0.664   4.847  0.5400  0.0651 -0.0167
38085SOL    HW118617   8.592   0.753   4.814 -0.1146  0.2649  0.1954
38085SOL    HW218618   8.487   0.644   4.821  1.3918 -1.4267 -2.0241
38086SOL     OW18619   8.064   7.642   5.342 -0.6446 -0.4787  0.2367
38086SOL    HW118620   8.094   7.583   5.411  0.0833 -1.0267 -0.5384
38086SOL    HW218621   7.970   7.622   5.333 -0.5165 -1.1450  0.3409
38087SOL     OW18622   5.155   3.027   2.202  0.2608  0.0034 -0.9181
38087SOL    HW118623   5.176   3.119   2.189 -0.6738  0.5795  1.1458
38087SOL    HW218624   5.225   2.980   2.157  0.8124  1.7027 -1.9367
38088SOL     OW18625   3.779   7.963   7.446 -0.0630 -0.0989 -0.2465
38088SOL    HW118626   3.787   7.968   7.350 -2.0567  0.2976 -0.4382
38088SOL    HW218627   3.698   7.914   7.460  1.2030 -1.9065  1.3021
38089SOL     OW18628   5.574   9.964   6.018  0.2471  0.0392  0.8193
38089SOL    HW118629   5.585   9.919   5.934 -0.7607 -0.3692  0.8920
38089SOL    HW218630   5.517  10.038   5.998  1.2841  0.8788  0.8511
38090SOL     OW18631   7.316   8.496   3.889  0.6238  0.2573  0.1333
38090SOL    HW118632   7.296   8.490   3.982  0.5497 -1.3732  0.0327
38090SOL    HW218633   7.352   8.584   3.878  2.9889 -0.3478  2.1799
38091SOL     OW18634   0.244  10.495   3.863 -0.0418 -0.2176  0.1405
38091SOL    HW118635   0.239  10.562   3.932  2.7299 -0.9144  1.1700
38091SOL    HW218636   0.206  10.417   3.902  1.0553 -0.4729  0.7233
38092SOL     OW18637   2.326   5.683   4.516 -0.0095 -0.4803  0.4412
38092SOL    HW118638   2.245   5.714   4.476 -0.1628  0.2871  1.3054
38092SOL    HW218639   2.322   5.716   4.606  1.6976  0.3803  0.2438
38093SOL     OW18640   3.483   3.363  10.294  0.2906  0.3749  0.0777
38093SOL    HW118641   3.524   3.450  10.289 -2.0431  1.5168 -3.9412
38093SOL    HW218642   3.525   3.314  10.224  1.7002 -1.9775  2.4128
38094SOL     OW18643   6.699   3.502   6.458 -0.1372  0.3007  0.2195
38094SOL    HW118644   6.687   3.551   6.540 -0.5733 -0.6490  0.7356
38094SOL    HW218645   6.638   3.429   6.465 -0.0130  0.0843 -0.8660
38095SOL     OW18646  10.475   0.925   0.945 -0.2504  0.3726  0.3870
38095SOL    HW118647  10.483   0.891   0.856  0.4505  0.6615  0.3335
38095SOL    HW218648  10.519   1.010   0.943  0.1963  0.1730  1.1236
38096SOL     OW18649   1.141   3.514  10.925 -0.3598 -0.0891 -0.4096
38096SOL    HW118650   1.066   3.552  10.970 -2.4810 -2.8011 -1.3938
38096SOL    HW218651   1.105   3.475  10.846  2.3082 -0.4981 -1.5413
38097SOL     OW18652   8.033   0.291   7.879  0.4481 -0.6980 -0.3361
38097SOL    HW118653   7.953   0.253   7.842 -0.4618  0.2736  0.5327
38097SOL    HW218654   8.097   0.287   7.808 -0.0712 -2.3652 -0.7558
38098SOL     OW18655   5.837   3.316   2.004  0.1023 -0.5410  0.4724
38098SOL    HW118656   5.868   3.295   1.916 -0.2095 -0.2307  0.2874
38098SOL    HW218657   5.796   3.402   1.996 -0.3626 -0.7260  0.8181
38099SOL     OW18658   6.731   8.338   1.338  0.4153  0.2036 -0.0770
38099SOL    HW118659   6.740   8.254   1.382 -0.0892 -0.6539 -1.5436
38099SOL    HW218660   6.649   8.375   1.372 -0.8573 -1.2117 -1.4488
38100SOL     OW18661  10.610   2.591   3.040 -0.0194  0.0456 -0.1069
38100SOL    HW118662  10.603   2.686   3.045  1.7753  0.2448 -0.7026
38100SOL    HW218663  10.660   2.567   3.118  2.2813 -0.0297 -1.5382
38101SOL     OW18664   0.617   9.289   8.936 -0.4363  0.6400 -0.1810
38101SOL    HW118665   0.600   9.324   8.849  0.8689  1.3664 -0.1818
38101SOL    HW218666   0.544   9.320   8.989 -0.7681  0.9637 -0.8180
38102SOL     OW18667   9.898   6.510   8.876 -0.6085 -0.0121  0.0639
38102SOL    HW118668   9.991   6.492   8.890 -0.1353  1.7182 -0.6512
38102SOL    HW218669   9.879   6.587   8.929 -1.4911 -0.0216 -0.2158
38103SOL     OW18670   4.469   9.175  10.361 -0.1924 -0.8465  0.2291
38103SOL    HW118671   4.463   9.145  10.270  1.0832 -0.6583  0.0591
38103SOL    HW218672   4.541   9.238  10.360 -1.3676  0.5613  1.0217
38104SOL     OW18673   9.274   4.455   4.390  0.4091 -0.1350 -0.3474
38104SOL    HW118674   9.293   4.454   4.296 -1.3121 -0.8414 -0.7207
38104SOL    HW218675   9.197   4.400   4.400  0.8245 -0.4509  1.5628
38105SOL     OW18676  10.577   9.142   5.864  0.0562 -0.2128 -0.4737
38105SOL    HW118677  10.533   9.136   5.949  0.1421 -2.2576 -0.5358
38105SOL    HW218678  10.669   9.154   5.886 -0.0515  0.3598 -0.3074
38106SOL     OW18679   5.403   2.644   5.616 -0.2583  0.8422 -0.0816
38106SOL    HW118680   5.439   2.651   5.528  0.3004  0.0141  0.0593
38106SOL    HW218681   5.444   2.565   5.652 -0.4901  1.1542  0.9105
38107SOL     OW18682   7.632   6.695   0.839  0.5263 -0.0462 -0.1418
38107SOL    HW118683   7.567   6.757   0.805  0.1004  0.6084  1.7445
38107SOL    HW218684   7.579   6.629   0.885  1.1440  1.4239  2.9417
38108SOL     OW18685   3.406   8.319   0.148 -0.0451 -0.4925  0.4481
38108SOL    HW118686   3.466   8.391   0.165  0.0393 -0.3163 -0.5187
38108SOL    HW218687   3.449   8.242   0.185 -0.6997  0.0996  2.6106
38109SOL     OW18688   4.598   1.523   4.568  0.0153 -0.2606  0.2607
38109SOL    HW118689   4.565   1.613   4.573 -2.1171 -0.8838 -1.1348
38109SOL    HW218690   4.640   1.518   4.483  1.5195 -0.1925  0.9779
38110SOL     OW18691   4.601   6.946   5.178  0.5201  0.1448 -0.1332
38110SOL    HW118692   4.643   7.000   5.246  0.6869 -0.5182  0.2948
38110SOL    HW218693   4.669   6.883   5.152  0.4619  0.3943 -0.9252
38111SOL     OW18694   4.539   8.137   7.945 -0.2854 -0.4114  0.5830
38111SOL    HW118695   4.532   8.228   7.973  0.2860 -0.6084  1.3771
38111SOL    HW218696   4.632   8.126   7.922 -0.5314 -0.5418 -0.4287
38112SOL     OW18697   3.501   8.427  10.664 -0.2268  0.5859  0.6956
38112SOL    HW118698   3.459   8.435  10.749 -1.3072  0.1090  0.2212
38112SOL    HW218699   3.474   8.505  10.616 -1.1375 -0.0327  0.1653
38113SOL     OW18700   2.035   2.802   1.152 -0.6281 -0.6611 -0.3268
38113SOL    HW118701   2.060   2.775   1.241 -1.5659 -0.8856 -0.1217
38113SOL    HW218702   2.116   2.834   1.113 -0.3884  0.2999  0.9212
38114SOL     OW18703   1.279   0.329   0.712 -0.2565 -0.9018 -0.4095
38114SOL    HW118704   1.276   0.415   0.755  0.1945 -1.7865  1.5269
38114SOL    HW218705   1.187   0.312   0.689 -0.6252 -0.6217  0.7553
38115SOL     OW18706   3.321   6.009   2.956  0.6311 -0.1576 -0.2691
38115SOL    HW118707   3.363   6.089   2.988  0.2511 -0.1500  0.2260
38115SOL    HW218708   3.315   5.952   3.033  1.2020 -0.7994 -0.6894
38116SOL     OW18709   0.472   5.741   3.789  0.0773 -0.6459 -0.3456
38116SOL    HW118710   0.380   5.718   3.803  0.3275 -1.5480 -0.1361
38116SOL    HW218711   0.482   5.744   3.694 -0.1751 -0.5306 -0.3686
38117SOL     OW18712   1.179   9.825   0.132 -0.6972  0.1416 -0.3501
38117SOL    HW118713   1.232   9.809   0.054 -0.8564  0.3652 -0.5070
38117SOL    HW218714   1.155   9.917   0.126  1.5097  0.9212  1.3406
38118SOL     OW18715   9.860   2.613   0.890  0.4594  0.2782  0.0998
38118SOL    HW118716   9.772   2.615   0.928  0.6434  1.4676  0.5047
38118SOL    HW218717   9.918   2.620   0.966  0.9394 -1.1143 -0.1093
38119SOL     OW18718   0.336   4.811   2.733  0.2324  0.0357  0.0184
38119SOL    HW118719   0.307   4.899   2.709 -1.3478  0.0728  1.7827
38119SOL    HW218720   0.425   4.804   2.698  0.5956  2.5311  0.2549
38120SOL     OW18721   2.812   5.647  10.967  0.0188  0.1691  0.0208
38120SOL    HW118722   2.740   5.584  10.965 -1.2766  1.6029 -1.6340
38120SOL    HW218723   2.891   5.593  10.967 -0.9610 -1.4774  2.7614
38121SOL     OW18724  10.699   8.261   9.503 -0.3155 -0.1901  0.0039
38121SOL    HW118725  10.793   8.277   9.512 -0.1279 -1.9853  2.0293
38121SOL    HW218726  10.660   8.348   9.510  1.1805  0.6358 -1.2166
38122SOL     OW18727   3.871   1.793   6.387  0.3934  0.1070  0.4738
38122SOL    HW118728   3.857   1.706   6.349 -2.1133  0.1029  1.2152
38122SOL    HW218729   3.895   1.775   6.478  0.1210  0.1593  0.5590
38123SOL     OW18730   6.184   0.086   5.358  0.3884 -0.7176  0.2394
38123SOL    HW118731   6.187   0.125   5.270 -0.7974  0.8828  0.8633
38123SOL    HW218732   6.268   0.041   5.367  0.6779 -0.6240 -1.5746
38124SOL     OW18733   4.309   1.239   3.477  0.4329  0.4559  0.7186
38124SOL    HW118734   4.290   1.319   3.429 -1.7435 -0.1702  0.4611
38124SOL    HW218735   4.345   1.270   3.561  3.9103  1.5618 -0.9745
38125SOL     OW18736   5.241   8.346   8.087 -0.4111 -0.3676  0.2751
38125SOL    HW118737   5.276   8.357   7.999 -1.1906  0.1548  0.0208
38125SOL    HW218738   5.147   8.339   8.075 -0.3506 -3.7339  0.7623
38126SOL     OW18739   9.397   0.610   0.026  0.3334 -0.7756 -0.3378
38126SOL    HW118740   9.438   0.662   0.095  1.0193  0.1048 -1.3752
38126SOL    HW218741   9.309   0.646   0.016  0.4137 -0.5667 -0.2805
38127SOL     OW18742   0.870   4.081   3.391 -0.2021 -0.5967  0.1827
38127SOL    HW118743   0.807   4.021   3.351 -0.3510 -0.5785  0.3908
38127SOL    HW218744   0.877   4.052   3.481 -0.3527 -0.2336  0.3121
38128SOL     OW18745   0.454   3.359   4.808  0.2135 -0.3506 -0.2589
38128SOL    HW118746   0.480   3.366   4.716 -0.9791 -0.1623 -0.5957
38128SOL    HW218747   0.507   3.287   4.842  1.7946  0.5602 -0.6774
38129SOL     OW18748  10.560   0.891   1.918  0.4166 -0.4036 -0.1149
38129SOL    HW118749  10.573   0.985   1.928  1.5045 -0.4735 -0.6990
38129SOL    HW218750  10.624   0.865   1.852 -1.7034 -1.0927 -2.0207
38130SOL     OW18751   2.582   4.546   3.743  0.3741 -0.2341 -0.1848
38130SOL    HW118752   2.500   4.591   3.764 -0.1088 -1.1486 -0.0814
38130SOL    HW218753   2.623   4.531   3.828  0.3342 -0.3559 -0.1867
38131SOL     OW18754   1.123   9.414   5.921 -0.1214 -0.8360 -0.3698
38131SOL    HW118755   1.131   9.507   5.944 -1.2550 -0.5512 -1.0329
38131SOL    HW218756   1.208   9.391   5.885  0.7703 -0.5478  1.4432
38132SOL     OW18757   3.159   7.349   3.228  0.0717 -0.3712  0.3650
38132SOL    HW118758   3.080   7.402   3.218  0.4064 -0.1253 -1.2226
38132SOL    HW218759   3.205   7.388   3.302 -1.0838 -0.2665  1.0581
38133SOL     OW18760   0.244   5.382  10.478 -0.1692  0.2799  0.1926
38133SOL    HW118761   0.312   5.409  10.541 -0.5710  1.4626  0.1458
38133SOL    HW218762   0.292   5.358  10.399  0.2143  0.9219  0.2248
38134SOL     OW18763   6.106  10.620   7.272  0.1651  0.1634 -0.2165
38134SOL    HW118764   6.026  10.670   7.259 -0.6502 -0.5686  1.5768
38134SOL    HW218765   6.174  10.670   7.227 -0.4616  3.2659  1.9409
38135SOL     OW18766   7.981   9.740   2.738 -0.1307 -0.0818 -0.2007
38135SOL    HW118767   7.935   9.804   2.683  1.0281 -0.3675 -1.5488
38135SOL    HW218768   8.062   9.785   2.764  1.9312 -1.6991 -3.1864
38136SOL     OW18769   7.294   2.826   4.324 -0.4980 -0.4282  0.4500
38136SOL    HW118770   7.329   2.862   4.406  0.7156 -0.0523 -0.2122
38136SOL    HW218771   7.210   2.869   4.313 -0.1780  0.3470  0.9481
38137SOL     OW18772   7.165   0.780   2.834  0.4184  0.2321 -0.4357
38137SOL    HW118773   7.196   0.870   2.835  0.5286  0.1918  0.2252
38137SOL    HW218774   7.070   0.787   2.827  0.3482  0.4332  0.5061
38138SOL     OW18775   6.589   6.495   3.008 -0.6010  0.1358 -0.1551
38138SOL    HW118776   6.502   6.534   3.008  0.5175  2.9197  1.1654
38138SOL    HW218777   6.641   6.552   2.951  0.6126 -0.7656  0.0049
38139SOL     OW18778   4.578   6.097   5.802 -0.0656  0.2732 -0.0346
38139SOL    HW118779   4.653   6.130   5.753  0.2086 -0.5104 -0.1649
38139SOL    HW218780   4.532   6.175   5.833 -0.4086  0.7969 -1.7629
38140SOL     OW18781   8.341   5.558   4.707  0.1119 -0.4608  0.1501
38140SOL    HW118782   8.261   5.554   4.655  0.8918 -0.0002 -1.1337
38140SOL    HW218783   8.385   5.638   4.677  0.7590 -0.3630  1.2876
38141SOL     OW18784  10.452   7.982   1.519 -0.2693 -0.1753 -0.6149
38141SOL    HW118785  10.403   7.913   1.564 -0.6865  0.4492 -0.1067
38141SOL    HW218786  10.522   7.935   1.475  1.3026 -0.6636  2.1621
38142SOL     OW18787   2.714   6.219   9.580 -0.6540 -0.2546  0.4021
38142SOL    HW118788   2.772   6.145   9.599 -0.0557  0.2582  0.6186
38142SOL    HW218789   2.740   6.249   9.493  0.1610  0.6463  0.9312
38143SOL     OW18790   3.931   1.353   9.055  0.2435 -0.0751  0.0062
38143SOL    HW118791   4.016   1.358   9.011  1.8740  0.6482  2.9248
38143SOL    HW218792   3.903   1.444   9.062  0.3919 -0.0987  1.0453
38144SOL     OW18793   2.501   3.680   7.528 -0.2292 -0.6884  0.3379
38144SOL    HW118794   2.573   3.651   7.584 -2.0099 -0.5568  2.8892
38144SOL    HW218795   2.502   3.776   7.535  0.0310 -0.6157 -0.5709
38145SOL     OW18796   5.607   4.179   8.026  0.4286  0.4568 -0.3514
38145SOL    HW118797   5.635   4.136   7.945 -1.0693 -0.9733 -0.1673
38145SOL    HW218798   5.686   4.183   8.079  0.8114 -1.4187 -0.6945
38146SOL     OW18799   1.335  11.005  10.664 -0.5704 -0.4588  0.5584
38146SOL    HW118800   1.359  11.041  10.750  0.0776  0.9341 -0.1764
38146SOL    HW218801   1.394  11.049  10.603 -1.8563 -0.5154 -0.7560
38147SOL     OW18802   7.610   9.137   0.593 -0.0238  0.3537 -0.7223
38147SOL    HW118803   7.614   9.042   0.609  1.6456  0.8712  3.1729
38147SOL    HW218804   7.517   9.154   0.576 -0.6301 -1.8282 -0.0053
38148SOL     OW18805   8.306   4.025   8.267 -0.1525 -0.6476  0.1461
38148SOL    HW118806   8.265   3.939   8.279 -2.2714  0.2674 -0.0376
38148SOL    HW218807   8.293   4.045   8.175 -0.3357  0.1741  0.3429
38149SOL     OW18808  10.279   0.513   3.876  0.4246 -0.1096 -0.0592
38149SOL    HW118809  10.211   0.568   3.837  1.8631  1.8284  0.0001
38149SOL    HW218810  10.295   0.553   3.962  2.1116 -0.0446 -0.3623
38150SOL     OW18811   9.108   8.705   1.842  0.4516  0.0620 -0.3683
38150SOL    HW118812   9.132   8.794   1.815 -0.3381 -0.0565 -1.5164
38150SOL    HW218813   9.033   8.683   1.788 -0.2559 -0.7792  0.9105
38151SOL     OW18814   6.838  10.582   5.745  0.7008  0.2523  0.0985
38151SOL    HW118815   6.788  10.503   5.726  2.0807 -0.7786  0.5985
38151SOL    HW218816   6.846  10.627   5.660 -0.1298 -0.1187 -0.1804
38152SOL     OW18817   4.738   8.633   9.272 -0.3606 -0.5263  0.0321
38152SOL    HW118818   4.651   8.613   9.307 -0.4769  0.1158  0.1167
38152SOL    HW218819   4.731   8.611   9.179 -0.7019 -0.2111 -0.0193
38153SOL     OW18820   7.931   0.738   1.357 -0.6049 -0.3255  0.0735
38153SOL    HW118821   7.983   0.807   1.315  0.1673 -0.8830  0.0853
38153SOL    HW218822   7.936   0.758   1.450 -0.5047 -0.3064  0.0649
38154SOL     OW18823   2.251   4.114   8.176 -0.3546 -0.2389  0.0191
38154SOL    HW118824   2.254   4.071   8.091 -1.1495 -0.6916  0.2131
38154SOL    HW218825   2.302   4.058   8.234 -1.0690 -0.7284  0.1829
38155SOL     OW18826   1.669  10.014   3.761  0.4064 -0.2359  0.0526
38155SOL    HW118827   1.756  10.010   3.721  0.3486 -0.4194 -0.0546
38155SOL    HW218828   1.655   9.926   3.797  0.3017 -0.1815  0.1455
38156SOL     OW18829   7.477   6.930   2.694  0.1056  0.1835 -0.4667
38156SOL    HW118830   7.402   6.904   2.640  0.6260 -0.7973 -0.7412
38156SOL    HW218831   7.543   6.863   2.678 -0.2803 -1.1040  2.5856
38157SOL     OW18832   1.569   9.783  10.257  0.1991 -0.2652  0.6985
38157SOL    HW118833   1.610   9.842  10.194 -1.3425  0.6423  0.4923
38157SOL    HW218834   1.642   9.747  10.307  1.5891 -1.8073 -2.2012
38158SOL     OW18835   0.405   7.992   6.729 -0.2012  0.4953 -0.0664
38158SOL    HW118836   0.333   8.054   6.744  0.4974  1.3038  0.0649
38158SOL    HW218837   0.483   8.048   6.723  0.8332 -0.5161  2.5656
38159SOL     OW18838   7.957   0.539   3.315  0.1220  0.2999 -0.1338
38159SOL    HW118839   7.982   0.521   3.225  1.0950 -1.4861  0.4473
38159SOL    HW218840   8.031   0.508   3.367 -0.7287  0.6190  1.3232
38160SOL     OW18841   7.866   5.521   7.134  0.0066 -0.0329  0.6945
38160SOL    HW118842   7.852   5.533   7.040 -0.3826 -1.6669  0.5128
38160SOL    HW218843   7.803   5.580   7.175  0.3336  0.8629 -0.0499
38161SOL     OW18844  10.615   6.482   6.328 -0.0801  0.2021  0.3631
38161SOL    HW118845  10.675   6.556   6.320 -0.6337  0.5398 -0.7292
38161SOL    HW218846  10.658   6.410   6.282 -0.4657  0.4305 -0.3765
38162SOL     OW18847   9.733   7.155   3.999  0.6350 -0.4761  0.0982
38162SOL    HW118848   9.776   7.181   3.917  0.4086 -1.1248 -0.2374
38162SOL    HW218849   9.800   7.168   4.066  0.6513  0.5783 -0.1040
38163SOL     OW18850   6.094   0.212   5.942  0.5466  0.3299 -0.1093
38163SOL    HW118851   6.133   0.269   5.877 -0.6350 -0.8415 -1.9403
38163SOL    HW218852   6.017   0.260   5.973 -0.7097 -0.3797 -1.9835
38164SOL     OW18853   5.571   5.647   2.010  0.2406  0.6172  0.2863
38164SOL    HW118854   5.607   5.731   1.982 -2.0902  2.1960  1.6724
38164SOL    HW218855   5.507   5.670   2.077 -0.8379 -2.2538  0.3670
38165SOL     OW18856   3.116   9.668   8.494  0.5670 -0.3963  0.5378
38165SOL    HW118857   3.145   9.612   8.565  2.4368  0.7778  0.7650
38165SOL    HW218858   3.113   9.756   8.532  0.0971  0.0288 -0.4280
38166SOL     OW18859  10.104   5.862   2.679  0.0177  0.1280  0.0385
38166SOL    HW118860  10.189   5.832   2.647 -0.2875 -0.9550  0.1789
38166SOL    HW218861  10.042   5.832   2.612 -0.5539 -1.5916  1.2479
38167SOL     OW18862   3.637   9.820   9.935 -0.1766 -0.3169  0.7038
38167SOL    HW118863   3.574   9.792   9.869  1.4005  1.0219 -1.4885
38167SOL    HW218864   3.684   9.740   9.959 -1.1874 -0.9251  0.7233
38168SOL     OW18865   9.809  10.459   3.495 -0.2106 -0.3156  0.0595
38168SOL    HW118866   9.777  10.532   3.548 -2.2421 -0.4350 -0.9365
38168SOL    HW218867   9.735  10.399   3.489  0.8023 -1.5369 -0.8050
38169SOL     OW18868   7.397   0.373   0.309 -0.0397  0.5516 -0.1093
38169SOL    HW118869   7.372   0.402   0.221  1.7638 -0.5190 -1.0327
38169SOL    HW218870   7.386   0.451   0.363 -0.9196  1.3165 -1.3257
38170SOL     OW18871   9.261   1.645   2.084 -0.2115  0.0618 -0.3067
38170SOL    HW118872   9.190   1.625   2.023 -0.6449  2.2618 -0.5975
38170SOL    HW218873   9.287   1.560   2.119 -1.6012 -1.0031 -1.7258
38171SOL     OW18874   1.062   5.507  10.502  0.4147 -0.3203  0.2335
38171SOL    HW118875   1.146   5.524  10.459  0.4314 -0.5027  0.1944
38171SOL    HW218876   1.069   5.550  10.587  0.4378 -0.0853  0.1139
38172SOL     OW18877  10.974  10.515   4.165  0.6040 -0.1430 -0.0767
38172SOL    HW118878  10.969  10.476   4.078 -0.3906  0.5041 -0.3248
38172SOL    HW218879  11.054  10.569   4.163  1.6531 -1.6187  0.0699
38173SOL     OW18880  10.977   0.311   6.187  0.7688 -0.1831 -0.1773
38173SOL    HW118881  10.964   0.405   6.198 -0.2131 -0.3867  0.5591
38173SOL    HW218882  10.935   0.290   6.104  0.9629  0.0171 -0.3279
38174SOL     OW18883   9.257   1.726  10.544  0.4238  0.1824  0.0387
38174SOL    HW118884   9.341   1.687  10.518  0.4601 -0.7553  1.4770
38174SOL    HW218885   9.263   1.816  10.513  1.2719 -0.3038 -1.3504
38175SOL     OW18886   1.918   2.911   7.671  0.1606 -0.0103 -0.1565
38175SOL    HW118887   1.905   2.960   7.752 -0.2845 -0.9249  0.3433
38175SOL    HW218888   1.843   2.936   7.616 -1.9969 -2.5856  1.3738
38176SOL     OW18889   7.843   0.002   4.814  0.2463  0.2583 -0.3390
38176SOL    HW118890   7.878  -0.076   4.771 -0.5577 -0.2198 -0.1411
38176SOL    HW218891   7.893   0.074   4.775 -0.6251 -0.1206 -2.3045
38177SOL     OW18892   4.770   9.059   9.146  0.1479  0.3184  0.5155
38177SOL    HW118893   4.806   9.146   9.129 -2.6756  1.4348 -0.3342
38177SOL    HW218894   4.773   9.015   9.062  0.4930  0.0239  0.6808
38178SOL     OW18895   9.905   2.465   9.508  0.2321 -0.2127  0.0962
38178SOL    HW118896   9.948   2.486   9.425  0.5202  2.1515  0.7546
38178SOL    HW218897   9.820   2.507   9.502 -1.2256 -3.0119 -0.3232
38179SOL     OW18898   1.179   3.310   2.751 -0.0368 -0.4760  0.1226
38179SOL    HW118899   1.259   3.265   2.781  0.5711  0.8528  0.5713
38179SOL    HW218900   1.123   3.312   2.828  0.4932  0.7014  0.4985
38180SOL     OW18901   1.036   0.757  10.809 -0.2812  0.0388  0.2925
38180SOL    HW118902   1.105   0.720  10.865 -0.8071 -0.7363  0.4387
38180SOL    HW218903   1.036   0.850  10.830  0.3134 -0.0529  0.7326
38181SOL     OW18904   6.243   0.252   9.544  1.1363 -0.3684  0.2264
38181SOL    HW118905   6.331   0.284   9.526  1.3707 -0.3803  1.3356
38181SOL    HW218906   6.221   0.287   9.630  0.0686 -0.3967 -0.0152
38182SOL     OW18907   1.226   1.138   5.616 -0.0850  0.1827 -0.5763
38182SOL    HW118908   1.242   1.056   5.571  1.2447  0.2941 -0.3514
38182SOL    HW218909   1.131   1.144   5.624 -0.2415 -0.7527 -1.6446
38183SOL     OW18910  10.274   9.298   4.360 -0.1805  0.4121  0.3054
38183SOL    HW118911  10.221   9.293   4.280 -3.8722  2.3305  2.3692
38183SOL    HW218912  10.240   9.229   4.416  2.3218 -0.8622  0.4249
38184SOL     OW18913   0.125   5.281   2.753  0.1104 -0.1812 -0.0867
38184SOL    HW118914   0.167   5.365   2.733 -0.5927 -0.0509 -1.1551
38184SOL    HW218915   0.157   5.222   2.685  0.1901 -0.6336  0.3458
38185SOL     OW18916   1.291   7.154   7.696 -0.7282 -0.5502  0.1766
38185SOL    HW118917   1.291   7.060   7.709 -0.8711 -0.7165 -0.9112
38185SOL    HW218918   1.329   7.166   7.609 -3.7023  0.1329 -1.1828
38186SOL     OW18919   8.812   8.925   4.170 -0.1181  0.3887  0.0419
38186SOL    HW118920   8.880   8.992   4.160 -0.6886  1.1318  0.9103
38186SOL    HW218921   8.752   8.962   4.235 -0.6578 -0.8140  0.2562
38187SOL     OW18922   0.745   2.491   2.501  0.0783  0.9328  0.4851
38187SOL    HW118923   0.790   2.473   2.583  0.1626  2.6640  0.8452
38187SOL    HW218924   0.748   2.586   2.492 -1.1156  0.8762 -0.8492
38188SOL     OW18925  10.581   3.348  11.106 -0.0026  0.3885  0.1595
38188SOL    HW118926  10.524   3.294  11.051 -0.7469  2.0205 -0.7349
38188SOL    HW218927  10.631   3.401  11.044 -0.1583  1.5828  1.0248
38189SOL     OW18928   9.645   9.370   9.469  0.3201  0.6973  0.5514
38189SOL    HW118929   9.668   9.366   9.377  0.0077 -3.5984  0.4537
38189SOL    HW218930   9.563   9.421   9.471 -0.0515  0.2704 -1.6389
38190SOL     OW18931   1.200  10.169   4.146 -0.1556  0.3417  0.0600
38190SOL    HW118932   1.279  10.219   4.164 -1.4532  1.6193  2.6984
38190SOL    HW218933   1.162  10.211   4.069  1.0403  0.5108 -0.4677
38191SOL     OW18934   3.276   0.304   2.654  0.1172  0.7638  0.3668
38191SOL    HW118935   3.336   0.326   2.724  0.8693 -0.3521  0.0942
38191SOL    HW218936   3.218   0.237   2.691  0.6598  0.0042 -0.1197
38192SOL     OW18937   3.659   7.836   0.981 -0.0574 -0.1759 -0.5947
38192SOL    HW118938   3.731   7.818   1.042 -0.4818 -2.8591 -0.7658
38192SOL    HW218939   3.687   7.914   0.934  0.5599  1.6747  2.5494
38193SOL     OW18940   2.560   2.717  10.308  0.2813  0.1504 -0.0973
38193SOL    HW118941   2.555   2.807  10.276  4.6622 -0.1607 -2.3276
38193SOL    HW218942   2.558   2.725  10.403 -0.4271  2.4304 -0.2354
38194SOL     OW18943   0.082   6.150   1.885  0.6543 -0.4274  0.4115
38194SOL    HW118944   0.119   6.147   1.796 -0.6654  0.0911 -0.1831
38194SOL    HW218945   0.038   6.235   1.889  1.1032 -0.2386  1.7477
38195SOL     OW18946   2.394  10.341   4.093 -0.0281  0.2272  0.1730
38195SOL    HW118947   2.321  10.400   4.113 -0.3597  0.3142 -1.1597
38195SOL    HW218948   2.353  10.266   4.049  0.5832 -0.1705  0.2679
38196SOL     OW18949   8.096   4.870   0.334 -0.1288  0.5580 -0.2459
38196SOL    HW118950   8.076   4.836   0.247  1.1644  1.7799 -1.0731
38196SOL    HW218951   8.012   4.900   0.368 -0.9657 -1.6400 -0.2516
38197SOL     OW18952   0.339   1.889   9.067 -0.1766  0.8211 -0.5019
38197SOL    HW118953   0.353   1.848   8.982 -1.9705  0.1572 -0.5150
38197SOL    HW218954   0.269   1.838   9.107  0.3386  1.3952  1.2003
38198SOL     OW18955  10.507   6.212   9.879 -0.0354  0.2514  0.4062
38198SOL    HW118956  10.433   6.157   9.854  0.2606  0.7372 -1.7355
38198SOL    HW218957  10.580   6.178   9.827  0.4465  1.8515 -0.0194
38199SOL     OW18958   2.395   1.028   5.110  0.2810  0.2929  0.4275
38199SOL    HW118959   2.425   1.045   5.199 -0.0882 -0.3810  0.6901
38199SOL    HW218960   2.301   1.047   5.112 -0.0505 -1.2058  0.6093
38200SOL     OW18961   3.607   6.629   7.948  0.0670 -0.6896  0.2726
38200SOL    HW118962   3.700   6.605   7.944 -0.0458 -1.3732  1.2811
38200SOL    HW218963   3.561   6.552   7.913 -0.1019 -0.1705 -0.6599
38201SOL     OW18964   5.556   9.752   9.656 -0.0667 -0.1198 -0.3778
38201SOL    HW118965   5.569   9.816   9.726  0.0824  0.3165 -0.7954
38201SOL    HW218966   5.542   9.669   9.701 -1.1715  0.3597  0.2035
38202SOL     OW18967   2.429   1.980   7.178 -0.5257  0.0142  0.0822
38202SOL    HW118968   2.481   1.903   7.160 -1.8918 -1.5321  2.2537
38202SOL    HW218969   2.482   2.031   7.240  0.0807  0.5049 -0.8223
38203SOL     OW18970   7.756   9.653   3.637 -0.3695  0.1986 -0.3641
38203SOL    HW118971   7.799   9.720   3.689 -1.1939 -1.2639  2.4351
38203SOL    HW218972   7.822   9.586   3.623  0.0313  0.8597 -1.8674
38204SOL     OW18973   2.629   0.047   7.359 -0.2981  0.1129  0.3198
38204SOL    HW118974   2.600  -0.039   7.328 -0.3258 -0.1786  1.1334
38204SOL    HW218975   2.695   0.028   7.426 -0.3741  0.7185  0.5746
38205SOL     OW18976   4.994   9.997   7.794 -0.3169 -0.6003  0.3686
38205SOL    HW118977   4.977  10.080   7.838  1.0146 -0.2024  0.1881
38205SOL    HW218978   4.908   9.967   7.765 -0.9430  0.2136  1.3091
38206SOL     OW18979   5.573   4.832   7.302  0.1451 -0.1560 -0.6093
38206SOL    HW118980   5.623   4.911   7.284  0.2408  0.2795  1.3733
38206SOL    HW218981   5.483   4.855   7.280  0.2857  0.2291 -0.7906
38207SOL     OW18982   5.467   9.836   0.541  0.5976  0.0441  0.1851
38207SOL    HW118983   5.439   9.859   0.452 -0.6815 -1.2238  0.2222
38207SOL    HW218984   5.539   9.896   0.560 -0.5899  1.9053 -0.8432
38208SOL     OW18985  10.247   8.362   1.835 -0.3852 -0.1017  0.0452
38208SOL    HW118986  10.245   8.270   1.862 -0.8537 -0.0288  0.2826
38208SOL    HW218987  10.180   8.404   1.890  0.2219  0.4933  0.3355
38209SOL     OW18988   9.345   1.408   2.191  0.8657 -0.3179 -0.6760
38209SOL    HW118989   9.312   1.406   2.281  0.6506  1.7705 -0.6529
38209SOL    HW218990   9.367   1.317   2.171  2.1697 -0.6645  1.9454
38210SOL     OW18991   9.580  10.700   8.072  0.7217 -0.1776  0.3025
38210SOL    HW118992   9.506  10.733   8.020  1.1139 -2.1658 -1.6766
38210SOL    HW218993   9.654  10.702   8.011  1.1721 -2.7632  0.6653
38211SOL     OW18994   9.113   0.131   2.277  0.1826 -0.5796  0.3399
38211SOL    HW118995   9.088   0.140   2.369  1.7203 -0.0322  0.7246
38211SOL    HW218996   9.056   0.192   2.231  1.3391  1.2847  1.2991
38212SOL     OW18997   4.780   3.232   9.127 -0.2471 -0.6585  0.0946
38212SOL    HW118998   4.786   3.281   9.045  0.1289  2.1461  1.6895
38212SOL    HW218999   4.869   3.201   9.143  0.2187  0.8175  0.5488
38213SOL     OW19000   7.766   6.905   4.494  0.3174  0.4473  0.1453
38213SOL    HW119001   7.695   6.959   4.529  0.1300 -0.4106  1.1750
38213SOL    HW219002   7.722   6.832   4.450  0.5041 -0.5656  1.5500
38214SOL     OW19003   4.770   0.983   4.913  0.0065 -0.3942 -0.4722
38214SOL    HW119004   4.777   1.076   4.890  0.5912 -0.0077  1.1567
38214SOL    HW219005   4.858   0.958   4.942  0.5862 -2.2107 -3.3354
38215SOL     OW19006   9.796   0.970   9.725  0.0792 -0.0468  0.3191
38215SOL    HW119007   9.707   0.970   9.690  1.0735  0.4876 -2.4199
38215SOL    HW219008   9.834   0.887   9.696  0.7761  0.1562  0.6260
38216SOL     OW19009   4.495   3.276   9.547 -0.0320 -0.2452 -0.0058
38216SOL    HW119010   4.551   3.295   9.472  2.3598 -1.1430  1.4359
38216SOL    HW219011   4.512   3.348   9.608  0.9586 -1.4281  1.1621
38217SOL     OW19012   8.369   0.653   2.781  0.0030  0.3134 -0.5376
38217SOL    HW119013   8.446   0.684   2.732  3.2684 -1.4270  3.0133
38217SOL    HW219014   8.338   0.730   2.828  1.0081  0.5943 -0.3100
38218SOL     OW19015   8.587   0.974   9.325  0.3198 -0.0287  0.6418
38218SOL    HW119016   8.576   1.058   9.369 -0.0949 -0.6778  1.8048
38218SOL    HW219017   8.542   0.911   9.381  0.1863 -0.9565 -0.4722
38219SOL     OW19018   1.082  10.452   5.862  0.4217 -0.3701 -0.2274
38219SOL    HW119019   1.025  10.381   5.893  0.5577 -0.4928 -0.2583
38219SOL    HW219020   1.147  10.463   5.930 -0.3356  0.5796  0.3603
38220SOL     OW19021   9.916   5.944   9.053 -0.2966  0.3987 -0.0237
38220SOL    HW119022   9.984   5.914   9.113 -1.3759 -1.4810  0.3228
38220SOL    HW219023   9.960   6.010   8.999  1.2180  0.7561  1.5357
38221SOL     OW19024   7.641   3.718   8.898  0.4830 -0.2606 -0.5675
38221SOL    HW119025   7.629   3.765   8.981 -0.4090 -1.2450 -0.1234
38221SOL    HW219026   7.728   3.746   8.868  1.6499 -1.2823  1.6135
38222SOL     OW19027   4.260   5.881   7.222  0.3796  0.1589  0.4127
38222SOL    HW119028   4.263   5.843   7.134 -1.9150 -0.3868  0.4935
38222SOL    HW219029   4.325   5.951   7.220 -0.8729  1.4228 -2.3706
38223SOL     OW19030   3.459   5.684   4.350 -0.2274 -0.0538  0.1968
38223SOL    HW119031   3.553   5.671   4.338 -0.0058  1.6571 -0.2328
38223SOL    HW219032   3.452   5.721   4.438 -0.7141 -1.8639  0.9625
38224SOL     OW19033   1.579   7.868   9.030  0.3288 -0.4054  0.2677
38224SOL    HW119034   1.617   7.941   8.981  0.9303  0.7826  2.3768
38224SOL    HW219035   1.649   7.803   9.035  0.2126 -0.5967 -0.5568
38225SOL     OW19036  10.670   7.781   2.832 -0.2738 -0.1735 -0.3728
38225SOL    HW119037  10.592   7.833   2.815 -0.5454  0.3533  2.1139
38225SOL    HW219038  10.661   7.705   2.774 -1.5352  0.9139 -1.6718
38226SOL     OW19039   7.466   4.781   8.260  0.7484 -0.0242  0.3935
38226SOL    HW119040   7.557   4.806   8.243  0.8405 -0.3651  0.3722
38226SOL    HW219041   7.454   4.701   8.208  0.3093  0.2544  0.0601
38227SOL     OW19042   4.569   7.148   9.491 -0.5281  0.2034  0.3349
38227SOL    HW119043   4.583   7.113   9.403  2.2467  1.3380  0.1988
38227SOL    HW219044   4.531   7.235   9.476 -1.4447 -0.1908  0.3468
38228SOL     OW19045   8.538   6.032   7.654  0.6776  0.2927  0.2877
38228SOL    HW119046   8.528   5.980   7.734  0.7802  0.2763  0.2904
38228SOL    HW219047   8.632   6.027   7.634  0.3629 -1.2865 -0.9086
38229SOL     OW19048   1.196   5.282   3.818 -0.5582  0.2988  0.2043
38229SOL    HW119049   1.229   5.314   3.735 -1.1425  0.2426 -0.0580
38229SOL    HW219050   1.217   5.352   3.881 -3.1713  2.0174 -0.6354
38230SOL     OW19051  11.030   9.169   4.337 -0.3197 -0.0397  0.0191
38230SOL    HW119052  11.101   9.216   4.381  0.6266 -1.2771 -0.1505
38230SOL    HW219053  11.001   9.229   4.268 -0.1704  0.9065  0.7496
38231SOL     OW19054   2.652   5.855   9.501 -0.0602 -0.0510  0.0511
38231SOL    HW119055   2.624   5.876   9.590 -1.0285  1.3821 -0.5531
38231SOL    HW219056   2.613   5.769   9.483  0.4720 -0.5240  1.1346
38232SOL     OW19057   7.114   8.787   3.951 -0.0811 -0.3923  0.2615
38232SOL    HW119058   7.184   8.851   3.939  0.1303 -0.7225 -0.2620
38232SOL    HW219059   7.041   8.838   3.986 -0.4695  0.4644 -1.6885
38233SOL     OW19060  10.845  10.849   9.513  0.4420  0.0959  0.6182
38233SOL    HW119061  10.840  10.816   9.423  1.9446  0.7827  0.2445
38233SOL    HW219062  10.755  10.869   9.537 -0.0551 -0.7078 -0.4938
38234SOL     OW19063   4.728   2.841   4.515  0.1951 -0.5716  0.0657
38234SOL    HW119064   4.764   2.822   4.601  0.4348  0.0755  0.1095
38234SOL    HW219065   4.633   2.832   4.527  0.2112 -0.2437  0.4574
38235SOL     OW19066   7.073   2.803   7.744 -0.1339 -0.1342 -0.6665
38235SOL    HW119067   7.063   2.872   7.678  0.6986 -0.0934 -0.7596
38235SOL    HW219068   7.144   2.835   7.800  0.8572 -1.3026 -1.2107
38236SOL     OW19069   7.130   1.440   9.166  0.7634 -0.2159 -0.3997
38236SOL    HW119070   7.070   1.496   9.118  1.7411  0.4016 -0.9420
38236SOL    HW219071   7.131   1.476   9.255  2.5009  1.6400 -1.0836
38237SOL     OW19072   4.620   7.259   7.623  0.3345 -0.6339 -0.2088
38237SOL    HW119073   4.693   7.220   7.672 -0.0228  0.4075  1.2166
38237SOL    HW219074   4.661   7.302   7.549  1.3371  0.8082  1.1123
38238SOL     OW19075   1.097   2.048   3.071  0.1372  0.5640  0.0658
38238SOL    HW119076   1.185   2.010   3.072 -0.5071 -1.0178  0.4391
38238SOL    HW219077   1.080   2.071   3.162 -0.4023 -0.6085  0.2863
38239SOL     OW19078   1.371   4.101   2.997  0.2420 -0.3441 -0.3315
38239SOL    HW119079   1.380   4.185   2.952 -1.3116 -0.4173 -0.8231
38239SOL    HW219080   1.376   4.036   2.927  1.2134 -0.6770  0.0213
38240SOL     OW19081   8.157   8.366  10.474 -0.0285 -0.2092  0.0920
38240SOL    HW119082   8.063   8.357  10.456  0.3380 -0.5657 -1.7936
38240SOL    HW219083   8.175   8.459  10.459  0.2654 -0.4949 -1.4413
38241SOL     OW19084   0.972   8.226   5.795 -0.2149 -0.6075  0.4384
38241SOL    HW119085   0.969   8.303   5.738 -0.5371  0.2298  1.5465
38241SOL    HW219086   0.896   8.173   5.768  0.1787 -0.7069 -0.5266
38242SOL     OW19087   5.330   5.678   6.663 -0.0754  0.1885  0.6422
38242SOL    HW119088   5.305   5.601   6.714 -1.2238 -0.7138 -1.1589
38242SOL    HW219089   5.296   5.752   6.712 -0.8099 -0.6051  1.3762
38243SOL     OW19090   9.778   3.796   8.487  0.8504  0.1777  0.0957
38243SOL    HW119091   9.716   3.810   8.415  1.0990 -1.0709 -0.3927
38243SOL    HW219092   9.821   3.713   8.465 -0.3931 -1.2511  2.6402
38244SOL     OW19093   3.493   1.165   9.575  0.5145  0.2835 -0.1895
38244SOL    HW119094   3.575   1.117   9.564  0.3536 -0.1494  0.4491
38244SOL    HW219095   3.478   1.208   9.490  1.2776  0.1818 -0.3770
38245SOL     OW19096   1.125   6.572   6.884  0.4007 -0.0609  0.2917
38245SOL    HW119097   1.054   6.567   6.820  0.8190  2.6831 -0.5141
38245SOL    HW219098   1.098   6.639   6.946  1.8564  0.3336  0.5374
38246SOL     OW19099   4.419   8.792   2.656  0.0282  0.1495 -0.3310
38246SOL    HW119100   4.442   8.879   2.624 -1.1858  0.4517 -0.4329
38246SOL    HW219101   4.384   8.747   2.580 -1.6586  0.4321  0.2348
38247SOL     OW19102   9.898   7.078   9.063  0.0460 -0.6697  0.1217
38247SOL    HW119103   9.846   7.044   9.136 -0.5248 -2.0332 -0.8592
38247SOL    HW219104   9.833   7.116   9.004  0.2011 -1.7439 -0.7787
38248SOL     OW19105   4.177   4.660   0.171 -0.2871  0.1909 -0.0752
38248SOL    HW119106   4.177   4.684   0.263  1.2689 -1.5739  0.4468
38248SOL    HW219107   4.259   4.612   0.158 -0.9532 -0.5350 -2.1214
38249SOL     OW19108   0.134   2.224   1.338 -0.1002  1.3560  0.1197
38249SOL    HW119109   0.122   2.190   1.250 -1.7429  1.4944  0.2653
38249SOL    HW219110   0.046   2.245   1.369  0.4587  1.5840  1.6903
38250SOL     OW19111   4.601  10.983   5.818  0.5345 -0.1796  0.1990
38250SOL    HW119112   4.645  11.044   5.758 -2.2955  0.2879 -1.5865
38250SOL    HW219113   4.601  11.028   5.902  2.1099  0.4350 -0.1012
38251SOL     OW19114   5.141   0.260  10.476 -0.2917  0.7859 -0.7570
38251SOL    HW119115   5.070   0.295  10.529 -0.1660  0.3802 -0.3120
38251SOL    HW219116   5.183   0.338  10.439  1.6854  1.3951  2.3613
38252SOL     OW19117   8.424  10.367   3.840  0.3153 -0.1605  0.0768
38252SOL    HW119118   8.379  10.286   3.865 -1.0388  0.0859 -1.4286
38252SOL    HW219119   8.355  10.425   3.810  1.5964  0.2077 -2.4540
38253SOL     OW19120   4.937   3.883   0.981 -0.7464  0.1716 -0.5903
38253SOL    HW119121   4.864   3.824   0.962 -0.5436 -0.7867  1.3919
38253SOL    HW219122   4.987   3.839   1.050 -0.4866  2.5576  0.8736
38254SOL     OW19123  10.656   9.207   7.845  0.3688  0.5361  0.0465
38254SOL    HW119124  10.682   9.197   7.937  1.1921 -0.7612 -0.2910
38254SOL    HW219125  10.583   9.268   7.847  1.2235  1.5835  1.4304
38255SOL     OW19126   8.833   0.651   9.302  0.3140 -0.5743 -0.0570
38255SOL    HW119127   8.776   0.576   9.281 -0.6902 -0.0497  0.6680
38255SOL    HW219128   8.848   0.694   9.218  1.3986 -1.8942 -0.5843
38256SOL     OW19129   8.951   6.007   4.187 -0.3113  0.2687 -0.5872
38256SOL    HW119130   8.883   5.978   4.126 -0.3677  0.8373 -0.7928
38256SOL    HW219131   8.909   6.075   4.239 -0.5472 -0.8202  0.7002
38257SOL     OW19132   6.755   7.851   2.891 -0.1848 -0.1074 -0.0621
38257SOL    HW119133   6.684   7.875   2.949  2.8115  2.2188  3.0565
38257SOL    HW219134   6.795   7.774   2.933 -0.7028 -1.3515 -1.7378
38258SOL     OW19135  10.378   0.239   7.938 -0.2670  0.7044 -1.1117
38258SOL    HW119136  10.288   0.270   7.951  0.1124  1.8779 -1.1139
38258SOL    HW219137  10.376   0.193   7.855 -1.0885 -0.2185 -0.5989
38259SOL     OW19138   1.695   3.766   1.432 -0.0591 -0.1389  0.4915
38259SOL    HW119139   1.661   3.851   1.403 -1.7104 -0.8382  0.3005
38259SOL    HW219140   1.653   3.751   1.516  2.6125  0.6087  2.0873
38260SOL     OW19141   6.341   3.269   2.847 -0.2316 -0.2567  0.1941
38260SOL    HW119142   6.302   3.338   2.901 -1.1273 -0.8422  0.3141
38260SOL    HW219143   6.279   3.197   2.853  1.3314 -1.5975  1.1975
38261SOL     OW19144   1.540   0.468   6.266 -0.7361  0.1235 -0.4644
38261SOL    HW119145   1.592   0.453   6.187  0.0417  1.9173 -0.3540
38261SOL    HW219146   1.597   0.440   6.338 -0.7402  0.1611 -0.4466
38262SOL     OW19147   1.048   5.700   9.413  0.3278  0.5916  0.0389
38262SOL    HW119148   1.034   5.649   9.333 -1.3127 -1.5404  1.5497
38262SOL    HW219149   0.990   5.776   9.404  0.6232  0.7011 -1.0303
38263SOL     OW19150   8.541  10.674   7.289 -0.5377 -0.0198  0.7408
38263SOL    HW119151   8.497  10.757   7.270 -1.5704 -0.8977 -0.8681
38263SOL    HW219152   8.590  10.654   7.210 -0.2016 -0.8974  1.1591
38264SOL     OW19153   9.289   0.224   0.853 -0.1186 -0.1061  0.1110
38264SOL    HW119154   9.357   0.290   0.839 -0.1078 -0.2228 -0.3975
38264SOL    HW219155   9.333   0.141   0.837 -0.4028 -0.1764 -0.2910
38265SOL     OW19156   9.399   2.465   8.702 -0.0742  0.7051  0.1572
38265SOL    HW119157   9.441   2.551   8.698  2.0802 -0.2821  0.7233
38265SOL    HW219158   9.471   2.402   8.707 -1.5952 -1.1560 -0.0941
38266SOL     OW19159   9.635   1.122   8.307 -0.0857  0.0014 -0.3108
38266SOL    HW119160   9.550   1.079   8.315 -0.3765  0.6496  0.1816
38266SOL    HW219161   9.614   1.215   8.292  0.5323  0.2835  0.5029
38267SOL     OW19162   2.847  10.614   4.237 -0.4560 -0.0942 -0.1923
38267SOL    HW119163   2.818  10.706   4.241 -0.2776 -0.0539  0.2517
38267SOL    HW219164   2.781  10.566   4.287 -0.1376 -0.0994  0.2232
38268SOL     OW19165  10.287   8.843   8.306 -0.1280 -0.4676  0.7676
38268SOL    HW119166  10.314   8.910   8.244  0.5166 -0.2146  1.3136
38268SOL    HW219167  10.247   8.774   8.251 -0.0299 -0.0253  0.1320
38269SOL     OW19168   2.275   0.479   3.703  0.3337 -0.3621  0.2857
38269SOL    HW119169   2.317   0.398   3.732 -0.5577 -0.9804 -0.1028
38269SOL    HW219170   2.332   0.513   3.634 -0.1732 -1.5886 -0.7662
38270SOL     OW19171   4.296   2.868  10.192 -0.3555  0.5408 -0.1060
38270SOL    HW119172   4.208   2.899  10.211 -0.4610 -0.3832  0.9610
38270SOL    HW219173   4.353   2.939  10.223 -0.6301  0.0698  1.5509
38271SOL     OW19174   3.475   5.405   5.022  0.2736  0.3055  0.7557
38271SOL    HW119175   3.559   5.435   4.988  0.7702 -2.7027 -0.9620
38271SOL    HW219176   3.495   5.366   5.107  0.5314  0.0202  0.5633
38272SOL     OW19177   3.961   4.907   0.402 -0.4170  0.3589  0.2181
38272SOL    HW119178   3.885   4.959   0.430  1.0256  2.7377 -0.0215
38272SOL    HW219179   3.979   4.938   0.313 -0.6048 -1.9678 -0.6942
38273SOL     OW19180   3.433   1.555  11.008 -0.5087 -0.4062 -0.3369
38273SOL    HW119181   3.377   1.610  10.952  2.3394  1.8696 -1.2181
38273SOL    HW219182   3.518   1.557  10.965  0.4841 -3.2198  1.2489
38274SOL     OW19183  10.505   2.769   3.474 -0.1907 -0.4329  0.1948
38274SOL    HW119184  10.500   2.861   3.499 -1.6485  0.0917 -1.8082
38274SOL    HW219185  10.468   2.722   3.549 -0.2694  0.6753  0.8745
38275SOL     OW19186   8.948   2.881   0.483 -0.2716  0.3638 -0.2188
38275SOL    HW119187   9.013   2.950   0.500  0.7843 -0.6436 -0.0376
38275SOL    HW219188   8.878   2.898   0.545  0.2050  0.9991  0.1581
38276SOL     OW19189   6.225   4.559   3.471 -0.6185  0.1427 -0.5571
38276SOL    HW119190   6.270   4.596   3.395 -2.2043  2.0380 -0.6626
38276SOL    HW219191   6.283   4.579   3.545 -0.5735  1.2563 -0.8657
38277SOL     OW19192   5.237   8.747   0.757  0.2261 -1.0700  0.1077
38277SOL    HW119193   5.171   8.765   0.690  0.9012 -0.2711 -0.3606
38277SOL    HW219194   5.237   8.826   0.811  0.6281 -1.1674  0.2470
38278SOL     OW19195   9.833   2.960   0.064  0.5370  0.0061 -0.3208
38278SOL    HW119196   9.760   2.993   0.012 -0.5549  0.4051  1.3719
38278SOL    HW219197   9.883   3.038   0.088  1.4304 -0.2435 -1.2897
38279SOL     OW19198  10.914   1.683   7.170 -0.1863  0.0909 -0.3253
38279SOL    HW119199  10.931   1.743   7.097 -1.4535  1.1002  0.1793
38279SOL    HW219200  10.854   1.618   7.134  0.1523 -0.1214 -0.5104
38280SOL     OW19201   2.466   4.990   6.646  0.0235 -0.0756 -1.0422
38280SOL    HW119202   2.461   4.894   6.653 -0.6001 -0.0736 -1.4506
38280SOL    HW219203   2.378   5.017   6.619 -0.1273  0.7146  0.1821
38281SOL     OW19204   0.406   0.501  10.206  0.1140  0.1702 -0.0956
38281SOL    HW119205   0.459   0.574  10.174 -0.9724  0.5147 -1.2038
38281SOL    HW219206   0.333   0.544  10.252  0.6341 -0.2858  1.1835
38282SOL     OW19207   9.183   5.831   7.183 -0.4450 -0.3127  0.1236
38282SOL    HW119208   9.273   5.864   7.179  0.5886 -2.9625 -0.8137
38282SOL    HW219209   9.167   5.817   7.277  0.9848 -1.8261  0.1911
38283SOL     OW19210   8.076   2.052   1.429 -0.2383  0.1300  0.2612
38283SOL    HW119211   7.985   2.058   1.399 -0.5018  2.0399  1.3119
38283SOL    HW219212   8.128   2.074   1.352 -0.7875  1.6594  0.3041
38284SOL     OW19213   2.083  10.551   7.611  0.0988  0.0234 -0.0716
38284SOL    HW119214   2.151  10.485   7.626  1.5167  0.8319 -2.3193
38284SOL    HW219215   2.025  10.512   7.546  0.7501  0.7884 -1.1572
38285SOL     OW19216   2.307   7.489   3.064  0.4739  0.3208 -0.0502
38285SOL    HW119217   2.262   7.473   3.147  2.0005 -0.7710  0.6231
38285SOL    HW219218   2.360   7.567   3.080  0.6859  0.1732 -0.0356
38286SOL     OW19219  10.938   3.316   0.106  0.0008 -0.4411  0.5387
38286SOL    HW119220  11.004   3.384   0.118  0.1305 -0.7263  1.5881
38286SOL    HW219221  10.880   3.350   0.039  0.5317  0.3448  0.4644
38287SOL     OW19222   2.834   0.016   2.392  0.3063  0.5215  0.1019
38287SOL    HW119223   2.843  -0.056   2.329  3.1107  1.1762 -0.3803
38287SOL    HW219224   2.799   0.089   2.340 -2.2726 -0.3153  0.5306
38288SOL     OW19225   9.702   8.717   6.228 -0.0739  0.1162  0.0518
38288SOL    HW119226   9.626   8.749   6.180 -0.6049 -0.0369  0.7691
38288SOL    HW219227   9.758   8.794   6.239 -0.5408  0.4267  0.2895
38289SOL     OW19228   2.708   6.249   3.356  0.1575  0.1058  0.3393
38289SOL    HW119229   2.676   6.224   3.269  1.1256 -1.8247  0.4928
38289SOL    HW219230   2.654   6.199   3.417  0.2214  0.6072  0.8191
38290SOL     OW19231   2.274   5.174   8.904  0.3398  0.4474 -0.1327
38290SOL    HW119232   2.276   5.182   9.000  0.9285 -0.6275 -0.0365
38290SOL    HW219233   2.201   5.114   8.887 -0.3340  1.3313 -0.4298
38291SOL     OW19234   1.846   6.999   4.651 -0.0672 -0.3476 -0.1830
38291SOL    HW119235   1.927   7.042   4.624 -0.7940  1.4325  0.3076
38291SOL    HW219236   1.873   6.913   4.682  1.9492  0.9406  1.9843
38292SOL     OW19237   2.525   0.177   5.831  0.4729  0.4680  0.3652
38292SOL    HW119238   2.478   0.123   5.895  0.9889  1.3823  1.5622
38292SOL    HW219239   2.611   0.191   5.871  0.5548  1.6713 -0.1972
38293SOL     OW19240   8.589   6.253   4.072 -0.2167 -0.1365 -0.0329
38293SOL    HW119241   8.553   6.164   4.063 -2.6903  0.8680 -0.9748
38293SOL    HW219242   8.601   6.283   3.982 -0.5275  0.8977  0.2586
38294SOL     OW19243   6.734   8.485   0.981 -0.5489 -0.3664  0.2464
38294SOL    HW119244   6.715   8.494   0.888  0.0731  0.2129  0.1697
38294SOL    HW219245   6.672   8.545   1.023 -1.7548 -1.6148  0.3261
38295SOL     OW19246   5.346   3.311   9.297 -0.5770  0.1279 -0.1584
38295SOL    HW119247   5.342   3.231   9.246 -2.6589  0.7194 -1.0108
38295SOL    HW219248   5.368   3.282   9.386  1.0088 -1.1042 -0.9060
38296SOL     OW19249   3.416   9.790   7.558  0.0971  0.2703  0.1585
38296SOL    HW119250   3.367   9.713   7.527 -0.2568  0.0410  1.2309
38296SOL    HW219251   3.356   9.863   7.544 -0.0083  0.1870  0.1687
38297SOL     OW19252   7.679  10.627   2.972  0.2014  0.3884 -0.1832
38297SOL    HW119253   7.632  10.684   2.911  0.1032 -0.5691 -1.0235
38297SOL    HW219254   7.613  10.566   3.004  0.4215  0.3944  0.2883
38298SOL     OW19255   5.648  10.949   1.539 -0.4882 -0.0841 -0.1081
38298SOL    HW119256   5.711  11.014   1.571 -0.6143  0.4243 -0.8481
38298SOL    HW219257   5.566  10.970   1.584 -0.3854 -0.0916  0.0820
38299SOL     OW19258   2.966   4.253   5.474 -0.5817  0.5427  0.1972
38299SOL    HW119259   3.024   4.278   5.546 -2.8986 -0.4613  2.5824
38299SOL    HW219260   2.898   4.320   5.473 -1.3861 -0.2525 -0.0104
38300SOL     OW19261   2.105   6.548   8.527  0.5515  0.3259 -0.5744
38300SOL    HW119262   2.019   6.508   8.540  0.9305 -0.0370  1.1156
38300SOL    HW219263   2.093   6.640   8.552  0.5651  0.3470 -0.6470
38301SOL     OW19264   4.592   4.528   8.710  0.4956 -0.4617 -0.3318
38301SOL    HW119265   4.597   4.491   8.622  0.0862 -0.3281 -0.4122
38301SOL    HW219266   4.517   4.485   8.750 -0.8449  1.2426 -0.8861
38302SOL     OW19267   1.165   0.927   1.066 -0.0994  0.2138  0.4376
38302SOL    HW119268   1.124   0.841   1.058  1.6156 -0.7756  1.7685
38302SOL    HW219269   1.091   0.986   1.084 -1.0593 -1.4171  2.2691
38303SOL     OW19270   9.737   6.841   7.249  0.1845  0.3832 -0.0901
38303SOL    HW119271   9.699   6.879   7.170 -1.2651  0.0961  0.4407
38303SOL    HW219272   9.682   6.875   7.320 -0.3369 -1.6153  0.5120
38304SOL     OW19273   6.607   1.171  10.196 -0.1075  0.0924  0.0358
38304SOL    HW119274   6.549   1.246  10.206 -0.5158 -0.1954 -0.1637
38304SOL    HW219275   6.686   1.208  10.157  0.2977  0.6786  1.3569
38305SOL     OW19276   6.765   9.353   0.402 -0.7042  0.2533 -0.2687
38305SOL    HW119277   6.681   9.336   0.446 -1.3662  0.9600 -1.2111
38305SOL    HW219278   6.775   9.282   0.339  0.3300 -0.8565  1.0918
38306SOL     OW19279   3.003   6.083   9.112 -0.2902 -0.6729  0.3980
38306SOL    HW119280   2.932   6.053   9.169 -0.6479 -0.1803  0.2121
38306SOL    HW219281   3.078   6.029   9.138 -0.4684 -0.5176  1.2866
38307SOL     OW19282  11.051   1.260   5.362  0.2465 -0.4063  0.0541
38307SOL    HW119283  11.022   1.331   5.420 -0.8353 -1.2956  0.6510
38307SOL    HW219284  11.072   1.188   5.422 -0.9787 -1.3801 -0.6228
38308SOL     OW19285   0.434   8.376   9.504 -0.3107  0.1467 -0.5808
38308SOL    HW119286   0.462   8.461   9.470  2.0788 -0.5608 -0.5388
38308SOL    HW219287   0.461   8.313   9.437 -1.6157 -0.6605 -0.3982
38309SOL     OW19288   5.534   9.322   6.166 -0.1980 -0.4310  0.1818
38309SOL    HW119289   5.476   9.341   6.240  0.6490 -2.6663  1.5092
38309SOL    HW219290   5.485   9.262   6.111 -0.6010  0.7783 -0.8363
38310SOL     OW19291   0.812   6.463   1.968  0.2208  0.1107  0.0741
38310SOL    HW119292   0.751   6.522   1.925  0.4098  0.8653  0.8234
38310SOL    HW219293   0.784   6.462   2.059 -0.8991 -2.3672 -0.2016
38311SOL     OW19294  10.459  10.636   2.022 -0.2009 -0.3112 -0.4571
38311SOL    HW119295  10.473  10.704   1.956  1.1077 -0.4315 -0.3306
38311SOL    HW219296  10.400  10.574   1.980  0.1069 -0.0553 -1.2844
38312SOL     OW19297   7.424   1.601   2.948  0.3730 -0.1998 -0.2274
38312SOL    HW119298   7.365   1.601   2.873  1.0561  1.2818 -0.7983
38312SOL    HW219299   7.512   1.606   2.911  0.6815  2.2331  0.5935
38313SOL     OW19300  10.929   1.582   4.401  0.1295 -0.0092 -0.0539
38313SOL    HW119301  11.007   1.637   4.413  1.6701 -2.2980  1.2799
38313SOL    HW219302  10.908   1.591   4.309  1.5750  1.2143 -0.3111
38314SOL     OW19303   1.131  10.129   8.735 -0.4508 -0.1571 -0.1311
38314SOL    HW119304   1.187  10.157   8.808 -1.7407  0.2922  0.7300
38314SOL    HW219305   1.162  10.181   8.661  1.2837 -1.0528 -0.0935
38315SOL     OW19306   9.676   4.636   3.002 -0.1820 -0.3204  0.1260
38315SOL    HW119307   9.739   4.609   3.069  0.3023 -0.8729 -0.5493
38315SOL    HW219308   9.650   4.555   2.959  1.0326  0.1959 -1.6894
38316SOL     OW19309   6.563   4.783  10.113  0.2730  0.3562  0.1838
38316SOL    HW119310   6.526   4.802  10.027  0.9422 -1.0938 -0.4616
38316SOL    HW219311   6.616   4.859  10.134  0.6788  0.4249 -1.0217
38317SOL     OW19312  10.618   8.625   4.707 -0.3865  0.2034 -0.0830
38317SOL    HW119313  10.709   8.638   4.734 -0.5223 -1.2060  1.2506
38317SOL    HW219314  10.577   8.710   4.721  0.2363  0.2845  1.4874
38318SOL     OW19315   5.130   4.604   4.271  0.2519  0.1520 -0.3824
38318SOL    HW119316   5.154   4.543   4.201 -1.4573 -1.1309  0.0783
38318SOL    HW219317   5.102   4.548   4.343 -2.1720  1.4190 -0.2221
38319SOL     OW19318  10.835   3.832   8.766 -0.1284  0.1422 -0.3209
38319SOL    HW119319  10.844   3.745   8.729 -0.7542  0.0519 -0.2690
38319SOL    HW219320  10.766   3.874   8.714 -0.3290  0.3559  0.1028
38320SOL     OW19321   6.564   5.671  10.511 -0.0734  0.4466 -0.0508
38320SOL    HW119322   6.629   5.670  10.441 -0.1174  1.8030 -0.1228
38320SOL    HW219323   6.549   5.763  10.529 -1.0740  0.1313  0.8163
38321SOL     OW19324  10.208   2.371   8.400  0.2002  0.3131 -0.1746
38321SOL    HW119325  10.257   2.445   8.437 -1.5794  1.1884  0.5314
38321SOL    HW219326  10.222   2.300   8.462  1.7758  0.0602 -0.7610
38322SOL     OW19327   4.675   4.962   0.121 -1.0315  0.1706  0.1117
38322SOL    HW119328   4.605   4.937   0.181 -1.0260  0.0795  0.0803
38322SOL    HW219329   4.698   5.051   0.146  0.7092 -0.6975  1.9253
38323SOL     OW19330   3.767   5.590   3.940  0.3321 -0.0703  0.0534
38323SOL    HW119331   3.690   5.594   3.884  0.9822 -0.8810 -0.9297
38323SOL    HW219332   3.738   5.543   4.018  0.0176 -1.0496 -0.6393
38324SOL     OW19333   4.134   8.243   5.495 -0.3261 -0.4373 -0.1327
38324SOL    HW119334   4.143   8.285   5.581 -0.0401 -1.1465  0.1884
38324SOL    HW219335   4.100   8.155   5.514  0.2813 -0.8022 -0.7016
38325SOL     OW19336   6.039   1.688   2.136  0.0762 -0.5488  0.0634
38325SOL    HW119337   6.117   1.733   2.168  0.1278 -1.6604  1.5836
38325SOL    HW219338   5.966   1.735   2.177  0.1756 -2.6371  2.8874
38326SOL     OW19339   0.779  10.295   5.976 -0.7727  0.0635  0.5004
38326SOL    HW119340   0.743  10.353   5.908  0.8094  0.6672  0.1349
38326SOL    HW219341   0.804  10.354   6.047 -0.6160 -0.3579  0.7984
38327SOL     OW19342   3.459   1.961   6.811  0.3742  0.1252 -0.0378
38327SOL    HW119343   3.452   2.002   6.724  1.0810  0.4983  0.0799
38327SOL    HW219344   3.403   1.884   6.805 -1.0570  1.1294 -0.2443
38328SOL     OW19345   9.924   7.971   9.284  0.6845 -0.6203  0.3100
38328SOL    HW119346   9.898   8.063   9.286  1.6629 -0.3463  1.1728
38328SOL    HW219347   9.914   7.941   9.375  2.3720 -0.7553  0.4956
38329SOL     OW19348   5.628   7.440   6.966  0.0468  0.2630 -0.0015
38329SOL    HW119349   5.618   7.369   7.030  0.3815  0.7622  0.6124
38329SOL    HW219350   5.711   7.422   6.922 -1.1453 -1.2759 -1.8367
38330SOL     OW19351   7.040   6.454   8.439 -0.3340  0.4280 -0.1474
38330SOL    HW119352   6.984   6.482   8.511  0.0725  1.1170 -0.0842
38330SOL    HW219353   7.100   6.390   8.479 -0.3724  0.5044  0.0343
38331SOL     OW19354  10.487   9.623   5.620  0.6015 -0.1454 -0.0077
38331SOL    HW119355  10.408   9.573   5.599 -0.6501  1.7919 -0.1632
38331SOL    HW219356  10.559   9.570   5.585 -0.7639 -1.0452 -1.6133
38332SOL     OW19357   2.409   9.442   5.813  0.1168 -0.2585  0.4790
38332SOL    HW119358   2.455   9.396   5.883  1.5710 -1.3530 -1.1062
38332SOL    HW219359   2.325   9.397   5.807  0.2187 -0.5552  1.1112
38333SOL     OW19360  11.109   8.664  10.067 -0.5900  0.0935  0.0819
38333SOL    HW119361  11.115   8.627  10.155 -0.7395  1.3495  0.6424
38333SOL    HW219362  11.035   8.618  10.027  0.9030 -2.1629 -0.2573
38334SOL     OW19363   5.267   1.514   8.405 -0.2680  0.6310 -0.4125
38334SOL    HW119364   5.263   1.460   8.484 -1.5797  2.0048  0.5222
38334SOL    HW219365   5.294   1.600   8.437  3.3181  0.2917 -2.0676
38335SOL     OW19366   2.955  10.363   0.246 -0.4033  0.2751 -0.5909
38335SOL    HW119367   3.011  10.363   0.168 -2.4987  2.5040 -2.2869
38335SOL    HW219368   2.869  10.336   0.214 -1.1728  0.5548  1.1087
38336SOL     OW19369   2.884   9.398   5.772 -0.4558 -0.0761  0.0757
38336SOL    HW119370   2.847   9.442   5.696  0.5432  2.0030  0.7106
38336SOL    HW219371   2.923   9.468   5.824  0.8613 -1.6817  1.3931
38337SOL     OW19372   6.767   9.387   8.445 -0.0422 -0.4439 -0.1500
38337SOL    HW119373   6.739   9.299   8.469 -0.3222 -0.1733  0.5343
38337SOL    HW219374   6.711   9.411   8.371  0.4894 -1.0890 -0.7819
38338SOL     OW19375   5.821   7.519   3.977 -0.1701 -0.5843  0.1586
38338SOL    HW119376   5.734   7.491   3.949 -0.7459  0.9203  0.3218
38338SOL    HW219377   5.870   7.438   3.988 -1.2186 -1.4113 -0.9912
38339SOL     OW19378   6.330   3.313   0.868 -0.1773  0.0060 -0.2543
38339SOL    HW119379   6.350   3.268   0.786 -0.1162 -2.2957  0.9361
38339SOL    HW219380   6.241   3.347   0.856  0.5183  1.3448 -1.9008
38340SOL     OW19381   7.378   8.450   6.439 -0.3611  0.8041  0.1557
38340SOL    HW119382   7.374   8.356   6.454 -0.9977  0.9207  0.7688
38340SOL    HW219383   7.468   8.466   6.412 -0.7923 -0.2940 -2.1949
38341SOL     OW19384   5.726   0.696   6.043 -0.2521 -0.5508 -0.1978
38341SOL    HW119385   5.720   0.785   6.078 -0.1155  0.0586 -1.6585
38341SOL    HW219386   5.635   0.667   6.036 -0.3956  0.1024 -1.2208
38342SOL     OW19387   6.714   2.891   6.096 -0.5752  0.1638 -0.3764
38342SOL    HW119388   6.713   2.831   6.170 -2.0131 -0.9165 -1.2139
38342SOL    HW219389   6.791   2.866   6.045 -0.4896 -0.1685 -0.0849
38343SOL     OW19390   6.610   1.752   2.659 -0.6695  0.0111  0.1780
38343SOL    HW119391   6.550   1.680   2.645  1.2439 -1.9006  1.1303
38343SOL    HW219392   6.659   1.760   2.577 -0.9941  0.3556  0.0154
38344SOL     OW19393   4.010   8.706   0.485  0.0522  0.1679 -0.1064
38344SOL    HW119394   4.026   8.774   0.551 -0.7781 -0.2020  0.5032
38344SOL    HW219395   3.916   8.714   0.465  0.1375 -0.2215 -0.6881
38345SOL     OW19396   0.689   7.534   3.186  0.3166  0.5668 -0.1556
38345SOL    HW119397   0.732   7.524   3.101  2.4012  0.4815  0.8701
38345SOL    HW219398   0.704   7.625   3.210 -0.8078  0.7628 -0.1040
38346SOL     OW19399   1.585  10.761   1.971 -0.1557  0.0050 -0.6204
38346SOL    HW119400   1.593  10.671   2.005  0.0811  0.5190  0.7840
38346SOL    HW219401   1.676  10.792   1.966 -0.3281  0.9682  1.3032
38347SOL     OW19402   6.688   9.665   0.524 -0.2510 -0.4829 -0.1665
38347SOL    HW119403   6.700   9.760   0.529  1.0887 -0.6271 -0.1799
38347SOL    HW219404   6.688   9.636   0.616  1.3030 -0.6549 -0.1894
38348SOL     OW19405   4.391   5.545   9.696  0.0424  0.1085 -0.6057
38348SOL    HW119406   4.431   5.478   9.752  0.6151  1.1767  0.3190
38348SOL    HW219407   4.454   5.617   9.696  0.1259  0.1011 -2.7862
38349SOL     OW19408   2.736   8.575   2.502  0.0531 -0.3074 -0.0217
38349SOL    HW119409   2.747   8.589   2.597 -2.0875 -0.6135  0.3269
38349SOL    HW219410   2.793   8.502   2.482  0.5461 -0.2416  1.0407
38350SOL     OW19411   7.688   4.214   6.617 -0.3149  0.1072 -0.3602
38350SOL    HW119412   7.638   4.136   6.640  0.1425 -0.3818 -0.9709
38350SOL    HW219413   7.749   4.226   6.690 -2.5784  1.8835  1.3951
38351SOL     OW19414   5.088   0.369   7.404 -0.3875  0.2904  0.8381
38351SOL    HW119415   5.178   0.377   7.374 -0.4416  0.0664  0.6145
38351SOL    HW219416   5.036   0.369   7.324 -0.6749  1.4725  1.0000
38352SOL     OW19417   3.911   7.607  10.522 -0.5223 -0.0740  0.2264
38352SOL    HW119418   3.865   7.524  10.512  1.2442 -1.0501 -0.2816
38352SOL    HW219419   3.985   7.601  10.461  0.2345  1.4370  0.9299
38353SOL     OW19420   5.925   3.179  10.056  0.5922 -0.0370  0.0048
38353SOL    HW119421   5.966   3.252  10.010  0.9306  0.2193  0.7069
38353SOL    HW219422   5.856   3.220  10.109  0.9169 -0.2033  0.5553
38354SOL     OW19423   9.563  10.143   7.473 -0.3115  0.7629 -0.7707
38354SOL    HW119424   9.544  10.129   7.566 -0.9456 -0.0190 -1.0029
38354SOL    HW219425   9.477  10.158   7.433 -0.3929 -1.6548 -1.6664
38355SOL     OW19426  10.603  10.478  10.553 -0.2367  0.1726  0.2290
38355SOL    HW119427  10.643  10.397  10.585 -0.7394 -0.6458 -1.1095
38355SOL    HW219428  10.678  10.535  10.533  0.1554 -0.3076  0.3105
38356SOL     OW19429   7.869   8.608   1.624  0.0718 -0.1538 -0.5329
38356SOL    HW119430   7.865   8.687   1.678 -2.2882  0.1906 -1.0941
38356SOL    HW219431   7.941   8.623   1.563 -0.0496  1.3609 -0.3251
38357SOL     OW19432   9.341   5.383   5.500  0.3584 -0.1919 -0.0395
38357SOL    HW119433   9.406   5.388   5.570  0.4578 -1.7062  0.0041
38357SOL    HW219434   9.259   5.409   5.541  0.3477 -1.4050  0.7415
38358SOL     OW19435   1.375   3.482   3.221 -0.3052 -0.0251  0.2264
38358SOL    HW119436   1.309   3.520   3.162  1.1871 -0.8367 -2.1210
38358SOL    HW219437   1.451   3.540   3.212  1.0720 -1.9168 -1.2984
38359SOL     OW19438   2.547   0.783   2.478 -0.6615 -0.6241  0.2805
38359SOL    HW119439   2.546   0.879   2.471  1.0734 -0.5187  1.0468
38359SOL    HW219440   2.463   0.756   2.440 -2.0651  1.3162  1.7765
38360SOL     OW19441   3.933   2.134   9.411  0.4546 -0.2067  0.2705
38360SOL    HW119442   3.882   2.192   9.353  2.8954  0.8540 -0.9927
38360SOL    HW219443   3.988   2.194   9.461  0.3768 -1.2998  1.7000
38361SOL     OW19444   5.255  10.100   1.437 -0.4961 -0.0536 -0.5683
38361SOL    HW119445   5.336  10.058   1.466  0.6993  1.4724 -1.5553
38361SOL    HW219446   5.252  10.085   1.343 -0.3242  1.5349 -0.8547
38362SOL     OW19447   5.803  10.110   0.846  0.1756  0.1049  0.4164
38362SOL    HW119448   5.851  10.036   0.884 -2.7648 -1.5497  1.2075
38362SOL    HW219449   5.830  10.186   0.898  2.5975 -0.4910  0.1570
38363SOL     OW19450   6.848   4.573   9.984 -0.2363  0.1127 -0.3719
38363SOL    HW119451   6.759   4.563  10.019 -0.0094  0.1116  0.2149
38363SOL    HW219452   6.868   4.666   9.997  0.6523 -0.2885  1.5003
38364SOL     OW19453   5.085   7.755   8.494  0.3042  0.6707 -0.0665
38364SOL    HW119454   5.007   7.765   8.548 -0.1599 -2.3520  0.0246
38364SOL    HW219455   5.145   7.703   8.548  1.1436  0.3778 -1.2422
38365SOL     OW19456  10.555   4.568   5.770  0.2848 -0.0664  0.0867
38365SOL    HW119457  10.555   4.628   5.695 -0.1569 -0.3200 -0.1196
38365SOL    HW219458  10.484   4.597   5.825 -0.1385 -0.5870 -0.1725
38366SOL     OW19459   5.956   3.679   6.189  0.6089  1.1041  0.2780
38366SOL    HW119460   5.926   3.739   6.257 -0.5093 -0.1440  0.9431
38366SOL    HW219461   5.967   3.595   6.234 -1.4310 -0.1022 -1.2631
38367SOL     OW19462   8.917   0.070   5.705  0.1083  0.1779  0.3288
38367SOL    HW119463   9.008   0.041   5.691 -0.0075 -0.0460  0.0262
38367SOL    HW219464   8.925   0.163   5.725  0.3220  0.4571 -0.9224
38368SOL     OW19465   1.218   2.697   8.568 -0.4840  0.1697 -0.0978
38368SOL    HW119466   1.204   2.783   8.528 -2.2472 -0.7647 -1.6352
38368SOL    HW219467   1.309   2.699   8.597 -0.1054  2.0996 -1.2344
38369SOL     OW19468   2.706  10.396   4.740 -0.1480 -0.8264 -0.3238
38369SOL    HW119469   2.678  10.481   4.774  1.6529 -0.1609 -0.3790
38369SOL    HW219470   2.644  10.377   4.670  0.2250  1.1911 -1.3024
38370SOL     OW19471   9.881   8.002   3.431 -0.4784 -0.1916  0.3366
38370SOL    HW119472   9.955   7.985   3.489 -0.6426  1.6209  1.1149
38370SOL    HW219473   9.818   7.933   3.452  0.1490 -0.5453  1.1006
38371SOL     OW19474  10.619   9.939   6.290  0.2176 -0.3438  0.2063
38371SOL    HW119475  10.680  10.011   6.278  0.1039 -0.5836 -2.3209
38371SOL    HW219476  10.547   9.976   6.341  0.5740  1.0829 -0.2968
38372SOL     OW19477   1.100   6.312   4.596  0.1963  0.2762  0.5797
38372SOL    HW119478   1.151   6.240   4.558  1.0277  1.4821 -0.6762
38372SOL    HW219479   1.020   6.315   4.544  0.3591  0.5272  0.3394
38373SOL     OW19480   9.861   3.213   7.673  0.0052  0.1347 -0.5161
38373SOL    HW119481   9.789   3.150   7.672 -0.7592  0.9405  1.1422
38373SOL    HW219482   9.940   3.159   7.674 -0.6300 -0.8096  0.7843
38374SOL     OW19483   3.222   2.200   9.800 -0.1989 -0.2644 -0.3880
38374SOL    HW119484   3.270   2.280   9.777 -1.8487  0.1360 -2.8482
38374SOL    HW219485   3.136   2.232   9.828  0.4965 -1.0145  3.1093
38375SOL     OW19486   8.019   4.716   3.109 -0.0903 -0.7711  0.0589
38375SOL    HW119487   8.066   4.718   3.193 -0.2736  1.5040  0.1659
38375SOL    HW219488   7.996   4.623   3.097  1.7078 -1.4740  1.5004
38376SOL     OW19489   6.350  10.629   9.963  0.0905 -0.0142  0.1387
38376SOL    HW119490   6.328  10.694   9.896 -0.5673  0.2462  0.6030
38376SOL    HW219491   6.386  10.556   9.913 -2.2935 -0.6758 -0.7631
38377SOL     OW19492   2.818   6.292   9.832  0.0128  0.6894 -0.2132
38377SOL    HW119493   2.822   6.224   9.765  1.9518 -1.7115  2.1434
38377SOL    HW219494   2.735   6.338   9.814  0.9746  1.1112 -4.9070
38378SOL     OW19495   5.189   5.877   0.091  0.3131 -0.5926 -0.1281
38378SOL    HW119496   5.257   5.834   0.040  0.3958 -2.9149  1.7753
38378SOL    HW219497   5.114   5.885   0.031  0.8470 -1.9662 -0.9975
38379SOL     OW19498   0.858   9.881   0.983  0.1393  0.1233 -0.2755
38379SOL    HW119499   0.827   9.790   0.987  1.3029 -0.2482  1.6028
38379SOL    HW219500   0.782   9.933   1.011  0.6115 -0.6695  2.9069
38380SOL     OW19501   4.435   4.503   0.630  0.0598 -0.5502  0.1008
38380SOL    HW119502   4.505   4.534   0.573  0.9726 -2.7616 -0.0944
38380SOL    HW219503   4.374   4.458   0.572 -0.6727 -0.0652  0.4842
38381SOL     OW19504   4.196   8.566   0.330 -0.1520  0.5181 -0.1605
38381SOL    HW119505   4.144   8.620   0.390  0.1828  1.8475 -1.0436
38381SOL    HW219506   4.279   8.612   0.322 -0.1782  0.3453 -1.6268
38382SOL     OW19507   0.112   1.900   6.123  0.4309  0.8543 -0.0470
38382SOL    HW119508   0.175   1.863   6.185 -0.3346  1.0348  0.8618
38382SOL    HW219509   0.026   1.874   6.157  0.0083 -0.2769 -1.8384
38383SOL     OW19510   6.867   8.097   2.091 -0.4410  0.4182  0.3443
38383SOL    HW119511   6.946   8.129   2.134 -1.0730  2.6748 -0.0534
38383SOL    HW219512   6.888   8.099   1.997 -1.5728  3.1354  0.0548
38384SOL     OW19513   9.266   1.169   2.931 -0.3568  0.3334  0.0509
38384SOL    HW119514   9.221   1.088   2.907 -2.8853  1.0668  1.9412
38384SOL    HW219515   9.343   1.141   2.979 -0.0621 -0.9329 -1.0911
38385SOL     OW19516   1.298   9.493  10.093 -0.0381 -0.6963  0.6950
38385SOL    HW119517   1.330   9.407  10.119 -0.4486 -0.7135  1.1616
38385SOL    HW219518   1.299   9.544  10.174 -0.7882 -0.5733  0.6335
38386SOL     OW19519  10.449   4.934   1.984  0.0750 -0.0078  0.2020
38386SOL    HW119520  10.388   4.891   2.043 -0.2039  0.5792  0.3520
38386SOL    HW219521  10.451   4.879   1.906 -0.6893 -0.0036  0.1741
38387SOL     OW19522   8.236  10.802   7.548  0.4693 -0.0492  0.1584
38387SOL    HW119523   8.316  10.832   7.504  0.7294 -0.8215  0.0838
38387SOL    HW219524   8.259  10.796   7.640  0.8537 -1.3392  0.0006
38388SOL     OW19525   2.192   4.248   2.551 -0.5492 -0.0660  0.4051
38388SOL    HW119526   2.196   4.183   2.481 -0.9515  0.4912 -0.1503
38388SOL    HW219527   2.117   4.221   2.604  0.2181 -0.9168  1.0604
38389SOL     OW19528   8.898   4.774   6.496 -0.0117  0.0363  0.3337
38389SOL    HW119529   8.852   4.717   6.557 -0.5374 -0.7461 -0.7604
38389SOL    HW219530   8.847   4.855   6.496  0.5927  0.4470  1.6982
38390SOL     OW19531   4.664   1.639   4.937  0.2439  0.7050  0.0229
38390SOL    HW119532   4.704   1.599   5.015 -1.3809 -0.3462  0.3593
38390SOL    HW219533   4.695   1.730   4.938  0.7328  0.5475  1.5580
38391SOL     OW19534   5.734   4.686  11.109 -0.1917 -0.2186  0.1618
38391SOL    HW119535   5.740   4.778  11.132 -1.0241  0.4111 -1.9016
38391SOL    HW219536   5.765   4.681  11.019 -1.7661 -1.6438 -0.3766
38392SOL     OW19537  10.788   1.734  11.093 -0.4890 -0.1496 -0.5903
38392SOL    HW119538  10.841   1.774  11.161 -0.2686 -0.6123 -0.4828
38392SOL    HW219539  10.788   1.640  11.115  0.0142 -0.3814 -1.5101
38393SOL     OW19540   4.667  10.141   3.106 -0.0088  0.4779 -0.4911
38393SOL    HW119541   4.619  10.203   3.050  0.0874  1.1526  0.1636
38393SOL    HW219542   4.627  10.056   3.086 -3.6493  1.3168  2.1625
38394SOL     OW19543   8.188   5.325   9.745 -0.0082  0.0902 -0.2054
38394SOL    HW119544   8.230   5.410   9.730 -0.9021  0.3249 -1.5503
38394SOL    HW219545   8.198   5.310   9.839  2.5552  0.3878 -0.3457
38395SOL     OW19546   0.362   3.067   9.227  0.6578  0.0939  1.1169
38395SOL    HW119547   0.404   3.079   9.312 -1.2802 -0.2859  2.1648
38395SOL    HW219548   0.270   3.090   9.241 -0.3217 -2.6749 -0.1522
38396SOL     OW19549   8.688   5.648   2.921  0.2776  0.3265  0.3057
38396SOL    HW119550   8.617   5.681   2.976  0.1597  1.3104 -0.4235
38396SOL    HW219551   8.743   5.598   2.982 -0.0995  0.9991  1.2298
38397SOL     OW19552   4.560   2.387  10.283  0.1935 -0.1509  0.1636
38397SOL    HW119553   4.521   2.460  10.331  0.2947  0.3970 -0.5550
38397SOL    HW219554   4.654   2.397  10.296  0.1793 -0.4942  0.5358
38398SOL     OW19555  10.243   1.610   2.632 -0.1919 -0.4245 -0.4211
38398SOL    HW119556  10.220   1.662   2.709  0.5267  0.7177 -0.9569
38398SOL    HW219557  10.326   1.568   2.656  0.3477  0.4114 -0.7719
38399SOL     OW19558   8.891   3.655   2.151 -0.3313  0.4817  0.2095
38399SOL    HW119559   8.929   3.583   2.102  1.6200 -0.9211  3.5210
38399SOL    HW219560   8.831   3.614   2.213  1.0914  1.5412  2.4238
38400SOL     OW19561   8.986   0.681   7.597 -0.2772  0.0506  0.2741
38400SOL    HW119562   9.061   0.712   7.547 -0.3248 -2.6168 -1.6482
38400SOL    HW219563   8.919   0.750   7.584 -0.0381 -0.1457 -2.8340
38401SOL     OW19564   3.659   8.911   5.166  0.2552 -0.0201 -0.0345
38401SOL    HW119565   3.599   8.927   5.093  0.6679  1.6706 -0.0488
38401SOL    HW219566   3.739   8.877   5.125  0.0776 -0.1847 -0.2445
38402SOL     OW19567   9.566  10.191   2.301  0.1018 -0.2928  0.0816
38402SOL    HW119568   9.525  10.266   2.257 -0.5138 -0.5769  0.1515
38402SOL    HW219569   9.581  10.127   2.231 -0.5839 -0.6181  0.2217
38403SOL     OW19570   1.910   5.062   6.884 -0.3583  0.1427 -0.5240
38403SOL    HW119571   1.840   5.012   6.843 -1.6194  0.0573  1.6028
38403SOL    HW219572   1.970   4.996   6.919 -0.3975  0.1682 -0.4065
38404SOL     OW19573   1.792   7.423  10.407  0.2121 -0.0835  0.1000
38404SOL    HW119574   1.795   7.443  10.501 -1.6699  0.2549  0.1235
38404SOL    HW219575   1.729   7.485  10.371  0.4272 -0.6400 -1.2888
38405SOL     OW19576   3.852   9.781   7.324 -0.0523  0.1391  0.6351
38405SOL    HW119577   3.863   9.750   7.234  1.6932  0.9326  0.5489
38405SOL    HW219578   3.928   9.748   7.370 -0.6318  0.2565  1.7024
38406SOL     OW19579   0.386   6.673   3.795  0.1056  0.0873  0.2224
38406SOL    HW119580   0.310   6.621   3.767 -0.1529  0.0114  1.0530
38406SOL    HW219581   0.456   6.647   3.735  0.1567 -1.6877  1.0003
38407SOL     OW19582  10.179   8.834  10.821  0.3622 -0.5409 -0.8565
38407SOL    HW119583  10.211   8.923  10.811  0.3920 -0.7020 -2.4837
38407SOL    HW219584  10.096   8.832  10.772  0.4427 -1.4403 -0.9872
38408SOL     OW19585   8.768   4.602   3.287 -0.1794  0.1173  0.4296
38408SOL    HW119586   8.765   4.694   3.311  0.3420  0.4764 -0.7958
38408SOL    HW219587   8.704   4.593   3.217 -0.6242 -0.5807  0.9165
38409SOL     OW19588   7.849   6.306  10.024 -0.1000  0.2615 -0.0799
38409SOL    HW119589   7.812   6.287  10.110 -0.8705  0.5424 -0.3363
38409SOL    HW219590   7.863   6.220   9.984  0.9258  0.1022  0.5828
38410SOL     OW19591   5.575   3.829   5.846 -0.0584 -0.2079 -0.0383
38410SOL    HW119592   5.660   3.786   5.832 -0.2595 -0.4231 -0.6167
38410SOL    HW219593   5.527   3.770   5.903  0.8264  0.7498  1.8030
38411SOL     OW19594   4.796   2.646   4.750  0.5077 -0.5072  1.1332
38411SOL    HW119595   4.851   2.613   4.820  0.9546 -1.0601  0.5374
38411SOL    HW219596   4.851   2.643   4.672  0.3878  1.1938  0.9597
38412SOL     OW19597   0.691   1.414   7.794  0.0568 -0.4116  0.1302
38412SOL    HW119598   0.625   1.376   7.852  0.3995 -0.3627  0.5469
38412SOL    HW219599   0.723   1.492   7.840  0.0240 -0.1324 -0.3098
38413SOL     OW19600   3.739   4.548   3.988 -0.4505 -0.2228 -0.4266
38413SOL    HW119601   3.770   4.639   3.978  0.5684 -0.7049 -2.1556
38413SOL    HW219602   3.797   4.511   4.054 -0.3027  0.1570 -0.3390
38414SOL     OW19603   8.265   3.849   4.197 -0.5565  0.3780  0.5587
38414SOL    HW119604   8.356   3.830   4.222  0.0639  1.4799 -0.7424
38414SOL    HW219605   8.213   3.797   4.258  0.9408 -0.5088  1.1588
38415SOL     OW19606   1.977   8.138   0.505  0.4417  0.2427 -0.0647
38415SOL    HW119607   2.008   8.182   0.584  0.7928 -1.0759  0.5421
38415SOL    HW219608   1.882   8.129   0.518  0.8323 -2.5627  1.5931
38416SOL     OW19609   5.049   9.677   2.051 -0.0242  0.2881 -0.4069
38416SOL    HW119610   4.962   9.706   2.023  0.6627  0.7424 -2.2404
38416SOL    HW219611   5.033   9.595   2.098 -1.3735 -0.2119 -1.6645
38417SOL     OW19612   9.880   1.238   0.543  0.3522  0.0954 -0.2680
38417SOL    HW119613   9.808   1.218   0.483  0.4281 -1.0642  0.0061
38417SOL    HW219614   9.854   1.320   0.585  0.3688  1.0023 -1.9733
38418SOL     OW19615   1.649   0.800   1.243 -0.2997  0.2803  0.7717
38418SOL    HW119616   1.726   0.848   1.212 -0.4805 -0.6196 -1.2656
38418SOL    HW219617   1.576   0.836   1.192 -0.8696 -0.3157  1.1480
38419SOL     OW19618   6.262   9.398   0.573 -0.2126 -0.3958  0.4782
38419SOL    HW119619   6.304   9.421   0.491  1.2673 -0.2182  1.2527
38419SOL    HW219620   6.233   9.481   0.610  0.1407 -0.3574  0.6688
38420SOL     OW19621   3.259   5.800   3.796 -0.2628 -0.5529 -0.1972
38420SOL    HW119622   3.176   5.760   3.822 -1.2163  2.2724  1.6479
38420SOL    HW219623   3.286   5.851   3.872  2.7801 -0.6591 -1.0594
38421SOL     OW19624   2.332   0.706   4.730 -0.2694  0.4687 -0.5893
38421SOL    HW119625   2.297   0.784   4.772 -1.3046 -0.9556  1.4023
38421SOL    HW219626   2.260   0.675   4.674 -0.0640  0.6626 -0.9578
38422SOL     OW19627   4.100   8.229  10.597 -0.1712  0.1418 -0.5650
38422SOL    HW119628   4.016   8.267  10.622 -0.3340 -0.6753  0.2130
38422SOL    HW219629   4.088   8.134  10.607  0.5826 -0.0455 -1.2674
38423SOL     OW19630   7.071  10.235   4.036 -0.6589 -0.3718 -0.2827
38423SOL    HW119631   7.121  10.161   4.070 -0.9326  0.5972  2.5143
38423SOL    HW219632   7.129  10.310   4.045 -1.2923  0.1687 -0.6183
38424SOL     OW19633   1.000   2.267   5.565 -0.6548 -0.7071  0.0862
38424SOL    HW119634   0.983   2.289   5.473 -0.7597 -0.7323  0.0989
38424SOL    HW219635   0.925   2.304   5.612  0.6042  1.5231  0.4733
38425SOL     OW19636   1.009   6.754   0.532  0.0268  0.2765 -0.2325
38425SOL    HW119637   0.971   6.801   0.457  0.7585  0.0865 -0.7333
38425SOL    HW219638   1.033   6.668   0.497 -0.7855 -0.2909  0.5402
38426SOL     OW19639   2.010   3.683   6.142 -0.2903 -0.1365  0.1041
38426SOL    HW119640   2.008   3.753   6.077 -0.2566  1.4550  1.7328
38426SOL    HW219641   1.937   3.626   6.119  0.7488 -0.6090 -2.3100
38427SOL     OW19642   4.593   0.069   2.523 -0.1881  0.3569 -0.0350
38427SOL    HW119643   4.659   0.086   2.590  1.0951 -1.3760 -0.7674
38427SOL    HW219644   4.567   0.155   2.491  0.2951  1.1467  1.5981
38428SOL     OW19645   5.599   4.473   2.437 -0.0769  0.2387  0.1019
38428SOL    HW119646   5.613   4.514   2.351  2.8394 -2.3972 -0.8652
38428SOL    HW219647   5.626   4.540   2.500 -0.6273  1.6323 -1.0715
38429SOL     OW19648  10.801   3.171   0.303 -0.2957  0.5283  0.8743
38429SOL    HW119649  10.838   3.245   0.253 -1.2873  0.9427  0.7272
38429SOL    HW219650  10.782   3.208   0.389  1.0455 -0.0877  1.4657
38430SOL     OW19651  11.036   6.927   3.462  0.5471 -0.4224 -0.2815
38430SOL    HW119652  11.016   7.012   3.424 -0.3808 -0.0449  1.0085
38430SOL    HW219653  11.104   6.945   3.527 -1.1431 -0.2750  1.5164
38431SOL     OW19654   0.076   6.861  10.397 -0.2710 -0.5263  0.0203
38431SOL    HW119655   0.106   6.770  10.386  1.1290  0.1351 -2.3899
38431SOL    HW219656   0.117   6.908  10.325 -0.7425  2.1100  1.3588
38432SOL     OW19657   2.236   9.684   6.078 -0.0295 -0.4964 -0.1936
38432SOL    HW119658   2.174   9.621   6.116  0.2782 -0.4092  0.4494
38432SOL    HW219659   2.320   9.662   6.117 -0.4760  2.6794  3.0482
38433SOL     OW19660   8.652   1.176   7.666 -0.0804 -0.0531 -0.4276
38433SOL    HW119661   8.563   1.212   7.666  1.0153  2.9874  0.6772
38433SOL    HW219662   8.671   1.159   7.574 -1.4870  0.0930 -0.7707
38434SOL     OW19663   0.620   4.785   7.377  0.3140 -0.0440 -0.0253
38434SOL    HW119664   0.654   4.706   7.335 -2.3692 -1.8739  0.9441
38434SOL    HW219665   0.534   4.798   7.337 -0.6336  0.4697  2.0308
38435SOL     OW19666   9.938  11.074   0.048  0.0438 -0.4088  0.1127
38435SOL    HW119667   9.926  11.162   0.013 -0.2306 -1.0419 -1.4475
38435SOL    HW219668  10.031  11.056   0.039 -0.1748 -0.9442 -1.2756
38436SOL     OW19669   8.569   1.264   9.440 -0.0325 -0.5870  0.0342
38436SOL    HW119670   8.608   1.322   9.506  0.4387  0.9004 -1.4912
38436SOL    HW219671   8.477   1.291   9.437 -0.3448 -1.4971  0.9239
38437SOL     OW19672   1.029   6.269   1.487 -0.6761  0.3133 -0.1727
38437SOL    HW119673   0.958   6.313   1.534  0.3215  0.0470  1.6790
38437SOL    HW219674   1.104   6.275   1.546  1.3327  1.9540 -2.6933
38438SOL     OW19675  10.058   0.534   0.209 -0.7391 -0.3647  0.5926
38438SOL    HW119676  10.106   0.612   0.235 -0.1120 -1.0478  1.5378
38438SOL    HW219677  10.004   0.563   0.134  0.5882  0.5861 -0.0341
38439SOL     OW19678   0.597   5.694   5.482  0.3793  0.1133  0.4570
38439SOL    HW119679   0.536   5.694   5.409 -0.1966 -0.0821  0.9330
38439SOL    HW219680   0.548   5.655   5.555  0.7693  0.7953  1.0989
38440SOL     OW19681   4.124   1.924   7.783  0.4848  0.3863 -0.4579
38440SOL    HW119682   4.093   1.976   7.857  0.7756  0.4263 -0.3636
38440SOL    HW219683   4.050   1.923   7.722  0.1871  0.2198 -0.0999
38441SOL     OW19684   7.433   5.655   1.417  0.1721  0.5092  0.4149
38441SOL    HW119685   7.385   5.666   1.335  0.3226  0.3996  0.3127
38441SOL    HW219686   7.460   5.564   1.417  1.0729  0.7724  0.0948
38442SOL     OW19687  10.888   0.418   1.840  0.1421  0.1680 -0.1113
38442SOL    HW119688  10.944   0.377   1.775  0.9499  0.1895  0.5585
38442SOL    HW219689  10.907   0.511   1.833 -0.1666  0.2275 -0.2025
38443SOL     OW19690   0.205   3.690   3.952 -0.0616  0.6804  0.1916
38443SOL    HW119691   0.220   3.671   4.045  1.8706  1.6640  0.1388
38443SOL    HW219692   0.202   3.604   3.910  2.0644  0.2395  0.8026
38444SOL     OW19693   1.486  10.351   4.760 -0.1417 -0.1425 -0.1105
38444SOL    HW119694   1.528  10.395   4.834 -0.8844  1.8198 -0.7832
38444SOL    HW219695   1.525  10.264   4.758  1.9990  0.7414  0.8216
38445SOL     OW19696   1.589   5.594   5.897 -0.2924 -0.0293 -0.0971
38445SOL    HW119697   1.581   5.507   5.938 -0.5573 -0.3344 -0.7798
38445SOL    HW219698   1.616   5.576   5.807 -0.2289  0.6084 -0.2101
38446SOL     OW19699   4.308   0.896   7.768 -0.0954  0.3545  0.1446
38446SOL    HW119700   4.369   0.880   7.840  0.1391 -0.8323 -0.3121
38446SOL    HW219701   4.362   0.935   7.699  0.0016 -0.0011  0.0183
38447SOL     OW19702   7.464  10.854   9.033  0.2670 -0.0031 -0.0176
38447SOL    HW119703   7.488  10.867   8.941  2.5331  0.3579  0.5666
38447SOL    HW219704   7.375  10.888   9.039  1.2743  3.2941 -1.3623
38448SOL     OW19705   0.074   3.454   1.621 -0.0429  0.6963 -0.1213
38448SOL    HW119706  -0.005   3.508   1.620 -0.8747 -0.4683  0.3114
38448SOL    HW219707   0.068   3.401   1.541  2.1594  3.1000 -2.0366
38449SOL     OW19708   0.223   9.932   0.233  0.1603 -0.1928  0.1991
38449SOL    HW119709   0.273  10.012   0.247  0.0816 -0.1445  0.2051
38449SOL    HW219710   0.273   9.883   0.167  0.1291 -0.0715  0.0856
38450SOL     OW19711   0.184   6.035   1.304  0.2105  0.2763  0.1052
38450SOL    HW119712   0.250   5.966   1.301 -0.4959 -0.3787 -0.8961
38450SOL    HW219713   0.190   6.069   1.393  0.9312 -0.7222  0.4598
38451SOL     OW19714   4.371  11.042   8.899  0.3052 -0.2771  0.0625
38451SOL    HW119715   4.335  11.111   8.955  1.2331 -1.1821  1.8384
38451SOL    HW219716   4.295  10.990   8.874 -0.3572  1.1216 -0.9877
38452SOL     OW19717   6.776   9.514   3.252 -0.0650 -0.2218  0.4557
38452SOL    HW119718   6.871   9.505   3.256 -0.0085  0.4018  0.6349
38452SOL    HW219719   6.756   9.514   3.158  0.1338 -0.1629  0.4127
38453SOL     OW19720   7.095  11.065   2.253 -0.3839 -0.1711  0.3225
38453SOL    HW119721   7.026  11.034   2.311  1.3266 -1.5033  1.7291
38453SOL    HW219722   7.145  11.126   2.307 -0.0897  0.3277 -0.5009
38454SOL     OW19723   9.657   0.358  10.559  0.3428  0.0600  0.0341
38454SOL    HW119724   9.591   0.305  10.604  0.1325 -0.5877 -1.0268
38454SOL    HW219725   9.637   0.448  10.586 -1.6570  0.0103 -1.0661
38455SOL     OW19726   0.776   9.377   1.381 -0.1504  0.1152 -0.1763
38455SOL    HW119727   0.787   9.300   1.437 -1.4276  1.4333  2.0353
38455SOL    HW219728   0.804   9.348   1.294  0.0294 -2.6255  0.7053
38456SOL     OW19729   0.162   1.017   3.033  0.3894  0.2703  0.2596
38456SOL    HW119730   0.221   0.948   3.063  1.3907  1.4181  0.9945
38456SOL    HW219731   0.210   1.063   2.965 -1.0166 -0.9102 -1.6364
38457SOL     OW19732   0.483   9.916   0.732  0.0829  0.2857 -0.0737
38457SOL    HW119733   0.439  10.000   0.748  0.8482  0.4421  1.3269
38457SOL    HW219734   0.562   9.940   0.684 -0.5786  0.1533 -1.2773
38458SOL     OW19735   2.482   8.687   5.866  0.3734  0.3863  0.3115
38458SOL    HW119736   2.577   8.679   5.857  0.2440 -1.1300  0.0231
38458SOL    HW219737   2.464   8.669   5.959  0.2288 -1.3367 -0.0135
38459SOL     OW19738   8.295   3.546   2.967  0.1097 -0.0814 -0.4913
38459SOL    HW119739   8.332   3.463   2.996  0.3203 -0.2280 -1.1507
38459SOL    HW219740   8.354   3.575   2.897 -0.7566 -0.0897 -1.2478
38460SOL     OW19741   8.596   5.792   7.423 -0.6781  0.6669  0.1008
38460SOL    HW119742   8.522   5.797   7.362  0.1205  1.3012 -0.8543
38460SOL    HW219743   8.673   5.791   7.366  0.0710  0.7673  1.0984
38461SOL     OW19744   8.488   1.980   2.065 -0.3191  0.1862 -0.0835
38461SOL    HW119745   8.582   1.970   2.046  0.3755  0.0419  2.8785
38461SOL    HW219746   8.452   1.893   2.056  0.4447 -0.3108  1.2544
38462SOL     OW19747   3.803   9.303   0.152  0.5999 -0.0237 -0.4013
38462SOL    HW119748   3.846   9.385   0.175  1.0929  0.0919 -1.6628
38462SOL    HW219749   3.710   9.325   0.152  0.4222 -0.3942  2.8059
38463SOL     OW19750   3.424   3.813   6.248 -0.3655 -0.0102  0.2707
38463SOL    HW119751   3.474   3.820   6.166 -1.4723 -0.4167 -0.4588
38463SOL    HW219752   3.344   3.863   6.232 -0.4858  0.1178  1.2065
38464SOL     OW19753   4.419  10.512   7.169  0.0764  0.0101  0.0250
38464SOL    HW119754   4.377  10.586   7.125 -1.0066 -1.1088 -0.9323
38464SOL    HW219755   4.513  10.527   7.159  0.0002  2.6074  2.2299
38465SOL     OW19756   8.289   2.312   7.717 -0.2028 -0.5844  0.3777
38465SOL    HW119757   8.209   2.273   7.753  0.1047 -0.7803  0.8558
38465SOL    HW219758   8.330   2.240   7.669 -0.5918 -0.3344 -0.3412
38466SOL     OW19759   4.673   5.483   8.337 -0.7668 -0.0627  0.0625
38466SOL    HW119760   4.620   5.545   8.288 -0.5940  1.3493  1.5768
38466SOL    HW219761   4.745   5.461   8.277 -0.9460  1.0421 -0.5929
38467SOL     OW19762   9.280   1.449   5.066  0.6581 -0.4566  0.0035
38467SOL    HW119763   9.357   1.466   5.120  0.8369 -2.4162  0.4570
38467SOL    HW219764   9.207   1.486   5.115  0.9650 -1.2432  1.0949
38468SOL     OW19765   6.922   2.692   1.583 -0.4603  0.4287 -0.3624
38468SOL    HW119766   6.919   2.663   1.491 -0.5345 -1.9212  0.3075
38468SOL    HW219767   6.964   2.619   1.629  1.7251  2.5063  1.1830
38469SOL     OW19768   5.584   7.015   9.936 -0.1811 -0.2959  0.2206
38469SOL    HW119769   5.506   6.961   9.948 -0.3817  0.1341  0.9370
38469SOL    HW219770   5.587   7.035   9.843 -1.1410  0.0005  0.2487
38470SOL     OW19771   9.692   6.385   9.330 -0.5248  0.1827 -0.3575
38470SOL    HW119772   9.705   6.311   9.270 -0.2765 -1.8559  2.0028
38470SOL    HW219773   9.770   6.384   9.386 -1.3346  1.0866  0.8418
38471SOL     OW19774   7.349   9.216   6.389  0.3550  0.3601 -0.3916
38471SOL    HW119775   7.295   9.289   6.362 -0.2903 -0.2687 -0.8277
38471SOL    HW219776   7.317   9.141   6.338 -0.4689 -0.7209  1.5712
38472SOL     OW19777   2.122   5.422   8.115  0.0437 -0.0276 -0.3663
38472SOL    HW119778   2.157   5.477   8.045  0.4720 -0.0568 -0.1772
38472SOL    HW219779   2.070   5.482   8.168  0.5048  0.1962 -0.1648
38473SOL     OW19780   4.320   8.070   3.155 -0.0241  0.0798 -0.5641
38473SOL    HW119781   4.387   8.115   3.103 -0.0681 -0.6404 -1.2664
38473SOL    HW219782   4.269   8.140   3.194  1.7214  0.6718  0.7745
38474SOL     OW19783  11.043   3.940   2.717 -0.1852 -0.5194  0.3496
38474SOL    HW119784  11.028   3.997   2.792 -0.7419 -1.2721  0.8274
38474SOL    HW219785  10.960   3.893   2.706  1.0025 -3.0658  1.5604
38475SOL     OW19786   5.164   2.815   4.067  0.2198  0.2823 -0.2803
38475SOL    HW119787   5.118   2.763   4.001 -1.1168 -0.5609  1.2314
38475SOL    HW219788   5.154   2.765   4.148  1.7127  1.3268  0.6073
38476SOL     OW19789   0.947   1.390   0.170  0.2314 -0.3930  0.0009
38476SOL    HW119790   0.883   1.335   0.215  0.4115 -1.1082 -0.6000
38476SOL    HW219791   0.911   1.478   0.177 -0.2926 -0.6433  0.5811
38477SOL     OW19792  10.300   2.176   9.031 -0.2878 -0.0126 -0.1521
38477SOL    HW119793  10.267   2.197   8.944  1.2323 -0.2568 -0.8041
38477SOL    HW219794  10.254   2.237   9.089 -1.1868  0.2661 -1.1229
38478SOL     OW19795   3.920   1.127   8.254 -0.3972  0.0391 -0.6449
38478SOL    HW119796   3.906   1.047   8.204 -1.1731  0.4782 -1.1445
38478SOL    HW219797   3.980   1.179   8.201 -0.9511  0.3577 -0.9702
38479SOL     OW19798  10.560  11.041  10.023  0.3467 -0.4150  0.2104
38479SOL    HW119799  10.530  10.951  10.013 -0.7035  0.0062 -0.6299
38479SOL    HW219800  10.607  11.060   9.941 -1.6890  0.6029 -0.7942
38480SOL     OW19801   3.623   9.531   4.971 -0.5306  0.0157  0.1776
38480SOL    HW119802   3.607   9.577   5.053  0.8699 -0.5131  0.7913
38480SOL    HW219803   3.718   9.520   4.969 -0.6652 -1.1431 -0.8752
38481SOL     OW19804   7.627  10.386   0.887 -0.3760 -0.1054 -0.6935
38481SOL    HW119805   7.628  10.336   0.969  3.1516 -2.1709 -1.7706
38481SOL    HW219806   7.641  10.477   0.913 -1.9284 -0.3130  1.0595
38482SOL     OW19807   8.824   2.255   1.960 -0.1464 -0.4918  1.1210
38482SOL    HW119808   8.807   2.290   2.047 -2.3167  1.7099 -0.0689
38482SOL    HW219809   8.885   2.318   1.921 -1.2990  0.0781  0.1744
38483SOL     OW19810   3.702   4.938   8.563 -0.1085  0.1231  0.7477
38483SOL    HW119811   3.696   5.027   8.597 -0.0156  0.1680  0.6501
38483SOL    HW219812   3.663   4.883   8.631  0.2698  0.1873  1.0217
38484SOL     OW19813   9.584   8.362   3.203 -0.2201 -0.1305 -0.6206
38484SOL    HW119814   9.509   8.409   3.240 -0.3996 -0.0315 -1.1097
38484SOL    HW219815   9.636   8.336   3.280 -1.2839 -1.1127 -0.1980
38485SOL     OW19816   3.802   7.081   3.509  0.7035  0.3648  0.1299
38485SOL    HW119817   3.790   7.030   3.589  0.2374 -0.5783 -0.5306
38485SOL    HW219818   3.733   7.147   3.512  0.3577 -0.0020  0.2422
38486SOL     OW19819   3.257   4.386   9.888 -0.1485 -0.0058 -0.1756
38486SOL    HW119820   3.216   4.304   9.915  0.8955 -0.3668  0.3802
38486SOL    HW219821   3.228   4.450   9.954 -2.8615  0.6932 -1.8882
38487SOL     OW19822   2.260   4.333   6.206  0.5300  0.2280 -0.5352
38487SOL    HW119823   2.181   4.280   6.218 -0.1150  0.7049 -2.3811
38487SOL    HW219824   2.259   4.393   6.281  1.3395 -2.3154  1.6743
38488SOL     OW19825   4.508   2.215   6.481  0.2224 -0.2575 -0.0204
38488SOL    HW119826   4.533   2.269   6.555 -1.9329  1.0802 -0.1792
38488SOL    HW219827   4.413   2.202   6.491  0.0916 -1.1012 -1.8422
38489SOL     OW19828   6.571   5.635   7.574 -0.0104 -0.6324 -0.5057
38489SOL    HW119829   6.550   5.585   7.653 -2.4329  0.2200 -0.5137
38489SOL    HW219830   6.513   5.598   7.507 -2.3482  2.4421 -0.3766
38490SOL     OW19831   2.295   9.159   0.268  0.7408 -0.7179  0.0902
38490SOL    HW119832   2.305   9.123   0.179 -0.1728 -2.3103  0.5942
38490SOL    HW219833   2.201   9.169   0.280  0.9163  1.1131  0.3109
38491SOL     OW19834   5.426   2.010  10.939  0.1237 -0.1481 -0.2547
38491SOL    HW119835   5.418   2.004  10.844 -0.0686  0.3695 -0.2736
38491SOL    HW219836   5.373   2.086  10.963  2.7512  1.7859 -0.1014
38492SOL     OW19837   0.983   3.628   9.389 -0.7981  0.1008 -0.3480
38492SOL    HW119838   0.958   3.627   9.296  0.1472  2.2055 -0.6868
38492SOL    HW219839   0.902   3.652   9.434 -0.9329  0.4880 -0.7822
38493SOL     OW19840  10.989   9.880   2.372  0.3657  0.2729  0.4974
38493SOL    HW119841  10.923   9.817   2.343  2.1814 -0.6903 -1.9528
38493SOL    HW219842  10.969   9.960   2.324  1.4904 -0.3432 -1.0988
38494SOL     OW19843   1.573   0.000  10.551  0.1070 -0.9138 -0.3915
38494SOL    HW119844   1.543  -0.050  10.475  0.6497 -1.1529 -0.4521
38494SOL    HW219845   1.638  -0.056  10.593  2.4996  0.6221 -1.7911
38495SOL     OW19846   6.382   2.594   3.527 -0.2360 -0.0580  0.0024
38495SOL    HW119847   6.310   2.656   3.519  0.3666  0.4839 -1.8510
38495SOL    HW219848   6.460   2.644   3.500  0.5426 -1.1128  0.2194
38496SOL     OW19849  10.364   1.655   6.831 -0.3102  0.2271 -0.3422
38496SOL    HW119850  10.363   1.594   6.905 -1.5402  0.8581  0.2017
38496SOL    HW219851  10.456   1.679   6.820 -0.0418 -0.2920  0.6478
38497SOL     OW19852   9.684   1.118   3.754 -0.2845  0.3162  0.1416
38497SOL    HW119853   9.731   1.050   3.706  0.5930  0.6436  0.5340
38497SOL    HW219854   9.717   1.112   3.843  0.0167  1.4640  0.1181
38498SOL     OW19855   9.147   8.705   7.693 -0.6226  0.0634  0.0942
38498SOL    HW119856   9.160   8.611   7.700 -0.7044  0.0787  0.4418
38498SOL    HW219857   9.159   8.724   7.599  0.6002 -0.1050  0.2020
38499SOL     OW19858   5.929   1.552   1.711 -0.2146 -0.3457  0.1200
38499SOL    HW119859   5.881   1.503   1.777  0.2948  0.5330  1.1834
38499SOL    HW219860   5.880   1.538   1.630  0.4472 -3.3731  0.1238
38500SOL     OW19861   9.708   1.962  10.474 -0.5216  0.9455  0.0088
38500SOL    HW119862   9.792   1.967  10.519 -1.3303 -3.6547  2.6723
38500SOL    HW219863   9.729   1.932  10.385  0.7481 -0.6659  0.7995
38501SOL     OW19864   7.254   8.736   9.534  0.2425 -0.2363  0.4951
38501SOL    HW119865   7.280   8.823   9.565  1.2204  0.8392 -2.8529
38501SOL    HW219866   7.331   8.681   9.549  0.8196  0.3436 -0.2414
38502SOL     OW19867   2.153   9.252  10.700  0.1724 -0.1664 -0.0502
38502SOL    HW119868   2.140   9.158  10.717  1.5514 -0.1333  1.4013
38502SOL    HW219869   2.073   9.293  10.732  0.1874 -0.7220  0.7349
38503SOL     OW19870   9.246   0.152   1.878  0.0852 -0.2974  0.7085
38503SOL    HW119871   9.287   0.162   1.964  0.1636 -2.2138  0.9444
38503SOL    HW219872   9.241   0.057   1.865 -1.0226 -0.0604 -0.8838
38504SOL     OW19873   7.010   7.456   1.651 -0.3112  0.2590 -0.1657
38504SOL    HW119874   6.951   7.459   1.726  0.9941 -0.8797  0.9420
38504SOL    HW219875   7.007   7.365   1.621  0.8766  0.1845 -0.0885
38505SOL     OW19876   1.854   6.808   7.940 -0.8435 -0.7728  0.0332
38505SOL    HW119877   1.918   6.810   7.869 -1.1295  0.8196 -0.2036
38505SOL    HW219878   1.811   6.723   7.930  1.7487 -2.2726  0.7258
38506SOL     OW19879   5.181   4.139   2.226 -0.0239  0.4020 -0.1394
38506SOL    HW119880   5.086   4.150   2.221 -0.2786 -1.1219  0.6955
38506SOL    HW219881   5.207   4.183   2.307 -0.2913 -0.5560  0.4951
38507SOL     OW19882   3.785   0.528   2.858  0.0063  0.3708 -0.1143
38507SOL    HW119883   3.763   0.579   2.936  0.3481  1.3248 -0.6226
38507SOL    HW219884   3.825   0.448   2.891 -0.0901  0.6534  0.6951
38508SOL     OW19885   2.510   5.305   3.343  0.0054  0.0273  0.1483
38508SOL    HW119886   2.516   5.247   3.267  0.0419  0.8921 -0.5290
38508SOL    HW219887   2.428   5.353   3.329  0.9458  1.5298 -0.3186
38509SOL     OW19888   6.051   4.496   7.095  0.0377 -0.7568 -0.4694
38509SOL    HW119889   6.110   4.571   7.086  0.6762 -1.0882  0.7673
38509SOL    HW219890   6.094   4.426   7.046  2.4426 -1.9483  2.9283
38510SOL     OW19891   9.377   7.868   3.262 -0.6159 -0.1764  0.3425
38510SOL    HW119892   9.318   7.845   3.191 -0.8152  0.1841  0.3884
38510SOL    HW219893   9.463   7.842   3.231 -0.5864  0.7064 -0.3694
38511SOL     OW19894   5.404   9.225   1.741 -0.5642 -0.2023 -0.7685
38511SOL    HW119895   5.401   9.148   1.798 -1.9149  1.3479  1.3805
38511SOL    HW219896   5.491   9.262   1.756 -1.0553  0.4135  0.6171
38512SOL     OW19897   4.990   8.412   5.063 -0.4634 -0.3784  0.2183
38512SOL    HW119898   5.056   8.346   5.041  1.2233  1.3257 -0.1044
38512SOL    HW219899   4.916   8.391   5.006 -0.4479 -2.6100  0.9010
38513SOL     OW19900   1.609   1.012   6.695 -0.4516 -0.2956  0.4010
38513SOL    HW119901   1.671   1.083   6.679 -1.4711  0.7554  0.8881
38513SOL    HW219902   1.651   0.934   6.660  0.9905  0.4349  0.4469
38514SOL     OW19903   8.240   8.413   7.723 -0.6405 -0.3711  0.3258
38514SOL    HW119904   8.310   8.471   7.693 -0.9689 -0.8714 -1.5404
38514SOL    HW219905   8.191   8.466   7.785 -1.1068  1.5126 -1.5252
38515SOL     OW19906   5.887   5.428   8.144  0.2048 -0.2024  0.3819
38515SOL    HW119907   5.841   5.511   8.138 -0.8597 -0.7868  0.2322
38515SOL    HW219908   5.843   5.381   8.215  0.1925 -0.9955 -0.1362
38516SOL     OW19909   6.913   8.222   5.741  0.2555 -0.2707  0.3995
38516SOL    HW119910   6.827   8.265   5.739  0.8501  0.9775 -1.6742
38516SOL    HW219911   6.900   8.145   5.797 -1.9318  0.4234  0.9628
38517SOL     OW19912   2.830   2.485   0.977 -0.1329 -0.1995 -0.5350
38517SOL    HW119913   2.858   2.398   1.004 -0.5058  0.0657  0.7510
38517SOL    HW219914   2.799   2.473   0.887  2.1281 -0.8949 -1.3043
38518SOL     OW19915   6.121  10.032   9.204 -0.1084  0.0362  0.2868
38518SOL    HW119916   6.102  10.113   9.251  0.5929  1.1974 -1.3472
38518SOL    HW219917   6.174   9.981   9.266  0.5719  1.3989  0.8756
38519SOL     OW19918   0.386   3.703   9.530 -0.1842  0.2579 -0.2461
38519SOL    HW119919   0.394   3.671   9.440 -1.2354  1.7727 -0.9172
38519SOL    HW219920   0.451   3.772   9.538 -0.9917  1.0555 -0.3162
38520SOL     OW19921   7.137   0.853   1.341 -0.4733  0.4695  0.1216
38520SOL    HW119922   7.161   0.912   1.412 -0.3580 -0.2135  0.6577
38520SOL    HW219923   7.203   0.868   1.273 -0.3655  0.8529  0.3126
38521SOL     OW19924   6.315   0.714   4.396  0.2693  0.0538 -0.2744
38521SOL    HW119925   6.247   0.722   4.329  0.9466  0.0889 -0.9683
38521SOL    HW219926   6.332   0.620   4.401  0.3503  0.0679 -0.2862
38522SOL     OW19927   7.285   1.380   9.723 -0.6530 -0.4740 -0.0516
38522SOL    HW119928   7.198   1.350   9.749 -1.6271  1.4279 -0.9003
38522SOL    HW219929   7.295   1.464   9.767 -0.2953  0.4805 -1.8532
38523SOL     OW19930   8.552   6.764   6.370 -0.2971 -0.1130  0.0085
38523SOL    HW119931   8.487   6.833   6.376  0.8255  0.9653  0.1187
38523SOL    HW219932   8.533   6.720   6.287 -0.5865  0.7940 -0.4166
38524SOL     OW19933   0.156   9.284   6.948 -0.1003 -0.1862  0.3465
38524SOL    HW119934   0.176   9.336   6.871 -0.2043  0.3295  0.6649
38524SOL    HW219935   0.073   9.319   6.980  0.3226  0.1172  1.1278
38525SOL     OW19936  10.598   4.321   5.466  0.2880  0.0655 -0.3612
38525SOL    HW119937  10.618   4.303   5.374 -1.0249  0.9905 -0.8574
38525SOL    HW219938  10.579   4.415   5.468 -0.4748 -0.0989  0.7111
38526SOL     OW19939   2.901   0.926   3.677  0.0058 -0.5295 -0.2071
38526SOL    HW119940   2.987   0.884   3.681 -0.0390 -0.5281  1.2915
38526SOL    HW219941   2.865   0.916   3.765 -1.0692  0.4542 -0.5077
38527SOL     OW19942   5.914   0.512   2.998 -0.0791  0.2777 -0.0780
38527SOL    HW119943   5.855   0.450   2.954  0.3295 -1.8966  2.2173
38527SOL    HW219944   5.997   0.505   2.950 -0.6642  0.8376 -1.2343
38528SOL     OW19945   0.251   3.845   9.249 -0.2499 -0.4889  0.0229
38528SOL    HW119946   0.319   3.783   9.275 -0.7780 -0.5809  1.2483
38528SOL    HW219947   0.184   3.791   9.207 -0.3649 -0.6471  0.4067
38529SOL     OW19948   1.811   6.998   5.833 -0.2633  0.2761  0.1948
38529SOL    HW119949   1.880   6.931   5.835  1.6744  2.1809  0.8602
38529SOL    HW219950   1.739   6.960   5.884  1.2770 -0.8247  1.6675
38530SOL     OW19951   4.579  10.948   7.055 -0.1401 -0.0880  0.4547
38530SOL    HW119952   4.529  10.866   7.054 -0.3334 -0.0038 -1.6475
38530SOL    HW219953   4.593  10.966   7.148  0.5808 -2.9054  1.0033
38531SOL     OW19954   4.787   7.357   2.744 -0.0633 -0.1904  0.3256
38531SOL    HW119955   4.715   7.373   2.806 -0.1041  0.5790  0.0945
38531SOL    HW219956   4.745   7.313   2.670 -0.9240  2.8153 -1.1062
38532SOL     OW19957   1.574   9.331   2.550 -0.0838 -0.4178  0.0736
38532SOL    HW119958   1.618   9.382   2.618  0.5842  0.1899 -0.7896
38532SOL    HW219959   1.507   9.390   2.515 -2.0106 -1.4968  1.7158
38533SOL     OW19960   2.745   5.548   0.888 -0.0649 -0.3739 -0.4030
38533SOL    HW119961   2.765   5.638   0.914 -2.3194 -0.2394  1.1394
38533SOL    HW219962   2.770   5.496   0.965 -3.8397 -0.3419  1.0575
38534SOL     OW19963   9.116   1.636   0.072  0.0805  0.5347  0.1558
38534SOL    HW119964   9.096   1.590   0.153 -2.1905  0.4980 -0.3726
38534SOL    HW219965   9.208   1.615   0.055  0.3295 -0.2541  2.1703
38535SOL     OW19966   8.586   1.082  10.471 -0.8173  0.1981  0.2748
38535SOL    HW119967   8.610   1.174  10.474  0.5964 -0.1024 -0.4346
38535SOL    HW219968   8.620   1.045  10.553 -1.3292  0.2987  0.5318
38536SOL     OW19969   4.832   4.772   8.374 -0.3094  0.2134  0.6226
38536SOL    HW119970   4.785   4.714   8.434 -1.4656 -0.9536 -1.3450
38536SOL    HW219971   4.791   4.759   8.289  1.1416  1.9792 -0.4397
38537SOL     OW19972   1.987   4.821   0.328 -0.3262  0.4861 -0.0819
38537SOL    HW119973   1.990   4.885   0.257  1.0062 -0.5484 -0.9952
38537SOL    HW219974   2.052   4.755   0.304 -0.2478 -0.1829  1.8291
38538SOL     OW19975   1.153   4.735   8.531  0.6913 -0.8457 -0.4250
38538SOL    HW119976   1.202   4.758   8.452  1.0800 -1.8419 -0.4865
38538SOL    HW219977   1.206   4.667   8.572  2.7095  2.3671  2.9099
38539SOL     OW19978   5.628   6.983  10.600 -0.0869 -0.2899  0.0935
38539SOL    HW119979   5.641   7.044  10.527 -0.6981  0.0854  0.2941
38539SOL    HW219980   5.697   7.006  10.662 -0.9997  0.9955  0.6840
38540SOL     OW19981   1.460   6.330   2.044  0.0784  0.5964 -0.0083
38540SOL    HW119982   1.508   6.315   1.962  1.2272  0.6282  0.6316
38540SOL    HW219983   1.524   6.375   2.101 -0.6377  0.4191  0.9600
38541SOL     OW19984   4.051   0.338   6.566  0.4848  0.4366  0.3470
38541SOL    HW119985   4.108   0.412   6.546  1.9572 -0.0280  2.4629
38541SOL    HW219986   4.098   0.262   6.534 -1.2249  0.3457 -2.2192
38542SOL     OW19987   6.265   5.911   3.870 -0.6081  0.3502 -0.0593
38542SOL    HW119988   6.182   5.956   3.860 -0.5140  0.1383 -2.2603
38542SOL    HW219989   6.326   5.959   3.813  0.6577  0.1950  1.1075
38543SOL     OW19990   8.949   5.354   0.651 -0.6799  0.0631 -0.3898
38543SOL    HW119991   9.035   5.392   0.668 -0.3995 -0.7682  0.1046
38543SOL    HW219992   8.903   5.362   0.735 -1.0258  0.3374 -0.6022
38544SOL     OW19993  10.535   0.345   0.437  0.0045 -0.1465  0.5579
38544SOL    HW119994  10.442   0.345   0.416  0.3922  0.0482 -1.3037
38544SOL    HW219995  10.546   0.272   0.499 -1.0692 -1.3810 -0.6477
38545SOL     OW19996   4.188   2.827   4.260  0.5896 -0.0738 -0.2260
38545SOL    HW119997   4.210   2.739   4.229  0.9185 -0.6252  1.4937
38545SOL    HW219998   4.128   2.861   4.194 -0.0992 -1.8600 -0.5668
38546SOL     OW19999   8.802   8.462   1.805 -0.1516  0.1113  0.0185
38546SOL    HW120000   8.831   8.538   1.753  0.4842 -0.8488 -1.0707
38546SOL    HW220001   8.707   8.460   1.792  0.1478 -1.1841 -2.7408
38547SOL     OW20002   8.228   5.510   6.392  0.3062  0.0731 -0.1005
38547SOL    HW120003   8.315   5.531   6.358 -0.1399  1.3148 -0.5582
38547SOL    HW220004   8.235   5.524   6.486  0.3779  1.1500 -0.2440
38548SOL     OW20005   4.735  10.750   9.469 -0.1777  0.4988  0.5647
38548SOL    HW120006   4.743  10.845   9.473 -2.5081  0.7338  1.1589
38548SOL    HW220007   4.641  10.735   9.458  0.2437 -1.7213 -0.4725
38549SOL     OW20008   0.004   1.905   4.176  0.4078  0.0564 -0.6896
38549SOL    HW120009  -0.037   1.874   4.257 -0.9764  0.8995 -1.0245
38549SOL    HW220010   0.098   1.903   4.194  0.1380 -0.0482  0.8354
38550SOL     OW20011   4.880   9.758  10.970 -0.0074  0.1832  0.4733
38550SOL    HW120012   4.882   9.693  11.040  0.0195 -0.6069 -0.2398
38550SOL    HW220013   4.792   9.796  10.976  0.0542  0.2422  1.0393
38551SOL     OW20014   9.855   3.243   3.106  0.3046 -0.3450  0.1707
38551SOL    HW120015   9.911   3.318   3.087 -0.6379 -0.3313 -3.4396
38551SOL    HW220016   9.910   3.167   3.090  0.2377 -0.3585 -0.0035
38552SOL     OW20017   1.873   0.920  10.861 -0.3067  0.6163 -0.2568
38552SOL    HW120018   1.787   0.903  10.823  0.5801 -1.3464 -1.5237
38552SOL    HW220019   1.934   0.911  10.788  1.0946  0.5909  0.8749
38553SOL     OW20020   7.361   9.688   6.389 -0.3082  0.5111 -0.1297
38553SOL    HW120021   7.431   9.744   6.421 -0.2775 -0.2697  1.2180
38553SOL    HW220022   7.328   9.643   6.466 -1.1667 -0.4055 -0.9923
38554SOL     OW20023   9.482   8.821   0.332  0.4831 -0.5070 -0.0577
38554SOL    HW120024   9.561   8.768   0.322  0.6763 -0.7406  2.0949
38554SOL    HW220025   9.412   8.765   0.298  1.1452 -0.5257 -1.4571
38555SOL     OW20026   3.670   0.397   6.242 -0.5080 -0.0885  0.1005
38555SOL    HW120027   3.758   0.426   6.266 -1.0989  0.5260  1.6519
38555SOL    HW220028   3.632   0.471   6.193 -0.6032  0.1583  0.5448
38556SOL     OW20029   3.963   8.947   2.639  0.0226  0.2320 -0.4998
38556SOL    HW120030   3.981   9.016   2.575  3.5915 -0.2267 -0.1769
38556SOL    HW220031   3.978   8.866   2.590 -0.7128 -0.2462  0.0465
38557SOL     OW20032   8.974   4.250   2.725 -0.0105  0.0444 -0.3199
38557SOL    HW120033   9.053   4.271   2.675  0.1346  0.1367 -0.0553
38557SOL    HW220034   8.969   4.154   2.722  1.7953 -0.2460  2.1270
38558SOL     OW20035   2.589   2.384   8.235 -0.5559  0.5370 -0.3822
38558SOL    HW120036   2.651   2.314   8.254 -1.4027 -0.3036 -0.6441
38558SOL    HW220037   2.592   2.440   8.313  1.1277  1.0003 -0.7265
38559SOL     OW20038   8.092   9.062   3.574 -0.6214 -0.1583 -0.1686
38559SOL    HW120039   8.150   8.995   3.537 -1.7843 -0.7177 -1.0551
38559SOL    HW220040   8.063   9.112   3.497  2.0886  2.9984  0.6364
38560SOL     OW20041   0.341   0.607   6.560 -0.0623 -0.3469 -0.5455
38560SOL    HW120042   0.255   0.584   6.524 -0.6076  0.3656  0.2338
38560SOL    HW220043   0.325   0.688   6.608  0.9318 -0.5017  0.0745
38561SOL     OW20044   3.188  10.059   7.025 -0.1605  0.2049 -0.2321
38561SOL    HW120045   3.253   9.989   7.016 -1.3037 -0.7003 -1.7486
38561SOL    HW220046   3.155  10.073   6.937 -1.2061  1.4714  0.3325
38562SOL     OW20047  10.671   8.587  10.342  0.5430 -0.3341  0.0778
38562SOL    HW120048  10.745   8.537  10.376  0.5553 -0.6306 -0.3807
38562SOL    HW220049  10.601   8.574  10.406  1.7322  2.3129  2.1289
38563SOL     OW20050  10.306   6.907   4.790 -0.2642 -0.1941  0.2473
38563SOL    HW120051  10.332   6.891   4.881 -0.0976 -0.6556  0.1233
38563SOL    HW220052  10.260   6.991   4.792  0.3338  0.1286  0.6465
38564SOL     OW20053   8.498   7.168   5.367  0.4183  0.0707  0.2915
38564SOL    HW120054   8.586   7.194   5.338  0.5489  0.1896  0.7917
38564SOL    HW220055   8.445   7.172   5.287  0.6872  0.7754  0.1379
38565SOL     OW20056   4.948   5.234   5.136 -0.1339 -0.4896 -0.3783
38565SOL    HW120057   4.953   5.232   5.232 -0.1912 -0.7489 -0.3820
38565SOL    HW220058   4.946   5.142   5.110 -0.6787 -0.4144 -0.6039
38566SOL     OW20059   0.757   0.231   1.449 -0.1476 -0.5428 -0.4249
38566SOL    HW120060   0.743   0.325   1.446 -1.1490 -0.6918 -0.9742
38566SOL    HW220061   0.699   0.200   1.519  0.1194 -0.7660 -0.2976
38567SOL     OW20062   8.475   4.086   9.877  0.2671  0.1371 -0.3067
38567SOL    HW120063   8.534   4.027   9.831  0.5439  0.4894 -0.4047
38567SOL    HW220064   8.421   4.125   9.808  0.1148  0.0354 -0.2461
38568SOL     OW20065  10.070  10.714   8.238 -0.0073  0.1487  0.0542
38568SOL    HW120066  10.033  10.681   8.320 -1.5757  1.1677 -0.1844
38568SOL    HW220067  10.023  10.797   8.222  2.2540  1.4265 -0.4336
38569SOL     OW20068   2.311   6.743   4.494  0.1585  0.0268 -0.2701
38569SOL    HW120069   2.379   6.712   4.434 -0.8211 -0.7499 -1.0179
38569SOL    HW220070   2.323   6.691   4.573 -0.6967 -1.4222 -1.0676
38570SOL     OW20071   9.314  10.089   8.288 -0.5028  0.2760 -0.4941
38570SOL    HW120072   9.367  10.149   8.340  0.2977 -1.0941  0.3346
38570SOL    HW220073   9.334  10.112   8.197 -0.0217  1.0852 -0.1921
38571SOL     OW20074   0.654   0.916   4.038 -0.2074 -0.1758  0.4175
38571SOL    HW120075   0.564   0.883   4.045 -0.3862  0.0735 -0.4973
38571SOL    HW220076   0.643   1.005   4.003  0.2459  0.9892  3.0030
38572SOL     OW20077   4.045   6.490   4.637 -0.1400  0.1587 -0.1625
38572SOL    HW120078   4.015   6.510   4.726 -0.0575  0.4646 -0.2006
38572SOL    HW220079   3.971   6.446   4.595 -0.3443  0.4280 -0.0876
38573SOL     OW20080   6.456   2.992   1.091  0.3377 -0.1230 -0.5718
38573SOL    HW120081   6.510   3.062   1.126  2.0459 -0.8045 -1.7326
38573SOL    HW220082   6.516   2.937   1.041 -1.3278 -1.2570 -1.4415
38574SOL     OW20083   6.818   5.660  10.629 -0.2882 -0.9323 -0.2239
38574SOL    HW120084   6.827   5.748  10.592 -0.1256 -0.1898  1.5081
38574SOL    HW220085   6.725   5.650  10.646 -0.1123 -0.4073  1.1422
38575SOL     OW20086   7.209   8.466   2.108  0.7123 -0.6519 -0.3968
38575SOL    HW120087   7.282   8.528   2.113 -0.3322  0.5451  0.7609
38575SOL    HW220088   7.166   8.485   2.025  1.1790 -0.7470 -0.6629
38576SOL     OW20089   8.311   9.170   8.844  0.4255  0.5174  0.2150
38576SOL    HW120090   8.403   9.143   8.849  0.7405  1.6633  1.1830
38576SOL    HW220091   8.266   9.117   8.908  0.5530  0.4655  0.2621
38577SOL     OW20092   9.744   1.129  10.299  0.0412 -0.0624 -0.2874
38577SOL    HW120093   9.820   1.165  10.345 -1.7152  1.3001  1.6836
38577SOL    HW220094   9.742   1.177  10.216  1.6249 -0.5328 -0.6347
38578SOL     OW20095   3.793   7.833   4.178 -0.2452  0.4429 -0.5014
38578SOL    HW120096   3.720   7.787   4.221  0.4463 -0.0159  0.2074
38578SOL    HW220097   3.871   7.787   4.208  0.2747  0.1679 -2.2002
38579SOL     OW20098   9.758   4.283   3.809  0.2357 -0.0787  0.7596
38579SOL    HW120099   9.724   4.196   3.785 -0.1007  0.7718 -2.3415
38579SOL    HW220100   9.852   4.270   3.816  0.1173 -0.8416  1.0402
38580SOL     OW20101   5.940   0.165   2.727  0.1942 -0.1283 -0.5154
38580SOL    HW120102   5.954   0.212   2.645 -1.0725 -1.6685 -1.6977
38580SOL    HW220103   5.998   0.089   2.722  0.5870  0.0985  0.3402
38581SOL     OW20104   6.214  10.455   1.739  0.0386  0.0319  0.0573
38581SOL    HW120105   6.146  10.518   1.716  1.9561  2.4477  0.5569
38581SOL    HW220106   6.231  10.407   1.658 -2.5299 -1.0695  0.0478
38582SOL     OW20107   8.188   6.253   7.606 -0.0362  0.3875  0.1994
38582SOL    HW120108   8.096   6.232   7.622  0.0318  0.3286  0.5272
38582SOL    HW220109   8.190   6.289   7.517 -0.2587 -0.3434 -0.1080
38583SOL     OW20110   0.326  10.981   9.374 -0.4013  0.0862 -0.2283
38583SOL    HW120111   0.353  10.986   9.282 -0.5415  2.4523 -0.2142
38583SOL    HW220112   0.363  10.899   9.406  2.5672  0.8194 -1.5050
38584SOL     OW20113   3.993   3.939   0.031  0.1056  0.1476  0.7327
38584SOL    HW120114   3.926   3.949   0.099 -0.1050 -0.7364  0.6668
38584SOL    HW220115   3.961   3.868  -0.024  1.9371 -1.5719  1.7326
38585SOL     OW20116   2.478   5.658   2.249 -0.2581  0.2034  0.4606
38585SOL    HW120117   2.499   5.737   2.299  2.3174 -0.0620 -0.0417
38585SOL    HW220118   2.531   5.590   2.290 -2.4076 -1.3225  0.8651
38586SOL     OW20119   0.239   8.298   7.546  0.0605  0.1273 -0.5718
38586SOL    HW120120   0.271   8.283   7.458  2.0409  1.8730 -0.2255
38586SOL    HW220121   0.160   8.352   7.534 -0.0954 -0.2483 -1.2746
38587SOL     OW20122  10.060   6.495   3.163  0.9915 -0.2727 -0.4115
38587SOL    HW120123  10.131   6.433   3.174 -0.0959 -1.1893  2.0156
38587SOL    HW220124   9.981   6.441   3.160  0.1407  0.8870  0.2810
38588SOL     OW20125   6.260   6.995   6.989 -0.1711  0.4807 -0.0064
38588SOL    HW120126   6.212   7.019   7.068  0.2919 -0.5851  0.6163
38588SOL    HW220127   6.324   7.066   6.977  0.1570  0.3472  0.9210
38589SOL     OW20128   4.656   1.731   3.472 -0.3823 -0.3164 -0.1872
38589SOL    HW120129   4.737   1.752   3.517  0.2022 -0.1520 -1.2702
38589SOL    HW220130   4.679   1.660   3.412 -1.5997 -1.9107  1.1490
38590SOL     OW20131   1.746   6.866   6.138  0.0691  0.3807  0.4121
38590SOL    HW120132   1.756   6.926   6.212  1.8003  0.4520  0.1597
38590SOL    HW220133   1.826   6.813   6.138 -0.8150 -1.0125 -0.1927
38591SOL     OW20134   0.822   5.185   5.899  0.0388  0.6803 -0.0038
38591SOL    HW120135   0.828   5.090   5.899  1.3609  0.7354  0.3746
38591SOL    HW220136   0.770   5.206   5.822  1.1186 -0.3012 -1.0487
38592SOL     OW20137   1.162   2.984   8.961  0.3879 -0.4786 -0.1001
38592SOL    HW120138   1.069   3.004   8.953  0.0123 -1.9573  0.4056
38592SOL    HW220139   1.200   3.064   8.998 -1.1652 -0.8257  2.4964
38593SOL     OW20140   0.391   5.719   0.381 -0.6056  0.3135 -0.2574
38593SOL    HW120141   0.350   5.724   0.467 -1.2551 -0.3082 -0.5189
38593SOL    HW220142   0.395   5.810   0.351 -0.3621  0.5367  0.4221
38594SOL     OW20143   0.247   1.012  10.183 -0.0111  0.3805  0.1523
38594SOL    HW120144   0.163   0.981  10.149  0.6949 -2.6201  0.8161
38594SOL    HW220145   0.298   1.036  10.105 -0.2066 -1.4455 -0.5863
38595SOL     OW20146   3.579  10.950   3.318  0.2576  0.1629  0.4516
38595SOL    HW120147   3.490  10.964   3.350  0.6768  0.0487  1.7112
38595SOL    HW220148   3.634  11.003   3.375  1.0113  0.1239 -0.2296
38596SOL     OW20149   6.510   1.118   1.656 -0.2706 -0.6826 -0.2520
38596SOL    HW120150   6.557   1.061   1.716  0.0123 -0.1433  0.0299
38596SOL    HW220151   6.454   1.171   1.711 -0.5653 -0.7044 -0.5226
38597SOL     OW20152   0.375   6.188   4.891  0.4131 -0.3694 -0.8495
38597SOL    HW120153   0.404   6.225   4.808 -0.7483 -0.9414 -1.5431
38597SOL    HW220154   0.280   6.201   4.891  0.5333  0.8757  1.0363
38598SOL     OW20155   5.341   7.459   3.630 -0.5837 -0.0464  0.3829
38598SOL    HW120156   5.275   7.503   3.684 -1.2774 -0.5642 -0.0256
38598SOL    HW220157   5.365   7.381   3.680  0.6169  0.7490  1.0888
38599SOL     OW20158   0.963  10.697   5.816 -0.5864  0.2920 -0.0778
38599SOL    HW120159   1.020  10.755   5.766 -0.6381  0.8535  0.4971
38599SOL    HW220160   0.980  10.610   5.780  0.4370  0.4875 -0.1028
38600SOL     OW20161   7.666   8.044  10.861 -0.2459 -0.5514  0.1148
38600SOL    HW120162   7.732   8.025  10.795  0.1706  0.3068  0.2739
38600SOL    HW220163   7.698   8.001  10.940 -0.2220 -0.7063  0.0220
38601SOL     OW20164   6.366   3.413   7.002 -0.1690 -0.3896  0.0231
38601SOL    HW120165   6.453   3.452   7.002 -0.9837  1.5517  0.5106
38601SOL    HW220166   6.354   3.381   7.091 -1.3296  2.8517  1.1904
38602SOL     OW20167   7.986   7.215   7.086 -1.1282 -0.2667 -0.6077
38602SOL    HW120168   8.031   7.300   7.084  2.6654 -2.0464  0.2646
38602SOL    HW220169   7.976   7.195   7.179 -3.8168 -0.0096 -0.7721
38603SOL     OW20170   9.336  11.013   5.468  0.3838  0.6229 -0.6629
38603SOL    HW120171   9.412  11.070   5.484 -1.2673  2.4129  1.3637
38603SOL    HW220172   9.310  10.983   5.555 -0.9180 -0.3978 -1.3695
38604SOL     OW20173   0.451   6.836   4.656  0.3110 -0.0316  0.3265
38604SOL    HW120174   0.409   6.750   4.659  1.7911 -0.8622 -1.1017
38604SOL    HW220175   0.380   6.896   4.635 -0.3525 -1.2605 -1.1633
38605SOL     OW20176   7.524   8.993   1.237 -0.2590  0.1956  0.3358
38605SOL    HW120177   7.574   9.041   1.303  0.8144  0.0825 -0.3692
38605SOL    HW220178   7.493   9.061   1.177 -1.5136  0.3334  1.1229
38606SOL     OW20179   8.051   8.503   7.221  0.1871 -0.1601 -0.5475
38606SOL    HW120180   7.987   8.537   7.283  1.3387 -2.4769  2.1221
38606SOL    HW220181   7.998   8.473   7.146 -1.7294 -0.7700  0.9636
38607SOL     OW20182   3.771   2.138   5.247 -0.2774 -0.0848  0.3712
38607SOL    HW120183   3.848   2.096   5.286  0.2168 -0.2834 -0.7792
38607SOL    HW220184   3.702   2.073   5.254 -0.1484 -0.1879  0.7310
38608SOL     OW20185  10.390   8.600   3.291  0.1908 -0.3605 -0.2187
38608SOL    HW120186  10.473   8.647   3.287 -0.8554  1.6770  0.5612
38608SOL    HW220187  10.357   8.601   3.201 -0.0584  0.9018 -0.1238
38609SOL     OW20188   9.335   0.410   8.231  0.4414 -0.3306 -0.3803
38609SOL    HW120189   9.399   0.399   8.301  0.0951  0.0739  0.0005
38609SOL    HW220190   9.261   0.455   8.272 -0.2870 -1.2023 -0.6984
38610SOL     OW20191   0.373  10.451   3.452 -0.3184  0.5069 -0.3387
38610SOL    HW120192   0.344  10.525   3.504  0.8858  1.6659 -1.2421
38610SOL    HW220193   0.295  10.397   3.440 -0.7739  0.5324  2.0509
38611SOL     OW20194   6.813   4.840   0.891 -0.6700  0.0330  0.0882
38611SOL    HW120195   6.801   4.745   0.902  0.2631 -0.2491 -1.1213
38611SOL    HW220196   6.756   4.879   0.958  0.0685 -1.3992  1.6493
38612SOL     OW20197   4.523   9.590   4.925 -0.0398  0.4142  0.1188
38612SOL    HW120198   4.538   9.681   4.953  1.7905 -0.3545  1.8590
38612SOL    HW220199   4.568   9.537   4.991 -1.2143 -1.7889 -0.7595
38613SOL     OW20200  10.473   7.402   9.759 -0.0009  0.0431 -0.1241
38613SOL    HW120201  10.489   7.308   9.752  2.4939  0.5194 -2.4657
38613SOL    HW220202  10.559   7.442   9.744 -1.2939  2.7388 -0.9945
38614SOL     OW20203  10.489   7.299   7.021  0.1573  0.3029  0.4572
38614SOL    HW120204  10.489   7.273   7.113  0.3927  0.8658  0.6230
38614SOL    HW220205  10.531   7.386   7.020  0.3224  0.2254 -0.2003
38615SOL     OW20206   0.195  10.120   2.631 -0.4312 -0.2535 -0.1374
38615SOL    HW120207   0.180  10.184   2.701 -0.0616 -0.0279 -0.2654
38615SOL    HW220208   0.148  10.042   2.661 -0.3833 -0.1186  0.3076
38616SOL     OW20209   0.912   5.521   8.362 -0.5943  0.2095 -0.7091
38616SOL    HW120210   0.923   5.548   8.271  1.4829  0.6159 -0.3878
38616SOL    HW220211   0.926   5.426   8.361  1.5928  0.4981 -0.5509
38617SOL     OW20212   2.165  11.092   9.268 -0.9477 -0.1047  0.0652
38617SOL    HW120213   2.158  11.000   9.293 -1.2661  0.4587  2.2249
38617SOL    HW220214   2.150  11.093   9.173  2.1237 -2.6209 -0.6251
38618SOL     OW20215   3.707   9.014   2.703  0.2613  0.7557  0.5172
38618SOL    HW120216   3.797   8.993   2.678  0.9146  2.9127  0.9008
38618SOL    HW220217   3.713   9.030   2.798 -0.4804  1.1550  0.4959
38619SOL     OW20218   1.545   1.159   1.491  0.1651 -0.8107  0.2406
38619SOL    HW120219   1.489   1.181   1.566 -0.4353 -2.7633  0.4391
38619SOL    HW220220   1.488   1.171   1.415  1.1287  2.3653 -0.1246
38620SOL     OW20221   1.984   0.059   6.057  0.1426 -0.1677 -0.5395
38620SOL    HW120222   1.988   0.146   6.017  1.4037  1.4464  2.6881
38620SOL    HW220223   2.069   0.049   6.100 -0.6945 -2.1545  0.7963
38621SOL     OW20224   1.448   7.419   2.071  0.8227 -0.1856  0.2740
38621SOL    HW120225   1.366   7.443   2.028  0.5404  1.3811  1.5714
38621SOL    HW220226   1.452   7.324   2.065  0.2378 -0.1301 -2.1186
38622SOL     OW20227   4.801  10.699   4.467  0.3106 -0.3993  0.4868
38622SOL    HW120228   4.844  10.614   4.460  0.3268 -0.2567 -2.9183
38622SOL    HW220229   4.709  10.678   4.487  0.3608 -1.2477 -0.0976
38623SOL     OW20230   8.777   0.935   6.329  0.1153  0.5140 -0.5172
38623SOL    HW120231   8.734   0.883   6.397 -0.9126 -1.0413 -2.2714
38623SOL    HW220232   8.721   1.013   6.321 -0.0510  0.4608  0.0456
38624SOL     OW20233   1.024   4.595  10.752 -0.1566  0.1210 -0.4760
38624SOL    HW120234   0.982   4.522  10.707  0.5514  0.3919 -1.6021
38624SOL    HW220235   1.052   4.559  10.836 -0.0135 -0.8451 -0.9304
38625SOL     OW20236   9.731   6.340   2.268 -0.4412 -0.2528 -0.2219
38625SOL    HW120237   9.759   6.353   2.358  1.0283 -1.0927 -0.5190
38625SOL    HW220238   9.774   6.409   2.218  0.1491 -0.8022 -0.5008
38626SOL     OW20239   3.659   7.959   0.070  0.8432 -0.0580 -0.3122
38626SOL    HW120240   3.602   7.888   0.042  1.0303 -1.1783  1.9116
38626SOL    HW220241   3.661   8.019  -0.005 -1.7203 -0.8931 -1.1686
38627SOL     OW20242   9.515   1.631  10.503 -0.1722  0.2135  0.2137
38627SOL    HW120243   9.571   1.672  10.569  0.5157  0.9749 -0.8057
38627SOL    HW220244   9.565   1.638  10.422 -1.4319  0.2212 -0.5885
38628SOL     OW20245   8.401   2.605   2.354  0.3724  0.4041  0.2695
38628SOL    HW120246   8.492   2.614   2.381  0.4416 -0.9962  0.6012
38628SOL    HW220247   8.401   2.629   2.261  0.8454  1.5709  0.5622
38629SOL     OW20248   8.957   4.082   1.710  0.0365 -0.1205  0.1112
38629SOL    HW120249   8.886   4.108   1.768 -0.1664  0.5447 -0.4229
38629SOL    HW220250   8.989   4.164   1.673 -1.5517 -0.6493 -2.7249
38630SOL     OW20251   3.121   2.647   0.037 -0.0023 -0.2879 -0.3371
38630SOL    HW120252   3.086   2.665   0.124  1.4593  0.7809  0.0779
38630SOL    HW220253   3.071   2.571   0.006 -0.6504 -0.6079  1.3595
38631SOL     OW20254   5.865   9.270   9.140 -0.5686  0.2480 -0.1080
38631SOL    HW120255   5.918   9.189   9.141  0.2303  0.7097 -1.6419
38631SOL    HW220256   5.827   9.272   9.052 -0.6035  1.5310 -0.0707
38632SOL     OW20257   3.075   5.862   4.839 -0.5637 -0.0984 -0.1291
38632SOL    HW120258   3.160   5.902   4.853 -0.9769  1.2038 -1.1520
38632SOL    HW220259   3.080   5.778   4.885  0.9857  0.2911  0.4703
38633SOL     OW20260   5.240   2.598  10.995 -0.6374 -0.8315  0.1073
38633SOL    HW120261   5.181   2.553  11.055 -0.9794 -0.1165  0.3172
38633SOL    HW220262   5.294   2.528  10.957 -2.2419 -1.6181 -0.8193
38634SOL     OW20263   8.016   3.820   9.366 -0.2700 -0.0249  0.2999
38634SOL    HW120264   7.945   3.830   9.429 -0.7272 -1.4423  0.0463
38634SOL    HW220265   7.982   3.758   9.301  1.2187 -0.7843  0.2049
38635SOL     OW20266   8.918   8.107   1.507  0.7044 -0.3903  0.5156
38635SOL    HW120267   8.915   8.021   1.548 -0.2327 -0.6982 -0.1820
38635SOL    HW220268   8.975   8.096   1.431 -0.1518 -0.6434 -0.1045
38636SOL     OW20269   1.857   6.272   8.146  0.3544 -0.1198  0.1228
38636SOL    HW120270   1.883   6.315   8.228  0.7701  2.6040 -1.3421
38636SOL    HW220271   1.927   6.294   8.084 -0.6040 -1.0080 -1.3258
38637SOL     OW20272   3.386   6.083   7.346  0.1380  0.7592  0.3053
38637SOL    HW120273   3.292   6.071   7.359  0.2709  0.0752  0.6702
38637SOL    HW220274   3.412   6.010   7.290  0.3873  1.1662 -0.1201
38638SOL     OW20275   2.830  10.887   0.022  0.0585 -0.1553  0.0658
38638SOL    HW120276   2.893  10.926  -0.038  0.1778 -2.1039 -1.1614
38638SOL    HW220277   2.744  10.911  -0.014  0.1273 -0.3401 -0.2268
38639SOL     OW20278   3.766   1.856   3.304 -0.5399  0.0434 -0.5506
38639SOL    HW120279   3.851   1.829   3.270 -1.3329 -0.9553 -1.8699
38639SOL    HW220280   3.709   1.780   3.290 -1.5327  0.5054  0.7697
38640SOL     OW20281   6.012   9.055   5.113 -0.4542 -0.2026 -0.1338
38640SOL    HW120282   5.947   9.097   5.056 -2.7267 -1.5260  1.3317
38640SOL    HW220283   6.037   9.123   5.175 -0.9271  0.1320 -0.3052
38641SOL     OW20284   0.354  10.964   7.654 -0.8018  0.0259  0.1885
38641SOL    HW120285   0.450  10.971   7.649 -0.7867 -0.6033 -0.5504
38641SOL    HW220286   0.326  10.950   7.564 -1.6541  0.8181  0.3098
38642SOL     OW20287   0.544   5.412   3.875 -0.0782  0.0790 -0.0621
38642SOL    HW120288   0.634   5.440   3.889 -0.8294  1.3138  3.2853
38642SOL    HW220289   0.512   5.467   3.804  1.1304  1.3477  0.3394
38643SOL     OW20290   0.090   1.169   2.686 -0.3597 -0.5653  0.6694
38643SOL    HW120291   0.139   1.138   2.610 -2.0338  0.3577 -0.8604
38643SOL    HW220292   0.025   1.100   2.701  0.3451 -1.0274  1.6724
38644SOL     OW20293  10.337   6.686   5.238  0.4177 -0.0352 -0.2799
38644SOL    HW120294  10.333   6.624   5.312 -0.0566 -0.1406 -0.3866
38644SOL    HW220295  10.263   6.745   5.253 -0.8769 -1.2081 -1.6645
38645SOL     OW20296   4.818   4.086   0.267 -0.2899 -0.6420 -0.2574
38645SOL    HW120297   4.911   4.072   0.284  0.1586  2.0227 -0.0971
38645SOL    HW220298   4.783   4.114   0.352 -0.7794  0.3250 -0.7667
38646SOL     OW20299   9.107   8.534   2.818 -0.1024 -0.0804  0.1522
38646SOL    HW120300   9.199   8.558   2.827  0.0161  0.4876 -1.9995
38646SOL    HW220301   9.094   8.465   2.884  1.4157  0.9129  1.5829
38647SOL     OW20302   3.697   7.478   5.426 -0.0752 -0.1954 -0.0411
38647SOL    HW120303   3.607   7.501   5.405 -0.3194 -0.4828  0.6807
38647SOL    HW220304   3.716   7.523   5.508  0.6955  0.4753 -0.5644
38648SOL     OW20305   8.674  10.538   2.498  0.2736 -0.0155  0.6137
38648SOL    HW120306   8.704  10.533   2.589  0.7925  0.1127  0.4543
38648SOL    HW220307   8.689  10.629   2.472  0.3742 -0.1140  0.3177
38649SOL     OW20308   4.774   8.641  10.866  0.3907  0.6757 -0.2006
38649SOL    HW120309   4.838   8.707  10.840  2.2829 -0.4667  1.3280
38649SOL    HW220310   4.794   8.565  10.811 -0.5649  0.7319 -0.6502
38650SOL     OW20311   4.934   7.734   4.675 -0.3890 -0.1342 -0.1077
38650SOL    HW120312   4.940   7.829   4.668  0.9207 -0.2304 -0.6522
38650SOL    HW220313   4.925   7.704   4.585  0.1188 -0.5675 -0.0175
38651SOL     OW20314   2.567   4.360   7.330 -0.3919 -0.3275 -0.0417
38651SOL    HW120315   2.480   4.390   7.304 -0.1359  0.9155  0.4625
38651SOL    HW220316   2.620   4.439   7.331  0.6884 -1.0348 -0.0842
38652SOL     OW20317  10.031   0.233   8.082  0.1873  0.1942 -0.2032
38652SOL    HW120318   9.952   0.233   8.136  0.2207  2.7624 -0.0480
38652SOL    HW220319  10.005   0.279   8.002  1.6408  1.7054  0.1282
38653SOL     OW20320   9.673   6.114   7.945  0.2126 -0.0665 -0.3567
38653SOL    HW120321   9.611   6.163   7.891 -0.0464  0.0516  0.0486
38653SOL    HW220322   9.712   6.179   8.003  1.9725  0.1792 -1.7306
38654SOL     OW20323   9.319  10.651  10.489 -0.0677 -0.0215 -0.4904
38654SOL    HW120324   9.398  10.641  10.436 -0.1905 -0.5015 -0.5921
38654SOL    HW220325   9.352  10.660  10.578  0.0864 -1.0398 -0.4282
38655SOL     OW20326   2.108   6.425   4.260 -0.2115  0.2261  0.0128
38655SOL    HW120327   2.090   6.480   4.337 -0.2440 -2.1709  1.8313
38655SOL    HW220328   2.025   6.424   4.212 -0.4628  1.0466  0.4060
38656SOL     OW20329  10.225   0.605   8.792  0.2155  0.0938 -0.2844
38656SOL    HW120330  10.142   0.574   8.829  0.5764 -0.2644  0.2496
38656SOL    HW220331  10.215   0.700   8.788 -0.4302  0.0122 -0.7549
38657SOL     OW20332   8.598   8.294   5.900 -0.1229  0.8043  0.0388
38657SOL    HW120333   8.503   8.286   5.909 -0.0336  0.0185  0.3733
38657SOL    HW220334   8.624   8.214   5.853  0.1585  1.8901 -1.7486
38658SOL     OW20335   0.978   1.942   9.348 -0.2643  0.2540  0.2656
38658SOL    HW120336   1.003   1.988   9.428  1.2715 -0.2367  0.1002
38658SOL    HW220337   1.051   1.883   9.330 -0.8935 -0.1527 -1.1113
38659SOL     OW20338   9.329  11.056   1.332 -0.3294 -0.3711 -0.6979
38659SOL    HW120339   9.339  10.977   1.385  0.6780 -0.3385 -0.8190
38659SOL    HW220340   9.368  11.034   1.248  1.5311  0.7607 -0.1994
38660SOL     OW20341   0.035  10.587   5.342  0.1910 -0.1379  0.4232
38660SOL    HW120342   0.127  10.583   5.317 -0.0129  0.2904 -0.4090
38660SOL    HW220343   0.020  10.679   5.364 -0.0947 -0.1688  0.3596
38661SOL     OW20344   5.300  10.237  10.180  0.3059 -0.0894  0.2239
38661SOL    HW120345   5.295  10.251  10.274  1.2689 -0.9862  0.4356
38661SOL    HW220346   5.369  10.296  10.151  0.9139 -0.7433  0.3081
38662SOL     OW20347   5.323   9.688   4.111 -0.4987  0.1080 -0.5585
38662SOL    HW120348   5.354   9.670   4.199 -2.3550 -0.6029 -0.0016
38662SOL    HW220349   5.385   9.752   4.076  1.1801 -0.7867  0.6601
38663SOL     OW20350   4.338   4.595   7.452  0.1702 -0.0802  0.0167
38663SOL    HW120351   4.318   4.661   7.519  0.2295 -2.4700  2.5599
38663SOL    HW220352   4.425   4.619   7.422 -0.3741  1.8069 -0.2126
38664SOL     OW20353   2.964   0.080   8.782  0.0082 -0.3077  0.4891
38664SOL    HW120354   2.949   0.117   8.695  0.8636  1.1917  0.9463
38664SOL    HW220355   3.034   0.133   8.819  0.0694 -1.2955  1.8849
38665SOL     OW20356  10.207   7.363   2.334 -0.5974  0.5121  0.8757
38665SOL    HW120357  10.235   7.329   2.250  0.8632 -1.8105  2.1976
38665SOL    HW220358  10.287   7.391   2.378 -1.3175  1.6347  1.5528
38666SOL     OW20359   7.504  10.212   6.749 -0.0364  0.3359 -0.1724
38666SOL    HW120360   7.476  10.241   6.663  2.4353  0.4864 -1.0059
38666SOL    HW220361   7.530  10.121   6.737 -1.4763 -0.2516  0.8960
38667SOL     OW20362   3.312   4.251   5.195  0.2040 -0.7787  0.1773
38667SOL    HW120363   3.226   4.212   5.209  0.8589 -1.8187  1.5222
38667SOL    HW220364   3.368   4.211   5.262  1.4234  0.8841  0.2094
38668SOL     OW20365   7.208   2.411   3.259 -0.2398  0.1543  0.2711
38668SOL    HW120366   7.189   2.320   3.278  0.8000 -0.3059 -0.7689
38668SOL    HW220367   7.130   2.443   3.213 -0.3851 -0.3738  0.1416
38669SOL     OW20368   6.071   7.916   5.853  0.0849 -0.1672  0.2525
38669SOL    HW120369   5.988   7.918   5.805  1.1667  0.4998 -1.6597
38669SOL    HW220370   6.101   8.007   5.854  1.5209 -0.6048 -0.4247
38670SOL     OW20371   8.345   5.407  10.051  0.4335 -0.1200 -0.1579
38670SOL    HW120372   8.322   5.474   9.987 -2.0578  0.9458  1.6730
38670SOL    HW220373   8.287   5.334  10.032  0.3347 -0.1666  0.3112
38671SOL     OW20374   7.849   4.089   6.429  0.1402  0.1831  0.4435
38671SOL    HW120375   7.857   3.996   6.448 -1.3147 -0.1909 -0.6318
38671SOL    HW220376   7.791   4.123   6.498  0.3895  0.2320  0.6313
38672SOL     OW20377   3.429   9.513   8.886 -0.2221  0.1616 -0.1593
38672SOL    HW120378   3.466   9.427   8.864 -0.3812  0.2347 -0.7303
38672SOL    HW220379   3.502   9.574   8.874  1.2424 -0.3024  4.3758
38673SOL     OW20380   7.735   5.574   9.674 -0.1385  0.7340  0.0313
38673SOL    HW120381   7.805   5.606   9.618  1.2175 -1.0292  0.6136
38673SOL    HW220382   7.712   5.648   9.729  2.6475  0.8825  1.1447
38674SOL     OW20383   0.375   0.842   2.375  0.1961 -0.0026  0.0021
38674SOL    HW120384   0.405   0.821   2.463  0.4313 -1.1122 -0.3256
38674SOL    HW220385   0.446   0.894   2.337 -0.0282  0.7167  0.5485
38675SOL     OW20386   0.517   8.639   1.454 -0.5872  0.6174  0.6508
38675SOL    HW120387   0.430   8.674   1.474 -0.7446  0.9557 -0.5485
38675SOL    HW220388   0.575   8.715   1.459 -0.6810  0.7796 -0.4125
38676SOL     OW20389   0.226   6.131   7.230 -0.6145 -0.1955  0.2713
38676SOL    HW120390   0.239   6.038   7.249  0.2788 -0.1594 -0.1084
38676SOL    HW220391   0.311   6.171   7.249 -0.6260  0.3386 -0.7508
38677SOL     OW20392   1.003   2.827   2.670  0.3876 -0.4667  0.3411
38677SOL    HW120393   1.080   2.780   2.637 -0.7240 -2.5143  0.5084
38677SOL    HW220394   0.936   2.760   2.679 -1.1950  1.1209  0.9901
38678SOL     OW20395   4.846   5.778   8.762 -0.1755 -0.1759 -0.5318
38678SOL    HW120396   4.916   5.842   8.765 -0.0950 -0.2954  0.3389
38678SOL    HW220397   4.842   5.742   8.850  0.7278 -2.3798 -1.3227
38679SOL     OW20398   8.183  11.043   1.653  0.4542  0.0329 -0.1613
38679SOL    HW120399   8.277  11.029   1.660  0.7353  1.8056 -0.0017
38679SOL    HW220400   8.171  11.136   1.669 -1.3056 -0.0968 -0.4990
38680SOL     OW20401   7.619  10.260   4.352 -0.0141 -0.1840 -0.2972
38680SOL    HW120402   7.682  10.201   4.312  0.5766 -0.6050  1.1883
38680SOL    HW220403   7.635  10.345   4.311  2.1247 -0.0815  0.6431
38681SOL     OW20404   6.066   4.391   0.853 -0.2977  0.9738  0.0875
38681SOL    HW120405   6.083   4.473   0.899  0.1345  0.4622  0.8553
38681SOL    HW220406   6.150   4.367   0.815 -0.1429  0.2958  0.8433
38682SOL     OW20407   3.120   0.597   1.584  0.5513  0.1756  0.0815
38682SOL    HW120408   3.131   0.676   1.530 -1.9500  0.3903 -0.1964
38682SOL    HW220409   3.114   0.630   1.674 -0.5447  0.3308 -0.0394
38683SOL     OW20410   3.444   9.240   7.161 -0.1192  0.1336  0.1749
38683SOL    HW120411   3.455   9.145   7.164 -1.1434  0.0186  0.9009
38683SOL    HW220412   3.455   9.268   7.252  1.3474  0.8690 -0.2045
38684SOL     OW20413   9.645   6.958  10.686 -0.1107 -0.2308 -0.2141
38684SOL    HW120414   9.684   7.043  10.666 -0.9489 -0.2558 -2.1806
38684SOL    HW220415   9.650   6.951  10.782 -0.6119  2.3131  0.0720
38685SOL     OW20416   1.275   3.097   7.824 -0.0415  0.1385 -0.1148
38685SOL    HW120417   1.244   3.140   7.744 -2.0781 -1.0611 -0.0634
38685SOL    HW220418   1.337   3.031   7.793  0.3294  0.6821 -0.5485
38686SOL     OW20419   7.916   4.657   6.835 -0.3327  0.2151 -0.6627
38686SOL    HW120420   7.929   4.572   6.876 -1.2937 -0.3152 -1.4126
38686SOL    HW220421   7.971   4.655   6.757 -0.6531  0.1282 -0.8877
38687SOL     OW20422   0.775   8.481   1.624 -0.1768  0.1911 -0.3603
38687SOL    HW120423   0.795   8.537   1.549 -0.9319  1.2103  0.1707
38687SOL    HW220424   0.724   8.537   1.683  0.8528 -0.4186  1.1589
38688SOL     OW20425   6.970   3.428   9.018  0.4506 -0.1965  0.1882
38688SOL    HW120426   7.042   3.366   9.033  0.9950 -0.0742 -1.6989
38688SOL    HW220427   6.894   3.388   9.060  1.7391  0.0774  3.0113
38689SOL     OW20428   4.819   0.462   8.457 -0.4039 -0.4022 -0.8378
38689SOL    HW120429   4.819   0.534   8.393  0.3043 -0.4802 -0.9286
38689SOL    HW220430   4.727   0.434   8.460 -0.6924  0.5009 -0.8002
38690SOL     OW20431   6.723   8.328   3.393  0.9330 -0.4543  0.0469
38690SOL    HW120432   6.646   8.272   3.384  0.2979  0.3657  0.2212
38690SOL    HW220433   6.796   8.276   3.358  0.1580 -0.9158 -0.9028
38691SOL     OW20434   8.081   3.716   0.790  0.0894  0.3793 -0.5131
38691SOL    HW120435   8.078   3.707   0.885 -1.2457  0.9499 -0.4754
38691SOL    HW220436   8.168   3.685   0.766  0.9239  1.4016  1.0152
38692SOL     OW20437   1.934   8.530   1.486  0.2389 -0.1918 -0.1421
38692SOL    HW120438   1.903   8.608   1.442 -0.4845 -0.3856  0.0079
38692SOL    HW220439   2.023   8.517   1.453  1.0403  1.6517  1.0863
38693SOL     OW20440   3.848  10.307   5.451 -0.2110  0.2278  0.3210
38693SOL    HW120441   3.908  10.236   5.431  0.7372  0.9096  0.6460
38693SOL    HW220442   3.889  10.353   5.524 -0.7697  1.1411  0.0814
38694SOL     OW20443   1.618   2.618   3.690 -0.1068 -0.9125  0.8191
38694SOL    HW120444   1.597   2.661   3.773 -0.3521  0.6002  0.0028
38694SOL    HW220445   1.713   2.608   3.691 -0.0406 -0.3013  1.0163
38695SOL     OW20446   0.645   6.737   0.625 -0.1532 -0.2604 -0.6402
38695SOL    HW120447   0.603   6.777   0.700 -0.1942  0.5243 -1.0701
38695SOL    HW220448   0.667   6.810   0.567  1.3012 -0.6894 -0.6803
38696SOL     OW20449   9.392   2.453   9.237 -0.2245 -0.6480 -0.0611
38696SOL    HW120450   9.354   2.507   9.168 -0.4140 -0.2878  0.3192
38696SOL    HW220451   9.457   2.510   9.279 -1.0753 -0.3832  0.9444
38697SOL     OW20452   5.296   3.395   5.726 -0.8196 -0.1955  0.0687
38697SOL    HW120453   5.350   3.326   5.765  0.8158  0.9661 -0.0347
38697SOL    HW220454   5.248   3.351   5.656  0.8643 -1.0680 -0.5872
38698SOL     OW20455  10.326   5.265  10.609  0.3665  0.5755  0.2956
38698SOL    HW120456  10.419   5.285  10.611  0.2625  1.0855  0.0986
38698SOL    HW220457  10.319   5.180  10.653  0.7419  1.2244  1.6346
38699SOL     OW20458   3.280   3.960   7.319  0.2436 -0.0661 -0.0151
38699SOL    HW120459   3.283   3.869   7.290 -0.7590  0.5886 -2.4320
38699SOL    HW220460   3.270   3.954   7.414 -0.7853 -2.4933 -0.1914
38700SOL     OW20461   2.162   4.224   2.089  0.0149  0.3478  0.5314
38700SOL    HW120462   2.174   4.272   2.171 -1.8991 -0.7457  1.5265
38700SOL    HW220463   2.068   4.232   2.070  0.3253  0.0995 -1.2630
38701SOL     OW20464   4.788   0.017   5.629  0.1149 -0.3581  0.7446
38701SOL    HW120465   4.872   0.053   5.658  1.0966 -1.7243 -0.2888
38701SOL    HW220466   4.763   0.071   5.554 -0.1927  0.3618  1.3559
38702SOL     OW20467   7.278   8.626   2.872  0.2493 -0.0237 -0.1725
38702SOL    HW120468   7.297   8.688   2.943 -0.4178  2.6682 -2.1816
38702SOL    HW220469   7.362   8.610   2.830  0.2921  0.3023 -0.2157
38703SOL     OW20470   8.979   7.159   5.776  1.5106  0.2469 -0.0367
38703SOL    HW120471   9.025   7.166   5.693  2.2726 -0.0680  0.3538
38703SOL    HW220472   9.040   7.193   5.841  0.5914  1.3316  0.2967
38704SOL     OW20473  10.485   5.808   5.723  0.2049 -0.4256 -0.1874
38704SOL    HW120474  10.457   5.717   5.710  1.1438 -0.4397 -2.5739
38704SOL    HW220475  10.440   5.857   5.655  0.9359  0.6230  0.0588
38705SOL     OW20476   0.162   8.597   2.649  0.0472 -0.3934 -0.0253
38705SOL    HW120477   0.163   8.692   2.661  2.0869 -0.1659 -1.5275
38705SOL    HW220478   0.205   8.563   2.728  0.5044  0.0193 -0.0953
38706SOL     OW20479  10.947   4.291   8.929  0.3447  0.4458 -0.0316
38706SOL    HW120480  10.867   4.240   8.925  2.1646 -2.7921  1.1169
38706SOL    HW220481  10.953   4.318   9.021 -0.3799  2.4998 -0.5388
38707SOL     OW20482  11.075   5.004   1.979 -0.2084  0.0747  0.2419
38707SOL    HW120483  11.090   4.918   1.939 -0.0912 -0.9686  2.3786
38707SOL    HW220484  11.082   5.066   1.906 -1.0324 -1.7639 -1.5063
38708SOL     OW20485   5.228   2.748   9.510  0.0365  0.4893 -0.2797
38708SOL    HW120486   5.198   2.746   9.601 -0.2940 -0.9994 -0.3973
38708SOL    HW220487   5.303   2.689   9.507 -0.3629  0.0016 -1.1053
38709SOL     OW20488   2.448   3.290  10.052  0.3140  0.1761 -0.1689
38709SOL    HW120489   2.426   3.266  10.142 -0.5097 -2.2026 -0.9287
38709SOL    HW220490   2.420   3.381  10.044  0.1778  0.3604  1.8895
38710SOL     OW20491   3.450   2.864   6.186  0.3357 -0.8506 -0.0175
38710SOL    HW120492   3.512   2.796   6.210 -0.7763 -1.4870  1.1896
38710SOL    HW220493   3.503   2.933   6.146  1.9425 -0.9498  1.8279
38711SOL     OW20494   7.656   4.437   0.648  0.0984 -0.3333 -0.3923
38711SOL    HW120495   7.747   4.411   0.638  0.6523  1.0847  0.6893
38711SOL    HW220496   7.658   4.513   0.706 -1.6915  0.3337 -1.1152
38712SOL     OW20497  10.470   4.227   7.241 -0.2600  0.0927 -0.2990
38712SOL    HW120498  10.402   4.294   7.240  0.4236  0.8289  0.5662
38712SOL    HW220499  10.545   4.270   7.281  0.3337 -1.0665 -0.1230
38713SOL     OW20500   5.875   7.801   1.399  0.0241  0.2347 -0.8689
38713SOL    HW120501   5.781   7.784   1.402 -0.1335  1.1088 -0.6119
38713SOL    HW220502   5.915   7.715   1.407 -0.6999  0.0790  2.7812
38714SOL     OW20503  10.251   4.058   7.524  1.1380 -0.0529 -0.1425
38714SOL    HW120504  10.307   4.002   7.471 -1.1559 -2.2603 -0.4542
38714SOL    HW220505  10.271   4.033   7.614  1.6134  0.1779 -0.1811
38715SOL     OW20506   8.646   8.193  10.511 -0.2265  0.6726  1.0389
38715SOL    HW120507   8.619   8.104  10.486  2.4148 -0.0738  0.5122
38715SOL    HW220508   8.579   8.250  10.475 -1.3283 -1.0180  0.2817
38716SOL     OW20509   2.434   2.697   2.571 -0.3129  0.3688  0.1176
38716SOL    HW120510   2.465   2.713   2.482 -0.3015 -0.6340 -0.0664
38716SOL    HW220511   2.507   2.650   2.614 -0.5668  0.2798  0.4572
38717SOL     OW20512   2.613   6.249   6.774 -0.3732 -0.1159 -0.1213
38717SOL    HW120513   2.541   6.186   6.784  0.0719 -0.9113 -1.6747
38717SOL    HW220514   2.634   6.275   6.863 -1.8496 -0.6991  0.4368
38718SOL     OW20515   2.989   9.733   1.703 -0.0593  0.6469 -0.4123
38718SOL    HW120516   3.036   9.674   1.762  0.4161  1.4977  0.0796
38718SOL    HW220517   2.897   9.725   1.729  0.2018  1.3962  0.8008
38719SOL     OW20518   0.492   1.981   7.067 -0.0838  0.0408  0.1429
38719SOL    HW120519   0.529   2.066   7.042  1.6009 -1.1372 -1.6716
38719SOL    HW220520   0.567   1.929   7.092 -0.9676 -1.2334  0.2346
38720SOL     OW20521   0.128   5.989   3.380 -0.0209 -0.0291 -0.1800
38720SOL    HW120522   0.111   6.059   3.317  1.8677  1.8648  1.2746
38720SOL    HW220523   0.223   5.977   3.378  0.5864  2.0144  3.9747
38721SOL     OW20524  10.470  10.902   1.521 -0.3959 -0.2675 -0.0366
38721SOL    HW120525  10.506  10.987   1.494  1.0066 -0.6349  0.5444
38721SOL    HW220526  10.522  10.839   1.472 -0.5382 -0.8191  0.5170
38722SOL     OW20527   9.840   9.726   7.326  0.2401  0.1163  0.5203
38722SOL    HW120528   9.790   9.703   7.404  0.1866 -0.4681  0.3226
38722SOL    HW220529   9.841   9.821   7.325 -0.2554  0.1300  0.9140
38723SOL     OW20530   3.587   6.349   6.466 -0.2151 -0.1405  0.3787
38723SOL    HW120531   3.514   6.383   6.517  0.6542  0.0069  1.5601
38723SOL    HW220532   3.655   6.329   6.531 -0.0707 -2.5703 -0.4122
38724SOL     OW20533   5.250   7.699   4.520  0.1130 -0.4516  0.3980
38724SOL    HW120534   5.156   7.701   4.504  0.1397 -0.2310  0.2803
38724SOL    HW220535   5.257   7.692   4.616 -0.0480 -2.1246  0.3198
38725SOL     OW20536   3.685   8.343   8.427  0.2895 -0.2160 -0.1339
38725SOL    HW120537   3.673   8.265   8.481  0.8052 -0.3702 -0.2317
38725SOL    HW220538   3.736   8.403   8.483 -1.6637  0.8054  0.6372
38726SOL     OW20539   2.087   8.140   4.717 -0.4097 -0.3429 -0.1572
38726SOL    HW120540   2.099   8.061   4.665  0.2562 -0.9211  0.8311
38726SOL    HW220541   2.083   8.109   4.807  0.1132  0.7693  0.2670
38727SOL     OW20542   1.246   5.871   0.436 -0.3147 -0.2225 -0.1618
38727SOL    HW120543   1.328   5.850   0.390 -0.9889 -1.6810 -0.7557
38727SOL    HW220544   1.274   5.894   0.525  0.6613 -1.9399  0.0135
38728SOL     OW20545   4.383   5.411   2.569  0.5753 -0.1238 -0.4771
38728SOL    HW120546   4.293   5.419   2.600  1.4518  0.4369  2.1596
38728SOL    HW220547   4.418   5.500   2.572  1.8053 -0.6157  0.5333
38729SOL     OW20548  10.748   1.683   9.101  0.0867 -0.3169 -0.4491
38729SOL    HW120549  10.697   1.608   9.132  2.6538 -1.3222  1.7961
38729SOL    HW220550  10.708   1.759   9.144  0.5387 -1.0982  1.4442
38730SOL     OW20551   6.059   5.649   3.439  0.0702 -0.5842  0.1389
38730SOL    HW120552   6.104   5.583   3.492 -1.7666 -2.0156  0.0106
38730SOL    HW220553   6.038   5.719   3.501  0.8317 -0.7262  0.5727
38731SOL     OW20554   5.810   4.050   5.308  0.0934  0.7277 -0.3408
38731SOL    HW120555   5.849   4.052   5.221 -0.9560 -0.6935 -0.8844
38731SOL    HW220556   5.877   4.010   5.363  0.2404  0.3177 -0.8075
38732SOL     OW20557   3.624   3.188   7.638 -0.0894 -0.2042 -0.2661
38732SOL    HW120558   3.632   3.269   7.687 -1.6397 -0.9977  1.4326
38732SOL    HW220559   3.587   3.214   7.554 -2.2877  0.7099  0.9115
38733SOL     OW20560   4.620   1.173   1.685  0.7966  0.0656  0.2196
38733SOL    HW120561   4.675   1.204   1.757  0.0153  1.4309  0.2671
38733SOL    HW220562   4.547   1.235   1.683 -0.4719 -1.3887 -0.1688
38734SOL     OW20563   0.209   1.891   7.940 -0.2709 -0.0259  0.2684
38734SOL    HW120564   0.206   1.976   7.985 -0.4062 -0.7392  1.6582
38734SOL    HW220565   0.129   1.847   7.967  1.1795 -1.7716  1.9994
38735SOL     OW20566   4.612   7.825   6.897  0.3184  0.2691 -0.1285
38735SOL    HW120567   4.537   7.845   6.841  0.4698 -0.5219 -0.6273
38735SOL    HW220568   4.685   7.816   6.836  0.7808  0.8071  0.3340
38736SOL     OW20569   3.960   3.879   5.728  0.3190 -0.8642  0.1587
38736SOL    HW120570   3.934   3.922   5.647  0.5295 -0.9328  0.0556
38736SOL    HW220571   3.933   3.788   5.718  1.5947 -1.1948 -0.4050
38737SOL     OW20572   4.628   3.345   1.908 -0.0989  0.0141  0.4222
38737SOL    HW120573   4.569   3.275   1.937 -1.0748  1.0919  1.0830
38737SOL    HW220574   4.715   3.316   1.937 -0.7850  0.1560  2.8424
38738SOL     OW20575   6.904   4.585   4.368  0.4359 -0.1793  0.1534
38738SOL    HW120576   6.870   4.659   4.318 -1.0490 -0.9829 -0.0861
38738SOL    HW220577   6.900   4.511   4.308 -1.8258 -1.2662  1.4755
38739SOL     OW20578   7.986   6.256   0.738  0.2189  0.2323 -0.8060
38739SOL    HW120579   7.988   6.330   0.677  0.0254 -0.1213 -1.2460
38739SOL    HW220580   7.970   6.296   0.823 -0.5857  0.6436 -1.1361
38740SOL     OW20581  10.707   3.073   6.925 -0.3514  0.1992  0.7989
38740SOL    HW120582  10.693   3.021   6.846 -0.4701 -1.3165  1.7790
38740SOL    HW220583  10.797   3.106   6.917 -0.5324  0.4602 -0.1807
38741SOL     OW20584   2.037   8.071   9.925 -0.1351  0.4858  0.4891
38741SOL    HW120585   1.952   8.075   9.881  0.5032 -0.3245 -0.8461
38741SOL    HW220586   2.079   8.154   9.903  0.7746 -0.5075 -1.7110
38742SOL     OW20587   2.535   9.635   2.732  0.2192  0.0565  0.0052
38742SOL    HW120588   2.501   9.596   2.652 -1.6597 -0.7158  1.1010
38742SOL    HW220589   2.616   9.677   2.706  1.3557 -2.8895 -1.6524
38743SOL     OW20590   8.257  10.558  10.592  0.7972 -0.0081 -0.0273
38743SOL    HW120591   8.243  10.597  10.506  0.9212  0.6533  0.2461
38743SOL    HW220592   8.324  10.491  10.577 -1.8535 -2.5820 -1.1642
38744SOL     OW20593   3.492   2.377   6.185  0.1166 -0.6540  0.3340
38744SOL    HW120594   3.410   2.399   6.230  0.0195 -1.1235  0.3934
38744SOL    HW220595   3.466   2.359   6.094 -0.2900 -3.4808  0.9198
38745SOL     OW20596   4.021   3.550   7.873  0.0767  0.2129  0.1449
38745SOL    HW120597   3.981   3.542   7.959  1.5398  0.0955  0.8457
38745SOL    HW220598   3.952   3.586   7.817 -1.6157 -1.8746  0.7909
38746SOL     OW20599   6.551   8.515   3.153  0.0368  0.6573 -0.2919
38746SOL    HW120600   6.626   8.547   3.103  0.9465  1.6846  1.6226
38746SOL    HW220601   6.562   8.420   3.156  2.1424  0.8778  1.1754
38747SOL     OW20602   7.576   3.195   9.956 -0.3382 -0.1091  0.0366
38747SOL    HW120603   7.519   3.258   9.914 -0.8673 -0.1498  0.6700
38747SOL    HW220604   7.520   3.118   9.972 -0.3682  0.1655  1.4415
38748SOL     OW20605   0.858   5.394  10.672 -0.2201  0.2662  0.3320
38748SOL    HW120606   0.918   5.437  10.611 -0.5777  0.3122  0.0078
38748SOL    HW220607   0.910   5.382  10.751 -0.2049  1.6143  0.5633
38749SOL     OW20608   1.728   4.341   7.186 -0.2550  0.4106  0.1054
38749SOL    HW120609   1.705   4.336   7.278  1.7769  0.6037  0.6723
38749SOL    HW220610   1.644   4.343   7.140 -1.3149 -1.1783  1.8403
38750SOL     OW20611   5.416   6.929  10.780  0.5217  0.8133 -0.2938
38750SOL    HW120612   5.494   6.942  10.726  1.4907  0.0471  0.8928
38750SOL    HW220613   5.374   6.851  10.743  0.3099  1.2291 -0.9374
38751SOL     OW20614   4.773   3.862   3.649  0.0813  0.1950  0.1628
38751SOL    HW120615   4.768   3.933   3.713  0.3200 -0.0850  0.4992
38751SOL    HW220616   4.866   3.858   3.627 -0.0270  0.4190 -0.3547
38752SOL     OW20617   3.371  10.960   2.883  0.4318 -0.5894  0.2225
38752SOL    HW120618   3.312  10.969   2.808  0.1476  0.5466  0.5617
38752SOL    HW220619   3.437  10.898   2.854  0.2745 -0.2379 -0.9462
38753SOL     OW20620  10.705   3.079   5.573 -0.1455  0.1752  0.1771
38753SOL    HW120621  10.651   3.044   5.644  1.9966 -1.6665  1.0494
38753SOL    HW220622  10.643   3.111   5.508 -2.2721 -2.1584  0.9173
38754SOL     OW20623   7.868   2.866  11.079 -0.0417  0.2514  0.1253
38754SOL    HW120624   7.902   2.946  11.121  0.0029  0.5572 -0.4816
38754SOL    HW220625   7.794   2.897  11.027 -0.7059 -0.2775  0.7541
38755SOL     OW20626   6.150   8.876   5.941 -0.1596 -0.0155  0.0087
38755SOL    HW120627   6.144   8.854   6.034  1.0383  0.6400  0.2579
38755SOL    HW220628   6.152   8.791   5.897 -0.0897 -0.3466  0.6283
38756SOL     OW20629  11.054   4.579   1.333 -0.3526  0.3292  0.4483
38756SOL    HW120630  11.011   4.494   1.344 -0.3501  0.3018  0.2549
38756SOL    HW220631  11.125   4.579   1.397 -0.4388  0.2414  0.5436
38757SOL     OW20632  10.624   4.261   6.840  0.2825  0.3237  0.2400
38757SOL    HW120633  10.595   4.228   6.925 -0.5217  4.2405  1.6767
38757SOL    HW220634  10.544   4.273   6.790  0.6861 -1.1401 -0.8167
38758SOL     OW20635   7.570   8.008   3.891  0.2222 -0.4441  0.0209
38758SOL    HW120636   7.628   7.931   3.892 -1.3423 -1.8181 -2.4718
38758SOL    HW220637   7.481   7.970   3.889 -0.7559  1.5460  2.0955
38759SOL     OW20638   8.702   8.475   9.255 -0.2585 -0.1571  0.1834
38759SOL    HW120639   8.643   8.402   9.275  0.3967 -0.4348  1.2103
38759SOL    HW220640   8.644   8.547   9.232 -0.9151 -1.3338 -2.1834
38760SOL     OW20641   6.489   1.480   2.578 -0.2004 -0.2651 -0.0924
38760SOL    HW120642   6.563   1.420   2.564 -0.8259 -0.7052 -1.8292
38760SOL    HW220643   6.441   1.442   2.652  0.0947 -1.2353 -0.3808
38761SOL     OW20644   1.461   1.064   4.452  0.3406  0.4736 -0.2928
38761SOL    HW120645   1.442   0.982   4.407 -0.4944  1.2825 -1.4407
38761SOL    HW220646   1.473   1.128   4.383  2.8654  1.0021  0.4898
38762SOL     OW20647   0.889   2.669  10.155 -0.0315  0.0456 -0.7400
38762SOL    HW120648   0.933   2.585  10.140 -0.4105 -0.0351 -1.3963
38762SOL    HW220649   0.809   2.645  10.204  0.5733  0.1810  0.3542
38763SOL     OW20650   7.484   8.301   1.185 -0.1694  0.5545 -0.0753
38763SOL    HW120651   7.413   8.350   1.145  0.2524 -0.0680 -1.7009
38763SOL    HW220652   7.557   8.364   1.190 -0.2212  0.6370 -0.3259
38764SOL     OW20653  10.042   5.387   1.066 -0.2714  0.6388 -0.2104
38764SOL    HW120654  10.034   5.425   0.978 -2.1002 -1.1751 -0.9069
38764SOL    HW220655  10.125   5.422   1.099  0.1848  1.8629 -2.4033
38765SOL     OW20656   9.677   2.820   7.843  0.5407  0.3751  0.2252
38765SOL    HW120657   9.644   2.909   7.854 -0.1876 -0.0626  1.7263
38765SOL    HW220658   9.772   2.828   7.856  0.4882  0.9341  0.3020
38766SOL     OW20659   1.659   8.190   6.077 -0.7370  0.1161  0.2796
38766SOL    HW120660   1.731   8.128   6.065 -2.5620 -2.5682  1.9661
38766SOL    HW220661   1.660   8.243   5.997  2.7917 -0.0344  0.0761
38767SOL     OW20662   3.477   4.529   1.879  0.3877 -0.8726  0.1129
38767SOL    HW120663   3.524   4.541   1.961 -0.0220  0.0746  0.2207
38767SOL    HW220664   3.534   4.472   1.827  0.3397 -2.0527  1.2979
38768SOL     OW20665   2.092  10.896   8.649 -0.0409  0.2220  0.1863
38768SOL    HW120666   2.177  10.884   8.607 -0.3946  1.1635 -0.8623
38768SOL    HW220667   2.036  10.932   8.580 -1.1773  0.0240  0.9671
38769SOL     OW20668   5.117   5.580   5.522  0.1419 -0.5229 -0.1364
38769SOL    HW120669   5.150   5.508   5.467 -0.5138 -0.4158 -0.6830
38769SOL    HW220670   5.027   5.592   5.494 -0.0794 -0.1910  0.7032
38770SOL     OW20671   4.040   6.879   0.310  0.6717  0.3899  0.1777
38770SOL    HW120672   4.071   6.824   0.382 -0.4551 -0.1461  0.2664
38770SOL    HW220673   4.073   6.836   0.231  1.1876  0.5047  0.3284
38771SOL     OW20674  10.721   6.629   6.696 -0.0744 -0.6650 -0.2603
38771SOL    HW120675  10.675   6.591   6.770 -0.5445 -0.6194 -0.5269
38771SOL    HW220676  10.799   6.575   6.686  0.1811 -0.4500  0.4937
38772SOL     OW20677   1.683   6.026   0.063 -0.0648 -0.6439 -0.1541
38772SOL    HW120678   1.745   6.039  -0.008 -1.1315  0.8585 -0.8610
38772SOL    HW220679   1.597   6.037   0.023 -0.7718 -1.5084  1.0341
38773SOL     OW20680   0.037   0.017   4.168 -0.0853 -0.2712  0.0504
38773SOL    HW120681  -0.031   0.077   4.197 -0.1654 -0.6094  0.5859
38773SOL    HW220682   0.027  -0.060   4.224 -0.0941 -0.8522 -0.7293
38774SOL     OW20683   6.495   1.725   3.214  0.0400 -0.4300  0.0777
38774SOL    HW120684   6.453   1.661   3.157  0.1134 -0.3615 -0.0530
38774SOL    HW220685   6.422   1.778   3.248  0.1364  0.7344 -1.4136
38775SOL     OW20686  10.198   1.582   3.424  0.0347  0.2333 -0.6748
38775SOL    HW120687  10.147   1.586   3.343  0.8206  0.2390 -1.1807
38775SOL    HW220688  10.187   1.492   3.455  0.9576 -0.2235 -1.6174
38776SOL     OW20689   1.746   4.322   6.756  0.3807  0.9368 -0.4645
38776SOL    HW120690   1.779   4.254   6.815  1.6457  1.9141  0.0120
38776SOL    HW220691   1.764   4.288   6.668 -2.0029 -0.7689 -0.3722
38777SOL     OW20692   3.047   3.511   3.499 -0.1833 -0.0058 -0.4861
38777SOL    HW120693   3.046   3.606   3.513 -1.7003 -0.1582  0.5351
38777SOL    HW220694   2.956   3.487   3.486 -0.0131 -1.5437  0.8292
38778SOL     OW20695   3.275   6.838   1.481  0.0593  0.0133 -0.3970
38778SOL    HW120696   3.266   6.793   1.565  0.6069 -0.0653 -0.3805
38778SOL    HW220697   3.364   6.819   1.452 -0.3986 -0.6642 -1.4105
38779SOL     OW20698   1.229   1.963   1.461  0.8201 -0.2895  0.5166
38779SOL    HW120699   1.187   1.908   1.528  0.1133  0.1903  0.4761
38779SOL    HW220700   1.280   2.026   1.512 -1.5709  1.6037  0.7677
38780SOL     OW20701   1.139   2.263   6.436  0.5061  0.1769  0.1280
38780SOL    HW120702   1.128   2.210   6.358 -1.4601  0.3615  0.2054
38780SOL    HW220703   1.202   2.330   6.412  0.4647 -0.1920 -1.0658
38781SOL     OW20704   2.730   3.168   8.622 -0.1220 -0.4113 -0.0693
38781SOL    HW120705   2.773   3.084   8.641  1.9113  0.7509  0.8384
38781SOL    HW220706   2.690   3.156   8.536  1.5975 -1.7948 -0.7427
38782SOL     OW20707   9.861   5.134  10.945  0.2726  0.6270 -0.1996
38782SOL    HW120708   9.798   5.063  10.958  1.6617 -0.5075  0.7705
38782SOL    HW220709   9.809   5.213  10.943 -1.2435 -0.3320 -0.2781
38783SOL     OW20710   9.793   9.389   9.895  0.4221 -0.0292  0.3184
38783SOL    HW120711   9.821   9.433   9.976 -1.4927 -0.5427  1.3147
38783SOL    HW220712   9.875   9.364   9.852  1.5186  1.6902  1.2735
38784SOL     OW20713   8.364   8.564   4.268 -0.2460  0.1426  0.6113
38784SOL    HW120714   8.390   8.511   4.193  0.2247 -0.1943  1.0089
38784SOL    HW220715   8.303   8.628   4.231 -1.0481 -0.8352  0.1610
38785SOL     OW20716   1.789   6.254   4.247 -0.2014 -0.1028  1.1228
38785SOL    HW120717   1.825   6.302   4.172  2.0266  0.7835  2.6512
38785SOL    HW220718   1.750   6.176   4.209  1.3164  0.0532 -0.9393
38786SOL     OW20719  10.949   0.453   6.885  0.5746 -0.1638 -0.0544
38786SOL    HW120720  10.860   0.486   6.871  0.1635 -0.9285  0.6310
38786SOL    HW220721  10.960   0.384   6.820  0.3768 -0.5904  0.3608
38787SOL     OW20722   3.403   5.583   2.325  0.0723  0.0950 -0.4723
38787SOL    HW120723   3.432   5.666   2.287  1.4340  0.4851  1.2622
38787SOL    HW220724   3.438   5.585   2.415 -2.7690 -0.8479  0.7653
38788SOL     OW20725   7.774   9.811   8.038 -0.0411  0.0255  0.3839
38788SOL    HW120726   7.788   9.717   8.047 -0.2928 -0.0984 -0.4714
38788SOL    HW220727   7.857   9.851   8.065  0.0998 -0.4416  0.6497
38789SOL     OW20728   2.226   6.895   6.243 -0.1056  0.4643 -0.1669
38789SOL    HW120729   2.251   6.929   6.329  2.9374  0.6567 -1.0082
38789SOL    HW220730   2.292   6.828   6.224 -2.4237 -1.6892 -1.1460
38790SOL     OW20731  11.022   3.222   4.457 -0.0411  0.2433  0.0899
38790SOL    HW120732  10.952   3.175   4.502  0.5447 -1.7498 -0.9519
38790SOL    HW220733  10.977   3.290   4.407 -0.9859  0.4292  1.1655
38791SOL     OW20734   4.330   6.161   1.729 -0.0985  0.3481 -0.0757
38791SOL    HW120735   4.300   6.191   1.643 -0.4897  0.1637 -0.0087
38791SOL    HW220736   4.257   6.180   1.788 -0.8638 -1.7683 -0.2453
38792SOL     OW20737   7.914   1.617   0.749  0.1178  0.6244 -0.0312
38792SOL    HW120738   7.951   1.537   0.711 -0.8684 -0.9283  2.0702
38792SOL    HW220739   7.838   1.636   0.695  0.6406  0.4306 -0.8511
38793SOL     OW20740   3.755   7.369   6.554  0.4974  0.0940 -0.2511
38793SOL    HW120741   3.849   7.362   6.538  0.5443 -0.6441  0.2742
38793SOL    HW220742   3.746   7.369   6.649 -0.0762 -0.8125 -0.2865
38794SOL     OW20743   9.652   7.582   8.536  0.1389  0.2394 -0.1147
38794SOL    HW120744   9.651   7.502   8.484 -0.2989  0.2349 -0.0995
38794SOL    HW220745   9.745   7.596   8.556  0.2680  0.0113 -0.5386
38795SOL     OW20746   3.128   1.688   5.639  0.0052  0.7763  0.8381
38795SOL    HW120747   3.116   1.650   5.552  0.8591 -2.5089  2.0243
38795SOL    HW220748   3.040   1.710   5.668 -0.7178 -1.3703  0.4572
38796SOL     OW20749   6.905   1.884   9.524  0.0493  0.6884 -0.3751
38796SOL    HW120750   6.954   1.927   9.453 -1.2486  0.4084 -1.4715
38796SOL    HW220751   6.821   1.929   9.525 -0.6719 -0.6287 -0.3306
38797SOL     OW20752   2.967   8.219   8.713 -0.0476 -0.6602  0.2824
38797SOL    HW120753   3.019   8.193   8.637 -1.1251 -0.1806 -0.6286
38797SOL    HW220754   2.883   8.246   8.677 -1.1129 -1.8399  1.7617
38798SOL     OW20755   6.651   5.578   2.064 -0.1614 -0.0281 -0.4494
38798SOL    HW120756   6.734   5.534   2.046 -0.2478 -0.8984  1.0821
38798SOL    HW220757   6.603   5.516   2.119 -0.9098  1.3863  0.5466
38799SOL     OW20758   7.874   0.806   4.826  0.2436  0.1044 -0.4475
38799SOL    HW120759   7.913   0.859   4.757  0.2031 -0.5026 -0.9451
38799SOL    HW220760   7.947   0.788   4.886  0.2404  0.7772 -0.2290
38800SOL     OW20761  10.014   8.299   5.629 -0.3815 -0.5771 -0.6776
38800SOL    HW120762   9.999   8.393   5.614 -3.0674 -0.7037  0.5652
38800SOL    HW220763  10.072   8.296   5.704 -1.4033  0.1649  0.1835
38801SOL     OW20764   4.592  10.122   2.793 -0.3038 -0.0747 -0.5359
38801SOL    HW120765   4.616  10.045   2.843 -0.7536 -0.5985 -1.1132
38801SOL    HW220766   4.551  10.181   2.856 -0.0111 -0.3225 -0.1086
38802SOL     OW20767   2.119   8.411   8.089 -0.3927 -0.4120 -0.5014
38802SOL    HW120768   2.058   8.338   8.085  2.4922 -3.1030  0.7118
38802SOL    HW220769   2.092   8.462   8.166 -1.1106 -1.5339  0.0076
38803SOL     OW20770   2.055   5.484   8.876  0.2702 -0.1213  0.7008
38803SOL    HW120771   2.010   5.419   8.822 -0.4190 -0.7293  1.9688
38803SOL    HW220772   2.094   5.544   8.813  1.7512 -2.2658 -0.5515
38804SOL     OW20773   2.985   1.409   3.859 -0.2721 -0.3345 -0.3369
38804SOL    HW120774   3.050   1.369   3.801  0.0699 -1.0686  0.5282
38804SOL    HW220775   3.028   1.487   3.893  0.6921 -1.4488  1.1836
38805SOL     OW20776  10.334   9.644   0.096  0.0691  0.0684 -0.0759
38805SOL    HW120777  10.398   9.644   0.025 -0.7507 -0.4925 -0.8365
38805SOL    HW220778  10.346   9.728   0.139 -1.3397  1.7134 -2.6640
38806SOL     OW20779   2.110   9.763   5.104 -0.4853  0.2513 -0.2967
38806SOL    HW120780   2.037   9.721   5.150 -1.6796  0.0157 -2.2392
38806SOL    HW220781   2.115   9.851   5.141  0.0463 -0.5749  1.7194
38807SOL     OW20782   5.163   4.384   7.083 -0.0973  0.2616 -1.0042
38807SOL    HW120783   5.224   4.458   7.084 -0.9102  1.0128 -2.6115
38807SOL    HW220784   5.101   4.403   7.154  1.3399 -0.3809  0.4737
38808SOL     OW20785  10.819   1.742   9.827 -0.0489 -0.1075  0.2485
38808SOL    HW120786  10.771   1.825   9.823  0.3164  0.0947 -0.0178
38808SOL    HW220787  10.785   1.698   9.905 -1.7993 -0.6594 -0.7750
38809SOL     OW20788   5.448   3.069   2.988  0.3399  0.4791  0.1881
38809SOL    HW120789   5.438   3.115   2.905  2.2674  1.2690  0.3431
38809SOL    HW220790   5.391   2.992   2.980  0.1345  0.7812 -1.6679
38810SOL     OW20791   0.140   7.280   5.376  0.3519  0.2676  0.1006
38810SOL    HW120792   0.200   7.295   5.303 -0.0735  0.3631 -0.2353
38810SOL    HW220793   0.055   7.309   5.343  0.1431  0.2471  0.6120
38811SOL     OW20794  10.340   0.264   2.697 -0.1226  0.4900 -0.7156
38811SOL    HW120795  10.426   0.222   2.696 -0.1702  0.3010  0.6255
38811SOL    HW220796  10.348   0.332   2.764 -0.1455  2.4645 -2.6044
38812SOL     OW20797   8.088   2.449   6.193  0.2155 -0.3244  0.4647
38812SOL    HW120798   8.010   2.471   6.143  0.7588 -1.2175 -0.8250
38812SOL    HW220799   8.097   2.521   6.256 -2.5324 -1.0012  1.7748
38813SOL     OW20800   8.210   8.728   0.746  0.3750  0.3302  0.2958
38813SOL    HW120801   8.228   8.643   0.785 -0.0278 -0.2445 -0.7442
38813SOL    HW220802   8.286   8.782   0.768  1.0229 -0.5533  0.2385
38814SOL     OW20803   7.174   4.809   6.424  0.4076  0.0945  0.5669
38814SOL    HW120804   7.198   4.720   6.453  0.5864 -0.5793 -1.4996
38814SOL    HW220805   7.203   4.866   6.495  4.1665 -1.0800  0.1728
38815SOL     OW20806   4.380   4.016   5.474 -0.0654  0.3378  0.1373
38815SOL    HW120807   4.302   4.022   5.420  1.3149 -1.6969 -2.3048
38815SOL    HW220808   4.444   4.073   5.430  0.7931 -0.5975  0.1287
38816SOL     OW20809   2.996   7.906  10.150 -0.0799  0.1743  0.3217
38816SOL    HW120810   3.047   7.830  10.178 -0.3449  0.4994  1.7342
38816SOL    HW220811   3.048   7.981  10.176 -0.0776  0.4977 -0.5781
38817SOL     OW20812  10.262   6.236   8.182  0.2113  0.1461 -0.3145
38817SOL    HW120813  10.335   6.175   8.179 -1.2125 -1.6089 -0.9554
38817SOL    HW220814  10.206   6.203   8.253 -0.3045  1.0346 -0.2927
38818SOL     OW20815   6.632   7.573   6.667 -0.0327  0.1899  0.0423
38818SOL    HW120816   6.699   7.592   6.601 -0.6884 -2.0477 -1.3524
38818SOL    HW220817   6.639   7.479   6.682 -2.4613 -0.0013  0.2940
38819SOL     OW20818   5.917   3.966   3.326 -0.6431  0.4500  0.2103
38819SOL    HW120819   5.942   3.961   3.234 -2.1411  2.2396 -0.3786
38819SOL    HW220820   5.974   4.034   3.363 -1.4607  1.2765  0.0113
38820SOL     OW20821   0.883   4.693   7.505 -0.0518  0.0723  0.0279
38820SOL    HW120822   0.948   4.635   7.543 -1.5932 -2.2155 -0.6401
38820SOL    HW220823   0.897   4.688   7.411 -0.4459  0.4682 -0.0569
38821SOL     OW20824   7.233   0.984   2.552  0.1800  0.0581  0.0697
38821SOL    HW120825   7.314   1.007   2.598  1.1732 -2.5717 -0.2017
38821SOL    HW220826   7.262   0.962   2.463 -0.8001 -1.0687  0.0061
38822SOL     OW20827   8.668   9.278   8.930  0.5199  0.8519 -0.6586
38822SOL    HW120828   8.692   9.318   8.846  1.9108 -0.6906 -1.0647
38822SOL    HW220829   8.573   9.266   8.924  0.6224  0.4971 -2.1599
38823SOL     OW20830   9.487   0.476   9.259 -0.2785 -0.6420 -0.4088
38823SOL    HW120831   9.543   0.425   9.317 -3.1674 -1.6541  1.7610
38823SOL    HW220832   9.504   0.567   9.283  0.6424 -0.8936 -0.0486
38824SOL     OW20833   0.235   6.283   3.864  0.5405  0.3640  0.7414
38824SOL    HW120834   0.231   6.236   3.781  0.7137  0.9280  0.4111
38824SOL    HW220835   0.256   6.373   3.840  2.0494  0.2477  1.4900
38825SOL     OW20836   7.514   5.614   6.918  0.0078 -0.1344 -0.2298
38825SOL    HW120837   7.539   5.592   7.007  0.0813 -1.4875 -0.5583
38825SOL    HW220838   7.436   5.561   6.901 -0.6352  0.8914 -0.6328
38826SOL     OW20839   1.504   4.472   1.321 -0.3157  0.2347  0.2925
38826SOL    HW120840   1.442   4.442   1.255 -0.9192 -0.7885  1.2832
38826SOL    HW220841   1.545   4.550   1.283 -0.6190 -0.3453 -1.2789
38827SOL     OW20842   5.151   8.740   1.067  0.0941 -0.1698 -0.1753
38827SOL    HW120843   5.137   8.830   1.094  1.2579  0.6355 -2.0639
38827SOL    HW220844   5.244   8.724   1.083 -0.2009 -1.2390  0.6274
38828SOL     OW20845   7.996   5.125   4.077  0.0684 -0.2683  0.0944
38828SOL    HW120846   8.005   5.064   4.150  2.1649  0.4140  0.4828
38828SOL    HW220847   8.010   5.072   3.999  1.8322 -0.3717  0.4270
38829SOL     OW20848   0.660   8.542   3.894 -0.0681 -0.2566  0.1211
38829SOL    HW120849   0.700   8.550   3.807  0.3877  0.0504  0.3513
38829SOL    HW220850   0.618   8.457   3.893 -0.2445 -0.1672 -0.4747
38830SOL     OW20851   7.527  10.941   7.450 -0.1548 -0.5485  0.1868
38830SOL    HW120852   7.552  10.891   7.371  2.7139 -0.2695  0.8150
38830SOL    HW220853   7.544  10.880   7.522 -1.2291 -0.2454  0.7113
38831SOL     OW20854   5.278   2.487   4.566 -0.2493  0.1760  0.0599
38831SOL    HW120855   5.370   2.477   4.593 -0.5208  0.2903  1.0585
38831SOL    HW220856   5.252   2.399   4.539  0.0015  0.0254  0.2910
38832SOL     OW20857   9.188   7.004   8.070 -0.0150 -0.7635  0.5217
38832SOL    HW120858   9.118   7.069   8.062  0.6672  0.1084  1.4911
38832SOL    HW220859   9.153   6.927   8.024 -0.3235  0.6659 -1.8528
38833SOL     OW20860   3.831   3.859   8.559  0.6592  0.4750 -0.0428
38833SOL    HW120861   3.865   3.831   8.644  1.0769 -0.5781 -0.5383
38833SOL    HW220862   3.757   3.802   8.542 -0.0383  1.3329  0.0401
38834SOL     OW20863  10.595   2.171   6.193 -0.0497  0.5486  0.1717
38834SOL    HW120864  10.647   2.100   6.155  0.7209  1.8566 -1.3444
38834SOL    HW220865  10.505   2.149   6.171  0.0086 -0.7601  1.1382
38835SOL     OW20866   6.893  10.845   7.553  0.7788 -0.1329 -0.0498
38835SOL    HW120867   6.987  10.856   7.537  0.7648 -0.3398 -0.2933
38835SOL    HW220868   6.854  10.844   7.466  0.4564  0.7257  0.0796
38836SOL     OW20869   7.436   1.649  10.928 -0.4302 -0.1045  0.2723
38836SOL    HW120870   7.444   1.743  10.942 -0.7790 -0.3125  2.0708
38836SOL    HW220871   7.427   1.612  11.016 -0.9798 -1.7561 -0.4378
38837SOL     OW20872   9.078   7.101   7.319 -0.3981  0.2064 -0.4294
38837SOL    HW120873   8.999   7.064   7.358 -0.6088  0.1084 -0.9390
38837SOL    HW220874   9.101   7.173   7.377 -0.4855 -0.1750  0.0854
38838SOL     OW20875   8.089   0.764  10.550 -0.2791 -0.3153  0.2833
38838SOL    HW120876   8.166   0.778  10.495  0.1195  0.4714  1.0229
38838SOL    HW220877   8.050   0.684  10.515  0.2044 -0.0765 -0.8596
38839SOL     OW20878  10.741   5.416  10.899  0.4314 -0.2505  0.4471
38839SOL    HW120879  10.718   5.441  10.810  1.3298 -2.0796 -0.3423
38839SOL    HW220880  10.824   5.460  10.917  0.1571  0.2655  0.4671
38840SOL     OW20881   6.743   3.844   0.083 -0.2068 -0.1159  0.7469
38840SOL    HW120882   6.738   3.780   0.012  1.9516 -0.3969  0.7939
38840SOL    HW220883   6.672   3.819   0.142 -1.8994 -0.0267 -1.1275
38841SOL     OW20884   3.614   1.637   8.202  0.1074 -0.7449 -0.1153
38841SOL    HW120885   3.697   1.607   8.240  0.3175 -0.3189 -0.2343
38841SOL    HW220886   3.637   1.716   8.154 -0.6046  0.2107  1.0506
38842SOL     OW20887   4.536  10.991   1.358 -0.0206 -0.0043  0.3599
38842SOL    HW120888   4.480  10.974   1.282  0.3053  0.5342 -0.0049
38842SOL    HW220889   4.508  11.077   1.389  1.3544  0.8040 -0.5197
38843SOL     OW20890   7.086   0.627   1.524 -0.3270  0.1609  0.5190
38843SOL    HW120891   7.107   0.645   1.616 -1.5495  1.7590  0.5313
38843SOL    HW220892   7.051   0.710   1.491 -1.7442 -0.9341 -0.8510
38844SOL     OW20893   8.899   4.836   9.299  0.2525 -0.3637 -0.1276
38844SOL    HW120894   8.955   4.913   9.287 -1.5658  1.0002 -0.1782
38844SOL    HW220895   8.863   4.819   9.213  0.9785 -1.5887 -0.2128
38845SOL     OW20896   3.703   2.967   9.374 -0.3035  0.2757 -0.3058
38845SOL    HW120897   3.679   2.907   9.445  0.9624 -1.8125 -1.5177
38845SOL    HW220898   3.732   3.046   9.418 -2.9498  0.4219  1.3419
38846SOL     OW20899   7.171   0.730   0.421  0.5690 -0.4722  0.0472
38846SOL    HW120900   7.145   0.670   0.351  2.1871 -1.6598  0.3998
38846SOL    HW220901   7.193   0.812   0.376 -1.8801  0.0072 -0.4191
38847SOL     OW20902   4.370   7.601  10.485 -0.1304  0.3168 -0.4485
38847SOL    HW120903   4.387   7.569  10.574 -0.4597  1.7151  0.1414
38847SOL    HW220904   4.448   7.652  10.463 -0.0753  0.0235 -0.9554
38848SOL     OW20905   8.164   7.772   3.463 -0.4224 -0.0742 -0.6584
38848SOL    HW120906   8.232   7.799   3.402 -0.3211  2.8728  0.6312
38848SOL    HW220907   8.082   7.787   3.416 -0.2802 -0.0425 -0.8939
38849SOL     OW20908   1.037   4.964   0.309 -0.1841  0.3981 -0.2669
38849SOL    HW120909   1.004   4.877   0.288  1.0483 -0.1523 -0.0585
38849SOL    HW220910   1.115   4.974   0.254  0.7224  0.6228  1.0048
38850SOL     OW20911   8.983   8.652   1.366  0.0047 -0.3081 -0.2145
38850SOL    HW120912   8.890   8.652   1.347 -0.2307  1.4678  0.7341
38850SOL    HW220913   9.010   8.560   1.356 -1.8747 -0.8828 -0.2998
38851SOL     OW20914   9.653   1.365   7.299  0.7273 -0.0802 -0.2649
38851SOL    HW120915   9.663   1.406   7.386  2.6330  0.0677 -0.4995
38851SOL    HW220916   9.577   1.408   7.261  0.5223  0.6523  0.9104
38852SOL     OW20917   6.172   6.373   4.496 -0.0430  0.2511  0.1713
38852SOL    HW120918   6.096   6.377   4.439  0.5489  2.4693 -0.5728
38852SOL    HW220919   6.139   6.338   4.579 -1.5417 -0.1895 -0.5913
38853SOL     OW20920   8.235   8.398   9.067 -0.2072  0.2006 -0.1541
38853SOL    HW120921   8.188   8.402   8.983 -1.0981 -0.5610  0.2935
38853SOL    HW220922   8.323   8.369   9.043 -0.6947 -0.8758 -0.7583
38854SOL     OW20923   7.012   8.905  10.965 -1.1117 -0.0930  0.1388
38854SOL    HW120924   7.076   8.846  10.926 -1.2325  1.1013 -1.9834
38854SOL    HW220925   6.928   8.879  10.927 -1.3391  0.6883  0.0895
38855SOL     OW20926   9.947   6.881  10.777  0.5488  0.5920  0.5432
38855SOL    HW120927   9.927   6.794  10.743 -1.3750  1.4100 -0.5886
38855SOL    HW220928   9.877   6.900  10.838 -0.2316  2.1036 -0.7258
38856SOL     OW20929   2.657   4.263   0.353 -0.0704 -0.4156  0.2578
38856SOL    HW120930   2.672   4.344   0.401  1.5345 -0.5634  0.0835
38856SOL    HW220931   2.564   4.245   0.364 -0.5042  1.5314  0.1406
38857SOL     OW20932   1.647   8.824   3.320 -0.1086 -0.0001  0.4377
38857SOL    HW120933   1.719   8.774   3.282  0.0327  0.5668 -0.0639
38857SOL    HW220934   1.623   8.776   3.399 -0.8181 -1.5433 -0.6773
38858SOL     OW20935   2.283   4.638   2.340 -0.0255 -0.4074 -0.3235
38858SOL    HW120936   2.373   4.663   2.362 -0.3322  0.1142  0.3412
38858SOL    HW220937   2.260   4.696   2.267  0.0859 -0.3629 -0.3245
38859SOL     OW20938   4.813   8.284   8.627 -0.5612  0.6196  0.6014
38859SOL    HW120939   4.814   8.379   8.618  0.6206  0.6285  0.6055
38859SOL    HW220940   4.896   8.256   8.588 -1.0512 -0.4431  0.2869
38860SOL     OW20941   1.784   2.024   4.744 -0.3650  0.1496  0.1705
38860SOL    HW120942   1.792   1.949   4.803  2.4873  0.4153  0.2774
38860SOL    HW220943   1.737   1.990   4.667 -0.7364 -1.2194  0.9707
38861SOL     OW20944   7.440   1.707   9.623  0.5565  0.4075  0.0719
38861SOL    HW120945   7.472   1.794   9.649 -1.6335  1.2871  0.0210
38861SOL    HW220946   7.406   1.720   9.535 -2.2577  0.2432  1.0377
38862SOL     OW20947   4.669   7.830   4.193  0.0326 -0.0577 -0.3235
38862SOL    HW120948   4.677   7.739   4.221  1.8277  0.1953  0.0606
38862SOL    HW220949   4.699   7.830   4.102 -1.2925 -0.0633 -0.7827
38863SOL     OW20950   9.962   9.624   4.061  0.1605 -0.1712  0.4086
38863SOL    HW120951  10.035   9.679   4.090 -0.3138  0.7607 -0.1157
38863SOL    HW220952   9.887   9.655   4.112 -0.1414 -0.2338  0.0090
38864SOL     OW20953   1.551   4.811   7.939  0.5695  0.3247  0.8481
38864SOL    HW120954   1.557   4.716   7.939 -0.5586  0.2355  0.6616
38864SOL    HW220955   1.603   4.839   7.865 -0.4838 -0.2705 -0.1509
38865SOL     OW20956   1.887   2.573   3.695 -0.0854  0.3112  0.2362
38865SOL    HW120957   1.887   2.504   3.762  0.0461 -1.4685 -1.4963
38865SOL    HW220958   1.968   2.622   3.711  0.4061 -0.6507  0.8067
38866SOL     OW20959   9.447   8.226   7.493  0.0454  0.2745  0.3532
38866SOL    HW120960   9.507   8.272   7.434  0.5629  0.0858  0.7203
38866SOL    HW220961   9.447   8.136   7.460  1.9828 -0.3415  1.8505
38867SOL     OW20962   6.073   1.697   1.376 -0.3520 -0.1214  0.1108
38867SOL    HW120963   6.043   1.745   1.298 -1.2638  1.0388  1.1336
38867SOL    HW220964   5.996   1.647   1.404  0.0144 -0.6453  0.1902
38868SOL     OW20965   5.622   5.229   5.641  0.5191 -0.4704  0.5505
38868SOL    HW120966   5.704   5.276   5.655  0.9894 -1.7308  2.3919
38868SOL    HW220967   5.566   5.256   5.713 -0.1922 -0.6883  0.0927
38869SOL     OW20968   0.023   7.133   4.506 -0.0059 -0.5946  0.4542
38869SOL    HW120969   0.013   7.061   4.444 -1.4940 -0.3701  0.4019
38869SOL    HW220970  -0.057   7.131   4.559  1.0605 -0.5709  2.1590
38870SOL     OW20971  10.003   3.170   0.198  0.0483  0.3074 -0.5402
38870SOL    HW120972  10.012   3.149   0.105  0.2520 -3.1932  0.1576
38870SOL    HW220973  10.087   3.146   0.237 -1.1145 -1.4993  1.0145
38871SOL     OW20974   6.832   0.970   1.594 -0.3900  0.1132  0.2576
38871SOL    HW120975   6.856   0.888   1.550  0.1116  0.6256 -0.4470
38871SOL    HW220976   6.766   0.944   1.658 -1.7502 -0.5397 -1.3443
38872SOL     OW20977   1.376   6.340   1.422  0.0298 -0.4349  0.6040
38872SOL    HW120978   1.298   6.354   1.368  0.5866  0.3951  0.0009
38872SOL    HW220979   1.422   6.269   1.378  1.5126  1.5490 -1.2515
38873SOL     OW20980   5.823  10.051   4.631  0.6054 -0.3990  0.0299
38873SOL    HW120981   5.869  10.104   4.566 -0.0381 -0.2025 -0.2790
38873SOL    HW220982   5.734  10.086   4.631  0.1437 -1.5165 -0.2418
38874SOL     OW20983   3.722   3.645   9.000  0.0646 -0.8172 -0.1559
38874SOL    HW120984   3.790   3.689   8.949  0.3214 -0.8661  0.1407
38874SOL    HW220985   3.721   3.691   9.084 -0.1082 -0.9679 -0.0746
38875SOL     OW20986   4.395   8.274  10.692 -0.3137 -0.4323 -0.0436
38875SOL    HW120987   4.427   8.332  10.623  0.4416 -1.6472 -0.7565
38875SOL    HW220988   4.329   8.219  10.649  0.5510 -1.5675  0.0137
38876SOL     OW20989   9.710   4.538   5.923 -0.1119  0.1916 -0.6206
38876SOL    HW120990   9.784   4.496   5.966 -0.3066  1.0061  0.5440
38876SOL    HW220991   9.705   4.625   5.963 -2.4135 -0.2493  0.1641
38877SOL     OW20992   0.569   2.247   4.793  0.0481  0.3859 -0.4465
38877SOL    HW120993   0.634   2.211   4.854 -0.3280  0.8316  0.2228
38877SOL    HW220994   0.506   2.176   4.782  1.1522 -0.4432 -1.9096
38878SOL     OW20995   0.990   5.425  10.887 -0.0044  0.2260  0.5314
38878SOL    HW120996   0.998   5.519  10.868 -2.0270  0.6069  1.2966
38878SOL    HW220997   0.996   5.420  10.983 -1.4137 -0.2098  0.6156
38879SOL     OW20998  10.064   4.480   6.374 -0.1837  0.2068 -0.6144
38879SOL    HW120999  10.099   4.406   6.424 -0.8441  0.3096  0.0266
38879SOL    HW221000  10.119   4.554   6.401  0.9624 -0.1726 -1.8262
38880SOL     OW21001   6.352   5.440   5.372 -0.2195 -0.1601  0.4506
38880SOL    HW121002   6.406   5.517   5.359 -0.0603 -0.2264  0.7164
38880SOL    HW221003   6.293   5.439   5.296  1.5602 -1.2692 -1.0081
38881SOL     OW21004  10.706   2.057   3.948  0.3250  0.6915  0.1261
38881SOL    HW121005  10.634   2.003   3.914 -0.3767  1.4540  0.3966
38881SOL    HW221006  10.775   1.993   3.968  0.1899  0.0559 -1.2541
38882SOL     OW21007   7.083   1.316  11.099  0.2049 -0.0722  0.3641
38882SOL    HW121008   7.167   1.274  11.081  0.2966 -1.1737  2.9911
38882SOL    HW221009   7.033   1.251  11.149 -1.3159  1.4125  0.9044
38883SOL     OW21010   5.931   7.880   8.613  0.3656  0.6994  0.0016
38883SOL    HW121011   5.900   7.849   8.527 -0.2236  1.0486  0.0839
38883SOL    HW221012   6.027   7.876   8.606  0.3180  0.0338 -0.4165
38884SOL     OW21013   4.468   0.901   6.470  0.3952  0.4199  0.1825
38884SOL    HW121014   4.486   0.830   6.531  1.1976  0.9445  0.5828
38884SOL    HW221015   4.442   0.858   6.389 -1.2554 -0.2793  1.0374
38885SOL     OW21016   4.891   2.361   9.571 -0.3094 -0.2173  0.1306
38885SOL    HW121017   4.829   2.402   9.512 -0.1643 -0.8606 -0.4832
38885SOL    HW221018   4.977   2.379   9.532 -0.3073 -2.3123 -0.9782
38886SOL     OW21019   5.419   5.542  10.088 -0.4855 -0.8160  0.0350
38886SOL    HW121020   5.461   5.597  10.022  0.8348 -0.2675  1.2767
38886SOL    HW221021   5.341   5.591  10.115  0.2604  0.0920  0.5727
38887SOL     OW21022   6.710   3.378   7.796  0.0274  0.0425  0.5324
38887SOL    HW121023   6.650   3.452   7.784 -1.8620 -1.3901  0.8724
38887SOL    HW221024   6.731   3.380   7.889  0.3873  0.4281  0.4492
38888SOL     OW21025   5.347   4.717   8.723 -0.8326  0.0412 -0.0192
38888SOL    HW121026   5.409   4.753   8.659 -1.1097  0.4254 -0.0777
38888SOL    HW221027   5.261   4.727   8.682 -1.0173  0.3213  0.4182
38889SOL     OW21028   6.686   1.449   5.219  0.1249  0.1379  0.1709
38889SOL    HW121029   6.610   1.392   5.228 -0.6197  1.2970  1.7201
38889SOL    HW221030   6.760   1.397   5.251 -0.4140 -0.2062  0.8615
38890SOL     OW21031   8.808   6.288   5.066  0.3637 -0.0305 -0.8045
38890SOL    HW121032   8.805   6.211   5.009  2.8891 -0.8436  0.0199
38890SOL    HW221033   8.734   6.277   5.125  0.9639 -2.1767 -0.3642
38891SOL     OW21034   7.865   0.292   0.558 -0.4895 -0.1561  0.2216
38891SOL    HW121035   7.900   0.265   0.473  0.0490  0.5617  0.2104
38891SOL    HW221036   7.781   0.247   0.564  0.5128 -2.1522  0.3662
38892SOL     OW21037   7.657   5.272   8.478  0.2659  0.4702 -0.4388
38892SOL    HW121038   7.716   5.317   8.539  0.9763 -1.6558  0.5626
38892SOL    HW221039   7.602   5.218   8.533  0.8771 -1.4778 -1.6170
38893SOL     OW21040   4.928   0.616   4.057  0.0591 -0.1996  0.0711
38893SOL    HW121041   5.003   0.557   4.050 -0.1192 -0.2670 -1.5933
38893SOL    HW221042   4.948   0.671   4.133  0.5058 -1.9714  1.3160
38894SOL     OW21043   0.676   7.948   9.905 -0.0716 -0.0945  0.6486
38894SOL    HW121044   0.637   7.982   9.825 -1.2866 -0.9540  0.8398
38894SOL    HW221045   0.715   8.025   9.947  1.8380  0.1540 -1.3863
38895SOL     OW21046  11.087   3.458   7.389 -0.0082  0.4284 -0.1992
38895SOL    HW121047  11.039   3.414   7.319  0.2233 -0.2182  0.0419
38895SOL    HW221048  11.166   3.406   7.401  1.0560  1.7946 -0.9669
38896SOL     OW21049   1.520   1.285   4.248  0.8448  0.3439  0.3449
38896SOL    HW121050   1.585   1.227   4.209  0.9967  0.4312  0.4674
38896SOL    HW221051   1.508   1.355   4.184  0.9967  0.4169  0.3951
38897SOL     OW21052   7.089   6.028   4.707  0.0234 -0.1407  0.5979
38897SOL    HW121053   7.075   6.006   4.615  0.7076  0.5148  0.3344
38897SOL    HW221054   7.108   6.122   4.707 -1.0900  0.1141  1.5254
38898SOL     OW21055   1.659   0.454   3.787 -0.1883 -0.1253  0.0827
38898SOL    HW121056   1.749   0.481   3.769 -0.6897  0.3768 -2.0361
38898SOL    HW221057   1.628   0.418   3.704 -1.3272 -2.1501  1.3103
38899SOL     OW21058   7.603   5.928   9.232 -0.4310  0.0224 -0.5212
38899SOL    HW121059   7.553   5.919   9.151 -0.6592  0.9518 -0.5004
38899SOL    HW221060   7.694   5.926   9.204 -0.4953 -0.5399 -0.6949
38900SOL     OW21061   8.989   0.497   4.761  0.6030 -0.2018  0.0519
38900SOL    HW121062   8.980   0.403   4.775 -0.0813  0.0883  1.7732
38900SOL    HW221063   9.071   0.520   4.804  0.6931  0.0278 -0.2378
38901SOL     OW21064   3.066   2.482   8.887  0.5143  0.2174 -0.4328
38901SOL    HW121065   3.119   2.502   8.964  1.6823 -3.1490 -0.2285
38901SOL    HW221066   3.117   2.419   8.837 -1.4650  0.1205 -2.5246
38902SOL     OW21067   0.815   7.736   1.699 -0.0421  0.5729 -0.4184
38902SOL    HW121068   0.832   7.828   1.679 -1.9708  1.0474 -0.0606
38902SOL    HW221069   0.759   7.738   1.777 -2.5400 -0.7411 -2.0540
38903SOL     OW21070   5.179   2.162   0.983  0.4695 -0.4130 -0.1104
38903SOL    HW121071   5.102   2.216   0.999 -0.0204 -0.3127 -2.4242
38903SOL    HW221072   5.223   2.157   1.068 -2.1951 -0.7047  1.3812
38904SOL     OW21073   9.792  10.981  10.919 -0.7679  1.1544  0.4164
38904SOL    HW121074   9.844  11.018  10.847 -2.5973  1.8874 -0.5989
38904SOL    HW221075   9.844  10.998  10.997  1.6714 -0.3421 -0.7336
38905SOL     OW21076   6.455   5.738   9.910  0.1236  0.3236 -0.2305
38905SOL    HW121077   6.514   5.663   9.909  0.4546  0.5092  1.5680
38905SOL    HW221078   6.410   5.735   9.826  0.6082 -1.5036 -0.4611
38906SOL     OW21079   5.371   6.847   2.773  0.4182 -0.2518 -0.0588
38906SOL    HW121080   5.462   6.836   2.797  0.6594  3.6278  1.6757
38906SOL    HW221081   5.322   6.823   2.851  0.3339  1.4398  0.4510
38907SOL     OW21082   1.420   0.839   4.266 -0.2415 -0.3657  0.3928
38907SOL    HW121083   1.349   0.776   4.276  1.1379 -2.2215 -0.9374
38907SOL    HW221084   1.492   0.801   4.317  1.0919 -0.7159 -1.6484
38908SOL     OW21085  11.043   2.624   3.369  0.1928  0.1627 -0.0247
38908SOL    HW121086  11.071   2.607   3.280 -2.1376  0.6056 -0.9186
38908SOL    HW221087  10.953   2.656   3.360  0.6177  2.3477  2.3060
38909SOL     OW21088   6.753   4.313   5.542 -0.4017 -0.5910 -0.2026
38909SOL    HW121089   6.730   4.285   5.454  0.4015 -1.2787 -0.2058
38909SOL    HW221090   6.768   4.231   5.590  1.3785 -0.2133 -0.0408
38910SOL     OW21091   9.476   3.198   7.079  0.1568 -0.2726  0.7905
38910SOL    HW121092   9.552   3.190   7.135 -0.3488 -1.9727  1.3036
38910SOL    HW221093   9.471   3.291   7.057  2.0416 -0.0506  1.1782
38911SOL     OW21094   7.936   8.683   5.247 -0.0892  0.3600 -0.4153
38911SOL    HW121095   7.856   8.684   5.195 -0.8526  0.6444  0.7173
38911SOL    HW221096   8.006   8.701   5.185 -0.8065 -0.7424 -1.5777
38912SOL     OW21097   0.368   7.974   0.458  0.2850 -1.0838 -0.1190
38912SOL    HW121098   0.436   7.988   0.392 -1.1174  0.6365 -1.3038
38912SOL    HW221099   0.289   7.959   0.407 -0.8813  0.4366  1.1432
38913SOL     OW21100  10.846   7.286   7.246  0.5779 -0.1926 -0.3473
38913SOL    HW121101  10.827   7.367   7.198 -1.2410  0.8569  1.9333
38913SOL    HW221102  10.889   7.315   7.326 -0.8376 -1.3379  0.8907
38914SOL     OW21103   4.702   3.597   6.221  0.6058  0.2077 -0.2559
38914SOL    HW121104   4.715   3.515   6.269 -1.6846  0.1268  0.3141
38914SOL    HW221105   4.644   3.648   6.278 -1.3622  0.5417 -2.4371
38915SOL     OW21106  10.641   3.522   0.517  0.5633 -0.4069  0.0718
38915SOL    HW121107  10.603   3.545   0.602  0.0611 -0.2073 -0.2070
38915SOL    HW221108  10.651   3.605   0.471 -0.0031 -0.6000 -0.4113
38916SOL     OW21109   9.590   8.308   2.455 -0.6883 -0.1099  0.6229
38916SOL    HW121110   9.628   8.247   2.392  0.0537 -0.2765  1.2094
38916SOL    HW221111   9.497   8.311   2.432 -0.4530 -0.2256 -0.4172
38917SOL     OW21112   0.387   8.972   9.428 -0.3237 -0.5598  0.0171
38917SOL    HW121113   0.337   8.971   9.509 -2.4829  0.3144 -1.2175
38917SOL    HW221114   0.471   9.010   9.452 -1.0520  0.0397  1.7636
38918SOL     OW21115   8.466   8.012   5.304 -0.6434 -0.2239 -0.4091
38918SOL    HW121116   8.385   8.014   5.355 -0.6077  0.2557 -0.3640
38918SOL    HW221117   8.497   8.103   5.306  0.4066 -0.5759  0.3907
38919SOL     OW21118   4.534   7.517   0.936 -0.4648 -0.4782  0.0902
38919SOL    HW121119   4.486   7.436   0.916  1.0406 -1.5309  0.4930
38919SOL    HW221120   4.492   7.584   0.882 -2.2346 -1.3690  0.2953
38920SOL     OW21121   3.385   6.281   5.831  0.3056  0.1819  0.5668
38920SOL    HW121122   3.369   6.243   5.745  0.2568  0.8864  0.2558
38920SOL    HW221123   3.460   6.233   5.865  1.8780  1.4782 -0.8975
38921SOL     OW21124   0.444  10.773   6.781 -0.4800 -0.2141 -0.0067
38921SOL    HW121125   0.391  10.848   6.809 -0.9452 -0.5002 -0.1004
38921SOL    HW221126   0.386  10.697   6.794 -0.2045 -0.4975 -0.4206
38922SOL     OW21127   7.871   7.532   0.068  0.4468 -0.5296  0.1605
38922SOL    HW121128   7.907   7.508   0.154  0.9242 -3.2039 -0.7133
38922SOL    HW221129   7.948   7.560   0.018  0.3594 -0.2462  0.1825
38923SOL     OW21130   9.291   6.563   7.880  0.1411  0.3287 -0.2520
38923SOL    HW121131   9.222   6.625   7.857 -0.4430 -0.9431 -2.1326
38923SOL    HW221132   9.255   6.511   7.951  0.4529  1.7640  1.0065
38924SOL     OW21133   6.237   8.126   6.582 -0.6715 -0.0094  0.0827
38924SOL    HW121134   6.177   8.158   6.515 -0.4725 -1.0321 -0.5964
38924SOL    HW221135   6.247   8.200   6.642 -2.1061  0.3866 -0.1337
38925SOL     OW21136   4.644  10.585   2.421 -0.5757  0.3026 -0.2745
38925SOL    HW121137   4.560  10.539   2.428 -0.0943 -0.6907 -0.8178
38925SOL    HW221138   4.706  10.517   2.393  0.3007  1.1374 -0.3947
38926SOL     OW21139   4.753   5.900   6.157 -0.0308  0.1051  0.0585
38926SOL    HW121140   4.830   5.950   6.129  0.2181 -0.9589 -1.2815
38926SOL    HW221141   4.681   5.934   6.103 -0.2534  0.2803  0.4625
38927SOL     OW21142   7.249   9.990   3.169 -0.6841  0.2580  0.0542
38927SOL    HW121143   7.287   9.921   3.224 -0.4838  0.8926  0.7377
38927SOL    HW221144   7.285  10.071   3.205 -1.6972  0.7859 -0.0944
38928SOL     OW21145   0.266   9.552   3.759  0.2948 -0.2707  0.0597
38928SOL    HW121146   0.255   9.461   3.788  0.9941 -0.3139  0.2131
38928SOL    HW221147   0.282   9.546   3.665  2.4319 -0.4971  0.3853
38929SOL     OW21148   5.120   7.212   7.251  0.2330  0.0573  0.2259
38929SOL    HW121149   5.213   7.232   7.242 -0.0171  1.2156  0.0630
38929SOL    HW221150   5.108   7.131   7.201  1.2332 -0.3710  0.6549
38930SOL     OW21151   9.523   9.829   6.618 -0.3438 -0.4284  0.0460
38930SOL    HW121152   9.542   9.909   6.666 -4.2327 -0.3652  1.8425
38930SOL    HW221153   9.581   9.764   6.656 -0.4367  0.5389  1.9462
38931SOL     OW21154  10.725   6.073   9.733 -0.2226 -0.3773 -0.2570
38931SOL    HW121155  10.779   6.147   9.761  0.6578 -1.4485  0.9723
38931SOL    HW221156  10.786   5.999   9.731 -1.1643 -1.1512 -1.1385
38932SOL     OW21157   1.575   6.481   6.486 -0.0932  0.0947  0.5451
38932SOL    HW121158   1.590   6.406   6.429  1.1476  1.4602 -1.0097
38932SOL    HW221159   1.502   6.529   6.445  1.2384  1.4381 -0.3483
38933SOL     OW21160   6.538   0.787   4.842  0.1614 -0.8255 -0.1978
38933SOL    HW121161   6.515   0.878   4.822  0.0979 -0.8615 -0.2923
38933SOL    HW221162   6.539   0.743   4.757  1.3891 -0.6524 -0.2870
38934SOL     OW21163  10.664  10.256   3.658 -0.0862 -0.0567 -0.5154
38934SOL    HW121164  10.721  10.198   3.710  0.2771  0.8819  0.1635
38934SOL    HW221165  10.639  10.326   3.719 -2.1288 -0.5260 -0.7527
38935SOL     OW21166   0.253   9.302   3.856  0.3489 -0.4231 -0.4385
38935SOL    HW121167   0.279   9.232   3.797  3.3118  0.9049 -0.9061
38935SOL    HW221168   0.306   9.288   3.935 -0.8111 -0.0530  0.4405
38936SOL     OW21169   1.715   9.383   2.307  0.2318 -0.5762 -0.4104
38936SOL    HW121170   1.727   9.445   2.378  0.3295 -1.0944  0.0322
38936SOL    HW221171   1.657   9.316   2.343 -0.3858 -0.4243 -1.0833
38937SOL     OW21172   3.232   7.335   4.324 -0.2114  0.1487 -0.2000
38937SOL    HW121173   3.261   7.254   4.366 -0.7394  0.2160  0.3112
38937SOL    HW221174   3.242   7.318   4.230  0.2656 -0.2814 -0.0749
38938SOL     OW21175  10.056   9.573   1.253  0.8539  0.3291 -0.3917
38938SOL    HW121176  10.145   9.604   1.237  0.1587  2.9787  0.3640
38938SOL    HW221177  10.002   9.624   1.193 -0.5453  2.0610  2.1260
38939SOL     OW21178   9.020   5.975   8.776 -0.4953  0.3872  0.2620
38939SOL    HW121179   9.112   5.968   8.799 -0.0963 -0.0143 -1.3583
38939SOL    HW221180   9.004   6.069   8.765  0.0639  0.3857 -0.6921
38940SOL     OW21181   5.425   1.990   1.384  0.0523 -0.1236  0.0344
38940SOL    HW121182   5.445   2.079   1.413 -0.4402 -0.2792  0.8977
38940SOL    HW221183   5.467   1.982   1.299 -0.9819  1.3782 -0.6684
38941SOL     OW21184   4.118   3.229   0.634  0.2041  0.5095 -0.2418
38941SOL    HW121185   4.124   3.170   0.709  0.0580 -0.2122 -0.7927
38941SOL    HW221186   4.066   3.303   0.666 -1.2633 -0.5496 -0.0957
38942SOL     OW21187   2.774   1.049   6.600 -0.0071 -0.5836 -0.0331
38942SOL    HW121188   2.777   1.123   6.660 -0.3022 -2.6951  2.7819
38942SOL    HW221189   2.865   1.040   6.569  0.0622  0.7888 -0.3266
38943SOL     OW21190   5.376   4.773  10.863 -0.0555  0.2191  0.2336
38943SOL    HW121191   5.354   4.815  10.946  1.6481 -0.6647  1.1983
38943SOL    HW221192   5.467   4.797  10.847  0.0612 -0.7229 -0.6727
38944SOL     OW21193   0.386   1.486   5.422  0.1436 -0.4761  0.0449
38944SOL    HW121194   0.315   1.423   5.432 -2.1106  1.4232 -2.4872
38944SOL    HW221195   0.342   1.571   5.414  2.8353  1.0586  0.3220
38945SOL     OW21196   3.348   7.292   7.233  0.1900  0.3420 -0.2281
38945SOL    HW121197   3.328   7.204   7.267  0.3096  1.1389  2.0722
38945SOL    HW221198   3.441   7.289   7.211  0.6108  0.3311  1.4334
38946SOL     OW21199   0.989   8.746   2.801  0.6446  0.7899  0.6083
38946SOL    HW121200   1.019   8.812   2.739 -0.0421  1.6193  1.1457
38946SOL    HW221201   1.070   8.718   2.846  1.0103  0.8685  0.0112
38947SOL     OW21202  10.028   4.951   4.612 -0.0680  0.0633 -0.2981
38947SOL    HW121203   9.998   4.885   4.549  0.8090 -0.5717 -0.0776
38947SOL    HW221204  10.018   5.034   4.566  2.4358 -0.5109 -2.1412
38948SOL     OW21205   3.779   6.160   4.661  0.0118 -0.1579  0.1070
38948SOL    HW121206   3.690   6.195   4.669 -0.7223 -1.8796  0.0570
38948SOL    HW221207   3.818   6.209   4.589 -1.4673 -0.4425 -0.9309
38949SOL     OW21208   0.948   3.465   1.438  0.3167  0.2042  0.0509
38949SOL    HW121209   0.961   3.403   1.366  1.6627 -2.1476  2.1592
38949SOL    HW221210   0.857   3.492   1.430  0.0509 -1.0463 -1.7145
38950SOL     OW21211   2.912   2.398   2.842  0.1963  0.2447  0.2282
38950SOL    HW121212   2.847   2.331   2.863 -0.0697  0.8658  1.5009
38950SOL    HW221213   2.908   2.407   2.747 -2.6962  1.3347  0.3526
38951SOL     OW21214   6.825   3.118   8.232  0.0177 -0.3126 -0.2498
38951SOL    HW121215   6.885   3.086   8.164 -0.3873 -0.5603 -0.4931
38951SOL    HW221216   6.779   3.191   8.190  0.1393 -0.1283 -0.0653
38952SOL     OW21217   3.031   7.228  10.789 -0.1298 -0.1862 -0.2681
38952SOL    HW121218   3.067   7.151  10.834  0.3787  0.1685 -0.0562
38952SOL    HW221219   2.938   7.207  10.777 -0.1378 -0.5695  0.3678
38953SOL     OW21220   3.492   9.099   4.165  0.2998 -0.2631 -0.3343
38953SOL    HW121221   3.438   9.026   4.195  0.0840  0.4629  1.1597
38953SOL    HW221222   3.567   9.058   4.123  0.8049 -1.4193  1.5620
38954SOL     OW21223   9.494   9.271   7.340 -0.0416  0.3703  0.0039
38954SOL    HW121224   9.503   9.356   7.383 -0.6386  0.9731 -1.0405
38954SOL    HW221225   9.412   9.277   7.291 -0.2675 -0.9365  0.1892
38955SOL     OW21226   7.746   1.480   1.631 -0.0100 -0.2205 -0.1673
38955SOL    HW121227   7.831   1.509   1.665 -0.2999  0.5361 -0.0526
38955SOL    HW221228   7.735   1.529   1.550 -0.2508 -0.4561 -0.2755
38956SOL     OW21229  10.480   5.740   2.883  0.6418 -0.2620  0.1173
38956SOL    HW121230  10.570   5.728   2.914  1.1557 -0.2809 -1.3229
38956SOL    HW221231  10.448   5.816   2.931  2.7474  2.1719 -2.0424
38957SOL     OW21232   3.700   6.937   5.850 -0.1964  0.1931 -0.2594
38957SOL    HW121233   3.789   6.951   5.819  0.2204 -2.0193 -0.2753
38957SOL    HW221234   3.672   7.022   5.883  2.0164  0.8983 -0.0097
38958SOL     OW21235   4.129   1.808   7.398  0.5405  0.1308  0.0278
38958SOL    HW121236   4.094   1.719   7.400 -0.6467  0.5708 -0.3812
38958SOL    HW221237   4.085   1.853   7.470 -0.1827  0.8435 -0.8365
38959SOL     OW21238   8.695   3.958   3.796  0.5554  0.4159  0.2169
38959SOL    HW121239   8.771   3.934   3.743  0.9903  1.5657  0.3030
38959SOL    HW221240   8.692   4.053   3.793 -0.8809  0.3952  0.2335
38960SOL     OW21241   8.809   7.044  10.710  0.0395 -0.7497  0.1937
38960SOL    HW121242   8.899   7.035  10.679 -0.2339  0.4756 -1.0867
38960SOL    HW221243   8.780   6.955  10.727  0.6476 -1.4126 -1.9670
38961SOL     OW21244   8.971   6.727   6.034  0.2493 -0.3565 -0.1825
38961SOL    HW121245   8.884   6.739   5.995  0.4185  0.3375 -0.3486
38961SOL    HW221246   9.006   6.649   5.991 -1.5245 -2.5668  2.0815
38962SOL     OW21247   9.738   3.904   3.319  0.2161  0.5154 -0.0857
38962SOL    HW121248   9.656   3.861   3.296 -0.3266  0.7125  1.4138
38962SOL    HW221249   9.781   3.920   3.234 -0.4660 -1.1640 -0.7893
38963SOL     OW21250   7.824   0.623   5.482  0.5346  0.5826  0.7776
38963SOL    HW121251   7.898   0.564   5.467  0.7216  0.7671  0.9716
38963SOL    HW221252   7.750   0.578   5.443  0.4198 -0.4104  2.0595
38964SOL     OW21253   2.749   8.395  10.488  0.1728 -0.0592 -0.1782
38964SOL    HW121254   2.830   8.354  10.518  0.6352  1.1944  0.3838
38964SOL    HW221255   2.680   8.351  10.537  0.6531 -0.1587  0.4255
38965SOL     OW21256   8.671   4.176   4.088  0.0551  0.1938  0.4264
38965SOL    HW121257   8.661   4.198   4.180 -1.8736  0.6551  0.1549
38965SOL    HW221258   8.654   4.258   4.041 -0.6250 -0.3824 -0.3712
38966SOL     OW21259   4.175   4.606   6.031 -0.0776 -0.5671  0.0736
38966SOL    HW121260   4.254   4.570   5.991 -0.8182 -1.6206 -0.4998
38966SOL    HW221261   4.198   4.620   6.122  1.3192  0.8687 -0.4524
38967SOL     OW21262   2.524   5.302   7.941 -0.2482 -0.3263  0.4226
38967SOL    HW121263   2.503   5.352   8.020 -0.5302  1.1235 -0.5341
38967SOL    HW221264   2.439   5.280   7.903 -0.1150 -1.1461  0.5855
38968SOL     OW21265   4.506   7.521   2.511  0.2332  0.8439 -0.0779
38968SOL    HW121266   4.479   7.432   2.536  0.3592  0.0522 -2.5496
38968SOL    HW221267   4.601   7.515   2.500  0.4875  1.7476  1.3214
38969SOL     OW21268   8.023   7.905   6.004 -0.1837 -0.0461 -0.3879
38969SOL    HW121269   7.967   7.832   6.031 -0.6532  1.0347  1.8158
38969SOL    HW221270   7.964   7.966   5.961 -0.3395  0.2108  0.1767
38970SOL     OW21271   9.625   5.785   1.893  0.5098 -0.0124  0.4056
38970SOL    HW121272   9.706   5.834   1.878  0.4914 -0.3334 -0.8349
38970SOL    HW221273   9.557   5.837   1.851 -0.0262  0.4918  1.8475
38971SOL     OW21274   2.396   1.555   4.666  0.3502  0.4777  0.1612
38971SOL    HW121275   2.460   1.590   4.604 -0.3662 -0.5230 -1.1763
38971SOL    HW221276   2.448   1.529   4.742  1.4800  0.1208 -0.7086
38972SOL     OW21277   2.437   4.311   8.936 -0.3068  0.0061  0.9650
38972SOL    HW121278   2.351   4.290   8.974 -1.5249  2.0726 -0.4327
38972SOL    HW221279   2.439   4.263   8.854  0.1161 -0.4386  1.2306
38973SOL     OW21280   7.570   8.692   0.360 -0.6239  0.0471  0.2043
38973SOL    HW121281   7.661   8.719   0.346 -0.7709  0.6094  0.3291
38973SOL    HW221282   7.524   8.772   0.385 -1.2558 -0.1444 -0.3092
38974SOL     OW21283   1.692   4.104   3.333  0.0458 -0.2575 -0.1875
38974SOL    HW121284   1.657   4.055   3.258 -0.2399  0.8714 -0.8093
38974SOL    HW221285   1.776   4.137   3.303  0.4141 -0.6690  0.3660
38975SOL     OW21286   2.913  10.145   6.491  0.0806 -0.4667 -0.0764
38975SOL    HW121287   2.860  10.219   6.459  0.2180 -0.2182  0.2661
38975SOL    HW221288   2.933  10.168   6.582  0.9472 -0.4660 -0.2644
38976SOL     OW21289   1.485   4.706  10.258  0.0529  0.5877  0.2143
38976SOL    HW121290   1.401   4.683  10.297  1.2423 -1.4055  1.8256
38976SOL    HW221291   1.473   4.687  10.164 -0.9279 -0.9848  0.6060
38977SOL     OW21292   9.168  10.792   4.255  0.7224  0.6690 -0.7276
38977SOL    HW121293   9.134  10.750   4.176  0.3049 -0.1488 -0.1197
38977SOL    HW221294   9.252  10.749   4.271  0.9818  1.0908 -0.9216
38978SOL     OW21295  10.208   9.477   5.129  0.1665  0.1848  0.2891
38978SOL    HW121296  10.141   9.529   5.085  0.7955  0.4383 -0.3794
38978SOL    HW221297  10.158   9.413   5.180 -0.5918 -0.3924 -1.1168
38979SOL     OW21298   9.754   5.912  10.365 -0.2246 -0.4444 -0.6080
38979SOL    HW121299   9.849   5.900  10.358 -0.1486  0.2050 -0.7521
38979SOL    HW221300   9.718   5.852  10.300  0.0520 -1.1475 -0.1300
38980SOL     OW21301   2.875   0.721  10.020 -0.5212 -0.0339 -0.1134
38980SOL    HW121302   2.818   0.645  10.027 -1.8273  0.8936 -0.4584
38980SOL    HW221303   2.830   0.791  10.068  0.3266  0.7202 -0.3743
38981SOL     OW21304  10.204   8.105   9.375 -0.3960 -0.5374  0.2504
38981SOL    HW121305  10.249   8.146   9.300  2.1486  0.4061  2.1455
38981SOL    HW221306  10.229   8.012   9.368 -1.2401 -0.7147 -0.7274
38982SOL     OW21307   2.993   7.599   2.464 -0.0169  0.0826  0.4380
38982SOL    HW121308   3.068   7.639   2.420 -1.7953  2.1027 -0.9700
38982SOL    HW221309   2.969   7.526   2.408  1.0685 -0.8182  1.0997
38983SOL     OW21310   8.597   9.728   8.106  0.0628  0.4380  0.4097
38983SOL    HW121311   8.628   9.657   8.162 -0.6239 -0.1020  0.1111
38983SOL    HW221312   8.635   9.710   8.020  0.4032  0.7879  0.4810
38984SOL     OW21313   6.725   4.549   4.852 -0.2338 -0.3479  0.2324
38984SOL    HW121314   6.786   4.543   4.779  0.0585  0.6520  0.3825
38984SOL    HW221315   6.654   4.605   4.820 -0.8965 -1.1983  0.1870
38985SOL     OW21316   5.681   5.969   6.082  0.2301  0.2656  0.0550
38985SOL    HW121317   5.592   5.997   6.103  0.1798  0.0977  0.0691
38985SOL    HW221318   5.677   5.941   5.990  0.1392 -0.2677  0.2188
38986SOL     OW21319   0.581   5.942  11.036 -0.1992  0.7591 -0.1091
38986SOL    HW121320   0.553   5.949  10.944 -2.0918  1.3559  0.4712
38986SOL    HW221321   0.517   5.884  11.077  0.0184  1.3100  1.0511
38987SOL     OW21322   3.362   1.633   2.444 -0.2109  0.1890 -0.0358
38987SOL    HW121323   3.303   1.563   2.474 -0.1387  0.5616  1.0326
38987SOL    HW221324   3.442   1.619   2.494  0.8125 -0.6100 -1.8398
38988SOL     OW21325   2.628   3.912   5.673  0.1358 -0.3617  0.1053
38988SOL    HW121326   2.663   3.901   5.761  0.5020 -1.4634 -0.1733
38988SOL    HW221327   2.704   3.934   5.619 -0.1455  0.7232  0.1141
38989SOL     OW21328   7.097  10.307   2.959 -0.1494  0.0971  0.6720
38989SOL    HW121329   7.156  10.277   2.890 -1.5347 -0.2458 -0.4334
38989SOL    HW221330   7.148  10.368   3.011  1.1915 -0.2832 -0.1596
38990SOL     OW21331   3.081   1.893   7.513  0.3772  0.5391 -0.2647
38990SOL    HW121332   3.067   1.933   7.599  0.2028 -0.8865  0.4084
38990SOL    HW221333   3.140   1.952   7.468  2.7294  0.0193  1.8806
38991SOL     OW21334   3.683  10.923   9.769 -0.0705 -0.4623 -0.4798
38991SOL    HW121335   3.616  10.981   9.733  0.5199 -0.5581 -1.8031
38991SOL    HW221336   3.642  10.882   9.845 -0.3008  2.1218  0.8843
38992SOL     OW21337  10.016   1.925   0.955 -0.2624  0.8655  0.9910
38992SOL    HW121338  10.047   1.998   1.008  0.9618  0.7574  0.4341
38992SOL    HW221339   9.949   1.963   0.898  0.6665  1.6551  0.3983
38993SOL     OW21340   1.575   7.761  10.596 -0.0029 -0.4932 -0.4376
38993SOL    HW121341   1.574   7.793  10.686  0.3704 -1.6303 -0.0085
38993SOL    HW221342   1.552   7.837  10.543  1.7195  0.7174  0.4594
38994SOL     OW21343   3.538   6.703   2.962 -0.2622  0.3288 -0.1409
38994SOL    HW121344   3.492   6.631   3.004  0.6899 -0.2112 -0.0075
38994SOL    HW221345   3.474   6.739   2.899 -1.3463  0.5081  1.0260
38995SOL     OW21346   5.826   2.170   4.089  0.1887  0.4911  0.2817
38995SOL    HW121347   5.875   2.247   4.058 -0.0052  0.4213 -0.2165
38995SOL    HW221348   5.889   2.098   4.085  0.6058  0.7625  1.5129
38996SOL     OW21349   7.291   1.610   0.517 -0.2030 -0.2737  0.1989
38996SOL    HW121350   7.211   1.661   0.531 -0.0375 -0.2184  0.9996
38996SOL    HW221351   7.261   1.524   0.487 -0.5676 -0.2720  0.5559
38997SOL     OW21352   9.965   9.638   6.430 -0.4463 -0.3554  0.5145
38997SOL    HW121353   9.951   9.652   6.336  1.0422  0.5024  0.3958
38997SOL    HW221354  10.003   9.720   6.461 -1.0451 -0.5689  1.9203
38998SOL     OW21355   6.931   5.375   2.795 -0.0820  0.2719  0.0822
38998SOL    HW121356   7.014   5.391   2.842  0.3959 -0.2003 -0.5763
38998SOL    HW221357   6.873   5.445   2.825  1.1104  1.6946 -0.7721
38999SOL     OW21358   3.925  10.409   1.716 -0.3847 -0.2001 -0.1759
38999SOL    HW121359   3.947  10.470   1.645 -0.1199 -0.5158 -0.3732
38999SOL    HW221360   3.923  10.323   1.673  1.6046 -0.6469  0.5127
39000SOL     OW21361   4.918   9.362   7.811  0.6744 -0.3160  0.0856
39000SOL    HW121362   4.850   9.357   7.744 -1.2591  1.9682  1.6921
39000SOL    HW221363   4.976   9.432   7.780  1.7316 -1.5123 -0.7407
39001SOL     OW21364   0.689   2.793   7.773  0.1644  0.0443 -0.3639
39001SOL    HW121365   0.720   2.850   7.843  0.0562 -0.5445  0.1699
39001SOL    HW221366   0.758   2.728   7.762 -0.9712 -1.5036  1.0902
39002SOL     OW21367   7.719   5.896   8.535 -0.3104  0.0111  0.6158
39002SOL    HW121368   7.809   5.867   8.550 -0.1674  1.1763  2.2990
39002SOL    HW221369   7.668   5.849   8.602 -1.2086 -1.6571 -1.1552
39003SOL     OW21370   0.442   2.836   8.836 -0.2490 -0.3624  0.6965
39003SOL    HW121371   0.361   2.810   8.792  0.8656 -0.6920 -1.3080
39003SOL    HW221372   0.497   2.758   8.832  0.1918 -0.1507  2.0579
39004SOL     OW21373   9.872   1.347  10.983 -0.0906  0.6228  0.3146
39004SOL    HW121374   9.923   1.390  11.051  2.8274 -0.4214 -1.0333
39004SOL    HW221375   9.864   1.256  11.013 -0.7033  0.6656  0.2783
39005SOL     OW21376   6.175   6.896  11.009  0.0606 -0.5867  0.0003
39005SOL    HW121377   6.254   6.851  11.040  0.4080  0.1882  0.2548
39005SOL    HW221378   6.103   6.847  11.048  0.4547 -0.5351  0.8218
39006SOL     OW21379   7.616   3.828   9.689  0.4141 -0.2446  0.1981
39006SOL    HW121380   7.597   3.883   9.765  0.1938 -1.2294  0.8899
39006SOL    HW221381   7.708   3.803   9.700  0.5086 -0.0309 -0.1006
39007SOL     OW21382   3.464   6.385   8.451 -0.1607 -0.2146 -0.4112
39007SOL    HW121383   3.423   6.448   8.509  0.8650 -0.6755  0.8745
39007SOL    HW221384   3.438   6.299   8.485 -2.6637 -0.5790 -2.9538
39008SOL     OW21385  10.945   4.155   5.923 -0.0479  0.3304 -0.0576
39008SOL    HW121386  11.017   4.217   5.932  1.8485 -1.6418 -0.7879
39008SOL    HW221387  10.884   4.179   5.993  1.4299  1.8856  0.7760
39009SOL     OW21388   7.464   0.163  10.077  0.5478 -0.0577 -0.2348
39009SOL    HW121389   7.399   0.163  10.007 -0.9765 -1.1681  1.1009
39009SOL    HW221390   7.502   0.075  10.073  0.8959  0.0844 -0.0643
39010SOL     OW21391   4.665   5.394   4.839 -0.2482  0.7544  0.3314
39010SOL    HW121392   4.679   5.488   4.836  0.4861  0.7828  2.4682
39010SOL    HW221393   4.748   5.359   4.874  0.4027 -0.9739 -2.6160
39011SOL     OW21394   6.291   9.315   2.385  0.2314  0.6111 -0.3106
39011SOL    HW121395   6.285   9.235   2.438  0.0781  0.6187 -0.3161
39011SOL    HW221396   6.201   9.333   2.359 -0.0214  1.8745  1.2825
39012SOL     OW21397   7.071   3.811   4.722  0.4773 -0.4893  0.0220
39012SOL    HW121398   7.136   3.868   4.680 -0.3161 -0.1397 -0.7349
39012SOL    HW221399   7.103   3.722   4.705  0.4065 -0.3381 -0.9112
39013SOL     OW21400  10.476   2.702  10.349 -0.1558 -0.4884 -0.4527
39013SOL    HW121401  10.484   2.623  10.296  0.8337  0.4093 -1.7027
39013SOL    HW221402  10.383   2.726  10.341 -0.4062 -1.3690 -0.2725
39014SOL     OW21403   8.322   7.889   1.326 -0.0368 -0.1950 -0.8248
39014SOL    HW121404   8.323   7.983   1.311  1.7565  0.3095  1.7451
39014SOL    HW221405   8.407   7.858   1.293 -0.2904 -0.7703 -0.9562
39015SOL     OW21406   7.608  11.088   6.697 -0.2280  0.2647  0.1667
39015SOL    HW121407   7.643  11.174   6.671  0.0957  0.4178  1.0656
39015SOL    HW221408   7.628  11.031   6.623  2.7436  0.1420  0.9499
39016SOL     OW21409   2.472   0.063  11.022  0.5595 -0.2947  0.0891
39016SOL    HW121410   2.377   0.064  11.023  0.5275  1.8596 -0.3273
39016SOL    HW221411   2.497   0.113  10.945  2.0457 -0.9555  0.0880
39017SOL     OW21412   9.192   8.478   1.984 -0.3434  0.2958 -0.0901
39017SOL    HW121413   9.185   8.518   2.071  0.8753  0.9316 -0.2665
39017SOL    HW221414   9.163   8.547   1.924 -0.9524 -0.0625 -0.2224
39018SOL     OW21415  10.845   8.469   7.282  0.2641 -0.2884  0.8230
39018SOL    HW121416  10.843   8.495   7.374 -0.6610 -0.1566  0.7712
39018SOL    HW221417  10.852   8.551   7.234 -0.0726 -0.3015  0.7493
39019SOL     OW21418   9.271   6.680   5.559  0.4840  0.8243 -0.6204
39019SOL    HW121419   9.217   6.721   5.492 -0.4985 -0.5496 -0.7102
39019SOL    HW221420   9.324   6.616   5.512  0.3906  0.4355 -0.2098
39020SOL     OW21421   0.066   8.748   2.949  0.3728 -0.0524  0.3580
39020SOL    HW121422   0.125   8.775   2.877  0.2276 -1.0889 -0.1642
39020SOL    HW221423   0.088   8.807   3.021  1.1441  0.4310 -0.2566
39021SOL     OW21424   4.028   2.753   1.578  0.1145 -0.1972 -0.0403
39021SOL    HW121425   3.982   2.795   1.505  1.7230 -0.5773 -1.3339
39021SOL    HW221426   3.963   2.749   1.648 -2.0317 -1.2836 -1.9451
39022SOL     OW21427  10.458   6.347   4.344  0.0113  0.1131 -0.3387
39022SOL    HW121428  10.500   6.423   4.384 -0.7882 -0.1940  1.1481
39022SOL    HW221429  10.376   6.380   4.307  0.5865  0.3282 -1.4830
39023SOL     OW21430   9.311   9.230   0.352 -0.2645  0.2056  0.0193
39023SOL    HW121431   9.320   9.148   0.401  0.2964 -0.0758 -0.5395
39023SOL    HW221432   9.386   9.230   0.292 -0.0535  1.3033  0.2614
39024SOL     OW21433   8.166   3.608  10.694  0.2427 -0.3947  0.3679
39024SOL    HW121434   8.162   3.559  10.612  1.7335 -0.8272  0.5241
39024SOL    HW221435   8.259   3.605  10.719  0.1400  1.3234  1.0991
39025SOL     OW21436   5.523   2.040   7.785 -0.4510 -0.0074  0.4640
39025SOL    HW121437   5.483   2.045   7.873  0.1109 -0.3390  0.7446
39025SOL    HW221438   5.605   1.992   7.799  0.6000  1.6155  0.0741
39026SOL     OW21439   1.578   7.118   2.281 -0.1722 -0.1770 -0.3719
39026SOL    HW121440   1.653   7.177   2.287  0.3422 -0.7663 -0.8584
39026SOL    HW221441   1.585   7.062   2.358  0.1416 -0.5151 -0.6420
39027SOL     OW21442   3.718   2.253   9.302 -0.1716  0.1991  0.4240
39027SOL    HW121443   3.647   2.216   9.354 -0.5688  1.2978  0.6785
39027SOL    HW221444   3.683   2.258   9.213  0.0524 -0.4583  0.2905
39028SOL     OW21445   9.387   7.268   0.058 -0.0347 -0.3568  0.2752
39028SOL    HW121446   9.307   7.233   0.018 -1.6364 -0.4836  3.2482
39028SOL    HW221447   9.386   7.233   0.147  1.2425  2.7622  1.6700
39029SOL     OW21448  10.609   1.671   2.176  0.4250 -0.1145 -0.2867
39029SOL    HW121449  10.536   1.665   2.237  0.1034  1.0504 -0.5245
39029SOL    HW221450  10.638   1.581   2.163 -0.4973 -0.5155  0.3800
39030SOL     OW21451   6.171   4.563   1.033 -0.3959 -0.2084  0.1269
39030SOL    HW121452   6.173   4.559   1.129  0.3777 -2.4957  0.0751
39030SOL    HW221453   6.120   4.642   1.014  0.3924  0.9610  2.3966
39031SOL     OW21454   8.410   4.943  11.018  0.1908  0.0016  0.4890
39031SOL    HW121455   8.324   4.902  11.029 -0.2198  0.9027  0.7218
39031SOL    HW221456   8.415   5.008  11.088 -0.4580  2.4824 -1.5830
39032SOL     OW21457   6.867   2.098   3.405  0.1685  0.5780 -0.0707
39032SOL    HW121458   6.819   2.016   3.390 -0.6911  1.4798 -2.8364
39032SOL    HW221459   6.933   2.101   3.336 -0.9972  2.9815 -1.2220
39033SOL     OW21460   8.283   4.336   1.775  0.1787 -0.3153 -0.6323
39033SOL    HW121461   8.275   4.332   1.870 -1.6169  0.1362 -0.7266
39033SOL    HW221462   8.303   4.428   1.757  1.2542 -0.5472 -0.6646
39034SOL     OW21463  10.907   5.070   6.902 -0.5251 -0.1300 -0.2517
39034SOL    HW121464  10.815   5.073   6.874 -0.3533  0.0055 -0.8096
39034SOL    HW221465  10.906   5.017   6.982 -0.8036 -2.0784 -1.4825
39035SOL     OW21466   1.477   3.333   9.146 -0.1303  0.0753 -0.2406
39035SOL    HW121467   1.436   3.391   9.082  1.0941 -0.1318 -1.2417
39035SOL    HW221468   1.404   3.282   9.182 -0.9180  0.6498 -0.9807
39036SOL     OW21469  10.791   4.839   2.067 -0.3757  0.9903  0.2060
39036SOL    HW121470  10.878   4.802   2.053  0.1614  2.1887  0.2235
39036SOL    HW221471  10.731   4.778   2.023  0.2986 -0.6634  1.4709
39037SOL     OW21472   1.232   3.325   0.628 -0.0967  0.0399  0.0158
39037SOL    HW121473   1.307   3.341   0.570 -1.4535  2.0204 -1.2858
39037SOL    HW221474   1.208   3.411   0.662 -2.0279 -0.4788  0.0914
39038SOL     OW21475  10.279   5.596   0.765 -0.2817 -0.4348 -0.1714
39038SOL    HW121476  10.326   5.524   0.807 -1.0746 -0.9490 -0.1434
39038SOL    HW221477  10.346   5.644   0.717  0.3476 -0.8654  0.2612
39039SOL     OW21478   6.891   8.065   8.620  0.0381  0.9115  0.4316
39039SOL    HW121479   6.889   8.141   8.563 -1.3051 -0.3996 -1.4195
39039SOL    HW221480   6.963   8.012   8.588 -1.4591 -0.4056 -0.9793
39040SOL     OW21481   5.461   8.100   6.278 -0.3237 -0.7269 -0.4753
39040SOL    HW121482   5.520   8.037   6.319 -0.0321  0.6620  1.3478
39040SOL    HW221483   5.377   8.054   6.274 -0.5169 -0.7670  2.2676
39041SOL     OW21484   5.971  10.798   9.356  0.8509 -0.6165 -0.2062
39041SOL    HW121485   6.004  10.848   9.281  0.2919 -0.4639 -0.3531
39041SOL    HW221486   5.876  10.809   9.353  0.8965  0.7461  1.4557
39042SOL     OW21487   4.201   6.416   1.287 -0.3115  0.5633  0.0894
39042SOL    HW121488   4.245   6.361   1.223  1.2878  1.8860 -0.0367
39042SOL    HW221489   4.235   6.387   1.371 -0.6191  0.3673  0.1463
39043SOL     OW21490   7.128   8.290   3.064 -0.3786  0.4049 -0.2952
39043SOL    HW121491   7.169   8.343   3.131  0.2014 -1.1385  0.6158
39043SOL    HW221492   7.085   8.353   3.006  1.3318  1.9142  0.0200
39044SOL     OW21493   9.691   3.775   7.256  0.1291  0.6152  0.1854
39044SOL    HW121494   9.767   3.772   7.314 -0.4912 -0.4652  0.9769
39044SOL    HW221495   9.720   3.828   7.182  1.0936  1.6410  1.2532
39045SOL     OW21496   0.310   5.083   7.739  0.4734 -0.5108 -0.1113
39045SOL    HW121497   0.402   5.078   7.765  0.4680 -1.5852 -0.2472
39045SOL    HW221498   0.308   5.153   7.674  0.8612  0.7321  1.1795
39046SOL     OW21499   7.375   4.222   4.447  0.2207 -0.0339 -0.0830
39046SOL    HW121500   7.339   4.299   4.491 -0.3300 -0.2256 -0.1859
39046SOL    HW221501   7.469   4.225   4.464  0.2892  0.9896 -0.5955
39047SOL     OW21502   8.253   9.829   2.812 -0.2098 -0.0057 -0.1826
39047SOL    HW121503   8.341   9.866   2.802 -0.6069  1.2005  0.5888
39047SOL    HW221504   8.243   9.815   2.906 -1.4074  1.3370 -0.0897
39048SOL     OW21505   8.617   4.106   7.434  0.4472 -0.5150  0.2121
39048SOL    HW121506   8.665   4.129   7.354  1.2171 -2.3612  0.0764
39048SOL    HW221507   8.551   4.043   7.404 -0.3258  0.0033  0.8058
39049SOL     OW21508  10.287   3.745   2.384 -0.2175 -0.0130 -0.0679
39049SOL    HW121509  10.213   3.702   2.428 -0.7560  0.0874 -0.8666
39049SOL    HW221510  10.363   3.690   2.405 -0.5639 -0.2687  0.5234
39050SOL     OW21511   1.920   6.885   0.877 -0.9508 -0.0896 -0.0129
39050SOL    HW121512   1.848   6.945   0.899 -0.5443  0.5041 -0.2849
39050SOL    HW221513   1.879   6.819   0.822 -1.4958 -0.3038  0.6387
39051SOL     OW21514   8.081  10.661   2.724  0.4376  0.4682  0.5477
39051SOL    HW121515   7.987  10.648   2.719  0.3449  1.5336 -1.1952
39051SOL    HW221516   8.118  10.572   2.725 -0.5693  0.0180  2.2376
39052SOL     OW21517   1.085   6.362  10.093  0.3794  0.3673  0.4418
39052SOL    HW121518   1.011   6.315  10.131  0.1469  0.7632  0.4810
39052SOL    HW221519   1.104   6.432  10.157 -0.8951  1.9232 -0.7833
39053SOL     OW21520   5.180   4.905   2.049 -0.0591 -0.7856 -0.4270
39053SOL    HW121521   5.209   4.814   2.058  2.4242 -0.1844 -1.5529
39053SOL    HW221522   5.225   4.952   2.119 -1.0860 -0.3373 -0.0470
39054SOL     OW21523   2.138   7.716   6.752 -0.2081 -0.5642  0.3560
39054SOL    HW121524   2.102   7.764   6.677 -0.8538 -2.3520 -0.5557
39054SOL    HW221525   2.177   7.783   6.808 -0.4291  0.9156 -1.1850
39055SOL     OW21526   2.371   1.333   4.513 -0.2035 -0.3237 -0.0089
39055SOL    HW121527   2.383   1.408   4.571  2.5227 -0.4645 -0.2527
39055SOL    HW221528   2.349   1.371   4.428 -0.8201  0.0563  0.3119
39056SOL     OW21529   5.231   3.274   8.973  0.0784  0.9843 -0.2722
39056SOL    HW121530   5.243   3.264   8.878 -2.0332 -1.0709 -0.4312
39056SOL    HW221531   5.283   3.203   9.011  1.6227  2.3346  0.2214
39057SOL     OW21532  10.739   8.498   2.026  0.1374 -0.3047 -0.0091
39057SOL    HW121533  10.672   8.461   2.084 -0.8221  0.8724 -0.3145
39057SOL    HW221534  10.727   8.452   1.943 -2.0240  1.5761 -0.8355
39058SOL     OW21535   1.494   4.887   1.828 -0.0325  0.2865  0.4710
39058SOL    HW121536   1.433   4.822   1.863  0.1750 -0.7523 -1.0353
39058SOL    HW221537   1.490   4.876   1.733  1.1042  1.4909  0.2493
39059SOL     OW21538   8.945   5.900  10.875  0.4492 -0.5615 -0.1514
39059SOL    HW121539   9.018   5.904  10.937 -0.4714  0.2493  0.9209
39059SOL    HW221540   8.880   5.845  10.918 -0.1076 -0.1846 -0.4943
39060SOL     OW21541   3.806   6.273   5.719 -0.1459 -0.1539  0.0198
39060SOL    HW121542   3.897   6.276   5.688  0.2376 -1.9780  0.8322
39060SOL    HW221543   3.781   6.365   5.728  2.1755  0.4442  1.3266
39061SOL     OW21544   7.092   3.346   6.789  0.2233 -0.5050  0.7298
39061SOL    HW121545   7.094   3.430   6.835  0.3499 -0.1633  0.0988
39061SOL    HW221546   7.102   3.281   6.859 -0.9143 -0.0416  1.3389
39062SOL     OW21547   9.497   3.230   7.627  0.0061  0.3558 -0.6746
39062SOL    HW121548   9.532   3.153   7.581 -1.5754 -0.6703 -0.2281
39062SOL    HW221549   9.473   3.290   7.557  0.8978  0.3041 -1.0428
39063SOL     OW21550   0.472   1.364   4.349  0.1253  0.2034 -0.6989
39063SOL    HW121551   0.564   1.379   4.373  0.7961 -1.1899 -2.2101
39063SOL    HW221552   0.468   1.382   4.255 -0.9513 -0.5798 -0.8244
39064SOL     OW21553  10.937   1.085   6.474  0.1370  0.0947  0.5136
39064SOL    HW121554  10.945   1.021   6.403 -0.8716  0.1756  0.3005
39064SOL    HW221555  10.974   1.041   6.550 -0.3669 -0.6912  0.3252
39065SOL     OW21556   0.104   1.610   6.235 -0.2719  0.1916 -0.5302
39065SOL    HW121557   0.010   1.602   6.216 -0.6560  1.0069  0.8651
39065SOL    HW221558   0.116   1.561   6.316  1.0329 -2.0097 -1.9467
39066SOL     OW21559   2.104  10.677   5.714  0.2665 -0.1619  0.5248
39066SOL    HW121560   2.081  10.698   5.805 -0.1232 -2.9323  1.1588
39066SOL    HW221561   2.026  10.633   5.680  1.1547 -1.0086 -0.4601
39067SOL     OW21562   1.326   5.132   0.755  0.5197 -0.0108 -0.1394
39067SOL    HW121563   1.323   5.062   0.690 -1.0281 -1.2359  1.1664
39067SOL    HW221564   1.237   5.169   0.755  1.4682  2.4905 -1.2926
39068SOL     OW21565   9.639   6.854   3.029 -0.4967 -0.1110 -0.1521
39068SOL    HW121566   9.577   6.784   3.009 -0.7543 -0.2590  1.0785
39068SOL    HW221567   9.702   6.814   3.090 -0.0791  0.4543 -0.2055
39069SOL     OW21568   7.024  10.817   6.367  0.4535 -0.1314 -0.5672
39069SOL    HW121569   7.120  10.822   6.360  0.5596 -2.0103 -1.1183
39069SOL    HW221570   7.008  10.805   6.460  1.0484 -3.1217 -0.7506
39070SOL     OW21571   6.771  10.674   5.990  0.1431 -0.1358 -0.0834
39070SOL    HW121572   6.846  10.684   6.048  0.5107  1.6663 -0.8184
39070SOL    HW221573   6.806  10.630   5.913  0.4712  0.7261 -0.4364
39071SOL     OW21574   9.968   7.983   4.868 -0.8121 -0.0068  0.0061
39071SOL    HW121575   9.891   8.038   4.854 -2.1606 -1.4405  1.3158
39071SOL    HW221576   9.962   7.915   4.802  0.6696  1.1476 -1.3944
39072SOL     OW21577   7.541   4.739   1.208 -0.4400  0.3148  0.1320
39072SOL    HW121578   7.463   4.741   1.264 -0.0866  0.9222  0.6105
39072SOL    HW221579   7.577   4.651   1.221 -1.3625 -0.1969 -0.5566
39073SOL     OW21580   3.334   5.810   6.371 -0.9835  0.1649  0.3856
39073SOL    HW121581   3.321   5.797   6.277 -0.2431 -0.3796  0.3444
39073SOL    HW221582   3.285   5.890   6.391  0.8481  1.7265 -0.9567
39074SOL     OW21583   4.001   6.377   7.482 -0.9676 -0.1199  0.4128
39074SOL    HW121584   3.994   6.296   7.532  0.2561 -0.6253 -0.2035
39074SOL    HW221585   4.060   6.432   7.533 -1.4360  0.2116  0.6019
39075SOL     OW21586   4.799   4.966   6.282 -0.0461  0.3189 -0.2729
39075SOL    HW121587   4.857   4.939   6.353  1.4433  0.6103 -1.3435
39075SOL    HW221588   4.857   5.006   6.217 -1.5380  1.2757 -1.0698
39076SOL     OW21589   8.877   7.469   6.938  0.3007  0.1849  0.5682
39076SOL    HW121590   8.958   7.419   6.936  1.3102  1.7001 -2.3001
39076SOL    HW221591   8.822   7.424   7.002  3.1603 -1.2247  2.1924
39077SOL     OW21592   7.272   3.843   3.580  0.2340 -0.1370  0.2361
39077SOL    HW121593   7.179   3.831   3.594  0.3420 -0.1679  0.9473
39077SOL    HW221594   7.282   3.845   3.485 -0.7623  2.0177  0.1257
39078SOL     OW21595   3.533   1.621   9.393  0.3590  0.1402  0.7130
39078SOL    HW121596   3.530   1.552   9.326  1.7314  0.9393 -0.2365
39078SOL    HW221597   3.606   1.596   9.449  0.4173  0.4471  0.7757
39079SOL     OW21598   2.274  11.047   8.057  0.1627  0.4727  0.0180
39079SOL    HW121599   2.332  11.086   8.122  0.8862 -1.1795  0.4255
39079SOL    HW221600   2.302  11.084   7.974 -0.4329  2.2283  0.5601
39080SOL     OW21601   1.149  10.465   0.025  0.8378 -0.3252  0.2978
39080SOL    HW121602   1.147  10.439   0.118  2.8697  1.1931  0.8427
39080SOL    HW221603   1.081  10.532   0.018 -0.6753 -1.8206  0.1791
39081SOL     OW21604   3.056   5.177   4.477  0.3263 -0.3887  0.6496
39081SOL    HW121605   3.129   5.188   4.538  0.4308 -0.9908  0.6375
39081SOL    HW221606   3.097   5.146   4.396  0.1204 -0.1840  0.4667
39082SOL     OW21607   5.806   6.674   9.739  0.2260 -0.2589  0.0469
39082SOL    HW121608   5.723   6.653   9.782 -1.0392  3.0289 -0.4864
39082SOL    HW221609   5.787   6.669   9.645  0.9286 -0.4832 -0.0892
39083SOL     OW21610   0.415   7.355   4.243 -0.6569 -0.0392 -0.1320
39083SOL    HW121611   0.323   7.369   4.267 -0.8034  0.2276 -0.8448
39083SOL    HW221612   0.432   7.420   4.175 -0.3844 -1.1450 -1.1291
39084SOL     OW21613   1.768   5.742   6.486 -0.5227  0.4743 -0.6272
39084SOL    HW121614   1.783   5.805   6.416  0.6306 -0.2336 -1.0488
39084SOL    HW221615   1.754   5.658   6.441  0.0388  0.0477 -0.0332
39085SOL     OW21616   9.601   7.991   4.541 -0.2355 -0.4053 -0.2604
39085SOL    HW121617   9.629   8.045   4.615  0.0126  1.3547 -1.5769
39085SOL    HW221618   9.595   7.902   4.577 -0.8175  0.4953  2.0277
39086SOL     OW21619   4.975   0.627   2.913 -0.2663  0.0762  0.0996
39086SOL    HW121620   5.048   0.662   2.862 -0.3972 -0.1287 -0.2276
39086SOL    HW221621   5.017   0.570   2.978 -0.2296 -1.4235 -1.1886
39087SOL     OW21622  10.492   3.566   2.471  0.0331  0.2403 -0.0434
39087SOL    HW121623  10.568   3.540   2.523 -0.8866  0.7407  1.5793
39087SOL    HW221624  10.488   3.499   2.401 -0.2437 -2.0414  2.0177
39088SOL     OW21625   4.985   8.234   8.088  0.5939  0.0648 -0.0309
39088SOL    HW121626   4.949   8.159   8.137 -0.2854 -0.0631 -0.8480
39088SOL    HW221627   4.916   8.258   8.027  0.2951  2.4587  1.1449
39089SOL     OW21628   1.451  10.532   3.810  0.3829 -0.1257 -0.1256
39089SOL    HW121629   1.528  10.516   3.755  0.4236 -2.0289  0.3995
39089SOL    HW221630   1.475  10.498   3.896 -0.1721  1.5695  0.7394
39090SOL     OW21631   7.145   8.863   2.115 -0.9513 -0.0849  0.3765
39090SOL    HW121632   7.173   8.860   2.023 -1.8064  1.3339  0.0438
39090SOL    HW221633   7.172   8.949   2.146 -0.5931 -0.5859  1.4995
39091SOL     OW21634   5.650   4.971   2.620  0.0917 -0.7387 -0.1673
39091SOL    HW121635   5.706   5.038   2.659 -1.0258  0.2316 -0.1816
39091SOL    HW221636   5.628   5.006   2.533 -1.0734 -0.7798  0.0960
39092SOL     OW21637   1.637  10.929   6.026  0.3437  0.0073 -0.1386
39092SOL    HW121638   1.639  10.841   5.988  0.0700  0.4001 -1.1018
39092SOL    HW221639   1.657  10.916   6.119  0.9942 -0.9928 -0.4016
39093SOL     OW21640   5.264  10.281   3.577 -0.1320 -0.1581 -0.5282
39093SOL    HW121641   5.259  10.281   3.481 -0.6517  3.6499 -0.6586
39093SOL    HW221642   5.194  10.222   3.604 -1.0996 -0.0232 -2.5152
39094SOL     OW21643   8.797   4.157  10.368  0.2055 -0.1134 -0.2389
39094SOL    HW121644   8.830   4.076  10.408  0.1399 -0.9701 -1.8276
39094SOL    HW221645   8.835   4.156  10.280 -0.0957  1.4201 -0.4043
39095SOL     OW21646   1.124   1.427   0.713  0.4171 -0.4358  0.0133
39095SOL    HW121647   1.112   1.337   0.685 -0.2583  0.1813 -1.7922
39095SOL    HW221648   1.097   1.480   0.638 -1.7122  1.3515  1.8929
39096SOL     OW21649   2.809   0.352   1.790 -0.1211  0.2450  0.2721
39096SOL    HW121650   2.863   0.372   1.713  0.4323 -3.2214 -0.4079
39096SOL    HW221651   2.770   0.267   1.770 -1.7569  0.2628  2.9458
39097SOL     OW21652   4.371   8.566   5.529  0.2489 -0.1198  0.2912
39097SOL    HW121653   4.310   8.532   5.594  1.3857 -0.5817  1.1472
39097SOL    HW221654   4.442   8.605   5.580  0.7432  0.2853 -0.6715
39098SOL     OW21655   2.652   3.601   4.429 -0.1231  0.1727 -0.0763
39098SOL    HW121656   2.596   3.640   4.496  1.0731 -0.9570  1.6790
39098SOL    HW221657   2.737   3.645   4.441 -0.0290  0.3176 -1.2089
39099SOL     OW21658   0.605   7.295  10.702  0.0251  0.2172  0.1847
39099SOL    HW121659   0.654   7.312  10.782  1.7515  2.7476 -1.2793
39099SOL    HW221660   0.533   7.358  10.703 -0.0684  0.1230 -0.1512
39100SOL     OW21661   1.723   6.110   9.464  0.0329 -0.0086  0.2349
39100SOL    HW121662   1.664   6.179   9.495 -1.1942 -1.1617  0.6081
39100SOL    HW221663   1.664   6.046   9.424  0.5931 -2.6325  3.1988
39101SOL     OW21664   3.340  10.699   2.602  0.3151  0.3184 -0.0086
39101SOL    HW121665   3.270  10.720   2.663  1.7109  0.8062  1.4718
39101SOL    HW221666   3.306  10.726   2.516 -0.4938  2.5108  0.9446
39102SOL     OW21667   9.392   2.872   4.928  0.1500  0.4223 -0.1990
39102SOL    HW121668   9.357   2.925   4.857 -0.2091  1.3026  0.6137
39102SOL    HW221669   9.426   2.936   4.991  0.0530 -0.3220  0.6242
39103SOL     OW21670   9.623  10.682   6.076 -0.3357  0.4047  1.0036
39103SOL    HW121671   9.647  10.767   6.039  1.3883  0.0003  1.1181
39103SOL    HW221672   9.693  10.663   6.139 -0.7372 -1.0643  1.0263
39104SOL     OW21673   8.863   0.268   5.474  0.5439  0.8081 -0.1537
39104SOL    HW121674   8.833   0.326   5.403  1.3655  1.0874 -0.2768
39104SOL    HW221675   8.782   0.241   5.517  0.1314  1.9460 -0.1690
39105SOL     OW21676   4.882   0.027   1.958 -0.2507  0.1927  0.4972
39105SOL    HW121677   4.867  -0.067   1.947  0.1745  0.1737  0.0412
39105SOL    HW221678   4.889   0.039   2.052 -0.8675 -0.1432  0.5930
39106SOL     OW21679   6.250   2.827   0.289 -0.2568  0.2040 -0.2812
39106SOL    HW121680   6.315   2.773   0.335 -2.8646 -0.2760  3.3280
39106SOL    HW221681   6.199   2.765   0.238 -1.0250 -0.2529  1.0067
39107SOL     OW21682   3.438   9.402   7.469 -0.3578 -0.1641 -0.2085
39107SOL    HW121683   3.359   9.455   7.460 -0.2134  0.0078 -0.4920
39107SOL    HW221684   3.493   9.450   7.530  0.1238  0.4453 -1.1042
39108SOL     OW21685  10.563   9.486   7.291  0.0652  0.2624  0.1457
39108SOL    HW121686  10.505   9.526   7.225 -1.8564 -1.4408  0.6692
39108SOL    HW221687  10.577   9.397   7.258  0.6538 -0.0045  1.0934
39109SOL     OW21688   1.068   9.722   3.270  0.1936 -0.6303 -0.1993
39109SOL    HW121689   1.029   9.800   3.229  2.5519 -0.4707 -2.3741
39109SOL    HW221690   1.116   9.756   3.346 -0.9259 -0.3683  0.4160
39110SOL     OW21691   7.902   0.715   6.243  0.2748  0.3009 -0.1663
39110SOL    HW121692   7.889   0.747   6.154 -1.9563  1.8974  0.6330
39110SOL    HW221693   7.961   0.778   6.284  0.4007  0.2061 -0.2029
39111SOL     OW21694   2.934   8.083   0.337  0.3190 -0.0403  0.1458
39111SOL    HW121695   2.884   8.164   0.331 -0.4332 -0.4997  0.0962
39111SOL    HW221696   2.881   8.026   0.393  0.1283 -1.0103 -0.9998
39112SOL     OW21697   6.359   6.851   6.084  0.3036  0.7078 -0.1375
39112SOL    HW121698   6.367   6.761   6.118  0.5239  0.6958 -0.2191
39112SOL    HW221699   6.348   6.840   5.990 -2.2379  0.6488  0.0862
39113SOL     OW21700   3.682   0.996   7.955  0.2042  0.2471 -0.1433
39113SOL    HW121701   3.621   1.050   8.006  0.9908  0.8896  0.1368
39113SOL    HW221702   3.631   0.966   7.880 -0.4331  0.8429  0.0462
39114SOL     OW21703  10.923   8.398   0.388 -0.1434  0.1913 -0.1441
39114SOL    HW121704  10.934   8.303   0.383  1.7345  0.3441  0.2459
39114SOL    HW221705  10.905   8.416   0.480  1.6333  0.3431  0.2169
39115SOL     OW21706   6.477  10.546   9.629 -0.0076  0.0581 -0.2667
39115SOL    HW121707   6.448  10.621   9.681  1.5076  0.8364 -0.4743
39115SOL    HW221708   6.564  10.571   9.597  0.7677 -1.9971  0.0628
39116SOL     OW21709   1.260   6.452   8.378 -0.2182  0.3268 -0.0443
39116SOL    HW121710   1.223   6.531   8.338 -0.4921  0.7924  1.0709
39116SOL    HW221711   1.188   6.418   8.433 -0.1316 -0.7531 -0.5827
39117SOL     OW21712   0.618   1.890   8.471 -0.2422 -0.4281 -0.3760
39117SOL    HW121713   0.543   1.841   8.436 -1.1107  1.0685 -0.7328
39117SOL    HW221714   0.665   1.920   8.393 -0.8038  0.8581 -0.2574
39118SOL     OW21715   1.276   5.391   5.911 -0.0698  0.1695  0.2161
39118SOL    HW121716   1.281   5.430   5.824  0.1788  0.3851  0.3274
39118SOL    HW221717   1.187   5.408   5.941  0.2583  1.3408  0.5859
39119SOL     OW21718   4.283   7.453   8.321 -0.7108  0.3511  0.2714
39119SOL    HW121719   4.231   7.534   8.322  0.6493  1.3118 -1.2994
39119SOL    HW221720   4.227   7.389   8.277 -0.8391  1.1873 -0.8287
39120SOL     OW21721   9.263   6.922   9.597 -0.1184  0.0636  0.0403
39120SOL    HW121722   9.207   6.931   9.674 -0.9921 -2.0686 -0.2916
39120SOL    HW221723   9.351   6.912   9.633 -0.6599 -2.2101  0.8936
39121SOL     OW21724   8.078   6.709   5.079 -0.1234  0.7735 -0.3323
39121SOL    HW121725   8.102   6.632   5.028 -2.4424 -0.2943  0.0210
39121SOL    HW221726   8.036   6.768   5.016 -1.1659  0.3454 -0.0525
39122SOL     OW21727   8.316   9.859   5.270  0.0868  0.5064 -0.2625
39122SOL    HW121728   8.318   9.945   5.312  1.6894 -0.5094  1.9756
39122SOL    HW221729   8.284   9.800   5.339  1.8948 -1.1124 -0.7241
39123SOL     OW21730   2.160   7.520   8.321  0.0051  0.3035 -0.2051
39123SOL    HW121731   2.204   7.439   8.344  1.1174  0.6586 -0.9646
39123SOL    HW221732   2.138   7.510   8.228  0.5037  0.9958 -0.4140
39124SOL     OW21733   1.280  10.759  10.438 -0.4503 -0.3339 -0.4068
39124SOL    HW121734   1.290  10.801  10.523 -2.1642 -0.4554 -0.1104
39124SOL    HW221735   1.310  10.669  10.451  2.5505  0.4816 -0.8613
39125SOL     OW21736   8.234   6.352   7.042 -0.4422 -0.3567 -0.8036
39125SOL    HW121737   8.229   6.294   6.966  1.9462 -0.9583 -0.5803
39125SOL    HW221738   8.308   6.410   7.023 -1.3425  1.1355  0.0121
39126SOL     OW21739   0.260   7.948   2.568 -0.4294  0.3777  0.2024
39126SOL    HW121740   0.185   7.895   2.542 -1.2305  0.5308  2.0127
39126SOL    HW221741   0.277   7.922   2.659  2.6570 -0.7025 -0.5650
39127SOL     OW21742   8.756  10.296  10.869  0.1935  0.1027 -0.1739
39127SOL    HW121743   8.830  10.295  10.930 -1.6899  1.6719  2.3426
39127SOL    HW221744   8.737  10.204  10.853  0.5811 -0.3979  1.9150
39128SOL     OW21745   9.663   2.411   6.645  0.4417 -0.0661  0.3156
39128SOL    HW121746   9.679   2.325   6.683  1.7371  0.2963  0.6858
39128SOL    HW221747   9.747   2.457   6.657 -0.6472  1.7413  1.4941
39129SOL     OW21748   5.811   2.869   8.704  0.0644 -0.4428  0.1088
39129SOL    HW121749   5.827   2.848   8.796 -0.0914 -1.0430  0.0007
39129SOL    HW221750   5.821   2.965   8.699  0.5670 -0.4612  0.6489
39130SOL     OW21751   3.669   1.538  10.895  0.0010 -0.1209 -0.0994
39130SOL    HW121752   3.649   1.458  10.847 -1.7613  0.5172 -0.4806
39130SOL    HW221753   3.764   1.545  10.890  0.0848 -1.5166 -1.1418
39131SOL     OW21754   9.050   0.247   5.163  0.0676 -0.5390 -0.2261
39131SOL    HW121755   8.959   0.230   5.140  0.1365  0.1382 -1.0394
39131SOL    HW221756   9.047   0.267   5.257 -0.3869 -2.0881  0.1129
39132SOL     OW21757   2.571   2.149   4.740  0.3708  0.1803 -0.0797
39132SOL    HW121758   2.516   2.140   4.818  1.0675 -1.8740  0.2306
39132SOL    HW221759   2.519   2.109   4.670  0.8484 -0.4361 -0.0887
39133SOL     OW21760   7.674   6.169   2.432  0.7630 -0.3445  0.1761
39133SOL    HW121761   7.676   6.136   2.522 -1.0028 -0.0252  0.3714
39133SOL    HW221762   7.728   6.248   2.434  1.6199 -0.9218  0.6767
39134SOL     OW21763   1.839   9.345   9.695 -0.2618 -0.3983 -0.1165
39134SOL    HW121764   1.808   9.422   9.744  2.0485  0.8584 -0.4554
39134SOL    HW221765   1.903   9.304   9.753  2.3144  0.9519 -1.7705
39135SOL     OW21766   2.185   9.794   5.485 -0.4098  0.5655  0.2375
39135SOL    HW121767   2.243   9.855   5.530  1.5965 -0.1855 -1.1763
39135SOL    HW221768   2.101   9.839   5.480  0.3818  2.2268  1.2784
39136SOL     OW21769  11.100   1.529   0.541  0.1529 -0.2352 -0.4977
39136SOL    HW121770  11.018   1.491   0.510 -1.9490  1.7830  2.0962
39136SOL    HW221771  11.094   1.622   0.519  3.4855 -0.5062 -3.4056
39137SOL     OW21772  10.445   7.378   8.645  0.3159 -0.1780  0.2177
39137SOL    HW121773  10.478   7.467   8.642 -1.4406  0.6847  2.8129
39137SOL    HW221774  10.518   7.326   8.680  1.0679  0.3773 -0.5035
39138SOL     OW21775   3.990   8.944   5.248  0.2604  0.7446  0.2811
39138SOL    HW121776   3.902   8.980   5.257  0.0505 -0.1061  2.0527
39138SOL    HW221777   3.994   8.873   5.312  2.7975  1.8515  1.4990
39139SOL     OW21778   0.460   9.140   2.881 -0.0824  0.0520  0.5771
39139SOL    HW121779   0.555   9.138   2.881 -0.0552  0.6848 -0.3391
39139SOL    HW221780   0.435   9.083   2.808 -0.4487 -1.0015  1.5000
39140SOL     OW21781   1.522   4.278   6.439  0.2930  0.3683  0.3018
39140SOL    HW121782   1.497   4.294   6.530  1.5067 -1.3032  0.9731
39140SOL    HW221783   1.585   4.348   6.419 -0.4272  1.0948  0.5209
39141SOL     OW21784  10.687   5.045   3.676 -0.0254 -0.4164 -0.2703
39141SOL    HW121785  10.777   5.012   3.682  0.5735  1.3428  1.7408
39141SOL    HW221786  10.682   5.085   3.590  1.4351  0.2260 -0.0835
39142SOL     OW21787   5.902   6.863  10.310 -0.0217 -0.3207 -0.1847
39142SOL    HW121788   5.990   6.827  10.306  1.6687  3.3538 -0.6264
39142SOL    HW221789   5.857   6.827  10.234  0.4602 -3.4510  0.8615
39143SOL     OW21790   3.408   5.428   8.454 -0.2247  0.3349 -0.0273
39143SOL    HW121791   3.345   5.417   8.525  0.3833  1.1177  0.6517
39143SOL    HW221792   3.390   5.515   8.419  0.4817  0.5798  0.1919
39144SOL     OW21793   2.155   5.443   9.464 -0.2866 -0.2820  0.1326
39144SOL    HW121794   2.156   5.355   9.502 -1.2734 -0.8687 -1.1191
39144SOL    HW221795   2.080   5.485   9.504 -0.4036 -0.3642  0.0026
39145SOL     OW21796  10.176   4.321   5.169 -0.0586  0.2282  0.5033
39145SOL    HW121797  10.131   4.299   5.251 -1.9647 -1.4256 -0.8877
39145SOL    HW221798  10.265   4.343   5.196 -1.2097  2.1192  3.2601
39146SOL     OW21799   5.170   2.936   5.832 -0.5352  0.9834 -0.3600
39146SOL    HW121800   5.202   2.850   5.858  1.2546  1.6574 -0.1765
39146SOL    HW221801   5.233   2.966   5.765 -1.3974  1.9433 -0.7705
39147SOL     OW21802   6.956   7.025   8.886  0.2259  0.1304  0.1184
39147SOL    HW121803   6.937   7.119   8.888 -0.1616  0.0468  0.8901
39147SOL    HW221804   6.900   6.991   8.816  1.6802  0.7253 -1.3980
39148SOL     OW21805   6.826   2.367   1.611  0.1074  0.0190  0.0139
39148SOL    HW121806   6.756   2.334   1.554  0.7180  0.2235 -0.8720
39148SOL    HW221807   6.782   2.388   1.693 -0.9908  0.7415 -0.7299
39149SOL     OW21808   0.146   4.597   2.782 -0.1082  0.0914 -0.2810
39149SOL    HW121809   0.142   4.568   2.691  1.3786  2.2314 -1.0873
39149SOL    HW221810   0.227   4.648   2.788 -0.1525 -0.0057  2.2608
39150SOL     OW21811   6.526   3.400   0.311 -0.1519  0.0934 -0.2687
39150SOL    HW121812   6.547   3.440   0.226  2.1353 -2.1642 -0.9183
39150SOL    HW221813   6.484   3.317   0.288 -0.6808  0.0366  0.8663
39151SOL     OW21814   5.105   9.016   1.156  0.7015 -0.1674 -0.0110
39151SOL    HW121815   5.041   9.076   1.118  1.2819  0.1678 -0.5018
39151SOL    HW221816   5.146   9.066   1.226  2.1958  0.5846 -1.3435
39152SOL     OW21817   4.600   6.083   4.910  0.1089 -0.2901  0.4483
39152SOL    HW121818   4.622   6.163   4.862  1.5441 -0.5468  0.6423
39152SOL    HW221819   4.684   6.039   4.924 -0.6052 -1.6314  0.7121
39153SOL     OW21820   4.661   8.911   8.310  0.1033  0.2593 -0.0150
39153SOL    HW121821   4.693   9.001   8.321  0.5280  0.0785  0.2447
39153SOL    HW221822   4.638   8.883   8.399 -1.0257  0.4722 -0.2256
39154SOL     OW21823   6.702  10.674   3.856 -0.0856 -0.1651  0.4955
39154SOL    HW121824   6.763  10.690   3.928  0.3517 -1.0838  0.3508
39154SOL    HW221825   6.697  10.757   3.809  1.8669 -0.3357 -0.0901
39155SOL     OW21826   6.721   5.996  10.252 -0.2630  0.4384 -0.3465
39155SOL    HW121827   6.650   6.054  10.226  0.2613  0.4674 -1.8107
39155SOL    HW221828   6.788   6.009  10.185  0.4917 -0.7270  0.1533
39156SOL     OW21829   0.398   3.106   5.748 -0.1852 -0.4102 -0.1370
39156SOL    HW121830   0.388   3.146   5.662  2.3024 -0.1681 -0.3996
39156SOL    HW221831   0.486   3.131   5.776  0.0316 -2.5333  1.3778
39157SOL     OW21832   0.571   8.613  10.542  0.1959 -0.0530 -0.0532
39157SOL    HW121833   0.661   8.634  10.566  0.4189  1.1631 -1.7784
39157SOL    HW221834   0.536   8.566  10.617  3.0351 -2.8581 -0.2965
39158SOL     OW21835   4.098   8.435   2.889  0.6129  0.1910 -0.1457
39158SOL    HW121836   4.015   8.470   2.857  0.3567 -0.9646 -0.7863
39158SOL    HW221837   4.084   8.340   2.893  1.2063  0.1466  1.7745
39159SOL     OW21838   8.354   8.541   1.319  0.0161  0.1193 -0.3718
39159SOL    HW121839   8.267   8.505   1.336 -0.0448  0.7258  0.7491
39159SOL    HW221840   8.338   8.619   1.266 -0.1013  0.0518 -0.4342
39160SOL     OW21841   2.142   2.941   8.673 -0.2138 -0.0359 -0.2475
39160SOL    HW121842   2.112   2.999   8.743 -0.8135 -1.5905  0.8381
39160SOL    HW221843   2.237   2.936   8.685 -0.4273 -1.3030  1.3519
39161SOL     OW21844   1.307   4.620   7.399 -0.0771  0.0070  0.1052
39161SOL    HW121845   1.250   4.638   7.474  0.0648  0.7820  0.0328
39161SOL    HW221846   1.248   4.617   7.324 -0.1849 -0.5144  0.2033
39162SOL     OW21847  10.479   3.367   2.281  0.2320 -0.2013  0.2764
39162SOL    HW121848  10.547   3.308   2.314  0.3467 -0.9242 -1.1699
39162SOL    HW221849  10.418   3.309   2.235  0.1754  0.7574 -0.8952
39163SOL     OW21850   9.967   0.138   9.441 -0.5367  0.3718  0.0800
39163SOL    HW121851  10.001   0.228   9.444 -0.9771  0.5717 -0.6700
39163SOL    HW221852  10.025   0.089   9.499  0.1694  0.9903 -0.0804
39164SOL     OW21853   8.008  10.989   4.017 -0.1184 -0.0266 -1.0182
39164SOL    HW121854   7.921  10.982   3.979 -0.0778 -1.1437 -0.9475
39164SOL    HW221855   8.068  10.973   3.944  0.0562  1.2381 -1.1743
39165SOL     OW21856   0.256   0.665   4.537 -0.6829 -0.4890  0.3391
39165SOL    HW121857   0.270   0.708   4.621  0.1066 -0.7747  0.3530
39165SOL    HW221858   0.268   0.572   4.554 -0.3320 -0.5343 -0.1241
39166SOL     OW21859   6.646   2.399   6.156  0.2172  0.0418 -0.0010
39166SOL    HW121860   6.664   2.307   6.136  2.0583  0.2582  0.4356
39166SOL    HW221861   6.617   2.437   6.073  0.9863 -0.5867 -0.5735
39167SOL     OW21862   9.850   4.757   5.282 -0.2612 -0.4857  0.1707
39167SOL    HW121863   9.758   4.744   5.256  0.2012  0.2616 -2.0112
39167SOL    HW221864   9.849   4.839   5.332 -0.5853  0.3569 -1.1775
39168SOL     OW21865   5.841   9.927   7.671  0.2530  0.5219 -0.2252
39168SOL    HW121866   5.860   9.853   7.729 -1.2756 -0.0276 -0.3743
39168SOL    HW221867   5.853   9.891   7.583 -1.4961  0.0836 -0.3359
39169SOL     OW21868   3.590   4.667   5.590 -0.7506 -0.5232  0.1432
39169SOL    HW121869   3.640   4.700   5.515  1.3795 -1.3853  1.0964
39169SOL    HW221870   3.543   4.591   5.556  0.6014 -1.2211 -0.2500
39170SOL     OW21871   8.399   7.387   2.155  0.6858 -0.6393  0.3160
39170SOL    HW121872   8.432   7.409   2.068  2.8506 -2.0354  0.7177
39170SOL    HW221873   8.477   7.385   2.211 -0.8303  2.4906  2.9016
39171SOL     OW21874  10.029   4.435  10.444  0.3690  0.4173  0.4804
39171SOL    HW121875   9.992   4.507  10.494  1.9018  1.0176  0.7777
39171SOL    HW221876  10.004   4.356  10.493 -1.6322  0.6551 -0.0487
39172SOL     OW21877   5.844   6.163   8.130  0.3327  0.4171  0.5046
39172SOL    HW121878   5.763   6.210   8.150  0.0175  0.0066  0.2155
39172SOL    HW221879   5.827   6.073   8.157  1.0064  0.5028  1.2480
39173SOL     OW21880  10.138  10.562   4.706 -0.1990 -0.3124 -0.3791
39173SOL    HW121881  10.126  10.657   4.705 -0.0508 -0.2914 -0.0762
39173SOL    HW221882  10.222  10.549   4.749  0.1735 -0.5377 -1.1512
39174SOL     OW21883   2.979   2.032   2.372 -0.6626 -0.0850 -0.3844
39174SOL    HW121884   2.985   2.069   2.461 -1.3243  0.2534 -0.4711
39174SOL    HW221885   3.020   2.098   2.316 -0.0445 -0.3984 -0.3145
39175SOL     OW21886   8.375   1.532   5.461  0.5943  0.2759  0.2328
39175SOL    HW121887   8.445   1.594   5.442 -0.3289  1.2095 -0.2521
39175SOL    HW221888   8.331   1.520   5.376  0.4964 -0.7174  0.4117
39176SOL     OW21889   3.320   1.627   4.745 -0.8373  0.4041  0.4218
39176SOL    HW121890   3.373   1.701   4.715  0.9704 -1.2997 -0.8428
39176SOL    HW221891   3.285   1.589   4.664 -2.7610  0.5525  1.1348
39177SOL     OW21892   3.933   2.799   7.048 -0.2456  0.2974 -0.8694
39177SOL    HW121893   3.978   2.853   7.113  1.3499 -0.7085 -1.0769
39177SOL    HW221894   3.990   2.803   6.971 -1.3320  0.2360 -1.6904
39178SOL     OW21895   1.434   9.418   3.438 -0.2520 -0.2932  0.0809
39178SOL    HW121896   1.375   9.477   3.485 -1.4654  0.0317 -1.7594
39178SOL    HW221897   1.411   9.331   3.470 -0.2308  0.0031  0.9328
39179SOL     OW21898  10.802   9.645   6.300 -0.0473 -0.0415  0.0890
39179SOL    HW121899  10.765   9.663   6.387 -1.0129 -0.1713 -0.2793
39179SOL    HW221900  10.743   9.690   6.240 -0.6267 -1.7099 -0.6365
39180SOL     OW21901   2.877   1.982   4.088  0.6756  0.2162 -0.2384
39180SOL    HW121902   2.833   1.902   4.060  0.3154  0.2254  0.2970
39180SOL    HW221903   2.815   2.052   4.065 -0.6838  0.0752  2.6022
39181SOL     OW21904  10.485   8.899   5.757 -0.0889  0.0770  0.3748
39181SOL    HW121905  10.495   8.989   5.788 -0.9699 -0.0608  1.1018
39181SOL    HW221906  10.392   8.879   5.769 -0.3059 -0.3034 -1.5650
39182SOL     OW21907   8.665   9.797  10.659 -0.2406 -0.4917 -0.2079
39182SOL    HW121908   8.694   9.707  10.675  0.3554 -0.0677  1.1983
39182SOL    HW221909   8.661   9.804  10.564 -0.5765 -2.0922 -0.3342
39183SOL     OW21910   1.831  10.045   2.759 -0.2723  0.2358  0.7677
39183SOL    HW121911   1.832  10.022   2.666  1.1193  1.3635  0.4623
39183SOL    HW221912   1.895   9.987   2.799 -1.2482 -0.6126  1.1507
39184SOL     OW21913   2.554   9.845   5.331  0.2399 -0.0205  0.2232
39184SOL    HW121914   2.492   9.918   5.330  0.2942  0.0480 -1.1107
39184SOL    HW221915   2.499   9.767   5.335 -0.2215 -0.0878 -3.6467
39185SOL     OW21916   9.620  10.074   0.766 -0.1138  0.5416 -0.4410
39185SOL    HW121917   9.690  10.078   0.701 -1.9907 -0.4185 -2.6531
39185SOL    HW221918   9.623   9.985   0.800 -0.7226  0.2526 -1.1217
39186SOL     OW21919  10.419   3.742   4.442 -0.1225 -0.0973 -0.2278
39186SOL    HW121920  10.439   3.652   4.416  1.1660  0.0872  0.0721
39186SOL    HW221921  10.476   3.759   4.517 -0.8083  0.7709  0.1205
39187SOL     OW21922   3.099   6.761   2.960 -0.9142  0.8254  0.6596
39187SOL    HW121923   3.123   6.716   3.041 -0.7574 -0.6385 -0.1752
39187SOL    HW221924   3.181   6.774   2.914 -1.2694 -0.8578 -0.5126
39188SOL     OW21925   9.912   3.690   6.044 -0.2426 -0.5460  0.6243
39188SOL    HW121926  10.002   3.685   6.011 -0.6757 -2.0230 -0.4205
39188SOL    HW221927   9.903   3.613   6.100 -1.0154 -0.7042  0.2958
39189SOL     OW21928   5.678   8.624   3.117 -0.3462 -0.3289  0.7299
39189SOL    HW121929   5.609   8.686   3.139  0.4009  0.3185  1.2986
39189SOL    HW221930   5.722   8.662   3.041  0.6376  0.2827  1.5799
39190SOL     OW21931   9.846   5.761   8.575  0.4626 -0.2405  0.2562
39190SOL    HW121932   9.898   5.819   8.630  0.4555 -1.2641  1.3984
39190SOL    HW221933   9.757   5.766   8.612  0.3977 -0.7358  0.1816
39191SOL     OW21934   8.848   4.315  10.795 -0.1563  0.2566  0.4506
39191SOL    HW121935   8.801   4.264  10.861  1.1117  0.1243  1.2846
39191SOL    HW221936   8.812   4.286  10.712 -0.8632 -0.5344  1.0198
39192SOL     OW21937   6.351   9.909   2.479  0.3001 -0.2227 -0.8285
39192SOL    HW121938   6.421   9.846   2.463  1.0897  0.8129 -1.5796
39192SOL    HW221939   6.394   9.981   2.526 -0.3440  0.2474 -0.9452
39193SOL     OW21940  10.333   1.164  10.928 -0.3218 -0.1241 -0.1394
39193SOL    HW121941  10.290   1.249  10.928  1.3157  0.7397 -0.1488
39193SOL    HW221942  10.265   1.103  10.901 -1.1677  1.3580 -1.5407
39194SOL     OW21943   8.310   5.228   6.315  0.2159 -0.0041 -0.0075
39194SOL    HW121944   8.379   5.180   6.270 -0.0326  0.4072 -0.8487
39194SOL    HW221945   8.356   5.278   6.383  0.5365 -0.9871  0.5103
39195SOL     OW21946   9.722   4.082  10.798 -0.3039 -0.0293  0.6653
39195SOL    HW121947   9.694   3.994  10.822  0.6084 -0.6543 -0.4659
39195SOL    HW221948   9.678   4.139  10.861 -0.7561 -1.3002  1.5472
39196SOL     OW21949   6.941   4.384  10.624 -0.6082 -0.0635 -0.5190
39196SOL    HW121950   6.911   4.456  10.568 -0.8006  1.0025  0.9164
39196SOL    HW221951   7.025   4.413  10.659  0.5231 -1.5897 -1.7968
39197SOL     OW21952   9.736   3.146   0.710 -0.1316 -0.0060 -0.0790
39197SOL    HW121953   9.668   3.111   0.768 -0.2071  0.0259 -0.1483
39197SOL    HW221954   9.691   3.161   0.627 -0.4557  1.5664  0.3410
39198SOL     OW21955   6.748   0.645   8.877  0.0669  0.2453  0.2018
39198SOL    HW121956   6.724   0.567   8.927  0.6497  0.3503  0.6645
39198SOL    HW221957   6.666   0.676   8.840 -0.1469 -0.6490 -0.0801
39199SOL     OW21958   9.072  10.312   5.490  0.4439  0.6806  0.1329
39199SOL    HW121959   9.161  10.284   5.465 -0.1406  0.4306 -1.9107
39199SOL    HW221960   9.073  10.407   5.481  0.1049  0.5646 -1.5757
39200SOL     OW21961   5.486   7.143   7.998 -0.0475  0.4642 -0.2075
39200SOL    HW121962   5.522   7.224   7.960 -0.0645  1.6090  2.0599
39200SOL    HW221963   5.560   7.100   8.038 -0.5103  0.8688  1.1235
39201SOL     OW21964   7.732   7.743   3.897  0.6844  0.2564 -0.3748
39201SOL    HW121965   7.781   7.698   3.828  0.1529 -0.3335 -0.3817
39201SOL    HW221966   7.788   7.816   3.923  1.3555 -0.1328 -0.7005
39202SOL     OW21967   1.098  10.023   5.726 -0.3637 -0.3446  0.1985
39202SOL    HW121968   1.139  10.094   5.677 -2.6620  0.6461 -0.4204
39202SOL    HW221969   1.067   9.962   5.659  1.1196 -1.7037  0.7043
39203SOL     OW21970  11.116   3.480   9.302  0.0622 -0.4008  0.3044
39203SOL    HW121971  11.190   3.436   9.343  0.0506 -1.4709 -0.7947
39203SOL    HW221972  11.155   3.541   9.240  0.0643  0.9189  1.5330
39204SOL     OW21973   1.718   8.504   3.906  0.0262 -0.3130  0.2324
39204SOL    HW121974   1.792   8.517   3.847 -0.5568 -0.2770 -0.5115
39204SOL    HW221975   1.753   8.520   3.994  1.0087 -0.7843 -0.0676
39205SOL     OW21976   0.894   4.029   5.395  0.1180  0.8553 -0.0538
39205SOL    HW121977   0.909   3.935   5.389 -4.2159  0.0050 -0.7137
39205SOL    HW221978   0.869   4.043   5.487 -0.5078  1.1011 -0.2575
39206SOL     OW21979  11.068   8.895   1.954 -0.3263 -0.1592  0.1334
39206SOL    HW121980  11.160   8.901   1.926 -0.7802  0.7644 -1.3144
39206SOL    HW221981  11.065   8.941   2.038  0.6199 -0.6472  0.4470
39207SOL     OW21982   0.424   1.021   9.950 -0.0289 -1.0866  0.2094
39207SOL    HW121983   0.395   1.030   9.859  0.5522  0.0062  0.1209
39207SOL    HW221984   0.519   1.014   9.944  0.0599 -0.4053  0.7759
39208SOL     OW21985   0.467   7.882  10.630  0.0295 -0.7581 -0.4989
39208SOL    HW121986   0.475   7.801  10.680  1.2572 -0.2492  0.1672
39208SOL    HW221987   0.517   7.947  10.680  0.7233 -0.0654 -2.0140
39209SOL     OW21988   8.165   9.388   2.989  0.5626 -0.8997  0.3483
39209SOL    HW121989   8.071   9.371   2.992  0.3759 -0.0196 -0.2964
39209SOL    HW221990   8.185   9.428   3.073 -0.3883  2.4568 -0.8601
39210SOL     OW21991   7.874   2.662   3.714  0.1057 -0.1550  0.1556
39210SOL    HW121992   7.921   2.579   3.730  0.2790 -0.7536 -2.8292
39210SOL    HW221993   7.791   2.635   3.675 -0.7147  1.0678  0.9944
39211SOL     OW21994   9.581   8.648   6.486 -0.1480  0.4748  0.4391
39211SOL    HW121995   9.571   8.674   6.394 -1.6493  1.0306  0.7442
39211SOL    HW221996   9.560   8.727   6.536  2.0441  0.6076  1.2736
39212SOL     OW21997  10.868   6.966   9.524 -0.4947 -0.5485 -0.0910
39212SOL    HW121998  10.936   6.907   9.490 -1.7349 -1.5541 -0.9447
39212SOL    HW221999  10.816   6.989   9.447 -1.0413  0.3106  0.5221
39213SOL     OW22000   2.900   5.374   0.145 -0.0189  0.2509 -0.3176
39213SOL    HW122001   2.944   5.343   0.066  1.6452  0.4593  0.4910
39213SOL    HW222002   2.930   5.314   0.214 -0.1116  1.0780  0.4643
39214SOL     OW22003   8.428   5.763  10.330 -0.4536 -0.5965  0.1197
39214SOL    HW122004   8.522   5.751  10.342 -0.1918 -1.4491 -2.2932
39214SOL    HW222005   8.388   5.697  10.387  0.5178 -1.9176 -0.6714
39215SOL     OW22006   0.204   4.987   0.624  0.1183  0.2240  0.3422
39215SOL    HW122007   0.196   4.892   0.614 -0.9648  0.2432  0.8873
39215SOL    HW222008   0.153   5.008   0.702 -0.6530  1.3798 -0.4179
39216SOL     OW22009   9.230   3.214   8.088 -0.2800  0.2462  0.4394
39216SOL    HW122010   9.224   3.238   7.995 -0.2029 -2.1168 -0.2388
39216SOL    HW222011   9.291   3.277   8.125  0.9964  0.2384 -1.5110
39217SOL     OW22012   9.502   7.604   0.684 -0.0429 -0.1873 -0.3271
39217SOL    HW122013   9.475   7.513   0.698  0.7159 -0.2817  0.6610
39217SOL    HW222014   9.497   7.643   0.772 -1.2762  0.9885 -0.8941
39218SOL     OW22015   5.003   1.621   4.491 -0.2659  0.1389 -0.0420
39218SOL    HW122016   4.928   1.657   4.444  1.0303  1.5101 -1.1730
39218SOL    HW222017   5.023   1.686   4.559  0.0161 -0.0993  0.1069
39219SOL     OW22018   6.308   5.374   0.387 -0.2274 -0.6667  0.2974
39219SOL    HW122019   6.234   5.316   0.370  1.2903 -2.2004 -1.4629
39219SOL    HW222020   6.319   5.423   0.305  0.3205 -0.0053  0.7539
39220SOL     OW22021   5.233   4.013  11.056  0.5277 -0.1710  0.5414
39220SOL    HW122022   5.243   3.980  10.967  0.4469  0.9057  0.1203
39220SOL    HW222023   5.317   3.997  11.098  0.5072 -0.8469  0.3354
39221SOL     OW22024   6.162   3.429   1.532  0.0616  0.1023  0.2214
39221SOL    HW122025   6.221   3.354   1.544 -0.5300 -0.1456  1.7160
39221SOL    HW222026   6.214   3.504   1.560  0.1206  0.0561  0.2392
39222SOL     OW22027   1.120   2.794   6.190 -0.1992 -0.4704  0.5631
39222SOL    HW122028   1.130   2.860   6.258 -0.3581  1.0734 -0.8642
39222SOL    HW222029   1.028   2.767   6.196  0.1587 -1.4952  1.9328
39223SOL     OW22030   6.875   3.317  11.115  0.5317  0.5050  0.0620
39223SOL    HW122031   6.959   3.345  11.149  0.3877 -0.1183  0.9722
39223SOL    HW222032   6.817   3.393  11.125  0.9541  0.9067 -0.4918
39224SOL     OW22033   2.530   3.367   4.330 -0.4621  1.0829 -0.2885
39224SOL    HW122034   2.602   3.426   4.353 -0.5077  0.8225  0.5477
39224SOL    HW222035   2.557   3.329   4.246  1.1971 -0.2475  0.7656
39225SOL     OW22036   9.967   4.098   7.196 -0.3428 -0.6338 -0.3215
39225SOL    HW122037   9.981   4.185   7.157  1.2018 -0.9183 -0.4745
39225SOL    HW222038   9.895   4.111   7.258  0.6626  1.0939  0.5947
39226SOL     OW22039   7.382   5.901   1.933  0.2365  0.7048 -0.9468
39226SOL    HW122040   7.368   5.832   1.998  1.0925  1.0969 -0.3182
39226SOL    HW222041   7.314   5.966   1.952 -0.8087 -0.1113 -1.7803
39227SOL     OW22042   8.354   9.455   8.875  0.0211  0.3939 -0.3471
39227SOL    HW122043   8.349   9.361   8.893 -0.4493  0.4239 -0.3269
39227SOL    HW222044   8.301   9.468   8.796  0.3794  0.5887 -0.5626
39228SOL     OW22045   1.056   9.035   8.851  0.5129  0.5378 -0.5223
39228SOL    HW122046   1.075   8.967   8.786 -1.5637  0.7433 -1.4366
39228SOL    HW222047   0.971   9.071   8.823 -0.4519  0.6663  2.2754
39229SOL     OW22048   3.682   8.450   7.876  0.3895  0.1670  0.3479
39229SOL    HW122049   3.692   8.460   7.971  0.2203  0.4517  0.3372
39229SOL    HW222050   3.593   8.418   7.864  0.6388 -0.5317  0.3258
39230SOL     OW22051   6.897   2.305   2.816  0.4834  0.2232  0.2291
39230SOL    HW122052   6.938   2.265   2.739 -0.5874 -0.5110  0.0180
39230SOL    HW222053   6.826   2.359   2.781 -0.0155 -0.1191  0.6919
39231SOL     OW22054   1.534   0.977   5.395  0.3115  0.3878  0.0239
39231SOL    HW122055   1.556   0.947   5.307 -1.3633 -0.1696 -0.2415
39231SOL    HW222056   1.617   0.970   5.444  1.2393  0.6091 -1.4519
39232SOL     OW22057   7.405   1.617   4.602 -0.5752  0.1916  0.0495
39232SOL    HW122058   7.487   1.579   4.570 -0.7903  0.7664 -1.2561
39232SOL    HW222059   7.338   1.585   4.541 -1.3932 -0.4900  1.2492
39233SOL     OW22060   6.179   6.764   2.396 -0.7365 -0.3562  0.2808
39233SOL    HW122061   6.245   6.830   2.371  0.1997 -1.3419  0.0773
39233SOL    HW222062   6.099   6.793   2.353 -0.3444  0.6555  0.1952
39234SOL     OW22063  10.231   4.731   4.136 -0.0182 -0.4856  0.5980
39234SOL    HW122064  10.159   4.762   4.191  1.0036  0.0281  1.6903
39234SOL    HW222065  10.198   4.651   4.096 -1.7182  0.5000 -0.0828
39235SOL     OW22066   7.300  10.857   4.163 -0.2054 -0.0223  0.2665
39235SOL    HW122067   7.257  10.942   4.177  0.9177  0.4205  1.1895
39235SOL    HW222068   7.227  10.795   4.154 -1.0491  0.8711  0.6653
39236SOL     OW22069   3.022   1.880   7.010  0.1683  0.4615 -0.2691
39236SOL    HW122070   2.979   1.935   6.946  1.7116 -0.1220 -1.8844
39236SOL    HW222071   3.087   1.937   7.051  0.7001  0.2716 -0.8323
39237SOL     OW22072   9.942  10.470   6.782  0.0932  0.6454 -0.1874
39237SOL    HW122073   9.902  10.531   6.844  1.4010 -0.6322  1.9982
39237SOL    HW222074   9.921  10.508   6.696 -2.7520  1.8879  0.9107
39238SOL     OW22075  10.209   3.917   9.263 -0.4153 -0.7015  0.3302
39238SOL    HW122076  10.185   3.884   9.176 -2.2895 -0.1845  0.6112
39238SOL    HW222077  10.178   4.008   9.263 -2.1439 -1.2107  2.1376
39239SOL     OW22078   5.892   6.666   7.431  0.0872  1.0118  0.2753
39239SOL    HW122079   5.802   6.682   7.458 -0.3296  0.6643 -0.8702
39239SOL    HW222080   5.889   6.584   7.382  0.9105  1.3136 -0.3198
39240SOL     OW22081  10.080   7.392   1.334  0.2278  0.1318  0.5823
39240SOL    HW122082  10.013   7.324   1.340 -0.5298  0.6406 -1.3458
39240SOL    HW222083  10.159   7.352   1.371 -1.0741 -0.5182  2.7875
39241SOL     OW22084   7.247   9.915   2.891 -0.0840  0.6393  0.3705
39241SOL    HW122085   7.315   9.972   2.855  0.3265  0.2234  0.4909
39241SOL    HW222086   7.238   9.943   2.982 -0.6023  1.1927  0.1597
39242SOL     OW22087   4.890   3.273   3.309 -0.6519 -0.1305  0.0357
39242SOL    HW122088   4.819   3.319   3.263 -0.9830 -0.6884 -0.0197
39242SOL    HW222089   4.853   3.187   3.330  1.1307 -1.8169 -3.0840
39243SOL     OW22090   7.151   4.785   2.818 -0.1028 -0.0306 -0.4063
39243SOL    HW122091   7.161   4.873   2.853 -0.1870  0.3606 -1.3327
39243SOL    HW222092   7.103   4.737   2.885 -0.2750  0.7015 -0.0050
39244SOL     OW22093   1.912  10.722   3.289  0.2423  0.6355 -0.2456
39244SOL    HW122094   1.895  10.713   3.382  0.2588 -0.6559 -0.3531
39244SOL    HW222095   1.827  10.740   3.249  0.0811  0.1714 -0.1036
39245SOL     OW22096   6.510  10.314   3.819  0.2025  0.1181 -0.2086
39245SOL    HW122097   6.506  10.244   3.884  2.3289 -0.9834 -1.1691
39245SOL    HW222098   6.461  10.281   3.744  0.5409 -0.0087 -0.3742
39246SOL     OW22099   9.331   6.033   0.029 -0.6942 -0.6308 -0.4270
39246SOL    HW122100   9.266   6.090   0.070 -1.0879 -0.9429 -0.5975
39246SOL    HW222101   9.377   6.090  -0.033 -0.8693 -0.4241 -0.3705
39247SOL     OW22102   8.561   2.315   0.843  0.3499  0.0185  0.3180
39247SOL    HW122103   8.479   2.299   0.891  0.9056 -0.0252  1.2791
39247SOL    HW222104   8.616   2.362   0.905  0.3191  1.9148 -1.0171
39248SOL     OW22105   1.911   7.809   3.534  0.0727  0.0623 -0.4345
39248SOL    HW122106   1.894   7.723   3.575 -1.8029 -0.3326 -1.9103
39248SOL    HW222107   1.990   7.795   3.482  1.1555 -0.0650  1.1645
39249SOL     OW22108   3.554   9.666   5.218  0.3610  0.2198  0.2698
39249SOL    HW122109   3.469   9.706   5.199  1.1191  0.8810 -2.1060
39249SOL    HW222110   3.612   9.740   5.233  0.8083 -0.1702  0.4774
39250SOL     OW22111   3.727   1.972   7.465  0.1234  0.1977  0.1633
39250SOL    HW122112   3.762   1.994   7.379 -0.7075  1.6475  0.1678
39250SOL    HW222113   3.679   2.050   7.492  2.2064  0.6953  2.9190
39251SOL     OW22114   4.468   8.189   1.790 -0.2902 -0.3195  0.2491
39251SOL    HW122115   4.411   8.260   1.760 -0.8307 -0.9778 -0.3044
39251SOL    HW222116   4.448   8.116   1.731  1.7651 -0.3082 -0.5200
39252SOL     OW22117   4.956   4.863   8.772  0.2809 -0.1507 -0.0525
39252SOL    HW122118   4.869   4.845   8.739 -0.2142  0.7005  0.7337
39252SOL    HW222119   4.961   4.958   8.777  1.4336 -0.1644 -0.5367
39253SOL     OW22120   1.899   6.996   4.040 -0.2443 -0.2281  0.2572
39253SOL    HW122121   1.956   7.023   3.968 -1.3155 -2.3735 -1.5501
39253SOL    HW222122   1.882   6.903   4.023 -2.9667 -0.0786  1.5560
39254SOL     OW22123   7.196   3.849   0.067 -0.1089  0.3082  0.4814
39254SOL    HW122124   7.126   3.845   0.132  1.8655  0.8121  2.8093
39254SOL    HW222125   7.194   3.939   0.036 -2.2812 -0.3999 -1.7446
39255SOL     OW22126   0.177  10.726   0.739 -0.2003  0.1402 -0.4117
39255SOL    HW122127   0.194  10.643   0.695 -0.6329  0.1490 -0.6023
39255SOL    HW222128   0.162  10.703   0.831 -1.0017 -0.0812 -0.5850
39256SOL     OW22129   6.680   8.447   1.825  0.2517 -0.4683  0.0186
39256SOL    HW122130   6.689   8.394   1.904  1.0409  0.2466  0.4226
39256SOL    HW222131   6.684   8.538   1.856  0.1925 -0.1779 -0.7999
39257SOL     OW22132   6.197   8.761   2.496 -0.1158 -0.7994 -0.4459
39257SOL    HW122133   6.137   8.702   2.450  0.2515 -2.3100  0.8843
39257SOL    HW222134   6.280   8.750   2.451  0.4045 -2.7604  0.8317
39258SOL     OW22135   5.207   7.783  10.977  0.2627  0.2591 -0.4003
39258SOL    HW122136   5.278   7.785  10.914  2.9014 -2.0602  2.1611
39258SOL    HW222137   5.189   7.689  10.989 -1.8554  0.7271  0.5169
39259SOL     OW22138   5.129   8.240   4.035 -0.0735  0.4643 -0.6103
39259SOL    HW122139   5.179   8.251   3.954  0.0561  1.0594 -0.4517
39259SOL    HW222140   5.191   8.259   4.105 -0.4139  0.8040 -0.3981
39260SOL     OW22141   0.437   4.528   1.450  0.2684  0.6699 -0.0430
39260SOL    HW122142   0.509   4.484   1.404 -0.2143  0.3515 -0.5072
39260SOL    HW222143   0.433   4.484   1.534  0.5629  0.6328 -0.0454
39261SOL     OW22144   1.436   1.646  10.589 -0.0170  0.1426 -0.1829
39261SOL    HW122145   1.517   1.693  10.605 -1.5065  2.4122  1.2990
39261SOL    HW222146   1.371   1.715  10.574 -1.8317 -1.5667 -0.5808
39262SOL     OW22147   6.221  10.315   7.624  0.0903 -0.1707  0.2646
39262SOL    HW122148   6.287  10.301   7.692 -0.6674  1.2156  1.3409
39262SOL    HW222149   6.214  10.411   7.617 -1.2946 -0.2930 -0.3379
39263SOL     OW22150   5.360   5.610   1.672  0.0029  0.1888  0.4098
39263SOL    HW122151   5.336   5.631   1.762 -1.5740 -0.0499  0.0825
39263SOL    HW222152   5.303   5.537   1.649  0.2158  0.4041 -0.8641
39264SOL     OW22153   7.601  10.779   7.656  0.6043 -0.3182  0.7354
39264SOL    HW122154   7.669  10.798   7.720  0.1878  0.7141  0.8884
39264SOL    HW222155   7.531  10.737   7.706 -0.2848  1.6787  1.2537
39265SOL     OW22156   7.267   0.506  10.787 -0.1426  0.2047  0.3938
39265SOL    HW122157   7.237   0.597  10.776  0.7349  0.2997 -1.6135
39265SOL    HW222158   7.355   0.505  10.749  0.4788 -1.1744  1.7517
39266SOL     OW22159   3.169   7.561   7.690  0.5022  0.6301  0.4238
39266SOL    HW122160   3.179   7.564   7.785  0.2800 -0.8638  0.5200
39266SOL    HW222161   3.253   7.592   7.656  1.3993 -0.8705  1.1440
39267SOL     OW22162   8.751   1.880   2.036  0.3012 -0.0377  0.1474
39267SOL    HW122163   8.753   1.874   2.131  1.4819 -0.8764  0.0968
39267SOL    HW222164   8.811   1.811   2.006 -1.2168 -0.8363 -1.2649
39268SOL     OW22165   6.806   8.631   5.364 -0.2168  0.1595 -0.0653
39268SOL    HW122166   6.737   8.587   5.314  0.3446  0.1507 -0.8312
39268SOL    HW222167   6.885   8.620   5.312 -0.0422  2.0438 -0.2712
39269SOL     OW22168   6.440   4.802   9.874  0.3944  0.5711  0.1576
39269SOL    HW122169   6.410   4.724   9.829 -0.7993  1.5703 -0.8756
39269SOL    HW222170   6.490   4.851   9.808 -1.5491  2.1461 -0.2635
39270SOL     OW22171   1.392   9.315   4.318 -0.3570 -0.1820 -0.1876
39270SOL    HW122172   1.406   9.376   4.391  0.4911  1.1096 -1.3932
39270SOL    HW222173   1.451   9.346   4.249  0.0763 -2.3636 -0.8579
39271SOL     OW22174   8.484   8.769  10.843  0.1818  0.1433  0.3133
39271SOL    HW122175   8.415   8.709  10.817  1.1817 -0.5141 -0.9921
39271SOL    HW222176   8.440   8.839  10.891 -1.3281 -0.4029 -0.2423
39272SOL     OW22177   6.945   8.211   7.649  0.0627  0.2992 -0.1477
39272SOL    HW122178   6.959   8.188   7.557 -1.8019  0.1238 -0.4134
39272SOL    HW222179   6.987   8.140   7.698 -0.5183 -0.5728 -0.8930
39273SOL     OW22180   9.471   3.369   9.074 -0.1794 -0.4878  0.0733
39273SOL    HW122181   9.464   3.453   9.119 -0.4550 -0.3013 -0.3047
39273SOL    HW222182   9.558   3.336   9.096  0.5031  0.5675 -0.9140
39274SOL     OW22183   4.886   2.540   0.995 -0.4482 -0.5027  0.3421
39274SOL    HW122184   4.936   2.530   0.913 -1.0941 -1.9322  0.0884
39274SOL    HW222185   4.798   2.509   0.973 -0.8688 -0.0638  1.3579
39275SOL     OW22186   5.533   9.743   0.057  0.3461 -0.5396  0.0710
39275SOL    HW122187   5.581   9.818   0.091  0.2935 -1.1079  1.4339
39275SOL    HW222188   5.441   9.765   0.071  0.3569 -1.4547  1.8780
39276SOL     OW22189   5.239   5.385   3.731 -0.0822 -0.3664 -0.0171
39276SOL    HW122190   5.236   5.291   3.712 -1.5461 -0.4446  0.5107
39276SOL    HW222191   5.314   5.394   3.790  1.7220 -0.7699 -2.0839
39277SOL     OW22192  11.065   5.624   1.754  0.0469  0.4526  0.5661
39277SOL    HW122193  11.039   5.708   1.716 -1.0632  0.8834  2.1313
39277SOL    HW222194  10.983   5.580   1.774  0.5035  0.4892  2.8434
39278SOL     OW22195   3.504   2.418   3.739  0.1089 -0.3829  0.4373
39278SOL    HW122196   3.440   2.467   3.791 -0.4618 -2.1860  1.5559
39278SOL    HW222197   3.541   2.354   3.800 -0.2549 -2.3025 -1.2235
39279SOL     OW22198   8.081   0.759   7.191 -0.4222 -0.2762  0.2902
39279SOL    HW122199   8.069   0.785   7.100 -0.9641 -0.4141  0.3225
39279SOL    HW222200   7.993   0.755   7.227 -0.1761  0.4440  1.0061
39280SOL     OW22201   0.319   4.315  11.004  0.0419  0.7076  0.1269
39280SOL    HW122202   0.405   4.340  11.038  0.0110  1.9404 -0.6476
39280SOL    HW222203   0.338   4.260  10.929  0.1861  1.5299 -0.4533
39281SOL     OW22204   7.885   1.968   4.582  0.1793 -0.1385  0.0216
39281SOL    HW122205   7.876   1.881   4.543 -0.1347  0.1953 -0.6747
39281SOL    HW222206   7.847   2.027   4.517  0.1862  0.4979  0.5848
39282SOL     OW22207   3.078   8.192   8.474  0.1973  0.5480 -0.4847
39282SOL    HW122208   3.007   8.217   8.416 -1.0425  0.1781  0.8118
39282SOL    HW222209   3.149   8.165   8.416 -1.1294 -0.1981 -1.8261
39283SOL     OW22210   8.388   7.336   8.500  0.1888 -0.1076 -0.1468
39283SOL    HW122211   8.439   7.390   8.559  0.5468  1.0771 -1.4741
39283SOL    HW222212   8.308   7.316   8.549  0.9187 -0.0522  1.1003
39284SOL     OW22213   3.166   7.925   0.377  0.1547 -0.3324 -0.3627
39284SOL    HW122214   3.091   7.981   0.358 -0.8947 -1.4621  0.3216
39284SOL    HW222215   3.217   7.975   0.441 -1.2651 -0.5031  0.9691
39285SOL     OW22216   1.520   7.034   9.808  0.0896 -0.2696 -0.3776
39285SOL    HW122217   1.452   6.972   9.834  0.2434 -1.0091 -1.6725
39285SOL    HW222218   1.481   7.120   9.821 -0.1973 -0.6032  1.2673
39286SOL     OW22219   2.795   7.315   6.521  0.3288 -0.6685 -0.7390
39286SOL    HW122220   2.853   7.276   6.586 -1.9173 -0.4726  1.5269
39286SOL    HW222221   2.707   7.290   6.550 -0.8290  0.4454 -3.0664
39287SOL     OW22222   5.902   2.533   1.008  0.1997  0.2472  0.0732
39287SOL    HW122223   5.839   2.500   1.072 -0.0351 -0.3315 -0.4484
39287SOL    HW222224   5.944   2.607   1.052 -2.1065  1.8507 -0.2310
39288SOL     OW22225   0.946   6.782  10.633 -0.2651  0.2251  0.1046
39288SOL    HW122226   0.930   6.866  10.590 -1.1242 -0.1272 -0.2746
39288SOL    HW222227   0.950   6.804  10.726  2.1687  1.0841 -0.1264
39289SOL     OW22228   3.339  10.698   6.872 -0.0330  0.4137 -0.7029
39289SOL    HW122229   3.371  10.616   6.909 -1.0776 -0.0913 -0.8896
39289SOL    HW222230   3.293  10.741   6.944  1.0150  1.1383 -0.4357
39290SOL     OW22231   0.300   1.178   3.325  0.2190 -0.3453 -0.3019
39290SOL    HW122232   0.364   1.227   3.376 -0.4127 -0.6148  0.7794
39290SOL    HW222233   0.352   1.113   3.277  0.6227 -2.2100  2.4361
39291SOL     OW22234   4.611   2.094   7.813 -0.3257 -0.1532 -0.3235
39291SOL    HW122235   4.573   2.133   7.891 -1.6084 -0.1504 -0.9217
39291SOL    HW222236   4.609   2.164   7.747  1.4696  0.0843 -0.1582
39292SOL     OW22237   9.969   9.760   9.021 -0.7840 -0.3954 -0.0375
39292SOL    HW122238   9.936   9.833   9.074  0.1381 -0.2935  0.4015
39292SOL    HW222239   9.892   9.704   9.007 -1.3827  0.3720  0.0767
39293SOL     OW22240   1.336   9.070  10.505  0.1489 -0.2379 -0.0306
39293SOL    HW122241   1.337   9.092  10.598 -0.4875 -0.2676 -0.0082
39293SOL    HW222242   1.280   8.992  10.500  0.3037 -0.3257 -0.4211
39294SOL     OW22243   7.563   0.632   9.174 -0.1521 -0.2329  0.0028
39294SOL    HW122244   7.515   0.551   9.196 -0.9695  0.1729 -0.2306
39294SOL    HW222245   7.645   0.625   9.222 -0.9362 -0.4115  1.3816
39295SOL     OW22246   6.753   5.001   6.759  0.3140  0.0324 -0.1453
39295SOL    HW122247   6.795   4.967   6.838  0.8880  0.4977 -0.2397
39295SOL    HW222248   6.677   4.945   6.746  0.4494 -0.3118  0.5016
39296SOL     OW22249   3.202   4.629  10.735 -0.4179  0.1540  0.1528
39296SOL    HW122250   3.159   4.548  10.706  1.1285  0.2011 -2.6326
39296SOL    HW222251   3.130   4.683  10.769 -2.1135 -0.9429 -1.4395
39297SOL     OW22252   1.771   4.115   4.007  0.6558 -0.4451  0.2671
39297SOL    HW122253   1.721   4.042   4.043 -0.4576  1.1119  2.0627
39297SOL    HW222254   1.729   4.193   4.042  1.6970  1.1151 -1.6998
39298SOL     OW22255  10.178   8.862   1.526  0.3823 -0.3759  0.5192
39298SOL    HW122256  10.264   8.903   1.519  0.4054 -0.1000  2.0762
39298SOL    HW222257  10.190   8.775   1.488  1.0900 -0.0082 -0.1368
39299SOL     OW22258  10.917   7.559   2.533 -0.2020 -0.0121 -0.1345
39299SOL    HW122259  10.960   7.547   2.617 -0.4183 -2.0024 -0.2574
39299SOL    HW222260  10.977   7.519   2.470 -0.8631 -0.1506 -0.6906
39300SOL     OW22261   5.104   0.561   3.814  0.6226 -0.2009  0.1505
39300SOL    HW122262   5.041   0.567   3.741  0.0120  0.6353  0.7210
39300SOL    HW222263   5.187   0.590   3.776  0.0722  1.3374  0.0417
39301SOL     OW22264   0.106   4.083   8.551  0.2872 -0.1166  0.1799
39301SOL    HW122265   0.141   4.159   8.505 -1.5174  1.5968  1.4778
39301SOL    HW222266   0.093   4.113   8.641  0.0417 -2.1452  0.8711
39302SOL     OW22267   2.712   1.173   4.793  0.2109 -0.0825 -0.0217
39302SOL    HW122268   2.777   1.105   4.773 -0.0867  0.2045 -2.2098
39302SOL    HW222269   2.715   1.181   4.889  0.8839 -2.5359  0.2441
39303SOL     OW22270   7.555   5.220   0.967  0.3347  0.0184 -0.6195
39303SOL    HW122271   7.499   5.250   0.896  0.8341 -1.3251 -1.6270
39303SOL    HW222272   7.494   5.179   1.029 -0.0252  0.5012 -0.6480
39304SOL     OW22273   9.618   4.237   9.158  0.6410  0.5578  0.6477
39304SOL    HW122274   9.594   4.290   9.233 -1.7061  0.9534 -0.3092
39304SOL    HW222275   9.664   4.297   9.099 -0.4973  1.1413  0.3216
39305SOL     OW22276   4.914   8.874   8.194 -0.2715 -0.0056  0.6669
39305SOL    HW122277   4.908   8.967   8.170  1.4560  0.8032  3.0105
39305SOL    HW222278   4.826   8.851   8.223 -1.0879  0.4227 -1.2668
39306SOL     OW22279   7.802   9.840  11.095 -0.0532 -0.2148  0.4365
39306SOL    HW122280   7.762   9.884  11.019 -2.6021 -2.9786 -0.0341
39306SOL    HW222281   7.829   9.912  11.152 -1.8010  1.9795 -1.2549
39307SOL     OW22282   4.861   3.658   2.631 -0.3425 -0.4115  0.1913
39307SOL    HW122283   4.816   3.607   2.699 -1.8335 -0.3143 -0.6781
39307SOL    HW222284   4.856   3.602   2.553 -1.3008  0.7082 -0.5743
39308SOL     OW22285   2.040  10.783   2.051 -0.0825 -0.0430  0.1245
39308SOL    HW122286   2.090  10.702   2.064 -0.5436 -0.3986 -0.2818
39308SOL    HW222287   2.094  10.835   1.991  1.9030  1.4701  2.9596
39309SOL     OW22288   2.116   3.099   1.505  0.1184  0.4215 -0.2558
39309SOL    HW122289   2.070   3.159   1.446 -0.0466  0.0036 -0.5565
39309SOL    HW222290   2.066   3.102   1.586  0.4033  1.0773 -0.0975
39310SOL     OW22291   6.855   4.602   4.639  0.2456  0.1916 -0.7328
39310SOL    HW122292   6.870   4.586   4.545 -1.3279  0.5852 -1.0733
39310SOL    HW222293   6.935   4.646   4.669  0.6184  0.3977 -1.9772
39311SOL     OW22294   1.666  10.212   7.962  0.1910  0.4589 -0.9498
39311SOL    HW122295   1.741  10.221   8.020 -0.4453  0.4447 -0.1178
39311SOL    HW222296   1.623  10.130   7.989 -2.1205  2.1673  0.9555
39312SOL     OW22297  10.335   2.117   5.262  0.0850 -0.3857 -0.2132
39312SOL    HW122298  10.363   2.056   5.331 -0.3558 -0.4277 -0.0655
39312SOL    HW222299  10.240   2.104   5.257  0.0987 -0.2841 -0.7375
39313SOL     OW22300   5.459  10.807   6.398  0.0594 -0.4428 -0.4529
39313SOL    HW122301   5.510  10.739   6.442  1.5788  1.6301  1.2280
39313SOL    HW222302   5.520  10.845   6.334  0.5271  1.5299  1.0271
39314SOL     OW22303   5.069   0.781   7.136 -0.0474 -0.2881 -0.2243
39314SOL    HW122304   5.103   0.704   7.181  0.1383  0.1191  0.3380
39314SOL    HW222305   5.136   0.803   7.071  1.0821  0.8616  1.2646
39315SOL     OW22306   1.793   7.974   2.811  0.2090 -0.0474 -0.0363
39315SOL    HW122307   1.745   7.917   2.871  0.8462 -0.8072 -0.2345
39315SOL    HW222308   1.726   8.027   2.769 -0.2613  0.4808  1.3073
39316SOL     OW22309   9.208   5.946   3.780 -0.0265 -0.2476 -0.8184
39316SOL    HW122310   9.232   6.025   3.828 -2.0641  0.8975 -1.5984
39316SOL    HW222311   9.158   5.894   3.843  2.4562 -1.6801  0.1459
39317SOL     OW22312   8.538  10.748   4.542  0.5317  0.1005 -0.3391
39317SOL    HW122313   8.501  10.835   4.532  0.4319  0.0057 -0.8432
39317SOL    HW222314   8.575  10.728   4.456  0.4787 -0.3825 -0.2533
39318SOL     OW22315   4.626  10.101   5.037  0.1076 -0.7234 -0.0385
39318SOL    HW122316   4.574  10.173   5.002 -2.6694 -1.5935  1.9433
39318SOL    HW222317   4.700  10.144   5.080  0.0538  0.7081 -1.2905
39319SOL     OW22318   7.761   6.230  10.276 -0.3876 -0.2988  0.4951
39319SOL    HW122319   7.825   6.161  10.292  0.0361 -0.6375 -2.1645
39319SOL    HW222320   7.676   6.185  10.275 -0.2805 -0.4989  0.3998
39320SOL     OW22321   5.980   8.995   2.158  0.1097  0.1914  0.1597
39320SOL    HW122322   5.996   9.016   2.066  2.3793 -1.3270  0.1350
39320SOL    HW222323   5.942   9.075   2.195 -0.4906  0.9515 -1.9844
39321SOL     OW22324   6.496  11.078   0.354  0.3677 -0.5023  0.3483
39321SOL    HW122325   6.467  11.014   0.419  1.4621 -0.3842  0.9743
39321SOL    HW222326   6.581  11.109   0.387  0.2888  0.5875 -0.4190
39322SOL     OW22327   9.754   1.130  11.078  0.0712  0.1571  0.2306
39322SOL    HW122328   9.702   1.199  11.036  0.3761  0.8326  0.9397
39322SOL    HW222329   9.793   1.082  11.005  1.0790  1.6772 -0.2782
39323SOL     OW22330   1.418   4.837   2.278 -0.1755  0.3492 -0.3715
39323SOL    HW122331   1.387   4.926   2.263 -2.2064 -0.4555 -1.3623
39323SOL    HW222332   1.352   4.798   2.335  1.8827  0.1070  1.9800
39324SOL     OW22333   2.628   8.262   8.077 -0.0894 -0.1989  0.2146
39324SOL    HW122334   2.533   8.261   8.083 -0.1479 -1.3908 -0.6679
39324SOL    HW222335   2.651   8.355   8.081 -1.4903  0.3531 -2.4144
39325SOL     OW22336   8.264   2.633   7.810  0.2053  0.5325  0.4498
39325SOL    HW122337   8.170   2.643   7.819 -0.0458  0.1940 -1.4074
39325SOL    HW222338   8.298   2.723   7.806 -0.0908  0.6502  0.5661
39326SOL     OW22339   1.132   8.735   7.939  0.3927 -0.4209 -0.4293
39326SOL    HW122340   1.149   8.674   8.011 -0.9976 -2.6778 -1.9055
39326SOL    HW222341   1.198   8.715   7.874 -0.5865 -1.0023 -1.2763
39327SOL     OW22342   3.825   1.925   0.684  0.4060 -0.0569  0.1779
39327SOL    HW122343   3.790   1.867   0.616  1.1008 -0.5718  0.2513
39327SOL    HW222344   3.838   2.008   0.640  0.2663 -0.2111 -0.1605
39328SOL     OW22345   1.849   2.840   2.656  0.3384  0.7522  0.1391
39328SOL    HW122346   1.889   2.826   2.742  0.3964 -4.3386 -0.3944
39328SOL    HW222347   1.758   2.812   2.668 -0.9717  4.2436 -0.5985
39329SOL     OW22348   2.040   2.561   2.838 -0.4506 -0.1147  0.0451
39329SOL    HW122349   2.090   2.630   2.882  0.3179 -1.2303  0.9805
39329SOL    HW222350   2.056   2.576   2.745 -1.0534  1.5063  0.1651
39330SOL     OW22351   5.715   2.592   3.530 -0.4260  0.4763  0.0562
39330SOL    HW122352   5.637   2.597   3.585 -0.5895  0.4059 -0.1657
39330SOL    HW222353   5.781   2.644   3.576 -1.4994  3.2170 -1.2438
39331SOL     OW22354  11.027   1.482   3.760  0.0235  0.0068 -0.1813
39331SOL    HW122355  11.028   1.533   3.841  0.4008  1.7391 -1.2316
39331SOL    HW222356  11.105   1.511   3.713 -1.6575  1.1596 -2.4182
39332SOL     OW22357   5.544   7.862  10.400 -0.0283  0.2919 -0.5833
39332SOL    HW122358   5.522   7.775  10.431  1.9688 -0.5298 -1.3146
39332SOL    HW222359   5.621   7.849  10.343  2.1431  2.7935  1.5051
39333SOL     OW22360   6.058   1.929   8.634  0.1735 -0.1831 -0.3583
39333SOL    HW122361   6.114   1.981   8.577  0.4605 -1.9817 -1.8111
39333SOL    HW222362   6.037   1.987   8.707  3.0924  0.8895 -0.2579
39334SOL     OW22363   7.935   7.407   6.530  0.7741  0.1407 -0.0453
39334SOL    HW122364   7.971   7.452   6.453 -2.5503  0.6634 -1.4531
39334SOL    HW222365   7.955   7.315   6.515  0.1259  0.2270 -1.6425
39335SOL     OW22366   4.884   6.199   5.333 -0.1655  0.0936 -0.0376
39335SOL    HW122367   4.975   6.183   5.359  0.1754  1.3443 -0.3822
39335SOL    HW222368   4.840   6.116   5.349  1.1267 -0.6661 -0.2509
39336SOL     OW22369   7.173  10.936  10.950  0.0049  0.0558  0.0930
39336SOL    HW122370   7.250  10.918  10.896  1.3536  1.5904  1.3886
39336SOL    HW222371   7.160  11.030  10.942  1.0627  0.6130  3.3344
39337SOL     OW22372   0.074   8.793   3.966  0.0072  0.4610 -0.4286
39337SOL    HW122373   0.055   8.701   3.947 -0.9999  0.7483 -0.8514
39337SOL    HW222374  -0.005   8.840   3.940 -0.0277  1.2973  1.0544
39338SOL     OW22375   6.239   3.621  10.977  0.0241 -0.0474  0.2465
39338SOL    HW122376   6.252   3.710  10.943  1.9296 -0.4119 -0.0856
39338SOL    HW222377   6.152   3.596  10.946 -1.4139  2.3869  1.9571
39339SOL     OW22378  10.591  10.854   5.062 -0.4795 -0.0012  0.3342
39339SOL    HW122379  10.665  10.823   5.009 -0.2511  1.5012 -0.2732
39339SOL    HW222380  10.629  10.915   5.124 -0.9204 -0.8925  1.5121
39340SOL     OW22381   8.220   3.652   6.019 -0.1919 -0.2478 -0.1466
39340SOL    HW122382   8.158   3.634   6.090 -1.0873 -2.1828 -1.3263
39340SOL    HW222383   8.253   3.566   5.994  1.1542  0.5318 -1.1744
39341SOL     OW22384   7.077   4.628   6.754  0.8858 -0.0963  0.0886
39341SOL    HW122385   7.128   4.576   6.691  0.9827  1.7548 -1.4410
39341SOL    HW222386   7.141   4.686   6.795  0.4120  0.4643  0.0473
39342SOL     OW22387   0.870   5.786   5.065  0.2122 -0.4007 -0.2238
39342SOL    HW122388   0.841   5.728   4.996  1.0949 -0.8952 -0.1959
39342SOL    HW222389   0.892   5.868   5.020 -1.4800  0.0959 -0.2007
39343SOL     OW22390   5.829   6.713   7.871 -0.0174 -0.0353  0.4995
39343SOL    HW122391   5.869   6.636   7.913  0.1778 -2.1473 -3.1554
39343SOL    HW222392   5.738   6.687   7.855  0.1921  0.2117 -1.2595
39344SOL     OW22393   0.848   4.718   6.982  0.3553 -0.4540  0.0101
39344SOL    HW122394   0.850   4.721   6.886 -2.2019 -0.3577 -0.1209
39344SOL    HW222395   0.771   4.665   7.002  1.1904 -0.9654  2.0411
39345SOL     OW22396   3.242   8.404   7.246 -0.2839  0.2970  0.6546
39345SOL    HW122397   3.315   8.342   7.244 -2.3668 -2.3223  1.3054
39345SOL    HW222398   3.224   8.422   7.153 -0.8844 -1.7098  0.3361
39346SOL     OW22399   1.401   4.391   8.372 -0.4890 -0.0696 -0.1693
39346SOL    HW122400   1.429   4.374   8.282  1.0629  1.9262 -0.1236
39346SOL    HW222401   1.407   4.305   8.415 -1.3061 -1.0619 -1.9443
39347SOL     OW22402   0.606   8.550   4.605 -0.0826 -0.4461 -0.0580
39347SOL    HW122403   0.576   8.641   4.597 -0.4559 -0.6165 -0.6973
39347SOL    HW222404   0.535   8.506   4.651  0.8751 -0.0518  1.8906
39348SOL     OW22405   4.982   0.073   3.812 -0.2593 -0.0348 -0.5696
39348SOL    HW122406   4.985   0.116   3.898  0.8153  0.8364 -1.0245
39348SOL    HW222407   5.012  -0.017   3.830 -1.4931 -0.3260  0.2033
39349SOL     OW22408   5.155   6.762   2.952  0.1192 -0.0565 -0.4677
39349SOL    HW122409   5.068   6.800   2.965 -0.0194 -0.7099  0.7226
39349SOL    HW222410   5.139   6.681   2.903 -0.0097 -0.3870  0.1045
39350SOL     OW22411   7.813   9.466   2.174  0.2104 -0.2702  0.9157
39350SOL    HW122412   7.827   9.537   2.237  0.9401  1.2692 -0.8960
39350SOL    HW222413   7.808   9.510   2.089  0.1267 -2.3552 -0.2111
39351SOL     OW22414   3.792   4.924   6.139 -0.4415 -0.2559  0.2219
39351SOL    HW122415   3.833   4.848   6.179 -0.5052  0.2465  1.2647
39351SOL    HW222416   3.824   4.998   6.190  0.9288  0.6194 -1.7721
39352SOL     OW22417   3.541   4.018   2.386  0.1681  0.0718 -0.2484
39352SOL    HW122418   3.482   4.071   2.333  0.1034  0.3578  0.1091
39352SOL    HW222419   3.578   3.954   2.324  0.6177  0.8354 -0.7924
39353SOL     OW22420   9.197   5.164   1.725 -0.1179  0.2173  0.7283
39353SOL    HW122421   9.102   5.172   1.710 -0.2176 -1.0924  0.5741
39353SOL    HW222422   9.223   5.088   1.674  1.3343  1.4696 -0.5316
39354SOL     OW22423   6.534  10.000   6.037 -0.1538 -0.2998  0.2926
39354SOL    HW122424   6.469  10.058   5.999  0.0922  0.9612  1.7172
39354SOL    HW222425   6.492   9.914   6.038 -1.1892  0.1832 -0.2621
39355SOL     OW22426   8.031   8.221   2.607  0.0399  0.1189 -0.6237
39355SOL    HW122427   8.050   8.128   2.620 -0.5979  0.0249 -0.3374
39355SOL    HW222428   7.937   8.228   2.618  0.2066  0.9710  0.4181
39356SOL     OW22429   6.314   6.561  10.691  0.0623  0.1216 -0.4721
39356SOL    HW122430   6.378   6.559  10.620 -0.7756 -0.1319 -1.2506
39356SOL    HW222431   6.251   6.628  10.664  1.0800  1.8670  1.2890
39357SOL     OW22432   9.029  10.608   0.626 -0.1741 -0.4301 -0.3448
39357SOL    HW122433   8.969  10.586   0.555  1.0020  1.8054 -2.1632
39357SOL    HW222434   9.026  10.703   0.631  3.3561 -0.1615 -0.7268
39358SOL     OW22435   9.856   7.723   9.181 -0.1986 -0.0655  0.8217
39358SOL    HW122436   9.895   7.804   9.215  0.2717 -0.7165  1.9067
39358SOL    HW222437   9.869   7.659   9.252  0.0606 -1.2707 -0.2749
39359SOL     OW22438   6.955   1.547   0.023  0.1247  0.3739  0.3285
39359SOL    HW122439   6.927   1.567  -0.066 -1.5494 -0.2658  0.6795
39359SOL    HW222440   7.000   1.463   0.015  0.2016  0.4386  0.0547
39360SOL     OW22441   4.969   7.638   3.263  0.2364 -0.1068  0.3383
39360SOL    HW122442   4.920   7.671   3.339 -1.1313  0.6187 -0.7978
39360SOL    HW222443   4.902   7.625   3.196  1.7650  3.2904 -2.1477
39361SOL     OW22444   6.084   2.691   5.919 -0.3115 -0.0142 -0.1862
39361SOL    HW122445   6.153   2.754   5.942  0.3530 -0.7747 -0.0657
39361SOL    HW222446   6.026   2.691   5.995  0.4028 -0.5061  0.3724
39362SOL     OW22447  10.612   0.523   7.736  0.5183 -0.0927 -0.7883
39362SOL    HW122448  10.589   0.537   7.828 -1.9325  0.4846 -1.4205
39362SOL    HW222449  10.590   0.431   7.719 -0.0224  0.0831 -1.0509
39363SOL     OW22450   5.784   4.486   9.653  0.1246 -0.6284 -0.5730
39363SOL    HW122451   5.802   4.564   9.601 -0.1399 -1.0846 -1.3732
39363SOL    HW222452   5.836   4.497   9.732  1.8056 -0.6503 -1.6290
39364SOL     OW22453  10.361   1.708   1.574  0.6101  0.6690  0.1471
39364SOL    HW122454  10.321   1.689   1.489  0.3240 -2.2205  0.8085
39364SOL    HW222455  10.289   1.743   1.627  0.1584  0.1287 -0.0960
39365SOL     OW22456   9.358   1.987  10.231 -0.5699 -0.0529  0.5641
39365SOL    HW122457   9.273   2.024  10.205 -1.0575 -1.6144 -0.1754
39365SOL    HW222458   9.354   1.896  10.202  0.0148 -1.1476  3.5521
39366SOL     OW22459   9.838   5.680   7.619 -0.4660  0.3207  0.5075
39366SOL    HW122460   9.840   5.588   7.593 -1.4790 -0.3791  2.6630
39366SOL    HW222461   9.817   5.727   7.539 -2.6049 -1.5866 -0.1577
39367SOL     OW22462   6.801   7.881   9.338  0.3200 -0.0822  0.2199
39367SOL    HW122463   6.728   7.836   9.379  0.0095 -1.2345 -1.4676
39367SOL    HW222464   6.831   7.944   9.403 -2.1831  0.4616  0.9673
39368SOL     OW22465   8.145   5.966   4.587  0.5321  0.4048  0.4228
39368SOL    HW122466   8.231   5.934   4.617 -0.1963 -0.5686  1.5532
39368SOL    HW222467   8.086   5.945   4.659 -1.0026 -0.5379 -1.0560
39369SOL     OW22468   6.121   6.471   5.496 -0.2172  0.2033 -0.1278
39369SOL    HW122469   6.090   6.415   5.424 -1.2372 -1.1963  1.3321
39369SOL    HW222470   6.214   6.486   5.476 -0.9687  1.8535 -2.9475
39370SOL     OW22471   4.897   8.342   0.028 -0.2846  0.1121  0.8200
39370SOL    HW122472   4.824   8.375  -0.025  0.0427  0.1848  0.4079
39370SOL    HW222473   4.914   8.255  -0.008  0.3939  0.4391  0.3455
39371SOL     OW22474   4.160  10.802   4.330  0.0153 -0.2024  0.2729
39371SOL    HW122475   4.249  10.827   4.303 -0.2239  0.2308 -0.1304
39371SOL    HW222476   4.147  10.848   4.414 -0.5497  1.3611 -0.6317
39372SOL     OW22477   0.365   8.440   3.718  1.0904 -0.1582  0.4141
39372SOL    HW122478   0.330   8.413   3.803  0.9618  0.8777  0.7095
39372SOL    HW222479   0.428   8.372   3.694  0.5212 -0.8831  0.9441
39373SOL     OW22480   2.355   2.269   4.578 -0.1302  0.3427 -0.5355
39373SOL    HW122481   2.411   2.279   4.655  0.0527 -0.2989 -0.5781
39373SOL    HW222482   2.416   2.273   4.504 -0.3366  1.2214 -0.6661
39374SOL     OW22483   3.279   9.400  10.790 -0.2960 -0.1473 -0.4227
39374SOL    HW122484   3.323   9.357  10.863  0.0794 -1.6028 -1.4561
39374SOL    HW222485   3.349   9.415  10.725 -0.6898  0.7535 -0.6546
39375SOL     OW22486   4.813   2.853   7.178 -0.6484  0.4484  0.8257
39375SOL    HW122487   4.763   2.901   7.244 -3.0727  0.0773 -0.5871
39375SOL    HW222488   4.804   2.761   7.204  1.0735  0.4861  1.6531
39376SOL     OW22489   0.400   6.534  10.172 -0.8190 -0.2933 -0.0160
39376SOL    HW122490   0.398   6.561  10.264 -0.2507  1.5365 -0.4923
39376SOL    HW222491   0.405   6.616  10.123  0.5532 -1.2627 -1.6343
39377SOL     OW22492   8.657   9.843   8.775  0.3199  0.1009 -0.0892
39377SOL    HW122493   8.639   9.780   8.845 -0.9292 -0.5406 -0.9457
39377SOL    HW222494   8.655   9.929   8.819 -0.5278 -0.2802  0.6577
39378SOL     OW22495   2.495  10.770   5.864  0.5846 -0.0796  0.3916
39378SOL    HW122496   2.445  10.800   5.940  1.8005  0.0725  1.1451
39378SOL    HW222497   2.484  10.839   5.799  1.7495  1.0828  1.4033
39379SOL     OW22498   2.361   9.921  10.721 -0.3912  0.0893  0.1419
39379SOL    HW122499   2.278   9.901  10.680  0.3493 -0.7069 -1.0341
39379SOL    HW222500   2.415   9.957  10.651  1.2025 -2.1341  0.1165
39380SOL     OW22501   1.634   2.800   6.541  0.1732 -0.2194  0.1581
39380SOL    HW122502   1.728   2.802   6.558 -0.2628  3.4394  3.7932
39380SOL    HW222503   1.622   2.859   6.467  0.6844  1.2250  1.1713
39381SOL     OW22504   9.164   2.836   3.680 -0.7430  0.6514 -0.1542
39381SOL    HW122505   9.249   2.877   3.667 -0.9145  1.3151  0.7079
39381SOL    HW222506   9.102   2.909   3.685 -1.3655  0.1809 -0.7189
39382SOL     OW22507   6.730  10.684   2.495  0.3961 -0.6911 -0.7083
39382SOL    HW122508   6.775  10.612   2.537  1.5796  1.4945  2.0597
39382SOL    HW222509   6.798  10.729   2.445 -0.0807 -0.8157 -1.4853
39383SOL     OW22510  10.003   2.715   8.963 -0.1814  0.3393  0.1112
39383SOL    HW122511   9.933   2.675   8.911  0.4250  1.2017 -1.4327
39383SOL    HW222512   9.994   2.675   9.050 -1.7012 -0.5943 -0.4332
39384SOL     OW22513   8.810   8.809   9.724 -0.2839  1.0080 -0.3207
39384SOL    HW122514   8.714   8.802   9.723 -0.2729  0.9394 -0.8051
39384SOL    HW222515   8.830   8.833   9.815 -0.6390 -0.7842  0.2986
39385SOL     OW22516   0.774   3.286   4.119 -0.2226 -0.2900 -0.0329
39385SOL    HW122517   0.862   3.307   4.150 -1.1955 -0.3873  3.2460
39385SOL    HW222518   0.758   3.347   4.047  1.6016  1.5807  1.0304
39386SOL     OW22519   7.353   8.727   7.470  0.2353  0.0589 -0.2500
39386SOL    HW122520   7.311   8.722   7.556  2.9613  0.3151  1.1809
39386SOL    HW222521   7.364   8.821   7.455  0.6790 -0.0163 -0.4011
39387SOL     OW22522   7.995   8.738   3.371  0.1044 -0.1490 -0.0556
39387SOL    HW122523   8.012   8.659   3.319  1.5598  0.8321 -1.1630
39387SOL    HW222524   7.935   8.790   3.317  0.6350  0.3238 -0.1954
39388SOL     OW22525   3.400   2.508   4.845 -0.1716  0.6747  0.1328
39388SOL    HW122526   3.363   2.594   4.866 -0.7905 -0.0337  2.1101
39388SOL    HW222527   3.354   2.447   4.903 -0.0257 -1.0681 -1.4995
39389SOL     OW22528   2.229  10.258   2.461 -0.6879 -0.5950  0.0582
39389SOL    HW122529   2.292  10.281   2.529  0.0920 -1.3330 -0.3807
39389SOL    HW222530   2.242  10.164   2.447 -0.3023 -0.3338 -1.6179
39390SOL     OW22531   8.256  10.219   6.707 -0.8287 -0.6769 -0.0170
39390SOL    HW122532   8.267  10.153   6.639 -0.0434 -0.9073  0.3174
39390SOL    HW222533   8.275  10.172   6.789 -1.3833 -0.3133  0.3340
39391SOL     OW22534   0.470   6.024   0.578 -0.0745  0.5403 -0.6604
39391SOL    HW122535   0.410   5.958   0.613  1.9561 -0.5105  1.0885
39391SOL    HW222536   0.485   5.997   0.487 -0.4412 -0.5658 -0.4047
39392SOL     OW22537   4.923   7.313   4.773 -0.7122 -0.3119 -0.0538
39392SOL    HW122538   4.844   7.357   4.744 -0.0413  0.7097 -0.4063
39392SOL    HW222539   4.973   7.381   4.820 -0.8307 -1.3828  1.7262
39393SOL     OW22540   0.165   2.152   2.879  0.3839 -0.6351 -0.2229
39393SOL    HW122541   0.158   2.090   2.807  0.7781 -1.3892  0.3661
39393SOL    HW222542   0.249   2.132   2.920 -0.6898 -1.6208  1.6703
39394SOL     OW22543  11.005   8.605   1.334 -0.1514  0.8862  0.7063
39394SOL    HW122544  10.930   8.593   1.276 -0.3989 -1.0854  1.3658
39394SOL    HW222545  10.972   8.583   1.421  1.2128 -0.1868  0.9817
39395SOL     OW22546   7.601   9.577   0.185 -0.0435  0.1100 -0.1838
39395SOL    HW122547   7.690   9.598   0.157  0.1204  0.5009  0.6383
39395SOL    HW222548   7.548   9.652   0.157 -0.2649 -0.4485 -1.3440
39396SOL     OW22549   4.347   9.247   0.914 -0.4787 -0.5014  0.0108
39396SOL    HW122550   4.321   9.309   0.846 -1.0554 -1.4443 -0.6486
39396SOL    HW222551   4.343   9.298   0.996 -1.6849  0.1268 -0.4126
39397SOL     OW22552   9.681   4.480   1.485 -0.1659 -0.5289  0.4073
39397SOL    HW122553   9.599   4.431   1.472 -1.9285  2.3961 -0.3902
39397SOL    HW222554   9.671   4.522   1.570 -0.7553  1.9052 -0.7699
39398SOL     OW22555   8.812   7.130   6.352  0.3535 -0.4491  0.2659
39398SOL    HW122556   8.846   7.051   6.394  4.0246  0.6791 -0.2439
39398SOL    HW222557   8.854   7.131   6.267 -0.5209  1.4958 -0.1799
39399SOL     OW22558   1.843   5.727   3.752  0.2496 -0.3242  0.0820
39399SOL    HW122559   1.798   5.731   3.836 -0.1376 -0.2571 -0.1235
39399SOL    HW222560   1.927   5.770   3.767 -0.1256  0.3692  0.2446
39400SOL     OW22561   7.765   3.891   1.106  0.5292 -0.0612  0.0718
39400SOL    HW122562   7.701   3.895   1.178  1.0560 -0.1389  0.5576
39400SOL    HW222563   7.734   3.956   1.043  0.8190  1.0354  1.0177
39401SOL     OW22564   4.218   0.498   8.190 -0.4138  0.5509  0.0110
39401SOL    HW122565   4.132   0.493   8.231 -0.3673  2.8854  0.5439
39401SOL    HW222566   4.236   0.592   8.184  2.1191  0.1278 -0.0216
39402SOL     OW22567   1.459   7.748   4.286 -0.0913 -0.2199 -0.3268
39402SOL    HW122568   1.494   7.824   4.332  0.6280 -0.9574  0.3822
39402SOL    HW222569   1.383   7.721   4.338  1.5435 -1.9183  1.3710
39403SOL     OW22570   5.584   4.856   2.879 -0.2388  0.0591 -0.3873
39403SOL    HW122571   5.595   4.898   2.793  2.0629 -1.3285 -0.8533
39403SOL    HW222572   5.532   4.778   2.861 -1.2319  0.6672 -0.1963
39404SOL     OW22573  10.036   0.586   3.740 -0.0240  0.2312  0.1835
39404SOL    HW122574   9.972   0.515   3.734  0.5115 -0.1111 -2.5174
39404SOL    HW222575  10.056   0.609   3.649  0.4931  3.2712  0.9623
39405SOL     OW22576   7.536   6.298   5.681  0.5489 -0.1237 -0.2413
39405SOL    HW122577   7.570   6.266   5.765 -0.2475 -1.3233 -0.3528
39405SOL    HW222578   7.454   6.250   5.669  0.2435  0.6361 -1.3293
39406SOL     OW22579   8.706   9.397   5.004 -0.1263 -0.1004 -0.0524
39406SOL    HW122580   8.799   9.379   4.999 -0.3212 -0.8754 -2.8166
39406SOL    HW222581   8.675   9.347   5.079  1.6203 -0.0042  0.7668
39407SOL     OW22582   2.287  10.019   7.216 -0.3383 -0.2143 -0.4956
39407SOL    HW122583   2.218  10.074   7.179 -0.2749  0.1664 -0.0616
39407SOL    HW222584   2.331   9.981   7.140  0.5185  1.4319 -0.8695
39408SOL     OW22585   4.128   1.774  10.142 -0.3677 -0.1495 -0.3444
39408SOL    HW122586   4.131   1.694  10.089 -0.3541  0.1826 -0.8487
39408SOL    HW222587   4.203   1.825  10.112  0.1997 -0.3621  0.6605
39409SOL     OW22588   8.418   9.654   7.546  0.2523 -0.4641  0.1591
39409SOL    HW122589   8.488   9.702   7.590  1.1875 -1.4980 -0.1456
39409SOL    HW222590   8.346   9.717   7.539  1.0577  0.5451  0.7096
39410SOL     OW22591   5.650   4.471   2.118  0.6406  0.0005  0.0113
39410SOL    HW122592   5.606   4.553   2.138  3.1494  1.2775  0.7699
39410SOL    HW222593   5.581   4.405   2.120 -1.3489  1.9817  0.0430
39411SOL     OW22594   5.718   1.316   1.072 -0.5314  0.3300  0.8457
39411SOL    HW122595   5.806   1.351   1.061 -0.0537 -0.3246  2.3825
39411SOL    HW222596   5.718   1.234   1.023  0.0708 -0.1843  1.6643
39412SOL     OW22597   8.341   2.440   6.101  0.1985 -0.3113 -0.2924
39412SOL    HW122598   8.250   2.430   6.128 -0.0846  1.6498 -0.3127
39412SOL    HW222599   8.337   2.504   6.029  1.5245 -0.7685 -0.7965
39413SOL     OW22600   6.180   4.784   6.199 -0.3643 -0.3870  0.8052
39413SOL    HW122601   6.202   4.702   6.243  0.7233 -0.4084  0.2442
39413SOL    HW222602   6.142   4.839   6.268 -0.5382 -1.1345  1.3157
39414SOL     OW22603   5.506   6.216   6.651 -0.0399 -0.1005 -0.5244
39414SOL    HW122604   5.564   6.159   6.702 -0.7228  0.0132  0.3999
39414SOL    HW222605   5.551   6.227   6.568  0.5672 -1.2034 -0.3587
39415SOL     OW22606  10.654   1.830  10.542  0.0435  0.0898 -0.3979
39415SOL    HW122607  10.745   1.819  10.570 -0.2846 -0.1562  0.6220
39415SOL    HW222608  10.635   1.752  10.491  0.3161  0.0135 -0.3849
39416SOL     OW22609   4.042   5.603   9.710  0.5678  0.7553  0.6072
39416SOL    HW122610   4.137   5.596   9.721  0.4317 -2.1028  0.6054
39416SOL    HW222611   4.018   5.676   9.766  2.6873  1.1422  1.1234
39417SOL     OW22612   9.913   5.877  10.900 -0.0488 -0.3276  0.7024
39417SOL    HW122613   9.936   5.823  10.975  0.8704  0.5785  1.0899
39417SOL    HW222614   9.890   5.814  10.832  2.3305 -1.3041  0.6953
39418SOL     OW22615   1.441   8.373   7.321  0.5671  0.0494  0.2236
39418SOL    HW122616   1.483   8.302   7.370  2.4639  1.2179  0.3756
39418SOL    HW222617   1.409   8.331   7.241 -0.9153 -1.5141  1.5263
39419SOL     OW22618   6.073   2.699   0.781  0.0475 -0.1108  0.2625
39419SOL    HW122619   6.150   2.749   0.810 -0.7999  1.3886  0.0041
39419SOL    HW222620   6.010   2.708   0.852 -0.3109 -0.3681 -0.0168
39420SOL     OW22621   8.384   4.773   5.061 -0.3446  0.7202  0.9997
39420SOL    HW122622   8.429   4.721   5.127 -2.0471 -1.2058  0.7339
39420SOL    HW222623   8.414   4.863   5.077  3.8215 -0.4118  0.5414
39421SOL     OW22624   1.561  10.520   4.575  0.2032 -0.3147  0.3338
39421SOL    HW122625   1.590  10.446   4.522  1.6494  0.0687  0.5674
39421SOL    HW222626   1.531  10.480   4.657  3.2251 -0.5533  1.4453
39422SOL     OW22627   8.701   6.096   0.839 -0.1596  0.4659 -0.2741
39422SOL    HW122628   8.678   6.021   0.893 -0.9025  0.9383  0.0673
39422SOL    HW222629   8.760   6.060   0.772 -1.5399 -0.6817 -0.9157
39423SOL     OW22630   0.720   6.478   6.494  0.8278  0.1768 -0.2393
39423SOL    HW122631   0.657   6.453   6.561  1.3431 -1.0632 -0.1866
39423SOL    HW222632   0.806   6.458   6.532  1.0786 -2.8556 -2.0518
39424SOL     OW22633   6.239   1.999   1.209 -0.0182 -0.1678  0.3880
39424SOL    HW122634   6.148   2.023   1.193  0.6195  1.5409 -1.0603
39424SOL    HW222635   6.244   1.906   1.189 -1.6475 -0.5186  1.5101
39425SOL     OW22636   7.039   0.552   7.710 -0.1194  0.8054  0.1130
39425SOL    HW122637   7.114   0.504   7.743  0.1394  2.1453  1.6072
39425SOL    HW222638   6.966   0.523   7.764 -0.4277  0.4528 -0.4823
39426SOL     OW22639   4.455   0.610   7.807 -0.0269 -0.5787 -0.0205
39426SOL    HW122640   4.507   0.637   7.882  2.2800 -0.5852 -1.5047
39426SOL    HW222641   4.464   0.682   7.744 -2.6718 -0.1391 -0.0100
39427SOL     OW22642   4.538   9.152   7.624 -0.1281 -0.2690  0.0910
39427SOL    HW122643   4.485   9.074   7.608 -0.7182  0.1802 -0.1826
39427SOL    HW222644   4.531   9.167   7.718 -0.1209 -0.4631  0.1233
39428SOL     OW22645   3.380   4.923   8.155  0.0935  0.4249  0.6404
39428SOL    HW122646   3.305   4.971   8.118  0.4444  0.3502 -0.1857
39428SOL    HW222647   3.434   4.991   8.194  1.4309  0.9836 -1.9683
39429SOL     OW22648   7.289   2.252   3.803  0.1265  0.1736  0.0050
39429SOL    HW122649   7.337   2.311   3.861  1.0878 -0.1081 -0.4884
39429SOL    HW222650   7.296   2.166   3.846  0.4562  0.0499 -0.2891
39430SOL     OW22651  10.454  10.038   0.645  0.6264 -0.3769  0.0196
39430SOL    HW122652  10.506   9.992   0.579  0.7974 -0.0658 -0.0628
39430SOL    HW222653  10.505  10.117   0.665  1.1196 -0.9926  1.3113
39431SOL     OW22654   2.776   1.571  10.934  0.0960  0.2259 -0.2740
39431SOL    HW122655   2.712   1.640  10.915 -0.2123 -0.4068 -1.6045
39431SOL    HW222656   2.812   1.546  10.849  0.2464 -1.2275  0.1861
39432SOL     OW22657   7.415   6.994   1.789 -0.3298  0.1972 -0.4248
39432SOL    HW122658   7.321   6.993   1.807 -0.1145  0.0880  0.7064
39432SOL    HW222659   7.456   6.987   1.874  0.7180 -1.8794 -1.0421
39433SOL     OW22660   5.639   4.176   1.177 -0.0831 -0.1532 -0.2042
39433SOL    HW122661   5.728   4.144   1.189  0.3163  1.1896  0.6807
39433SOL    HW222662   5.646   4.242   1.108  0.0246  1.3415  1.1535
39434SOL     OW22663   4.668   7.644   2.147  0.5491  0.6386 -0.1380
39434SOL    HW122664   4.649   7.723   2.198  0.8977 -0.8524  2.4656
39434SOL    HW222665   4.590   7.589   2.157  1.4434 -0.5552  0.6445
39435SOL     OW22666   1.811   5.641   3.021  0.2016  0.0834  0.1002
39435SOL    HW122667   1.896   5.629   3.063  0.6046 -0.6380 -0.8721
39435SOL    HW222668   1.754   5.576   3.062 -0.2364  1.3151  1.5653
39436SOL     OW22669   2.032   1.761   4.113  0.2089 -0.4913  0.5392
39436SOL    HW122670   1.996   1.806   4.036 -0.6684 -0.1394  1.1425
39436SOL    HW222671   2.126   1.781   4.110  0.3953 -1.4528 -1.0791
39437SOL     OW22672   1.584   9.997   5.333  0.1583  0.6070 -0.0905
39437SOL    HW122673   1.545  10.026   5.415  3.1387 -1.7985  2.4319
39437SOL    HW222674   1.549   9.909   5.320  1.7791 -0.1226  0.2261
39438SOL     OW22675   9.125   4.721   1.815 -0.0417  0.7328  0.6215
39438SOL    HW122676   9.121   4.673   1.732 -2.2778 -0.3342  1.2960
39438SOL    HW222677   9.219   4.728   1.833  0.4442 -0.7612 -0.9990
39439SOL     OW22678   4.128   8.874   8.990  0.6593 -0.3899 -0.1898
39439SOL    HW122679   4.093   8.919   9.067  0.9432 -1.2239  0.4398
39439SOL    HW222680   4.126   8.781   9.013  0.5707 -0.6711 -1.2696
39440SOL     OW22681   5.098   8.946   9.562 -0.4071  0.1592  0.3417
39440SOL    HW122682   5.094   9.015   9.629  1.1660  0.8316 -0.2136
39440SOL    HW222683   5.054   8.984   9.486  0.5432  0.6336  0.0038
39441SOL     OW22684   7.238   2.443   0.950 -0.2937 -0.0606 -0.0037
39441SOL    HW122685   7.272   2.504   1.015  0.8810 -0.6294 -0.0423
39441SOL    HW222686   7.295   2.366   0.958 -1.4993 -0.9997 -0.2082
39442SOL     OW22687   2.168   4.811   6.469 -0.3135 -0.1112 -0.1729
39442SOL    HW122688   2.249   4.801   6.419 -1.2325 -1.1713 -1.5265
39442SOL    HW222689   2.184   4.887   6.525  1.1879  0.4269 -1.2528
39443SOL     OW22690   2.265   3.605  10.852  0.4726 -0.4825  0.0690
39443SOL    HW122691   2.297   3.525  10.892  3.4215  0.4669 -0.1541
39443SOL    HW222692   2.334   3.670  10.868 -1.5871  1.9417 -0.1076
39444SOL     OW22693  10.829   4.260  10.245  0.4462 -0.4454  0.3085
39444SOL    HW122694  10.810   4.174  10.282  1.5558 -0.4635  0.8662
39444SOL    HW222695  10.891   4.299  10.306  1.7785 -0.1898 -1.1551
39445SOL     OW22696   2.626   6.943   2.655  0.3635 -0.3094 -0.2589
39445SOL    HW122697   2.608   6.889   2.732 -0.0363  0.8622  0.4946
39445SOL    HW222698   2.540   6.955   2.614 -0.2056  2.4443  1.4381
39446SOL     OW22699   7.838   1.929  10.743  0.1509 -0.2042  0.4407
39446SOL    HW122700   7.906   1.861  10.742 -1.3097 -1.7429  0.1176
39446SOL    HW222701   7.772   1.896  10.682 -1.7624  0.2786  2.1629
39447SOL     OW22702   2.692   0.185   3.581 -0.2041  0.0953  0.4422
39447SOL    HW122703   2.776   0.229   3.596 -0.5437  1.0966 -0.4229
39447SOL    HW222704   2.711   0.092   3.589  0.6901  0.3572  1.6548
39448SOL     OW22705   1.926   3.943  10.670 -0.5435  0.2415  0.0246
39448SOL    HW122706   1.984   3.871  10.644 -0.8359  0.1556 -0.3962
39448SOL    HW222707   1.840   3.918  10.637 -0.4436  1.2875 -1.1152
39449SOL     OW22708   3.113   0.204   4.359 -0.5337  0.1931  0.1819
39449SOL    HW122709   3.189   0.235   4.311 -0.7113 -2.2118 -1.8377
39449SOL    HW222710   3.038   0.223   4.303 -0.8201 -2.0632 -0.3171
39450SOL     OW22711   5.902  10.639   5.552  0.2198  1.1560  0.5073
39450SOL    HW122712   5.955  10.715   5.575  1.0207  1.1900 -1.2895
39450SOL    HW222713   5.965  10.567   5.545  0.0250  1.1147 -1.2647
39451SOL     OW22714   3.730  11.015   5.919  0.5944 -0.1582 -0.0208
39451SOL    HW122715   3.780  11.089   5.952  0.2040 -0.6097  1.6614
39451SOL    HW222716   3.795  10.946   5.906  0.8176  0.1675 -0.7021
39452SOL     OW22717  10.771   5.659   3.589 -0.1820 -0.7730 -0.1038
39452SOL    HW122718  10.839   5.699   3.534 -0.7885  0.5790  0.0825
39452SOL    HW222719  10.695   5.718   3.579 -0.0448  0.0347  2.8677
39453SOL     OW22720   9.455   1.362  10.426  0.8059 -0.0354  0.8359
39453SOL    HW122721   9.441   1.455  10.445  0.5383  0.4969 -1.6085
39453SOL    HW222722   9.384   1.317  10.472 -1.2553  1.3750 -0.7765
39454SOL     OW22723   8.062   9.767  10.793  0.4650 -0.4870  0.0824
39454SOL    HW122724   8.108   9.745  10.712  0.6170 -0.0552  0.0473
39454SOL    HW222725   8.117   9.833  10.834 -0.2891  0.2868 -0.1256
39455SOL     OW22726   0.054   7.189  11.007  0.3892 -0.3724 -0.0652
39455SOL    HW122727   0.146   7.213  11.004  0.6653 -1.0006  1.9410
39455SOL    HW222728   0.049   7.104  10.962  0.6714 -0.0516 -0.7083
39456SOL     OW22729   3.930   6.615   9.982  0.2155  0.2381  0.0725
39456SOL    HW122730   4.017   6.648   9.958  0.8521 -0.1528  1.7322
39456SOL    HW222731   3.870   6.668   9.929  1.4093  1.2107 -0.3718
39457SOL     OW22732   5.714   1.991   5.636  0.1052 -0.3886 -0.0204
39457SOL    HW122733   5.722   1.895   5.630 -0.6579 -0.4279 -0.5906
39457SOL    HW222734   5.670   2.016   5.555  0.0269  0.4151  0.2655
39458SOL     OW22735   7.447   1.171   0.420  0.1502  0.6484  0.3588
39458SOL    HW122736   7.426   1.126   0.501 -0.9158 -1.6599 -1.1135
39458SOL    HW222737   7.542   1.161   0.411  0.4516  1.8414  1.7667
39459SOL     OW22738   9.893   4.537   3.129  0.2792  0.3316 -0.5250
39459SOL    HW122739   9.957   4.575   3.070  0.2838  1.7218  0.3445
39459SOL    HW222740   9.933   4.541   3.215 -0.0769 -0.8762 -0.2815
39460SOL     OW22741   9.800   8.078   5.745  0.2853  0.5691 -0.2738
39460SOL    HW122742   9.802   7.995   5.793  0.2798  1.1228  0.7080
39460SOL    HW222743   9.881   8.122   5.770  0.3891  0.7751 -0.9569
39461SOL     OW22744   4.374   3.622   1.886 -0.2566  0.0683  0.6447
39461SOL    HW122745   4.351   3.627   1.979  1.0019 -0.4181  1.0046
39461SOL    HW222746   4.469   3.610   1.885 -0.1286  0.9309 -0.7412
39462SOL     OW22747   1.879   3.891   6.684  0.3006 -0.1922 -0.4871
39462SOL    HW122748   1.954   3.879   6.743 -0.9127 -0.3837  1.0993
39462SOL    HW222749   1.804   3.900   6.743 -1.0262 -0.7099 -2.0280
39463SOL     OW22750   3.722   2.354   6.656  0.8010  0.2557 -0.1261
39463SOL    HW122751   3.643   2.304   6.672  1.6786 -1.0527  0.3144
39463SOL    HW222752   3.725   2.364   6.561  0.0965  0.3551 -0.1417
39464SOL     OW22753   8.309   3.471   2.281  0.2928 -0.2810 -0.5203
39464SOL    HW122754   8.381   3.449   2.221  0.6289  0.9644 -0.6027
39464SOL    HW222755   8.351   3.516   2.354  0.0459 -2.8330  1.3102
39465SOL     OW22756   4.644   2.307   7.651  0.1337  0.0262  0.2128
39465SOL    HW122757   4.576   2.268   7.596  2.8027 -2.2808 -1.7760
39465SOL    HW222758   4.661   2.392   7.612 -0.5165 -0.0299 -0.2130
39466SOL     OW22759   6.663   2.643   2.547 -0.0183  0.8685 -0.3941
39466SOL    HW122760   6.652   2.684   2.462 -2.4576  0.7291 -0.2316
39466SOL    HW222761   6.655   2.715   2.610  0.0853  0.7421 -0.2353
39467SOL     OW22762  10.072   3.903   7.028  0.2541  0.0128  0.5780
39467SOL    HW122763  10.025   3.821   7.043 -0.0437 -0.0928 -0.7819
39467SOL    HW222764  10.041   3.962   7.097 -0.2496 -0.7187  0.9872
39468SOL     OW22765   5.179   2.242   5.844  0.0628  0.0248  0.6392
39468SOL    HW122766   5.168   2.323   5.894  1.7666  0.6830  0.0261
39468SOL    HW222767   5.266   2.250   5.805 -0.2744 -1.5213 -0.5093
39469SOL     OW22768   2.358   3.879  10.622  0.2372  0.1950 -0.5273
39469SOL    HW122769   2.379   3.823  10.696  0.9952  2.4640  1.0814
39469SOL    HW222770   2.267   3.903  10.635  0.2948  0.3841 -0.4688
39470SOL     OW22771   0.291   4.858   0.920 -0.1037 -0.1244 -0.2676
39470SOL    HW122772   0.260   4.834   1.008 -1.9675  2.3323 -0.1834
39470SOL    HW222773   0.225   4.917   0.886  1.7389  0.8308 -2.4339
39471SOL     OW22774   5.901   3.287   5.204 -0.2315  0.3684 -0.2610
39471SOL    HW122775   5.912   3.335   5.286 -1.8181  1.7077 -0.7797
39471SOL    HW222776   5.948   3.338   5.139  1.1745 -0.7863 -0.1963
39472SOL     OW22777   2.297  10.853   9.834 -0.6317  0.0487 -0.0633
39472SOL    HW122778   2.248  10.771   9.838  0.7283 -0.7708  0.6113
39472SOL    HW222779   2.270  10.901   9.913 -0.2959 -0.4258  0.3413
39473SOL     OW22780   9.103   3.491   8.115  0.3794 -0.2032 -0.1322
39473SOL    HW122781   9.059   3.413   8.082 -1.1889  0.2709  0.7608
39473SOL    HW222782   9.147   3.463   8.195  0.6420 -0.3725 -0.3314
39474SOL     OW22783   1.954   8.055   5.097 -0.2920 -0.3757 -0.1469
39474SOL    HW122784   1.927   8.062   5.189 -0.7227 -1.5811 -0.1593
39474SOL    HW222785   2.038   8.009   5.101 -0.8030 -1.3769 -0.3848
39475SOL     OW22786   6.961   8.555  11.065  0.7543 -0.1162 -0.5879
39475SOL    HW122787   6.880   8.590  11.102  1.9110  1.3857  0.7032
39475SOL    HW222788   6.944   8.549  10.971 -0.4427  1.4028 -0.5086
39476SOL     OW22789   4.058   7.491   4.876  0.0383  0.6209  0.4480
39476SOL    HW122790   4.074   7.574   4.921 -1.0223  1.2892 -0.3578
39476SOL    HW222791   3.963   7.488   4.864  0.1036 -0.5011  0.0674
39477SOL     OW22792   4.633   5.862   8.589  0.5874  0.1236  0.1990
39477SOL    HW122793   4.700   5.803   8.624 -0.9642 -1.6831  0.2284
39477SOL    HW222794   4.569   5.871   8.659  0.6225  1.6414  0.0819
39478SOL     OW22795   1.556   8.612   7.272  0.6047  0.3497 -0.4558
39478SOL    HW122796   1.514   8.529   7.290  2.2911 -0.5498 -0.4488
39478SOL    HW222797   1.507   8.676   7.323  0.3196 -0.9031  0.8786
39479SOL     OW22798   3.066   6.642   0.169 -0.2832  0.2143 -0.2929
39479SOL    HW122799   3.073   6.553   0.205 -1.6458  1.1078  2.4604
39479SOL    HW222800   2.993   6.681   0.217 -1.3368  2.0698 -3.1949
39480SOL     OW22801   7.187   0.149   7.961  0.0017 -0.0113  0.6848
39480SOL    HW122802   7.102   0.189   7.943 -0.1361  0.2308  1.7877
39480SOL    HW222803   7.236   0.160   7.880 -0.0728  2.3386  0.8897
39481SOL     OW22804   0.399   6.134   2.312 -0.0937 -0.0963 -0.6527
39481SOL    HW122805   0.411   6.226   2.287  0.3749 -0.4826 -1.9142
39481SOL    HW222806   0.323   6.105   2.262 -0.9027 -0.1267  0.5495
39482SOL     OW22807   7.860   1.850   7.886 -0.2539 -0.3660  0.1832
39482SOL    HW122808   7.845   1.771   7.937  1.0026 -0.2410  0.8039
39482SOL    HW222809   7.813   1.836   7.804  0.7020 -2.1815 -0.1136
39483SOL     OW22810   7.411   6.777   9.288  0.3594 -0.2919 -0.0765
39483SOL    HW122811   7.456   6.819   9.362 -0.0362 -0.3130  0.1817
39483SOL    HW222812   7.478   6.724   9.246  1.0213  1.0632 -0.7683
39484SOL     OW22813   8.916   0.038   3.173  0.2193  0.2967 -0.0018
39484SOL    HW122814   8.829  -0.001   3.168  0.6422 -0.9497  1.6484
39484SOL    HW222815   8.964  -0.017   3.234  2.1301  1.0636 -0.7179
39485SOL     OW22816   4.429   4.191   1.421 -0.1648  0.8018  0.2810
39485SOL    HW122817   4.519   4.224   1.427 -0.5343  1.8649  0.0216
39485SOL    HW222818   4.440   4.099   1.396  0.9260  0.3016  2.3381
39486SOL     OW22819   7.904   8.860   6.521  0.2258 -0.1815 -0.2115
39486SOL    HW122820   7.900   8.955   6.532 -0.4005 -0.1494 -0.6480
39486SOL    HW222821   7.980   8.833   6.572  1.2084  0.6985 -1.1581
39487SOL     OW22822   4.785   4.032   4.662 -0.0208  0.7476  0.2834
39487SOL    HW122823   4.707   4.047   4.609  1.1631 -0.2290 -1.8918
39487SOL    HW222824   4.846   4.101   4.634  0.4353  0.5554  0.7998
39488SOL     OW22825   7.590   3.276   2.051 -0.2987 -0.0332  0.3209
39488SOL    HW122826   7.552   3.362   2.030  1.1262  0.1109 -1.9291
39488SOL    HW222827   7.534   3.213   2.005 -0.7714 -0.2760  1.1917
39489SOL     OW22828   0.508   5.523   7.717 -0.3145  0.1741 -0.2042
39489SOL    HW122829   0.533   5.552   7.805 -0.7579 -1.3279  0.4355
39489SOL    HW222830   0.413   5.525   7.716 -0.3814 -1.5657 -0.0078
39490SOL     OW22831   9.433   4.371   4.611 -0.0594  0.6036 -0.5585
39490SOL    HW122832   9.379   4.389   4.533 -0.5317  1.2517 -0.1020
39490SOL    HW222833   9.508   4.323   4.578 -0.4423  0.5349 -1.3624
39491SOL     OW22834   2.631   5.447   4.147 -0.1362 -0.3723 -0.1638
39491SOL    HW122835   2.556   5.467   4.204 -0.5262  0.6841 -1.0226
39491SOL    HW222836   2.600   5.466   4.059  1.5437  1.3465 -0.4390
39492SOL     OW22837   9.579   0.823   1.785 -0.4285 -0.2056  0.4428
39492SOL    HW122838   9.654   0.878   1.762 -0.5291  0.0398  0.6898
39492SOL    HW222839   9.503   0.872   1.755 -0.6009  0.4048  1.8007
39493SOL     OW22840   2.481   9.224   9.709 -0.0840  0.0580 -0.5300
39493SOL    HW122841   2.508   9.306   9.669  0.5424 -0.1284 -0.5110
39493SOL    HW222842   2.457   9.168   9.635  1.6476 -0.4910 -0.7367
39494SOL     OW22843   9.950   2.513   2.568 -0.4067  0.5255  0.0715
39494SOL    HW122844  10.025   2.534   2.623  0.1938  0.3857 -0.6726
39494SOL    HW222845   9.987   2.462   2.495 -1.0566  1.2510 -0.7974
39495SOL     OW22846   0.576   4.209   1.084  0.0840  0.2317  0.0269
39495SOL    HW122847   0.616   4.141   1.029 -1.6543  0.3699 -1.5301
39495SOL    HW222848   0.521   4.259   1.023 -2.6407 -0.1248  2.0203
39496SOL     OW22849   3.953   6.959   6.515 -0.0572 -0.0273 -0.1290
39496SOL    HW122850   4.028   6.901   6.503  0.7705  1.1691 -0.9203
39496SOL    HW222851   3.889   6.906   6.562  0.0663 -2.0683 -2.1457
39497SOL     OW22852   6.285   3.574   9.172  0.4389 -1.0105  0.1887
39497SOL    HW122853   6.338   3.539   9.244  0.6441  1.0890  1.1309
39497SOL    HW222854   6.195   3.551   9.196  0.4656  0.0018  1.3477
39498SOL     OW22855   5.738  10.028   4.196 -0.4943  0.2582  0.6574
39498SOL    HW122856   5.805  10.065   4.254 -2.5335  1.7655  2.2207
39498SOL    HW222857   5.732  10.089   4.123  0.0655 -0.0588  0.3470
39499SOL     OW22858   4.206   5.255  10.373  0.0056  0.2203 -0.3483
39499SOL    HW122859   4.126   5.232  10.421  0.1912  0.9712  0.3570
39499SOL    HW222860   4.263   5.179  10.385  0.2606  0.6043  1.1303
39500SOL     OW22861   4.151   2.547   4.622 -0.2474 -0.5843 -0.0969
39500SOL    HW122862   4.158   2.473   4.562  0.4072  0.2507 -1.0889
39500SOL    HW222863   4.080   2.600   4.586 -0.7316 -0.7314  0.6250
39501SOL     OW22864  10.824   6.729   8.257  0.1280 -0.7100 -0.3142
39501SOL    HW122865  10.735   6.750   8.232  1.2394  0.8915 -3.3367
39501SOL    HW222866  10.850   6.659   8.197  0.8286 -1.3877  0.7462
39502SOL     OW22867  10.133   2.957   8.064 -0.2486 -0.0624 -0.1091
39502SOL    HW122868  10.204   2.940   8.002 -1.9052 -1.6055 -1.7305
39502SOL    HW222869  10.167   2.928   8.149  1.9056  1.6392 -0.3358
39503SOL     OW22870   6.822   9.791   1.346 -0.3742  0.2589 -0.0793
39503SOL    HW122871   6.797   9.773   1.437  0.7244 -1.0393  0.0033
39503SOL    HW222872   6.765   9.733   1.294  2.7965 -3.5124  0.1597
39504SOL     OW22873   4.755   8.945   2.656  0.3449 -0.6950  0.3618
39504SOL    HW122874   4.727   8.854   2.664 -2.4552 -0.0019 -0.7212
39504SOL    HW222875   4.716   8.989   2.732 -1.8032  0.3060 -1.2242
39505SOL     OW22876  10.035   9.569   5.528 -0.2552  0.5935  0.4140
39505SOL    HW122877   9.953   9.540   5.488  0.3651 -0.5016 -0.1048
39505SOL    HW222878  10.027   9.665   5.531 -1.1649  0.5720 -0.4783
39506SOL     OW22879   6.139   4.820   3.713 -0.0350 -0.1428  0.3449
39506SOL    HW122880   6.215   4.839   3.658 -0.1145 -1.1443 -0.1374
39506SOL    HW222881   6.081   4.896   3.700  0.6871  0.4280  0.3906
39507SOL     OW22882   7.975  10.502   5.382  0.0436  0.1706  0.6869
39507SOL    HW122883   7.963  10.594   5.407  0.9071  0.2082  0.9835
39507SOL    HW222884   8.005  10.459   5.462 -0.6331 -0.4311  0.6215
39508SOL     OW22885  10.131   0.074   0.731 -0.6389 -0.3325  0.5226
39508SOL    HW122886  10.137   0.102   0.822 -0.9986 -0.1861  0.5044
39508SOL    HW222887  10.104   0.153   0.684 -0.2604 -0.3552  0.2591
39509SOL     OW22888   8.461   5.128   7.833  0.1080 -0.2267 -0.1889
39509SOL    HW122889   8.440   5.209   7.787  0.4835 -0.4306 -0.7212
39509SOL    HW222890   8.394   5.122   7.902  0.8654  1.2360  0.7345
39510SOL     OW22891  10.118  10.028   9.192  0.7133 -0.5347  0.4619
39510SOL    HW122892  10.066  10.081   9.132 -0.2400 -0.7102  1.1133
39510SOL    HW222893  10.186   9.988   9.137 -0.0647 -0.5859 -0.4683
39511SOL     OW22894  10.476   1.904   1.179  0.3692  0.4753 -0.9506
39511SOL    HW122895  10.391   1.866   1.199  0.5547  0.9054  0.8934
39511SOL    HW222896  10.538   1.834   1.198  0.5238  0.7382 -0.4607
39512SOL     OW22897   5.997   5.231   5.460 -0.1456  0.1349  0.4551
39512SOL    HW122898   6.023   5.174   5.388 -1.0097 -1.4417  1.3461
39512SOL    HW222899   6.080   5.264   5.496  0.2940  1.1761 -1.3704
39513SOL     OW22900   9.158   7.048   1.256  0.7597  0.0449  0.0289
39513SOL    HW122901   9.157   6.984   1.328 -1.4666 -0.8825 -0.7386
39513SOL    HW222902   9.159   7.133   1.300 -2.5408 -0.4285  1.3744
39514SOL     OW22903   4.670   9.728   5.746 -0.3281 -0.2744  0.3378
39514SOL    HW122904   4.755   9.700   5.711 -1.8639 -3.2925 -1.3528
39514SOL    HW222905   4.653   9.668   5.818 -0.4871  1.2461  1.6351
39515SOL     OW22906   0.392   1.519   3.741 -0.0512 -1.2518 -0.1753
39515SOL    HW122907   0.395   1.607   3.778 -1.0922 -0.8779 -0.9304
39515SOL    HW222908   0.483   1.498   3.722  0.4423 -1.1858  1.8963
39516SOL     OW22909   4.830   5.173   6.890  0.7929  0.0477 -0.0895
39516SOL    HW122910   4.900   5.117   6.857  0.9137  0.7746 -1.1382
39516SOL    HW222911   4.830   5.159   6.985  0.0602 -2.5689 -0.3893
39517SOL     OW22912   4.202  10.896   1.183  0.5644  0.4246 -0.0189
39517SOL    HW122913   4.133  10.946   1.227  1.5823  0.0315  2.1422
39517SOL    HW222914   4.204  10.811   1.228  1.1258 -0.3409 -1.3906
39518SOL     OW22915   7.370   4.538   2.226 -0.4384  0.0235  0.6624
39518SOL    HW122916   7.461   4.563   2.241 -1.0493  2.5772  0.6411
39518SOL    HW222917   7.335   4.606   2.169 -2.1268 -1.4430 -0.1681
39519SOL     OW22918   0.202   4.562   6.908 -0.2615  0.5425 -0.0563
39519SOL    HW122919   0.224   4.653   6.925  0.9961  0.3547 -0.5491
39519SOL    HW222920   0.109   4.555   6.929  0.2825  1.1862  3.0884
39520SOL     OW22921   1.085   9.681   2.373 -0.4394 -0.9263  0.2166
39520SOL    HW122922   1.170   9.715   2.346 -0.9307  0.7093  0.6572
39520SOL    HW222923   1.084   9.591   2.338  1.5524 -1.0908  0.4356
39521SOL     OW22924   9.562   8.866   5.756  0.2979 -0.1094  0.3769
39521SOL    HW122925   9.639   8.909   5.793  0.6563 -1.1280  0.8430
39521SOL    HW222926   9.598   8.801   5.696 -0.2360  0.0392 -0.1186
39522SOL     OW22927   8.317   2.701  10.004  0.0305 -0.5364  0.2808
39522SOL    HW122928   8.353   2.613   9.992 -0.1907 -0.7047  0.8216
39522SOL    HW222929   8.273   2.698  10.089  0.2555  0.1763  0.4374
39523SOL     OW22930   3.634   3.531   2.055  0.0099  0.0097  0.0487
39523SOL    HW122931   3.725   3.553   2.076  0.0349  0.5722 -0.6122
39523SOL    HW222932   3.611   3.591   1.984 -1.1704  0.5051  0.8189
39524SOL     OW22933   4.553   3.716   5.295  0.5400 -0.3884 -0.0267
39524SOL    HW122934   4.473   3.768   5.305  0.0164 -1.2979  0.7032
39524SOL    HW222935   4.526   3.627   5.316  1.6929 -0.7606 -0.0523
39525SOL     OW22936   0.812  10.472   1.481 -0.1418  0.0397  1.1034
39525SOL    HW122937   0.764  10.402   1.525 -1.5559 -1.3296 -2.2418
39525SOL    HW222938   0.744  10.536   1.457  0.4480  0.3928  0.3402
39526SOL     OW22939   5.455   8.246   6.936  0.4652  0.3890 -0.4364
39526SOL    HW122940   5.485   8.278   6.851 -2.0906 -3.4226 -3.0901
39526SOL    HW222941   5.389   8.308   6.964 -0.0838  0.6853 -2.3037
39527SOL     OW22942   5.017  10.622   9.448 -0.2626  0.0751  0.7568
39527SOL    HW122943   5.019  10.553   9.382 -0.7589  0.1179  0.6938
39527SOL    HW222944   4.927  10.653   9.448  0.1173  1.2409  0.2601
39528SOL     OW22945   2.668   0.547   4.544 -0.7450 -0.1947  0.2392
39528SOL    HW122946   2.645   0.613   4.478 -0.4402  1.0119  1.3007
39528SOL    HW222947   2.672   0.596   4.626 -2.8065 -1.9585  1.4854
39529SOL     OW22948  10.925   6.222   1.028  0.1993  0.2541  0.1961
39529SOL    HW122949  11.011   6.262   1.038  1.1002 -1.6053  0.4839
39529SOL    HW222950  10.896   6.204   1.118 -0.5917  1.0501  0.1083
39530SOL     OW22951   2.096   0.663   4.618  0.2966  0.0711 -0.3478
39530SOL    HW122952   2.013   0.693   4.583  1.3236 -0.2366 -3.2781
39530SOL    HW222953   2.076   0.579   4.660 -0.7461 -0.4610 -1.8538
39531SOL     OW22954   9.132   5.541   8.610  0.3512 -0.1619  1.5536
39531SOL    HW122955   9.098   5.590   8.535 -3.0296 -0.9391  2.4348
39531SOL    HW222956   9.171   5.608   8.666  0.9183  0.7089  0.1748
39532SOL     OW22957   5.387   2.992   3.672 -0.1972 -0.7247 -0.2711
39532SOL    HW122958   5.444   3.065   3.651 -1.4648  0.8382  1.4470
39532SOL    HW222959   5.340   2.974   3.591  0.3090  0.1967 -0.7829
39533SOL     OW22960   2.300  10.470   3.093 -0.4804  0.1858 -0.4402
39533SOL    HW122961   2.240  10.412   3.047 -0.0973 -0.6183  0.0651
39533SOL    HW222962   2.251  10.552   3.102 -0.9125  0.0542 -1.4196
39534SOL     OW22963   1.979   2.080   8.091  0.9530  0.8035 -0.0398
39534SOL    HW122964   1.979   2.122   8.176 -1.5290 -1.8503  1.4588
39534SOL    HW222965   2.055   2.023   8.092  1.0743  0.9716  0.3101
39535SOL     OW22966   7.867   6.018   5.210 -0.0200 -0.1880  0.0265
39535SOL    HW122967   7.778   5.984   5.205  0.8362 -2.7783  0.6868
39535SOL    HW222968   7.861   6.093   5.269 -1.5706 -1.1697  1.1795
39536SOL     OW22969   2.405   1.801   7.464 -0.4845 -0.0297  0.0601
39536SOL    HW122970   2.373   1.746   7.393 -0.0815  1.0926 -1.0280
39536SOL    HW222971   2.356   1.883   7.455  0.8661  0.7982 -0.0902
39537SOL     OW22972   1.869   6.289  11.003 -0.4803  0.1640 -0.2217
39537SOL    HW122973   1.787   6.270  10.957 -1.9156  0.4677  2.0011
39537SOL    HW222974   1.840   6.320  11.089  1.9755  2.4478 -0.1263
39538SOL     OW22975   8.181   2.875   5.828  0.5194  0.4921 -0.3710
39538SOL    HW122976   8.247   2.819   5.869  0.6304  0.0899 -1.0771
39538SOL    HW222977   8.099   2.852   5.871 -0.1687 -3.0074 -3.1445
39539SOL     OW22978   4.560   0.426   0.865  0.5346 -0.2263  0.0521
39539SOL    HW122979   4.525   0.373   0.937  1.0875 -0.7437 -0.0563
39539SOL    HW222980   4.654   0.415   0.871  0.5359 -2.9043 -2.6925
39540SOL     OW22981   0.299   2.686   5.979 -0.1462  0.3240  0.0364
39540SOL    HW122982   0.300   2.622   5.908  2.5187 -0.4554  0.6401
39540SOL    HW222983   0.281   2.770   5.936  1.4988 -0.1056 -1.6294
39541SOL     OW22984   5.456   6.449   9.987  0.2507  0.2003 -0.1336
39541SOL    HW122985   5.545   6.417   9.975  0.2746  0.4071 -0.5105
39541SOL    HW222986   5.404   6.369  10.001  0.7953  0.1864  2.2432
39542SOL     OW22987   7.143   3.567   5.449  0.3254  0.1005  0.3765
39542SOL    HW122988   7.174   3.654   5.424 -0.7851  0.0817 -1.1822
39542SOL    HW222989   7.051   3.580   5.470  0.2289 -0.6578  0.4337
39543SOL     OW22990   7.573   4.599   4.192  0.4773 -0.4102 -0.6090
39543SOL    HW122991   7.642   4.554   4.143  0.6192 -2.3294  1.1649
39543SOL    HW222992   7.507   4.531   4.208 -1.7142  1.2877 -1.9479
39544SOL     OW22993   7.152   1.629   8.453  0.0357 -0.0244 -0.5353
39544SOL    HW122994   7.144   1.611   8.547  1.0537  0.9619 -0.2414
39544SOL    HW222995   7.119   1.718   8.443  2.7545  1.0605 -0.5765
39545SOL     OW22996   2.123   4.061   0.830 -0.5185  0.5826  0.4433
39545SOL    HW122997   2.194   4.100   0.780  0.3034  0.6383  1.5990
39545SOL    HW222998   2.129   4.103   0.916 -0.6750 -0.8354  1.1841
39546SOL     OW22999   6.356   2.801  10.140  0.1061  0.1764 -0.2117
39546SOL    HW123000   6.445   2.821  10.171  1.1939 -1.5107 -1.9826
39546SOL    HW223001   6.344   2.708  10.161 -0.6464  0.0062 -1.3014
39547SOL     OW23002   5.877  11.090   6.435  0.1249 -0.2189 -0.6048
39547SOL    HW123003   5.822  11.164   6.411  0.4522  0.2368  0.0073
39547SOL    HW223004   5.966  11.125   6.435  0.3936 -0.8775 -1.3118
39548SOL     OW23005   8.916   9.077   8.972 -0.2540  0.4076 -0.1406
39548SOL    HW123006   8.890   9.048   8.885  1.9381  0.0609 -0.7325
39548SOL    HW223007   8.947   8.998   9.016  1.0173  0.9851  0.0358
39549SOL     OW23008   0.648   1.046   0.910  0.1091 -0.4233 -0.4861
39549SOL    HW123009   0.708   0.972   0.902 -1.5691 -1.7717 -1.0877
39549SOL    HW223010   0.562   1.009   0.894 -0.8125  1.6366 -0.5668
39550SOL     OW23011   8.864   6.360   6.296  0.4437  0.1067  0.1249
39550SOL    HW123012   8.868   6.424   6.226  0.1420 -0.4424 -0.3981
39550SOL    HW223013   8.929   6.390   6.360  0.3868  0.8633 -0.1630
39551SOL     OW23014   1.217   1.242   7.207 -0.4010 -0.1103  0.4262
39551SOL    HW123015   1.215   1.162   7.258 -0.2635  0.9757  2.2056
39551SOL    HW223016   1.198   1.312   7.270 -0.6452  1.2546 -1.0842
39552SOL     OW23017  10.669   6.284   2.728  0.2156  0.4037  0.3964
39552SOL    HW123018  10.734   6.305   2.794 -1.0628  0.0691  1.8188
39552SOL    HW223019  10.648   6.369   2.688  0.7250  0.6704  0.6838
39553SOL     OW23020   8.909  10.563   4.411 -0.4669  0.3100 -0.1705
39553SOL    HW123021   8.919  10.512   4.331  1.7889 -1.4447  1.1006
39553SOL    HW223022   8.838  10.519   4.458  0.6035 -0.9455  0.3363
39554SOL     OW23023   3.695   4.267   2.634 -0.4232  0.0850 -0.6330
39554SOL    HW123024   3.756   4.196   2.615  0.5529  0.5409  0.6795
39554SOL    HW223025   3.658   4.290   2.549 -0.0754 -1.3688 -1.2028
39555SOL     OW23026   7.780   8.235   9.929  0.1740  0.2862 -0.0055
39555SOL    HW123027   7.740   8.253   9.844  1.4992  0.5781 -0.5997
39555SOL    HW223028   7.726   8.283   9.992 -1.4349 -0.7661 -0.5329
39556SOL     OW23029  10.682   9.257   5.073 -0.7090 -0.0798  0.8724
39556SOL    HW123030  10.692   9.313   5.150  2.6825 -0.0080  0.5693
39556SOL    HW223031  10.730   9.304   5.004 -1.0939 -1.5534 -0.4466
39557SOL     OW23032  11.011   4.135   4.922 -0.2278 -0.3458  0.4450
39557SOL    HW123033  11.080   4.086   4.968 -0.6069  0.9492  2.5327
39557SOL    HW223034  11.053   4.217   4.897 -0.9756  0.4996  1.8267
39558SOL     OW23035  10.116   2.747   6.686  0.1973 -0.3101  0.9811
39558SOL    HW123036  10.169   2.667   6.691  0.1431 -0.5023 -0.7755
39558SOL    HW223037  10.177   2.818   6.704  1.3662 -0.4616 -1.8213
39559SOL     OW23038   9.065  10.255   7.913  0.5328  0.1433  0.0795
39559SOL    HW123039   8.989  10.198   7.907  0.5353  0.1752 -0.2704
39559SOL    HW223040   9.042  10.331   7.860  1.0414 -0.1074 -0.5085
39560SOL     OW23041  10.513   2.361   2.011 -0.2138  0.1114 -0.2808
39560SOL    HW123042  10.594   2.310   2.019 -0.6203 -0.7170 -1.2750
39560SOL    HW223043  10.488   2.380   2.101 -0.0348 -1.4253  0.1180
39561SOL     OW23044   2.744  10.063   4.431  0.1928  0.2445 -0.7295
39561SOL    HW123045   2.666  10.079   4.377 -0.3524  0.2510  0.0432
39561SOL    HW223046   2.715   9.997   4.495  0.8014  0.3041 -0.3893
39562SOL     OW23047   4.933   4.906   2.217 -0.0335  0.1990  1.0911
39562SOL    HW123048   4.953   4.854   2.294  1.7245 -2.3316 -0.9047
39562SOL    HW223049   5.012   4.901   2.163 -1.6756  0.5480 -1.5288
39563SOL     OW23050   6.932   2.590   7.585 -0.0076 -0.2386 -0.0248
39563SOL    HW123051   6.999   2.644   7.627  0.6082 -1.2637  0.3628
39563SOL    HW223052   6.883   2.552   7.658 -0.7292  0.1557 -0.3002
39564SOL     OW23053   6.180   0.864   7.645 -0.1452 -0.5617 -0.0801
39564SOL    HW123054   6.241   0.805   7.600 -1.6233 -1.5471 -0.8484
39564SOL    HW223055   6.210   0.865   7.735  2.3037  0.6806 -0.8179
39565SOL     OW23056   3.579  10.563   8.299  0.0744  0.3852  0.3461
39565SOL    HW123057   3.614  10.503   8.232  0.0912  1.1705 -0.3647
39565SOL    HW223058   3.566  10.507   8.376 -1.3234 -0.8809 -0.7399
39566SOL     OW23059   0.528   4.749   0.470  0.0717 -0.3732  0.4241
39566SOL    HW123060   0.469   4.794   0.410  1.2727  0.0917 -0.4542
39566SOL    HW223061   0.495   4.772   0.557 -1.6302 -0.9644 -0.0301
39567SOL     OW23062   7.827   5.304   9.580 -0.1157 -0.3812 -0.0067
39567SOL    HW123063   7.856   5.235   9.640  0.6971 -0.4776 -0.4959
39567SOL    HW223064   7.780   5.366   9.635  0.6556 -0.4515  0.7402
39568SOL     OW23065   9.382   7.658   1.907 -0.5000 -0.3957 -0.4469
39568SOL    HW123066   9.471   7.673   1.876  0.2540  0.4585  1.9443
39568SOL    HW223067   9.390   7.590   1.973 -1.6798 -0.4817 -0.3610
39569SOL     OW23068  10.400   5.811   9.105  0.1903 -0.2551 -0.6030
39569SOL    HW123069  10.396   5.886   9.045 -1.3330  0.9021  0.8271
39569SOL    HW223070  10.470   5.832   9.166 -0.3008  0.0814 -0.1432
39570SOL     OW23071   8.842   1.277   3.619  0.0980 -0.1157 -0.2527
39570SOL    HW123072   8.869   1.318   3.536 -1.1354  0.4176 -0.4128
39570SOL    HW223073   8.828   1.185   3.596 -0.7566  0.1300 -0.7836
39571SOL     OW23074   7.470   7.868  11.025  0.0565 -1.0035  0.1422
39571SOL    HW123075   7.408   7.831  11.087  0.7734  1.4525  2.5015
39571SOL    HW223076   7.556   7.847  11.061  0.4809  1.4982  0.7797
39572SOL     OW23077   1.242   3.841  10.044  0.3534 -0.1367  0.3060
39572SOL    HW123078   1.192   3.854   9.963  2.1195 -0.2172 -0.8651
39572SOL    HW223079   1.213   3.911  10.102 -2.7900 -1.5377  0.6376
39573SOL     OW23080   5.922   2.738   7.746 -0.1868 -0.1468 -0.3571
39573SOL    HW123081   5.914   2.649   7.710 -3.1400 -0.0694 -0.0946
39573SOL    HW223082   6.016   2.755   7.744  0.6597 -3.7220  0.7013
39574SOL     OW23083   8.868   7.086   7.043 -0.1786 -0.0632  0.6763
39574SOL    HW123084   8.786   7.108   6.999  1.3527  1.1581 -1.7609
39574SOL    HW223085   8.924   7.162   7.030  1.9604 -1.5412  0.6446
39575SOL     OW23086   7.244  10.459   3.843  0.0693  0.1803 -0.1051
39575SOL    HW123087   7.191  10.524   3.890 -0.0260  1.9985 -2.5101
39575SOL    HW223088   7.332  10.497   3.841 -0.2715  1.0871 -2.7440
39576SOL     OW23089   2.172   8.660   7.845  0.2328 -0.1724  0.0944
39576SOL    HW123090   2.128   8.687   7.926  1.7682  0.1785  0.8598
39576SOL    HW223091   2.189   8.567   7.858 -0.2930 -0.3125 -0.2092
39577SOL     OW23092  10.004   2.300  10.115 -0.4305 -0.0567 -0.2518
39577SOL    HW123093  10.074   2.328  10.174  0.1604 -0.7921 -0.5906
39577SOL    HW223094   9.926   2.300  10.170 -0.1904  0.8317  0.1188
39578SOL     OW23095   1.527   5.944   7.236  0.4216 -0.7796 -0.0598
39578SOL    HW123096   1.608   5.932   7.285  0.0796 -0.3806  0.6055
39578SOL    HW223097   1.470   5.874   7.267  1.0372 -2.0970 -1.7019
39579SOL     OW23098   2.662   8.414   4.842 -0.5609  0.0384 -0.5278
39579SOL    HW123099   2.639   8.347   4.907 -1.5451  1.4290  0.6237
39579SOL    HW223100   2.600   8.400   4.770 -2.0568  0.8711  0.5537
39580SOL     OW23101   6.010  10.279  10.890  0.0923  0.0739  0.3257
39580SOL    HW123102   5.976  10.289  10.800 -0.4159 -0.5034  0.4424
39580SOL    HW223103   5.967  10.199  10.922 -0.7061  0.9470  1.5155
39581SOL     OW23104   9.243   1.728  10.823 -0.2228 -0.2542 -0.0157
39581SOL    HW123105   9.301   1.659  10.856 -1.0291 -0.2763  1.4650
39581SOL    HW223106   9.258   1.729  10.729  1.5291 -0.8405  0.2212
39582SOL     OW23107   3.403   2.433   8.525 -0.1576  0.4569  0.6003
39582SOL    HW123108   3.480   2.377   8.513  1.0715  2.0954  0.4680
39582SOL    HW223109   3.381   2.463   8.437 -0.1778  0.9786  0.7814
39583SOL     OW23110  10.178  10.181   2.465 -0.1774 -0.2754  0.1484
39583SOL    HW123111  10.176  10.100   2.516 -0.7912  0.2447  0.9740
39583SOL    HW223112  10.229  10.241   2.518  0.3029 -0.1267 -0.4776
39584SOL     OW23113  10.417   2.023   5.015  0.1832 -0.1615 -0.0025
39584SOL    HW123114  10.328   1.994   5.035 -0.4134  2.0640  0.8975
39584SOL    HW223115  10.442   2.076   5.091  1.9429  0.0027 -0.6520
39585SOL     OW23116   3.873  10.872   6.665  0.1915 -0.0123  0.8655
39585SOL    HW123117   3.918  10.923   6.732  0.9524  1.0758 -0.4075
39585SOL    HW223118   3.879  10.926   6.586  1.3607 -2.1887 -0.6675
39586SOL     OW23119   6.098   4.472   7.362  0.2256 -0.1709 -0.0054
39586SOL    HW123120   6.077   4.486   7.270 -0.8859 -1.2589  0.0506
39586SOL    HW223121   6.166   4.405   7.361  1.0610  0.6545 -0.0536
39587SOL     OW23122   2.714   0.794   8.579 -0.0176 -0.2951  0.5585
39587SOL    HW123123   2.768   0.721   8.548 -1.5446 -0.7367 -1.2141
39587SOL    HW223124   2.776   0.866   8.591  0.9660 -0.6696 -1.7634
39588SOL     OW23125   9.746   9.919   8.968  0.0408 -0.3721 -0.3728
39588SOL    HW123126   9.682   9.940   8.900  0.7120  1.4850 -0.4793
39588SOL    HW223127   9.703   9.943   9.050  0.6191  1.1120 -0.4599
39589SOL     OW23128   3.070   4.485   7.879  0.2077 -0.3929  0.4833
39589SOL    HW123129   3.044   4.548   7.812  0.3900  0.4206  1.1489
39589SOL    HW223130   3.059   4.399   7.838  0.2560  0.0816 -0.5537
39590SOL     OW23131   0.984   4.262   0.420 -0.0695  0.2362  0.0448
39590SOL    HW123132   0.967   4.251   0.327  0.0996 -2.5145  0.2519
39590SOL    HW223133   0.933   4.339   0.445 -1.3856  0.0931 -1.9834
39591SOL     OW23134   8.963   2.162   2.426  0.2049  0.4658  0.1388
39591SOL    HW123135   8.930   2.131   2.511 -0.9654 -0.4481 -0.6219
39591SOL    HW223136   9.015   2.240   2.448  0.6092 -0.2150  1.7715
39592SOL     OW23137  10.006   2.308   6.890  0.3811 -0.0000  0.3320
39592SOL    HW123138   9.940   2.248   6.855  1.7033 -1.1092 -0.3847
39592SOL    HW223139   9.986   2.392   6.850 -1.2712 -0.0060  1.0369
39593SOL     OW23140  10.387   4.506   6.088  0.2197 -0.4840  0.3850
39593SOL    HW123141  10.371   4.591   6.047 -0.1161 -0.3876  0.7114
39593SOL    HW223142  10.482   4.504   6.105  0.1159  0.1601  1.1012
39594SOL     OW23143   4.929   2.009   6.650  0.7099  0.0311  0.2369
39594SOL    HW123144   4.833   2.003   6.654  0.7301 -0.9654 -0.4593
39594SOL    HW223145   4.959   1.918   6.651  1.5525  0.2399 -1.4348
39595SOL     OW23146   0.004   3.516   7.681  0.1472 -0.3592 -0.5121
39595SOL    HW123147   0.099   3.508   7.692  0.0067 -2.2982 -0.5138
39595SOL    HW223148  -0.013   3.485   7.592 -0.6026 -0.9950 -0.1513
39596SOL     OW23149   3.780   9.335  10.023 -0.2538 -0.1575 -0.4414
39596SOL    HW123150   3.761   9.267  10.086 -0.8615  0.8665  0.5187
39596SOL    HW223151   3.832   9.292   9.955 -0.6909 -1.5648  0.0994
39597SOL     OW23152   3.142   6.385   4.026  0.2078  0.2495  0.3689
39597SOL    HW123153   3.052   6.359   4.044 -0.1392  0.6160 -0.7606
39597SOL    HW223154   3.195   6.321   4.073 -0.6384 -0.9539 -0.2659
39598SOL     OW23155   9.718   0.155   1.320 -0.4551 -0.1991 -0.0354
39598SOL    HW123156   9.662   0.101   1.265 -1.0229  1.5042 -1.2249
39598SOL    HW223157   9.802   0.109   1.321 -0.7868 -0.8872 -1.3363
39599SOL     OW23158   5.614   6.334   3.666  0.8062 -0.5643  0.8248
39599SOL    HW123159   5.627   6.429   3.671  0.6144 -0.5025  0.2631
39599SOL    HW223160   5.702   6.298   3.674  0.8169 -0.3665  1.6064
39600SOL     OW23161   4.653   9.423  10.924  0.7010  0.3979  0.0315
39600SOL    HW123162   4.674   9.481  10.851 -0.2585 -0.1375 -0.6894
39600SOL    HW223163   4.557   9.416  10.923  0.6631  0.4184  1.3770
39601SOL     OW23164   5.000   3.709   7.841 -0.1362  0.0610 -0.4328
39601SOL    HW123165   5.019   3.739   7.930  0.3087  1.1020 -0.8678
39601SOL    HW223166   5.032   3.778   7.784 -0.6686 -0.4603 -1.4069
39602SOL     OW23167   3.216   5.194   2.875  0.2181 -0.3527  0.0044
39602SOL    HW123168   3.289   5.232   2.923  0.8688 -2.2094  0.5678
39602SOL    HW223169   3.235   5.100   2.873 -0.9928 -0.6035 -1.8600
39603SOL     OW23170  10.444   9.529   4.338 -1.0647  0.4092 -0.4284
39603SOL    HW123171  10.485   9.516   4.423  0.4419  0.3021 -1.1321
39603SOL    HW223172  10.384   9.455   4.328 -1.6805  0.7311  0.7623
39604SOL     OW23173   0.283   8.421  11.108  0.4982  0.7767  0.1795
39604SOL    HW123174   0.349   8.383  11.166 -0.3333  0.6563  1.0777
39604SOL    HW223175   0.331   8.487  11.057  1.1515  1.2928  1.4096
39605SOL     OW23176  10.584   4.220   6.203  0.5245 -0.0964 -0.0676
39605SOL    HW123177  10.631   4.293   6.161 -0.1372 -0.1055 -0.8560
39605SOL    HW223178  10.606   4.227   6.296 -0.6238  1.9596  0.1009
39606SOL     OW23179   7.996  10.763   1.686  0.0915 -0.2417 -0.5475
39606SOL    HW123180   8.003  10.856   1.706 -0.5733 -0.1436 -0.7609
39606SOL    HW223181   8.086  10.730   1.696  0.1141  0.1542  0.7853
39607SOL     OW23182   9.170   4.872  10.274  0.4095 -0.4175 -0.4436
39607SOL    HW123183   9.257   4.843  10.248 -0.2512  0.0088 -3.4700
39607SOL    HW223184   9.113   4.798  10.254 -0.1169 -0.1893  0.1879
39608SOL     OW23185   9.362   7.369   8.425  0.0685 -0.2542 -0.0201
39608SOL    HW123186   9.315   7.446   8.459 -0.2987 -0.8137  0.7617
39608SOL    HW223187   9.300   7.297   8.433 -0.1156 -0.3918 -2.1135
39609SOL     OW23188   7.229   6.582   8.630  0.5083 -0.2827  0.2384
39609SOL    HW123189   7.248   6.658   8.575 -1.2349  0.7074  0.9361
39609SOL    HW223190   7.305   6.525   8.619  1.8431  1.5204 -0.3705
39610SOL     OW23191   8.806  10.035   9.114  0.5827  0.1667  0.4723
39610SOL    HW123192   8.724  10.036   9.065  1.5974  1.4841 -1.3048
39610SOL    HW223193   8.873  10.060   9.051  2.4655 -1.2516  1.7505
39611SOL     OW23194   4.854   3.599   4.830  0.2853 -0.6499 -0.5230
39611SOL    HW123195   4.759   3.588   4.836  0.3282 -1.0323 -0.5514
39611SOL    HW223196   4.887   3.513   4.805  0.4093  0.1097 -3.2928
39612SOL     OW23197   9.724   9.965   0.338 -0.0020 -0.2547  0.6451
39612SOL    HW123198   9.747  10.008   0.420  0.7313  0.1031  0.2634
39612SOL    HW223199   9.796   9.987   0.279  0.7077 -2.5040  0.6099
39613SOL     OW23200   2.000   3.488   5.517 -0.0364 -0.3647 -0.0151
39613SOL    HW123201   1.914   3.469   5.481  0.1287 -0.4582 -0.3591
39613SOL    HW223202   2.039   3.402   5.532  1.4002 -0.4006 -3.1932
39614SOL     OW23203   4.127  10.076   1.524  0.5890  0.0356  0.0006
39614SOL    HW123204   4.143  10.068   1.619  1.6333  1.3201 -0.0371
39614SOL    HW223205   4.139   9.987   1.491 -1.3084 -0.7640  1.2472
39615SOL     OW23206   1.719   6.765   7.263  0.8728 -0.2842  0.2401
39615SOL    HW123207   1.690   6.697   7.202  0.9531 -0.2108  0.1203
39615SOL    HW223208   1.649   6.830   7.261  1.0424 -0.1085 -0.0468
39616SOL     OW23209   1.119   6.928   0.072 -0.1009  0.7891  0.1423
39616SOL    HW123210   1.146   6.839   0.047  0.0093  0.5063  1.2370
39616SOL    HW223211   1.033   6.938   0.030 -0.0056  0.2638 -0.2014
39617SOL     OW23212   7.810   4.594   1.014  0.2503  0.0127  0.2434
39617SOL    HW123213   7.823   4.500   1.005  1.1668  0.1471  0.1059
39617SOL    HW223214   7.771   4.620   0.931  0.8785 -0.1003 -0.0943
39618SOL     OW23215   4.575   7.517   8.108  1.3631  0.0078 -0.3551
39618SOL    HW123216   4.511   7.556   8.167  1.1974 -1.9078  0.8206
39618SOL    HW223217   4.604   7.437   8.153  2.5805 -0.5828 -2.0671
39619SOL     OW23218   9.823   7.936   0.672  0.0112  1.1112  0.0436
39619SOL    HW123219   9.900   7.925   0.728  0.1027 -2.0984 -0.5327
39619SOL    HW223220   9.817   8.031   0.658  2.8851  1.6038  1.4119
39620SOL     OW23221   2.596  10.911   1.503  0.2008 -0.2130  0.0163
39620SOL    HW123222   2.559  10.874   1.424 -1.6198 -0.9715  1.1538
39620SOL    HW223223   2.689  10.921   1.484 -0.2044 -0.2296 -2.2393
39621SOL     OW23224   6.069   5.911   3.527 -0.4235  0.1653  0.3221
39621SOL    HW123225   6.054   6.001   3.556 -1.5765 -0.2517  1.0909
39621SOL    HW223226   6.056   5.858   3.606 -0.5588 -0.7401 -0.2979
39622SOL     OW23227   9.825   1.410   4.402  0.4613  0.5041  0.0311
39622SOL    HW123228   9.864   1.490   4.365  1.7690  0.7949  1.8519
39622SOL    HW223229   9.776   1.441   4.479  0.9007 -0.4143  0.6977
39623SOL     OW23230   6.317   7.863   5.973 -0.0964 -0.0314  0.7626
39623SOL    HW123231   6.292   7.873   6.065 -0.6744  0.7258  0.5264
39623SOL    HW223232   6.236   7.879   5.924  0.3420  0.1522  0.0887
39624SOL     OW23233   7.645   8.530   4.820 -0.1354  0.2833 -0.6929
39624SOL    HW123234   7.560   8.527   4.776 -0.3321 -1.7385 -0.2628
39624SOL    HW223235   7.657   8.442   4.856  0.6271  1.4320  2.1634
39625SOL     OW23236   9.072  10.993   4.908  0.2732  0.3379 -0.1189
39625SOL    HW123237   9.052  10.915   4.959  1.4528  0.2225  0.1870
39625SOL    HW223238   8.989  11.017   4.867 -0.2343 -0.7208  0.2673
39626SOL     OW23239   9.019   7.591   2.438  0.3885  0.0616  0.1675
39626SOL    HW123240   9.077   7.665   2.421  1.0450 -0.4721  0.0553
39626SOL    HW223241   9.018   7.582   2.533  0.0659  0.4020  0.1977
39627SOL     OW23242   1.101   6.388   5.382  0.8251 -0.2678 -0.4574
39627SOL    HW123243   1.039   6.448   5.340  0.6185 -0.3006 -0.1958
39627SOL    HW223244   1.154   6.444   5.439 -0.0747 -0.4860  0.6173
39628SOL     OW23245   9.243   4.386   0.680 -0.3095 -0.2316  0.1993
39628SOL    HW123246   9.267   4.473   0.650  1.2137 -1.0453 -1.0689
39628SOL    HW223247   9.157   4.369   0.640 -0.1906  0.3267 -0.3001
39629SOL     OW23248   5.909   0.377   0.127  0.5463 -0.5206  0.5486
39629SOL    HW123249   5.940   0.400   0.215  3.3869  0.5119 -0.5941
39629SOL    HW223250   5.979   0.322   0.091 -0.4077 -0.6666 -1.1813
39630SOL     OW23251   3.248   3.694   7.272  0.1788  0.6287  0.6864
39630SOL    HW123252   3.306   3.646   7.213  0.5043  1.0831  0.6248
39630SOL    HW223253   3.166   3.645   7.271  0.5542 -0.0069  0.7541
39631SOL     OW23254   7.005  10.839   0.435  0.3465  0.0900  0.0952
39631SOL    HW123255   7.061  10.854   0.512  0.1542 -0.3819  0.3326
39631SOL    HW223256   7.054  10.877   0.362  1.2084 -0.7228  0.2262
39632SOL     OW23257   5.765  10.109   4.955 -0.4070  0.1552 -0.0656
39632SOL    HW123258   5.685  10.109   4.903  0.9301 -0.9282 -2.2474
39632SOL    HW223259   5.836  10.109   4.891  1.3873 -3.7728  1.5926
39633SOL     OW23260   6.205   0.456  11.083 -0.2833  0.3257  0.2392
39633SOL    HW123261   6.238   0.479  11.171  3.3668 -1.2261 -0.5478
39633SOL    HW223262   6.228   0.532  11.029  2.7193 -0.8788 -0.3756
39634SOL     OW23263   8.756   9.259   0.654 -0.5810 -0.4099 -0.6314
39634SOL    HW123264   8.747   9.281   0.561  0.3922 -0.3413 -0.7198
39634SOL    HW223265   8.745   9.342   0.699 -0.8890 -0.4138 -0.7002
39635SOL     OW23266   6.103  11.017   1.525  0.0613  0.3272 -0.3289
39635SOL    HW123267   6.114  11.034   1.619 -1.5278 -2.1805  0.3873
39635SOL    HW223268   6.146  10.933   1.510 -0.4243  0.3004 -1.6922
39636SOL     OW23269   2.559   3.516   6.594  0.5801 -0.0286 -0.1431
39636SOL    HW123270   2.640   3.551   6.558  0.3531 -0.7343 -1.4161
39636SOL    HW223271   2.578   3.500   6.686  2.1556 -0.9065 -0.5756
39637SOL     OW23272   6.459  10.451   6.668 -0.5196  0.2262  0.3167
39637SOL    HW123273   6.424  10.540   6.661 -0.0354  0.4501  0.7406
39637SOL    HW223274   6.518  10.442   6.593 -1.5415 -0.1959 -0.4741
39638SOL     OW23275   5.998  10.376   2.287 -0.2476  0.5251  0.6493
39638SOL    HW123276   6.075  10.405   2.335  2.1273  1.3277 -3.1908
39638SOL    HW223277   5.940  10.452   2.287  1.3911  1.8875 -0.6818
39639SOL     OW23278   1.786   6.487   3.391  0.0963 -0.3103 -0.2863
39639SOL    HW123279   1.718   6.429   3.426 -2.1450  1.8429 -0.8048
39639SOL    HW223280   1.823   6.530   3.469 -0.4865 -0.0849 -0.1332
39640SOL     OW23281   2.822   5.912  10.044 -0.7978 -0.3529  0.2646
39640SOL    HW123282   2.900   5.861  10.022 -0.9993  0.1720 -1.8934
39640SOL    HW223283   2.855   6.002  10.054 -0.9176 -0.3665  0.7856
39641SOL     OW23284   1.064   8.084   4.725 -0.1281 -0.6607 -0.5760
39641SOL    HW123285   1.149   8.050   4.697  1.7803 -0.1778  3.7732
39641SOL    HW223286   1.016   8.006   4.753  0.1825 -0.7045 -0.1402
39642SOL     OW23287   6.631   5.978   9.648  0.3785  0.1347 -0.0492
39642SOL    HW123288   6.593   5.901   9.604  0.6132  0.3215 -0.5959
39642SOL    HW223289   6.723   5.976   9.622  0.2662  0.9089 -0.5172
39643SOL     OW23290   6.450   6.917   5.419  0.0861  0.0537 -0.2206
39643SOL    HW123291   6.365   6.879   5.396 -0.6127  0.9437  0.8042
39643SOL    HW223292   6.443   7.009   5.394  0.8086  0.1105 -0.2493
39644SOL     OW23293  10.714   5.387   6.822 -0.2325  0.3258 -0.3324
39644SOL    HW123294  10.715   5.405   6.917  3.3126  0.6044 -0.2593
39644SOL    HW223295  10.698   5.293   6.816  4.7055 -0.9424  1.1602
39645SOL     OW23296   3.906   1.234   4.767  0.4627  0.3705 -0.3472
39645SOL    HW123297   3.891   1.144   4.739 -2.0992  0.3099  0.9160
39645SOL    HW223298   3.964   1.226   4.843  0.5173 -0.1604 -0.4394
39646SOL     OW23299   9.131   3.351   1.310 -0.5894 -0.2253 -0.1751
39646SOL    HW123300   9.220   3.369   1.340 -0.4913 -1.1145  0.0828
39646SOL    HW223301   9.076   3.376   1.384 -0.5451  0.1477 -0.2656
39647SOL     OW23302   5.097   6.187   2.892  0.2223 -0.5924 -0.1296
39647SOL    HW123303   5.080   6.093   2.881 -0.2878 -0.3557 -1.5049
39647SOL    HW223304   5.097   6.222   2.803 -2.1049  1.1309  0.4480
39648SOL     OW23305   4.219   2.456   9.687  0.3138  0.5520 -0.1745
39648SOL    HW123306   4.190   2.467   9.778 -0.0559  2.2152 -0.4583
39648SOL    HW223307   4.305   2.498   9.684 -0.1804  1.5533 -0.8356
39649SOL     OW23308   5.205   8.087   7.866 -0.3915  0.1916 -0.1114
39649SOL    HW123309   5.294   8.122   7.869 -0.9185  1.8530 -1.5912
39649SOL    HW223310   5.154   8.157   7.823 -1.8335 -1.8062 -1.8581
39650SOL     OW23311   8.966  10.154   4.501 -0.2029  0.0206 -0.8455
39650SOL    HW123312   8.995  10.164   4.410 -0.4560 -1.7954 -1.1612
39650SOL    HW223313   9.025  10.088   4.537  0.2220  1.0890  0.4870
39651SOL     OW23314   0.466   9.926   6.126  0.1004 -0.6927  0.6907
39651SOL    HW123315   0.446   9.934   6.033  0.0460  0.0775  0.7696
39651SOL    HW223316   0.523   9.848   6.131  1.3941  0.1596 -0.1891
39652SOL     OW23317   2.756   9.105   3.204 -0.6118  0.1931  0.3111
39652SOL    HW123318   2.691   9.140   3.144 -0.3102 -2.3382 -1.6882
39652SOL    HW223319   2.712   9.033   3.249  0.7316 -1.8496 -1.3827
39653SOL     OW23320   3.555   3.953   2.661  0.0740  0.5172  0.6477
39653SOL    HW123321   3.548   3.993   2.574  2.5495  2.1026  1.0674
39653SOL    HW223322   3.626   3.889   2.652  2.3861  2.6668  2.0020
39654SOL     OW23323  10.036   1.171   3.812 -0.1511 -0.1589 -0.2577
39654SOL    HW123324  10.051   1.122   3.893 -2.3221 -1.0116 -0.3142
39654SOL    HW223325  10.057   1.262   3.835  0.6095 -0.5845  0.8380
39655SOL     OW23326  10.122   1.109   2.091 -0.6917 -1.0986 -0.1900
39655SOL    HW123327  10.114   1.152   2.176 -1.3450 -0.1309 -0.7324
39655SOL    HW223328  10.120   1.180   2.027  1.4817 -1.6401 -0.9650
39656SOL     OW23329   5.556   7.063  11.021  0.3110 -0.2279  0.4584
39656SOL    HW123330   5.529   7.005  11.092 -0.2807 -0.6459 -0.0953
39656SOL    HW223331   5.491   7.049  10.952  0.8842  0.1547 -0.1765
39657SOL     OW23332   8.099   2.665   0.490  0.6096 -0.1011 -0.1239
39657SOL    HW123333   8.028   2.708   0.537 -1.1370 -2.8317 -0.0719
39657SOL    HW223334   8.140   2.735   0.439 -1.4254  1.7663  0.6420
39658SOL     OW23335   7.119   4.524   1.490  0.5331  0.1652 -0.3133
39658SOL    HW123336   7.166   4.559   1.565 -1.3653  1.2588  0.4320
39658SOL    HW223337   7.028   4.550   1.503 -0.4956 -2.4771 -1.2858
39659SOL     OW23338   9.471   3.547   4.672  0.0172 -0.2014 -0.2188
39659SOL    HW123339   9.482   3.579   4.761  0.0152  0.0573 -0.3121
39659SOL    HW223340   9.491   3.622   4.616  3.3421 -1.1679 -0.5679
39660SOL     OW23341   4.826  11.098   7.461  0.2470  0.2699 -0.3445
39660SOL    HW123342   4.741  11.140   7.449 -0.1703  0.0778  1.5594
39660SOL    HW223343   4.885  11.170   7.486  0.6262  0.3774 -1.4971
39661SOL     OW23344   6.767   2.633   8.638  0.2181 -0.3790  0.2162
39661SOL    HW123345   6.684   2.625   8.590  0.8920  0.3069 -1.1164
39661SOL    HW223346   6.745   2.609   8.728 -2.1342  2.6732  0.6291
39662SOL     OW23347   3.480   9.450   6.983  0.0118  0.3684  0.0722
39662SOL    HW123348   3.498   9.404   6.900 -0.4012  0.7159 -0.2135
39662SOL    HW223349   3.462   9.379   7.045  0.5148  0.0947 -0.0875
39663SOL     OW23350   3.118   2.546   2.933  0.6573  0.4046 -0.7451
39663SOL    HW123351   3.043   2.498   2.898  1.2655  0.4611 -2.2412
39663SOL    HW223352   3.133   2.616   2.869  1.1618  1.2132  0.2307
39664SOL     OW23353   5.900   8.066   0.093  0.0916  0.2863 -0.4466
39664SOL    HW123354   5.938   8.087   0.008  1.1913  2.2376  0.4586
39664SOL    HW223355   5.909   8.146   0.144  0.2622 -1.0668  1.7965
39665SOL     OW23356   2.258   7.498   7.127 -0.2900  0.6048 -0.7113
39665SOL    HW123357   2.227   7.467   7.212 -0.0320 -0.6180 -1.0566
39665SOL    HW223358   2.178   7.522   7.080 -0.6977 -1.5147 -1.1979
39666SOL     OW23359   6.961   8.848   9.679  0.1937  0.0544  0.2902
39666SOL    HW123360   6.879   8.896   9.692  0.6059  0.8527  0.0213
39666SOL    HW223361   6.984   8.865   9.588  0.1500 -0.9875  0.0751
39667SOL     OW23362   6.370   2.405   1.761  0.3372  0.0192 -0.2592
39667SOL    HW123363   6.288   2.373   1.799 -0.1220  0.6642 -0.6997
39667SOL    HW223364   6.356   2.400   1.666  1.6262 -1.9980 -0.4160
39668SOL     OW23365   1.703   9.937   2.127 -0.3834  0.2412  0.1489
39668SOL    HW123366   1.769   9.909   2.063 -0.4104  0.6201 -0.0455
39668SOL    HW223367   1.733  10.023   2.156 -0.4964  0.1693  0.4711
39669SOL     OW23368   3.395   6.511   6.544  0.4663  0.2282 -0.3865
39669SOL    HW123369   3.424   6.589   6.590 -0.3347  0.6784 -0.6298
39669SOL    HW223370   3.300   6.514   6.548  0.4167 -0.5081 -0.7722
39670SOL     OW23371   4.071   5.586   6.603 -0.7101  0.1177  0.0920
39670SOL    HW123372   4.075   5.665   6.658 -0.2336  0.2349 -0.1041
39670SOL    HW223373   4.092   5.515   6.663  1.5424  0.4122 -0.2530
39671SOL     OW23374   6.468   8.804   9.387 -0.0646  0.6783 -0.0358
39671SOL    HW123375   6.423   8.733   9.432 -0.1173  0.2419 -0.7731
39671SOL    HW223376   6.461   8.782   9.294  0.6934  1.1886 -0.2162
39672SOL     OW23377   4.734   6.717   1.314 -0.2990 -0.3072 -0.1159
39672SOL    HW123378   4.808   6.657   1.303  1.9015  2.0679  0.7878
39672SOL    HW223379   4.773   6.798   1.346 -3.4105  0.9045  0.9829
39673SOL     OW23380   5.220   1.354   3.709  0.3431  0.2255 -0.1765
39673SOL    HW123381   5.278   1.298   3.657 -0.7375  0.8596 -2.1716
39673SOL    HW223382   5.206   1.431   3.655 -1.4687  0.5874  0.7228
39674SOL     OW23383  10.979  10.869   2.124 -0.6140  0.1398 -0.1640
39674SOL    HW123384  10.933  10.908   2.050 -0.4331  0.5257 -0.0758
39674SOL    HW223385  11.020  10.944   2.169 -0.1518 -0.1635 -0.0709
39675SOL     OW23386   0.231   6.861  10.914 -0.1845 -0.0720 -0.0714
39675SOL    HW123387   0.137   6.863  10.898  0.0789 -0.1228 -1.8196
39675SOL    HW223388   0.259   6.952  10.900  0.2828 -0.4075 -1.4292
39676SOL     OW23389   4.496   8.502   1.206 -0.0450 -0.1560 -0.0275
39676SOL    HW123390   4.573   8.450   1.181  0.6131  0.3527  0.8608
39676SOL    HW223391   4.448   8.514   1.125  0.0502 -1.7175 -0.3450
39677SOL     OW23392  10.739   9.786   9.042  0.3642 -0.5254  0.0738
39677SOL    HW123393  10.805   9.823   9.101 -1.2075 -0.3518  1.8411
39677SOL    HW223394  10.742   9.692   9.058 -1.8476 -0.3006  2.6037
39678SOL     OW23395   2.623   8.729   6.718 -0.3965  0.2101 -0.4646
39678SOL    HW123396   2.616   8.717   6.623 -1.0113  0.9551 -0.5286
39678SOL    HW223397   2.620   8.641   6.754  0.6438 -0.1345 -1.1785
39679SOL     OW23398   7.975   3.283   1.094 -0.0220  0.2475  0.1359
39679SOL    HW123399   7.905   3.336   1.132 -0.2099  0.7995 -0.9186
39679SOL    HW223400   7.948   3.270   1.003  1.4063  0.7938 -0.4036
39680SOL     OW23401  10.379   6.961   2.345  0.0752  0.5444 -0.1357
39680SOL    HW123402  10.297   6.965   2.394  0.1217  1.5445 -0.1122
39680SOL    HW223403  10.359   7.003   2.261 -0.1291 -1.5677 -1.1960
39681SOL     OW23404   2.396   3.147   5.823 -0.4959  0.1787  0.4474
39681SOL    HW123405   2.476   3.112   5.864 -0.6858  0.4376  1.0440
39681SOL    HW223406   2.428   3.217   5.766 -0.3840  1.1389  1.6350
39682SOL     OW23407   5.995   3.666   5.693  0.4726 -0.1425  0.1358
39682SOL    HW123408   5.975   3.639   5.604 -2.2208 -0.6384  0.7998
39682SOL    HW223409   5.970   3.759   5.696 -1.0725 -0.5570  0.7776
39683SOL     OW23410   5.872   9.845  10.803 -0.0720 -0.1357 -0.1784
39683SOL    HW123411   5.831   9.778  10.857  0.6602 -1.2599 -0.9683
39683SOL    HW223412   5.819   9.848  10.723  1.3762 -1.7430 -1.2950
39684SOL     OW23413   4.210  11.005   8.422 -0.0636  0.3158 -0.2272
39684SOL    HW123414   4.161  10.922   8.426  0.8873 -0.3411 -1.4899
39684SOL    HW223415   4.256  11.009   8.506 -0.5021 -0.1946  0.0483
39685SOL     OW23416   9.667  10.344  10.011  0.2524 -0.7553 -0.0422
39685SOL    HW123417   9.579  10.358   9.977 -0.5642 -1.7382  1.5585
39685SOL    HW223418   9.717  10.315   9.935 -0.5370  0.7071 -1.1724
39686SOL     OW23419   2.020   0.236   5.417  0.1004 -0.1562 -0.3453
39686SOL    HW123420   2.084   0.245   5.346 -1.0270  0.1610 -1.3694
39686SOL    HW223421   2.014   0.324   5.454 -0.4414  0.0511 -0.9016
39687SOL     OW23422   5.053  10.143   5.084 -0.4581 -0.1939 -0.0265
39687SOL    HW123423   5.104  10.205   5.137 -1.0546  2.1816 -2.0261
39687SOL    HW223424   4.962  10.159   5.109 -0.5108 -2.1556  1.2432
39688SOL     OW23425   6.443   8.002   8.185  0.4746  0.3335  0.0498
39688SOL    HW123426   6.367   7.964   8.228 -0.9176  0.4738 -2.1444
39688SOL    HW223427   6.430   8.097   8.193  1.4624  0.3997  1.3161
39689SOL     OW23428  10.201   9.459  10.373  0.1051 -0.2139  0.1130
39689SOL    HW123429  10.192   9.541  10.326  2.9521  0.6888  0.9298
39689SOL    HW223430  10.215   9.485  10.464  0.0998 -1.6558  0.5544
39690SOL     OW23431   7.758   6.579   7.596 -0.8863  0.3637  0.6302
39690SOL    HW123432   7.726   6.668   7.583  0.0141  0.4681 -1.1743
39690SOL    HW223433   7.686   6.534   7.639 -2.3007  1.3625 -0.5806
39691SOL     OW23434   5.111   2.699   9.740  0.0520 -0.6401  0.3715
39691SOL    HW123435   5.144   2.698   9.830 -0.5071  0.1141  0.5985
39691SOL    HW223436   5.018   2.680   9.749  0.3355 -2.4984 -0.2382
39692SOL     OW23437   9.550   9.272   9.932 -0.3371  0.7669 -0.1589
39692SOL    HW123438   9.633   9.318   9.919  0.3597 -0.0626  1.1583
39692SOL    HW223439   9.509   9.317  10.006 -0.0095 -0.2033  0.6334
39693SOL     OW23440   9.544   2.784   9.255  0.1497  0.2726 -0.2450
39693SOL    HW123441   9.457   2.811   9.226  1.0907  1.1699 -2.5016
39693SOL    HW223442   9.593   2.865   9.263  0.2099  0.0404  3.4892
39694SOL     OW23443   1.820   5.883   4.352  0.3951  0.2851 -0.3387
39694SOL    HW123444   1.728   5.857   4.343  0.3326  0.6568 -0.8286
39694SOL    HW223445   1.858   5.866   4.266  0.4430  1.4254 -0.5644
39695SOL     OW23446   0.203   9.220   8.614  0.2687  0.0340 -0.1856
39695SOL    HW123447   0.185   9.240   8.706  1.5697  2.2070 -0.3277
39695SOL    HW223448   0.120   9.234   8.569 -0.1075  0.0520  0.5011
39696SOL     OW23449   4.872  10.639   2.015 -0.0962 -0.2779 -0.6128
39696SOL    HW123450   4.832  10.712   2.062 -1.9399 -0.6912 -1.4161
39696SOL    HW223451   4.893  10.575   2.084  0.2685  0.4392 -0.0458
39697SOL     OW23452   3.431   5.938  10.332  0.5288 -0.4510  0.1496
39697SOL    HW123453   3.411   6.032  10.328 -0.9085 -0.7745 -0.9301
39697SOL    HW223454   3.465   5.917  10.245 -0.5965 -1.2315 -0.1124
39698SOL     OW23455   6.729   4.826   6.071 -0.0971  0.2141 -0.2091
39698SOL    HW123456   6.730   4.864   5.983 -1.1207  0.5278 -0.0996
39698SOL    HW223457   6.692   4.895   6.126 -1.8960 -0.8753  0.0160
39699SOL     OW23458   3.522   5.347   0.605 -0.2314  0.3900  0.0965
39699SOL    HW123459   3.536   5.349   0.700 -0.7883  0.9753  0.1732
39699SOL    HW223460   3.610   5.341   0.568  0.0025  0.3544  0.6498
39700SOL     OW23461   3.280  10.209   2.253 -0.0851 -0.7155  0.1683
39700SOL    HW123462   3.303  10.138   2.313  0.2831  0.6197  1.6755
39700SOL    HW223463   3.363  10.238   2.217 -0.1081 -0.2974  0.4477
39701SOL     OW23464   0.158   7.383   3.854 -0.3269 -0.0319 -0.5258
39701SOL    HW123465   0.100   7.376   3.929  0.1913  0.0928 -0.1083
39701SOL    HW223466   0.171   7.477   3.841 -0.0887 -0.0606 -0.5126
39702SOL     OW23467   7.844   6.542   6.443 -0.6980 -0.0147  0.2037
39702SOL    HW123468   7.796   6.624   6.436  0.1616  0.5280  0.4065
39702SOL    HW223469   7.779   6.474   6.430 -1.1643  0.7159 -1.5856
39703SOL     OW23470   3.784   9.530   9.641  0.1228  0.1422  0.4601
39703SOL    HW123471   3.833   9.515   9.722  2.3655  1.2927 -0.5873
39703SOL    HW223472   3.842   9.499   9.571 -1.2626  0.2535 -0.8035
39704SOL     OW23473   0.038   5.781   9.749 -0.0749 -0.1799 -0.7367
39704SOL    HW123474   0.036   5.703   9.804  0.4366 -0.9104 -1.7352
39704SOL    HW223475   0.131   5.800   9.738 -0.1912  0.4552 -0.6779
39705SOL     OW23476  10.692  10.518   6.016 -0.2315 -0.0922 -0.2604
39705SOL    HW123477  10.657  10.475   6.094  0.4079  0.4830  0.3592
39705SOL    HW223478  10.616  10.559   5.975 -0.0856  3.4991  2.5412
39706SOL     OW23479   2.784   4.306   5.799  0.0082 -0.3191 -0.2376
39706SOL    HW123480   2.788   4.365   5.723 -0.2707 -0.4568 -0.3616
39706SOL    HW223481   2.755   4.222   5.763 -0.4437 -0.2975  0.0706
39707SOL     OW23482   6.893   2.121   6.779  0.6036  0.1500 -0.0458
39707SOL    HW123483   6.924   2.161   6.861  1.0527  0.4108 -0.3369
39707SOL    HW223484   6.890   2.027   6.797 -0.1822  0.2801  0.5577
39708SOL     OW23485   5.556  10.493   5.771  0.2184 -0.7822  0.2409
39708SOL    HW123486   5.465  10.473   5.793  0.0673 -1.2024 -0.7273
39708SOL    HW223487   5.581  10.425   5.708  0.2829  0.9810 -1.7554
39709SOL     OW23488   7.546   6.719   3.215  0.3142 -0.3422 -0.0994
39709SOL    HW123489   7.638   6.744   3.216  0.0637  0.6428 -0.6531
39709SOL    HW223490   7.498   6.801   3.230 -0.4796 -0.8435  0.2122
39710SOL     OW23491   3.984  10.715   1.709  0.3304 -0.6278 -0.3314
39710SOL    HW123492   4.062  10.665   1.732  0.9601  0.1178 -0.7896
39710SOL    HW223493   3.921  10.696   1.779  2.0508  1.3265  1.8796
39711SOL     OW23494   0.891   8.128   0.460 -0.2674  1.0890  0.4614
39711SOL    HW123495   0.809   8.157   0.419 -1.3589  1.8206  3.0090
39711SOL    HW223496   0.886   8.160   0.550  2.1462 -0.2027  1.1358
39712SOL     OW23497   5.323   5.958   6.318  0.5157  0.0539 -0.4201
39712SOL    HW123498   5.326   5.891   6.250 -0.4753 -0.6060  0.1731
39712SOL    HW223499   5.383   6.026   6.286  1.4167 -1.0183 -1.1118
39713SOL     OW23500   0.072   4.749   4.618 -1.0943 -0.2074  0.3694
39713SOL    HW123501   0.163   4.722   4.633 -0.4925  1.7177  0.4564
39713SOL    HW223502   0.060   4.827   4.672 -2.3739  0.3578 -0.6630
39714SOL     OW23503   3.437   3.495   8.289  0.4448  0.2954  0.0955
39714SOL    HW123504   3.516   3.548   8.292 -0.3352  1.6503 -1.6582
39714SOL    HW223505   3.365   3.556   8.308 -0.2977 -0.5884  0.2243
39715SOL     OW23506   0.237   2.238   5.854  0.6869 -0.0728  0.0424
39715SOL    HW123507   0.250   2.179   5.929  3.1255  1.8173  1.2682
39715SOL    HW223508   0.263   2.187   5.778  0.6995 -1.2249  0.7957
39716SOL     OW23509   9.611   1.665   7.893  0.3787  0.1031 -0.9649
39716SOL    HW123510   9.700   1.698   7.884  0.2046  0.7807 -0.2818
39716SOL    HW223511   9.616   1.604   7.967  0.3520 -0.1607 -1.1778
39717SOL     OW23512   5.467   1.619   5.511  0.3572 -0.6627 -0.0169
39717SOL    HW123513   5.383   1.658   5.536  0.1144 -0.3714 -1.2356
39717SOL    HW223514   5.464   1.531   5.550  1.1392  0.6051  3.2025
39718SOL     OW23515   5.946   6.984   3.729  0.1302 -0.6004 -0.1187
39718SOL    HW123516   5.868   6.930   3.711  0.6923 -1.6868  0.5969
39718SOL    HW223517   5.991   6.938   3.800  1.5091 -0.0668 -0.6212
39719SOL     OW23518  10.227   2.578   0.814  0.2665 -0.4827 -0.1862
39719SOL    HW123519  10.203   2.581   0.722  1.2079  0.4423 -0.4168
39719SOL    HW223520  10.244   2.669   0.838 -0.8733 -0.5805  1.1659
39720SOL     OW23521   3.198   9.490   6.210 -0.2117  0.2277  0.2731
39720SOL    HW123522   3.104   9.475   6.215 -0.3723  0.7855 -0.7729
39720SOL    HW223523   3.228   9.487   6.301 -1.3041  0.4972  0.6511
39721SOL     OW23524   1.008   4.694   1.564  0.2611 -0.0661  0.1485
39721SOL    HW123525   1.006   4.789   1.572  2.3375 -0.0880  1.7979
39721SOL    HW223526   0.926   4.672   1.520 -1.0810  2.3382  1.2408
39722SOL     OW23527   0.334   9.361   0.888 -0.3213  0.4670 -0.0920
39722SOL    HW123528   0.346   9.346   0.794  0.5595  1.0648 -0.0873
39722SOL    HW223529   0.411   9.323   0.929  0.8711  2.8626  0.0989
39723SOL     OW23530   5.984   1.918  10.964 -0.2497 -0.3417 -0.4801
39723SOL    HW123531   5.997   1.825  10.980  2.0588 -0.5557 -2.9100
39723SOL    HW223532   6.067   1.959  10.989 -1.0138  1.0176 -0.0310
39724SOL     OW23533   2.569   0.639   8.287 -0.9141  0.5595 -0.2999
39724SOL    HW123534   2.504   0.574   8.259 -0.1887  0.2497 -1.3217
39724SOL    HW223535   2.625   0.591   8.348  0.0019  0.0132 -1.5363
39725SOL     OW23536   1.330   0.779   1.693  0.1464  0.1733  0.6796
39725SOL    HW123537   1.254   0.734   1.657  0.0525  1.3404 -0.7074
39725SOL    HW223538   1.392   0.783   1.620  2.3160 -2.2714  2.2420
39726SOL     OW23539   1.222   1.702   4.288 -0.2607 -0.8795  0.4058
39726SOL    HW123540   1.174   1.778   4.322  1.0377  0.5672 -0.8133
39726SOL    HW223541   1.248   1.653   4.366 -1.2646 -0.1656  1.2197
39727SOL     OW23542   6.731   5.247   7.162 -0.2114  0.1940  0.1154
39727SOL    HW123543   6.729   5.326   7.108 -0.4560  0.9283  1.1757
39727SOL    HW223544   6.671   5.186   7.118  1.6823 -0.2950 -1.9894
39728SOL     OW23545   2.415   2.722   6.174 -0.2692 -0.0049  0.5154
39728SOL    HW123546   2.394   2.714   6.081 -0.0490 -0.6275  0.5137
39728SOL    HW223547   2.332   2.704   6.219 -0.2074 -0.4458  0.4564
39729SOL     OW23548   0.636   7.226   3.090  0.1289  0.4200 -0.3845
39729SOL    HW123549   0.729   7.245   3.082  0.6467 -2.0278 -1.0316
39729SOL    HW223550   0.596   7.266   3.012  0.7050  1.1496 -0.3037
39730SOL     OW23551   8.293   8.992  10.928 -0.1813  0.0794  0.4684
39730SOL    HW123552   8.306   9.085  10.909 -2.6088 -0.0492 -2.7076
39730SOL    HW223553   8.280   8.989  11.023  1.6690  2.6688  0.9205
39731SOL     OW23554  10.681   4.700   4.347 -0.4778  0.5425 -0.0721
39731SOL    HW123555  10.624   4.682   4.421  0.4344 -1.4869  0.2079
39731SOL    HW223556  10.694   4.615   4.305  0.3763  1.3652 -1.5744
39732SOL     OW23557   5.522   8.533   6.118  0.2068  0.1412  0.0972
39732SOL    HW123558   5.593   8.522   6.182  0.1135  0.4374  0.2543
39732SOL    HW223559   5.443   8.529   6.171  0.1238  0.2621 -0.0198
39733SOL     OW23560   3.185   7.927   8.598 -0.0513  0.1152  0.0501
39733SOL    HW123561   3.271   7.897   8.570  0.5849  0.3191  1.6458
39733SOL    HW223562   3.192   8.023   8.600 -0.3811  0.1429 -0.0218
39734SOL     OW23563   9.084   7.044   6.617 -0.1532  0.3197  0.0422
39734SOL    HW123564   9.176   7.068   6.608 -0.7880  2.4074 -1.6605
39734SOL    HW223565   9.067   6.987   6.542 -0.4053  0.5262 -0.0607
39735SOL     OW23566   0.645   6.471   8.379 -0.0512  0.2818 -0.1958
39735SOL    HW123567   0.707   6.522   8.431 -1.0563 -0.1163  1.4855
39735SOL    HW223568   0.683   6.383   8.375 -0.1215  0.2315  0.1759
39736SOL     OW23569   7.828   6.819   6.882 -0.6188  0.2327 -0.3315
39736SOL    HW123570   7.859   6.755   6.818 -2.4831 -1.3568  0.2593
39736SOL    HW223571   7.906   6.872   6.902  0.7344 -1.1423 -1.6436
39737SOL     OW23572   8.179   9.964   1.745  0.1334 -0.4664  0.3700
39737SOL    HW123573   8.102   9.965   1.689  1.3065  0.3059 -1.3077
39737SOL    HW223574   8.161  10.029   1.813  0.1281  1.2732 -1.2218
39738SOL     OW23575   9.901   8.555   5.544 -0.3109  0.0337  0.2177
39738SOL    HW123576   9.975   8.613   5.525 -0.2658  0.1266  0.6559
39738SOL    HW223577   9.859   8.540   5.459  0.7942 -0.8242 -0.2187
39739SOL     OW23578   4.289   7.687   1.336 -0.0899 -0.0390  0.2764
39739SOL    HW123579   4.211   7.633   1.321  0.8179 -0.8283 -2.0796
39739SOL    HW223580   4.279   7.762   1.278  2.2322 -1.7113 -2.5612
39740SOL     OW23581   2.120   8.175   1.077  0.1091  0.5435  0.2421
39740SOL    HW123582   2.134   8.085   1.048  0.0699 -0.2318  2.3979
39740SOL    HW223583   2.041   8.204   1.031  0.3620 -0.3653 -0.7973
39741SOL     OW23584   2.724   4.831   4.494  0.1787  0.0304 -0.0043
39741SOL    HW123585   2.804   4.820   4.544  0.9392  0.9240 -0.9833
39741SOL    HW223586   2.753   4.832   4.402 -0.8492  1.1855 -0.3342
39742SOL     OW23587   4.325   6.493   3.329  0.0086  0.5105  0.1629
39742SOL    HW123588   4.248   6.550   3.322  0.4946  1.0374 -1.4791
39742SOL    HW223589   4.326   6.444   3.246 -0.2334 -1.7335  1.4010
39743SOL     OW23590   5.676   0.205  10.653  0.2105  0.4541  0.1612
39743SOL    HW123591   5.587   0.178  10.628  0.6787  0.1697 -1.2680
39743SOL    HW223592   5.668   0.298  10.672 -0.2888  0.5506 -0.4822
39744SOL     OW23593  10.362   1.348   2.405 -0.1968  0.2243 -0.2332
39744SOL    HW123594  10.389   1.329   2.315  1.2627 -0.2423  0.2684
39744SOL    HW223595  10.411   1.427   2.429  0.9331 -0.7484  0.7701
39745SOL     OW23596   9.572   6.120   4.183  0.3533  0.2050 -0.9570
39745SOL    HW123597   9.513   6.086   4.115 -0.1418  0.8209 -0.8425
39745SOL    HW223598   9.657   6.081   4.162 -0.1276 -0.8467 -1.0172
39746SOL     OW23599   4.521   9.529   4.669  0.6537 -0.7427  0.3670
39746SOL    HW123600   4.519   9.435   4.651  0.9807 -1.1323  2.1411
39746SOL    HW223601   4.533   9.535   4.764  2.4422  1.0974  0.1042
39747SOL     OW23602   3.276   7.663   9.891  0.1459 -0.8175  0.0553
39747SOL    HW123603   3.332   7.712   9.951  1.9667 -1.3266 -1.1308
39747SOL    HW223604   3.202   7.721   9.874 -0.8372 -0.9606  3.2921
39748SOL     OW23605   3.106  10.871   5.156 -0.2982 -0.2583 -0.2337
39748SOL    HW123606   3.118  10.945   5.097  2.1528  1.3726  2.0894
39748SOL    HW223607   3.163  10.803   5.120  0.6241  0.4652 -0.1826
39749SOL     OW23608   5.982   1.326   7.468 -0.0339 -0.0927  0.5462
39749SOL    HW123609   5.965   1.257   7.404  2.4712  0.3997 -0.7936
39749SOL    HW223610   6.055   1.293   7.520  0.2854  0.9820  0.7954
39750SOL     OW23611  10.995   2.520  10.119 -0.4790  0.5218  0.5808
39750SOL    HW123612  10.928   2.580  10.152  0.8045  1.6738  1.1502
39750SOL    HW223613  10.959   2.433  10.136 -1.6806  1.1119  1.1723
39751SOL     OW23614   0.922   8.821   0.304 -0.1282 -0.4299  0.2896
39751SOL    HW123615   0.928   8.902   0.253 -1.1111  0.3964  1.4418
39751SOL    HW223616   0.912   8.752   0.238 -0.2587  0.4850 -0.6747
39752SOL     OW23617   8.148   0.874   8.454  0.2382 -0.6765 -0.0913
39752SOL    HW123618   8.091   0.827   8.514 -0.1068 -1.9444 -1.3445
39752SOL    HW223619   8.089   0.927   8.401  0.3184 -1.0704 -0.5894
39753SOL     OW23620   9.714   7.996   2.131  0.6622  0.0715 -0.0999
39753SOL    HW123621   9.657   7.983   2.055  0.8687 -0.6366 -0.1389
39753SOL    HW223622   9.761   7.913   2.140 -0.2921 -0.3142  1.5756
39754SOL     OW23623   7.726   9.767   1.555  0.1865 -0.0666  0.0926
39754SOL    HW123624   7.685   9.720   1.627  2.1968 -1.1639  0.5991
39754SOL    HW223625   7.819   9.748   1.563  0.4764 -0.5734 -3.0452
39755SOL     OW23626   2.661   2.021   6.128 -0.1338 -0.0700  0.0817
39755SOL    HW123627   2.631   2.112   6.134 -1.4508 -0.3555 -1.4971
39755SOL    HW223628   2.585   1.969   6.151  0.7158 -0.8133  1.3479
39756SOL     OW23629   0.394   5.827   9.972  0.5049 -0.1578 -0.2568
39756SOL    HW123630   0.335   5.780  10.031  1.1424 -1.2011 -0.4292
39756SOL    HW223631   0.346   5.833   9.889  0.0863  0.2578  0.0095
39757SOL     OW23632   7.596   7.824   8.205  0.0853  0.0680  0.4274
39757SOL    HW123633   7.519   7.849   8.154  1.0641  1.0348 -0.6316
39757SOL    HW223634   7.666   7.817   8.141  1.5584  2.1344  1.6842
39758SOL     OW23635   5.509   6.374   5.816 -0.4830  0.9310  0.2824
39758SOL    HW123636   5.491   6.378   5.910 -1.6337 -2.0001  0.2961
39758SOL    HW223637   5.588   6.321   5.809 -0.1630  1.4913 -0.3878
39759SOL     OW23638   1.155   8.043   0.890 -0.1535  0.0554  0.2444
39759SOL    HW123639   1.146   8.092   0.972  1.0434 -0.5823  0.7796
39759SOL    HW223640   1.249   8.037   0.876 -0.3480  0.2779 -1.2738
39760SOL     OW23641  10.345   8.683   2.615  0.2126 -0.2434 -0.5339
39760SOL    HW123642  10.367   8.686   2.708  0.3635 -0.6326 -0.5543
39760SOL    HW223643  10.408   8.743   2.574 -1.0792  1.4475 -0.1743
39761SOL     OW23644   7.005   9.032   9.184  0.2135 -0.5080  0.2013
39761SOL    HW123645   7.085   9.083   9.172 -0.7399  1.1163  0.4113
39761SOL    HW223646   6.965   9.028   9.097  0.2507 -0.8508  0.1976
39762SOL     OW23647   0.149   1.556   3.592 -0.5549  0.1192  0.3222
39762SOL    HW123648   0.127   1.470   3.555 -0.4606 -0.2458  1.0932
39762SOL    HW223649   0.225   1.539   3.648 -3.0567 -0.2324  3.9646
39763SOL     OW23650   1.795   6.795   5.438 -0.2991  0.0621  0.2028
39763SOL    HW123651   1.857   6.811   5.508 -1.6143 -0.9428  1.6550
39763SOL    HW223652   1.848   6.798   5.358  1.8501 -1.9108  1.4263
39764SOL     OW23653   6.052   1.696   9.161 -0.4273 -0.1811  0.2241
39764SOL    HW123654   6.087   1.614   9.127 -1.1584 -1.1654  1.7705
39764SOL    HW223655   5.963   1.699   9.128 -0.2184  0.2976 -0.3139
39765SOL     OW23656   6.981   8.547   4.668  0.1306 -0.2503  0.2661
39765SOL    HW123657   6.980   8.643   4.666  1.1436 -0.2299  0.5048
39765SOL    HW223658   6.929   8.521   4.592  0.1395  0.4893 -0.0015
39766SOL     OW23659   9.580   4.289   4.030  0.6365 -0.3136 -0.2447
39766SOL    HW123660   9.611   4.296   3.940 -1.1874 -1.2934 -0.9906
39766SOL    HW223661   9.620   4.208   4.063  0.5695 -0.4450 -0.4850
39767SOL     OW23662   9.366   4.383   3.210 -0.5506  0.4503  0.4395
39767SOL    HW123663   9.438   4.412   3.267  0.9323 -1.7877 -0.1406
39767SOL    HW223664   9.368   4.444   3.136  0.1269  1.0005  0.8936
39768SOL     OW23665   5.095   3.680   8.843  0.2035 -0.4016 -0.2678
39768SOL    HW123666   5.105   3.604   8.901  1.2379 -0.3570 -0.3752
39768SOL    HW223667   5.013   3.721   8.872 -0.1732 -1.3366  0.0400
39769SOL     OW23668   5.927   1.660   2.883  0.6167 -0.3457 -0.0157
39769SOL    HW123669   5.896   1.620   2.801  0.4945 -0.0989 -0.0928
39769SOL    HW223670   5.919   1.754   2.867  1.2426 -0.2814  0.0296
39770SOL     OW23671   7.172   0.755   1.746 -0.5755  0.2548 -0.3977
39770SOL    HW123672   7.260   0.774   1.780 -0.9390  0.9362  0.1880
39770SOL    HW223673   7.152   0.829   1.689 -1.0135  0.4160 -0.0399
39771SOL     OW23674   9.163   5.485   1.123  0.5466 -0.0729  0.0439
39771SOL    HW123675   9.117   5.424   1.181 -0.6246  1.1283  0.4415
39771SOL    HW223676   9.095   5.516   1.063  1.2947  0.2311 -0.6591
39772SOL     OW23677   5.468   2.214   7.013  0.2484  0.3929 -0.0213
39772SOL    HW123678   5.430   2.133   6.978 -1.0647  0.2919  1.4955
39772SOL    HW223679   5.561   2.206   6.995  0.4047 -2.1933  1.3492
39773SOL     OW23680   7.471   1.086   2.665  0.0655 -0.1235  0.2278
39773SOL    HW123681   7.504   1.119   2.581  1.0525  0.7129  0.9032
39773SOL    HW223682   7.487   1.159   2.726  0.6625 -1.2177  1.4204
39774SOL     OW23683   0.935   2.944   7.700 -0.0206 -0.6072 -0.3291
39774SOL    HW123684   0.943   3.027   7.746  2.1631 -0.9469  0.0533
39774SOL    HW223685   0.929   2.878   7.770 -0.8323 -0.8293 -0.6061
39775SOL     OW23686   1.553   1.799   6.609  0.6372  0.0442  0.5719
39775SOL    HW123687   1.566   1.791   6.704 -0.9112 -2.5810  0.6624
39775SOL    HW223688   1.460   1.822   6.600  0.5534 -0.6026 -0.3005
39776SOL     OW23689   3.239   3.797   2.596 -0.6196  0.6682  0.3277
39776SOL    HW123690   3.292   3.821   2.672  0.2368 -0.0337 -0.0297
39776SOL    HW223691   3.203   3.879   2.565 -0.2564  1.0778  0.9607
39777SOL     OW23692   0.257   7.843   6.561 -0.1958 -0.1564 -0.1481
39777SOL    HW123693   0.300   7.894   6.629 -1.0844  2.3050 -1.3308
39777SOL    HW223694   0.302   7.867   6.480 -1.0339 -0.7850 -0.8185
39778SOL     OW23695   6.834   4.749   4.154  0.4134 -0.1154  0.5847
39778SOL    HW123696   6.922   4.757   4.118  0.2806  1.3332  0.4939
39778SOL    HW223697   6.777   4.792   4.089 -0.0211  1.1738  1.7555
39779SOL     OW23698  10.238   9.237   4.000  0.1183  0.0874  0.3545
39779SOL    HW123699  10.229   9.329   3.976  0.9772 -0.3585 -1.9235
39779SOL    HW223700  10.202   9.189   3.926  2.1843 -1.4083  0.2214
39780SOL     OW23701   3.553   2.117   5.932  0.5676  0.2421 -0.8107
39780SOL    HW123702   3.475   2.149   5.887  1.3094  2.2200 -0.8048
39780SOL    HW223703   3.599   2.064   5.867 -0.6170 -0.6955 -0.9041
39781SOL     OW23704   3.043   1.983   3.820  0.0459 -0.6421 -0.1806
39781SOL    HW123705   2.955   1.948   3.838  0.3100 -2.1412 -1.5621
39781SOL    HW223706   3.031   2.078   3.820 -1.5963 -0.8100 -0.4524
39782SOL     OW23707   2.786   4.346   0.113  0.0748 -0.3886  0.0366
39782SOL    HW123708   2.732   4.334   0.191 -1.0401  1.7385 -0.3369
39782SOL    HW223709   2.868   4.384   0.146 -0.1524 -0.0625  0.2265
39783SOL     OW23710   4.285   9.247   3.368  0.8252  0.3573  0.7621
39783SOL    HW123711   4.316   9.161   3.394  0.8547  0.2577  0.4140
39783SOL    HW223712   4.269   9.294   3.450 -1.2305 -0.6835  1.0238
39784SOL     OW23713   2.483   8.447  10.638  0.1799  0.7393  0.0514
39784SOL    HW123714   2.431   8.411  10.710  0.7753 -0.6230 -0.1693
39784SOL    HW223715   2.542   8.509  10.679  1.0505 -0.5946  0.8910
39785SOL     OW23716   3.786   9.985   2.258 -0.2798  0.3744  0.7324
39785SOL    HW123717   3.819  10.073   2.281 -0.9181  1.2219 -1.3796
39785SOL    HW223718   3.861   9.942   2.216 -0.1605  0.1135  1.1987
39786SOL     OW23719   7.376   9.041   4.520  0.2442 -0.1712  0.4991
39786SOL    HW123720   7.452   9.099   4.522 -0.2191  0.4578  0.1681
39786SOL    HW223721   7.382   8.990   4.601 -0.3139  1.6002  1.7006
39787SOL     OW23722   2.656   6.016   6.940  0.3737  0.1476  0.1826
39787SOL    HW123723   2.660   6.063   7.023  0.4547 -1.6052  1.2203
39787SOL    HW223724   2.574   6.045   6.899  0.2642  0.9199  0.9187
39788SOL     OW23725   1.846   7.643   2.195  0.2824 -0.8283 -0.0591
39788SOL    HW123726   1.837   7.616   2.286  0.8605 -0.3749  0.1309
39788SOL    HW223727   1.827   7.563   2.145  1.6597 -1.5395  0.4979
39789SOL     OW23728   9.995   5.574  10.311  0.5900  0.1554  0.4446
39789SOL    HW123729  10.069   5.529  10.354  0.6968  1.2258  1.4344
39789SOL    HW223730   9.942   5.606  10.384  0.6179  1.7834 -0.2117
39790SOL     OW23731   7.302  10.829   8.635 -0.4012  0.2031 -0.0371
39790SOL    HW123732   7.256  10.869   8.561  0.6175  1.7709  0.1265
39790SOL    HW223733   7.239  10.833   8.707 -0.6408  0.6972 -0.2691
39791SOL     OW23734  10.840  10.422   6.275 -0.3203 -0.0091 -0.0601
39791SOL    HW123735  10.936  10.430   6.278 -0.4071  1.0085  0.4453
39791SOL    HW223736  10.808  10.512   6.281 -1.3114 -0.2834 -0.8815
39792SOL     OW23737   1.669   1.480   2.639  0.6041  0.6547  0.0393
39792SOL    HW123738   1.719   1.413   2.685 -1.2777  0.5235  2.0512
39792SOL    HW223739   1.678   1.558   2.694 -0.7110  0.8399  0.0152
39793SOL     OW23740   8.564   9.068   0.312  0.4931  0.2025  0.0870
39793SOL    HW123741   8.564   8.986   0.263  1.2779  1.8264 -2.8489
39793SOL    HW223742   8.494   9.120   0.272  1.2816  1.6712  0.5386
39794SOL     OW23743   2.150   8.149   6.037  0.2795 -0.2705  0.3272
39794SOL    HW123744   2.099   8.179   5.962 -0.1850 -0.7583  0.4451
39794SOL    HW223745   2.146   8.222   6.099  0.0325 -0.1636  0.1853
39795SOL     OW23746   4.581   6.616   7.244  0.4791 -0.1973  0.4675
39795SOL    HW123747   4.603   6.597   7.335  2.5965  1.1328  0.3237
39795SOL    HW223748   4.656   6.584   7.194 -0.1578  0.0571 -0.6965
39796SOL     OW23749   5.667  10.450   3.101 -0.2700 -0.5339 -0.1183
39796SOL    HW123750   5.744  10.478   3.151 -1.2912  1.1929  0.5718
39796SOL    HW223751   5.625  10.384   3.156  0.7236 -1.5157 -0.5174
39797SOL     OW23752   6.675  10.298   4.097 -0.1659 -0.6667 -0.3023
39797SOL    HW123753   6.652  10.244   4.174 -0.2972  1.8177  1.5246
39797SOL    HW223754   6.590  10.320   4.058 -0.2900  0.2420  0.4520
39798SOL     OW23755   5.086   9.585   8.138  0.2827  0.1053  0.1956
39798SOL    HW123756   5.018   9.623   8.081 -0.1062  0.5086  0.9125
39798SOL    HW223757   5.163   9.641   8.124 -0.2797  1.1771  1.2219
39799SOL     OW23758   1.264   0.088   0.434  0.0332 -0.2682  0.4521
39799SOL    HW123759   1.319   0.067   0.358 -1.0796 -0.2959 -0.3718
39799SOL    HW223760   1.265   0.184   0.438 -0.9361 -0.2095 -0.4002
39800SOL     OW23761   6.118   0.069   3.555  0.0339 -0.3211 -0.5668
39800SOL    HW123762   6.062   0.133   3.599 -2.5127 -1.0086 -2.5398
39800SOL    HW223763   6.125   0.101   3.465 -1.1007 -2.5632 -1.5334
39801SOL     OW23764   1.570   8.811   4.386 -0.3691 -0.0325 -0.3481
39801SOL    HW123765   1.610   8.891   4.352  0.4304 -0.4104 -0.3299
39801SOL    HW223766   1.535   8.836   4.471  1.5381 -0.1264  0.5177
39802SOL     OW23767   6.574   2.390   9.422 -0.4259  0.3448  0.0123
39802SOL    HW123768   6.604   2.448   9.493  2.0339 -0.1470 -0.5443
39802SOL    HW223769   6.540   2.450   9.356  0.5568  1.0895  0.1489
39803SOL     OW23770   6.451   6.066   5.108  0.6672 -0.0615 -0.0170
39803SOL    HW123771   6.527   6.009   5.098  0.4905 -0.4982  1.0078
39803SOL    HW223772   6.391   6.038   5.040  0.5062 -1.2391  0.5919
39804SOL     OW23773   0.857   4.312   5.879  0.7733 -0.2267  0.3890
39804SOL    HW123774   0.918   4.358   5.821 -0.4170  0.7694 -0.1279
39804SOL    HW223775   0.823   4.381   5.936  1.1827 -1.0252  1.6410
39805SOL     OW23776   1.504   9.123   0.458  0.3842  0.2999 -0.4628
39805SOL    HW123777   1.453   9.058   0.506  2.4090 -0.9187  0.1798
39805SOL    HW223778   1.473   9.207   0.490  0.1309 -0.4358  1.3341
39806SOL     OW23779   0.403   8.745   7.502 -0.1767 -0.4346 -0.0945
39806SOL    HW123780   0.349   8.797   7.561 -1.1773 -2.0898  0.5321
39806SOL    HW223781   0.488   8.739   7.545 -0.2090  0.2342  0.0655
39807SOL     OW23782   8.707   2.941   0.628 -0.0893 -0.3538  0.2449
39807SOL    HW123783   8.676   2.855   0.601 -1.0745  0.1377 -0.2541
39807SOL    HW223784   8.638   3.001   0.600  1.5087  0.8700 -1.3331
39808SOL     OW23785   7.523   2.003   7.463 -0.1247  0.2931 -0.3644
39808SOL    HW123786   7.434   2.032   7.485 -0.1757  1.9682 -2.4933
39808SOL    HW223787   7.516   1.908   7.457 -1.3671  0.2514  1.0542
39809SOL     OW23788   5.400   4.864   9.004 -0.5405  0.2577  0.3223
39809SOL    HW123789   5.447   4.809   9.067  3.6958  0.2732 -2.4376
39809SOL    HW223790   5.355   4.802   8.948  1.9632 -0.4129 -1.0979
39810SOL     OW23791   6.476   1.839   5.054 -0.2147  0.3185 -0.0251
39810SOL    HW123792   6.546   1.878   5.001 -0.1229 -1.6526 -1.4385
39810SOL    HW223793   6.473   1.748   5.027 -0.0287 -0.9263  3.5347
39811SOL     OW23794   7.067   7.737   3.784 -0.0143 -0.0982 -0.5500
39811SOL    HW123795   7.003   7.778   3.843  1.2090  2.5699 -0.9487
39811SOL    HW223796   7.100   7.662   3.833 -1.8196 -0.2610  0.5354
39812SOL     OW23797   9.539   2.851   2.392 -0.1558  0.0920 -0.1680
39812SOL    HW123798   9.633   2.836   2.379  0.1560  1.6757  0.1148
39812SOL    HW223799   9.503   2.852   2.303  0.1696 -0.0119 -0.3021
39813SOL     OW23800   1.982   4.944   1.315 -0.3432  0.5091 -0.2818
39813SOL    HW123801   2.019   4.908   1.235 -0.5452 -1.0410  0.2882
39813SOL    HW223802   2.044   4.919   1.384 -2.4650 -2.4379  0.7577
39814SOL     OW23803   9.710   3.695  10.724  0.4479  0.4399 -0.3933
39814SOL    HW123804   9.742   3.608  10.698  0.0420  0.5033 -1.1305
39814SOL    HW223805   9.645   3.717  10.658  1.1105  1.6633 -0.6583
39815SOL     OW23806  10.754   1.043   2.636  0.4959 -0.1087  0.5332
39815SOL    HW123807  10.714   0.956   2.639 -1.3524  0.6445 -0.4747
39815SOL    HW223808  10.760   1.063   2.542 -0.3260  1.3333  0.7520
39816SOL     OW23809   9.096   6.215   1.206 -0.1353 -0.2119 -0.3762
39816SOL    HW123810   9.115   6.125   1.234 -1.1184 -0.7431 -1.3229
39816SOL    HW223811   9.173   6.265   1.232 -0.1989 -1.0240  1.5167
39817SOL     OW23812   9.342   6.139   5.156 -0.8122 -0.0951 -0.1728
39817SOL    HW123813   9.324   6.219   5.106  0.4273 -0.1367 -0.7284
39817SOL    HW223814   9.340   6.069   5.092  0.7514 -0.1533 -0.2108
39818SOL     OW23815   9.935  10.507   7.212 -0.0378  0.0598  0.8423
39818SOL    HW123816   9.869  10.516   7.280 -0.9078 -0.3177  0.0691
39818SOL    HW223817   9.889  10.527   7.131  0.7319 -0.4497  0.2607
39819SOL     OW23818   4.224   1.756   4.294 -0.6585 -0.5818  0.3463
39819SOL    HW123819   4.165   1.765   4.219  0.0224  0.7481 -0.0641
39819SOL    HW223820   4.185   1.687   4.347 -2.2906 -0.1242 -0.2007
39820SOL     OW23821   3.699   6.455   2.236  0.2773 -0.9884  0.1266
39820SOL    HW123822   3.604   6.449   2.237  0.3188 -1.8837  0.0667
39820SOL    HW223823   3.727   6.399   2.309  0.7011  1.0720  1.6264
39821SOL     OW23824   0.508   0.209   7.672 -0.6876  0.2668 -0.2212
39821SOL    HW123825   0.555   0.261   7.607 -1.4237 -1.0700 -1.9100
39821SOL    HW223826   0.488   0.271   7.742 -0.6739  2.0034 -1.6776
39822SOL     OW23827   7.382   1.977   2.138 -0.0699  0.1084  0.0283
39822SOL    HW123828   7.318   2.042   2.108 -0.6673 -1.1413 -1.5800
39822SOL    HW223829   7.449   1.976   2.070 -0.0644 -0.9334  0.0221
39823SOL     OW23830   8.289   0.793   8.219 -0.5289  0.0541  0.3891
39823SOL    HW123831   8.214   0.773   8.164 -0.9432  3.3532 -0.4653
39823SOL    HW223832   8.252   0.811   8.306 -0.3417 -1.0780  0.7247
39824SOL     OW23833   0.969   3.214   7.762  0.3990  0.7837  0.3885
39824SOL    HW123834   1.053   3.199   7.719  0.0299  0.8309 -0.3583
39824SOL    HW223835   0.978   3.171   7.847  1.0426  0.4626  0.1669
39825SOL     OW23836   2.183   8.470   1.373 -0.3854  0.1123  0.2708
39825SOL    HW123837   2.254   8.412   1.400  0.0504 -0.2799 -1.5600
39825SOL    HW223838   2.167   8.447   1.281 -2.5513  0.5348  0.4819
39826SOL     OW23839   5.399   2.381   0.473  0.0273 -0.7622 -0.3784
39826SOL    HW123840   5.446   2.415   0.549  0.4579 -2.0844 -0.0232
39826SOL    HW223841   5.322   2.338   0.509  0.2692 -1.4603 -0.6796
39827SOL     OW23842  10.300   6.957   8.695 -0.0991 -0.0553  0.6397
39827SOL    HW123843  10.356   6.961   8.618  0.5528 -1.5693  0.9955
39827SOL    HW223844  10.235   7.025   8.681  0.1769 -0.1053 -1.0991
39828SOL     OW23845   7.544   6.013   0.587 -0.4542  0.4742  0.3907
39828SOL    HW123846   7.606   5.940   0.579  0.2468  0.9542  1.1789
39828SOL    HW223847   7.508   6.024   0.499  0.9007  0.4444 -0.1892
39829SOL     OW23848   1.877   5.672   2.137 -0.1222 -0.3037  0.2867
39829SOL    HW123849   1.967   5.662   2.107  0.6751 -1.2970  2.7309
39829SOL    HW223850   1.870   5.612   2.211 -2.2511  1.0709  1.3024
39830SOL     OW23851   1.186   3.944   2.097  0.1734 -0.6300 -0.4062
39830SOL    HW123852   1.113   3.944   2.035 -0.3934 -0.0599  0.2420
39830SOL    HW223853   1.148   3.913   2.179  0.3909  0.6604  0.2105
39831SOL     OW23854   9.176  10.594   5.237  0.0571  0.1887 -0.6136
39831SOL    HW123855   9.239  10.657   5.201 -1.1471  1.2607 -0.8974
39831SOL    HW223856   9.140  10.550   5.160  0.7786 -0.7769 -0.4255
39832SOL     OW23857  10.105   8.577   9.926  0.0585 -0.0437 -0.0336
39832SOL    HW123858  10.180   8.552   9.980 -0.6084 -3.0668 -0.3407
39832SOL    HW223859  10.029   8.544   9.974 -0.8327  0.2287 -1.2235
39833SOL     OW23860   9.145   4.652   2.219  0.4494 -0.4527  0.0113
39833SOL    HW123861   9.195   4.726   2.186  1.1501 -1.2294 -0.7397
39833SOL    HW223862   9.177   4.639   2.308 -0.1958  0.5773  0.4114
39834SOL     OW23863   7.681   6.096   8.985 -0.2255 -0.6767  0.1828
39834SOL    HW123864   7.636   6.153   9.047  2.7407  1.7003  0.3388
39834SOL    HW223865   7.636   6.112   8.902 -0.6848  0.4160  0.6219
39835SOL     OW23866   1.274   6.183   6.978  0.2461 -0.3869  0.2085
39835SOL    HW123867   1.300   6.258   6.925 -0.8562 -0.2740 -0.1889
39835SOL    HW223868   1.352   6.162   7.029  1.4070 -0.5976 -1.5494
39836SOL     OW23869   5.157   8.645   3.589  0.6338  0.5291 -0.4717
39836SOL    HW123870   5.207   8.704   3.645 -1.4495  0.9256  1.1251
39836SOL    HW223871   5.189   8.558   3.609 -0.1168  0.6497  1.5127
39837SOL     OW23872   2.563   0.838   3.775  0.4481  0.1770 -0.1135
39837SOL    HW123873   2.611   0.824   3.693  0.6239 -1.9415  0.2964
39837SOL    HW223874   2.629   0.873   3.835  1.4166 -2.0794  0.2487
39838SOL     OW23875   8.557   0.236   2.154 -0.2535  0.0412 -0.4229
39838SOL    HW123876   8.610   0.301   2.107  1.3715 -1.0406 -0.1704
39838SOL    HW223877   8.619   0.190   2.209 -2.1010  1.5278  3.2623
39839SOL     OW23878   9.388   3.312   2.987 -0.5189 -0.1223 -0.1811
39839SOL    HW123879   9.303   3.343   3.016  0.1359  3.6637 -1.6874
39839SOL    HW223880   9.449   3.341   3.055  0.0388  1.6083 -1.3347
39840SOL     OW23881   9.027   9.155   7.528  0.3233  0.0758 -0.7860
39840SOL    HW123882   9.008   9.098   7.602  1.7331  0.7959  0.1795
39840SOL    HW223883   8.977   9.235   7.545  2.0165  0.9602  0.4139
39841SOL     OW23884   8.515   5.039   6.689 -0.1756  0.4303 -1.1174
39841SOL    HW123885   8.521   5.133   6.705 -1.4154  0.4994 -0.9543
39841SOL    HW223886   8.433   5.013   6.731  0.7019 -0.9429 -0.1608
39842SOL     OW23887   3.664   8.112   3.003 -0.0174 -0.0859 -0.4352
39842SOL    HW123888   3.674   8.044   2.936  0.5376 -1.2816  0.8166
39842SOL    HW223889   3.628   8.066   3.079 -0.7538  1.2671  0.0798
39843SOL     OW23890   9.224   6.875   1.463  0.2139 -0.4967 -0.8836
39843SOL    HW123891   9.295   6.823   1.425  0.1955 -0.6558 -0.6983
39843SOL    HW223892   9.165   6.811   1.503  0.1874 -0.3338 -0.6603
39844SOL     OW23893   4.411  10.203   8.682 -0.0526 -0.3889  0.0531
39844SOL    HW123894   4.441  10.120   8.721  0.7230 -1.1223 -1.9569
39844SOL    HW223895   4.377  10.178   8.596 -1.6077  1.1623  0.1676
39845SOL     OW23896   2.380   8.789   1.190 -0.0699  0.1677 -0.7244
39845SOL    HW123897   2.397   8.770   1.097  0.3881  0.6355 -0.7361
39845SOL    HW223898   2.324   8.716   1.219  0.6219 -0.5245 -1.1020
39846SOL     OW23899  10.493   5.656   4.095 -0.8520  0.3665 -0.1976
39846SOL    HW123900  10.509   5.654   4.189  2.4893  2.5142 -0.5296
39846SOL    HW223901  10.498   5.749   4.072 -0.0249 -0.2111 -2.6724
39847SOL     OW23902   6.108   5.280   6.882  0.3738  0.2934  0.1130
39847SOL    HW123903   6.079   5.370   6.865 -1.6499 -0.0620  1.4296
39847SOL    HW223904   6.194   5.291   6.923  1.4929  1.4519 -2.2745
39848SOL     OW23905   3.438   7.500   5.694  0.1087 -0.7434 -0.5270
39848SOL    HW123906   3.404   7.517   5.607  0.4431 -2.0366 -0.9440
39848SOL    HW223907   3.425   7.406   5.707 -0.2145 -0.5249  0.9483
39849SOL     OW23908   9.298   5.689   0.612  0.0877 -0.3871 -0.3698
39849SOL    HW123909   9.372   5.713   0.668 -0.9252 -0.8313  1.1898
39849SOL    HW223910   9.331   5.617   0.558  0.8817 -0.3966  0.1153
39850SOL     OW23911   1.489   3.570   5.679 -0.1411  0.4320 -0.1624
39850SOL    HW123912   1.498   3.493   5.736 -0.4473  0.6452  0.1842
39850SOL    HW223913   1.578   3.590   5.651 -0.2614 -1.4472 -2.1695
39851SOL     OW23914   9.023   4.681   8.588  0.1767  0.1592  0.3393
39851SOL    HW123915   9.085   4.717   8.524 -0.9445  0.4202 -0.6487
39851SOL    HW223916   8.943   4.732   8.574  0.1915  0.9098  2.6841
39852SOL     OW23917   8.033   4.895   1.442  0.2043 -0.0911  0.0018
39852SOL    HW123918   8.002   4.829   1.380  0.1384 -1.4135  1.3759
39852SOL    HW223919   8.013   4.858   1.528  0.3256  1.6606  0.8265
39853SOL     OW23920   0.410   4.890  11.086 -0.3889 -0.3020  0.5439
39853SOL    HW123921   0.463   4.812  11.103  1.9558  0.9265 -0.7524
39853SOL    HW223922   0.380   4.879  10.996  1.0276  0.8559 -0.0917
39854SOL     OW23923   7.357  10.466   7.585  0.2895  0.2506  0.0050
39854SOL    HW123924   7.359  10.380   7.544  1.6830  0.9205 -1.4497
39854SOL    HW223925   7.307  10.520   7.524  1.1242  0.9175 -0.1113
39855SOL     OW23926   4.205   0.473   6.191 -0.0672 -0.7292  0.2524
39855SOL    HW123927   4.193   0.384   6.225  0.5568 -0.6648  0.6647
39855SOL    HW223928   4.290   0.471   6.148  1.9635  0.6321  3.7183
39856SOL     OW23929   6.771   4.936   5.046  0.5298 -0.4785 -0.0326
39856SOL    HW123930   6.723   4.859   5.075 -0.5925  0.3719  0.4646
39856SOL    HW223931   6.786   4.921   4.953  2.1983 -2.2268  0.4568
39857SOL     OW23932   0.595   1.110  10.269  0.0258 -0.2066  0.4949
39857SOL    HW123933   0.639   1.082  10.189 -1.4236  0.2270 -0.5068
39857SOL    HW223934   0.551   1.031  10.301 -0.1071 -0.1844  0.3691
39858SOL     OW23935   3.967   4.621   3.573 -0.8301  0.2316  0.1114
39858SOL    HW123936   3.935   4.599   3.660  1.6792  1.3036  1.3830
39858SOL    HW223937   4.039   4.560   3.557  0.8374  2.0737  0.2150
39859SOL     OW23938   3.247   4.075   5.588  0.1929  0.2077 -0.1386
39859SOL    HW123939   3.334   4.046   5.614  0.1866  0.4445  0.1491
39859SOL    HW223940   3.221   4.137   5.656  0.0437  0.5865 -0.5315
39860SOL     OW23941   8.286  10.566   1.381 -0.0522  0.1400 -0.0632
39860SOL    HW123942   8.267  10.593   1.471  0.7348 -0.6703  0.3590
39860SOL    HW223943   8.232  10.488   1.367 -1.6539  1.3485 -0.9831
39861SOL     OW23944   0.073   8.121   9.070 -0.5742  0.5268  0.0616
39861SOL    HW123945  -0.022   8.107   9.067 -0.8105  1.5385  1.6005
39861SOL    HW223946   0.090   8.149   9.160  1.3560 -0.6556  0.1212
39862SOL     OW23947  10.140   5.848   4.632  0.1397  0.2244  0.0887
39862SOL    HW123948  10.203   5.820   4.698  0.1991  0.6904  0.2292
39862SOL    HW223949  10.108   5.766   4.594 -1.3297 -0.1653  2.0064
39863SOL     OW23950  10.490   3.837   5.911  0.1180 -0.3708  0.6768
39863SOL    HW123951  10.478   3.799   5.998  2.8019  1.1532  1.8312
39863SOL    HW223952  10.505   3.930   5.927  1.6215 -0.2018 -1.3166
39864SOL     OW23953   9.384   0.334   0.034  0.2437 -0.0844 -0.6408
39864SOL    HW123954   9.421   0.318  -0.053 -0.4699  0.3833 -1.0463
39864SOL    HW223955   9.386   0.429   0.043 -0.3400 -0.0838 -0.4501
39865SOL     OW23956   3.952   9.803   6.654  0.4818  0.2446  0.6251
39865SOL    HW123957   3.977   9.807   6.746  0.5198  0.6996  0.5968
39865SOL    HW223958   3.863   9.837   6.651 -0.1773 -1.3894  0.7267
39866SOL     OW23959   6.455   0.269   5.278  0.5388 -0.0940  0.4186
39866SOL    HW123960   6.513   0.195   5.293 -0.9624 -1.6146 -0.9302
39866SOL    HW223961   6.467   0.291   5.185  0.2146  0.6837  0.5501
39867SOL     OW23962   8.489   6.561   9.544  0.2668 -0.0454  0.3220
39867SOL    HW123963   8.569   6.611   9.562  0.3350 -0.7029  1.9917
39867SOL    HW223964   8.462   6.528   9.629 -2.2165  0.7361 -0.1081
39868SOL     OW23965   7.646   9.727   4.676  0.4444 -0.3387 -0.3045
39868SOL    HW123966   7.557   9.750   4.647  0.2927 -0.5422 -0.0120
39868SOL    HW223967   7.704   9.767   4.611  0.0629 -2.2006 -1.9121
39869SOL     OW23968   1.553   7.593  10.364 -0.0484 -0.0838  0.1867
39869SOL    HW123969   1.524   7.630  10.447 -1.1955  0.3176 -0.3612
39869SOL    HW223970   1.476   7.601  10.307  0.3707 -1.3444 -0.5856
39870SOL     OW23971   5.440   1.428   1.945 -0.1105 -0.5599 -0.2780
39870SOL    HW123972   5.479   1.371   2.012  0.5074 -1.2175 -1.1810
39870SOL    HW223973   5.452   1.516   1.980 -2.1843 -0.9703  1.7382
39871SOL     OW23974   6.821   3.532   4.212  0.2920  0.3655  0.0637
39871SOL    HW123975   6.854   3.485   4.288 -0.2403  0.0703  0.1189
39871SOL    HW223976   6.883   3.510   4.142  0.1805 -0.2463  0.1444
39872SOL     OW23977  10.521   8.373   1.761 -0.2438  0.1039 -0.0597
39872SOL    HW123978  10.426   8.361   1.766 -0.2711 -0.0762 -0.8150
39872SOL    HW223979  10.533   8.427   1.683  0.3235 -0.4636 -0.3637
39873SOL     OW23980   4.805   4.370   3.343  0.3775 -0.3104  0.1413
39873SOL    HW123981   4.898   4.351   3.327 -0.0712 -0.7837 -2.3177
39873SOL    HW223982   4.804   4.461   3.372  1.6858 -0.7120  1.6338
39874SOL     OW23983   9.877   7.659   3.117  0.1364 -0.0716 -0.0687
39874SOL    HW123984   9.969   7.656   3.144  0.3734 -0.0590 -0.8504
39874SOL    HW223985   9.844   7.571   3.132  0.0237  0.1497  1.0504
39875SOL     OW23986   4.107   3.228   3.264 -0.1797  0.2222  0.3924
39875SOL    HW123987   4.065   3.147   3.295  1.3142 -0.4230  0.8067
39875SOL    HW223988   4.159   3.258   3.339  3.0499 -1.0581 -1.1664
39876SOL     OW23989   8.988   7.124   4.550 -0.0016  0.3450  0.0003
39876SOL    HW123990   8.969   7.217   4.538  0.0516  0.2220 -1.1616
39876SOL    HW223991   8.925   7.079   4.494  2.3783 -0.1374 -2.5010
39877SOL     OW23992   6.967   1.884   2.827 -0.1151 -0.1268  0.5196
39877SOL    HW123993   7.012   1.900   2.910 -0.3815 -0.5032  0.7430
39877SOL    HW223994   7.021   1.819   2.782 -0.5886 -0.8170  0.9273
39878SOL     OW23995  11.010   9.712   2.822  0.3583 -0.3292  0.6741
39878SOL    HW123996  11.102   9.689   2.834  0.1361 -1.2026  0.7385
39878SOL    HW223997  10.967   9.629   2.802 -0.1942  0.2723 -0.7199
39879SOL     OW23998   2.905   6.764   0.653  0.0524  0.8966  0.0740
39879SOL    HW123999   2.978   6.761   0.715 -0.6444 -0.6721  0.9009
39879SOL    HW224000   2.854   6.841   0.679 -0.3288  0.1631  1.6376
39880SOL     OW24001   9.031   8.519   2.512 -0.4146 -0.0512 -0.0275
39880SOL    HW124002   9.062   8.461   2.581  0.0776  1.1342  0.7745
39880SOL    HW224003   8.945   8.549   2.543 -0.9302 -0.7765 -0.7108
39881SOL     OW24004  10.376   7.520   7.295 -0.1257  0.2248  0.5465
39881SOL    HW124005  10.465   7.543   7.322  0.3704 -0.2962 -0.5832
39881SOL    HW224006  10.365   7.564   7.210 -1.3763  1.2317  1.1977
39882SOL     OW24007   6.454   6.499   6.974 -0.2319 -0.1285 -0.6927
39882SOL    HW124008   6.398   6.551   7.031  3.0162  1.4109  1.4282
39882SOL    HW224009   6.428   6.524   6.885 -1.4055  2.1399  0.2107
39883SOL     OW24010   7.027   5.956   4.432  0.0286  0.0415  0.1535
39883SOL    HW124011   6.950   6.008   4.409 -1.6940 -1.6833  1.7030
39883SOL    HW224012   7.078   5.953   4.351 -1.2146  1.7187 -0.7614
39884SOL     OW24013   2.980  10.339   1.047 -0.2908 -0.2621  0.1633
39884SOL    HW124014   3.002  10.411   1.106 -1.1919  1.2890 -1.3029
39884SOL    HW224015   3.038  10.351   0.971 -0.9468 -0.6496 -0.4161
39885SOL     OW24016   4.605   6.671   9.604 -0.1408 -0.4531  0.4975
39885SOL    HW124017   4.631   6.609   9.536 -0.0108 -0.0025  0.1332
39885SOL    HW224018   4.687   6.711   9.633 -0.3738  0.7951 -0.4825
39886SOL     OW24019   1.283   2.496   6.330  0.0858 -0.0733 -0.1453
39886SOL    HW124020   1.305   2.441   6.255 -0.0167  0.3826 -0.5152
39886SOL    HW224021   1.318   2.582   6.308 -0.0976  0.1069  0.2547
39887SOL     OW24022  10.756   8.904   0.350 -0.2011 -0.1915 -0.2496
39887SOL    HW124023  10.746   8.809   0.337 -0.0534 -0.2067 -0.2592
39887SOL    HW224024  10.667   8.936   0.362 -0.2746 -0.2910 -0.5213
39888SOL     OW24025   7.649   3.645   7.289 -0.8450 -0.5617  0.1509
39888SOL    HW124026   7.561   3.678   7.269 -0.3677  1.1682  0.8241
39888SOL    HW224027   7.634   3.556   7.321 -2.3462 -0.3021  0.2295
39889SOL     OW24028   5.852   5.624  11.057  0.7302  0.2349  0.2574
39889SOL    HW124029   5.838   5.634  10.963  0.1273  1.0809  0.4290
39889SOL    HW224030   5.805   5.544  11.080  1.5698 -0.4318 -0.2973
39890SOL     OW24031   8.117   8.632   1.483  0.3015 -0.3481 -0.2102
39890SOL    HW124032   8.085   8.714   1.445 -1.4612  0.0698  1.9659
39890SOL    HW224033   8.080   8.564   1.427 -2.1665  0.2410  0.6122
39891SOL     OW24034  10.308   0.165   4.207 -0.2793 -0.7209  0.2027
39891SOL    HW124035  10.396   0.128   4.202  1.4155  2.8687 -0.0082
39891SOL    HW224036  10.289   0.195   4.118 -1.1312 -0.2975  0.5058
39892SOL     OW24037   8.743   0.286   3.960 -0.2293  0.3308  0.3966
39892SOL    HW124038   8.725   0.309   4.051 -0.1843  2.7890 -0.1586
39892SOL    HW224039   8.733   0.368   3.911  0.8373 -0.6764 -1.6650
39893SOL     OW24040   4.631   7.849   3.105  0.2205  0.1990 -0.0781
39893SOL    HW124041   4.580   7.768   3.117 -1.2171  1.0626 -0.2010
39893SOL    HW224042   4.631   7.863   3.011 -0.0914  0.6823 -0.0082
39894SOL     OW24043   0.799   7.905   8.412  0.2792 -0.6167 -0.3253
39894SOL    HW124044   0.878   7.941   8.372  0.7319 -0.8236  0.3651
39894SOL    HW224045   0.796   7.814   8.380  0.6586 -0.7921  0.1222
39895SOL     OW24046   7.665   2.629   8.655  0.0104 -0.0144 -0.2015
39895SOL    HW124047   7.635   2.674   8.576  1.0116 -0.0914 -0.6411
39895SOL    HW224048   7.641   2.537   8.641 -0.4267  0.0815 -0.1012
39896SOL     OW24049   9.834   4.085   6.623  0.3601 -0.2695 -0.1714
39896SOL    HW124050   9.809   4.130   6.543  3.1461  1.3304 -0.2721
39896SOL    HW224051   9.887   4.148   6.671  1.6024 -2.3172  1.3284
39897SOL     OW24052   9.188  10.933   3.048 -0.0177 -0.2304  0.6554
39897SOL    HW124053   9.135  10.950   2.969  2.4137 -1.4989 -1.4076
39897SOL    HW224054   9.178  11.012   3.101  0.2728  1.8442 -2.1676
39898SOL     OW24055   0.967   0.017   4.958  0.3719  0.3514  0.3056
39898SOL    HW124056   0.949  -0.047   5.027  1.5707  1.7983  2.0910
39898SOL    HW224057   1.059   0.039   4.970  0.5337  0.8849 -1.6235
39899SOL     OW24058   3.374   9.217   5.410 -0.3693 -0.2428  0.4231
39899SOL    HW124059   3.439   9.162   5.453 -0.3935  0.2860  1.1568
39899SOL    HW224060   3.321   9.156   5.358  0.8464 -0.6475 -0.3883
39900SOL     OW24061   6.295   8.856   0.704 -0.2784 -0.6766  0.0515
39900SOL    HW124062   6.304   8.906   0.622  0.9813 -0.0037  0.5774
39900SOL    HW224063   6.341   8.774   0.687  0.3511 -0.3613  0.2194
39901SOL     OW24064   9.862   1.497   5.362 -0.1130 -0.2471 -0.9592
39901SOL    HW124065   9.794   1.520   5.424  0.3246 -0.1426 -0.5145
39901SOL    HW224066   9.853   1.402   5.351  0.9424 -0.5715  0.6460
39902SOL     OW24067   1.620  10.075   8.888  0.4321  0.3097  0.0694
39902SOL    HW124068   1.612   9.980   8.888 -0.3878  0.3714  0.2764
39902SOL    HW224069   1.713  10.091   8.873  0.4742 -0.5136 -0.6200
39903SOL     OW24070   8.963   7.083   0.306 -0.0818 -0.2373 -0.0037
39903SOL    HW124071   8.984   7.007   0.360  1.7582 -0.9095 -1.5427
39903SOL    HW224072   8.873   7.105   0.329  0.4869 -0.6180  3.1081
39904SOL     OW24073   2.123   4.330   6.829  0.4491 -0.0053 -0.2474
39904SOL    HW124074   2.112   4.258   6.767 -0.3150 -2.0708  2.1426
39904SOL    HW224075   2.205   4.311   6.874 -0.4108 -0.1804  1.3249
39905SOL     OW24076   1.692   9.449   3.709  0.0525  0.0257  0.1993
39905SOL    HW124077   1.627   9.437   3.779  1.4945  0.4996  1.6659
39905SOL    HW224078   1.667   9.532   3.669  0.2204  0.6312  1.3058
39906SOL     OW24079  10.060   1.725   9.372  0.3633 -0.3856  0.0217
39906SOL    HW124080   9.978   1.682   9.396 -0.0076 -0.3887 -1.1740
39906SOL    HW224081  10.127   1.658   9.387  0.3068 -0.0285  2.0421
39907SOL     OW24082   7.411   8.086   0.565  0.7010 -0.2505 -0.0895
39907SOL    HW124083   7.428   8.176   0.538  1.5253 -0.1931  0.5901
39907SOL    HW224084   7.380   8.092   0.655 -0.9327 -0.5319 -0.6004
39908SOL     OW24085   8.699  10.382   5.533  0.4363 -0.1652  0.0634
39908SOL    HW124086   8.762  10.439   5.488 -0.8409  0.8868 -0.4493
39908SOL    HW224087   8.753  10.312   5.570  1.7006 -0.4637 -2.1321
39909SOL     OW24088   4.133   8.056   3.829  0.2131  0.4681 -0.0557
39909SOL    HW124089   4.208   8.017   3.872  0.2182 -1.1551 -1.3909
39909SOL    HW224090   4.103   8.125   3.888  1.7578  0.0717  1.2455
39910SOL     OW24091   9.153  10.405   4.015  0.2110 -0.4545  0.8443
39910SOL    HW124092   9.248  10.409   4.006  0.1763 -1.1021  0.0050
39910SOL    HW224093   9.120  10.413   3.926 -0.6032  1.1492  1.2567
39911SOL     OW24094   0.653  10.850   3.663  0.0709  0.3552  0.1838
39911SOL    HW124095   0.577  10.905   3.685 -0.3912  0.7364 -2.1770
39911SOL    HW224096   0.670  10.801   3.744 -0.8195  2.3972  1.7196
39912SOL     OW24097   1.939   5.035   9.021 -0.6585 -0.1477 -0.6380
39912SOL    HW124098   1.928   5.087   9.101  0.6782  0.9784 -1.1530
39912SOL    HW224099   1.910   5.092   8.950  0.7677 -0.0871 -1.2047
39913SOL     OW24100  10.750   9.708   7.635 -0.2518  0.0795  0.5430
39913SOL    HW124101  10.724   9.650   7.706  0.6165 -0.1929  0.6529
39913SOL    HW224102  10.731   9.659   7.555  1.6087 -0.9011  0.6484
39914SOL     OW24103   4.200   7.817   7.018 -0.0050  0.1574  0.2004
39914SOL    HW124104   4.138   7.796   6.949  1.2530 -3.4896 -0.0290
39914SOL    HW224105   4.248   7.893   6.984 -1.1428  0.0883 -1.7296
39915SOL     OW24106   7.796   2.948   8.632 -0.0960  0.1536  0.4302
39915SOL    HW124107   7.824   2.979   8.718  0.0594  1.5351 -0.0913
39915SOL    HW224108   7.724   3.006   8.608 -1.3059 -1.3172  0.3487
39916SOL     OW24109   5.284   7.570   5.673  0.3325 -0.2489  0.6931
39916SOL    HW124110   5.279   7.530   5.587  2.4275  1.3209 -0.2593
39916SOL    HW224111   5.209   7.630   5.676 -1.4664 -2.3761  1.2273
39917SOL     OW24112   6.379   7.695   9.407 -0.0777 -0.2850 -0.2964
39917SOL    HW124113   6.284   7.702   9.415  0.1102  0.5145  2.2845
39917SOL    HW224114   6.394   7.603   9.386 -1.3809 -1.2384  2.4279
39918SOL     OW24115   0.814   9.971   1.957  0.0730 -0.1743 -0.0457
39918SOL    HW124116   0.831   9.948   1.866 -0.8283  0.0508 -0.2906
39918SOL    HW224117   0.815   9.888   2.004 -0.1993 -0.3844 -0.4006
39919SOL     OW24118   0.018  10.411   6.645 -0.1857  0.9762 -0.1745
39919SOL    HW124119   0.094  10.364   6.679  0.0135  0.8157 -0.8223
39919SOL    HW224120  -0.027  10.444   6.723 -0.0415  0.1601  0.2658
39920SOL     OW24121   5.900   5.156   7.932  0.0524 -0.4004  0.0332
39920SOL    HW124122   5.964   5.181   7.866  0.8001 -1.2682  0.4170
39920SOL    HW224123   5.910   5.222   8.001 -0.3075  0.1553 -0.4440
39921SOL     OW24124   4.346   4.381   8.611 -0.3833 -0.2680 -0.3121
39921SOL    HW124125   4.321   4.291   8.591 -1.6751  0.3361 -1.6612
39921SOL    HW224126   4.368   4.419   8.526  2.3482  0.1150  0.4844
39922SOL     OW24127   9.252   9.873  10.902  0.3830  0.2968 -0.1460
39922SOL    HW124128   9.254   9.786  10.942 -0.6171  0.4786  0.3424
39922SOL    HW224129   9.169   9.876  10.855 -0.4587  1.6014  1.3265
39923SOL     OW24130   2.063   8.434   5.566 -0.5297 -0.7978  0.2045
39923SOL    HW124131   2.045   8.340   5.567  0.8460 -1.0791  0.6847
39923SOL    HW224132   2.147   8.443   5.611 -0.9350  0.7348  0.7228
39924SOL     OW24133   4.115   4.973   0.616  0.0966 -0.2630 -0.1691
39924SOL    HW124134   4.127   5.068   0.612  1.2987 -0.4273 -0.7871
39924SOL    HW224135   4.097   4.947   0.526  2.0312 -0.8782 -0.4256
39925SOL     OW24136   9.228  10.326   0.527 -0.2056 -0.0098 -0.7289
39925SOL    HW124137   9.273  10.400   0.568 -1.9922  1.6174 -1.5194
39925SOL    HW224138   9.273  10.248   0.560  1.3593  1.3953  0.6184
39926SOL     OW24139   9.024   8.949   2.026  0.3810 -0.0328 -0.2325
39926SOL    HW124140   9.067   8.967   1.942  0.5807 -0.5661 -0.2492
39926SOL    HW224141   9.093   8.958   2.091  0.4590 -0.6084 -0.2298
39927SOL     OW24142   8.324   7.659   9.708 -0.2446  0.1820 -0.0158
39927SOL    HW124143   8.230   7.664   9.727 -0.4045 -0.1623 -0.6667
39927SOL    HW224144   8.330   7.598   9.634  0.4495  0.5966 -0.3105
39928SOL     OW24145   0.732   3.696   1.635 -0.2083 -0.0129  0.3473
39928SOL    HW124146   0.636   3.704   1.635 -0.1357  1.2523 -0.4212
39928SOL    HW224147   0.761   3.769   1.581  1.1771 -0.7214  0.1011
39929SOL     OW24148  11.009   0.459   3.126 -0.1804  0.1000 -0.2016
39929SOL    HW124149  11.026   0.544   3.167 -0.3891  0.9684 -1.8203
39929SOL    HW224150  10.986   0.401   3.199  0.0624  1.4027  0.9480
39930SOL     OW24151   4.761   8.000   8.716 -0.1866  0.8467 -0.1211
39930SOL    HW124152   4.671   7.972   8.699  0.2869 -0.0814 -1.3106
39930SOL    HW224153   4.771   8.079   8.664 -0.2120  0.7394 -0.2918
39931SOL     OW24154   6.437   1.532   6.897 -0.2756 -0.9876 -0.7355
39931SOL    HW124155   6.520   1.536   6.850 -0.3304 -1.1665 -0.8455
39931SOL    HW224156   6.371   1.560   6.834 -0.1910  0.0690 -0.3760
39932SOL     OW24157   7.819   1.818  10.297  0.2364 -0.1960  0.4649
39932SOL    HW124158   7.829   1.795  10.204  0.6224 -1.3666  0.7809
39932SOL    HW224159   7.766   1.898  10.296  0.1741 -0.2286 -0.7593
39933SOL     OW24160   4.420   0.754   1.844 -0.1107 -0.3101  0.4298
39933SOL    HW124161   4.412   0.817   1.915  0.0144 -0.1163  0.2733
39933SOL    HW224162   4.427   0.807   1.765 -0.7523 -0.5345  0.2188
39934SOL     OW24163   0.270   0.713   8.341  1.0176 -0.1055  0.2048
39934SOL    HW124164   0.188   0.757   8.365 -0.0011 -2.5471  1.5936
39934SOL    HW224165   0.338   0.778   8.358 -0.6013  2.2305 -1.5983
39935SOL     OW24166  10.103   8.014   2.056 -0.0607 -0.3437  0.2503
39935SOL    HW124167  10.071   7.924   2.056  0.9103 -0.7210 -1.0183
39935SOL    HW224168  10.051   8.058   2.123 -2.4677 -1.1836 -0.9383
39936SOL     OW24169   7.100   3.644   2.371  0.0104 -0.3261 -0.3847
39936SOL    HW124170   7.059   3.563   2.339  0.9083 -0.9413 -0.0228
39936SOL    HW224171   7.078   3.647   2.464 -2.7001  1.5261 -0.9665
39937SOL     OW24172   8.029  10.055  10.836  0.2590 -0.0022  0.2095
39937SOL    HW124173   8.121  10.031  10.845  0.3655  0.2052 -0.2982
39937SOL    HW224174   7.981   9.981  10.873  0.5364 -1.6435 -2.4815
39938SOL     OW24175   2.921   1.342   6.415 -0.6607  0.4921  0.3715
39938SOL    HW124176   2.856   1.274   6.397 -0.0252 -0.3266  1.0403
39938SOL    HW224177   2.987   1.332   6.346 -0.8056  0.7409  0.1975
39939SOL     OW24178   1.294   7.265   6.331  0.0825 -0.1155 -0.3777
39939SOL    HW124179   1.303   7.177   6.296  2.4549  0.1513 -0.5446
39939SOL    HW224180   1.219   7.302   6.283 -1.0869 -2.0745 -0.1399
39940SOL     OW24181   3.859   0.076   2.049 -0.1597  0.2038 -0.0227
39940SOL    HW124182   3.926   0.030   2.099 -0.4321  0.1361  0.2831
39940SOL    HW224183   3.849   0.160   2.094  0.4234  0.6240 -0.6498
39941SOL     OW24184   5.441  10.101   1.754  0.3174  0.1069  0.5724
39941SOL    HW124185   5.379  10.051   1.702  0.2201  2.3367 -1.6313
39941SOL    HW224186   5.527  10.080   1.717  0.4565  0.2292  0.8176
39942SOL     OW24187   2.654   9.836  10.475 -0.1817 -0.2047  0.0165
39942SOL    HW124188   2.668   9.763  10.536 -0.0424  0.6082  0.9881
39942SOL    HW224189   2.578   9.810  10.424 -0.2009 -0.9881  0.4273
39943SOL     OW24190   6.552   7.032   8.755  0.6383 -0.1460  0.2085
39943SOL    HW124191   6.595   7.024   8.840  0.1765  1.2731  0.6053
39943SOL    HW224192   6.504   6.949   8.745  0.7138 -0.3432  1.3113
39944SOL     OW24193   7.831   9.954   0.921 -0.0525 -0.3205  0.9293
39944SOL    HW124194   7.858  10.042   0.893 -0.2467 -0.6184 -0.2781
39944SOL    HW224195   7.816   9.962   1.015 -1.1419  1.2184  0.6525
39945SOL     OW24196   0.093   6.206   4.835 -0.1899  0.1851 -0.1729
39945SOL    HW124197   0.093   6.301   4.845 -2.3346  0.1948  0.1416
39945SOL    HW224198   0.057   6.190   4.748  0.3165 -0.3427 -0.2920
39946SOL     OW24199   9.460   8.557   5.365  1.1511 -0.8743  0.1682
39946SOL    HW124200   9.421   8.471   5.377  0.6676 -0.6063  0.5658
39946SOL    HW224201   9.400   8.603   5.307  0.5808 -0.2855  1.1899
39947SOL     OW24202   5.004   8.058   2.703  0.0544  0.3949 -0.3465
39947SOL    HW124203   5.098   8.062   2.685  0.4126 -0.1544  1.2704
39947SOL    HW224204   4.992   7.976   2.751 -0.8645  1.5151  1.4581
39948SOL     OW24205   7.250   5.575   6.144 -0.1788 -0.1895  0.3406
39948SOL    HW124206   7.261   5.604   6.234 -2.6800 -0.8728  0.9656
39948SOL    HW224207   7.185   5.635   6.108  0.3424 -0.3071 -0.8215
39949SOL     OW24208   0.981   0.565   6.879 -0.6330  0.3171 -0.5065
39949SOL    HW124209   0.939   0.493   6.925  1.0439  0.2691  1.0978
39949SOL    HW224210   1.019   0.619   6.949  0.6666  1.1247 -1.7731
39950SOL     OW24211   0.838   5.737   7.836 -0.2424  0.2553 -0.4440
39950SOL    HW124212   0.831   5.660   7.892 -1.3440  0.2368 -0.5925
39950SOL    HW224213   0.768   5.795   7.866 -0.0525  0.7822 -0.9915
39951SOL     OW24214   1.452   9.483   3.872  0.6021  0.1409  0.6077
39951SOL    HW124215   1.361   9.459   3.853  1.0467 -0.9125 -0.3216
39951SOL    HW224216   1.462   9.569   3.832 -0.1289  0.5149  1.1989
39952SOL     OW24217   1.921   3.237   7.981 -0.0974 -0.7420 -0.6844
39952SOL    HW124218   1.988   3.201   7.923 -0.1377  1.7140 -2.4277
39952SOL    HW224219   1.886   3.312   7.934  0.7729  2.3151  3.0299
39953SOL     OW24220   2.229  10.947   3.210 -0.4648  0.5269  0.0861
39953SOL    HW124221   2.292  10.956   3.282  0.9992  1.5661 -1.2567
39953SOL    HW224222   2.147  10.981   3.245 -0.4632 -1.2736  2.0363
39954SOL     OW24223   7.601   4.445   9.087  0.1638  0.3845 -0.3356
39954SOL    HW124224   7.544   4.381   9.043  1.0309 -0.2817 -0.5133
39954SOL    HW224225   7.551   4.472   9.164 -0.1725 -0.6205 -0.1833
39955SOL     OW24226   1.918   7.193   3.690  0.0117 -0.0767 -0.3712
39955SOL    HW124227   1.916   7.099   3.675  1.0393  0.1813 -2.3389
39955SOL    HW224228   1.969   7.203   3.771 -1.5668 -1.2597  0.8329
39956SOL     OW24229   0.355   9.329   9.050 -0.4188  0.0369 -0.1409
39956SOL    HW124230   0.302   9.394   9.097 -0.2442  0.7445 -0.8901
39956SOL    HW224231   0.293   9.258   9.030 -0.9462  0.5841 -0.4863
39957SOL     OW24232   0.163   4.085   4.302  0.3791  0.0049 -0.0005
39957SOL    HW124233   0.173   4.022   4.231 -2.1837 -0.6530  0.1143
39957SOL    HW224234   0.071   4.077   4.328  0.5436  2.2074  1.5289
39958SOL     OW24235   3.189   4.140   7.096  0.3382  0.1907 -0.0880
39958SOL    HW124236   3.241   4.060   7.090 -1.3077 -0.8582 -1.3658
39958SOL    HW224237   3.119   4.118   7.157  1.4573  1.6752  1.8324
39959SOL     OW24238   5.687   2.203   5.357 -0.2443 -0.2309 -0.2834
39959SOL    HW124239   5.717   2.207   5.267  0.4558  1.1571 -0.0115
39959SOL    HW224240   5.767   2.203   5.409 -0.6274  1.8726  0.4058
39960SOL     OW24241   9.279   5.384   1.382 -0.2633 -0.6509 -0.2654
39960SOL    HW124242   9.346   5.412   1.445 -0.5491 -2.8692  1.1441
39960SOL    HW224243   9.326   5.326   1.322 -0.6119 -1.0143 -0.1873
39961SOL     OW24244   8.669  10.087   8.880  0.7769 -0.7534 -0.3069
39961SOL    HW124245   8.705  10.146   8.814  1.0000 -0.0543  0.4348
39961SOL    HW224246   8.579  10.115   8.891  0.4606 -1.4527 -0.9550
39962SOL     OW24247   9.784   0.977   2.159 -0.1384 -0.2278 -0.7757
39962SOL    HW124248   9.824   0.903   2.204 -3.5312 -1.5686  0.3372
39962SOL    HW224249   9.831   0.983   2.075  4.6894  0.7544  1.6656
39963SOL     OW24250   9.340   6.479   5.885  0.5125  0.3073  0.0533
39963SOL    HW124251   9.278   6.418   5.846 -0.8036  1.3949  0.3563
39963SOL    HW224252   9.426   6.443   5.864 -0.1954 -0.6696 -1.3440
39964SOL     OW24253   3.886   7.399   5.271  0.0768  0.3537  0.2090
39964SOL    HW124254   3.934   7.335   5.324  0.7846  0.9607  0.3231
39964SOL    HW224255   3.816   7.430   5.329  0.7723  0.9263  0.7613
39965SOL     OW24256  10.187   4.913  10.134  0.5658  0.3422  0.5871
39965SOL    HW124257  10.216   4.825  10.156  0.8226  0.2900  0.0445
39965SOL    HW224258  10.099   4.919  10.171  0.9475  0.2306  1.5465
39966SOL     OW24259   4.121   7.893   1.158 -0.3040  0.4165  0.2671
39966SOL    HW124260   4.096   7.971   1.108 -1.8920 -1.0586 -1.3902
39966SOL    HW224261   4.216   7.889   1.151 -0.3093  1.5187 -0.6986
39967SOL     OW24262   7.485   3.036   6.355  0.0464  0.0745 -0.3920
39967SOL    HW124263   7.515   2.947   6.374 -1.3415 -0.5184 -0.8601
39967SOL    HW224264   7.494   3.045   6.260  0.4785  0.5689 -0.3137
39968SOL     OW24265   0.107   2.822   7.065 -0.0897 -0.1761 -0.0640
39968SOL    HW124266   0.111   2.918   7.070  0.0707 -0.1406 -0.7550
39968SOL    HW224267   0.184   2.792   7.113 -0.7068 -0.0014  1.0776
39969SOL     OW24268   4.333   1.158   7.039  0.2127  0.3214  0.3721
39969SOL    HW124269   4.311   1.065   7.033 -1.1071  0.6925 -1.9641
39969SOL    HW224270   4.396   1.173   6.969 -2.0896  1.7047 -1.5884
39970SOL     OW24271   8.179   8.628   8.603  0.0976  0.2553  0.0967
39970SOL    HW124272   8.111   8.657   8.663  0.3945  1.2023 -0.0149
39970SOL    HW224273   8.262   8.651   8.646  0.3917 -1.5189  0.5592
39971SOL     OW24274   5.260   3.533   4.950  0.2041  0.6831 -0.2796
39971SOL    HW124275   5.352   3.508   4.949  0.4630  1.5649 -0.0195
39971SOL    HW224276   5.261   3.628   4.965 -0.7262  0.8251 -0.9949
39972SOL     OW24277   3.271   4.104   6.822  0.5787  0.6116 -0.1180
39972SOL    HW124278   3.267   4.167   6.894 -1.3984 -0.1593  0.5229
39972SOL    HW224279   3.285   4.019   6.866  0.5497  0.2820 -0.7353
39973SOL     OW24280   7.352  10.043   0.210  0.1374 -0.4096  0.0396
39973SOL    HW124281   7.361  10.131   0.173 -0.4654  0.4529  1.7963
39973SOL    HW224282   7.437  10.024   0.250  0.3695 -0.7728 -0.6168
39974SOL     OW24283   6.740   7.782   3.729  0.0502  0.5032 -0.5569
39974SOL    HW124284   6.655   7.766   3.770 -0.0610 -0.5715 -1.1692
39974SOL    HW224285   6.766   7.698   3.693  1.7467  0.6229  0.2754
39975SOL     OW24286   6.663   9.815   8.061 -0.0940 -0.0737  0.5457
39975SOL    HW124287   6.751   9.834   8.094 -0.5109  2.2749  0.5032
39975SOL    HW224288   6.663   9.721   8.043  2.4954 -0.0695  0.2419
39976SOL     OW24289   0.466   8.235   3.310 -0.6332  0.2075 -0.6505
39976SOL    HW124290   0.375   8.224   3.340 -0.5302  0.3919 -0.2677
39976SOL    HW224291   0.473   8.328   3.289 -1.1378 -0.1578 -2.6909
39977SOL     OW24292  10.274   1.078   0.287 -0.0102 -0.7602 -0.1320
39977SOL    HW124293  10.301   1.068   0.378 -0.6559  1.7345  0.4063
39977SOL    HW224294  10.353   1.058   0.236  1.6394  1.8379  1.1917
39978SOL     OW24295   9.094   2.933   1.944 -0.2616 -0.0066 -0.7493
39978SOL    HW124296   9.158   2.936   1.874  0.6045  1.3505  0.0636
39978SOL    HW224297   9.112   2.851   1.990 -0.4843 -0.6335 -1.7506
39979SOL     OW24298   7.322   4.769   1.370  0.1703  0.2197 -1.0696
39979SOL    HW124299   7.254   4.794   1.432  2.1942 -0.0684  1.4000
39979SOL    HW224300   7.274   4.748   1.289 -2.8868 -2.0573  1.1022
39980SOL     OW24301   1.636   7.015   9.269  0.5774  0.0833 -0.2155
39980SOL    HW124302   1.595   7.038   9.352 -1.1282  2.0018 -1.4813
39980SOL    HW224303   1.679   7.095   9.240  2.8440 -1.1043 -0.3014
39981SOL     OW24304   7.722   9.543   6.625  0.2409 -0.4037 -0.1780
39981SOL    HW124305   7.669   9.502   6.693 -0.9014 -0.3405 -0.9972
39981SOL    HW224306   7.688   9.507   6.543  0.4837  0.7327 -0.8038
39982SOL     OW24307   4.267   6.789   5.933 -0.3010 -0.2686 -0.2629
39982SOL    HW124308   4.242   6.774   6.023 -0.4254 -2.1782 -0.5787
39982SOL    HW224309   4.303   6.705   5.903  4.7062  1.5782 -0.4406
39983SOL     OW24310   0.790   6.215  10.516  0.2582 -0.1864 -0.2595
39983SOL    HW124311   0.790   6.255  10.604  0.9244 -0.1326 -0.2765
39983SOL    HW224312   0.801   6.121  10.533  0.5086 -0.1636 -0.2828
39984SOL     OW24313   0.487   4.240   1.521  0.1863 -0.2781  0.8378
39984SOL    HW124314   0.479   4.209   1.431 -1.1455 -0.3752  0.9667
39984SOL    HW224315   0.581   4.240   1.538  0.3553 -2.5327  0.2403
39985SOL     OW24316   4.817   6.526   7.075  0.0677  0.8445  0.2296
39985SOL    HW124317   4.903   6.521   7.033 -0.8225  0.6359 -1.6335
39985SOL    HW224318   4.767   6.455   7.036 -1.3012  1.6303  0.5116
39986SOL     OW24319   5.355  10.895   0.139 -0.0335  0.1958 -0.0322
39986SOL    HW124320   5.334  10.988   0.147  0.3686  0.5980 -2.6566
39986SOL    HW224321   5.443  10.893   0.100 -0.4734 -1.2283 -1.0602
39987SOL     OW24322   6.942   1.002   9.338 -0.2190  0.0023 -0.0183
39987SOL    HW124323   6.977   1.057   9.268 -0.1258 -0.9960 -0.7705
39987SOL    HW224324   6.854   0.977   9.309 -0.5307  0.3011  0.6330
39988SOL     OW24325   6.865   4.380   3.392 -0.2268  0.0171 -0.1566
39988SOL    HW124326   6.855   4.330   3.311  0.9717 -0.3631 -0.0923
39988SOL    HW224327   6.790   4.439   3.394  0.5819  1.2241 -2.3936
39989SOL     OW24328   2.753  10.032  10.190 -0.2333 -0.6607 -0.2418
39989SOL    HW124329   2.721  10.101  10.248 -1.0330 -0.6754 -0.6497
39989SOL    HW224330   2.819   9.986  10.242 -1.1796 -0.8976  0.7907
39990SOL     OW24331   1.208   7.971   0.124 -0.1124  0.3077 -0.0700
39990SOL    HW124332   1.183   7.944   0.212 -0.5843 -0.6558 -0.4826
39990SOL    HW224333   1.303   7.975   0.125  0.0174 -1.7320 -0.0611
39991SOL     OW24334   6.770   7.191   7.364  0.1526 -0.1710  0.2993
39991SOL    HW124335   6.821   7.132   7.419  0.4375  1.0607  1.4246
39991SOL    HW224336   6.798   7.172   7.275 -0.7738 -2.6680  0.4530
39992SOL     OW24337   8.908   4.726   0.297  0.5057  0.4046 -0.1401
39992SOL    HW124338   8.823   4.770   0.285  1.1211  1.9579  0.8068
39992SOL    HW224339   8.952   4.737   0.213  0.0194  0.1419 -0.4364
39993SOL     OW24340   5.974  10.665   0.382  0.4964 -0.8323  0.2418
39993SOL    HW124341   6.019  10.612   0.317 -0.2554  0.3417 -1.3210
39993SOL    HW224342   5.889  10.686   0.341  0.1707  0.2732  1.4150
39994SOL     OW24343   7.611   0.210  10.929 -0.0007 -0.3029  0.2202
39994SOL    HW124344   7.695   0.172  10.903 -0.1559 -1.4940  1.3626
39994SOL    HW224345   7.628   0.304  10.933  1.0785 -0.4574 -0.2853
39995SOL     OW24346   4.417   9.238   7.111  0.4387 -0.5578 -0.5060
39995SOL    HW124347   4.476   9.202   7.177 -0.4586  1.2368  1.3795
39995SOL    HW224348   4.470   9.298   7.060  1.0761 -1.7656 -1.3243
39996SOL     OW24349   4.145   6.732   6.161  0.4671 -0.5845 -0.6279
39996SOL    HW124350   4.075   6.692   6.110  0.1191 -0.6543 -0.1091
39996SOL    HW224351   4.185   6.658   6.207 -0.9782 -0.2410  1.3117
39997SOL     OW24352   0.441   1.138   7.713 -0.0595 -0.2099 -0.1560
39997SOL    HW124353   0.399   1.079   7.650  0.6105 -0.3545 -0.4697
39997SOL    HW224354   0.466   1.214   7.660 -0.6330  0.2247  0.1844
39998SOL     OW24355   1.322   8.679   2.255  0.4316 -0.0164 -0.5489
39998SOL    HW124356   1.346   8.650   2.166  1.1420  0.2978 -0.4708
39998SOL    HW224357   1.338   8.773   2.254 -0.6301  0.1756 -0.4127
39999SOL     OW24358   1.438   7.374   0.879 -0.2631 -0.0472 -0.8264
39999SOL    HW124359   1.359   7.321   0.870 -1.1904  1.1557 -0.0625
39999SOL    HW224360   1.510   7.312   0.868 -1.2939 -1.0756 -2.1097
40000SOL     OW24361   1.270   2.202   1.076  0.4636 -0.7281 -0.2234
40000SOL    HW124362   1.236   2.247   1.154 -0.9362 -2.4716  0.2417
40000SOL    HW224363   1.192   2.172   1.029  1.3078 -0.4291 -1.8896
40001SOL     OW24364   4.795   0.773   5.243  1.1301 -0.0054  0.2367
40001SOL    HW124365   4.790   0.857   5.287 -0.6190 -1.6271  3.5120
40001SOL    HW224366   4.858   0.723   5.294 -1.7248 -2.3246  1.7993
40002SOL     OW24367   6.344   2.647   8.944  0.2774  0.5724  0.0650
40002SOL    HW124368   6.330   2.734   8.981 -0.2198  1.1921 -1.4934
40002SOL    HW224369   6.268   2.632   8.888  1.6502  0.3162 -1.8325
40003SOL     OW24370   8.157   1.898   4.037 -0.3528 -0.1144 -0.1018
40003SOL    HW124371   8.198   1.921   3.954  0.6681 -0.1335  0.3846
40003SOL    HW224372   8.217   1.837   4.078 -1.2269 -0.7126  0.3152
40004SOL     OW24373   0.582   0.363   5.149 -0.2683  1.1117 -0.3471
40004SOL    HW124374   0.645   0.381   5.219 -0.3093  2.2415 -0.5841
40004SOL    HW224375   0.585   0.268   5.139 -0.3379  0.9013  1.2589
40005SOL     OW24376   1.485  10.933  10.390 -0.0926  0.3118 -0.4607
40005SOL    HW124377   1.417  10.867  10.403 -0.3912  0.3827 -1.5918
40005SOL    HW224378   1.537  10.900  10.317  2.6462 -0.9824  1.8702
40006SOL     OW24379   7.825   6.986   2.415  0.2327 -0.1092  0.0665
40006SOL    HW124380   7.834   7.058   2.478 -1.0762  1.7065 -1.6792
40006SOL    HW224381   7.913   6.973   2.381  0.2669  1.9829 -0.8474
40007SOL     OW24382   3.453  10.778   7.506 -0.1162  0.2856 -0.0615
40007SOL    HW124383   3.359  10.782   7.490  0.1077 -1.4322 -2.3666
40007SOL    HW224384   3.464  10.811   7.596 -2.7591  1.4454 -0.0803
40008SOL     OW24385   7.152  10.017   9.082  0.4331  0.1382  0.4344
40008SOL    HW124386   7.091  10.050   9.148 -1.4252 -1.3137 -0.4519
40008SOL    HW224387   7.207  10.092   9.060 -0.5381  1.3079  1.8302
40009SOL     OW24388   3.965   9.419   2.601  0.6719 -0.1515  0.1165
40009SOL    HW124389   3.928   9.362   2.668  0.8226  0.5829  0.8407
40009SOL    HW224390   3.911   9.498   2.604  1.0857  0.1484 -0.1802
40010SOL     OW24391   0.061   3.774   7.265  0.4889  0.4436 -0.1723
40010SOL    HW124392  -0.020   3.809   7.227  0.1728 -0.6306 -0.5111
40010SOL    HW224393   0.112   3.746   7.189  0.6517 -0.0077  0.1059
40011SOL     OW24394   0.442   2.400   9.882  0.3864  0.6611 -0.0813
40011SOL    HW124395   0.353   2.385   9.850  0.5542 -0.2187 -0.1537
40011SOL    HW224396   0.447   2.495   9.895 -0.8698  0.6316  0.8294
40012SOL     OW24397   1.095  10.495   7.872 -0.5596  0.0394 -0.7336
40012SOL    HW124398   1.187  10.496   7.900 -1.1241 -0.8725  1.4254
40012SOL    HW224399   1.099  10.491   7.777  1.6483 -0.3752 -0.6880
40013SOL     OW24400   2.951   9.216   8.215 -0.5722 -0.2952 -0.3051
40013SOL    HW124401   2.979   9.295   8.260 -1.1898  0.1147 -0.6176
40013SOL    HW224402   2.936   9.152   8.285  1.3863 -0.6414 -0.1407
40014SOL     OW24403   0.997   1.610   1.444  0.6596  0.4413  0.5674
40014SOL    HW124404   1.035   1.677   1.501 -0.7562 -0.4574  2.6719
40014SOL    HW224405   0.909   1.596   1.478 -1.0216  1.1211 -3.0032
40015SOL     OW24406   0.091   1.285   3.472 -0.0260  0.4547  0.7837
40015SOL    HW124407   0.168   1.245   3.431 -0.8883  0.7797 -1.3082
40015SOL    HW224408   0.038   1.211   3.500 -0.2558  0.1419 -0.4082
40016SOL     OW24409   2.033   7.054   8.278 -0.0909  0.1814  0.3803
40016SOL    HW124410   2.059   7.130   8.330  1.2852 -0.7808  1.1697
40016SOL    HW224411   1.944   7.033   8.308 -0.1846  1.0150  0.7032
40017SOL     OW24412   3.446   4.257   2.756  0.2516 -0.8107  0.1286
40017SOL    HW124413   3.534   4.242   2.721  1.0925 -0.4938  2.0004
40017SOL    HW224414   3.449   4.346   2.792 -0.9189 -0.7028  0.0005
40018SOL     OW24415   3.040   7.383   9.764  0.1829 -0.3084 -0.4679
40018SOL    HW124416   2.977   7.334   9.711 -1.5837  0.7944  0.5388
40018SOL    HW224417   3.126   7.358   9.728 -0.7846 -2.0360 -1.7167
40019SOL     OW24418   1.820   5.608   2.746  0.1478 -0.2825 -0.1664
40019SOL    HW124419   1.851   5.603   2.836 -2.3112 -1.4899  0.7018
40019SOL    HW224420   1.801   5.517   2.722 -0.5047  0.1540 -1.4012
40020SOL     OW24421   8.491   9.223   2.586 -0.3042  0.1543  0.8522
40020SOL    HW124422   8.570   9.220   2.532  0.1579 -0.9938  1.5519
40020SOL    HW224423   8.420   9.237   2.524  0.2036 -1.2053 -0.0949
40021SOL     OW24424   5.505   5.861   5.065 -0.3259 -0.1483  0.5694
40021SOL    HW124425   5.410   5.859   5.080 -0.2090  0.5931  1.4621
40021SOL    HW224426   5.543   5.838   5.149  0.2996  0.0002  0.3264
40022SOL     OW24427   1.796   9.677   6.331  0.3517  0.2903  0.5459
40022SOL    HW124428   1.728   9.744   6.324  1.4686  1.3374 -0.6341
40022SOL    HW224429   1.769   9.610   6.268 -0.2998  0.0209  1.0920
40023SOL     OW24430  10.111   4.051   1.137 -0.6360  0.0104  0.3419
40023SOL    HW124431  10.207   4.059   1.134 -0.5749 -0.4774  0.7651
40023SOL    HW224432  10.081   4.136   1.168 -0.3166  0.0464  0.5574
40024SOL     OW24433   7.547  10.810   8.781 -0.0170  0.3662 -0.2156
40024SOL    HW124434   7.612  10.813   8.710  1.6027  0.0353  1.1725
40024SOL    HW224435   7.465  10.790   8.737  0.8378  0.6103 -2.0447
40025SOL     OW24436  10.883   7.157   4.932  0.0028  0.2815 -0.1397
40025SOL    HW124437  10.802   7.149   4.883  0.1005  0.7110 -0.3755
40025SOL    HW224438  10.870   7.103   5.010 -0.0729 -0.5737 -0.7344
40026SOL     OW24439   0.747   2.067   7.537  0.1405 -0.8812 -0.2282
40026SOL    HW124440   0.741   2.156   7.501  0.2561 -1.4050 -1.5810
40026SOL    HW224441   0.657   2.034   7.535 -0.4316  0.0978  2.8002
40027SOL     OW24442   1.118   8.006   8.441  0.3258  0.2206  0.2492
40027SOL    HW124443   1.124   7.918   8.479 -0.2922  0.8273  1.8244
40027SOL    HW224444   1.161   7.998   8.356  2.6508 -0.9672  1.4512
40028SOL     OW24445  10.894   7.405   4.634 -0.0157  0.2754  0.1333
40028SOL    HW124446  10.891   7.313   4.608  1.3626  1.1019 -3.6159
40028SOL    HW224447  10.813   7.443   4.599  0.7231  0.9880 -0.8397
40029SOL     OW24448   7.880   8.668   4.449  0.1643 -0.0218  0.4516
40029SOL    HW124449   7.821   8.603   4.487  2.1224 -0.6565  2.6264
40029SOL    HW224450   7.964   8.652   4.491  1.2985  2.4493 -0.6589
40030SOL     OW24451   8.608  10.453   6.197 -0.0177  0.1782 -0.6506
40030SOL    HW124452   8.524  10.491   6.168 -0.5180 -0.8935 -0.6452
40030SOL    HW224453   8.654  10.526   6.238 -1.6412  0.4348  0.8532
40031SOL     OW24454   0.764   4.201   7.088  0.3489  0.6083 -0.1673
40031SOL    HW124455   0.675   4.180   7.059  0.7629 -0.8056 -0.4528
40031SOL    HW224456   0.765   4.297   7.094 -1.0153  0.6725 -0.7248
40032SOL     OW24457   2.866   8.402   6.840 -0.2338 -0.2205 -0.3981
40032SOL    HW124458   2.866   8.390   6.935 -1.1582  0.7980 -0.2522
40032SOL    HW224459   2.955   8.429   6.819 -0.0148 -0.4966  0.1725
40033SOL     OW24460   3.254  11.057   3.097 -0.0774  0.7100  0.3963
40033SOL    HW124461   3.319  11.095   3.155 -0.1961  0.6412  0.5779
40033SOL    HW224462   3.304  11.020   3.024  0.2069 -0.5290  1.1981
40034SOL     OW24463   7.181   2.128  10.870  0.5225  0.0818  0.4154
40034SOL    HW124464   7.182   2.066  10.944  1.3702 -2.0205 -1.2321
40034SOL    HW224465   7.089   2.139  10.849  0.3472 -0.5434  0.8154
40035SOL     OW24466   8.193   8.169  10.213 -0.2748  0.3498  0.1273
40035SOL    HW124467   8.264   8.229  10.190 -0.1679  0.1094 -0.1696
40035SOL    HW224468   8.113   8.218  10.195 -0.1905  0.9518  1.3238
40036SOL     OW24469   6.971   6.336   1.651 -0.5112 -0.1638 -0.0007
40036SOL    HW124470   7.004   6.310   1.566  0.5322  0.3118  0.2443
40036SOL    HW224471   6.894   6.390   1.632  0.1707  0.5913 -0.6751
40037SOL     OW24472   2.080   3.139   8.847 -0.3144  0.1273  0.3013
40037SOL    HW124473   2.014   3.201   8.878 -0.7161 -0.2673  0.2412
40037SOL    HW224474   2.159   3.162   8.896 -0.8159 -0.1865  1.2689
40038SOL     OW24475   9.003   6.464  10.582 -0.4472  0.2780  0.2907
40038SOL    HW124476   9.038   6.471  10.493  1.8107  2.3760  1.2404
40038SOL    HW224477   9.045   6.385  10.617 -2.7621 -1.6477 -0.9730
40039SOL     OW24478   5.121   3.092   9.757 -0.4951 -0.2195  0.5518
40039SOL    HW124479   5.146   3.179   9.727  1.3852 -0.3916  1.4612
40039SOL    HW224480   5.037   3.075   9.714 -0.2242  1.4451 -0.7519
40040SOL     OW24481   1.380   2.316   6.646 -0.6398  0.1097 -0.6371
40040SOL    HW124482   1.443   2.260   6.600 -0.3380 -0.3601  0.3033
40040SOL    HW224483   1.300   2.264   6.649 -1.3106  0.9886 -2.4429
40041SOL     OW24484   6.882  10.745  10.073 -0.2143  0.1314  0.2222
40041SOL    HW124485   6.828  10.675  10.109  0.5554 -1.2234 -1.1272
40041SOL    HW224486   6.971  10.725  10.103 -0.1754  1.3926  1.0374
40042SOL     OW24487   7.596   8.945   8.830  0.3021  0.3106  0.0855
40042SOL    HW124488   7.504   8.948   8.856  0.1631 -0.5003 -0.2785
40042SOL    HW224489   7.645   8.959   8.912 -0.1343 -1.3754  0.6876
40043SOL     OW24490   2.731   7.893  10.081  0.4029 -0.1179  0.5672
40043SOL    HW124491   2.727   7.799  10.097 -0.1056 -0.1944  0.0375
40043SOL    HW224492   2.818   7.920  10.110  0.1672 -0.5583  1.7360
40044SOL     OW24493   9.928   7.168   1.471 -0.1152  0.2245 -0.1312
40044SOL    HW124494  10.009   7.117   1.469 -0.2847 -0.0223 -0.8976
40044SOL    HW224495   9.900   7.172   1.380 -1.6446 -0.7461  0.2805
40045SOL     OW24496   8.876   2.437   4.335  0.2316 -0.2688 -0.0632
40045SOL    HW124497   8.796   2.385   4.336  0.5540 -0.7744  0.2990
40045SOL    HW224498   8.878   2.477   4.249 -1.6046  1.6631  0.7012
40046SOL     OW24499   6.526   8.202  10.078 -0.0680 -0.2121 -0.0093
40046SOL    HW124500   6.551   8.154   9.999 -1.3289 -2.0978  0.6518
40046SOL    HW224501   6.480   8.279  10.045 -1.2416 -1.3343 -1.1729
40047SOL     OW24502   4.145   9.691   6.842  0.1129  0.1136 -0.3273
40047SOL    HW124503   4.238   9.678   6.827  0.7312  2.9649  0.5401
40047SOL    HW224504   4.112   9.725   6.759 -0.3477 -1.4821 -0.8379
40048SOL     OW24505   4.858   3.735   8.991 -0.0592 -0.7796  0.3148
40048SOL    HW124506   4.830   3.670   9.055 -0.9278 -1.4748 -0.7337
40048SOL    HW224507   4.783   3.794   8.981  0.0667 -0.6756 -0.0444
40049SOL     OW24508   6.792   1.238   8.731 -0.4024 -0.4514 -0.3059
40049SOL    HW124509   6.759   1.158   8.773 -1.5035 -0.1962 -0.6505
40049SOL    HW224510   6.718   1.270   8.679  0.4994 -0.0324 -1.3825
40050SOL     OW24511   3.999   0.740   4.133 -0.0153  0.3793  0.2099
40050SOL    HW124512   4.045   0.821   4.154 -1.3525  0.9934  0.9290
40050SOL    HW224513   4.016   0.726   4.040 -1.0682  2.3917 -0.3490
40051SOL     OW24514   5.471   1.656   2.105 -0.2253  0.0888  0.2155
40051SOL    HW124515   5.400   1.718   2.091  0.3914  0.1752 -3.7133
40051SOL    HW224516   5.549   1.710   2.116 -0.0795  0.0419 -0.5225
40052SOL     OW24517   8.742   0.582   9.535  0.1805  0.4103  0.4058
40052SOL    HW124518   8.757   0.636   9.458 -1.3291 -0.0220 -0.2327
40052SOL    HW224519   8.829   0.565   9.570  1.0072 -0.2497 -1.8143
40053SOL     OW24520   7.286   5.715   0.337  0.2401  0.3824 -0.4084
40053SOL    HW124521   7.223   5.665   0.286  0.3321 -1.5942  1.2822
40053SOL    HW224522   7.326   5.651   0.395  0.8308  2.3235  1.4547
40054SOL     OW24523   2.760   2.318   2.523 -0.4470  0.0712  0.2657
40054SOL    HW124524   2.722   2.347   2.440 -0.3037 -3.6857 -1.2847
40054SOL    HW224525   2.685   2.284   2.573 -0.8508  3.8636  2.6523
40055SOL     OW24526  10.608   8.746   7.807 -0.0808  0.0292 -0.3041
40055SOL    HW124527  10.602   8.653   7.783  0.4078 -0.2892  0.7255
40055SOL    HW224528  10.527   8.764   7.855  0.0236  0.0098 -0.1183
40056SOL     OW24529   3.989  10.212   0.280  0.1297 -0.1054 -1.0403
40056SOL    HW124530   3.904  10.222   0.239  0.3216 -1.1239 -1.7240
40056SOL    HW224531   4.039  10.158   0.218 -0.5266 -4.4136  1.7364
40057SOL     OW24532   1.728   7.800  10.213  0.3100  0.4281 -0.1732
40057SOL    HW124533   1.667   7.761  10.274  0.4756  0.3613 -0.0504
40057SOL    HW224534   1.677   7.868  10.168  0.2784  0.7038  0.2702
40058SOL     OW24535   8.286   6.121   9.984  0.3602 -0.2328  0.4317
40058SOL    HW124536   8.341   6.180  10.036  2.2404 -1.8293  0.3355
40058SOL    HW224537   8.257   6.054  10.046  0.3449 -0.6369 -0.0098
40059SOL     OW24538   3.242   5.029   8.466  0.0297 -0.0341 -0.5575
40059SOL    HW124539   3.172   5.091   8.487 -1.1207 -0.8606 -1.7678
40059SOL    HW224540   3.228   4.956   8.526 -0.6706 -0.5476 -1.3193
40060SOL     OW24541   9.343  10.200  10.066 -0.4636  0.2289  0.3409
40060SOL    HW124542   9.378  10.172  10.151 -0.3123  1.2196  0.6174
40060SOL    HW224543   9.257  10.237  10.086 -0.7343 -0.1610 -0.0466
40061SOL     OW24544   8.574   4.061   8.354 -0.0255 -0.7378  0.2643
40061SOL    HW124545   8.480   4.054   8.337  0.2495 -0.3737 -1.6729
40061SOL    HW224546   8.611   3.981   8.315  0.5927 -0.2467 -0.1706
40062SOL     OW24547   0.788   1.022  10.643  0.2452 -0.4228  0.5667
40062SOL    HW124548   0.820   1.043  10.731  0.7294  0.9694  0.0804
40062SOL    HW224549   0.831   1.086  10.586 -0.5109 -0.9351 -0.6121
40063SOL     OW24550   1.787   5.146   5.595  0.3070  0.0945  0.5336
40063SOL    HW124551   1.705   5.182   5.630  0.6102  0.8495  0.4823
40063SOL    HW224552   1.759   5.081   5.531 -0.3223  2.2433 -1.5435
40064SOL     OW24553  11.107   6.069   5.898  0.2966  0.2796 -1.0636
40064SOL    HW124554  11.202   6.058   5.893  0.2018 -0.4148 -1.4921
40064SOL    HW224555  11.092   6.117   5.980  1.1036  1.5583 -1.6401
40065SOL     OW24556   4.476   7.452  10.263  0.4451 -0.2921 -0.3178
40065SOL    HW124557   4.409   7.431  10.197  0.6145 -0.9282 -0.2956
40065SOL    HW224558   4.429   7.500  10.331  0.2906  0.4736 -0.9537
40066SOL     OW24559   4.675   6.759   9.190 -0.1037  0.0708  0.0778
40066SOL    HW124560   4.709   6.689   9.246 -0.2508 -0.0306  0.0418
40066SOL    HW224561   4.580   6.750   9.197 -0.1295 -0.3421 -0.6802
40067SOL     OW24562   8.603   9.458   1.712 -0.2396  0.7849 -0.2968
40067SOL    HW124563   8.601   9.522   1.784  1.0311  2.4220 -1.6376
40067SOL    HW224564   8.696   9.444   1.695 -0.5192 -0.0044 -1.2870
40068SOL     OW24565   0.436   3.945   1.859  0.1060  0.7522  0.2378
40068SOL    HW124566   0.525   3.972   1.836 -0.0882  0.7752 -0.5239
40068SOL    HW224567   0.447   3.881   1.929  0.7973 -0.1835 -0.6922
40069SOL     OW24568   9.206   5.053   5.965  0.0711  0.0030 -0.3127
40069SOL    HW124569   9.229   4.981   5.905  0.1719 -0.3192  0.1055
40069SOL    HW224570   9.268   5.123   5.944  1.4895 -0.8578  0.8147
40070SOL     OW24571   2.063   1.217   8.219 -0.1381 -0.1502  0.5955
40070SOL    HW124572   2.058   1.122   8.209 -1.6080 -0.1779  1.3275
40070SOL    HW224573   2.046   1.252   8.132  0.9222 -0.5395  0.2104
40071SOL     OW24574   2.656   0.122   4.486 -0.4049  0.0915  0.2075
40071SOL    HW124575   2.637   0.076   4.404  0.4844  3.0186 -1.8074
40071SOL    HW224576   2.604   0.202   4.481  0.8606  1.0792  1.7454
40072SOL     OW24577   6.728   2.871   0.250  0.0367  0.2924  0.3652
40072SOL    HW124578   6.745   2.778   0.240 -0.0710  0.4447 -1.4484
40072SOL    HW224579   6.815   2.910   0.260  0.4080  0.3485 -2.4247
40073SOL     OW24580   0.824  10.890   6.446 -0.1542  0.2661 -0.1196
40073SOL    HW124581   0.807  10.985   6.440 -0.9541  0.1638  0.3293
40073SOL    HW224582   0.785  10.864   6.529 -0.3667 -0.5484 -0.4620
40074SOL     OW24583  11.033   8.464   1.009  0.1424  0.3897  0.2430
40074SOL    HW124584  11.039   8.386   1.064 -0.8242 -0.3593 -0.6814
40074SOL    HW224585  11.080   8.442   0.929  0.9782  1.2416  0.4749
40075SOL     OW24586   1.460   4.015   5.731 -0.5470  0.4951  0.0317
40075SOL    HW124587   1.392   4.055   5.786  0.1775 -0.9157  2.0676
40075SOL    HW224588   1.471   3.927   5.766  2.9251  0.9153  0.3815
40076SOL     OW24589   8.725   9.964   5.386  0.2731  0.0480  0.1106
40076SOL    HW124590   8.644  10.000   5.350  1.0514  0.2717 -1.4863
40076SOL    HW224591   8.793  10.028   5.362  0.8507  0.1992  1.9889
40077SOL     OW24592   9.199   2.447   7.108  0.1513  0.8384 -0.3572
40077SOL    HW124593   9.285   2.424   7.073 -0.3000 -0.2452 -0.7671
40077SOL    HW224594   9.192   2.541   7.093  1.2709  0.9526 -0.2909
40078SOL     OW24595   5.065   4.370   6.055 -0.2854  0.0953 -0.7468
40078SOL    HW124596   5.140   4.312   6.039 -0.3817 -0.3492  0.3758
40078SOL    HW224597   5.031   4.343   6.140 -1.6823  0.3479 -1.2021
40079SOL     OW24598   4.646   1.553   9.107  0.3924 -0.3403  0.4574
40079SOL    HW124599   4.607   1.636   9.134  1.4214  0.6374 -0.9642
40079SOL    HW224600   4.602   1.487   9.162 -0.7898  1.0678  1.2619
40080SOL     OW24601   2.321   5.557   3.337 -0.0302  0.4375 -0.2427
40080SOL    HW124602   2.280   5.507   3.265 -0.9333  0.2909  0.3590
40080SOL    HW224603   2.378   5.620   3.293 -1.3690  1.0633 -1.1501
40081SOL     OW24604   3.502   8.301   3.582 -0.4700 -0.1956 -0.1795
40081SOL    HW124605   3.576   8.299   3.520 -1.7353 -0.1184 -1.7766
40081SOL    HW224606   3.499   8.213   3.618  0.4237 -0.1882 -0.0552
40082SOL     OW24607   7.910   3.708   1.687 -0.2326 -0.4509 -0.0317
40082SOL    HW124608   7.941   3.796   1.667  0.5640 -1.2987 -2.9576
40082SOL    HW224609   7.989   3.653   1.686 -0.8343 -1.3774  0.7547
40083SOL     OW24610   6.038   1.274   0.391 -0.0607  0.4022  0.2199
40083SOL    HW124611   6.028   1.340   0.322 -1.6142  0.5160  0.5096
40083SOL    HW224612   6.094   1.316   0.456  0.5039  0.7165 -0.4522
40084SOL     OW24613  11.007   4.742  10.554 -0.4792  0.0152  0.0110
40084SOL    HW124614  10.965   4.818  10.515  1.2444  0.9497 -0.1428
40084SOL    HW224615  11.091   4.735  10.509 -0.7277 -2.2075 -0.2086
40085SOL     OW24616   8.101   3.509   6.233 -0.4723  0.3234  0.3578
40085SOL    HW124617   8.155   3.433   6.254 -0.9720 -0.2709 -0.4778
40085SOL    HW224618   8.021   3.472   6.194 -0.2696  1.3099 -1.0581
40086SOL     OW24619   0.648   3.451   7.921 -0.1126  0.0663  0.4058
40086SOL    HW124620   0.673   3.495   7.840 -1.6202  2.3899  1.0815
40086SOL    HW224621   0.728   3.449   7.973  0.7828 -1.1227 -0.9462
40087SOL     OW24622   8.274   6.531  10.699 -0.0054 -0.5280  0.0757
40087SOL    HW124623   8.282   6.519  10.794  0.2335 -0.3634  0.0759
40087SOL    HW224624   8.240   6.619  10.689  0.3859 -0.3857 -0.0062
40088SOL     OW24625  10.945   5.937   1.184  0.0541  0.1439  0.0169
40088SOL    HW124626  10.905   6.016   1.220 -0.0215 -0.0152  0.2842
40088SOL    HW224627  11.016   5.916   1.244 -1.0126 -0.9816  0.9385
40089SOL     OW24628   7.640   9.796   4.375  0.6512 -0.0344 -0.3098
40089SOL    HW124629   7.648   9.879   4.422 -0.0091  0.2682 -0.7252
40089SOL    HW224630   7.558   9.759   4.406  1.6529 -1.2660  1.0011
40090SOL     OW24631   8.758   0.002   6.786 -0.2377  0.3754  0.4336
40090SOL    HW124632   8.698   0.038   6.852 -1.2298  2.3785 -1.4215
40090SOL    HW224633   8.843   0.039   6.808 -0.5049  0.7960  0.7814
40091SOL     OW24634   7.304   5.463   6.872  0.0812  0.1362 -0.1558
40091SOL    HW124635   7.313   5.378   6.829  0.0087 -0.4543  0.9453
40091SOL    HW224636   7.209   5.474   6.884  0.0989  0.3001 -0.1668
40092SOL     OW24637   1.327   7.859  10.921  0.4671  0.9262 -0.7354
40092SOL    HW124638   1.384   7.850  10.844  1.7406 -1.6825  0.3982
40092SOL    HW224639   1.380   7.906  10.985  0.7598 -0.0530 -0.2455
40093SOL     OW24640   4.017   1.618   5.210  0.2842 -0.1639 -1.1060
40093SOL    HW124641   4.003   1.657   5.124  0.1901 -0.7136 -1.3494
40093SOL    HW224642   3.952   1.548   5.215  1.3404 -1.1855 -1.2564
40094SOL     OW24643   7.384   3.915   5.669  0.1424 -0.2174 -0.1412
40094SOL    HW124644   7.340   3.960   5.741 -0.1699 -0.0734 -0.4162
40094SOL    HW224645   7.385   3.823   5.694  0.8712 -0.0522  0.4709
40095SOL     OW24646   2.463   7.916   3.488  0.1705 -0.6358  0.1162
40095SOL    HW124647   2.402   7.925   3.561  0.7654  0.7320  0.4731
40095SOL    HW224648   2.408   7.925   3.410 -0.1572  0.1846  0.4258
40096SOL     OW24649   5.323   7.405   5.447  0.1465 -0.0305 -0.0591
40096SOL    HW124650   5.240   7.382   5.405  0.3069 -1.0070  0.1212
40096SOL    HW224651   5.390   7.369   5.389  0.3798 -0.9031  0.7242
40097SOL     OW24652   2.818   3.806   7.041  0.0168  0.4599  0.0215
40097SOL    HW124653   2.831   3.814   7.135  0.7975  0.3340 -0.0701
40097SOL    HW224654   2.825   3.712   7.024 -1.0402  0.3867 -0.0346
40098SOL     OW24655   8.691   6.264   0.205  0.4110 -0.3676 -0.1679
40098SOL    HW124656   8.605   6.286   0.169  0.4897  0.4002  0.0862
40098SOL    HW224657   8.717   6.185   0.159 -1.3684 -1.8943  1.2513
40099SOL     OW24658   7.825   9.005   4.697  0.0482  0.1440 -0.3895
40099SOL    HW124659   7.745   9.056   4.686 -0.4037 -0.3505  0.5798
40099SOL    HW224660   7.818   8.966   4.784  1.8349  0.9796  0.1955
40100SOL     OW24661  11.054   9.776  10.518 -0.2113 -0.0759 -0.3901
40100SOL    HW124662  11.107   9.739  10.589 -0.6162 -0.8543 -0.4809
40100SOL    HW224663  11.053   9.707  10.451 -0.8642  0.1616 -0.6302
40101SOL     OW24664   2.718   5.183   7.399  0.0522  0.2544 -0.2337
40101SOL    HW124665   2.723   5.095   7.361  0.7402  0.0547  0.3074
40101SOL    HW224666   2.797   5.191   7.452  0.2066  1.3599 -0.6089
40102SOL     OW24667   7.730   5.462   4.599 -0.6851  0.3857 -0.1518
40102SOL    HW124668   7.799   5.430   4.658 -2.3491 -2.0630  0.6289
40102SOL    HW224669   7.760   5.437   4.512  0.4911  1.5002 -0.0921
40103SOL     OW24670   7.706   8.280   4.931 -0.2390 -0.0183 -0.1952
40103SOL    HW124671   7.634   8.217   4.926  0.2388 -0.5475 -0.4759
40103SOL    HW224672   7.779   8.236   4.888  0.2504  0.5179  0.0847
40104SOL     OW24673   9.715   5.105   9.202  0.4546  0.6245 -0.6147
40104SOL    HW124674   9.761   5.112   9.118  0.2516  0.4651 -0.7386
40104SOL    HW224675   9.655   5.031   9.191  0.9282  0.1599 -0.0905
40105SOL     OW24676   2.720   5.892   5.961 -1.2578  0.8049  0.8180
40105SOL    HW124677   2.783   5.892   5.889 -0.2816 -0.4836  1.6302
40105SOL    HW224678   2.638   5.864   5.921 -1.0031  1.2031 -0.0008
40106SOL     OW24679   3.860   8.024   0.264 -0.5923 -0.3593 -0.8973
40106SOL    HW124680   3.921   8.071   0.208  1.3011 -2.6667 -0.9350
40106SOL    HW224681   3.803   7.977   0.204  0.1973 -1.3268 -0.9041
40107SOL     OW24682   8.385   3.327   0.606  0.0064 -0.0658 -0.3580
40107SOL    HW124683   8.367   3.373   0.525  0.0246 -0.2030 -0.4409
40107SOL    HW224684   8.311   3.347   0.663 -0.0519 -0.0446 -0.4421
40108SOL     OW24685   1.268   4.411   2.936 -0.4288 -0.4131 -0.7921
40108SOL    HW124686   1.352   4.406   2.891 -1.1890  2.4389 -2.8627
40108SOL    HW224687   1.278   4.484   2.998 -0.4150 -2.2165  1.4351
40109SOL     OW24688   7.438   1.169   9.646  0.1245 -0.4197 -0.4507
40109SOL    HW124689   7.396   1.245   9.686  1.1735 -0.0475 -0.0210
40109SOL    HW224690   7.367   1.121   9.604 -1.1507 -1.1095  2.2671
40110SOL     OW24691   4.241  10.099   9.840 -0.1837 -0.6936  0.0240
40110SOL    HW124692   4.251  10.194   9.840  1.9830 -0.8360  1.8862
40110SOL    HW224693   4.260  10.073   9.750  1.6975  0.4702  0.0440
40111SOL     OW24694   0.498   8.370   2.680 -0.2054  0.3708 -0.6379
40111SOL    HW124695   0.455   8.446   2.719  0.1721  0.5379 -0.5473
40111SOL    HW224696   0.427   8.323   2.636 -0.9097 -0.5141  1.3188
40112SOL     OW24697   1.651   4.062   1.164 -0.7692  0.7457 -0.5678
40112SOL    HW124698   1.738   4.095   1.186 -0.1843 -0.3173 -1.2418
40112SOL    HW224699   1.630   4.105   1.081 -1.4626  1.9922  0.2124
40113SOL     OW24700   0.362   8.468   5.051 -0.1508 -0.1866  0.1405
40113SOL    HW124701   0.292   8.402   5.057  1.1055 -1.4763  1.3321
40113SOL    HW224702   0.440   8.417   5.029  0.5758  1.1319 -0.4348
40114SOL     OW24703   0.355   2.020   1.363 -0.0736 -0.4263 -0.3878
40114SOL    HW124704   0.414   2.090   1.336  0.0526  0.1839  1.3712
40114SOL    HW224705   0.271   2.043   1.324  0.0251  0.5885 -0.0233
40115SOL     OW24706  11.108  10.055   5.173  0.3097 -0.3644 -0.5806
40115SOL    HW124707  11.072   9.995   5.238 -0.0954  1.2510  0.7546
40115SOL    HW224708  11.153  10.122   5.224 -0.7151  1.4330 -1.8953
40116SOL     OW24709   5.317   8.546   0.910  0.7036 -0.5941 -0.6792
40116SOL    HW124710   5.283   8.604   0.842 -1.8126  0.3715  1.2609
40116SOL    HW224711   5.284   8.459   0.887  0.5792 -0.4247 -1.1370
40117SOL     OW24712   4.969  10.749   4.752  0.4529 -0.5809  0.2526
40117SOL    HW124713   4.970  10.811   4.679 -0.3700 -2.0946 -1.1026
40117SOL    HW224714   4.893  10.774   4.804 -0.2953 -0.8758 -0.6857
40118SOL     OW24715  11.024   5.660   7.991  0.0991 -0.5033  0.2497
40118SOL    HW124716  11.021   5.644   8.085 -2.7810  1.5380  0.6582
40118SOL    HW224717  11.086   5.732   7.980  0.2909 -0.6117  0.6134
40119SOL     OW24718   8.028   1.131  10.345 -0.1871 -0.3447 -0.3867
40119SOL    HW124719   7.941   1.096  10.364 -0.0416 -0.7620 -0.4881
40119SOL    HW224720   8.046   1.192  10.417 -0.7045  0.0028 -0.5485
40120SOL     OW24721   2.998   4.419   5.006  0.2490 -0.4665 -0.9781
40120SOL    HW124722   2.912   4.444   4.972  0.2763  1.7321  0.3947
40120SOL    HW224723   2.979   4.359   5.078 -0.0388 -0.9444 -1.4393
40121SOL     OW24724   2.759   0.368   3.866 -0.1419 -0.2893  0.6461
40121SOL    HW124725   2.719   0.428   3.929  1.4015  0.0649  1.3273
40121SOL    HW224726   2.838   0.337   3.909  0.2052 -1.1667 -0.5645
40122SOL     OW24727  10.218  10.853   1.305  0.4493  0.0432  0.2378
40122SOL    HW124728  10.277  10.849   1.381  2.1475 -2.3925 -1.0605
40122SOL    HW224729  10.132  10.869   1.342  1.4539  0.6115  2.5197
40123SOL     OW24730   6.759   5.352   6.317 -0.2471  0.1799  0.3246
40123SOL    HW124731   6.706   5.425   6.284 -0.0588  0.9502  1.6480
40123SOL    HW224732   6.705   5.312   6.385  0.5125  0.4566  1.1090
40124SOL     OW24733   6.655   1.881   3.463 -0.5375 -0.0292  0.4179
40124SOL    HW124734   6.595   1.872   3.388  1.4024 -2.1255 -1.0004
40124SOL    HW224735   6.597   1.901   3.537 -2.5495  2.2601 -1.5635
40125SOL     OW24736   3.431   4.234   9.598  0.0828 -0.1053  0.1499
40125SOL    HW124737   3.480   4.213   9.518 -0.9483 -1.1432 -0.2426
40125SOL    HW224738   3.341   4.245   9.568 -0.0162  1.4432  0.9041
40126SOL     OW24739   1.721   0.341   6.037  0.3927  0.7947 -0.2254
40126SOL    HW124740   1.778   0.396   5.984 -0.7416  0.4499 -1.8756
40126SOL    HW224741   1.667   0.294   5.974  0.3232 -1.1344  1.1742
40127SOL     OW24742  10.146   9.978   0.269  0.7523  0.4249 -0.1811
40127SOL    HW124743  10.133  10.036   0.194 -3.0176  0.8061  0.5609
40127SOL    HW224744  10.121  10.031   0.344 -0.4539 -1.3928  0.7709
40128SOL     OW24745   1.620   5.326   7.826  0.6497 -0.3423 -0.1703
40128SOL    HW124746   1.592   5.296   7.739  3.4922 -0.1502 -1.2856
40128SOL    HW224747   1.702   5.278   7.841  1.7748  1.8255  1.0333
40129SOL     OW24748   2.284   2.779   4.260 -0.0820  0.3038 -0.2846
40129SOL    HW124749   2.375   2.754   4.279 -0.1222 -0.4614 -1.0425
40129SOL    HW224750   2.238   2.765   4.342  0.2158 -0.6604 -0.2699
40130SOL     OW24751   1.930   7.470   7.345  0.4314 -0.5858 -0.3325
40130SOL    HW124752   1.929   7.474   7.249  0.4375 -1.0024 -0.3527
40130SOL    HW224753   1.896   7.383   7.365 -0.8976  0.0011  0.0830
40131SOL     OW24754   2.323   6.306   2.396 -1.1279 -0.2650  0.1727
40131SOL    HW124755   2.284   6.358   2.326 -0.1674  0.3137  0.0377
40131SOL    HW224756   2.286   6.343   2.477  0.8472  1.9035  0.2012
40132SOL     OW24757   7.827   4.343   6.277  0.8603 -0.2251  0.4908
40132SOL    HW124758   7.745   4.380   6.309  0.6847 -0.2825  0.1055
40132SOL    HW224759   7.838   4.263   6.328  0.3668 -0.5356  0.1223
40133SOL     OW24760   0.584  11.114   7.033  0.4466  0.2347  0.0064
40133SOL    HW124761   0.665  11.065   7.047 -0.0261 -0.6095 -0.1653
40133SOL    HW224762   0.610  11.186   6.975  1.0448 -0.1248 -0.1805
40134SOL     OW24763   3.780   8.408   0.188  0.0933 -0.1869  0.2550
40134SOL    HW124764   3.867   8.435   0.217 -0.7351  1.9983  0.8680
40134SOL    HW224765   3.789   8.394   0.094  1.2157 -0.5990  0.4087
40135SOL     OW24766   3.058   9.279   2.839  0.0067 -0.0261  0.0090
40135SOL    HW124767   3.059   9.357   2.895 -3.3850  1.9632 -2.3117
40135SOL    HW224768   3.000   9.218   2.885 -0.5985  0.4979 -0.0383
40136SOL     OW24769  10.825   3.103   1.723  0.3390 -0.2699 -0.1572
40136SOL    HW124770  10.735   3.123   1.749  0.2666  0.3318 -0.8388
40136SOL    HW224771  10.878   3.170   1.766  0.6866 -1.5881  1.6106
40137SOL     OW24772   6.831   9.401   4.036  0.2242  0.5691  0.2082
40137SOL    HW124773   6.795   9.489   4.044  1.3932  1.2347 -1.3015
40137SOL    HW224774   6.842   9.389   3.942 -1.3742 -1.8316  0.2497
40138SOL     OW24775   4.556   9.122   4.811 -0.5413 -0.4050  0.2915
40138SOL    HW124776   4.469   9.135   4.849 -1.3063  1.0767 -1.8199
40138SOL    HW224777   4.560   9.028   4.791 -1.8148 -0.4178  0.0287
40139SOL     OW24778   6.055   3.697   1.371  0.4214  0.5402 -0.1793
40139SOL    HW124779   6.016   3.611   1.356  0.1100  0.8490 -1.2063
40139SOL    HW224780   6.129   3.701   1.311  2.1687 -0.0824  1.8191
40140SOL     OW24781   3.579   7.416   4.460  0.2787 -0.0974 -0.0117
40140SOL    HW124782   3.543   7.393   4.545 -1.5562 -0.9799 -0.9741
40140SOL    HW224783   3.635   7.342   4.436 -0.0723 -0.3583 -0.0353
40141SOL     OW24784   7.801   7.810   2.201 -0.1079  0.6017 -0.1005
40141SOL    HW124785   7.889   7.848   2.203  0.0725  0.2003  1.7318
40141SOL    HW224786   7.750   7.865   2.262 -0.8927  0.3063 -0.4748
40142SOL     OW24787   5.158   8.548   2.676 -0.0510 -0.3774  0.3109
40142SOL    HW124788   5.079   8.585   2.638 -0.7537 -0.6664  1.4336
40142SOL    HW224789   5.178   8.471   2.622 -1.6369 -1.4005  1.1132
40143SOL     OW24790   3.644  10.721   9.383  0.2142 -0.4462 -0.0315
40143SOL    HW124791   3.619  10.638   9.422  0.1500  0.0795  1.0976
40143SOL    HW224792   3.576  10.782   9.412  0.3485  0.0319 -0.7017
40144SOL     OW24793   9.924   1.770   6.854 -0.3167  0.3082 -0.2964
40144SOL    HW124794   9.931   1.816   6.770  1.1244 -0.4638 -0.6342
40144SOL    HW224795  10.002   1.798   6.903 -0.9802  0.5092  0.6661
40145SOL     OW24796   4.564   6.666  10.772 -0.0982 -0.0451  0.4260
40145SOL    HW124797   4.502   6.611  10.820 -0.6269 -0.7716 -1.0110
40145SOL    HW224798   4.565   6.749  10.821 -0.8705 -0.6217  1.4651
40146SOL     OW24799   2.229   5.023   2.784 -0.0678 -0.0271  0.4635
40146SOL    HW124800   2.269   4.991   2.703 -0.0113 -0.5885  0.7054
40146SOL    HW224801   2.161   4.959   2.805  0.1952 -0.1191  1.0784
40147SOL     OW24802   9.991   4.614   7.688  0.0838 -0.4313 -0.5705
40147SOL    HW124803  10.058   4.570   7.740  0.3204 -0.0874 -0.5779
40147SOL    HW224804   9.946   4.544   7.641  0.5023 -0.6584 -0.6367
40148SOL     OW24805   5.198   4.264   5.537 -0.1459 -0.6078  0.3629
40148SOL    HW124806   5.231   4.175   5.552  0.0767 -0.6900 -0.5630
40148SOL    HW224807   5.211   4.279   5.444  0.3225  0.6156  0.6120
40149SOL     OW24808   7.376   3.781  10.487 -0.5918 -0.1261  0.3267
40149SOL    HW124809   7.317   3.719  10.444 -1.4701  0.4050  0.7528
40149SOL    HW224810   7.452   3.728  10.511 -0.6547 -0.7120 -0.6907
40150SOL     OW24811  10.891   0.852   6.754  0.0413 -0.3278 -0.7056
40150SOL    HW124812  10.918   0.833   6.844 -0.8062  0.4407 -0.2808
40150SOL    HW224813  10.891   0.766   6.711  1.6005 -0.5632 -0.3131
40151SOL     OW24814   5.889   8.482   7.097 -0.1651 -0.4104 -0.5133
40151SOL    HW124815   5.867   8.390   7.087 -0.0885 -0.3151 -1.7216
40151SOL    HW224816   5.805   8.526   7.107 -0.1909 -0.6198  0.2858
40152SOL     OW24817   3.691   9.908   7.519  0.3859  0.3755 -0.2865
40152SOL    HW124818   3.600   9.883   7.534  0.8046 -0.0937  1.7502
40152SOL    HW224819   3.724   9.844   7.456  0.4191 -2.0815  2.0697
40153SOL     OW24820   5.530   5.685   4.866 -0.1009 -0.2514 -0.0100
40153SOL    HW124821   5.533   5.748   4.938  0.2270 -0.5780  0.2598
40153SOL    HW224822   5.444   5.644   4.874  0.1604 -0.6956  0.5435
40154SOL     OW24823   9.117   0.228   5.480 -0.5481 -0.1765 -0.2965
40154SOL    HW124824   9.023   0.223   5.494 -0.5940  0.9398 -0.0821
40154SOL    HW224825   9.155   0.181   5.554 -0.9085  1.2651  0.8559
40155SOL     OW24826  10.218   5.792   3.655 -0.1416  0.6210 -0.3215
40155SOL    HW124827  10.184   5.705   3.632 -0.3456  0.6034  0.0384
40155SOL    HW224828  10.287   5.774   3.719 -0.1785  0.7200 -0.2531
40156SOL     OW24829   5.348   0.232   7.527 -0.1376  0.5299  0.4756
40156SOL    HW124830   5.302   0.221   7.611  0.3889  1.7426  0.9486
40156SOL    HW224831   5.439   0.210   7.546 -0.1443  0.1185  0.0431
40157SOL     OW24832   2.741   7.942   2.305 -0.7450  0.2851 -0.1696
40157SOL    HW124833   2.736   7.893   2.223  4.9267  0.2062 -0.9214
40157SOL    HW224834   2.755   7.875   2.372  2.9951  0.4093 -0.6142
40158SOL     OW24835  10.938   5.195  10.063 -0.7695 -0.6627  0.3343
40158SOL    HW124836  10.914   5.161   9.977 -0.2419  0.2829 -0.1966
40158SOL    HW224837  10.915   5.288  10.060  1.5004 -0.0552  0.3379
40159SOL     OW24838   2.848  10.058   0.223 -0.0715 -0.0691  0.2822
40159SOL    HW124839   2.934  10.085   0.193  1.0025 -2.3829  1.0299
40159SOL    HW224840   2.794  10.057   0.144 -0.0033  3.1095  0.0597
40160SOL     OW24841  10.758   3.766   1.922  0.1428 -0.1695  0.4720
40160SOL    HW124842  10.783   3.674   1.917 -0.2119 -0.3369  1.5666
40160SOL    HW224843  10.827   3.812   1.874  0.2974 -1.0050 -0.1264
40161SOL     OW24844   0.065   6.773   6.292  0.0193  0.4329 -0.0800
40161SOL    HW124845   0.017   6.693   6.313 -0.1584  0.2729 -1.0491
40161SOL    HW224846   0.142   6.770   6.348 -0.7024  0.3120  0.9457
40162SOL     OW24847   0.967   3.814   3.558 -0.2303  0.2184  0.3057
40162SOL    HW124848   1.046   3.824   3.505 -0.1817  2.4774  0.7076
40162SOL    HW224849   0.899   3.790   3.495 -0.1107  2.5451 -0.8084
40163SOL     OW24850   3.059   8.808   9.164 -0.4525 -0.1270  0.0161
40163SOL    HW124851   3.098   8.737   9.215  0.1844  1.4672  1.8360
40163SOL    HW224852   3.130   8.839   9.108 -1.0574 -1.6430 -1.7002
40164SOL     OW24853   8.504   5.739   9.968 -0.0269 -0.2108  0.3399
40164SOL    HW124854   8.409   5.729   9.975 -0.1987  1.5054  0.7717
40164SOL    HW224855   8.517   5.812   9.908  0.9086  1.2984  2.2324
40165SOL     OW24856   1.296   7.113   4.021 -0.5182 -0.5378  0.1028
40165SOL    HW124857   1.227   7.062   4.064  0.1574  0.2317  2.2585
40165SOL    HW224858   1.377   7.070   4.049 -0.0108  0.7311  0.6457
40166SOL     OW24859   4.912  10.938   3.141 -0.0770  0.0820 -0.3756
40166SOL    HW124860   4.870  10.997   3.078 -0.1718  1.5568  1.0116
40166SOL    HW224861   4.883  10.850   3.114 -1.1319  0.7673 -1.6113
40167SOL     OW24862   1.383   2.986   6.058 -0.0165  0.0995  0.0451
40167SOL    HW124863   1.405   2.943   6.142  0.3118 -1.1973 -0.6700
40167SOL    HW224864   1.467   2.991   6.012 -0.3970 -0.3313 -0.6985
40168SOL     OW24865   6.636   5.592   6.244  0.3103 -0.7717 -0.1344
40168SOL    HW124866   6.544   5.617   6.258  1.0718  0.9819  2.4599
40168SOL    HW224867   6.673   5.664   6.193  0.6315 -0.6668  0.2466
40169SOL     OW24868  10.845   7.005   6.137 -0.8509  0.0434 -0.2767
40169SOL    HW124869  10.819   6.946   6.066  1.1506  0.1987 -1.1832
40169SOL    HW224870  10.869   7.086   6.094  2.0016 -0.3760  0.3205
40170SOL     OW24871   7.480   6.691   1.346  0.4400  0.1516  0.2655
40170SOL    HW124872   7.454   6.647   1.265 -0.3992  0.1418  0.5288
40170SOL    HW224873   7.507   6.620   1.404  0.9755  0.1525  0.0191
40171SOL     OW24874   0.721   3.795   0.843 -0.4071 -0.0521  0.6822
40171SOL    HW124875   0.796   3.777   0.900 -0.0573 -0.0651  0.2215
40171SOL    HW224876   0.664   3.719   0.854  1.0184 -1.4916 -1.1750
40172SOL     OW24877  10.778   2.123   1.922  0.3770 -0.0180 -0.0069
40172SOL    HW124878  10.762   2.070   2.000  2.7530  0.0341  0.5966
40172SOL    HW224879  10.754   2.067   1.848 -1.6152 -0.1785  0.7038
40173SOL     OW24880   5.306   1.407   7.529 -0.6789 -0.4769  0.3478
40173SOL    HW124881   5.393   1.369   7.546 -0.6123 -0.3374  0.3219
40173SOL    HW224882   5.298   1.478   7.593  0.1790  1.0080 -1.1177
40174SOL     OW24883   2.339  10.864   7.750  0.4129 -0.0959  0.4468
40174SOL    HW124884   2.248  10.845   7.727 -0.0616  1.6885  0.6557
40174SOL    HW224885   2.387  10.784   7.729 -0.8564 -0.3894 -1.6131
40175SOL     OW24886   4.281   4.087   7.993  0.2100  0.2659  0.3748
40175SOL    HW124887   4.275   4.005   7.945 -0.5401  0.8359 -0.5201
40175SOL    HW224888   4.323   4.148   7.932 -0.6720  0.9721  0.4450
40176SOL     OW24889   0.826   2.824  10.542  0.2361  0.5663  0.0035
40176SOL    HW124890   0.732   2.805  10.548 -0.3669  3.0530 -0.4256
40176SOL    HW224891   0.837   2.904  10.593  1.8778  1.0844 -1.1026
40177SOL     OW24892   5.580   2.693   4.809  0.2577  0.5580  0.1894
40177SOL    HW124893   5.490   2.716   4.831  0.6828  2.7396 -0.1016
40177SOL    HW224894   5.627   2.700   4.891 -0.0836 -2.4097  0.7437
40178SOL     OW24895   5.524   1.863   4.666  0.6981  0.0593 -0.2540
40178SOL    HW124896   5.585   1.820   4.606  1.2993 -0.0401  0.4066
40178SOL    HW224897   5.461   1.795   4.690  1.9341 -0.6403  1.1790
40179SOL     OW24898   4.079   6.683   1.333 -0.3454  0.3390  0.5598
40179SOL    HW124899   4.127   6.601   1.336 -1.2577 -0.1972  1.0491
40179SOL    HW224900   4.142   6.747   1.299  0.1251 -0.7312 -0.6632
40180SOL     OW24901   9.017   0.877   0.888  0.7394  0.2915  0.5748
40180SOL    HW124902   9.079   0.934   0.841  0.1549  1.6365  1.3601
40180SOL    HW224903   8.952   0.938   0.924 -1.1850 -1.0988 -0.4078
40181SOL     OW24904   6.358   6.478   8.135 -0.2706 -0.1830  0.3438
40181SOL    HW124905   6.324   6.542   8.198  0.9762  0.7090  0.1694
40181SOL    HW224906   6.296   6.406   8.137 -2.1165  1.3117  0.0830
40182SOL     OW24907   1.229   7.354   8.767  0.1688 -0.2476  0.2043
40182SOL    HW124908   1.249   7.447   8.764  0.5286 -0.2966  0.8440
40182SOL    HW224909   1.235   7.324   8.677  3.2974 -0.3188  0.3136
40183SOL     OW24910   7.410   3.283   8.422  0.5202 -0.1783 -0.3790
40183SOL    HW124911   7.383   3.269   8.331  2.8499 -2.1312 -0.8696
40183SOL    HW224912   7.446   3.372   8.422 -0.0465  0.0688 -1.2102
40184SOL     OW24913   4.507   8.482   8.344  0.6852  0.2765  0.0729
40184SOL    HW124914   4.598   8.485   8.316  0.2065 -0.0252 -1.6698
40184SOL    HW224915   4.467   8.560   8.305  0.1899  0.4112  0.8214
40185SOL     OW24916   9.607   4.383   8.592 -0.0154 -0.3032 -0.4723
40185SOL    HW124917   9.583   4.402   8.683  0.5655  0.5364 -0.4834
40185SOL    HW224918   9.586   4.463   8.544  2.4721  0.4214 -0.5296
40186SOL     OW24919   9.857   8.702   4.985 -0.6629  0.4338  0.9106
40186SOL    HW124920   9.946   8.711   4.949 -0.3873  3.2711  2.0220
40186SOL    HW224921   9.871   8.699   5.080 -1.7007 -1.1785  1.0518
40187SOL     OW24922   6.676   4.579   3.488 -0.1435 -0.3408 -0.5075
40187SOL    HW124923   6.600   4.596   3.431 -1.0196 -0.9821  0.4382
40187SOL    HW224924   6.705   4.666   3.515 -0.3736 -0.0739 -1.0913
40188SOL     OW24925   5.912   0.525   7.140  0.4832 -0.1163 -0.6441
40188SOL    HW124926   5.829   0.486   7.164  0.8595  0.8238  2.7184
40188SOL    HW224927   5.972   0.451   7.129 -0.2497 -0.6977 -0.7308
40189SOL     OW24928   5.338   2.979   0.559  0.1215  0.4225  0.2748
40189SOL    HW124929   5.322   2.984   0.465  0.2671  0.2378  0.2391
40189SOL    HW224930   5.316   2.888   0.582 -1.9192  0.9894  0.7919
40190SOL     OW24931   5.700  10.971   9.965 -0.0465  0.3903  0.1634
40190SOL    HW124932   5.671  10.949   9.876 -0.9316  2.0299  0.0061
40190SOL    HW224933   5.746  11.054   9.956  1.9266 -0.5594  0.9327
40191SOL     OW24934   8.756   7.683   6.885 -0.3795 -0.2690  0.0707
40191SOL    HW124935   8.783   7.686   6.794  2.8682  3.7686  0.8775
40191SOL    HW224936   8.798   7.604   6.920  1.2041 -0.0533 -1.2397
40192SOL     OW24937  10.333   7.210   6.576  0.2250 -0.4426 -0.5934
40192SOL    HW124938  10.286   7.143   6.526  0.5798 -0.1845 -1.2822
40192SOL    HW224939  10.274   7.232   6.648 -1.0293  0.3890 -1.8282
40193SOL     OW24940   1.216   3.484   4.845  0.3004 -0.0161  0.3555
40193SOL    HW124941   1.292   3.522   4.800  0.7892 -0.3283  0.9054
40193SOL    HW224942   1.173   3.430   4.779  1.5512 -1.2468  0.5031
40194SOL     OW24943   1.646   1.488   8.549  0.9538  0.2123 -0.1139
40194SOL    HW124944   1.599   1.491   8.465  2.6884  1.6347 -1.0962
40194SOL    HW224945   1.691   1.404   8.548  1.0965  0.2876 -0.7042
40195SOL     OW24946   7.600   7.857   6.438 -0.2146  0.2230  0.3251
40195SOL    HW124947   7.554   7.846   6.355  0.3362 -0.3119  0.0801
40195SOL    HW224948   7.574   7.944   6.469 -0.9862  0.1302 -0.0493
40196SOL     OW24949   3.889   4.870   0.865  0.0767 -0.0421  0.0406
40196SOL    HW124950   3.894   4.907   0.777  0.0915 -1.5014 -0.5958
40196SOL    HW224951   3.907   4.944   0.923 -2.2665  1.4975 -1.0461
40197SOL     OW24952   8.533   6.665  10.575 -0.2663  0.0244 -0.0622
40197SOL    HW124953   8.522   6.749  10.531 -0.6480  0.4868  0.9005
40197SOL    HW224954   8.453   6.616  10.555  0.1338 -0.2869 -0.9682
40198SOL     OW24955   6.122   4.368   2.196 -0.6348 -0.2665 -0.0746
40198SOL    HW124956   6.031   4.352   2.221 -0.0870 -1.0381  1.5775
40198SOL    HW224957   6.144   4.294   2.139 -0.2903 -1.5578  1.6626
40199SOL     OW24958   0.533   0.671   8.134  0.3770  0.4139 -0.0941
40199SOL    HW124959   0.451   0.624   8.121  0.2143  0.5202  0.5040
40199SOL    HW224960   0.542   0.678   8.229  0.9971  0.5465 -0.1575
40200SOL     OW24961   1.737   7.884   1.380 -0.0499  0.7929 -0.3943
40200SOL    HW124962   1.823   7.881   1.339  0.7212 -0.0525  1.1794
40200SOL    HW224963   1.680   7.927   1.316  1.7229  2.1480 -1.1195
40201SOL     OW24964   4.981   7.686   0.689 -0.0625  0.2475  0.0931
40201SOL    HW124965   4.971   7.596   0.722 -0.2161  0.4582  0.6258
40201SOL    HW224966   5.066   7.686   0.646  0.6380  0.2498  1.4164
40202SOL     OW24967   0.423   3.619   9.276 -0.0849  0.2086 -0.6199
40202SOL    HW124968   0.517   3.603   9.267  0.1629  1.2870 -0.0575
40202SOL    HW224969   0.382   3.544   9.233  0.9848 -2.0812  2.0585
40203SOL     OW24970   3.807   7.916   8.041  0.1599 -0.0698  0.0769
40203SOL    HW124971   3.803   7.932   8.135 -0.4557  0.7443 -0.0838
40203SOL    HW224972   3.717   7.897   8.016  0.3046 -0.1746 -0.3683
40204SOL     OW24973  11.006   1.962   9.331 -0.0490  0.0235  0.5668
40204SOL    HW124974  10.937   2.004   9.383  0.7616 -1.3379  2.8840
40204SOL    HW224975  11.080   2.022   9.337 -0.1250  0.1273  0.4850
40205SOL     OW24976   5.627  10.163  10.777 -0.0263 -0.0947  0.3538
40205SOL    HW124977   5.627  10.081  10.728 -0.9551  0.0245  0.1376
40205SOL    HW224978   5.713  10.202  10.759 -0.6196  0.3164 -1.8166
40206SOL     OW24979  10.372   6.992   0.119 -0.5262  0.3116  0.1807
40206SOL    HW124980  10.344   6.905   0.090  1.3627 -0.3138  0.1252
40206SOL    HW224981  10.352   7.050   0.045  1.0555 -0.6528 -1.0539
40207SOL     OW24982  10.611   5.055   1.014 -0.4079 -0.8844  0.2755
40207SOL    HW124983  10.702   5.038   0.992  0.1434  2.1919 -0.2953
40207SOL    HW224984  10.615   5.105   1.095 -1.6845 -1.5373  0.7697
40208SOL     OW24985   2.354   7.840   1.242  0.3768 -0.2261  1.2117
40208SOL    HW124986   2.394   7.918   1.280  0.9362 -0.7874  1.8164
40208SOL    HW224987   2.356   7.776   1.313 -0.7697 -0.5608  0.9646
40209SOL     OW24988  10.109   6.410   6.053  0.0753 -0.4179  0.0464
40209SOL    HW124989  10.200   6.390   6.077  0.6602  1.0363 -0.8664
40209SOL    HW224990  10.100   6.504   6.065 -0.7480 -0.2358 -1.6570
40210SOL     OW24991  10.680   6.799   0.291  0.2474  0.9140  0.4100
40210SOL    HW124992  10.629   6.880   0.291 -0.6393  0.3664  0.5094
40210SOL    HW224993  10.616   6.730   0.305  1.0368  0.2109  0.6581
40211SOL     OW24994  10.181   5.521   3.599  0.2145 -0.0731 -0.1927
40211SOL    HW124995  10.167   5.427   3.609 -1.4173 -0.0436 -1.8547
40211SOL    HW224996  10.268   5.528   3.559 -0.6474 -1.0370 -2.3554
40212SOL     OW24997   1.972  10.840   9.263  0.0155 -0.5249  0.1573
40212SOL    HW124998   1.884  10.839   9.224 -0.1579 -0.2501  0.5403
40212SOL    HW224999   1.960  10.883   9.347  0.1532 -2.1745  1.0662
40213SOL     OW25000   3.281   0.144   1.211 -0.5368 -0.0823  0.4519
40213SOL    HW125001   3.280   0.162   1.305 -1.7074 -2.0788  0.8763
40213SOL    HW225002   3.189   0.141   1.185 -0.2742 -0.6824 -0.5085
40214SOL     OW25003   0.861   1.457   2.215  0.0403 -0.3192 -0.2563
40214SOL    HW125004   0.871   1.393   2.144 -0.5835 -0.7827  0.0625
40214SOL    HW225005   0.919   1.425   2.284 -0.7539 -0.9208  0.1530
40215SOL     OW25006   3.247   6.414   6.932  0.3657  0.2153 -0.5162
40215SOL    HW125007   3.228   6.506   6.951 -0.0941  0.7016 -2.9774
40215SOL    HW225008   3.298   6.385   7.007 -1.4008  1.7945  1.4234
40216SOL     OW25009  10.471   4.964  10.649  0.2286 -0.1436 -0.3450
40216SOL    HW125010  10.434   4.992  10.733 -1.0520 -0.3088 -0.8408
40216SOL    HW225011  10.559   4.933  10.671 -0.0117  0.0011  0.8983
40217SOL     OW25012   7.741   6.929   5.064  0.4248 -0.5710 -0.8567
40217SOL    HW125013   7.811   6.893   5.009 -0.5621 -1.9561 -1.2659
40217SOL    HW225014   7.695   6.991   5.007 -0.0439 -1.3409 -1.3363
40218SOL     OW25015   5.567   0.840   4.847  0.6370  0.8127 -0.4591
40218SOL    HW125016   5.637   0.776   4.843  1.3565  1.6304 -1.4680
40218SOL    HW225017   5.579   0.884   4.932 -1.5254 -2.1261  1.5788
40219SOL     OW25018  10.475   4.534   0.903  0.4278  0.1966 -0.5043
40219SOL    HW125019  10.399   4.494   0.859 -0.0378 -0.1730  0.5847
40219SOL    HW225020  10.532   4.562   0.832  0.2286 -1.3730 -1.3384
40220SOL     OW25021   5.906   6.244   4.665  0.0400 -0.1686  0.7962
40220SOL    HW125022   5.824   6.198   4.680 -0.6904  0.8586  0.1274
40220SOL    HW225023   5.895   6.328   4.709  1.0418 -0.3089  1.3429
40221SOL     OW25024   7.183   1.580   5.108 -0.4760 -0.1427 -0.0240
40221SOL    HW125025   7.248   1.598   5.039  1.3726 -1.2059  1.3362
40221SOL    HW225026   7.166   1.486   5.100 -0.1575 -0.3003  0.9900
40222SOL     OW25027   0.164   7.437   1.426  0.4238  0.1190  0.0594
40222SOL    HW125028   0.143   7.359   1.477  0.0538  1.0946  1.4628
40222SOL    HW225029   0.100   7.437   1.355 -0.4911 -0.1023  0.8664
40223SOL     OW25030  11.095   7.842   4.400 -0.3122 -0.1846 -0.4289
40223SOL    HW125031  11.065   7.761   4.441  0.0492  0.1163  0.4736
40223SOL    HW225032  11.043   7.851   4.321  0.8729 -2.2345 -1.5262
40224SOL     OW25033   5.311   4.062  10.295 -0.3635 -0.0473  0.5907
40224SOL    HW125034   5.313   3.987  10.355  1.8487 -1.0707 -0.6378
40224SOL    HW225035   5.309   4.023  10.208  1.1777  1.2997 -0.0863
40225SOL     OW25036   9.422   8.059   2.623 -0.2329  0.5639 -0.5218
40225SOL    HW125037   9.446   8.034   2.533  1.1887  1.6753 -0.4860
40225SOL    HW225038   9.484   8.012   2.678  0.2456  1.4789 -0.2603
40226SOL     OW25039  10.415   8.147   9.013 -0.3068  0.2431  0.4107
40226SOL    HW125040  10.462   8.191   8.942 -1.3248  1.0186  0.1917
40226SOL    HW225041  10.404   8.215   9.080  0.2165 -0.3501  1.1038
40227SOL     OW25042   4.581   2.238   2.555  0.0007 -0.3279 -0.0889
40227SOL    HW125043   4.546   2.309   2.500 -0.9290 -2.0942 -1.9005
40227SOL    HW225044   4.580   2.274   2.644 -0.0497  2.0615 -0.9764
40228SOL     OW25045   9.136   3.580   7.591  0.2471 -0.1260  0.1311
40228SOL    HW125046   9.047   3.571   7.557  0.2823  0.3219 -0.0929
40228SOL    HW225047   9.141   3.518   7.664 -0.3634  0.1205  0.3836
40229SOL     OW25048   4.135   0.096   1.704  0.6064 -0.7073 -0.1209
40229SOL    HW125049   4.105   0.005   1.695 -0.5946 -0.4927  1.3298
40229SOL    HW225050   4.056   0.149   1.692  1.3368  0.1881 -1.1953
40230SOL     OW25051   6.734   3.376   8.084 -0.3049 -0.7329 -0.0219
40230SOL    HW125052   6.806   3.412   8.136 -0.3632 -1.3484  0.4933
40230SOL    HW225053   6.674   3.450   8.073  0.2986 -0.2659 -0.2825
40231SOL     OW25054   3.805   9.128   5.914 -0.0201  0.2564 -0.0407
40231SOL    HW125055   3.821   9.037   5.941 -0.7242  0.5988  1.6477
40231SOL    HW225056   3.714   9.129   5.884 -0.4387  0.6526  1.1918
40232SOL     OW25057   1.742   9.963   2.453  0.4388  0.2984  0.4843
40232SOL    HW125058   1.791  10.043   2.435 -0.7810  0.7849 -0.8986
40232SOL    HW225059   1.658   9.994   2.488 -0.5436 -0.2762 -1.2531
40233SOL     OW25060   8.676   9.757   5.575 -0.1689 -0.4025  0.6488
40233SOL    HW125061   8.693   9.825   5.511  3.6322  0.4241  2.2622
40233SOL    HW225062   8.712   9.677   5.536  1.0094 -0.1475  1.1564
40234SOL     OW25063   1.438   9.339   1.183  0.2118 -0.0780 -0.3356
40234SOL    HW125064   1.362   9.287   1.159 -0.1124 -1.2416  2.7263
40234SOL    HW225065   1.415   9.378   1.268  2.9108 -0.3231  0.6097
40235SOL     OW25066   3.470   6.956   9.409  0.3098 -0.7729  0.0900
40235SOL    HW125067   3.386   6.912   9.417  0.4284 -0.7654  1.5669
40235SOL    HW225068   3.452   7.047   9.432  0.3705 -0.3356 -1.4512
40236SOL     OW25069   2.513   8.543   7.992 -0.1669  0.5123  0.1769
40236SOL    HW125070   2.526   8.631   7.956 -2.7691  0.8159 -0.2249
40236SOL    HW225071   2.490   8.557   8.084  0.2887  0.1830  0.3443
40237SOL     OW25072   9.609   7.523   3.986 -0.3377  0.3169 -0.3138
40237SOL    HW125073   9.641   7.479   4.064  2.0684  0.4396 -1.1470
40237SOL    HW225074   9.525   7.560   4.011 -0.8019 -1.7611  1.4408
40238SOL     OW25075   1.541   3.159   7.160  0.8706  0.0889  0.0261
40238SOL    HW125076   1.533   3.067   7.187 -0.1517  0.2449  0.3001
40238SOL    HW225077   1.452   3.193   7.167  0.9394  0.6776 -1.6227
40239SOL     OW25078   9.743   5.544   0.795 -0.4357  0.1901  0.3860
40239SOL    HW125079   9.834   5.535   0.826 -0.0029  0.9845 -0.5788
40239SOL    HW225080   9.750   5.547   0.700 -1.6134 -0.8953  0.2390
40240SOL     OW25081   8.415  10.030  10.448 -0.8677 -0.7201  0.4912
40240SOL    HW125082   8.420  10.067  10.536 -0.1099  0.6536 -0.0870
40240SOL    HW225083   8.324  10.043  10.421 -0.3524  2.1908 -0.2314
40241SOL     OW25084   8.515   5.350   8.787 -0.2224 -0.7336 -0.0227
40241SOL    HW125085   8.440   5.320   8.839 -0.7979  1.1213  0.2810
40241SOL    HW225086   8.480   5.361   8.699 -0.8634  1.9055  0.4876
40242SOL     OW25087   6.126   1.795   7.071  0.0192  0.2523  0.3266
40242SOL    HW125088   6.088   1.709   7.056 -0.7169  0.7958 -1.1263
40242SOL    HW225089   6.152   1.825   6.984  0.8571  1.2342  0.8897
40243SOL     OW25090   4.849   4.276   4.075 -0.3411 -0.0485 -0.1018
40243SOL    HW125091   4.811   4.318   3.998  0.9323  0.6566 -0.3745
40243SOL    HW225092   4.804   4.317   4.149 -0.3336  0.5609 -0.4252
40244SOL     OW25093   3.971   6.188   5.986 -0.6264  0.0036  0.3889
40244SOL    HW125094   3.993   6.275   5.952 -0.4187 -0.6731 -1.3198
40244SOL    HW225095   3.954   6.202   6.079 -0.4918  1.8501  0.1736
40245SOL     OW25096   8.542   4.295   5.988 -0.5148  0.5418  0.5189
40245SOL    HW125097   8.538   4.208   5.948 -0.4032  1.1974 -1.0057
40245SOL    HW225098   8.542   4.278   6.082 -1.5186 -1.0490  0.2730
40246SOL     OW25099   1.691   0.853   7.082  0.2602 -0.9135  0.5066
40246SOL    HW125100   1.758   0.842   7.015  2.2133  0.2977  2.1552
40246SOL    HW225101   1.662   0.764   7.102 -0.6283 -1.2976 -2.0845
40247SOL     OW25102   4.628   5.652   6.492 -0.0508  0.2621 -0.2625
40247SOL    HW125103   4.562   5.582   6.491 -0.6654  0.8102  0.4269
40247SOL    HW225104   4.709   5.608   6.519 -0.6474 -0.0242  1.1297
40248SOL     OW25105   1.514   7.176   4.531 -0.3496  0.0292  0.2097
40248SOL    HW125106   1.466   7.207   4.607  1.5907 -0.5032  1.7397
40248SOL    HW225107   1.526   7.255   4.477  1.1918  1.2360  2.1695
40249SOL     OW25108   5.662   7.869   3.653  0.6983  0.5297  0.5763
40249SOL    HW125109   5.707   7.938   3.702  1.1106  1.5043 -1.0808
40249SOL    HW225110   5.714   7.858   3.574  1.6358 -2.9648  1.5048
40250SOL     OW25111   0.900   9.154   7.516 -0.2643  0.4072 -0.2379
40250SOL    HW125112   0.881   9.103   7.437 -0.2112  0.6478 -0.4035
40250SOL    HW225113   0.922   9.087   7.582 -1.5072  0.1180 -0.0833
40251SOL     OW25114   3.459   0.030   1.552 -0.5984 -0.5008  1.1869
40251SOL    HW125115   3.389   0.027   1.618  0.3483 -0.9816  2.2090
40251SOL    HW225116   3.506   0.111   1.571 -0.0225 -0.8850  1.4406
40252SOL     OW25117   7.745   7.722   6.644 -0.5445 -0.1958 -0.0982
40252SOL    HW125118   7.682   7.657   6.678  1.9944 -3.0910 -0.5176
40252SOL    HW225119   7.701   7.759   6.567 -2.0220 -1.5801  0.0129
40253SOL     OW25120   1.879   3.368   6.844 -0.5262  0.3175 -0.3423
40253SOL    HW125121   1.842   3.446   6.802  0.7385  1.8008  1.1700
40253SOL    HW225122   1.965   3.357   6.805 -0.2544  0.3392  0.2453
40254SOL     OW25123   2.588   0.980   6.841 -0.3470  0.2417  0.2043
40254SOL    HW125124   2.503   0.956   6.878  0.0399  0.4070  1.2388
40254SOL    HW225125   2.602   0.916   6.770 -0.3981 -1.1301  1.3773
40255SOL     OW25126   3.710   3.646   4.531 -0.2836 -0.0402  0.0616
40255SOL    HW125127   3.729   3.601   4.449  1.4613 -0.0496  0.4268
40255SOL    HW225128   3.744   3.588   4.599  0.4663  1.0332  0.6399
40256SOL     OW25129   7.427   0.201  10.358 -0.2489  0.4555 -0.9802
40256SOL    HW125130   7.429   0.194  10.263 -2.2895  2.4336 -1.2292
40256SOL    HW225131   7.335   0.215  10.380  0.1972  0.2787  1.2952
40257SOL     OW25132   6.017   6.716   4.550 -0.6395 -0.6555  0.4840
40257SOL    HW125133   6.109   6.740   4.535 -0.8740  0.3721  0.6303
40257SOL    HW225134   5.992   6.765   4.627 -1.8039  0.4015 -0.5299
40258SOL     OW25135  10.095  10.090   5.351  0.1715 -0.0026  0.0604
40258SOL    HW125136  10.051  10.145   5.287  1.2478  0.0636 -0.6481
40258SOL    HW225137  10.185  10.083   5.319  0.2007 -1.7352  0.4139
40259SOL     OW25138   5.067   9.820  10.077  0.2394 -0.1168  0.1003
40259SOL    HW125139   5.153   9.862  10.071  0.0825  1.3100  4.3217
40259SOL    HW225140   5.075   9.762  10.152 -2.7487  1.0231  1.4468
40260SOL     OW25141   4.319   1.869   9.835  0.0964 -0.0613  0.8183
40260SOL    HW125142   4.347   1.912   9.754 -1.3653 -0.7846 -0.1056
40260SOL    HW225143   4.331   1.936   9.902  2.8699  0.0497  0.3325
40261SOL     OW25144   1.919   1.134   7.315 -0.0866 -0.3827  0.1632
40261SOL    HW125145   1.920   1.071   7.243  0.6628  1.0332 -1.1261
40261SOL    HW225146   2.001   1.119   7.362 -0.0420 -0.5450  0.0317
40262SOL     OW25147   9.515   5.814   9.391  0.2626  0.7653 -0.3157
40262SOL    HW125148   9.608   5.792   9.383 -0.0075 -1.1296  1.2834
40262SOL    HW225149   9.471   5.731   9.404 -1.7519  1.5884 -1.4346
40263SOL     OW25150   7.502   3.082  10.612  0.4105  0.0755 -0.0656
40263SOL    HW125151   7.517   3.083  10.707 -2.3438 -2.2547  0.5667
40263SOL    HW225152   7.437   3.151  10.598  0.7724  0.3784 -0.2518
40264SOL     OW25153   3.953   4.981   9.752 -0.1865  0.4466 -0.4675
40264SOL    HW125154   4.025   5.024   9.796 -0.6463  3.1433 -2.1030
40264SOL    HW225155   3.880   5.043   9.758 -0.9312 -0.0701 -2.9282
40265SOL     OW25156   6.070   6.729   8.228  0.1883 -0.5306  0.0293
40265SOL    HW125157   6.089   6.641   8.197 -0.7744 -0.9222  0.5057
40265SOL    HW225158   6.029   6.716   8.314  1.4693  0.4627  0.8216
40266SOL     OW25159   2.325  10.111   0.378  0.3212 -0.2497  0.3531
40266SOL    HW125160   2.284  10.030   0.349 -0.8704 -0.0682  1.4612
40266SOL    HW225161   2.403  10.084   0.425 -0.5642 -0.8288  1.5343
40267SOL     OW25162   6.294   3.383   3.512 -0.2495  0.1725 -0.3253
40267SOL    HW125163   6.257   3.330   3.442  1.2683  0.3886 -1.3538
40267SOL    HW225164   6.291   3.327   3.589 -1.5968 -0.2152 -0.6375
40268SOL     OW25165  10.322  10.789   9.144  0.3187 -0.0520 -0.1911
40268SOL    HW125166  10.296  10.698   9.128  0.8079 -0.2384  0.0430
40268SOL    HW225167  10.330  10.827   9.056  0.1822 -0.2558 -0.2923
40269SOL     OW25168   7.282   7.949   0.894 -0.3109 -0.6365 -0.5947
40269SOL    HW125169   7.319   7.878   0.841  0.7830  1.0792 -2.2468
40269SOL    HW225170   7.357   7.984   0.943 -1.3010 -2.2195  2.3087
40270SOL     OW25171  10.612   8.748   1.965  0.2862  0.0704 -0.1695
40270SOL    HW125172  10.667   8.679   2.000  0.5481 -0.3730 -1.4096
40270SOL    HW225173  10.539   8.755   2.027  1.4519  0.3360  1.2257
40271SOL     OW25174  10.558   6.278   7.403 -0.1817 -0.8600 -0.1721
40271SOL    HW125175  10.509   6.361   7.399  1.0728 -0.0944 -0.0898
40271SOL    HW225176  10.622   6.284   7.332 -1.6626 -2.8459 -1.8010
40272SOL     OW25177   4.091   3.675   0.666  0.1046  0.7583  0.2606
40272SOL    HW125178   4.152   3.715   0.605  1.4256 -0.0299  1.0192
40272SOL    HW225179   4.143   3.657   0.744 -1.0610 -0.0762  0.8801
40273SOL     OW25180   1.359   1.140   8.166 -0.3564 -0.0890  0.3568
40273SOL    HW125181   1.356   1.054   8.123 -0.2332  0.1259 -0.0949
40273SOL    HW225182   1.352   1.202   8.094  0.5119  0.2854  0.5855
40274SOL     OW25183  10.404   5.727   7.770  0.0727 -0.5062  0.6108
40274SOL    HW125184  10.325   5.691   7.729  0.1695  0.7959 -0.7974
40274SOL    HW225185  10.459   5.650   7.786 -0.6958 -1.2342 -0.1150
40275SOL     OW25186   9.493   2.070   0.138  0.3265  0.1498 -0.4522
40275SOL    HW125187   9.557   2.129   0.178  1.2645 -1.4233  0.4817
40275SOL    HW225188   9.525   2.057   0.049 -0.4983  1.8468 -1.0555
40276SOL     OW25189   5.574   3.817   4.690 -0.3646  0.1717 -0.3399
40276SOL    HW125190   5.535   3.856   4.612 -0.7610  1.0996  0.3007
40276SOL    HW225191   5.646   3.876   4.714 -1.6190  1.1316  1.2408
40277SOL     OW25192   8.902   3.921   9.541 -0.5192  0.0585 -0.2202
40277SOL    HW125193   8.871   3.831   9.553 -2.6661  0.6985 -0.4253
40277SOL    HW225194   8.851   3.953   9.466  0.9758  1.1268 -0.8111
40278SOL     OW25195   1.988  11.112   1.457 -0.5856  0.2948  0.6230
40278SOL    HW125196   1.979  11.017   1.458  2.1495 -0.0274  0.9689
40278SOL    HW225197   1.962  11.139   1.545 -1.1130 -0.1575  0.6123
40279SOL     OW25198   8.411   5.226   2.312  0.4908 -0.5700 -0.1065
40279SOL    HW125199   8.445   5.163   2.250  1.1193 -0.8280  0.4945
40279SOL    HW225200   8.368   5.173   2.379 -0.4006 -0.2840 -0.4397
40280SOL     OW25201   7.767   3.003  10.170  0.0053  0.2643 -0.1489
40280SOL    HW125202   7.813   3.020  10.088  0.6149 -0.2670  0.0715
40280SOL    HW225203   7.677   2.983  10.144  0.3579 -0.5946 -0.7569
40281SOL     OW25204   3.420   7.739   2.083  1.0759 -0.4025 -0.2405
40281SOL    HW125205   3.365   7.764   2.157  0.1299 -2.2907 -0.2509
40281SOL    HW225206   3.437   7.821   2.037 -1.6487  0.3100 -0.1420
40282SOL     OW25207   3.625   8.678  11.059 -0.1958 -0.0417  0.7283
40282SOL    HW125208   3.649   8.764  11.095 -1.1048 -0.0301  1.3202
40282SOL    HW225209   3.564   8.698  10.989  0.1152 -0.1765  0.4146
40283SOL     OW25210   9.981   2.368   0.721  0.4017 -0.3479  0.0088
40283SOL    HW125211   9.958   2.327   0.805 -0.3558  0.1475  0.0466
40283SOL    HW225212  10.034   2.444   0.745 -2.0467  1.4002  0.2540
40284SOL     OW25213   1.976   7.078   1.326 -0.2803  0.5779 -0.7444
40284SOL    HW125214   1.909   7.145   1.337 -0.7175  0.0796 -0.2642
40284SOL    HW225215   1.972   7.054   1.234  0.6493  1.9816 -1.1823
40285SOL     OW25216   3.026  11.072   5.623 -0.1948 -0.0693 -0.7961
40285SOL    HW125217   3.047  10.979   5.622  1.1119  0.2126 -0.8881
40285SOL    HW225218   3.097  11.114   5.574 -0.9618  0.9406 -1.0910
40286SOL     OW25219   0.792   4.585   4.763 -0.0551 -0.1862 -0.2198
40286SOL    HW125220   0.711   4.628   4.737  0.3998  0.9634  0.2007
40286SOL    HW225221   0.846   4.655   4.800  0.3936 -1.2642  1.2657
40287SOL     OW25222   8.405  10.231  10.677 -0.0561 -0.1999 -0.1796
40287SOL    HW125223   8.447  10.288  10.612  1.0746 -1.4556 -0.6074
40287SOL    HW225224   8.430  10.269  10.761 -1.3335  1.3029 -0.4360
40288SOL     OW25225   8.952   9.825   8.962  0.1139 -0.0070  0.8772
40288SOL    HW125226   9.010   9.899   8.946 -1.2419  0.9817  0.2570
40288SOL    HW225227   8.938   9.787   8.875 -0.9968  0.4424  0.8410
40289SOL     OW25228   3.053   1.953   6.277  0.1309  0.3558 -0.1996
40289SOL    HW125229   3.006   2.032   6.304 -0.1417  0.0140  0.3273
40289SOL    HW225230   3.084   1.974   6.188 -0.4940  0.8103 -0.3225
40290SOL     OW25231   6.117   2.365   5.061  0.5610 -0.4317  0.2782
40290SOL    HW125232   6.186   2.334   5.120 -0.7649 -3.7737  0.2622
40290SOL    HW225233   6.044   2.385   5.120  0.7780  0.9596  0.1064
40291SOL     OW25234   7.348   5.630   0.697 -0.5373 -0.2693  0.5087
40291SOL    HW125235   7.285   5.559   0.709  1.5914 -2.3258  0.3478
40291SOL    HW225236   7.409   5.597   0.630 -0.2172  2.2966 -0.5721
40292SOL     OW25237   1.417   9.460   4.804  0.7373  0.4726  0.1234
40292SOL    HW125238   1.389   9.535   4.856  1.9871  1.5200 -0.6666
40292SOL    HW225239   1.452   9.397   4.868 -1.5803 -0.0881  0.9364
40293SOL     OW25240   3.203   7.043   3.270 -0.1535 -0.1834 -0.0390
40293SOL    HW125241   3.140   6.979   3.302 -0.1995 -0.3365 -0.4282
40293SOL    HW225242   3.150   7.117   3.240 -0.1403 -0.2438 -0.2134
40294SOL     OW25243   4.833   6.443   4.792 -0.5298  0.0230  0.2903
40294SOL    HW125244   4.900   6.507   4.817  0.3976  0.1973 -2.3615
40294SOL    HW225245   4.814   6.396   4.873  1.6032  1.0757  1.4918
40295SOL     OW25246   3.975   7.819   5.378  0.1983  0.1311  0.1220
40295SOL    HW125247   3.944   7.858   5.296  2.3370  1.5153 -0.1273
40295SOL    HW225248   4.003   7.894   5.431  1.0623 -0.8787  1.1570
40296SOL     OW25249   0.996  11.058   4.388 -0.3225  0.6059 -0.3156
40296SOL    HW125250   0.973  11.067   4.481  0.5828  0.2768 -0.0488
40296SOL    HW225251   0.916  11.026   4.346 -0.0535 -1.7151  0.7912
40297SOL     OW25252   8.484   3.938   2.755 -0.0130  0.6228  0.1329
40297SOL    HW125253   8.560   3.888   2.787  0.0465  0.6236 -0.0033
40297SOL    HW225254   8.521   3.998   2.690 -0.1308  0.6212  0.0638
40298SOL     OW25255   6.833   9.717   5.473 -0.4285 -0.2960  0.2183
40298SOL    HW125256   6.866   9.730   5.562  0.4989 -1.2354  0.0364
40298SOL    HW225257   6.758   9.777   5.466 -0.4321 -0.1086  1.5725
40299SOL     OW25258   5.629   4.764   4.157  0.4825  0.3372  0.3721
40299SOL    HW125259   5.555   4.713   4.191 -0.6764  1.4442 -0.3965
40299SOL    HW225260   5.650   4.722   4.073  0.5021  0.2377  0.4262
40300SOL     OW25261   1.638   0.682   5.951 -0.0629 -0.2385 -0.4552
40300SOL    HW125262   1.715   0.625   5.956  0.4903  0.5526  0.5644
40300SOL    HW225263   1.624   0.696   5.857  0.6589 -0.8923 -0.6702
40301SOL     OW25264   6.632   3.438   7.056  0.5785  0.1520 -0.4131
40301SOL    HW125265   6.683   3.471   7.130 -0.0476 -0.1720  0.1799
40301SOL    HW225266   6.675   3.356   7.032  0.7964  0.2673 -0.4158
40302SOL     OW25267   0.635   3.945  10.854  0.5059 -0.3162 -0.3776
40302SOL    HW125268   0.728   3.933  10.837  0.6208  0.1466 -0.1015
40302SOL    HW225269   0.619   3.902  10.938  0.4951 -0.2936 -0.3684
40303SOL     OW25270   7.446   6.953   3.319 -0.2663 -0.0166 -0.7668
40303SOL    HW125271   7.479   7.029   3.272  0.3710  0.1536 -0.0641
40303SOL    HW225272   7.513   6.934   3.384 -1.7161  0.5607  0.9742
40304SOL     OW25273   1.425   0.897  10.033 -0.5265  0.8188 -0.1842
40304SOL    HW125274   1.465   0.864   9.953  0.1489  0.1285  0.4145
40304SOL    HW225275   1.344   0.847  10.041 -0.6085  0.9098 -0.4555
40305SOL     OW25276  11.114   5.999   3.637 -0.6794 -0.0390 -0.8212
40305SOL    HW125277  11.177   5.965   3.701 -1.2703 -2.0766 -1.2536
40305SOL    HW225278  11.159   5.991   3.553 -1.0233 -0.2560 -0.9869
40306SOL     OW25279   6.247   5.567   1.439 -0.7042 -0.1516 -0.4450
40306SOL    HW125280   6.190   5.591   1.513 -0.0918  0.2590 -0.1053
40306SOL    HW225281   6.211   5.616   1.365 -0.7381  0.1809 -0.2126
40307SOL     OW25282   5.411   2.201   3.862 -0.7015  0.1137  0.1744
40307SOL    HW125283   5.389   2.284   3.903 -0.3635  0.4561 -0.3295
40307SOL    HW225284   5.505   2.208   3.842 -0.5069 -0.6605  0.7604
40308SOL     OW25285   4.378   9.491   3.883 -0.0766  0.4161 -0.5566
40308SOL    HW125286   4.392   9.577   3.843  0.9440  0.9331  0.8426
40308SOL    HW225287   4.459   9.473   3.930 -0.2119 -1.4108 -0.9557
40309SOL     OW25288   7.605   5.233  10.313 -0.3369 -0.1007 -0.0152
40309SOL    HW125289   7.678   5.182  10.279 -0.6142 -0.1942 -0.4776
40309SOL    HW225290   7.545   5.242  10.239 -1.3517 -1.0208  0.6746
40310SOL     OW25291  10.194  10.626   7.265  0.3055  0.2080 -0.2848
40310SOL    HW125292  10.102  10.602   7.251  0.9591 -0.8701 -3.3855
40310SOL    HW225293  10.243  10.548   7.240  2.1141  0.6091  1.7456
40311SOL     OW25294   1.930   9.525   3.428 -0.5486  0.2310  0.4133
40311SOL    HW125295   1.851   9.529   3.374 -0.4015 -0.4783  0.1227
40311SOL    HW225296   1.935   9.433   3.456  1.0242 -0.1441 -0.9074
40312SOL     OW25297   8.095   7.804   2.062  0.2421 -0.4743  0.5135
40312SOL    HW125298   8.066   7.723   2.021 -1.1420 -0.0629  0.6230
40312SOL    HW225299   8.155   7.777   2.130 -0.3625 -1.4277  0.6784
40313SOL     OW25300   3.939   7.459   9.483  0.9278 -0.0292  0.1352
40313SOL    HW125301   3.881   7.399   9.436  3.6109 -1.5927 -1.4225
40313SOL    HW225302   3.906   7.546   9.461 -2.3331 -0.7772  1.4637
40314SOL     OW25303   0.676   3.110  10.857  0.2036  0.2488 -0.7476
40314SOL    HW125304   0.683   3.175  10.927  0.1607  1.4850 -1.8496
40314SOL    HW225305   0.735   3.039  10.883 -0.4626  0.2633  0.9492
40315SOL     OW25306   3.237   6.792   1.973  0.3060 -0.0035  0.4504
40315SOL    HW125307   3.218   6.859   1.907 -1.4603 -1.4875 -0.6471
40315SOL    HW225308   3.164   6.798   2.035  0.7472 -0.1518  0.9967
40316SOL     OW25309   4.213   8.798   1.016 -0.3224 -0.1617  0.4434
40316SOL    HW125310   4.235   8.748   1.095  0.4074 -0.5951 -0.0185
40316SOL    HW225311   4.218   8.890   1.044 -0.0731 -0.3110  0.9060
40317SOL     OW25312  11.013   9.982   3.649 -0.4031 -0.2687 -0.4615
40317SOL    HW125313  11.063   9.918   3.700 -0.9826 -1.3701 -1.2356
40317SOL    HW225314  11.012   9.946   3.560 -2.2777 -0.1184 -0.5382
40318SOL     OW25315   2.886   0.514   6.861  0.1420  0.3752 -0.3860
40318SOL    HW125316   2.864   0.595   6.908 -1.1334  0.1174 -0.5074
40318SOL    HW225317   2.911   0.453   6.930  1.7687  1.0443 -0.3398
40319SOL     OW25318   6.400   5.206   0.625  0.2461 -0.5304  0.0056
40319SOL    HW125319   6.405   5.239   0.536  0.8717 -0.8513 -0.0873
40319SOL    HW225320   6.311   5.225   0.654  0.1761 -0.0431 -0.5353
40320SOL     OW25321   6.585   2.757   3.878  0.6784 -0.6578 -0.2721
40320SOL    HW125322   6.517   2.823   3.883  1.3922  0.0184  1.6811
40320SOL    HW225323   6.611   2.755   3.786 -0.0969  1.0098 -0.5602
40321SOL     OW25324   2.194   7.487   6.598 -0.1975  0.1484  0.1008
40321SOL    HW125325   2.159   7.562   6.646  1.6319  0.0408  1.7148
40321SOL    HW225326   2.288   7.502   6.593  0.3455 -2.3369  1.1443
40322SOL     OW25327   3.024   7.470   5.538 -0.0126 -0.2522 -0.4392
40322SOL    HW125328   3.052   7.437   5.624  0.0192  0.8104 -0.0322
40322SOL    HW225329   3.106   7.482   5.489  0.0225 -0.1415 -0.3533
40323SOL     OW25330   0.115   1.834  10.550 -0.0695  0.4030 -0.0971
40323SOL    HW125331   0.150   1.913  10.509  0.2894  0.2953 -0.0017
40323SOL    HW225332   0.101   1.859  10.642 -1.6396  0.8913 -0.4392
40324SOL     OW25333   7.334   7.727   0.736 -0.0216  0.1931 -0.6030
40324SOL    HW125334   7.421   7.688   0.741 -0.4646 -0.7692 -0.1703
40324SOL    HW225335   7.327   7.757   0.645  0.4176 -0.5421 -0.8913
40325SOL     OW25336   3.940   3.184   1.876 -0.1074  0.4903  0.0603
40325SOL    HW125337   4.001   3.112   1.894 -1.1172 -0.2476  0.6550
40325SOL    HW225338   3.913   3.215   1.963 -0.3964  0.9656 -0.1955
40326SOL     OW25339   4.307   2.531   6.136  0.1238 -0.0743  0.2041
40326SOL    HW125340   4.237   2.468   6.121  0.0244 -0.7536  3.0540
40326SOL    HW225341   4.263   2.616   6.137 -0.2628 -0.2641 -0.3729
40327SOL     OW25342   2.984   0.230   7.652  0.7544 -0.2177  0.1991
40327SOL    HW125343   2.978   0.271   7.738 -1.2188 -2.4909  1.2605
40327SOL    HW225344   3.003   0.138   7.671  1.0431 -0.6305 -1.8558
40328SOL     OW25345   6.334   9.173   1.819  0.3715 -0.6499 -0.4702
40328SOL    HW125346   6.334   9.254   1.869 -1.6320 -0.5093 -0.6310
40328SOL    HW225347   6.384   9.194   1.740  0.3368  0.2635 -0.2591
40329SOL     OW25348   8.256   8.566   9.602 -0.7625  0.6425  0.0852
40329SOL    HW125349   8.228   8.610   9.683 -1.5223  1.3901 -0.5666
40329SOL    HW225350   8.205   8.484   9.600  2.2592 -1.5266  2.4433
40330SOL     OW25351   0.655   0.974   0.325  0.0946 -0.2680  0.3586
40330SOL    HW125352   0.629   0.906   0.263  0.3210 -1.2406  1.2979
40330SOL    HW225353   0.575   0.995   0.372  0.0817 -0.0850  0.2538
40331SOL     OW25354   2.668  10.043   0.013 -0.3861 -0.5788  0.1247
40331SOL    HW125355   2.700   9.987  -0.058 -0.4933  0.5094 -0.8070
40331SOL    HW225356   2.577  10.059  -0.008 -0.0974  0.7747 -0.1949
40332SOL     OW25357   1.141   8.764   3.588  0.0911  0.1759  0.1120
40332SOL    HW125358   1.056   8.799   3.616 -0.1719  0.0685 -0.5299
40332SOL    HW225359   1.141   8.674   3.621  0.6766  0.6748  1.5747
40333SOL     OW25360   9.993   4.114   3.237  0.5668  0.0155 -0.3942
40333SOL    HW125361   9.986   4.025   3.204  2.3280 -0.8046  1.2962
40333SOL    HW225362  10.040   4.162   3.168  0.4656 -0.5937 -0.8895
40334SOL     OW25363   1.031  10.863   8.432 -0.9045  0.4719  0.4604
40334SOL    HW125364   1.034  10.870   8.528 -1.0144 -0.8384  0.5758
40334SOL    HW225365   1.023  10.769   8.415 -1.4977  0.7385 -0.8283
40335SOL     OW25366   9.617   6.295  10.835  0.1950 -0.2137  0.3087
40335SOL    HW125367   9.708   6.302  10.808  0.5232 -0.4121  1.3112
40335SOL    HW225368   9.585   6.217  10.791  0.4046  0.0373 -0.3061
40336SOL     OW25369   8.900   9.428   6.381  0.0726  0.2871  0.2454
40336SOL    HW125370   8.983   9.383   6.398  0.7404 -0.0377 -3.1321
40336SOL    HW225371   8.840   9.358   6.355 -0.3799  0.8191 -0.1499
40337SOL     OW25372   4.439  10.916   7.581  0.0297 -0.4168 -0.0513
40337SOL    HW125373   4.382  10.840   7.568  0.1125 -0.5052  0.1007
40337SOL    HW225374   4.427  10.939   7.673  1.6758 -1.6123  0.5066
40338SOL     OW25375   5.112   2.638   4.707 -0.0684  0.3059 -0.1360
40338SOL    HW125376   5.105   2.716   4.652 -3.2488  1.0011  1.0727
40338SOL    HW225377   5.172   2.581   4.658 -1.0754  1.6982 -3.3081
40339SOL     OW25378   5.490  10.192   0.123  0.3747  0.2671 -0.0832
40339SOL    HW125379   5.508  10.162   0.211  0.7276 -1.6392 -0.7658
40339SOL    HW225380   5.571  10.234   0.095  0.2964  0.7809  0.4441
40340SOL     OW25381   5.542   8.942   4.078 -0.0752  0.1824  0.2351
40340SOL    HW125382   5.594   9.022   4.083 -3.1487  2.3471  0.1605
40340SOL    HW225383   5.480   8.949   4.150 -3.3926  0.2528 -2.3794
40341SOL     OW25384   7.972   7.397   9.585 -0.5068  0.1007  0.3085
40341SOL    HW125385   8.066   7.381   9.578 -0.5506 -0.9448  1.6137
40341SOL    HW225386   7.932   7.330   9.531 -0.5351 -0.8928  1.5127
40342SOL     OW25387   3.951   6.795   9.740  0.1146  0.1278  0.7826
40342SOL    HW125388   3.917   6.881   9.716  0.1267  0.0173  0.3638
40342SOL    HW225389   3.950   6.745   9.658  1.5013  0.1900  0.7127
40343SOL     OW25390   5.463   1.841   2.472  0.6081  0.4125 -0.1967
40343SOL    HW125391   5.455   1.839   2.567 -1.9486  0.0339 -0.3672
40343SOL    HW225392   5.530   1.908   2.455  0.6653  0.9235  1.8360
40344SOL     OW25393   4.989   4.025   5.281  0.3862  0.3898  0.1709
40344SOL    HW125394   4.908   3.976   5.270  1.1400 -1.1189  0.8817
40344SOL    HW225395   4.962   4.116   5.287 -1.8055 -0.2434  4.4694
40345SOL     OW25396   7.148   6.212   3.581 -0.0497  1.2251 -0.0410
40345SOL    HW125397   7.083   6.275   3.610 -0.1745  1.0629  0.0300
40345SOL    HW225398   7.153   6.148   3.651 -1.8335 -0.2978 -1.2198
40346SOL     OW25399   0.482   0.089   6.560  0.1470 -0.0449  0.2733
40346SOL    HW125400   0.477   0.021   6.492  0.2700  1.1359 -0.9545
40346SOL    HW225401   0.447   0.168   6.518  0.0337  0.6665  1.6587
40347SOL     OW25402   9.665   6.291   2.562 -0.3750  0.2173 -0.2533
40347SOL    HW125403   9.584   6.294   2.612 -1.0661 -1.5417 -1.1704
40347SOL    HW225404   9.720   6.229   2.610  0.0773  0.7151 -0.1260
40348SOL     OW25405   2.041   7.209   2.788  0.3799  0.0489 -0.4323
40348SOL    HW125406   2.005   7.213   2.876  0.0712 -0.2907 -0.5413
40348SOL    HW225407   2.088   7.292   2.777  1.5510 -0.4570  0.5367
40349SOL     OW25408   0.130  10.898   9.967 -0.6559  0.5112  0.0839
40349SOL    HW125409   0.152  10.982   9.926 -0.1776 -0.7114 -2.3574
40349SOL    HW225410   0.040  10.881   9.937 -1.0211  0.4801  1.1792
40350SOL     OW25411   0.381   4.105   1.255  0.3957 -0.1143  0.4703
40350SOL    HW125412   0.439   4.141   1.189  0.2621 -0.2420  0.2825
40350SOL    HW225413   0.314   4.172   1.268 -0.7640 -0.9317 -1.0372
40351SOL     OW25414   6.428  10.220   9.832  0.1140 -0.3152  0.4188
40351SOL    HW125415   6.357  10.219   9.768 -0.8706 -1.7601  1.4625
40351SOL    HW225416   6.505  10.191   9.784 -0.5012 -0.8886 -0.2290
40352SOL     OW25417  10.226   1.155   5.606  0.5092  0.2141  0.9967
40352SOL    HW125418  10.193   1.237   5.642 -0.3622  0.2188  0.2148
40352SOL    HW225419  10.263   1.109   5.682  1.5728  1.5719  1.3512
40353SOL     OW25420   2.595  10.937  11.027  0.2293 -0.7375  0.0543
40353SOL    HW125421   2.562  11.026  11.042 -0.0097 -0.6676 -0.8602
40353SOL    HW225422   2.599  10.929  10.932 -2.9696 -2.8562 -0.0542
40354SOL     OW25423   2.592   6.197   5.363  0.2894 -0.1858  0.6249
40354SOL    HW125424   2.670   6.209   5.308  0.4605  2.5441  1.3421
40354SOL    HW225425   2.617   6.127   5.424  1.9975  0.2510  0.4823
40355SOL     OW25426   6.213   1.663   5.232  0.1079  0.0294 -0.0603
40355SOL    HW125427   6.194   1.745   5.187  1.3441 -0.3191 -1.2950
40355SOL    HW225428   6.205   1.684   5.325  2.3959  2.1550 -0.2243
40356SOL     OW25429   4.466   6.572  10.024  0.1259  0.4536 -0.0021
40356SOL    HW125430   4.439   6.520   9.948  1.0378 -0.9641  0.6122
40356SOL    HW225431   4.490   6.508  10.090 -1.3421  1.6437  1.7875
40357SOL     OW25432   3.602   5.261   7.372  0.2866 -0.4056  0.3387
40357SOL    HW125433   3.586   5.305   7.289  0.7059  1.6817  1.2907
40357SOL    HW225434   3.543   5.305   7.434  0.6418 -1.2782  1.3306
40358SOL     OW25435   0.520   6.586   2.872  0.3942  0.2357  0.0629
40358SOL    HW125436   0.524   6.557   2.963  4.3173  2.9452  1.0218
40358SOL    HW225437   0.509   6.681   2.877  0.6741  0.4584 -2.2505
40359SOL     OW25438   1.133   5.434   2.555 -0.0238 -0.1895  0.0733
40359SOL    HW125439   1.188   5.381   2.497 -0.4360  0.5138 -1.0040
40359SOL    HW225440   1.053   5.383   2.565 -1.5173  1.2272 -3.0874
40360SOL     OW25441   5.489   5.207   1.167 -0.5926 -0.4509 -0.0092
40360SOL    HW125442   5.462   5.167   1.085 -0.9507 -1.3948  0.5564
40360SOL    HW225443   5.455   5.297   1.162 -0.6038 -0.4998 -0.8884
40361SOL     OW25444   2.008   2.253   3.478 -0.1721 -0.2467  0.0966
40361SOL    HW125445   2.022   2.238   3.384  0.9202  0.4802  0.1277
40361SOL    HW225446   1.923   2.297   3.483  0.4363  1.0932 -0.7050
40362SOL     OW25447   1.512   8.073   9.216 -0.2206  0.3018 -0.2461
40362SOL    HW125448   1.448   8.019   9.262 -1.6107  0.9785 -1.2931
40362SOL    HW225449   1.537   8.021   9.140  0.9703 -0.2104  0.4683
40363SOL     OW25450  10.050   5.736   4.297  0.0419  0.1113  0.7382
40363SOL    HW125451  10.055   5.665   4.361  0.0720  1.0862  1.8435
40363SOL    HW225452   9.956   5.743   4.276  0.0824 -0.4895  0.3409
40364SOL     OW25453   7.334   0.194   7.074 -0.4681 -0.1810 -0.3129
40364SOL    HW125454   7.377   0.258   7.018 -0.0537  0.6302  0.8961
40364SOL    HW225455   7.404   0.134   7.100 -0.2798  0.4940  0.7665
40365SOL     OW25456   3.196  10.000   0.461 -0.3085  0.1379 -0.2466
40365SOL    HW125457   3.254   9.926   0.442 -1.9395 -1.1372 -0.4250
40365SOL    HW225458   3.254  10.076   0.460  1.4680 -1.1454  0.2025
40366SOL     OW25459   5.921   3.989   6.088  0.3722  0.2219 -0.3198
40366SOL    HW125460   5.962   3.918   6.040  1.3870  0.7735 -0.2804
40366SOL    HW225461   5.950   4.069   6.044  0.2141  0.6725  0.3729
40367SOL     OW25462   2.340  10.422   7.600  0.5231 -0.4666  0.0950
40367SOL    HW125463   2.356  10.347   7.657  0.4649 -1.0262 -0.6033
40367SOL    HW225464   2.355  10.388   7.512 -0.5846  0.0458 -0.3057
40368SOL     OW25465   9.715   3.340   9.426 -0.0262  0.1535  0.5889
40368SOL    HW125466   9.792   3.285   9.413  0.6968  1.5253 -1.3716
40368SOL    HW225467   9.739   3.424   9.386 -1.7739  1.2966  1.8153
40369SOL     OW25468  10.840   3.083   4.612  0.3334  0.5800  0.0777
40369SOL    HW125469  10.754   3.051   4.585  0.4664 -0.6061  0.9784
40369SOL    HW225470  10.828   3.110   4.703  0.5769  1.7998 -0.2290
40370SOL     OW25471   3.965   8.538   8.187 -0.6496 -0.1295 -0.3867
40370SOL    HW125472   3.941   8.619   8.142  0.3141  1.1808  1.3583
40370SOL    HW225473   3.889   8.481   8.173 -0.9005  0.6220 -2.5804
40371SOL     OW25474   0.073   2.783   1.860 -0.6202  0.4716  0.3151
40371SOL    HW125475   0.137   2.780   1.931 -1.8538  0.6021  1.4903
40371SOL    HW225476   0.107   2.849   1.799  2.0153 -1.7647 -0.8407
40372SOL     OW25477   2.940   2.389   2.169  0.2008  0.6581 -0.0750
40372SOL    HW125478   2.970   2.345   2.248 -0.1390  0.0866 -0.2564
40372SOL    HW225479   2.991   2.348   2.098 -1.6985 -1.1173 -0.5275
40373SOL     OW25480   2.184   7.538   2.471  0.5562 -0.0136 -0.1344
40373SOL    HW125481   2.171   7.583   2.388  1.1575 -0.7839 -0.6701
40373SOL    HW225482   2.220   7.605   2.530  3.2068 -0.1490 -1.4383
40374SOL     OW25483   8.250   2.100   6.109 -0.1714  0.8298 -0.0926
40374SOL    HW125484   8.298   2.183   6.107 -0.5163  1.0678  1.0166
40374SOL    HW225485   8.234   2.080   6.017 -0.1538  2.0358 -0.3752
40375SOL     OW25486   8.930   0.148   6.965 -0.1679 -0.5136  1.0163
40375SOL    HW125487   9.014   0.111   6.939 -0.7302 -0.8680 -0.3823
40375SOL    HW225488   8.931   0.144   7.061  2.0182  0.8935  1.1292
40376SOL     OW25489   7.316   1.331  10.220  0.4795  0.2934 -1.0040
40376SOL    HW125490   7.296   1.414  10.177 -0.3048  0.7060  0.0915
40376SOL    HW225491   7.344   1.356  10.309 -1.1617 -0.6378 -0.1693
40377SOL     OW25492   4.013   4.721   6.799  0.2896  0.2942  0.3707
40377SOL    HW125493   3.988   4.662   6.869 -1.9067  0.5279 -0.1545
40377SOL    HW225494   4.056   4.794   6.843 -0.5119  0.1527  1.4064
40378SOL     OW25495   2.041   5.246   4.138  0.0722 -0.4394  0.0595
40378SOL    HW125496   2.072   5.156   4.145  0.6094 -0.1789  1.0756
40378SOL    HW225497   1.953   5.238   4.101  0.4249 -1.3252 -0.5998
40379SOL     OW25498   2.129   5.911   2.389  0.0283 -0.5627  0.0067
40379SOL    HW125499   2.177   5.969   2.447 -2.6498  0.7007  1.1273
40379SOL    HW225500   2.086   5.848   2.447 -0.3947 -1.0972 -0.8619
40380SOL     OW25501   5.947   5.531   8.623  0.2121 -0.4880  0.2607
40380SOL    HW125502   5.918   5.468   8.689  1.8203 -0.5534  0.9724
40380SOL    HW225503   6.043   5.526   8.626  0.3401  0.4907 -1.1468
40381SOL     OW25504   4.263   5.177   6.658  0.1121 -0.0715  0.3701
40381SOL    HW125505   4.254   5.218   6.572  1.2993  1.2537  0.8326
40381SOL    HW225506   4.354   5.196   6.683 -0.2437 -0.3584  1.9412
40382SOL     OW25507   7.385  10.444  10.851  0.3445 -0.3715 -0.2732
40382SOL    HW125508   7.373  10.434  10.757  0.0424 -3.0924 -0.0286
40382SOL    HW225509   7.426  10.362  10.879  1.1547  0.6892  1.8596
40383SOL     OW25510   3.709   2.397   6.374 -0.1519 -0.8297  0.7254
40383SOL    HW125511   3.628   2.399   6.322  0.9215  0.2760 -0.9977
40383SOL    HW225512   3.738   2.306   6.370 -0.6035 -0.9570  0.1986
40384SOL     OW25513   9.941   5.558   2.397 -0.0451  0.2977  0.4927
40384SOL    HW125514   9.995   5.479   2.388 -0.5674  0.1468 -2.5172
40384SOL    HW225515   9.865   5.529   2.448 -0.0774 -1.1195 -0.2801
40385SOL     OW25516   5.510   8.672   0.161  0.1136  0.2964 -0.5825
40385SOL    HW125517   5.522   8.767   0.168  0.2545  0.2835 -0.6552
40385SOL    HW225518   5.484   8.658   0.070 -0.5914  0.3400 -0.3980
40386SOL     OW25519   1.148   4.048   1.668  0.2734  0.0891 -0.3646
40386SOL    HW125520   1.097   4.080   1.742  0.1688 -1.0876  0.0956
40386SOL    HW225521   1.231   4.020   1.706  0.1221 -0.7712 -0.6264
40387SOL     OW25522   6.447   6.646   8.979 -0.5217  0.5882  0.2885
40387SOL    HW125523   6.436   6.551   8.970  0.6115  0.4931 -0.1791
40387SOL    HW225524   6.414   6.665   9.067  0.2768 -0.4116  0.8231
40388SOL     OW25525   9.569   0.225   6.501 -0.1472  0.8275 -0.1522
40388SOL    HW125526   9.569   0.208   6.595 -0.6806  0.3710 -0.2314
40388SOL    HW225527   9.658   0.205   6.473  0.6418  2.9985  0.5989
40389SOL     OW25528   2.052   8.385   4.631  0.6098  0.3490 -0.0058
40389SOL    HW125529   2.068   8.439   4.708  1.1545 -0.2740  0.3273
40389SOL    HW225530   2.075   8.296   4.658  1.7619  0.2589 -1.1712
40390SOL     OW25531   5.197   5.796   9.758  0.2886  0.8661  0.0372
40390SOL    HW125532   5.212   5.703   9.740 -0.2897  0.9463 -0.9481
40390SOL    HW225533   5.278   5.839   9.732  1.5319  0.4011  2.8563
40391SOL     OW25534   4.644   6.634   8.527 -0.4417 -0.3074 -0.1009
40391SOL    HW125535   4.720   6.606   8.476  0.1468 -0.8610  1.0407
40391SOL    HW225536   4.614   6.554   8.570 -0.0541  0.3805  1.5091
40392SOL     OW25537   0.945  10.118   4.854 -0.4220 -0.0582 -0.1382
40392SOL    HW125538   0.995  10.137   4.934 -0.2942  2.8271 -0.8007
40392SOL    HW225539   0.858  10.093   4.886 -0.0575 -0.0054  0.9269
40393SOL     OW25540   5.033   6.146   7.485  0.2221  0.3373  0.6201
40393SOL    HW125541   5.079   6.095   7.552  1.0614 -1.6761 -1.3627
40393SOL    HW225542   5.097   6.213   7.459  0.2734  0.4789  1.0954
40394SOL     OW25543   3.275   4.064   3.402 -0.0538 -0.1999  0.1267
40394SOL    HW125544   3.273   4.056   3.497  0.2694 -0.1021  0.1420
40394SOL    HW225545   3.184   4.082   3.377 -0.0109  0.5836  0.4886
40395SOL     OW25546   6.255   1.744  10.481  0.3084 -0.0034  0.0893
40395SOL    HW125547   6.168   1.780  10.465 -0.3611 -0.9653  1.4240
40395SOL    HW225548   6.285   1.788  10.560  0.4947 -0.6095  0.3581
40396SOL     OW25549   4.820   9.160   2.905  0.3580 -0.4513 -0.4744
40396SOL    HW125550   4.750   9.096   2.897  0.0224 -0.0556 -0.7162
40396SOL    HW225551   4.809   9.198   2.992  0.9648 -1.1865 -0.0603
40397SOL     OW25552   8.559   5.842   2.194  0.1052  0.1975 -0.0610
40397SOL    HW125553   8.562   5.861   2.101  1.4780 -0.5980 -0.2058
40397SOL    HW225554   8.617   5.907   2.234  0.7632 -0.4372  0.0386
40398SOL     OW25555   6.865   0.500   3.653  0.2917  0.2123 -0.1452
40398SOL    HW125556   6.877   0.511   3.558  1.8593 -0.5084 -0.0646
40398SOL    HW225557   6.821   0.580   3.681 -0.2527  0.4145 -1.4806
40399SOL     OW25558   9.922   9.735   6.176 -0.2516  0.7365 -0.4601
40399SOL    HW125559   9.897   9.690   6.096 -2.7025 -0.0993  0.6690
40399SOL    HW225560   9.916   9.828   6.154  1.5065  0.5665 -1.8596
40400SOL     OW25561   2.775   3.601   7.605 -0.1240  0.7259  0.0751
40400SOL    HW125562   2.785   3.570   7.695  0.9467  0.2972 -0.1733
40400SOL    HW225563   2.849   3.563   7.558 -1.8666 -0.9885 -1.5170
40401SOL     OW25564   7.978  10.588   6.215 -0.3010  0.5598  0.0937
40401SOL    HW125565   8.010  10.565   6.128  0.0108 -0.5846  0.4961
40401SOL    HW225566   7.949  10.679   6.207 -0.5625  0.3658 -1.2722
40402SOL     OW25567   0.253   7.103  10.762  0.4929 -0.0259  0.0746
40402SOL    HW125568   0.255   7.190  10.802 -0.2485  0.6105 -1.1948
40402SOL    HW225569   0.182   7.108  10.698  1.1531 -1.2307 -0.7966
40403SOL     OW25570   8.866   5.566   1.132  0.0725  0.4743 -0.2007
40403SOL    HW125571   8.881   5.657   1.108 -0.4415  0.1360 -1.8746
40403SOL    HW225572   8.801   5.570   1.202 -0.5225  1.3592 -0.7889
40404SOL     OW25573   1.335   9.825   6.229  0.2260 -0.2268 -0.0568
40404SOL    HW125574   1.368   9.793   6.145  0.5759  1.0823 -0.4494
40404SOL    HW225575   1.240   9.819   6.221  0.2155  0.8235 -0.9537
40405SOL     OW25576   9.277   2.978   6.296  0.6478 -0.2978  0.6762
40405SOL    HW125577   9.317   2.900   6.335  0.9529 -0.1563  0.6494
40405SOL    HW225578   9.193   2.947   6.262  1.3240 -0.9233 -0.4976
40406SOL     OW25579   9.695   7.929  10.294 -0.2933  0.2916  0.1232
40406SOL    HW125580   9.629   7.968  10.352  0.6864 -0.7202  2.0131
40406SOL    HW225581   9.778   7.958  10.330  0.4435 -2.5033  0.9308
40407SOL     OW25582   9.951   1.161   3.550  0.0109 -0.6053  0.1210
40407SOL    HW125583   9.885   1.229   3.563  0.8056 -0.1308  2.0135
40407SOL    HW225584   9.989   1.148   3.636  2.0781 -1.1880 -0.8165
40408SOL     OW25585   2.536   2.215   2.653 -0.2023  0.1998  0.0445
40408SOL    HW125586   2.503   2.132   2.618 -0.1551  0.7918 -1.4914
40408SOL    HW225587   2.457   2.266   2.671 -0.2689 -0.4400  1.7948
40409SOL     OW25588  10.406   9.631   8.981  0.3315 -0.3101  0.5544
40409SOL    HW125589  10.440   9.714   9.015  2.5266 -1.5653  1.6412
40409SOL    HW225590  10.479   9.593   8.932 -0.0121 -2.3336  1.4897
40410SOL     OW25591   7.619   2.268   3.589  0.9565 -0.4420 -0.6416
40410SOL    HW125592   7.595   2.247   3.679 -0.4661  0.4840 -0.7724
40410SOL    HW225593   7.712   2.248   3.583  1.2959  0.3665  1.2996
40411SOL     OW25594   8.069   2.167   7.854  0.1393  0.6780  0.0562
40411SOL    HW125595   8.129   2.113   7.905  0.0910  0.9281  0.3820
40411SOL    HW225596   7.988   2.167   7.903  0.0959  0.9340 -0.0124
40412SOL     OW25597  10.533   7.597   3.555 -0.2915  0.0592  0.4755
40412SOL    HW125598  10.628   7.591   3.563 -0.0118  2.8912  0.4993
40412SOL    HW225599  10.506   7.649   3.631 -1.7301  0.0602 -0.0077
40413SOL     OW25600   5.155   4.580   9.734  0.0540  0.2045 -0.4392
40413SOL    HW125601   5.067   4.617   9.727 -0.1121 -0.2444 -0.7429
40413SOL    HW225602   5.212   4.647   9.695  0.2169  1.8032  2.3382
40414SOL     OW25603  10.080  10.073   0.920  0.0524 -0.7118  0.2994
40414SOL    HW125604  10.017  10.130   0.963 -0.5847  0.0148 -1.4999
40414SOL    HW225605  10.111  10.124   0.844 -0.7176 -2.7888 -1.5128
40415SOL     OW25606   8.105   0.236   2.409 -0.1915  0.0099  0.0178
40415SOL    HW125607   8.199   0.220   2.420 -0.1983  1.2144  2.3944
40415SOL    HW225608   8.099   0.299   2.337  0.6150 -1.6364 -1.5719
40416SOL     OW25609   2.741   9.021   7.764 -0.0247 -0.2822  0.0299
40416SOL    HW125610   2.739   9.058   7.852  0.9122 -0.8641  0.3155
40416SOL    HW225611   2.652   9.034   7.730 -0.4115 -0.0982  1.0792
40417SOL     OW25612   2.651   6.012   0.778 -0.2171 -0.2020 -0.0232
40417SOL    HW125613   2.719   5.960   0.820  0.8176  2.9145  2.5560
40417SOL    HW225614   2.570   5.986   0.822  0.0190 -0.7387  0.0999
40418SOL     OW25615   3.984   8.026   5.541  0.2558 -0.0344  0.6417
40418SOL    HW125616   3.901   8.072   5.539  0.3403  0.1020  0.2222
40418SOL    HW225617   4.001   8.011   5.634 -0.0034  0.3571  0.7522
40419SOL     OW25618   4.573   1.345   2.467 -0.0837  0.0850 -0.3511
40419SOL    HW125619   4.635   1.417   2.460  0.7073 -0.6761 -1.4393
40419SOL    HW225620   4.529   1.359   2.551  2.9168 -0.4193  1.4253
40420SOL     OW25621   7.978  10.053   9.711  0.0216 -0.2342 -0.4127
40420SOL    HW125622   7.984  10.138   9.754  0.6757 -0.6383  0.3186
40420SOL    HW225623   7.902  10.061   9.653 -0.9786  0.2920  0.9034
40421SOL     OW25624   5.068   1.709   1.824 -0.5296  0.0880 -0.3077
40421SOL    HW125625   5.021   1.696   1.742  1.0162  0.0262 -1.2286
40421SOL    HW225626   5.004   1.689   1.892 -1.7324 -0.2538 -1.5028
40422SOL     OW25627   9.595   4.872   8.249 -0.6528 -0.3993 -0.4105
40422SOL    HW125628   9.543   4.906   8.321  0.6884 -1.5704  1.2261
40422SOL    HW225629   9.634   4.949   8.209 -0.3855  0.2381  0.9960
40423SOL     OW25630  10.002   7.718   7.079 -0.4272  0.4788  0.3571
40423SOL    HW125631   9.915   7.681   7.069  0.2663 -1.5297  1.1040
40423SOL    HW225632   9.993   7.783   7.149 -1.3287  0.3387  0.3817
40424SOL     OW25633   7.492   0.289   3.474  0.2771 -0.2872 -0.2463
40424SOL    HW125634   7.535   0.284   3.389  1.0512  0.7365  0.0590
40424SOL    HW225635   7.406   0.328   3.455 -0.6236 -2.4457 -0.8702
40425SOL     OW25636  10.770   8.984   1.401  0.0206  0.2997  0.6108
40425SOL    HW125637  10.866   8.978   1.407 -0.0972 -1.7317  1.1195
40425SOL    HW225638  10.743   8.898   1.369 -1.7130  0.5947  1.1997
40426SOL     OW25639   5.320   9.814   2.485 -0.0229  0.1332 -0.4141
40426SOL    HW125640   5.341   9.738   2.430  2.2880 -0.0459  0.6202
40426SOL    HW225641   5.389   9.877   2.467  0.3499  0.3890  1.6720
40427SOL     OW25642   1.896   4.479   4.994 -0.5902  0.4886  0.7148
40427SOL    HW125643   1.874   4.504   5.083  1.4414  0.5599  1.2452
40427SOL    HW225644   1.978   4.525   4.976  0.9156 -2.2550  0.0959
40428SOL     OW25645   8.195   1.612   2.876  0.6059 -0.1904  0.2221
40428SOL    HW125646   8.205   1.707   2.871  1.4594 -0.2146  1.1772
40428SOL    HW225647   8.264   1.577   2.820 -1.3851 -0.2634 -2.3629
40429SOL     OW25648   6.091   5.949   2.687  0.3230 -0.4182  0.0954
40429SOL    HW125649   6.034   6.025   2.673  0.4254  0.0368  1.8460
40429SOL    HW225650   6.032   5.874   2.682 -0.2878 -0.0200  0.8865
40430SOL     OW25651   1.683   4.467   0.014 -0.2106 -0.0175  0.8545
40430SOL    HW125652   1.599   4.453  -0.031  0.1326 -0.0965  0.2263
40430SOL    HW225653   1.708   4.379   0.045  1.0874 -0.5834 -1.5700
40431SOL     OW25654   7.046   2.286   6.584 -0.4458 -0.5339 -0.2679
40431SOL    HW125655   7.138   2.283   6.558 -0.3946 -1.6907  0.0386
40431SOL    HW225656   7.021   2.195   6.599 -0.7569 -0.0531  2.7743
40432SOL     OW25657   7.537   3.388   6.159 -0.0485  0.7705 -0.1518
40432SOL    HW125658   7.600   3.355   6.095 -1.0666  0.9993 -1.3189
40432SOL    HW225659   7.507   3.310   6.205  0.8376  0.6230  0.1829
40433SOL     OW25660   6.752  10.982   8.411 -0.0278 -0.0764 -0.1580
40433SOL    HW125661   6.735  10.949   8.323  0.6035  1.3387 -0.8441
40433SOL    HW225662   6.665  11.008   8.444 -0.0727  0.8939 -1.0108
40434SOL     OW25663  10.271   1.010  10.385  0.2877 -0.1748 -0.0982
40434SOL    HW125664  10.329   1.000  10.461 -0.2850 -1.4635  0.2024
40434SOL    HW225665  10.193   0.959  10.408 -0.1510 -0.0656 -1.2944
40435SOL     OW25666   1.260  10.042   7.950 -0.2875  0.0546  0.0921
40435SOL    HW125667   1.168  10.021   7.968 -0.3008  0.0259 -0.0077
40435SOL    HW225668   1.266  10.043   7.854 -0.3007  0.5777  0.0946
40436SOL     OW25669   1.437   0.133   6.671  0.0976 -0.5248 -0.0057
40436SOL    HW125670   1.481   0.151   6.588 -1.5184 -0.2499 -0.8504
40436SOL    HW225671   1.427   0.218   6.713  1.3031 -0.7137  0.7035
40437SOL     OW25672   0.447   4.025  10.020  0.7190 -0.3925  0.4704
40437SOL    HW125673   0.387   3.987  10.085 -3.0123 -0.3746 -2.5532
40437SOL    HW225674   0.439   4.119  10.031 -1.3824 -0.3266 -0.9790
40438SOL     OW25675   3.341   4.452   8.451  0.3651 -0.0578  0.2353
40438SOL    HW125676   3.303   4.527   8.496 -1.7336 -0.8444 -0.1076
40438SOL    HW225677   3.265   4.402   8.419  1.7234 -1.0035 -1.7215
40439SOL     OW25678   6.237   3.894   3.115 -0.8700 -0.4128  0.1329
40439SOL    HW125679   6.273   3.912   3.028 -1.2028  1.5760  0.3637
40439SOL    HW225680   6.211   3.980   3.148  0.4279 -0.9190  2.7249
40440SOL     OW25681   7.770   7.312   2.381  0.4672  0.6739  0.0911
40440SOL    HW125682   7.787   7.400   2.346 -1.0169  0.6489 -0.7585
40440SOL    HW225683   7.763   7.256   2.304 -0.2811  0.1313  0.5392
40441SOL     OW25684   4.216   0.776   5.643 -0.0832  0.0651 -0.2019
40441SOL    HW125685   4.234   0.741   5.556  2.8980  2.4331 -0.6966
40441SOL    HW225686   4.246   0.708   5.703  0.4184 -0.4866 -1.0582
40442SOL     OW25687   6.596   1.315   4.325 -0.1307  0.7451  0.1653
40442SOL    HW125688   6.509   1.346   4.297  0.3140  0.8307 -1.2118
40442SOL    HW225689   6.657   1.367   4.273  0.6896 -1.0383 -0.7203
40443SOL     OW25690   2.334   5.494   8.990  0.5389  0.2302 -0.5887
40443SOL    HW125691   2.331   5.441   9.069  1.1801 -1.8727 -1.8943
40443SOL    HW225692   2.247   5.484   8.951  0.7974 -0.2308 -1.0562
40444SOL     OW25693   4.795   3.470   5.411 -0.1846  0.4102  0.1136
40444SOL    HW125694   4.752   3.527   5.348  2.2022 -0.6651 -2.7384
40444SOL    HW225695   4.875   3.517   5.436 -1.0367  0.7828  2.4298
40445SOL     OW25696   6.000   6.564   3.658 -0.2771  0.1779  0.0014
40445SOL    HW125697   5.972   6.590   3.570 -1.3552 -1.1615 -0.0725
40445SOL    HW225698   6.025   6.472   3.649  0.2223  0.2091  0.9661
40446SOL     OW25699   5.606   8.218   9.462  0.2938  0.0857  0.7724
40446SOL    HW125700   5.607   8.132   9.503  0.4499  0.5041  1.6864
40446SOL    HW225701   5.527   8.260   9.497  1.2139  0.9898  1.8353
40447SOL     OW25702   7.699   4.282  10.397  0.1482 -0.2587  0.3445
40447SOL    HW125703   7.686   4.263  10.304  1.0573  0.7771 -0.0185
40447SOL    HW225704   7.754   4.360  10.397 -0.2701  0.0537  1.7617
40448SOL     OW25705   7.756  10.363   7.209 -0.1414 -0.5538  0.7428
40448SOL    HW125706   7.792  10.452   7.212 -3.4622  0.9750 -0.0603
40448SOL    HW225707   7.749  10.344   7.115 -1.3944 -0.7417  0.8587
40449SOL     OW25708   2.026   4.281   9.360 -0.3457  0.0817  0.0864
40449SOL    HW125709   2.057   4.258   9.447  0.0149 -0.6099 -0.2190
40449SOL    HW225710   2.103   4.316   9.315 -0.1203 -1.0825 -0.4786
40450SOL     OW25711   7.002   5.541   7.968 -0.1685 -0.1094 -0.1420
40450SOL    HW125712   6.957   5.459   7.987  0.3282 -0.2952  0.2552
40450SOL    HW225713   6.993   5.592   8.049 -0.4893  0.2401 -0.3931
40451SOL     OW25714   1.432   9.674   4.963 -0.4216  0.4611 -0.6755
40451SOL    HW125715   1.403   9.641   5.048 -1.4082 -0.3227 -1.2915
40451SOL    HW225716   1.373   9.747   4.944  0.5648  1.4253 -0.1681
40452SOL     OW25717   3.406   2.431   5.919 -0.1360  0.0848  0.4830
40452SOL    HW125718   3.376   2.381   5.844 -1.9358 -1.1388  1.9284
40452SOL    HW225719   3.330   2.484   5.945  0.9052  1.6002  0.5974
40453SOL     OW25720   9.397   9.447   6.677 -0.3407 -0.1226 -0.2157
40453SOL    HW125721   9.490   9.469   6.684 -0.5575  0.4348  1.2825
40453SOL    HW225722   9.356   9.528   6.648 -0.3148 -0.5249 -1.4361
40454SOL     OW25723   0.123   9.595   9.649  0.5530  0.0262  0.2237
40454SOL    HW125724   0.038   9.553   9.655 -0.3414  1.6374 -0.5487
40454SOL    HW225725   0.119   9.667   9.712  0.5108  1.4235 -1.3239
40455SOL     OW25726   4.359   3.548   0.635 -0.1182 -0.3689 -0.1054
40455SOL    HW125727   4.402   3.490   0.697  0.1866  1.0580  1.0681
40455SOL    HW225728   4.413   3.627   0.634 -0.7977  0.1116 -1.2629
40456SOL     OW25729   3.626   8.201   8.842  0.3261 -0.8662  0.0345
40456SOL    HW125730   3.643   8.169   8.753  0.7703 -0.0930 -0.1683
40456SOL    HW225731   3.535   8.176   8.859  0.4518 -1.6220 -0.3725
40457SOL     OW25732   7.189   3.502   1.312  0.5877  0.1596  1.2224
40457SOL    HW125733   7.136   3.425   1.331 -0.4299 -0.5899 -3.5126
40457SOL    HW225734   7.126   3.573   1.299  0.8083 -0.0539 -1.5898
40458SOL     OW25735   3.540   9.461   9.526 -0.4887  0.2096  0.5522
40458SOL    HW125736   3.501   9.546   9.504 -2.9808  0.0050  3.4633
40458SOL    HW225737   3.596   9.479   9.601 -3.2338 -0.9204  3.0799
40459SOL     OW25738   6.279   6.755   1.792  0.7125 -0.1859  0.6326
40459SOL    HW125739   6.231   6.672   1.793  0.3312  0.0323  0.8675
40459SOL    HW225740   6.218   6.817   1.751  0.7287  0.1341  1.0940
40460SOL     OW25741   2.946   2.814   7.839  0.5326 -0.4203  0.1947
40460SOL    HW125742   2.935   2.837   7.747 -3.8295  2.8656  1.2385
40460SOL    HW225743   2.972   2.896   7.882  0.8980 -1.4647  2.1092
40461SOL     OW25744   5.578   7.563   5.608 -0.6011 -0.3032 -0.1692
40461SOL    HW125745   5.486   7.583   5.596 -0.7828 -1.1062 -0.1390
40461SOL    HW225746   5.614   7.640   5.653 -0.8823  0.7469 -1.6870
40462SOL     OW25747   5.176   6.545   8.713 -0.3950 -0.4150 -1.2053
40462SOL    HW125748   5.183   6.521   8.621  1.5096 -1.7025 -0.7893
40462SOL    HW225749   5.167   6.461   8.759 -0.5862  0.1533 -0.1740
40463SOL     OW25750   9.239   7.946   1.102 -0.3583  0.0544 -0.7203
40463SOL    HW125751   9.294   7.875   1.070 -0.5553 -0.3328 -0.2234
40463SOL    HW225752   9.226   8.003   1.026  0.8517  0.2422 -0.8124
40464SOL     OW25753   3.033   5.431   1.248  0.3373  0.4265  0.4164
40464SOL    HW125754   2.965   5.495   1.268  0.2352  0.5413 -0.2757
40464SOL    HW225755   2.993   5.346   1.267  0.1499  0.5171  0.4245
40465SOL     OW25756   5.830   4.951   2.032  0.3990  0.1383  0.0893
40465SOL    HW125757   5.748   4.913   2.001  0.4335  0.5815 -0.5692
40465SOL    HW225758   5.811   4.981   2.121  0.3430 -1.3042  0.5777
40466SOL     OW25759  10.598   7.644  10.363 -0.4540 -0.4375  0.1788
40466SOL    HW125760  10.612   7.629  10.269  0.4496 -0.5178  0.3221
40466SOL    HW225761  10.684   7.665  10.397 -0.9456  0.6664  0.8047
40467SOL     OW25762  10.141   7.592   3.158 -0.4051  0.6271  0.4857
40467SOL    HW125763  10.228   7.631   3.160  0.2976 -0.5736 -1.9606
40467SOL    HW225764  10.156   7.499   3.175 -0.8000 -0.0233 -2.2798
40468SOL     OW25765  10.469   3.813   0.304  0.5239  0.2518  0.1564
40468SOL    HW125766  10.458   3.761   0.225 -0.7780 -0.2653  0.6477
40468SOL    HW225767  10.564   3.821   0.315  0.7248  0.5279 -1.5545
40469SOL     OW25768   5.595   8.926   5.488 -0.8106  0.1172  0.4555
40469SOL    HW125769   5.625   8.844   5.450 -0.0810  0.6672 -0.1787
40469SOL    HW225770   5.609   8.991   5.420 -0.9728  0.8486  1.1001
40470SOL     OW25771  10.320   6.965   7.504 -0.5129 -0.4301 -0.5148
40470SOL    HW125772  10.342   7.054   7.530 -0.0375 -0.3114 -1.2777
40470SOL    HW225773  10.283   6.925   7.582  1.5333 -0.3274  0.5678
40471SOL     OW25774   7.236   1.855   1.306 -0.3578 -0.1190  0.1669
40471SOL    HW125775   7.304   1.917   1.282 -0.7838  0.7183  1.0590
40471SOL    HW225776   7.224   1.867   1.400  1.0037 -3.0437  0.8207
40472SOL     OW25777   2.847   0.601   7.853  0.4921 -0.5930 -0.0385
40472SOL    HW125778   2.753   0.619   7.856  0.4360 -0.6302 -1.0935
40472SOL    HW225779   2.880   0.657   7.782  1.0428 -1.4774 -0.5082
40473SOL     OW25780   0.302   5.622   4.860  0.1567 -0.5113 -0.4613
40473SOL    HW125781   0.322   5.710   4.828  1.2268 -0.6540 -0.2157
40473SOL    HW225782   0.221   5.633   4.910  1.7016  0.9179  1.9550
40474SOL     OW25783  10.707   8.431   3.002  0.6450 -0.3977 -0.0208
40474SOL    HW125784  10.785   8.486   3.010  0.0655  0.3535  0.6725
40474SOL    HW225785  10.659   8.446   3.083 -0.7412 -0.0150 -0.8653
40475SOL     OW25786   4.888   2.997   5.819 -0.0193 -0.0754 -0.2857
40475SOL    HW125787   4.982   2.978   5.819  0.2657  1.2238  0.5487
40475SOL    HW225788   4.881   3.081   5.775 -0.6993  0.2073  0.3570
40476SOL     OW25789   0.389   0.388   1.252  0.3956 -0.0894  0.1584
40476SOL    HW125790   0.416   0.427   1.169 -0.6041  0.8681  0.2612
40476SOL    HW225791   0.343   0.308   1.228 -0.4261  0.4961 -0.2677
40477SOL     OW25792   1.927   9.814   6.561 -0.1779 -0.4350  0.0951
40477SOL    HW125793   1.902   9.749   6.494  0.8761 -0.7881  0.0195
40477SOL    HW225794   1.855   9.876   6.562 -0.9603 -1.3030 -0.2366
40478SOL     OW25795   8.393   2.145   9.618  0.3250 -0.4880 -0.6281
40478SOL    HW125796   8.484   2.143   9.649 -0.2468  1.1075  1.3978
40478SOL    HW225797   8.363   2.234   9.639 -2.7725 -1.9895  2.1466
40479SOL     OW25798   2.659   3.030   5.929 -0.1294 -0.3466 -0.2042
40479SOL    HW125799   2.684   2.995   6.015 -1.1512  1.4847  0.8971
40479SOL    HW225800   2.725   3.097   5.910 -1.2688  0.9774  0.3529
40480SOL     OW25801   3.575   2.240   8.497  0.0760 -0.4178  0.0764
40480SOL    HW125802   3.618   2.211   8.577  0.7375  0.9739  0.2603
40480SOL    HW225803   3.615   2.187   8.428  2.3492  0.9830  0.2115
40481SOL     OW25804   6.389   6.335   5.153  0.0258  0.0762 -0.0172
40481SOL    HW125805   6.393   6.241   5.135  1.1556  0.3103 -1.1927
40481SOL    HW225806   6.392   6.375   5.066 -0.6407  1.1988  0.4664
40482SOL     OW25807   0.372   5.018   4.362 -0.4160  0.0644 -0.2251
40482SOL    HW125808   0.326   4.935   4.368  2.5889 -1.5914  3.1160
40482SOL    HW225809   0.458   4.996   4.327 -0.6135  2.4437 -2.5969
40483SOL     OW25810   6.228   2.911   7.341 -0.1679  0.0455 -0.3932
40483SOL    HW125811   6.310   2.897   7.293 -0.7289 -0.4009 -1.2348
40483SOL    HW225812   6.250   2.977   7.407  0.8627 -0.0529 -0.6223
40484SOL     OW25813   2.557  10.961   7.201 -0.5326  0.4814 -0.0646
40484SOL    HW125814   2.610  10.900   7.150  2.3338  2.5311  0.2340
40484SOL    HW225815   2.569  11.046   7.159 -0.5429  1.6999  2.2111
40485SOL     OW25816   7.957   4.024   1.649  0.2310  0.4582  0.1296
40485SOL    HW125817   7.917   4.016   1.736  0.0778 -1.5423 -0.0688
40485SOL    HW225818   8.049   4.002   1.664  0.2894  0.5224 -0.1424
40486SOL     OW25819   5.621   5.345   7.378 -0.3114  0.2239 -0.3285
40486SOL    HW125820   5.714   5.333   7.399 -0.2931 -0.3356 -0.7091
40486SOL    HW225821   5.620   5.372   7.286 -0.4221  2.1896  0.2016
40487SOL     OW25822   1.273  10.508   6.027  0.0197 -0.4297  0.4480
40487SOL    HW125823   1.325  10.512   6.107  0.7166 -0.6655  0.0203
40487SOL    HW225824   1.338  10.500   5.957 -0.2172  4.0509 -0.6096
40488SOL     OW25825   1.204  10.847   6.838 -0.1866  0.6478  0.1437
40488SOL    HW125826   1.192  10.896   6.757 -2.3392  1.2290  0.7335
40488SOL    HW225827   1.216  10.756   6.810 -0.4135  0.9220 -0.8545
40489SOL     OW25828   1.206   8.392   7.704 -0.5487  0.2693 -0.1558
40489SOL    HW125829   1.204   8.388   7.608 -0.0564  0.1941 -0.1624
40489SOL    HW225830   1.247   8.476   7.725 -1.7296  0.8267 -0.0019
40490SOL     OW25831   9.150   4.480   7.523 -0.5952  0.0135 -0.1828
40490SOL    HW125832   9.176   4.502   7.612 -0.3622  0.0228 -0.2518
40490SOL    HW225833   9.232   4.459   7.478 -0.7817 -0.7109 -0.1974
40491SOL     OW25834   5.225   8.460   5.542  0.8744  0.5055 -0.2163
40491SOL    HW125835   5.263   8.412   5.615  0.1725 -3.1950 -2.0045
40491SOL    HW225836   5.132   8.469   5.565  1.1196  1.5869  0.3786
40492SOL     OW25837  10.891  10.752   2.430  0.1778  0.2842 -0.2482
40492SOL    HW125838  10.905  10.712   2.345  3.5314 -1.4322  0.9502
40492SOL    HW225839  10.947  10.830   2.430 -0.5684  0.8374  0.0811
40493SOL     OW25840   5.196  10.636   8.033  0.2785 -0.0713  0.1132
40493SOL    HW125841   5.207  10.730   8.023  1.3409 -0.2949 -1.0934
40493SOL    HW225842   5.140  10.626   8.110 -1.6229  1.6016 -0.9409
40494SOL     OW25843   8.628   4.698   1.297 -0.0295 -0.0460 -0.2589
40494SOL    HW125844   8.568   4.646   1.244 -1.0913 -0.1138  0.9662
40494SOL    HW225845   8.635   4.782   1.251  0.1660 -0.5822 -1.2219
40495SOL     OW25846   7.980  10.175   7.790  0.0117 -0.2495 -0.0407
40495SOL    HW125847   8.050  10.110   7.796  0.2795  0.1241  1.2529
40495SOL    HW225848   7.908  10.130   7.748  0.3778 -1.2295  0.3557
40496SOL     OW25849   0.711   9.613  10.194 -0.5345 -0.0786  0.7860
40496SOL    HW125850   0.798   9.641  10.224 -0.6841  0.1913  0.9773
40496SOL    HW225851   0.727   9.566  10.113 -0.3291  1.1441  0.0923
40497SOL     OW25852   1.398   3.103   4.369 -0.4114 -0.1059 -0.3838
40497SOL    HW125853   1.345   3.167   4.322  0.6979  0.5274 -0.8059
40497SOL    HW225854   1.426   3.150   4.448  1.7487  0.5378 -1.4708
40498SOL     OW25855   7.129   9.352   4.500 -0.1884  0.3620 -0.3812
40498SOL    HW125856   7.104   9.425   4.557  1.2756  0.3014  0.3737
40498SOL    HW225857   7.207   9.383   4.453 -0.0120 -0.4373 -0.6277
40499SOL     OW25858   1.432   2.393   6.906 -0.6397  0.5718  0.0990
40499SOL    HW125859   1.341   2.392   6.933 -0.6793 -0.3716 -0.0456
40499SOL    HW225860   1.429   2.385   6.810 -0.4260  1.2522  0.0320
40500SOL     OW25861   6.914  10.355   9.052  0.0988  0.2651  0.2401
40500SOL    HW125862   6.833  10.341   9.003  1.4722 -1.3653 -1.7697
40500SOL    HW225863   6.937  10.446   9.035  0.2112 -0.0857 -1.7608
40501SOL     OW25864   5.864   6.471   0.634  0.0724 -0.3964  0.0771
40501SOL    HW125865   5.955   6.502   0.636 -0.3374  0.8696  0.1702
40501SOL    HW225866   5.848   6.450   0.542 -0.7478  3.3358 -0.8063
40502SOL     OW25867  10.840   7.471   1.962 -0.2494 -0.6166 -0.2849
40502SOL    HW125868  10.790   7.490   1.883  1.1841 -1.4626 -1.4510
40502SOL    HW225869  10.775   7.471   2.033 -1.1641  2.9858 -0.9402
40503SOL     OW25870   2.424   8.578   8.257 -0.5891 -0.1130 -0.3488
40503SOL    HW125871   2.355   8.537   8.309 -1.2596  1.2593 -0.1105
40503SOL    HW225872   2.405   8.672   8.262  0.4054  0.1764 -1.5587
40504SOL     OW25873   6.042   0.803   5.796  0.1942 -0.0490  0.0928
40504SOL    HW125874   6.060   0.897   5.787  1.5464 -0.3734 -0.9753
40504SOL    HW225875   5.950   0.794   5.772  0.0860  0.9902  0.0536
40505SOL     OW25876   4.182   1.258   6.424 -0.3707  0.1182  0.1096
40505SOL    HW125877   4.197   1.205   6.346  1.4493  0.7524 -0.0057
40505SOL    HW225878   4.209   1.202   6.497 -2.0414 -0.4632  0.3509
40506SOL     OW25879  10.541   4.720  10.095 -0.1872 -0.1467  0.1761
40506SOL    HW125880  10.577   4.637  10.127  0.3536 -0.1787 -0.4691
40506SOL    HW225881  10.480   4.748  10.163 -0.2451 -0.9842  0.4874
40507SOL     OW25882   4.110   2.682   7.810  0.4190  0.2798 -0.4497
40507SOL    HW125883   4.093   2.629   7.732  0.9052  0.6956 -0.8524
40507SOL    HW225884   4.031   2.673   7.864 -0.3830  0.8332 -1.4857
40508SOL     OW25885   8.424   9.766   6.950 -0.0227  0.4016  0.2768
40508SOL    HW125886   8.372   9.809   6.882  1.1736  0.0815 -0.8729
40508SOL    HW225887   8.408   9.672   6.937  0.8867  0.2940 -0.1516
40509SOL     OW25888   3.016   8.365   3.307 -0.4110 -0.0945 -0.3682
40509SOL    HW125889   3.009   8.272   3.327 -1.9980 -0.4933 -2.4659
40509SOL    HW225890   3.105   8.388   3.334  0.2771 -2.3777 -0.4379
40510SOL     OW25891   8.207   9.029   4.071  0.4879 -0.1031 -0.4150
40510SOL    HW125892   8.238   9.049   3.982 -1.6410 -0.5388 -1.3192
40510SOL    HW225893   8.112   9.021   4.062  0.3237 -1.2413  1.7243
40511SOL     OW25894   1.292   8.242   3.121  0.8606 -0.2112  0.1805
40511SOL    HW125895   1.199   8.262   3.131  1.4013  3.7081 -1.0630
40511SOL    HW225896   1.327   8.244   3.211 -0.0082 -0.5168  0.5391
40512SOL     OW25897   4.988   6.184  10.116 -0.1574  0.0874  0.2537
40512SOL    HW125898   4.931   6.221  10.184 -1.7587  1.0552 -1.5170
40512SOL    HW225899   5.053   6.134  10.164  0.1356  2.5283  2.6512
40513SOL     OW25900   9.358   8.513   3.648 -0.4203  0.3121 -0.6284
40513SOL    HW125901   9.359   8.591   3.593 -2.1534  1.0239  0.3004
40513SOL    HW225902   9.369   8.546   3.737  2.0277 -0.8005 -0.4301
40514SOL     OW25903   0.418   7.196   0.510 -0.5424  0.1438 -0.3262
40514SOL    HW125904   0.380   7.277   0.474 -1.8322 -0.0440  0.5507
40514SOL    HW225905   0.468   7.224   0.586 -0.9569  0.1236 -0.0455
40515SOL     OW25906   1.944   6.773   2.627 -0.0487  0.6059 -0.2139
40515SOL    HW125907   1.945   6.678   2.616 -1.2806  0.4785  0.6967
40515SOL    HW225908   2.029   6.793   2.667 -0.6131 -0.3916  1.6055
40516SOL     OW25909  10.801   9.512   3.177 -0.7213 -0.5090 -0.6233
40516SOL    HW125910  10.731   9.562   3.137 -1.3473 -0.1182  0.8893
40516SOL    HW225911  10.764   9.480   3.259  0.8676 -0.2475  0.2447
40517SOL     OW25912   7.370   5.063   0.531 -0.5267  0.0395 -0.5165
40517SOL    HW125913   7.276   5.055   0.547 -0.5441  1.2737  0.1803
40517SOL    HW225914   7.408   4.983   0.568 -1.0364  0.8257  1.9274
40518SOL     OW25915  10.088   3.084   6.736  0.2528 -0.6381  0.2791
40518SOL    HW125916  10.106   3.086   6.830  2.9948  1.0530 -0.1791
40518SOL    HW225917  10.149   3.019   6.702  1.3163  0.7897 -0.6279
40519SOL     OW25918   9.387   2.358   4.772 -0.4399  0.4420 -0.1438
40519SOL    HW125919   9.364   2.343   4.864 -1.3129 -0.9451 -0.5591
40519SOL    HW225920   9.483   2.368   4.773 -0.1992 -1.5342  0.6939
40520SOL     OW25921   6.841  11.105   8.639 -0.4268 -0.1261  0.5125
40520SOL    HW125922   6.842  11.067   8.551 -1.6626  0.6933  0.1280
40520SOL    HW225923   6.886  11.188   8.630 -0.8088  0.0913  0.5848
40521SOL     OW25924   3.569   6.643   1.084 -0.7014  0.3709 -0.0712
40521SOL    HW125925   3.589   6.605   1.169 -1.2039 -0.4779 -0.3156
40521SOL    HW225926   3.650   6.634   1.034 -0.8189 -0.4386 -0.1354
40522SOL     OW25927   7.836   6.241   2.941 -0.4958  0.0659 -0.2601
40522SOL    HW125928   7.821   6.237   2.847 -1.7700  0.5991 -0.1011
40522SOL    HW225929   7.777   6.176   2.978 -1.8219  1.5477  0.3305
40523SOL     OW25930  10.217   3.356   7.811 -0.6099 -0.3967  0.1318
40523SOL    HW125931  10.176   3.360   7.897 -0.2997  2.0563  0.2467
40523SOL    HW225932  10.156   3.306   7.757 -1.9617  0.0342  1.1987
40524SOL     OW25933   4.021   8.663   3.827 -0.4211  0.0481 -0.0848
40524SOL    HW125934   3.996   8.588   3.773  0.8531  0.2517 -0.9817
40524SOL    HW225935   4.047   8.624   3.911 -2.3632 -0.2692  0.4390
40525SOL     OW25936   7.691   0.921   6.179  0.0593  0.4005  0.1362
40525SOL    HW125937   7.775   0.911   6.134 -0.4193  1.3825 -1.0347
40525SOL    HW225938   7.708   0.988   6.245  0.2691  0.4243  0.0616
40526SOL     OW25939   1.681   9.340   8.544  0.4150  0.1894  0.5036
40526SOL    HW125940   1.624   9.270   8.576  1.5907 -1.1024 -0.0979
40526SOL    HW225941   1.677   9.331   8.448  0.6778  0.8627  0.4262
40527SOL     OW25942   1.223   2.239   8.660  0.3035  0.2095  0.0464
40527SOL    HW125943   1.206   2.332   8.677  0.2836  0.4042 -0.9719
40527SOL    HW225944   1.174   2.220   8.580 -0.7901 -1.0385  0.9669
40528SOL     OW25945   3.452   9.218  10.470 -0.7520  0.4774 -0.0001
40528SOL    HW125946   3.420   9.301  10.436 -1.4908 -0.4620 -1.6867
40528SOL    HW225947   3.375   9.161  10.471  0.5129 -1.5105 -3.1059
40529SOL     OW25948   0.536   7.786   7.644  0.0496  0.2428  0.3919
40529SOL    HW125949   0.532   7.795   7.549 -1.5277  1.5721  0.5346
40529SOL    HW225950   0.625   7.813   7.667  0.6249 -0.6355 -0.7412
40530SOL     OW25951   8.538   7.638  10.646  0.0621  0.1080 -0.6052
40530SOL    HW125952   8.502   7.616  10.560 -0.7793 -0.3651 -0.1469
40530SOL    HW225953   8.531   7.734  10.650 -0.9920  0.0483 -0.6166
40531SOL     OW25954   1.673   6.050   6.831  0.3617  0.1805 -0.1996
40531SOL    HW125955   1.681   6.141   6.804 -0.2350  0.0192 -0.9844
40531SOL    HW225956   1.618   6.010   6.763  0.0201 -0.5955  0.5191
40532SOL     OW25957   4.037  10.088   5.337 -0.0475  0.4004  0.1762
40532SOL    HW125958   4.085  10.169   5.318  0.0925  0.1498 -0.5715
40532SOL    HW225959   4.103  10.030   5.375 -0.7746  1.6369  3.6648
40533SOL     OW25960   0.322   7.166   5.802  0.1482  0.4913 -0.0506
40533SOL    HW125961   0.379   7.154   5.726 -1.1969 -1.1750 -0.8853
40533SOL    HW225962   0.243   7.207   5.766 -0.6898 -0.7366  0.3073
40534SOL     OW25963   9.426   4.784   6.730 -0.9945  0.3661  0.2605
40534SOL    HW125964   9.491   4.831   6.783 -0.0190 -1.0847  0.4096
40534SOL    HW225965   9.375   4.853   6.688  0.7787  1.5556 -0.0303
40535SOL     OW25966  10.295   1.728   4.418 -0.0165 -0.5289  0.0396
40535SOL    HW125967  10.373   1.675   4.437  0.8089  0.0399 -1.5789
40535SOL    HW225968  10.265   1.759   4.504 -0.6203 -3.6587  1.0808
40536SOL     OW25969   1.860   6.758  10.805  0.1586  0.5516 -0.0997
40536SOL    HW125970   1.880   6.749  10.712  0.9035  2.2475 -0.1428
40536SOL    HW225971   1.945   6.771  10.846  0.1552 -2.6395  1.2319
40537SOL     OW25972   9.284   6.279   9.532 -0.6537  0.8208  0.1028
40537SOL    HW125973   9.265   6.269   9.439  0.4918 -0.6079 -0.0140
40537SOL    HW225974   9.299   6.372   9.543  0.7367  0.8234 -1.4697
40538SOL     OW25975   1.556   9.929  10.808 -0.2798  0.4341  0.0211
40538SOL    HW125976   1.520  10.004  10.761 -1.1577  0.9077  1.4216
40538SOL    HW225977   1.525   9.853  10.758  0.0061  0.9537 -0.9768
40539SOL     OW25978   0.731   9.477   9.197 -0.7579  0.1085 -0.0863
40539SOL    HW125979   0.665   9.523   9.145  0.5322  2.6488  0.3751
40539SOL    HW225980   0.811   9.527   9.184  1.0761 -2.6770 -0.3581
40540SOL     OW25981   2.392   5.275   2.142 -0.5373 -0.2362 -0.3953
40540SOL    HW125982   2.447   5.198   2.159 -0.6773 -0.4946 -1.0980
40540SOL    HW225983   2.372   5.270   2.049 -0.3418  0.7957 -0.4995
40541SOL     OW25984   2.935  10.332   4.444 -0.4403  0.2275  0.0876
40541SOL    HW125985   2.897  10.250   4.411  0.1485 -0.3022  0.7079
40541SOL    HW225986   3.000  10.304   4.508 -1.0771  1.2176  1.2040
40542SOL     OW25987   9.597  10.668   3.838  0.2024 -0.7252 -0.0402
40542SOL    HW125988   9.511  10.669   3.797 -1.1509  0.1434  2.5571
40542SOL    HW225989   9.657  10.698   3.770 -1.4830 -1.5968 -2.0019
40543SOL     OW25990   0.453  10.728   6.086  0.0539 -0.0568 -0.6678
40543SOL    HW125991   0.389  10.798   6.100  0.0760 -0.0159 -0.7687
40543SOL    HW225992   0.525  10.748   6.145 -0.4110 -0.5860  0.0933
40544SOL     OW25993  10.889   5.577   2.153  0.0876 -0.7270 -0.2224
40544SOL    HW125994  10.946   5.654   2.141  1.2376 -1.6183 -0.7212
40544SOL    HW225995  10.804   5.604   2.118  0.1665  0.6670  0.5983
40545SOL     OW25996   2.198   0.183   3.358  0.5357 -0.6705  0.6250
40545SOL    HW125997   2.288   0.207   3.379  0.6184  0.2074 -0.6012
40545SOL    HW225998   2.205   0.099   3.313  0.9134  0.0715 -0.7487
40546SOL     OW25999   8.267   0.599   8.704  0.3232  0.0109  0.0266
40546SOL    HW126000   8.293   0.679   8.750  1.6216 -0.1565 -0.3721
40546SOL    HW226001   8.181   0.620   8.666 -0.1911  0.5793  1.4417
40547SOL     OW26002   3.277   8.638   1.964 -0.2668  0.1820  0.4595
40547SOL    HW126003   3.285   8.593   1.881  3.7074  1.6525 -0.1712
40547SOL    HW226004   3.221   8.713   1.946 -0.1968 -0.0238 -0.6510
40548SOL     OW26005  11.043   1.785   0.482  0.1979 -0.1586 -0.2409
40548SOL    HW126006  11.040   1.819   0.393 -1.0272  0.4561  0.0138
40548SOL    HW226007  11.112   1.835   0.525 -0.0005  0.3624 -0.5243
40549SOL     OW26008   2.121   6.415   5.399 -0.2671 -0.5666 -0.3351
40549SOL    HW126009   2.101   6.489   5.457 -0.0438 -1.0884  0.4211
40549SOL    HW226010   2.047   6.413   5.338 -0.9253 -0.4950  0.4302
40550SOL     OW26011   2.096   0.079   0.743 -0.3134 -0.3127  0.0418
40550SOL    HW126012   2.179   0.067   0.788  0.1086  3.2793  0.4672
40550SOL    HW226013   2.030   0.051   0.807  0.4635 -0.6578  0.7083
40551SOL     OW26014   4.142   2.212   7.277 -0.5661 -0.0223 -0.5342
40551SOL    HW126015   4.206   2.146   7.251 -1.3613 -0.5724 -1.1420
40551SOL    HW226016   4.097   2.235   7.196  0.1589  1.8072 -0.4860
40552SOL     OW26017  11.108   6.196  10.828  0.3042 -0.2752  0.2948
40552SOL    HW126018  11.194   6.184  10.788  0.4440  0.6860  0.2978
40552SOL    HW226019  11.063   6.257  10.770  0.1331  0.3214  1.0474
40553SOL     OW26020   5.227   5.343   6.691  0.0566  0.4099 -0.0320
40553SOL    HW126021   5.204   5.289   6.615  0.2953  0.5965 -0.2378
40553SOL    HW226022   5.298   5.295   6.733  0.8573  0.9876 -0.7011
40554SOL     OW26023   0.016   8.252   7.861  0.2673  0.2083 -0.0816
40554SOL    HW126024   0.027   8.165   7.823  1.3841  0.5229 -0.5186
40554SOL    HW226025  -0.045   8.297   7.802 -1.9313 -0.8964  1.2354
40555SOL     OW26026   3.585  10.003  10.996  0.9724  0.8707  0.5756
40555SOL    HW126027   3.581   9.972  10.906 -0.9351  2.1921  0.1442
40555SOL    HW226028   3.645  10.077  10.994 -0.3096  1.9432 -0.0131
40556SOL     OW26029   4.445   6.867   4.621 -0.6623  0.0153  0.3355
40556SOL    HW126030   4.404   6.954   4.619 -0.3403  0.2159  1.3687
40556SOL    HW226031   4.479   6.854   4.533 -1.0651  0.7669  0.0595
40557SOL     OW26032   0.294   6.820   1.041  0.0317 -0.2628 -0.5837
40557SOL    HW126033   0.232   6.832   1.113  1.0296 -1.5060  0.5549
40557SOL    HW226034   0.273   6.733   1.006 -0.2274  0.1940 -1.5816
40558SOL     OW26035   2.565   4.949   8.210  0.4359 -0.1448 -0.3190
40558SOL    HW126036   2.636   4.999   8.250 -0.4544  1.3923 -0.5776
40558SOL    HW226037   2.593   4.934   8.120  0.7845 -0.2799 -0.1898
40559SOL     OW26038   2.706   8.271   5.237 -0.1012  0.5676 -0.3777
40559SOL    HW126039   2.626   8.322   5.247 -0.6738 -0.3888  0.0973
40559SOL    HW226040   2.706   8.244   5.145 -0.1526  0.8539 -0.4619
40560SOL     OW26041   7.453   8.660   1.356  0.0902 -0.3294 -0.6376
40560SOL    HW126042   7.430   8.568   1.347  1.4623 -0.6700 -0.8682
40560SOL    HW226043   7.548   8.663   1.347  0.0469  1.1522 -1.0084
40561SOL     OW26044  10.163   7.743   5.833 -0.3861 -0.6929 -0.0830
40561SOL    HW126045  10.234   7.784   5.882 -0.6215 -0.6593  0.2333
40561SOL    HW226046  10.143   7.806   5.763  0.4345 -1.0671 -0.6665
40562SOL     OW26047   3.386   9.230   8.014 -0.0793  0.5164 -0.2699
40562SOL    HW126048   3.405   9.137   7.999  0.9102  0.7209 -0.3469
40562SOL    HW226049   3.379   9.238   8.109 -1.6910  0.0919 -0.3276
40563SOL     OW26050  10.149   6.542   9.561  0.5602  0.0865  0.2023
40563SOL    HW126051  10.184   6.489   9.633  0.7760  0.7338  0.5794
40563SOL    HW226052  10.054   6.535   9.570  0.5837 -0.7133 -0.1082
40564SOL     OW26053   6.726  10.559   5.231 -0.4669  0.9989  0.7009
40564SOL    HW126054   6.650  10.592   5.182 -0.7803 -1.8938 -1.0736
40564SOL    HW226055   6.694  10.478   5.272  1.5532 -0.2347 -0.0007
40565SOL     OW26056   9.540   4.797   9.194 -0.4836  0.1905 -0.4861
40565SOL    HW126057   9.511   4.874   9.242 -1.3445 -1.2671  1.4553
40565SOL    HW226058   9.461   4.764   9.151 -1.0837 -1.7373  1.8741
40566SOL     OW26059  10.436   4.417   5.176  0.1260 -0.1402  0.1909
40566SOL    HW126060  10.456   4.479   5.245  0.9825 -1.2174  0.9517
40566SOL    HW226061  10.522   4.388   5.144 -0.2533  0.2366 -1.2364
40567SOL     OW26062  10.256   6.030  10.430 -0.0120  0.1651 -0.1542
40567SOL    HW126063  10.296   6.079  10.359  1.4881 -1.0661 -0.1903
40567SOL    HW226064  10.175   5.996  10.393 -0.0322  0.8468 -0.7651
40568SOL     OW26065   1.990   7.506  10.253  0.3396 -0.4852 -0.5545
40568SOL    HW126066   2.077   7.496  10.293  0.2774  0.9458  0.0237
40568SOL    HW226067   1.939   7.434  10.288  0.4819  0.3376  1.4722
40569SOL     OW26068   4.167   6.869   4.078 -0.1554 -0.7543 -0.2619
40569SOL    HW126069   4.247   6.886   4.029  0.0869 -0.4223  0.2422
40569SOL    HW226070   4.099   6.917   4.031 -0.1658 -1.5019 -1.0174
40570SOL     OW26071   6.598   0.822   7.191 -0.2357  0.1153  0.5078
40570SOL    HW126072   6.534   0.892   7.205  0.0480  0.2789  0.9708
40570SOL    HW226073   6.669   0.863   7.142 -0.0308  0.1751  0.8516
40571SOL     OW26074   3.202   9.643   8.210 -0.5597 -0.0915 -0.3579
40571SOL    HW126075   3.188   9.655   8.304 -0.6247  2.5149 -0.6105
40571SOL    HW226076   3.298   9.640   8.201 -0.5679 -1.0242 -0.1505
40572SOL     OW26077   1.191   3.716   2.806 -0.5646 -0.3541 -0.0528
40572SOL    HW126078   1.098   3.736   2.790 -0.5577  0.0038  0.3539
40572SOL    HW226079   1.189   3.638   2.862 -0.5922 -1.4418 -1.4948
40573SOL     OW26080  10.073   6.697   7.565 -0.1388  0.0769  0.0299
40573SOL    HW126081  10.127   6.757   7.616 -1.1461  0.3281  0.8453
40573SOL    HW226082  10.027   6.753   7.503 -1.3011  0.2313  0.9858
40574SOL     OW26083   7.525   8.031   1.068 -0.1841 -0.1313 -0.1338
40574SOL    HW126084   7.551   7.960   1.126  0.2427  0.2332  0.1256
40574SOL    HW226085   7.506   8.104   1.127 -1.0590 -0.1578 -0.3646
40575SOL     OW26086   4.125   3.565   2.613 -0.0570  0.5275 -0.1700
40575SOL    HW126087   4.059   3.522   2.558 -1.2262  1.6786  0.2952
40575SOL    HW226088   4.168   3.492   2.659 -0.4941 -0.2947 -1.0207
40576SOL     OW26089   9.444   1.930   5.485  0.2883  0.7713  0.1592
40576SOL    HW126090   9.502   1.918   5.560 -0.1494 -1.8180  0.1693
40576SOL    HW226091   9.498   1.905   5.410 -0.0546  0.8045 -0.0977
40577SOL     OW26092   8.663   9.668   9.934 -0.0020 -0.3338 -0.0738
40577SOL    HW126093   8.722   9.602   9.898  0.7175  1.2323 -1.9422
40577SOL    HW226094   8.591   9.672   9.871  0.5662  1.4687 -0.6480
40578SOL     OW26095   3.720  10.060   1.043 -0.0808 -0.1830 -0.1738
40578SOL    HW126096   3.776  10.024   1.112 -1.2976 -0.1725  0.8703
40578SOL    HW226097   3.680   9.983   1.002 -0.0100 -0.1566 -0.2929
40579SOL     OW26098   3.267  10.246   5.247 -0.4651  0.2059 -0.4957
40579SOL    HW126099   3.193  10.307   5.253 -0.5255  0.0482  0.4674
40579SOL    HW226100   3.237  10.167   5.291 -0.2053 -0.3584 -1.3045
40580SOL     OW26101   8.994   3.275   7.368  0.3005  0.3080 -0.2578
40580SOL    HW126102   9.022   3.234   7.286  0.0411 -0.7284  0.1501
40580SOL    HW226103   9.049   3.352   7.376  1.3890 -0.3967 -0.6604
40581SOL     OW26104   9.079   9.772   8.649 -0.2868 -0.7533  0.1242
40581SOL    HW126105   9.149   9.752   8.587  0.2812 -0.2761  0.6050
40581SOL    HW226106   9.045   9.686   8.673  0.9739 -1.0800  0.8361
40582SOL     OW26107   3.546   6.795   1.391 -0.0896  0.1483 -0.6344
40582SOL    HW126108   3.566   6.702   1.385  0.5219  0.2099  0.2453
40582SOL    HW226109   3.607   6.837   1.329  2.2771  0.2766  1.5893
40583SOL     OW26110   0.381   6.060   2.591 -0.2598  0.4353  0.0551
40583SOL    HW126111   0.372   6.070   2.497 -2.0453 -2.1453 -0.1510
40583SOL    HW226112   0.432   6.136   2.619  0.5854  1.1019 -2.9982
40584SOL     OW26113   1.894   6.809   8.921 -0.2578  0.0169  0.4593
40584SOL    HW126114   1.838   6.780   8.993 -0.3693 -1.4545 -0.1833
40584SOL    HW226115   1.982   6.813   8.959 -0.0967 -2.0566  0.3764
40585SOL     OW26116  10.124   4.035   5.183  0.0119 -0.3435 -0.2249
40585SOL    HW126117  10.045   3.987   5.155 -1.6378  1.6312  0.7438
40585SOL    HW226118  10.090   4.104   5.240  2.3426  1.4711 -0.9160
40586SOL     OW26119   4.383   2.672   7.068 -0.2066  0.5445 -0.1188
40586SOL    HW126120   4.342   2.751   7.032 -0.1371  0.8698  0.5089
40586SOL    HW226121   4.382   2.685   7.163 -0.4799 -0.3505  0.0086
40587SOL     OW26122   1.792   3.868   8.607 -0.2931 -0.4355  0.2275
40587SOL    HW126123   1.843   3.787   8.618  0.8257  0.3043  0.6447
40587SOL    HW226124   1.858   3.936   8.592 -1.2614  0.2669 -1.0619
40588SOL     OW26125   1.451   2.715   6.240 -0.3091  0.2031 -0.0592
40588SOL    HW126126   1.396   2.684   6.168  1.2136 -0.0413 -1.1466
40588SOL    HW226127   1.529   2.750   6.198  0.3975  0.5356  1.4573
40589SOL     OW26128   6.386   4.426   9.495 -0.0107  0.3037 -0.1077
40589SOL    HW126129   6.317   4.359   9.494  0.2526  0.0332 -0.3805
40589SOL    HW226130   6.370   4.478   9.416  1.2994 -1.0064 -1.2861
40590SOL     OW26131   5.377   2.007   0.414  0.1919  0.0862 -0.8183
40590SOL    HW126132   5.410   1.923   0.447  1.0924  0.9656  0.6045
40590SOL    HW226133   5.413   2.013   0.325 -0.1616 -1.1774 -1.0670
40591SOL     OW26134   1.386   7.181   8.255 -0.0270  0.9176 -0.2616
40591SOL    HW126135   1.360   7.273   8.246  1.0188  1.1035 -1.4805
40591SOL    HW226136   1.444   7.164   8.181  0.8753 -0.3560  0.6918
40592SOL     OW26137   2.677  10.100  10.822  0.1379 -0.2121 -0.0229
40592SOL    HW126138   2.738  10.076  10.753  0.2790  0.8826 -0.3049
40592SOL    HW226139   2.637  10.018  10.849 -0.3934 -0.6051 -1.8619
40593SOL     OW26140   0.216   0.449   3.828 -0.0804  0.0873 -0.0028
40593SOL    HW126141   0.298   0.473   3.785 -0.8691 -1.2364 -2.4146
40593SOL    HW226142   0.174   0.533   3.848  1.2991  0.7621  0.1934
40594SOL     OW26143   0.782   7.964   0.127  0.7708  0.0303  0.3786
40594SOL    HW126144   0.831   7.941   0.048  0.9828 -0.0150  0.5240
40594SOL    HW226145   0.786   7.885   0.181 -0.8732 -0.5719 -0.3083
40595SOL     OW26146   0.923  10.929   3.355  0.2253 -0.6064 -0.0608
40595SOL    HW126147   0.950  10.893   3.440 -1.7899  1.2457  1.4889
40595SOL    HW226148   0.998  10.981   3.326  0.2669  0.3536  1.6352
40596SOL     OW26149   6.470   3.590   1.542 -0.0074  0.3936 -0.1177
40596SOL    HW126150   6.386   3.630   1.562 -0.7705 -1.6455  1.0426
40596SOL    HW226151   6.465   3.569   1.448 -0.4312  1.0581 -0.2452
40597SOL     OW26152   2.347   6.063   2.536  0.0314  0.5944  0.0568
40597SOL    HW126153   2.352   6.063   2.631  1.0596 -1.3969  0.0716
40597SOL    HW226154   2.321   6.152   2.512  0.4687  1.3275  2.1468
40598SOL     OW26155   5.045   2.393   7.264 -0.8490 -0.2274 -0.0912
40598SOL    HW126156   5.102   2.433   7.329 -0.1604 -1.3652  0.0410
40598SOL    HW226157   5.088   2.310   7.242 -0.0836  0.8827 -3.3507
40599SOL     OW26158   8.093   4.576   3.957 -0.8349 -0.2188 -0.5482
40599SOL    HW126159   8.104   4.624   3.875  1.0308 -0.9340 -0.7735
40599SOL    HW226160   8.127   4.488   3.938  1.8395  0.2261  1.5478
40600SOL     OW26161   3.884   8.374   1.463 -0.0298  0.2349 -0.4018
40600SOL    HW126162   3.794   8.352   1.486  0.2400 -0.5093 -0.0318
40600SOL    HW226163   3.917   8.297   1.417  1.0152 -0.2840  1.1492
40601SOL     OW26164  10.560   3.964   9.440 -0.0502 -1.0132 -0.1823
40601SOL    HW126165  10.634   3.904   9.437  0.4696 -0.4040  0.2731
40601SOL    HW226166  10.487   3.914   9.403  0.4349 -1.8244 -0.0607
40602SOL     OW26167   1.106   0.736   7.070 -0.3772 -0.4672 -0.1732
40602SOL    HW126168   1.059   0.787   7.135 -0.4713 -1.3159  0.4477
40602SOL    HW226169   1.175   0.691   7.120 -0.6978 -1.4431 -0.5750
40603SOL     OW26170   8.828   3.799   4.029 -0.4564 -0.1413  0.0184
40603SOL    HW126171   8.861   3.887   4.015 -0.6695  0.3020  1.9941
40603SOL    HW226172   8.870   3.770   4.110 -1.7364 -1.1640  0.3589
40604SOL     OW26173   7.780   4.180   9.866  0.1462  0.4806 -0.3354
40604SOL    HW126174   7.863   4.165   9.822  0.0950  1.0647 -0.6411
40604SOL    HW226175   7.748   4.262   9.829 -0.4506  0.3838 -0.0433
40605SOL     OW26176   5.313   1.838   1.915 -0.6906 -0.5676 -0.6801
40605SOL    HW126177   5.256   1.764   1.895 -1.9667  0.4690 -0.9780
40605SOL    HW226178   5.254   1.911   1.931  0.2522 -0.4788  3.9229
40606SOL     OW26179   9.902   4.718   4.503 -0.1735  0.1918  0.5429
40606SOL    HW126180   9.807   4.705   4.500 -0.1469 -0.2010  1.1271
40606SOL    HW226181   9.926   4.699   4.594  0.6577 -1.1752  0.0815
40607SOL     OW26182   2.791  10.979   4.517  0.1844 -0.6401  0.0489
40607SOL    HW126183   2.887  10.982   4.524  0.1994 -0.6403 -0.1339
40607SOL    HW226184   2.764  11.070   4.518  0.1386 -0.6618  0.6919
40608SOL     OW26185   2.837   0.177   2.616  0.1971  0.2751 -0.1433
40608SOL    HW126186   2.821   0.105   2.555  0.2192 -0.1997  0.4052
40608SOL    HW226187   2.774   0.244   2.590  0.8703  0.4854 -1.3268
40609SOL     OW26188   9.776   7.980   6.749 -0.5757  1.2147  0.7876
40609SOL    HW126189   9.769   7.941   6.836 -1.1773  1.6516  0.9376
40609SOL    HW226190   9.851   8.040   6.756  0.0995  0.4021  0.6683
40610SOL     OW26191   5.884   0.743   5.515 -0.6248  0.1949 -0.0511
40610SOL    HW126192   5.920   0.663   5.554  1.2195  1.2091  0.4500
40610SOL    HW226193   5.854   0.794   5.590  1.1235  1.2984 -0.0484
40611SOL     OW26194   0.689   6.986   0.928 -0.1793 -0.4027 -0.3446
40611SOL    HW126195   0.617   7.035   0.969 -0.2292 -2.9885  3.1240
40611SOL    HW226196   0.766   7.007   0.982  0.5844 -1.3625 -1.0212
40612SOL     OW26197   5.958   3.783   2.240  0.7850 -0.1232 -0.1246
40612SOL    HW126198   6.024   3.746   2.299  1.1788  1.2055  0.3027
40612SOL    HW226199   5.894   3.713   2.228  1.8734 -1.1771  0.0678
40613SOL     OW26200   9.504   3.918   0.143 -0.2543  0.1081 -0.5982
40613SOL    HW126201   9.433   3.854   0.143 -0.0749 -0.1281  0.8732
40613SOL    HW226202   9.462   4.000   0.119 -0.7051 -0.3221 -1.3518
40614SOL     OW26203   7.972   4.694   0.635 -0.4560  0.0636  0.0488
40614SOL    HW126204   7.941   4.664   0.720 -0.9259  1.7528  0.5105
40614SOL    HW226205   8.011   4.780   0.653 -0.3554  0.3436 -1.3998
40615SOL     OW26206   4.011   5.150   3.450  0.1597 -0.1181  0.2398
40615SOL    HW126207   3.952   5.122   3.381 -1.3264  1.0371  0.9693
40615SOL    HW226208   3.966   5.224   3.491  2.6006  1.5099  0.1751
40616SOL     OW26209   4.775   6.073   8.973  0.8971 -0.2368 -0.4357
40616SOL    HW126210   4.782   6.166   8.995  1.0199 -0.0560 -1.2389
40616SOL    HW226211   4.856   6.034   9.005  0.2801 -0.3306  1.1224
40617SOL     OW26212  10.613   4.983   2.212 -0.4847  0.6252 -0.2800
40617SOL    HW126213  10.705   4.969   2.188  0.3979 -0.6035  3.1458
40617SOL    HW226214  10.563   4.930   2.149  1.4639 -1.5119 -0.1789
40618SOL     OW26215   6.944  10.202   8.525  0.5609 -0.2366  0.3100
40618SOL    HW126216   6.988  10.270   8.474  0.3448  0.9680  1.6504
40618SOL    HW226217   6.856  10.199   8.489  1.6282 -2.7062 -2.4303
40619SOL     OW26218   6.939  10.109   0.199 -0.1661 -0.5587  0.0965
40619SOL    HW126219   7.034  10.094   0.195  0.0964  0.2597  2.1499
40619SOL    HW226220   6.901  10.027   0.169  1.1838 -0.9249 -0.7192
40620SOL     OW26221   6.016   7.874   3.116 -0.0833  0.1564 -0.0928
40620SOL    HW126222   6.105   7.841   3.129  0.0431  0.9473  1.2550
40620SOL    HW226223   5.960   7.797   3.127  0.4040 -0.2644 -0.5241
40621SOL     OW26224   1.248   4.137   4.038  0.5610 -0.4842 -0.0296
40621SOL    HW126225   1.195   4.069   3.996 -0.4817  1.0556 -1.3098
40621SOL    HW226226   1.309   4.166   3.971  0.1593  0.6962  0.1003
40622SOL     OW26227   2.933   3.326   2.181 -0.0521  0.0662  0.5226
40622SOL    HW126228   2.998   3.381   2.224 -0.3725  0.6790  0.2270
40622SOL    HW226229   2.984   3.254   2.144  0.4231  0.4048  0.5095
40623SOL     OW26230   7.214   8.005   2.318 -0.1669  0.2243  0.2568
40623SOL    HW126231   7.209   8.022   2.224  1.2178 -1.2161 -0.1336
40623SOL    HW226232   7.303   7.971   2.332 -0.9149 -1.3273  1.7543
40624SOL     OW26233  10.155   9.564   9.003 -0.2185  0.4299  0.0565
40624SOL    HW126234  10.105   9.642   9.027 -0.5014 -0.1062  1.2735
40624SOL    HW226235  10.243   9.596   8.985 -1.1227  1.5160 -2.9327
40625SOL     OW26236   3.130   8.850   7.148  0.0364  0.2881 -0.5534
40625SOL    HW126237   3.046   8.894   7.132 -0.7062 -1.1354 -0.7512
40625SOL    HW226238   3.175   8.853   7.064  0.6638  1.9652 -0.1931
40626SOL     OW26239   5.500   1.714   9.089  0.0515  0.3477  0.2525
40626SOL    HW126240   5.426   1.756   9.132  1.1481  0.2299  2.4115
40626SOL    HW226241   5.493   1.622   9.115 -0.0447 -0.0295 -1.0514
40627SOL     OW26242   1.697   7.275   2.774 -0.1078 -0.0278 -0.3351
40627SOL    HW126243   1.748   7.206   2.731  2.1340  1.8814 -0.9115
40627SOL    HW226244   1.676   7.336   2.704 -1.1433  0.4319  0.3551
40628SOL     OW26245   0.876   8.782   8.119  0.6290  0.0604 -0.1241
40628SOL    HW126246   0.936   8.731   8.065  2.5061 -0.0419  1.9496
40628SOL    HW226247   0.821   8.828   8.056  2.9673  0.2867 -2.1412
40629SOL     OW26248   4.020   2.420   4.192  0.1638  0.3099  0.7038
40629SOL    HW126249   4.057   2.487   4.136 -1.8264  1.2180  0.4028
40629SOL    HW226250   3.986   2.354   4.131  1.0583 -0.4145  0.9670
40630SOL     OW26251   2.951   0.415   3.356  0.4450 -0.1855  0.4053
40630SOL    HW126252   2.904   0.465   3.422  0.0843 -0.6859  0.5374
40630SOL    HW226253   3.008   0.479   3.313 -0.8459  0.5894 -0.2151
40631SOL     OW26254   5.784   0.549   5.831 -0.5657  0.8364 -0.4519
40631SOL    HW126255   5.725   0.477   5.855 -0.0341  0.3686 -0.5118
40631SOL    HW226256   5.795   0.599   5.912  0.1116  0.0711 -0.0461
40632SOL     OW26257   7.903  10.720   3.092  0.1457 -0.4212  0.0765
40632SOL    HW126258   7.818  10.705   3.050 -0.6556  1.8104  0.7653
40632SOL    HW226259   7.921  10.639   3.140 -1.7002 -0.8601  0.0913
40633SOL     OW26260   1.260   3.563   6.955 -0.2154 -0.2557  0.3219
40633SOL    HW126261   1.352   3.551   6.978 -0.1718 -0.1940  0.1823
40633SOL    HW226262   1.253   3.529   6.866 -0.1024  0.6829 -0.0619
40634SOL     OW26263  10.634   9.743   6.094  0.2780  0.2530 -0.1345
40634SOL    HW126264  10.628   9.773   6.003  0.5097  0.5986 -0.0364
40634SOL    HW226265  10.618   9.821   6.147  1.0373  0.2449  0.1195
40635SOL     OW26266  10.526   1.910  10.767  0.4141  0.4522  0.5416
40635SOL    HW126267  10.437   1.897  10.734  0.2761 -2.0599  1.6512
40635SOL    HW226268  10.582   1.886  10.693  0.1147 -1.2173  0.8125
40636SOL     OW26269   4.057  11.110   4.040  0.1524  0.0589 -0.3937
40636SOL    HW126270   4.143  11.144   4.016  0.8608 -0.8577  0.7075
40636SOL    HW226271   4.058  11.019   4.011 -1.5121  0.7303 -2.8215
40637SOL     OW26272   8.845   1.215   9.212 -0.0113 -0.1985 -0.1065
40637SOL    HW126273   8.808   1.276   9.276  2.3972  0.6243  0.6254
40637SOL    HW226274   8.839   1.261   9.128  0.7979  0.6087  0.2625
40638SOL     OW26275   6.242   2.038  11.034  0.2520  0.0624 -0.1904
40638SOL    HW126276   6.296   2.036  11.113  2.9668 -1.5885 -1.9289
40638SOL    HW226277   6.304   2.055  10.963 -1.9137  0.4127 -2.1219
40639SOL     OW26278   5.145   2.493   2.035 -0.0698  0.1992 -0.0888
40639SOL    HW126279   5.221   2.550   2.046 -0.5417  0.9091 -0.4368
40639SOL    HW226280   5.085   2.519   2.105 -0.4095  0.3361 -0.4276
40640SOL     OW26281   7.053  10.423   2.399  0.1943  0.2082  0.1946
40640SOL    HW126282   7.036  10.488   2.331 -0.1604  0.1230  0.1987
40640SOL    HW226283   7.085  10.346   2.351 -1.9523 -0.5619 -0.1145
40641SOL     OW26284   9.896   9.799   5.175  0.0384 -0.2281  0.0595
40641SOL    HW126285   9.955   9.786   5.249  0.1038  0.1727  0.0826
40641SOL    HW226286   9.842   9.874   5.201 -0.9576 -1.0173  0.3361
40642SOL     OW26287   1.193   2.931   4.433 -0.2744  0.6986  0.1749
40642SOL    HW126288   1.268   2.988   4.418 -0.5442  1.8070  2.4863
40642SOL    HW226289   1.212   2.888   4.517 -0.7351 -1.5833 -0.8196
40643SOL     OW26290   7.158   0.946   8.039  0.2437 -0.0926  0.1535
40643SOL    HW126291   7.075   0.919   8.077  0.8470  1.3494  2.7361
40643SOL    HW226292   7.188   0.869   7.990 -1.7313 -1.2788  0.6882
40644SOL     OW26293   7.825   1.548   3.978 -0.5146 -0.4516 -0.7609
40644SOL    HW126294   7.903   1.584   3.935 -0.5716  0.0852 -0.4144
40644SOL    HW226295   7.759   1.546   3.908 -0.3242 -0.4858 -0.9425
40645SOL     OW26296   5.757   7.824   2.249  0.0025 -0.3957  0.3583
40645SOL    HW126297   5.809   7.853   2.323 -1.5867  0.1776  1.2956
40645SOL    HW226298   5.796   7.867   2.173  0.9152 -0.0477  1.0186
40646SOL     OW26299   0.458   9.046   4.355 -0.3172  0.2812  0.3138
40646SOL    HW126300   0.501   9.030   4.271  0.3082  0.1613  0.6505
40646SOL    HW226301   0.409   8.965   4.372 -0.8604  0.4989 -0.1708
40647SOL     OW26302   6.447   4.517   1.033  0.3703 -0.0946 -0.6309
40647SOL    HW126303   6.472   4.497   1.123 -1.3652  0.0916 -0.0739
40647SOL    HW226304   6.353   4.497   1.029 -0.4831  3.3518 -1.3347
40648SOL     OW26305   0.934   4.293   0.158  0.8322  0.2560 -0.5107
40648SOL    HW126306   0.998   4.364   0.164  2.1764 -0.7572 -1.9726
40648SOL    HW226307   0.921   4.280   0.064 -1.7945  0.5999 -0.2598
40649SOL     OW26308   0.069   4.970   1.707  0.1761 -0.7195  0.3017
40649SOL    HW126309   0.119   4.909   1.761  0.3485 -1.9211 -1.1792
40649SOL    HW226310   0.117   5.053   1.714  2.5103 -1.8746 -1.2013
40650SOL     OW26311   7.028   9.159   2.606 -0.2815 -0.2827  0.8250
40650SOL    HW126312   7.018   9.199   2.692 -0.2595 -1.3159  1.3173
40650SOL    HW226313   6.984   9.220   2.546  0.1044  0.6692  1.4945
40651SOL     OW26314   7.552   7.436   5.646  0.0836 -0.1140  0.0014
40651SOL    HW126315   7.563   7.385   5.566  0.5822 -0.9503  0.5825
40651SOL    HW226316   7.605   7.389   5.711  1.5858  1.8329  0.2655
40652SOL     OW26317   8.347   3.424   3.281 -0.4813  0.0923  0.2258
40652SOL    HW126318   8.356   3.519   3.277  1.8014 -0.0903 -0.6027
40652SOL    HW226319   8.386   3.393   3.199 -1.2354 -1.5715  0.4521
40653SOL     OW26320   5.058   9.253  10.457 -0.4112 -0.2645  0.4541
40653SOL    HW126321   5.053   9.330  10.513  0.9333 -0.5107  0.9449
40653SOL    HW226322   5.130   9.272  10.396 -1.1621 -0.4425 -0.5268
40654SOL     OW26323   1.043   6.934   9.197  0.4617  0.5059  0.2000
40654SOL    HW126324   0.975   6.915   9.262  0.6668 -0.6798  0.0903
40654SOL    HW226325   1.008   7.007   9.146 -0.9212 -0.3459 -0.1155
40655SOL     OW26326   8.516   3.150   2.299 -0.0949  0.4007  0.1132
40655SOL    HW126327   8.503   3.073   2.244  0.8915  0.3714 -0.1024
40655SOL    HW226328   8.454   3.139   2.370  0.0595 -0.6264  0.1128
40656SOL     OW26329   9.911   6.727   4.677 -0.7335  0.0802 -0.0776
40656SOL    HW126330   9.845   6.768   4.733 -1.2994 -0.2601 -0.4815
40656SOL    HW226331   9.995   6.751   4.717 -1.0718  1.1396  0.0093
40657SOL     OW26332   5.955   9.022   3.858 -0.0322 -0.4225  1.0984
40657SOL    HW126333   6.039   8.980   3.840  0.2042  0.1241  0.9039
40657SOL    HW226334   5.977   9.096   3.915 -0.2721  0.1926  0.4095
40658SOL     OW26335   4.308   7.600   1.927 -0.8617 -0.3587 -0.1132
40658SOL    HW126336   4.238   7.636   1.982 -0.1540 -0.2047  0.7197
40658SOL    HW226337   4.357   7.677   1.897  0.8127 -0.5333  1.8841
40659SOL     OW26338   5.007   1.997   3.662  0.4684 -0.4191  0.2014
40659SOL    HW126339   5.003   2.092   3.657 -0.3546 -0.5201 -1.7381
40659SOL    HW226340   5.090   1.975   3.620 -0.3755 -0.6357 -1.4220
40660SOL     OW26341   5.617   7.031   0.389 -0.5261 -0.3966 -0.0934
40660SOL    HW126342   5.655   7.071   0.467 -1.6144 -0.0239  0.2546
40660SOL    HW226343   5.646   6.940   0.392 -0.8093 -0.4654  0.9123
40661SOL     OW26344   3.303  10.495   7.730  0.3904 -0.2841  0.0556
40661SOL    HW126345   3.339  10.581   7.706 -0.6998  0.0383 -0.4669
40661SOL    HW226346   3.310  10.444   7.650  1.0379 -0.7033  0.3668
40662SOL     OW26347   5.605   0.434   8.628  0.5676  0.4941 -0.3188
40662SOL    HW126348   5.630   0.345   8.651  1.6602  0.2073 -2.4337
40662SOL    HW226349   5.639   0.447   8.540 -0.7136  2.5631 -0.5752
40663SOL     OW26350   4.241   4.873   6.006  0.9432 -0.5822 -0.2848
40663SOL    HW126351   4.200   4.787   6.015 -0.3983  0.0613  0.0515
40663SOL    HW226352   4.212   4.922   6.084 -0.8047  1.1352 -1.9173
40664SOL     OW26353   6.749   8.896   0.399 -0.1548 -0.2322 -0.5414
40664SOL    HW126354   6.802   8.968   0.364  0.8163 -0.7132 -0.0971
40664SOL    HW226355   6.812   8.841   0.446 -1.3639  0.3299  1.8805
40665SOL     OW26356   9.860   4.496   0.799 -0.1394 -0.7454  0.5736
40665SOL    HW126357   9.907   4.512   0.717 -3.0346  0.9048 -0.8914
40665SOL    HW226358   9.828   4.406   0.791  1.8667 -1.5777  1.2097
40666SOL     OW26359   0.713   5.714   9.096 -0.1835  0.6383 -0.5486
40666SOL    HW126360   0.635   5.684   9.144  0.1533  0.5234 -0.0695
40666SOL    HW226361   0.694   5.692   9.005 -1.5863  2.4487 -0.7361
40667SOL     OW26362   0.840   9.119   1.886  0.6046  0.6204 -0.3252
40667SOL    HW126363   0.844   9.202   1.933 -2.1513  1.2917 -1.1146
40667SOL    HW226364   0.872   9.054   1.949  0.2463  1.9252  1.2504
40668SOL     OW26365   2.052   4.808   2.825 -0.0006 -1.0715  0.4502
40668SOL    HW126366   1.986   4.821   2.893  0.4730  0.0908  0.7212
40668SOL    HW226367   2.003   4.810   2.743 -0.2183  0.8611  0.5792
40669SOL     OW26368   9.323   3.668   3.024 -0.1721  0.0436 -0.0230
40669SOL    HW126369   9.246   3.710   2.986 -0.7735 -1.3938 -0.4427
40669SOL    HW226370   9.361   3.617   2.952  0.1877 -0.6207  0.6271
40670SOL     OW26371   2.786   8.065   8.870 -0.0536  0.0753  0.2013
40670SOL    HW126372   2.796   8.148   8.822  1.6698  0.0242  0.4359
40670SOL    HW226373   2.834   8.001   8.819 -1.1888 -0.7711  0.1455
40671SOL     OW26374   2.891   5.135   6.546  0.2045  0.3645 -0.0352
40671SOL    HW126375   2.932   5.081   6.613 -0.2959 -0.5677 -0.4560
40671SOL    HW226376   2.943   5.215   6.543  0.9071 -0.0622  0.6675
40672SOL     OW26377   5.353   8.931   4.269  0.1699 -0.1466 -0.3393
40672SOL    HW126378   5.305   9.006   4.233 -0.7779 -0.5054  0.1529
40672SOL    HW226379   5.285   8.867   4.291  0.9243 -0.9194 -0.2106
40673SOL     OW26380   3.567   5.334   3.538 -0.1774  0.2184  0.6087
40673SOL    HW126381   3.564   5.279   3.617 -1.3346  0.2702  0.6193
40673SOL    HW226382   3.482   5.378   3.537 -0.8605 -1.0200 -1.5383
40674SOL     OW26383   7.679   4.829  10.920  0.3350 -0.0305  0.8921
40674SOL    HW126384   7.710   4.916  10.945  1.1592 -0.1993  0.5049
40674SOL    HW226385   7.735   4.804  10.847 -0.1371 -0.7370  0.7640
40675SOL     OW26386   7.775   5.985   3.124 -0.1583  0.2071  0.3949
40675SOL    HW126387   7.789   5.890   3.125 -0.1869  0.2032  0.6154
40675SOL    HW226388   7.712   6.000   3.054  0.9827  0.2343 -0.6612
40676SOL     OW26389   2.287   4.571   4.087  0.0981  0.3150  0.7557
40676SOL    HW126390   2.320   4.483   4.105  0.2403  0.3118  0.4772
40676SOL    HW226391   2.193   4.558   4.071  0.3670  0.0028 -0.7534
40677SOL     OW26392   8.157   7.384   9.039  0.0594  0.2538  0.1846
40677SOL    HW126393   8.100   7.344   8.974 -1.0841  0.5807  0.9529
40677SOL    HW226394   8.130   7.476   9.043  0.6745  0.4328  0.5390
40678SOL     OW26395   5.739  10.188   2.012 -0.5598 -0.2054  0.0157
40678SOL    HW126396   5.779  10.204   2.097 -2.8079 -1.4099  1.3823
40678SOL    HW226397   5.693  10.105   2.022 -2.4444  0.5435 -1.7557
40679SOL     OW26398   1.865   6.440   9.500  0.1739 -0.3149  0.1955
40679SOL    HW126399   1.866   6.390   9.418 -0.6762  0.0257 -0.0320
40679SOL    HW226400   1.772   6.447   9.523  0.3723  0.0042  0.9395
40680SOL     OW26401   5.186   7.317   4.042  0.1964 -0.4758  0.4090
40680SOL    HW126402   5.223   7.403   4.065 -2.7936  0.9990  0.2211
40680SOL    HW226403   5.120   7.337   3.975 -1.3608 -2.7380  1.1487
40681SOL     OW26404   1.264   9.771   0.727 -0.1324 -0.3608  0.5121
40681SOL    HW126405   1.343   9.730   0.692 -0.5101 -2.2024  1.6456
40681SOL    HW226406   1.294   9.854   0.763  0.9205 -0.1574 -0.7523
40682SOL     OW26407  10.657   9.688   5.254 -0.0055 -0.1331  0.2851
40682SOL    HW126408  10.577   9.636   5.247 -0.9779  1.4436 -1.3133
40682SOL    HW226409  10.642   9.746   5.329 -0.0975 -0.2655  0.3680
40683SOL     OW26410   3.293   4.153   8.566  0.1327 -0.2852  0.3580
40683SOL    HW126411   3.251   4.187   8.645  0.1190  0.1610  0.1608
40683SOL    HW226412   3.236   4.180   8.495 -0.7668 -2.1338  0.3093
40684SOL     OW26413   1.163   0.424  10.125  0.4422 -0.1925 -0.3368
40684SOL    HW126414   1.140   0.350  10.069 -2.0766  0.1611  0.1087
40684SOL    HW226415   1.119   0.407  10.208 -1.1309  2.2242 -0.5504
40685SOL     OW26416   2.326   3.643   2.852 -0.1008  0.1538  0.3460
40685SOL    HW126417   2.415   3.668   2.828 -0.6415  3.2744  1.1960
40685SOL    HW226418   2.331   3.548   2.864  3.1031  0.2094  0.3806
40686SOL     OW26419   2.243   5.618   5.063  0.5326  0.1172  0.0909
40686SOL    HW126420   2.215   5.627   5.154 -0.3944 -0.5434 -0.1182
40686SOL    HW226421   2.330   5.658   5.061  0.7257 -0.1960  1.3426
40687SOL     OW26422   3.951   6.610   6.421  0.1869  0.1015 -0.4404
40687SOL    HW126423   3.877   6.602   6.361 -0.6331  0.2484  0.5271
40687SOL    HW226424   4.028   6.586   6.368 -0.6891 -1.4210 -1.0882
40688SOL     OW26425  10.270   2.284   7.488  0.1704 -0.0537 -0.4781
40688SOL    HW126426  10.305   2.283   7.577 -0.8312  1.0125 -0.0525
40688SOL    HW226427  10.329   2.226   7.439  1.0788 -0.2042  0.7368
40689SOL     OW26428   3.592   1.916   4.709 -0.3747 -0.3826 -0.2066
40689SOL    HW126429   3.600   1.846   4.774 -0.5999 -0.8174 -0.6408
40689SOL    HW226430   3.662   1.899   4.647 -0.2453 -0.0463 -0.1534
40690SOL     OW26431   8.325   3.117   2.498 -0.1677  0.2250 -0.0310
40690SOL    HW126432   8.278   3.182   2.446  0.1746  1.1669  0.8075
40690SOL    HW226433   8.320   3.149   2.588  1.0713 -0.2564  0.2384
40691SOL     OW26434   0.073   5.270   3.383 -0.6157 -0.1541 -0.0784
40691SOL    HW126435   0.065   5.358   3.346  0.5269 -0.5800 -1.4070
40691SOL    HW226436   0.162   5.268   3.419 -0.8268 -0.6018  0.4312
40692SOL     OW26437  10.762   4.837   9.998 -0.3820 -0.0112 -0.1287
40692SOL    HW126438  10.698   4.773  10.032 -0.5141 -0.1074 -0.5505
40692SOL    HW226439  10.845   4.809  10.036 -0.3764 -0.6636 -0.6108
40693SOL     OW26440   3.703  10.242   2.936  0.4433 -0.0940  0.0459
40693SOL    HW126441   3.742  10.289   2.861  1.0423 -1.5926 -0.6215
40693SOL    HW226442   3.765  10.171   2.954 -0.9118 -1.2276  0.3765
40694SOL     OW26443   4.940   9.529   4.212 -0.2079 -0.6482 -0.7469
40694SOL    HW126444   4.990   9.608   4.193 -0.3984 -0.6162 -1.1188
40694SOL    HW226445   5.001   9.457   4.197  0.3128 -0.5392  0.6840
40695SOL     OW26446   2.943   0.644   8.552 -0.3193  0.3773 -0.2123
40695SOL    HW126447   2.977   0.589   8.623 -0.2495 -1.4802 -1.6327
40695SOL    HW226448   3.020   0.694   8.522  0.1367 -0.4303 -0.4037
40696SOL     OW26449   3.976   9.670   9.211  0.2282  0.1726 -0.5464
40696SOL    HW126450   3.922   9.747   9.197  0.1469  0.6084  1.7299
40696SOL    HW226451   3.933   9.601   9.160 -1.5416  0.8848 -0.1014
40697SOL     OW26452   7.147  10.150   2.355 -0.0256  0.0332  0.0753
40697SOL    HW126453   7.105  10.129   2.438 -0.8585 -3.2519 -1.0112
40697SOL    HW226454   7.237  10.119   2.364  0.1945  0.6464  0.0674
40698SOL     OW26455   2.408   8.525   4.738  0.0238  0.4379  0.3393
40698SOL    HW126456   2.321   8.520   4.778 -0.8495  0.5718 -1.4595
40698SOL    HW226457   2.446   8.605   4.775 -0.4476  0.1600  1.4547
40699SOL     OW26458   7.907   7.729   5.742  0.3335  0.2136 -0.3100
40699SOL    HW126459   7.913   7.824   5.736 -0.2125  0.2082 -1.1420
40699SOL    HW226460   7.815   7.712   5.763  0.7452 -0.0860  1.4189
40700SOL     OW26461   6.773  10.387   3.068 -0.1774 -0.9347  0.2072
40700SOL    HW126462   6.712  10.446   3.112 -0.1329 -0.7993  0.0864
40700SOL    HW226463   6.798  10.323   3.136 -0.3997 -0.9502  0.2734
40701SOL     OW26464   4.222   4.849   1.580 -0.7720  0.3711  0.5637
40701SOL    HW126465   4.297   4.875   1.526  1.3324 -2.3364  1.8808
40701SOL    HW226466   4.153   4.912   1.558  0.5208  0.6395 -3.7325
40702SOL     OW26467   6.515   4.269   2.414  0.3334  0.4285 -0.2839
40702SOL    HW126468   6.456   4.340   2.438 -1.2556 -1.2489  1.0214
40702SOL    HW226469   6.563   4.249   2.495  1.6707  0.7782 -0.9521
40703SOL     OW26470   5.010   0.148   5.708 -0.0381  0.1861  0.2420
40703SOL    HW126471   5.103   0.167   5.693  0.2204 -1.0324  0.1301
40703SOL    HW226472   4.965   0.228   5.685  0.8592  0.2919 -1.3170
40704SOL     OW26473   1.477   8.948   2.280  0.3568  0.4231 -0.0195
40704SOL    HW126474   1.519   8.981   2.201 -0.2260  0.7512 -0.2033
40704SOL    HW226475   1.496   9.014   2.347 -1.5662  1.6682 -0.6050
40705SOL     OW26476   2.139   7.513   7.605 -0.1347 -0.5122  0.3075
40705SOL    HW126477   2.220   7.559   7.629 -0.2005  0.1665 -0.6818
40705SOL    HW226478   2.082   7.582   7.570 -0.7872 -1.1275  0.1379
40706SOL     OW26479   6.143   1.563   0.885 -0.3419  0.2489  0.0567
40706SOL    HW126480   6.079   1.628   0.855 -2.1156 -1.2748  0.3274
40706SOL    HW226481   6.225   1.589   0.845 -1.3072  1.8444 -0.9752
40707SOL     OW26482   8.664   6.785   1.961  0.3240 -0.1000  0.3738
40707SOL    HW126483   8.749   6.781   1.917  0.5815 -1.3132  0.9323
40707SOL    HW226484   8.619   6.857   1.919  1.0232 -0.4442 -1.0361
40708SOL     OW26485   0.041   8.690   7.145 -0.0667 -0.2982 -0.1751
40708SOL    HW126486   0.052   8.680   7.051  1.1215 -1.3422  0.0512
40708SOL    HW226487   0.101   8.626   7.184 -1.1818 -0.5246  1.2837
40709SOL     OW26488   7.166   3.535   1.594 -0.2277 -0.0242 -0.9985
40709SOL    HW126489   7.192   3.537   1.502 -1.5043  0.7821 -1.3606
40709SOL    HW226490   7.184   3.445   1.622 -0.0795 -0.3550 -2.1042
40710SOL     OW26491   1.263   7.149   5.876 -0.0036 -0.2775  0.0579
40710SOL    HW126492   1.344   7.123   5.832  0.5495  1.7056 -0.1736
40710SOL    HW226493   1.271   7.243   5.888 -1.2537 -0.3758  2.1756
40711SOL     OW26494   2.907   8.600   7.986  0.2340 -0.1487  0.4174
40711SOL    HW126495   2.886   8.509   7.963  3.2789 -0.7411 -0.5329
40711SOL    HW226496   3.000   8.608   7.966  0.1747  3.0718  0.9795
40712SOL     OW26497   7.711   6.447  10.459  0.2333  0.3930 -0.0646
40712SOL    HW126498   7.710   6.384  10.387 -0.9753  1.0992 -0.6976
40712SOL    HW226499   7.620   6.452  10.489  0.7754 -0.2026  1.8354
40713SOL     OW26500   6.190   4.993   0.773 -0.2621  0.0797 -0.1888
40713SOL    HW126501   6.236   4.914   0.801  0.9240  1.4224  1.9632
40713SOL    HW226502   6.097   4.970   0.779  0.0349 -0.8754  1.4889
40714SOL     OW26503  10.179   0.440   1.030 -0.5182 -0.1812  0.0991
40714SOL    HW126504  10.229   0.516   1.060 -0.0253 -1.4779  2.8912
40714SOL    HW226505  10.095   0.447   1.077 -2.0914  0.6333 -2.6147
40715SOL     OW26506   8.337   2.498   0.667  0.2334 -0.0359  0.0739
40715SOL    HW126507   8.357   2.418   0.618  0.5156  0.8553 -1.3096
40715SOL    HW226508   8.256   2.530   0.627  0.3124  0.5635  0.3938
40716SOL     OW26509   3.993   7.246   7.535  0.2096  0.7112 -0.3095
40716SOL    HW126510   4.083   7.263   7.563 -0.3719  1.5978  1.1370
40716SOL    HW226511   3.943   7.245   7.617 -0.9762 -0.6495 -0.9998
40717SOL     OW26512   0.667   1.884   3.692 -0.4792 -0.4035 -0.4551
40717SOL    HW126513   0.738   1.942   3.666 -0.5080 -0.2746 -0.2450
40717SOL    HW226514   0.598   1.900   3.627 -1.1037  0.9558  0.4891
40718SOL     OW26515   8.728   6.950   4.481  0.0278  0.1825 -0.3794
40718SOL    HW126516   8.648   6.981   4.437 -0.7479 -1.8422 -0.5213
40718SOL    HW226517   8.793   6.945   4.411 -0.2699  0.0324 -0.6461
40719SOL     OW26518  10.620   4.724   8.359 -0.0992 -0.3056  0.1173
40719SOL    HW126519  10.560   4.783   8.404 -2.4725 -2.5243  0.0949
40719SOL    HW226520  10.645   4.660   8.426  2.0264  0.3539  0.0248
40720SOL     OW26521   2.641   3.537   7.833 -0.0701 -0.2922  0.2080
40720SOL    HW126522   2.666   3.474   7.900 -1.3515 -1.9789 -0.8097
40720SOL    HW226523   2.555   3.569   7.862 -0.4775 -0.7839 -0.4072
40721SOL     OW26524   5.690   0.187   8.987  0.1306  0.1480 -0.1776
40721SOL    HW126525   5.602   0.216   8.964  0.0376  0.3110  0.3725
40721SOL    HW226526   5.735   0.178   8.903 -0.8366 -1.3362 -0.5718
40722SOL     OW26527   2.607  10.489   0.522  0.0489 -0.6975 -0.1852
40722SOL    HW126528   2.514  10.511   0.517  0.0984  0.3640  2.2166
40722SOL    HW226529   2.638  10.535   0.600  2.4645 -1.5332 -0.5789
40723SOL     OW26530   4.752   1.065   4.567  0.4688 -0.4513  0.0037
40723SOL    HW126531   4.656   1.056   4.562  0.3752  0.4730  0.0215
40723SOL    HW226532   4.772   1.138   4.509  1.1326 -0.4478  0.2366
40724SOL     OW26533   5.282  10.641   0.017  0.3180  0.2631 -0.2487
40724SOL    HW126534   5.275  10.736   0.025  3.2641  0.4038  2.7516
40724SOL    HW226535   5.213  10.606   0.074 -1.8846  0.3960 -2.6279
40725SOL     OW26536   0.451   7.319   8.235 -0.8209 -0.6329 -0.7492
40725SOL    HW126537   0.485   7.242   8.281 -1.3958 -2.1703 -2.7437
40725SOL    HW226538   0.415   7.374   8.304  0.4719 -1.6808  0.8429
40726SOL     OW26539   2.376   2.749   6.628  0.4279  0.1545 -0.0656
40726SOL    HW126540   2.370   2.844   6.635 -0.9493  0.0171  1.0072
40726SOL    HW226541   2.302   2.723   6.573 -0.8028 -0.4728  1.8012
40727SOL     OW26542   9.449  10.470   7.391  0.1312 -0.6715  0.3171
40727SOL    HW126543   9.471  10.479   7.484 -0.0797  0.1300  0.3023
40727SOL    HW226544   9.365  10.517   7.382  0.3176 -0.4552 -0.3399
40728SOL     OW26545   3.826   1.596   9.174  0.0319 -0.3991  0.5450
40728SOL    HW126546   3.848   1.686   9.149  2.1628 -0.8556  0.6312
40728SOL    HW226547   3.814   1.600   9.269  2.2792 -0.5349  0.8972
40729SOL     OW26548   6.158   1.795   6.346  0.0210  0.2915  0.8325
40729SOL    HW126549   6.154   1.888   6.323 -0.9701  0.6095  2.1698
40729SOL    HW226550   6.250   1.779   6.366  0.6301  0.3999 -1.5439
40730SOL     OW26551   9.949   3.894   3.072 -0.1162  0.2662  0.3291
40730SOL    HW126552  10.008   3.889   2.997  0.7852 -2.1663  1.1124
40730SOL    HW226553   9.862   3.907   3.033  0.3461 -0.8257 -1.1606
40731SOL     OW26554   1.948   5.343   6.425  0.7161 -0.3777 -0.1988
40731SOL    HW126555   2.006   5.416   6.447  1.5397 -0.7831 -1.0067
40731SOL    HW226556   1.969   5.321   6.335  0.9900 -2.0767  0.2417
40732SOL     OW26557   3.751   2.253   8.251 -0.2020 -0.4313 -0.2407
40732SOL    HW126558   3.730   2.331   8.200 -2.3815 -1.0326 -0.3597
40732SOL    HW226559   3.841   2.231   8.226  0.1751  1.5537 -0.7946
40733SOL     OW26560   4.875   0.356   5.593 -1.1509  0.1983  0.1533
40733SOL    HW126561   4.858   0.277   5.542 -0.9781  0.2507  0.0113
40733SOL    HW226562   4.798   0.411   5.579 -1.7628 -0.3880  1.1163
40734SOL     OW26563   9.034   8.188   8.564  0.8790 -0.0510 -0.1414
40734SOL    HW126564   9.121   8.227   8.569  1.3716 -1.1293  0.2179
40734SOL    HW226565   9.051   8.093   8.565 -0.3729 -0.3739  2.8505
40735SOL     OW26566   3.879   0.979   5.112 -0.8680 -0.5428  0.5077
40735SOL    HW126567   3.967   0.947   5.133  0.3004  2.6897  1.0353
40735SOL    HW226568   3.822   0.906   5.134  1.4958 -2.1144  1.9353
40736SOL     OW26569   6.446   0.542   5.689 -0.0447  0.6404  0.3648
40736SOL    HW126570   6.396   0.620   5.713 -0.1857  0.6345  0.0930
40736SOL    HW226571   6.526   0.575   5.649  0.1077  0.6478  0.6666
40737SOL     OW26572  10.143   2.628   6.195 -0.2434  0.3875  0.5670
40737SOL    HW126573  10.168   2.705   6.246 -0.3972  0.1244  1.0501
40737SOL    HW226574  10.206   2.625   6.123 -0.7217  1.4133  0.0809
40738SOL     OW26575   1.301  10.135   6.601  0.4814  0.0084 -0.4009
40738SOL    HW126576   1.280  10.106   6.512 -0.8677  0.2593 -0.1868
40738SOL    HW226577   1.221  10.117   6.652  1.6380 -1.3031  1.0636
40739SOL     OW26578   0.183   8.185   3.371  0.2640 -0.8141  0.2953
40739SOL    HW126579   0.128   8.254   3.407  2.0244  0.8907 -0.0834
40739SOL    HW226580   0.180   8.198   3.276 -0.6285 -2.3090  0.0815
40740SOL     OW26581  10.554   0.227   8.284 -0.0318  0.1613  0.6705
40740SOL    HW126582  10.571   0.191   8.197  1.2143 -0.2011  1.0508
40740SOL    HW226583  10.532   0.151   8.338  1.3375  0.0897  1.1684
40741SOL     OW26584   1.076   9.494   9.965 -0.4147 -0.0814 -0.3948
40741SOL    HW126585   1.144   9.488  10.032  0.7065 -1.9642 -1.6247
40741SOL    HW226586   1.070   9.588   9.945  0.3592  0.3368  1.1569
40742SOL     OW26587   5.522   3.675   3.280 -0.0919  0.2018 -0.1899
40742SOL    HW126588   5.543   3.644   3.368 -0.3835 -0.8593 -0.4737
40742SOL    HW226589   5.456   3.614   3.249  1.5496 -0.8047 -1.9448
40743SOL     OW26590  10.373   5.549   1.393 -0.3442 -0.1310  0.2065
40743SOL    HW126591  10.412   5.462   1.390 -0.8515 -0.3712  0.4810
40743SOL    HW226592  10.309   5.544   1.464 -2.2088 -0.3057 -1.4113
40744SOL     OW26593   8.105   4.029  10.960 -0.0177 -0.0046 -0.6874
40744SOL    HW126594   8.079   3.937  10.964  0.5339 -0.1239  0.7540
40744SOL    HW226595   8.198   4.028  10.982 -0.4726  1.0745  1.4930
40745SOL     OW26596   9.274   9.401   5.123  0.2084  0.0071  0.1024
40745SOL    HW126597   9.289   9.371   5.033  0.5014  2.4359 -0.7313
40745SOL    HW226598   9.214   9.475   5.114 -1.3099 -0.8780  2.1286
40746SOL     OW26599   4.758   4.309   3.797  0.0607 -0.0421 -0.1285
40746SOL    HW126600   4.681   4.271   3.841 -0.4997 -1.6068 -2.3081
40746SOL    HW226601   4.742   4.295   3.704  2.0239  1.5486 -0.7693
40747SOL     OW26602   2.910   6.290   0.837 -0.1953 -0.7352 -0.7030
40747SOL    HW126603   2.930   6.382   0.853 -2.6669 -0.2239 -0.1855
40747SOL    HW226604   2.978   6.261   0.776 -0.8225  2.1374 -2.9642
40748SOL     OW26605   4.322   1.106   8.845 -0.2773 -0.0249  0.3720
40748SOL    HW126606   4.228   1.086   8.842 -0.1615 -0.5243 -0.0910
40748SOL    HW226607   4.350   1.103   8.754  0.6325 -2.0620  0.6777
40749SOL     OW26608   3.394  10.583   1.088  0.2042  1.1323 -0.4183
40749SOL    HW126609   3.433  10.567   1.174 -1.7575 -2.0751  0.0441
40749SOL    HW226610   3.310  10.625   1.106  0.8485  2.7693 -1.0190
40750SOL     OW26611   6.465   2.251   7.974 -0.1217 -0.1720 -0.1696
40750SOL    HW126612   6.380   2.281   8.004 -0.4059 -1.0471 -0.0730
40750SOL    HW226613   6.515   2.234   8.054  0.9726  2.4905 -0.1813
40751SOL     OW26614   3.389   1.332   6.323  0.1348 -0.3426 -0.2989
40751SOL    HW126615   3.446   1.299   6.393  2.7859  2.4992 -0.9138
40751SOL    HW226616   3.367   1.421   6.351 -1.8951 -0.4564 -1.3712
40752SOL     OW26617   7.648   1.862   0.841 -0.6072 -0.1763  0.2867
40752SOL    HW126618   7.685   1.796   0.782  0.0836  0.1843  0.2986
40752SOL    HW226619   7.555   1.864   0.820 -0.8677 -2.0089  1.1262
40753SOL     OW26620   3.302   6.671   7.750 -0.0872  0.6596 -0.0780
40753SOL    HW126621   3.216   6.629   7.753  0.1017  0.2492 -0.3269
40753SOL    HW226622   3.362   6.605   7.785  0.0827  1.0561  0.3844
40754SOL     OW26623  10.685   5.200   1.645 -0.1862 -0.0545 -0.7380
40754SOL    HW126624  10.657   5.200   1.737 -1.0068 -1.3453 -0.9612
40754SOL    HW226625  10.767   5.248   1.646 -0.4822  0.4828  0.5795
40755SOL     OW26626   6.931   8.970   4.055 -0.6358  0.3811  0.0908
40755SOL    HW126627   6.847   8.973   4.099 -0.2683  1.4328  0.7604
40755SOL    HW226628   6.969   9.057   4.070  0.5948 -0.0978 -0.1303
40756SOL     OW26629   3.672  10.793   9.130 -0.0908  0.0890 -0.5838
40756SOL    HW126630   3.606  10.862   9.128 -0.6780 -0.4291  0.3649
40756SOL    HW226631   3.679  10.768   9.222  0.1338 -1.0901 -0.8955
40757SOL     OW26632   6.900   1.681   9.715 -0.2646 -1.0060 -0.2827
40757SOL    HW126633   6.836   1.611   9.710 -0.0585 -1.1614 -0.8705
40757SOL    HW226634   6.872   1.744   9.649  1.4768 -2.1877 -2.2956
40758SOL     OW26635   9.586   3.637   6.114 -0.2743  0.1991  0.1520
40758SOL    HW126636   9.630   3.603   6.036 -1.4563  1.6565 -1.2205
40758SOL    HW226637   9.558   3.559   6.161  1.2408 -0.7297 -0.4095
40759SOL     OW26638   5.092   8.366   6.620 -0.2260  0.4308  0.3983
40759SOL    HW126639   5.059   8.409   6.541 -1.2085 -1.6420 -0.3826
40759SOL    HW226640   5.182   8.343   6.600 -0.6354 -0.5783 -0.3717
40760SOL     OW26641   5.646   3.449  10.040 -0.1939  0.7104 -0.0456
40760SOL    HW126642   5.644   3.457   9.945  1.7233  0.6638 -0.1231
40760SOL    HW226643   5.637   3.538  10.073 -0.6804  0.7438 -0.2679
40761SOL     OW26644  10.483   8.424   5.651  0.1118 -0.7378 -0.0139
40761SOL    HW126645  10.426   8.499   5.672 -0.4149 -1.1313 -0.0094
40761SOL    HW226646  10.439   8.381   5.578  0.8560 -0.5643 -0.5760
40762SOL     OW26647   3.556  10.805   2.753 -0.6746 -0.6466 -0.4929
40762SOL    HW126648   3.517  10.763   2.676 -1.1423 -1.7305  0.3146
40762SOL    HW226649   3.637  10.758   2.768 -0.3587 -0.1386 -0.5820
40763SOL     OW26650   8.893   4.454   8.666  0.3381  0.0978 -0.0455
40763SOL    HW126651   8.955   4.515   8.626  0.5819 -0.6363 -0.8153
40763SOL    HW226652   8.938   4.370   8.666  0.0427 -0.0751  1.0951
40764SOL     OW26653  10.946   4.703   4.523 -0.1803  0.5421  0.3991
40764SOL    HW126654  11.034   4.724   4.552  0.4699  0.5029 -1.3985
40764SOL    HW226655  10.949   4.715   4.428 -2.0135  0.1933  0.2641
40765SOL     OW26656   4.855   4.385   0.173 -0.2663  0.2965  0.8025
40765SOL    HW126657   4.945   4.353   0.168 -0.4279 -0.0559 -0.0353
40765SOL    HW226658   4.802   4.305   0.178 -0.6980  0.3585 -1.6325
40766SOL     OW26659   4.891   9.793   8.252  0.1880  0.0113 -0.6566
40766SOL    HW126660   4.864   9.783   8.161  1.0966 -2.3837 -0.7160
40766SOL    HW226661   4.924   9.883   8.257 -1.2627  0.7067 -2.2642
40767SOL     OW26662   5.882   9.081   3.586  0.6034  0.4648 -0.2747
40767SOL    HW126663   5.823   9.007   3.571  0.8485  0.2516 -0.1914
40767SOL    HW226664   5.903   9.076   3.680  0.0390  1.0724 -0.1134
40768SOL     OW26665   8.334   1.791  10.375  0.2405 -1.0830  0.5330
40768SOL    HW126666   8.317   1.867  10.318  1.0407 -1.5344 -0.3352
40768SOL    HW226667   8.250   1.775  10.418 -0.1237 -0.1170  0.2207
40769SOL     OW26668   3.765   5.939   1.084 -0.1120 -0.5041  0.1774
40769SOL    HW126669   3.728   6.008   1.029 -0.3667  0.7477  1.8631
40769SOL    HW226670   3.828   5.895   1.027  0.0090  1.0699 -0.9738
40770SOL     OW26671   1.840   9.827   5.441 -0.5785  0.3611 -0.3514
40770SOL    HW126672   1.847   9.915   5.404 -2.0910  1.2459  1.3206
40770SOL    HW226673   1.873   9.837   5.531  0.0675 -1.0057 -0.4147
40771SOL     OW26674   6.136   9.414   2.028  0.0409 -0.4139  0.0173
40771SOL    HW126675   6.074   9.431   1.956 -0.8777  0.2479  0.9350
40771SOL    HW226676   6.216   9.386   1.984 -0.7234 -0.7381 -1.2407
40772SOL     OW26677   2.394   5.268   9.875  0.0272  0.7803 -0.0856
40772SOL    HW126678   2.472   5.290   9.823  0.4216 -0.5607 -0.0880
40772SOL    HW226679   2.341   5.213   9.818 -0.4156  0.8061  0.2950
40773SOL     OW26680   8.526   0.496   1.181 -0.3256 -0.5705 -0.3162
40773SOL    HW126681   8.451   0.499   1.241 -0.6775 -0.2739 -0.7624
40773SOL    HW226682   8.521   0.579   1.133 -0.7710 -1.3331 -1.6258
40774SOL     OW26683   6.376   2.422  10.423  0.0166 -0.6679  0.9085
40774SOL    HW126684   6.401   2.450  10.335  1.2981 -1.7083  0.9114
40774SOL    HW226685   6.360   2.328  10.414  1.2810 -1.0182  1.9825
40775SOL     OW26686   3.675   4.288  10.057 -0.3862 -0.5324  0.1701
40775SOL    HW126687   3.644   4.204  10.090 -2.0031  0.1773  0.5743
40775SOL    HW226688   3.637   4.296   9.969  0.1747 -0.4419 -0.0688
40776SOL     OW26689   2.124   4.515   2.632 -0.4133  0.2276 -0.4837
40776SOL    HW126690   2.185   4.575   2.590 -0.9941 -0.4026 -2.3334
40776SOL    HW226691   2.117   4.441   2.571  0.0857 -1.6382  1.5959
40777SOL     OW26692   9.883   4.491   6.824 -0.3284 -0.2557  0.1035
40777SOL    HW126693   9.934   4.549   6.767  0.0988 -0.1467  0.5927
40777SOL    HW226694   9.809   4.464   6.770  1.8781 -3.0296 -1.8041
40778SOL     OW26695  10.423   8.768   2.869 -0.7192  0.6334  0.5838
40778SOL    HW126696  10.448   8.857   2.894 -0.0689  0.2111  1.5215
40778SOL    HW226697  10.359   8.741   2.935  0.1889 -0.1044  1.1941
40779SOL     OW26698   6.070   7.934   5.487 -0.6676  0.2672 -0.5857
40779SOL    HW126699   6.011   7.859   5.490 -0.9101  0.4840  0.3627
40779SOL    HW226700   6.028   7.999   5.544  0.4294  0.4526  0.0320
40780SOL     OW26701   0.063   2.491   6.698  0.0930 -0.2734  0.0551
40780SOL    HW126702   0.041   2.516   6.788 -0.0755  1.1855 -0.3727
40780SOL    HW226703  -0.022   2.481   6.655  0.1468 -1.9084  0.2805
40781SOL     OW26704   1.482   7.510   2.366  0.1572  0.2910  0.0285
40781SOL    HW126705   1.439   7.487   2.283  0.2629 -0.1481  0.0940
40781SOL    HW226706   1.423   7.574   2.406 -0.1974  0.0490 -0.1025
40782SOL     OW26707  10.866   7.196   2.005 -0.2012  0.0909 -0.0471
40782SOL    HW126708  10.878   7.288   1.978 -2.9940  0.3663 -0.6823
40782SOL    HW226709  10.913   7.146   1.938  2.7527  0.9856  1.1848
40783SOL     OW26710   2.719   7.237   9.142  0.2642 -0.7314 -0.0973
40783SOL    HW126711   2.699   7.319   9.098 -0.2478 -0.5895  0.3984
40783SOL    HW226712   2.709   7.170   9.074 -2.2524 -0.7251  0.1862
40784SOL     OW26713   0.003  10.108   7.254  0.5118  0.0143  0.2783
40784SOL    HW126714   0.029  10.199   7.242 -0.0801  0.0565 -0.7824
40784SOL    HW226715  -0.038  10.083   7.171 -2.1371 -0.2584  1.5630
40785SOL     OW26716   2.866   9.994   7.626  0.2762  0.2354 -0.3860
40785SOL    HW126717   2.881  10.009   7.533 -0.5523 -0.5326 -0.6502
40785SOL    HW226718   2.884   9.901   7.639  0.4387  0.3445  0.2378
40786SOL     OW26719   1.518   4.337   2.829 -0.0088  0.0249 -0.1962
40786SOL    HW126720   1.474   4.363   2.748  0.8508  0.8923 -0.4071
40786SOL    HW226721   1.570   4.261   2.805 -0.5543 -0.3516 -0.2015
40787SOL     OW26722  10.744   0.214   5.223 -0.3909 -0.2339 -0.1839
40787SOL    HW126723  10.693   0.168   5.156 -0.7619  0.3962 -0.3366
40787SOL    HW226724  10.685   0.221   5.298 -0.1547 -0.4722  0.0271
40788SOL     OW26725   7.734   4.758   6.278 -0.2935 -0.1659 -0.0263
40788SOL    HW126726   7.761   4.728   6.191  0.4278  2.6418 -0.8897
40788SOL    HW226727   7.697   4.845   6.263  0.6698  0.7961  2.5578
40789SOL     OW26728   6.889   3.599   4.847 -0.4760  0.4435  0.2194
40789SOL    HW126729   6.843   3.525   4.807  0.2371  0.7697 -1.2425
40789SOL    HW226730   6.965   3.614   4.791 -0.3068  1.9354  0.8007
40790SOL     OW26731   1.460   1.449   3.305  0.2470 -0.2957 -0.0930
40790SOL    HW126732   1.505   1.368   3.329  0.1298 -0.5271 -0.6313
40790SOL    HW226733   1.429   1.485   3.388  3.7918  1.3431  0.7107
40791SOL     OW26734   3.974   8.895   0.673 -0.2329  0.6901  0.0501
40791SOL    HW126735   3.921   8.857   0.743  0.8378 -1.5451 -0.2376
40791SOL    HW226736   4.028   8.961   0.716  1.0406 -1.2500  1.5806
40792SOL     OW26737   0.065   7.967   7.745 -0.3932  0.0286 -0.1258
40792SOL    HW126738   0.121   7.907   7.695  0.1732  0.9018 -0.5731
40792SOL    HW226739   0.003   8.001   7.681 -0.5991  0.0464  0.0840
40793SOL     OW26740  10.731   7.438   7.865 -0.4433  0.1344 -0.1573
40793SOL    HW126741  10.730   7.413   7.957 -2.0416  1.5483  0.2511
40793SOL    HW226742  10.816   7.481   7.852 -0.8102  1.2614  1.0420
40794SOL     OW26743   1.466   9.376   9.195  0.4063  0.1308  0.6380
40794SOL    HW126744   1.434   9.287   9.210  0.5221  0.1463  0.9899
40794SOL    HW226745   1.427   9.427   9.266 -0.1454  0.4810  0.0900
40795SOL     OW26746   5.984   7.209   7.114 -0.2371  0.0613  0.8381
40795SOL    HW126747   6.052   7.161   7.161 -1.4449  0.1941  2.8864
40795SOL    HW226748   5.924   7.239   7.183 -2.4090 -0.1096 -0.8448
40796SOL     OW26749   8.815   1.954   9.277  0.2176  0.1819 -0.0782
40796SOL    HW126750   8.772   2.034   9.307 -0.8624 -0.6689  0.7690
40796SOL    HW226751   8.743   1.901   9.242  1.0982  0.0931 -1.8202
40797SOL     OW26752   1.898   9.464   6.626 -0.2546  0.6569  0.3042
40797SOL    HW126753   1.837   9.444   6.697 -0.1179 -0.5177  0.1059
40797SOL    HW226754   1.843   9.469   6.548 -0.1506 -0.0707  0.1785
40798SOL     OW26755  10.113   9.516   7.928  0.3498  0.0086 -0.2511
40798SOL    HW126756  10.184   9.524   7.992 -0.1931 -2.4788  0.7731
40798SOL    HW226757  10.157   9.523   7.843  1.2826  1.9509  0.3262
40799SOL     OW26758   4.998   9.177   3.292  0.0312 -0.2431  0.3306
40799SOL    HW126759   4.941   9.212   3.223  0.5657 -1.0125 -0.5304
40799SOL    HW226760   4.972   9.224   3.371 -0.5980  0.6651 -0.3953
40800SOL     OW26761   9.682  10.351   6.075 -0.1969 -0.2618  1.0466
40800SOL    HW126762   9.741  10.373   6.002 -0.6034 -1.0317  0.4664
40800SOL    HW226763   9.647  10.435   6.104  1.5112  0.2582  1.6979
40801SOL     OW26764   6.631   4.750   6.737  0.3060 -0.0105  0.3835
40801SOL    HW126765   6.713   4.773   6.695  0.5577 -0.9221  0.3619
40801SOL    HW226766   6.654   4.732   6.828  0.3826 -1.6438  0.0640
40802SOL     OW26767   8.221  10.555   3.231 -0.0051  0.3915  0.1049
40802SOL    HW126768   8.268  10.610   3.295  2.3843 -0.7289 -0.5752
40802SOL    HW226769   8.221  10.608   3.151 -2.0871  1.3675  0.6951
40803SOL     OW26770   0.326   3.219   0.811 -0.0945 -0.1403  0.5361
40803SOL    HW126771   0.322   3.287   0.744  0.0070  0.6484  1.3083
40803SOL    HW226772   0.415   3.183   0.804 -0.6143 -1.2566 -0.8622
40804SOL     OW26773   1.635   4.973   6.829 -0.0873  0.1600 -0.6385
40804SOL    HW126774   1.663   4.939   6.744 -1.6690 -1.6392 -0.5123
40804SOL    HW226775   1.621   5.066   6.814  2.4709  0.4755 -1.5466
40805SOL     OW26776   6.157  10.156   3.964 -0.2521 -0.6238  0.4127
40805SOL    HW126777   6.159  10.250   3.984  1.1971 -0.5865  0.2139
40805SOL    HW226778   6.167  10.152   3.869 -0.1904 -0.9824  0.4343
40806SOL     OW26779  11.087   0.590   5.147  0.1129  0.4441 -0.0814
40806SOL    HW126780  11.147   0.605   5.074 -0.3096  2.2421 -0.0854
40806SOL    HW226781  11.026   0.523   5.115  0.3684  0.6956 -1.1128
40807SOL     OW26782  10.726  10.553   4.604 -0.2150 -0.4141 -0.2772
40807SOL    HW126783  10.793  10.529   4.668  0.0451 -1.2903 -0.8584
40807SOL    HW226784  10.749  10.503   4.526 -1.9594 -1.2628 -0.2833
40808SOL     OW26785   4.739   9.661   4.554 -0.0007 -0.1443  0.7901
40808SOL    HW126786   4.689   9.593   4.599 -0.5561 -0.2922 -0.0230
40808SOL    HW226787   4.824   9.662   4.597  0.1528 -1.6251  0.5732
40809SOL     OW26788   2.323   1.955   4.554  0.0003  0.1638 -0.2390
40809SOL    HW126789   2.275   2.031   4.521  0.4941  0.4567 -0.2973
40809SOL    HW226790   2.257   1.887   4.564 -0.7564  1.0568  1.2873
40810SOL     OW26791   4.846  10.107   6.983 -0.3566  0.5512  0.1503
40810SOL    HW126792   4.753  10.101   6.959  0.1080 -0.1262 -1.6235
40810SOL    HW226793   4.865  10.023   7.025 -0.7093  1.0053  1.2695
40811SOL     OW26794   2.556  10.083   2.334 -0.1970  0.4629  0.6092
40811SOL    HW126795   2.565  10.123   2.247 -1.0968  1.1907  0.8254
40811SOL    HW226796   2.500  10.007   2.319  0.1956  0.2002  0.4524
40812SOL     OW26797   3.630   0.588   7.921 -0.4208 -0.3940  0.7889
40812SOL    HW126798   3.571   0.651   7.962 -1.3326 -0.5191 -0.2899
40812SOL    HW226799   3.709   0.638   7.901  0.0954 -0.3389  2.6957
40813SOL     OW26800  10.675   4.490   6.100 -0.2680 -0.2597  0.0954
40813SOL    HW126801  10.754   4.436   6.100  0.0944  0.2666  0.6891
40813SOL    HW226802  10.705   4.578   6.122 -0.8349  0.2301 -0.9937
40814SOL     OW26803  10.413   4.933   7.488 -0.0880  0.7520 -1.0198
40814SOL    HW126804  10.371   4.928   7.574  0.6162 -0.4448 -0.7259
40814SOL    HW226805  10.506   4.934   7.507  0.0605  1.8755 -1.7278
40815SOL     OW26806   2.876   5.345   5.186 -0.2079 -0.3557 -0.3229
40815SOL    HW126807   2.850   5.365   5.096  2.6046  0.1289 -1.1127
40815SOL    HW226808   2.957   5.394   5.200  0.5139 -1.9685  1.7891
40816SOL     OW26809   4.099   4.210   2.340 -0.6873 -0.1809 -0.2941
40816SOL    HW126810   4.060   4.276   2.397 -0.0729 -0.2052  0.1610
40816SOL    HW226811   4.097   4.130   2.391 -0.5835 -0.3149 -0.4984
40817SOL     OW26812   5.765   2.888   3.588  0.0354  0.1076  0.1943
40817SOL    HW126813   5.729   2.871   3.501  1.9477  0.2530 -0.6693
40817SOL    HW226814   5.762   2.984   3.597 -0.8704  0.0499  0.6338
40818SOL     OW26815   6.337  10.526   6.021 -0.1981 -0.0888  0.1610
40818SOL    HW126816   6.259  10.501   5.971 -0.6709  3.6258 -1.2705
40818SOL    HW226817   6.384  10.586   5.963  1.3477  1.3315  2.7023
40819SOL     OW26818   2.198   0.567   3.970 -0.4317  0.0711 -0.0418
40819SOL    HW126819   2.196   0.540   3.878 -1.9897 -0.8483  0.2345
40819SOL    HW226820   2.283   0.611   3.979  0.5058 -1.2952 -1.4948
40820SOL     OW26821  10.000   2.626   1.469 -0.5717 -0.1501 -0.1855
40820SOL    HW126822  10.016   2.647   1.561  0.0702  0.0824 -0.3453
40820SOL    HW226823  10.032   2.537   1.460 -1.0141 -0.3215 -0.0912
40821SOL     OW26824   1.676   9.558   1.470  0.3054 -0.0216 -0.0307
40821SOL    HW126825   1.663   9.589   1.560  0.7406 -1.0406  0.3954
40821SOL    HW226826   1.587   9.543   1.437  0.1647 -0.2687  0.4558
40822SOL     OW26827   9.534   8.016   7.276  0.1227 -0.1362 -0.9380
40822SOL    HW126828   9.612   8.070   7.266  0.1937 -0.1207 -0.3345
40822SOL    HW226829   9.567   7.933   7.311 -0.0673 -0.3137 -1.1876
40823SOL     OW26830   6.563   8.651   2.141  0.1723 -0.2135 -0.4383
40823SOL    HW126831   6.649   8.672   2.106  0.2328  0.0608 -0.1319
40823SOL    HW226832   6.574   8.654   2.236 -1.2978  4.9516 -0.1266
40824SOL     OW26833   1.673   9.134   6.587  0.1617 -0.1780  0.3422
40824SOL    HW126834   1.748   9.147   6.645  0.4617  0.1102 -0.0990
40824SOL    HW226835   1.641   9.223   6.569  0.6582 -0.1942 -0.6804
40825SOL     OW26836   1.853   5.592   5.486  0.3426 -0.1621  0.3353
40825SOL    HW126837   1.833   5.578   5.393  1.8723 -0.5460  0.0337
40825SOL    HW226838   1.905   5.515   5.511  0.6231  0.3282  1.2958
40826SOL     OW26839   5.914   6.099   6.509 -0.3142  0.0042 -0.0894
40826SOL    HW126840   5.824   6.075   6.487 -0.3231  0.6896 -0.8324
40826SOL    HW226841   5.968   6.033   6.466 -0.3487  1.1337 -1.9639
40827SOL     OW26842   6.270   3.129   7.511 -0.3808 -0.2773 -0.5107
40827SOL    HW126843   6.183   3.160   7.485 -0.3034  0.7600  0.4310
40827SOL    HW226844   6.316   3.207   7.541 -0.0967 -1.2211  1.7043
40828SOL     OW26845  10.291  10.214   6.962 -0.2710 -0.4681 -0.6006
40828SOL    HW126846  10.239  10.140   6.993 -0.2622 -0.9019 -1.6076
40828SOL    HW226847  10.366  10.217   7.022 -1.5556  0.3502  1.0514
40829SOL     OW26848   0.364   5.461   3.677  0.1406  0.3167 -0.1010
40829SOL    HW126849   0.290   5.520   3.665  0.0563 -0.1088 -1.9863
40829SOL    HW226850   0.382   5.428   3.589  2.9740  0.8936  0.1723
40830SOL     OW26851   1.978   9.171   5.049  0.3266  0.0311  0.3888
40830SOL    HW126852   1.946   9.130   5.129  0.3609  2.1070  1.5318
40830SOL    HW226853   2.066   9.202   5.071  0.1854  0.9831 -0.2837
40831SOL     OW26854   8.432   6.975   7.408 -0.2377 -0.5349  0.0711
40831SOL    HW126855   8.463   6.965   7.318 -1.8709  1.5329 -0.8288
40831SOL    HW226856   8.341   6.944   7.405 -0.0426 -1.2348  1.2190
40832SOL     OW26857   4.382   6.968   8.511  0.2335 -0.0270  0.5808
40832SOL    HW126858   4.429   6.967   8.594  0.8419 -1.1557  0.2507
40832SOL    HW226859   4.301   7.014   8.529  0.3328 -0.3132  1.8148
40833SOL     OW26860   4.403   8.566   4.819  0.1770 -0.2276  0.2661
40833SOL    HW126861   4.308   8.575   4.818 -0.1648 -2.4539 -2.5253
40833SOL    HW226862   4.422   8.522   4.902 -0.6420  3.5122  2.6497
40834SOL     OW26863   4.309   1.579   5.781 -0.2930 -0.3190 -0.6217
40834SOL    HW126864   4.355   1.583   5.865 -0.2860  3.5142 -0.6350
40834SOL    HW226865   4.217   1.597   5.804 -0.5020 -0.4259 -1.3467
40835SOL     OW26866   2.597   1.384   4.326 -0.4770 -0.2476 -0.0200
40835SOL    HW126867   2.546   1.342   4.395 -0.1930 -1.2813 -0.4312
40835SOL    HW226868   2.686   1.391   4.362 -0.3929 -0.5301 -0.1711
40836SOL     OW26869   2.941   2.402   5.140 -0.4332 -0.1250 -0.2062
40836SOL    HW126870   2.857   2.369   5.169 -0.4333  0.5887  0.6608
40836SOL    HW226871   3.001   2.382   5.212 -0.0925  0.2975 -0.3656
40837SOL     OW26872   8.050   0.012   9.553  0.2040  0.0627 -0.3502
40837SOL    HW126873   8.098   0.058   9.621  1.0308 -1.6613  0.2714
40837SOL    HW226874   8.071  -0.080   9.566 -2.6569 -0.7156 -0.5466
40838SOL     OW26875  10.470  11.014  11.003 -0.2466  0.4526 -0.4109
40838SOL    HW126876  10.552  11.055  10.977 -0.4637  0.6064 -0.8570
40838SOL    HW226877  10.468  11.023  11.099  0.8167 -0.5946 -0.2585
40839SOL     OW26878   3.095   4.763   5.074 -0.1750  0.0729 -0.1131
40839SOL    HW126879   3.044   4.842   5.056 -0.5842  0.4683  2.3883
40839SOL    HW226880   3.060   4.730   5.157  2.4688 -0.6189  0.8303
40840SOL     OW26881   4.582   3.105   3.516  0.1860  0.1440 -0.0408
40840SOL    HW126882   4.495   3.123   3.552 -0.1331 -3.4330  1.4521
40840SOL    HW226883   4.642   3.134   3.584 -0.0601 -0.3647  0.4047
40841SOL     OW26884   8.913   0.167   0.454 -0.4477  0.0133  0.7379
40841SOL    HW126885   8.930   0.140   0.544 -1.4009 -0.0630  0.8951
40841SOL    HW226886   8.818   0.169   0.446 -0.3785 -0.7500 -0.5000
40842SOL     OW26887   1.961   6.313   7.783  0.4327  0.2134  0.0681
40842SOL    HW126888   1.893   6.248   7.801 -0.6914  1.5465  0.9372
40842SOL    HW226889   1.989   6.342   7.870  1.1421  0.6570 -0.3020
40843SOL     OW26890   5.757   1.091   3.947  0.1117  0.4935  0.5319
40843SOL    HW126891   5.776   1.012   3.997 -0.5954  0.2951  0.5105
40843SOL    HW226892   5.696   1.061   3.879  0.1724  0.9746  0.2682
40844SOL     OW26893   4.059   8.097   5.812  0.5840  0.0048  0.3997
40844SOL    HW126894   4.044   8.190   5.828 -0.6787 -0.4353  1.9920
40844SOL    HW226895   4.148   8.081   5.844  1.2159  0.8519 -0.8663
40845SOL     OW26896   6.075   0.547   5.340 -0.2368  0.2142 -0.2890
40845SOL    HW126897   6.022   0.590   5.407 -0.4282  0.5749 -0.6676
40845SOL    HW226898   6.151   0.513   5.388 -0.8190 -0.3383  0.2627
40846SOL     OW26899  10.883   3.785   1.297  0.0590 -0.1020  0.0613
40846SOL    HW126900  10.890   3.872   1.258 -0.7822  0.9333  2.0838
40846SOL    HW226901  10.971   3.768   1.333  0.6739 -0.8168 -1.6960
40847SOL     OW26902   3.318   6.395   1.111  0.5420  0.2727 -0.1356
40847SOL    HW126903   3.413   6.391   1.119  0.4123 -0.8694  1.2429
40847SOL    HW226904   3.302   6.446   1.031  2.3050 -0.1779 -0.8084
40848SOL     OW26905  10.299   8.538   5.830  0.1482 -0.2114  0.4352
40848SOL    HW126906  10.344   8.620   5.811 -1.6756  0.5312 -0.8765
40848SOL    HW226907  10.257   8.552   5.914  1.2034 -0.4353  1.0205
40849SOL     OW26908  10.085   0.412   9.494  0.0132 -0.0491 -0.2620
40849SOL    HW126909  10.134   0.480   9.447  0.2476 -0.7661 -1.0828
40849SOL    HW226910  10.152   0.363   9.540 -0.1213  0.0678  0.0577
40850SOL     OW26911   0.453   8.598   5.734 -0.9276 -0.3063  0.4615
40850SOL    HW126912   0.497   8.524   5.693 -1.3682 -0.2000 -0.2024
40850SOL    HW226913   0.468   8.585   5.828  2.7653  1.0873  0.2390
40851SOL     OW26914   3.067   2.095   5.590  0.2692  0.1064  0.3203
40851SOL    HW126915   3.055   2.170   5.649 -0.6879 -0.2176  0.5615
40851SOL    HW226916   3.122   2.034   5.640  1.9120  1.0433 -0.2651
40852SOL     OW26917   8.809   9.960   3.652 -0.3062  0.1880 -0.2492
40852SOL    HW126918   8.747  10.026   3.683  0.1163 -0.1770  1.4770
40852SOL    HW226919   8.888   9.975   3.703  0.4387 -0.4776 -1.1684
40853SOL     OW26920   4.068   1.992   2.427 -0.4326 -0.3034 -0.0680
40853SOL    HW126921   4.005   1.933   2.385 -1.0037  1.3795 -1.7369
40853SOL    HW226922   4.015   2.047   2.485 -0.4541  0.7579 -1.0638
40854SOL     OW26923   8.237   8.093   8.288 -0.0793 -0.4367  0.1750
40854SOL    HW126924   8.237   8.174   8.238  1.6495  0.6444  1.8119
40854SOL    HW226925   8.145   8.080   8.313 -0.7939 -0.3849 -2.1566
40855SOL     OW26926   7.508   2.603   6.901  0.1803  0.1968 -0.5686
40855SOL    HW126927   7.448   2.640   6.966  0.5982 -0.7956  0.4059
40855SOL    HW226928   7.452   2.555   6.840 -0.0220 -0.7332  0.3400
40856SOL     OW26929  10.732  10.036   0.866 -0.1047  0.7452  0.2851
40856SOL    HW126930  10.701  10.113   0.818 -0.0778  0.3703 -0.3417
40856SOL    HW226931  10.653  10.001   0.907  0.0552  1.7523  1.5436
40857SOL     OW26932   0.559   1.347   9.292  0.1609  0.6252  0.4565
40857SOL    HW126933   0.532   1.422   9.239 -2.0154 -1.0611 -0.9544
40857SOL    HW226934   0.483   1.326   9.346  0.1864 -1.3856 -0.1993
40858SOL     OW26935   1.822   2.278   2.119 -0.2655 -0.3624 -0.3742
40858SOL    HW126936   1.907   2.250   2.088 -0.1962  2.2013 -2.9296
40858SOL    HW226937   1.760   2.245   2.055 -0.9416 -0.2530  0.2044
40859SOL     OW26938   7.707   3.137   1.552 -0.1950 -0.2060  0.0918
40859SOL    HW126939   7.661   3.219   1.571  0.2744 -0.0323  0.4764
40859SOL    HW226940   7.667   3.073   1.610 -0.0308 -0.0808  0.3422
40860SOL     OW26941   4.776   9.069   0.488 -0.1125  0.0949  0.2107
40860SOL    HW126942   4.832   9.077   0.565 -0.9125  2.1018  0.6505
40860SOL    HW226943   4.834   9.088   0.414  0.9979 -3.2112  0.0781
40861SOL     OW26944   4.231   7.107   1.736  0.3743 -0.2350  0.3266
40861SOL    HW126945   4.321   7.113   1.768  1.1984 -2.3416 -1.3226
40861SOL    HW226946   4.224   7.177   1.671  0.6133  0.3045  0.8725
40862SOL     OW26947   9.113   0.641  10.291  0.2058  0.1571  0.2886
40862SOL    HW126948   9.185   0.704  10.289 -1.7337  2.5164  0.5557
40862SOL    HW226949   9.106   0.616  10.384  0.3967  0.2415  0.3263
40863SOL     OW26950   7.210   6.217   4.393  0.1182 -0.1030 -0.0250
40863SOL    HW126951   7.122   6.223   4.430  0.3565  0.2826  0.4936
40863SOL    HW226952   7.229   6.305   4.361  1.5448  0.7492  2.7975
40864SOL     OW26953   0.336   7.158   2.137 -0.7358 -0.4257 -0.3179
40864SOL    HW126954   0.248   7.147   2.101 -1.0128 -0.7444  0.4468
40864SOL    HW226955   0.385   7.082   2.105 -1.3850 -1.5070  1.1677
40865SOL     OW26956   6.456   1.198   4.041 -0.3463 -0.2733 -0.2698
40865SOL    HW126957   6.448   1.251   3.962 -1.8342 -0.0545  0.0114
40865SOL    HW226958   6.549   1.205   4.065 -0.0026  0.1571 -1.6262
40866SOL     OW26959   7.742   9.396   3.973 -0.0220 -0.1788  0.1576
40866SOL    HW126960   7.835   9.421   3.977 -0.0232  0.4643 -2.2340
40866SOL    HW226961   7.695   9.479   3.987 -0.1724 -0.1664 -0.3786
40867SOL     OW26962   4.122   4.765   8.511  0.3098  0.1343 -0.0486
40867SOL    HW126963   4.058   4.694   8.508  0.4810 -0.0282  0.1227
40867SOL    HW226964   4.085   4.833   8.454  0.1847 -0.1237 -0.2765
40868SOL     OW26965   2.167   7.399   5.502  0.2676  0.3579 -0.0890
40868SOL    HW126966   2.096   7.464   5.500 -0.1595 -0.1082 -1.2324
40868SOL    HW226967   2.148   7.345   5.578 -0.8166  0.0196 -0.5823
40869SOL     OW26968   0.229   3.896   2.536 -0.2522 -0.0941  0.0021
40869SOL    HW126969   0.265   3.963   2.594  0.2519  0.6413 -1.1120
40869SOL    HW226970   0.144   3.931   2.509 -0.5374 -0.4869  0.3763
40870SOL     OW26971  10.557   0.807   8.846 -0.5200 -0.7618  0.1918
40870SOL    HW126972  10.602   0.815   8.762 -1.5883 -0.8823 -0.4181
40870SOL    HW226973  10.542   0.714   8.856 -2.2628 -0.6037 -0.5441
40871SOL     OW26974   2.391  10.875  10.392  0.1026 -0.5515  0.2335
40871SOL    HW126975   2.465  10.933  10.381 -0.9867  0.6614 -1.0808
40871SOL    HW226976   2.418  10.813  10.460  1.2890  1.5261  1.7590
40872SOL     OW26977   8.327   7.930   8.688 -0.5108 -0.0277  0.2503
40872SOL    HW126978   8.364   7.845   8.713 -1.0530 -1.1646 -2.4970
40872SOL    HW226979   8.232   7.914   8.685 -0.6000  0.6139 -0.4969
40873SOL     OW26980   2.728   5.800   4.815  0.7091 -0.0159  0.2211
40873SOL    HW126981   2.724   5.893   4.835  0.4402 -0.1042  0.5671
40873SOL    HW226982   2.700   5.795   4.723 -0.2848  0.1290  0.5132
40874SOL     OW26983   5.079   3.012   7.208  0.4094  0.1845 -0.0885
40874SOL    HW126984   4.985   3.024   7.197  0.0118 -2.6105 -0.4929
40874SOL    HW226985   5.095   3.029   7.300 -0.3301  1.4116 -0.1639
40875SOL     OW26986   9.461   8.864   5.169  0.5122 -0.2224 -0.0600
40875SOL    HW126987   9.371   8.835   5.188  0.0889  0.0377 -1.5595
40875SOL    HW226988   9.494   8.800   5.106  1.0351  0.2460 -0.2636
40876SOL     OW26989   5.741   2.449   7.245  0.7399  0.2900 -0.5508
40876SOL    HW126990   5.769   2.535   7.214  1.2811  0.4642  0.4010
40876SOL    HW226991   5.818   2.393   7.236  0.5234  0.0128 -0.7310
40877SOL     OW26992  10.736   1.458   6.143 -0.4175 -0.3441  0.3831
40877SOL    HW126993  10.702   1.504   6.066 -1.0594  0.0801  0.9111
40877SOL    HW226994  10.820   1.501   6.162  0.9814 -2.0245 -1.5036
40878SOL     OW26995   2.647   7.893   3.778 -0.0344  0.6845  0.1649
40878SOL    HW126996   2.654   7.891   3.683 -0.9847  1.4808  0.0514
40878SOL    HW226997   2.666   7.984   3.802 -1.4211  0.9001  0.5567
40879SOL     OW26998   1.519   2.395   1.048  0.4216 -0.3429 -0.4921
40879SOL    HW126999   1.509   2.313   1.095  1.2464 -0.5362 -0.6477
40879SOL    HW227000   1.480   2.461   1.105  1.2474 -0.6005  0.3880
40880SOL     OW27001   2.274   1.957   6.709  0.2260  0.6043 -0.5372
40880SOL    HW127002   2.201   1.977   6.767 -0.6450  2.2293 -2.0780
40880SOL    HW227003   2.349   2.004   6.747 -0.1656  1.0539 -0.3102
40881SOL     OW27004   1.344   5.627   2.276  0.3879 -0.2092  0.2990
40881SOL    HW127005   1.374   5.698   2.332 -3.3753  0.7201  1.4487
40881SOL    HW227006   1.297   5.569   2.335  2.5331 -3.3047 -0.7766
40882SOL     OW27007   8.606   9.934   5.111  0.5907  0.4328  0.0101
40882SOL    HW127008   8.513   9.914   5.115  0.7991 -0.6880 -0.3820
40882SOL    HW227009   8.644   9.862   5.061  1.6477  0.9556  0.0303
40883SOL     OW27010   3.866   9.112   8.442  0.7997 -0.2938  0.0443
40883SOL    HW127011   3.938   9.054   8.468  0.7361  0.2409  1.4803
40883SOL    HW227012   3.871   9.185   8.503 -0.2094  0.3565 -0.6327
40884SOL     OW27013   2.490  10.448   6.125  0.0181 -0.4570 -0.1260
40884SOL    HW127014   2.478  10.457   6.031  0.7606 -0.6590 -0.2448
40884SOL    HW227015   2.563  10.386   6.135 -0.1235 -0.5241  0.5800
40885SOL     OW27016   2.373   9.277   9.978  0.1844 -0.1302  0.5201
40885SOL    HW127017   2.427   9.274  10.057  0.1958 -1.5665  0.4850
40885SOL    HW227018   2.417   9.219   9.916 -0.9741 -0.7243  0.2177
40886SOL     OW27019   2.326   8.635   9.021  0.1174 -0.1574 -0.1107
40886SOL    HW127020   2.414   8.620   8.989  0.6347 -1.7416  1.8389
40886SOL    HW227021   2.313   8.730   9.013  1.8778  0.0710 -0.6679
40887SOL     OW27022  10.538   5.689   4.404 -0.6106 -0.4202 -0.1219
40887SOL    HW127023  10.471   5.627   4.433 -1.9539  1.6638  1.5124
40887SOL    HW227024  10.502   5.775   4.426  1.9372  0.8725 -0.6597
40888SOL     OW27025   8.343   9.611   3.886 -0.4570  0.3012  0.4653
40888SOL    HW127026   8.259   9.645   3.855 -0.1603  0.2725 -0.3716
40888SOL    HW227027   8.321   9.527   3.927 -0.6725 -0.3468 -0.9304
40889SOL     OW27028   3.629   8.992   1.614  0.0749  0.2407 -0.3906
40889SOL    HW127029   3.608   8.902   1.639  1.0555  0.5953  1.9877
40889SOL    HW227030   3.549   9.041   1.629  0.5127  0.3567  1.8596
40890SOL     OW27031   4.486   4.194   4.312  0.3656  0.1377  0.5975
40890SOL    HW127032   4.562   4.143   4.285  0.0165 -0.4780  0.7478
40890SOL    HW227033   4.411   4.139   4.289  0.0467 -0.6512  3.2008
40891SOL     OW27034   7.351   6.950   0.946 -0.6562 -0.3251  0.3880
40891SOL    HW127035   7.404   6.954   1.026  0.3624  1.9110 -0.3267
40891SOL    HW227036   7.263   6.973   0.974 -0.3879  0.0641  0.9325
40892SOL     OW27037   2.855   6.900   7.088 -0.2829 -0.4316  0.6239
40892SOL    HW127038   2.775   6.848   7.095 -0.8682  0.2659 -0.5066
40892SOL    HW227039   2.894   6.871   7.005  2.2407 -2.8829  2.4690
40893SOL     OW27040   6.412   9.275   3.850  0.9914  0.2281  0.4699
40893SOL    HW127041   6.387   9.346   3.791  1.4179  0.1562  0.1947
40893SOL    HW227042   6.376   9.300   3.935 -1.1406 -0.5119 -0.1624
40894SOL     OW27043   2.860   3.209  10.213  0.7285 -0.3983  0.0009
40894SOL    HW127044   2.855   3.114  10.218  2.4381 -0.5249 -0.1283
40894SOL    HW227045   2.888   3.228  10.124 -0.1755  0.2685 -0.1554
40895SOL     OW27046   3.742   0.167   1.568 -0.5406  0.0758 -0.2932
40895SOL    HW127047   3.826   0.209   1.589  1.6004 -4.3552  1.3420
40895SOL    HW227048   3.752   0.138   1.477  0.1512 -1.1314  0.1376
40896SOL     OW27049   9.772   9.403   8.251  0.4695  0.5532  0.1091
40896SOL    HW127050   9.683   9.389   8.285  0.8269 -0.1236  0.7671
40896SOL    HW227051   9.763   9.388   8.157 -0.2092  0.9500  0.1005
40897SOL     OW27052   7.479  10.801   9.452 -0.1316  0.3052 -0.7011
40897SOL    HW127053   7.551  10.797   9.515 -0.7306 -1.3920 -0.0893
40897SOL    HW227054   7.495  10.728   9.392 -1.1518  0.1364 -0.7792
40898SOL     OW27055   1.673   2.808   6.122 -1.0139 -0.3115 -0.1182
40898SOL    HW127056   1.742   2.745   6.144 -2.4678 -1.6100  0.9341
40898SOL    HW227057   1.681   2.875   6.189  0.2821  0.4759 -1.0069
40899SOL     OW27058   9.689   0.009   8.799  0.5390 -0.3734 -0.0182
40899SOL    HW127059   9.600   0.041   8.782  0.2616 -0.0985  1.8141
40899SOL    HW227060   9.712   0.044   8.885  1.2007 -3.0001  0.9731
40900SOL     OW27061   6.542   9.102   7.796 -0.0047  0.2400 -0.6979
40900SOL    HW127062   6.495   9.077   7.717 -0.0936 -1.3270 -0.1786
40900SOL    HW227063   6.502   9.186   7.822  0.8863  1.4343 -2.9568
40901SOL     OW27064   9.187   3.441   8.388  0.5251  0.1773 -0.0998
40901SOL    HW127065   9.232   3.473   8.467 -0.8892  1.5936  0.1795
40901SOL    HW227066   9.219   3.352   8.377  1.1373  0.1192  1.7908
40902SOL     OW27067   8.176   3.218   3.645  0.1668 -0.2822  0.6935
40902SOL    HW127068   8.109   3.163   3.685  0.0449  1.1965  2.6735
40902SOL    HW227069   8.223   3.160   3.586 -1.1775 -1.9992  1.2381
40903SOL     OW27070   4.834   5.748   8.092 -0.2384  0.0569 -0.4472
40903SOL    HW127071   4.904   5.769   8.031  0.5629  1.5986  0.9292
40903SOL    HW227072   4.754   5.776   8.047  0.2699  0.5948 -1.0399
40904SOL     OW27073   3.286   6.304   6.189 -0.1476  0.4750  0.1284
40904SOL    HW127074   3.252   6.216   6.173 -2.1007  1.1917  0.0814
40904SOL    HW227075   3.261   6.324   6.279  1.3906  0.5422  0.5768
40905SOL     OW27076   0.188   6.641   2.773 -0.1229  0.0202  0.6797
40905SOL    HW127077   0.118   6.706   2.771  1.4429  1.7706 -0.7073
40905SOL    HW227078   0.153   6.567   2.725 -1.8969 -0.1865  2.1591
40906SOL     OW27079  10.412   7.039   9.481  0.5221  0.3377 -0.2322
40906SOL    HW127080  10.332   7.084   9.453  1.1823  0.7743 -1.5075
40906SOL    HW227081  10.388   6.947   9.487 -0.4021  0.6163  0.6987
40907SOL     OW27082   6.168  10.060   0.832 -0.8589  0.3091  0.4056
40907SOL    HW127083   6.241  10.082   0.889 -0.8449  1.8684 -0.1775
40907SOL    HW227084   6.111  10.005   0.886  0.2626 -0.1483  1.1646
40908SOL     OW27085   7.267  11.003   0.827 -0.4334  0.3819 -1.0949
40908SOL    HW127086   7.227  10.949   0.895  0.4405  0.9099 -0.1420
40908SOL    HW227087   7.284  11.087   0.870  2.7715 -0.1707 -1.0876
40909SOL     OW27088   9.248   9.438   8.605 -0.1961 -0.1043  0.1190
40909SOL    HW127089   9.174   9.445   8.665 -0.4451 -1.6986  0.0370
40909SOL    HW227090   9.268   9.529   8.581 -1.2182  0.4433  1.2190
40910SOL     OW27091   6.779   4.417   2.413 -0.0985 -0.4185 -0.2599
40910SOL    HW127092   6.747   4.458   2.332  0.4123  0.9946  0.2230
40910SOL    HW227093   6.870   4.394   2.394 -0.7123 -2.5112 -0.9302
40911SOL     OW27094   9.845   3.174   5.242 -0.0186 -0.1116  0.0413
40911SOL    HW127095   9.848   3.093   5.192  0.1779 -0.2588  0.2869
40911SOL    HW227096   9.927   3.219   5.219  0.5189 -0.6041  0.9235
40912SOL     OW27097   7.001   6.028   9.431  0.2561  0.2174  0.0838
40912SOL    HW127098   7.041   6.007   9.516 -1.6190 -0.7179  0.7979
40912SOL    HW227099   7.037   5.962   9.371  0.7482  0.1925  0.3940
40913SOL     OW27100   8.952   0.765  10.118  0.0406 -0.1438 -0.6975
40913SOL    HW127101   8.919   0.835  10.173 -0.2656  0.6403 -1.8453
40913SOL    HW227102   9.008   0.712  10.176  0.1411  0.9434  0.2171
40914SOL     OW27103   5.119   5.456   1.974 -0.3814  0.1343 -0.4658
40914SOL    HW127104   5.193   5.422   2.025 -0.1593  2.7157  1.1186
40914SOL    HW227105   5.110   5.395   1.901  1.5744 -1.7567  0.7496
40915SOL     OW27106  10.437   7.896   2.732  0.0028  0.4386  0.2203
40915SOL    HW127107  10.344   7.873   2.733  0.1020  0.0186 -0.0610
40915SOL    HW227108  10.438   7.989   2.707 -0.2945  0.1487 -0.9118
40916SOL     OW27109   8.301   3.658   3.861  0.0872 -0.0371 -0.3955
40916SOL    HW127110   8.339   3.742   3.887 -1.0383  0.5748 -0.6676
40916SOL    HW227111   8.332   3.596   3.927 -1.7014  1.2359  1.7513
40917SOL     OW27112   9.805   2.299   8.278 -0.0574  0.1258  0.2769
40917SOL    HW127113   9.782   2.304   8.371 -1.6782 -0.3476 -0.0722
40917SOL    HW227114   9.754   2.225   8.244  0.0464  0.6584 -1.1169
40918SOL     OW27115   1.521   7.036   9.538  0.1756 -0.8425  0.5281
40918SOL    HW127116   1.518   7.048   9.633 -1.5603  0.0463  0.3877
40918SOL    HW227117   1.436   7.000   9.515  1.2826 -3.0074 -0.4872
40919SOL     OW27118   0.954   2.245   5.922  0.0145 -0.1216  0.0607
40919SOL    HW127119   1.026   2.253   5.859 -0.5290  3.0590 -0.3302
40919SOL    HW227120   0.943   2.150   5.933  1.9181 -0.7837 -2.5377
40920SOL     OW27121   0.984   5.436   6.750 -0.6874  0.8838  0.0009
40920SOL    HW127122   0.899   5.395   6.740  0.4292 -1.4449 -0.5323
40920SOL    HW227123   1.022   5.395   6.828  0.3557  1.0781 -0.3778
40921SOL     OW27124  10.028   3.448   5.426 -0.1157 -0.0997  0.3126
40921SOL    HW127125  10.100   3.435   5.489 -0.8073 -0.4652  1.0372
40921SOL    HW227126   9.955   3.477   5.480 -0.6525 -0.1823 -0.3695
40922SOL     OW27127   8.090   2.824   5.097  0.5496 -0.2972 -0.8231
40922SOL    HW127128   8.013   2.767   5.099 -1.4858  2.2897 -0.8698
40922SOL    HW227129   8.121   2.818   5.006 -0.6325 -0.0962 -1.2541
40923SOL     OW27130   4.483   1.313   6.356  0.5550 -0.0986  0.0429
40923SOL    HW127131   4.399   1.278   6.328 -0.0911  0.1796  1.5371
40923SOL    HW227132   4.519   1.244   6.413  0.4612  0.5522  0.9091
40924SOL     OW27133   0.613   6.052   4.922 -0.7565 -0.0290 -0.6450
40924SOL    HW127134   0.539   6.104   4.890 -1.6482 -0.5724  0.4684
40924SOL    HW227135   0.574   5.970   4.951  0.3798 -0.5652 -0.6013
40925SOL     OW27136   7.490   4.692   7.391  0.5084  0.1608 -0.0111
40925SOL    HW127137   7.519   4.649   7.472  0.5905  1.0102  0.4147
40925SOL    HW227138   7.432   4.762   7.420  0.0238  0.0667 -0.7324
40926SOL     OW27139   8.831   0.461   3.177 -0.6089  0.4022  0.1249
40926SOL    HW127140   8.834   0.513   3.257  1.5055 -0.8753  0.9293
40926SOL    HW227141   8.757   0.498   3.128  0.2880  3.6693  0.9611
40927SOL     OW27142   7.033   3.945   4.373  0.0882 -0.6211  0.1247
40927SOL    HW127143   6.951   3.949   4.326  0.9816 -1.3823 -1.5789
40927SOL    HW227144   7.026   3.866   4.427  0.3429 -1.6781 -1.3390
40928SOL     OW27145   3.011   3.227   8.078 -0.1601 -0.1326  0.2887
40928SOL    HW127146   3.102   3.195   8.082  0.3510  0.4666 -3.1452
40928SOL    HW227147   2.963   3.157   8.035 -1.3154 -0.3357  1.8542
40929SOL     OW27148   1.374   2.507   3.417 -0.3925 -0.0129 -0.3602
40929SOL    HW127149   1.333   2.473   3.497 -2.1594  0.5659 -0.9702
40929SOL    HW227150   1.377   2.431   3.359  0.3567 -0.2989  0.0439
40930SOL     OW27151   1.414  10.430   7.270 -0.1611 -0.4604 -0.0052
40930SOL    HW127152   1.435  10.503   7.212  2.2669 -0.1046  1.1797
40930SOL    HW227153   1.378  10.362   7.212 -0.1323  0.7656 -1.5076
40931SOL     OW27154   3.343   6.100   4.548  0.7019  0.2257  1.2540
40931SOL    HW127155   3.425   6.056   4.524  0.0795 -1.4846  2.1065
40931SOL    HW227156   3.278   6.067   4.486  0.0578 -0.7104  2.3968
40932SOL     OW27157   0.743   8.834   2.681  0.0947  0.5034 -0.2791
40932SOL    HW127158   0.763   8.868   2.593  0.2452 -0.9028 -0.8076
40932SOL    HW227159   0.822   8.789   2.709 -0.2788  0.1131  0.1700
40933SOL     OW27160  10.732   6.810   2.056  0.1140 -0.2961 -0.0332
40933SOL    HW127161  10.761   6.802   2.147  1.0334 -0.7533 -0.3554
40933SOL    HW227162  10.690   6.896   2.053 -0.3305 -0.4619  0.9275
40934SOL     OW27163   9.670   0.230   6.132 -0.0023  0.0823  0.6120
40934SOL    HW127164   9.635   0.286   6.063 -1.1370 -1.5461 -0.2093
40934SOL    HW227165   9.593   0.204   6.183 -0.1921 -3.4568 -1.1338
40935SOL     OW27166   3.143  10.222  10.876 -1.0828 -0.0504 -0.1446
40935SOL    HW127167   3.139  10.136  10.834 -2.8466 -0.2368  0.3488
40935SOL    HW227168   3.150  10.284  10.803 -0.8026 -0.5445 -0.5440
40936SOL     OW27169   5.065   4.834  10.986  0.0287 -0.2706 -0.6039
40936SOL    HW127170   5.007   4.779  10.933  1.6094 -2.0409 -0.6099
40936SOL    HW227171   5.138   4.776  11.009  1.9754  1.9178 -0.8840
40937SOL     OW27172   9.332   0.221   9.434 -0.1046 -0.3145  0.3660
40937SOL    HW127173   9.289   0.302   9.460  1.5656  1.1506 -1.1114
40937SOL    HW227174   9.281   0.190   9.359  0.2510  0.3270 -0.1459
40938SOL     OW27175   1.734   6.310   7.137 -0.5022 -0.0388 -0.1414
40938SOL    HW127176   1.774   6.374   7.196 -0.9901 -0.2094  0.3880
40938SOL    HW227177   1.808   6.263   7.098 -0.1576  0.4844 -0.1266
40939SOL     OW27178   5.749   9.343   4.524  0.0339  0.3889 -0.5635
40939SOL    HW127179   5.744   9.438   4.513  0.8985  0.3424 -1.4532
40939SOL    HW227180   5.666   9.311   4.488 -0.3507  0.8111 -0.0717
40940SOL     OW27181   6.628   5.744   8.498  0.3651  0.6592 -0.9164
40940SOL    HW127182   6.663   5.732   8.410 -0.2227  1.5244 -1.2861
40940SOL    HW227183   6.633   5.839   8.513 -0.2407  0.6078 -0.3235
40941SOL     OW27184   5.841   9.515  10.309  0.2889 -0.3334  0.0958
40941SOL    HW127185   5.861   9.550  10.396 -0.9702 -1.3093  0.8049
40941SOL    HW227186   5.882   9.577  10.249  1.1075  0.4158  1.3681
40942SOL     OW27187   4.102   5.667   2.933  0.3948 -0.2623  0.4128
40942SOL    HW127188   4.092   5.662   3.029 -1.7310  1.1957  0.3347
40942SOL    HW227189   4.169   5.734   2.919  1.1143 -0.8687  0.8596
40943SOL     OW27190   5.858   9.272   8.835  0.3114  0.1428 -0.4902
40943SOL    HW127191   5.791   9.223   8.788 -0.5382  0.6561  0.1610
40943SOL    HW227192   5.873   9.350   8.782 -0.2428  0.4508 -0.1999
40944SOL     OW27193   4.036   5.100   7.599 -0.0377  0.4287 -0.0616
40944SOL    HW127194   3.976   5.138   7.535 -0.4940 -1.5975 -0.9200
40944SOL    HW227195   3.989   5.101   7.682 -1.5461 -1.5924 -0.8158
40945SOL     OW27196   0.647   9.553   7.047  0.6123  0.6698 -0.1518
40945SOL    HW127197   0.559   9.574   7.015  2.2426  1.1137 -5.1877
40945SOL    HW227198   0.651   9.457   7.042  0.2315  0.5898  0.8489
40946SOL     OW27199   8.498   4.398   2.887  0.0103 -0.4124 -0.3676
40946SOL    HW127200   8.511   4.319   2.940  0.5114 -0.1752 -0.1283
40946SOL    HW227201   8.559   4.388   2.814 -0.3235 -0.5036 -0.6371
40947SOL     OW27202   6.977  10.368   7.476 -0.3167  0.0321  0.7697
40947SOL    HW127203   6.901  10.427   7.473  1.2153  2.3201  2.6987
40947SOL    HW227204   7.051  10.423   7.449  1.1672 -1.0220  2.4395
40948SOL     OW27205   3.352   1.302  11.086 -0.1489  0.0730  1.0117
40948SOL    HW127206   3.260   1.299  11.059 -0.1457  1.6230  0.7228
40948SOL    HW227207   3.382   1.388  11.057  1.6927 -0.8044  0.1856
40949SOL     OW27208  10.266   4.915   9.620 -0.0466 -0.3720  0.0748
40949SOL    HW127209  10.203   4.859   9.576 -0.7454 -0.4092  1.1033
40949SOL    HW227210  10.286   4.984   9.556  0.8353 -1.7615 -1.2012
40950SOL     OW27211   8.613   1.185   6.085  0.5293 -0.1657 -0.1113
40950SOL    HW127212   8.697   1.223   6.112  1.2343 -1.3062 -0.6407
40950SOL    HW227213   8.606   1.206   5.992  0.7193 -0.9239 -0.3047
40951SOL     OW27214   7.140  10.311   1.399 -0.9826  0.4025  0.0739
40951SOL    HW127215   7.104  10.398   1.385 -1.5799  0.1258 -0.1385
40951SOL    HW227216   7.225  10.313   1.354 -0.6590  1.0944  0.6885
40952SOL     OW27217   3.734  10.340   5.161 -0.2427  0.0605 -0.1314
40952SOL    HW127218   3.751  10.310   5.250 -0.2348 -0.3432 -0.2638
40952SOL    HW227219   3.664  10.283   5.130 -0.3624  0.3121 -0.3231
40953SOL     OW27220   2.545   7.368   0.554  0.0786 -0.3302  0.5343
40953SOL    HW127221   2.630   7.373   0.511 -1.8368  2.1864 -3.5974
40953SOL    HW227222   2.519   7.276   0.546  2.1932 -1.0921  1.6962
40954SOL     OW27223   5.731   5.308   9.324 -1.2916  0.1361 -0.0757
40954SOL    HW127224   5.636   5.295   9.322 -1.1732 -1.1433  1.2162
40954SOL    HW227225   5.766   5.228   9.364  0.4451  0.0730 -1.5861
40955SOL     OW27226   3.709   1.261   3.740  0.4432 -0.1411  0.6490
40955SOL    HW127227   3.695   1.294   3.829 -0.6066  0.9125  0.1254
40955SOL    HW227228   3.717   1.340   3.687  1.5970 -0.7605 -0.1336
40956SOL     OW27229   5.250   7.874   0.098 -0.4025  0.6119 -0.1731
40956SOL    HW127230   5.176   7.932   0.118 -1.7560 -0.8833 -0.6668
40956SOL    HW227231   5.234   7.846   0.008  1.0602  0.6497 -0.4713
40957SOL     OW27232   7.829   2.195  10.859 -0.1964  0.1301  0.4882
40957SOL    HW127233   7.831   2.125  10.794 -0.4228  1.7406 -1.3601
40957SOL    HW227234   7.756   2.173  10.916 -1.6834 -0.0600 -1.3801
40958SOL     OW27235   6.131   5.697   1.679 -0.5392  0.4386  0.5782
40958SOL    HW127236   6.058   5.759   1.680 -2.6113 -1.6753 -2.3667
40958SOL    HW227237   6.095   5.617   1.717 -0.0231 -0.8308 -1.4408
40959SOL     OW27238   5.641   8.954   0.251  0.0749 -0.3711 -0.0477
40959SOL    HW127239   5.566   9.004   0.218  0.0934 -0.2425  0.1066
40959SOL    HW227240   5.631   8.956   0.346  1.1588  1.0113  0.0661
40960SOL     OW27241   1.663   4.106   4.871 -0.0943  0.2600  0.4734
40960SOL    HW127242   1.653   4.012   4.857  0.5030  0.2919 -0.2585
40960SOL    HW227243   1.749   4.115   4.911 -0.0458  0.5179  0.3098
40961SOL     OW27244   1.757  11.081   6.694 -0.8402  0.1146 -0.2248
40961SOL    HW127245   1.781  10.991   6.713 -0.6247 -0.1001 -1.4376
40961SOL    HW227246   1.669  11.075   6.656 -0.9704  0.4564  0.0123
40962SOL     OW27247   3.018   2.383   4.697 -0.3563 -0.0734  0.4042
40962SOL    HW127248   2.971   2.467   4.694  0.3551  0.3175 -1.9138
40962SOL    HW227249   3.025   2.357   4.605  0.7893 -1.9209  0.9772
40963SOL     OW27250   5.815   3.440   3.527  0.6115  1.2692 -0.4349
40963SOL    HW127251   5.844   3.526   3.497 -1.4710  2.1913 -0.0165
40963SOL    HW227252   5.771   3.458   3.610  1.1111 -0.3910  0.2330
40964SOL     OW27253   7.704   3.497   3.869  0.3506  0.3293  0.0511
40964SOL    HW127254   7.671   3.537   3.950  0.2782 -0.0689  0.2255
40964SOL    HW227255   7.662   3.411   3.867  1.6629 -0.3496  0.4732
40965SOL     OW27256   0.972   3.591   5.887 -0.1965  0.4246 -0.0988
40965SOL    HW127257   0.959   3.524   5.953  1.5108  0.4610  0.3079
40965SOL    HW227258   0.975   3.673   5.936  3.1225  0.2945  0.1602
40966SOL     OW27259   6.768   5.854   6.273 -0.1959 -0.4851  0.2275
40966SOL    HW127260   6.788   5.879   6.364  1.4486 -0.8906  0.0194
40966SOL    HW227261   6.712   5.924   6.240 -0.0379  0.1555  1.2738
40967SOL     OW27262   6.253   8.054   7.780 -0.0126  0.0007  0.4322
40967SOL    HW127263   6.234   7.987   7.715 -1.4970  0.7036  0.0993
40967SOL    HW227264   6.175   8.057   7.835 -0.3589  2.0306 -0.0875
40968SOL     OW27265   6.851   8.887   3.225 -0.4644  0.1967  0.2266
40968SOL    HW127266   6.898   8.843   3.154 -0.4134  0.5221  0.0584
40968SOL    HW227267   6.826   8.816   3.284  1.6591  0.1373  1.1817
40969SOL     OW27268   0.797   3.391   4.856  0.1236 -0.2962  0.0873
40969SOL    HW127269   0.779   3.474   4.901 -1.2322 -0.8134  0.5167
40969SOL    HW227270   0.817   3.329   4.926  1.1591 -0.3574 -0.2366
40970SOL     OW27271   4.964   3.868   4.230 -0.0319  0.0454 -0.4093
40970SOL    HW127272   4.914   3.801   4.183 -1.8857  1.5180 -0.6749
40970SOL    HW227273   4.962   3.840   4.322  0.7282 -1.1253 -0.7272
40971SOL     OW27274   0.826   4.889   0.982  0.2696  0.6028  0.0505
40971SOL    HW127275   0.756   4.951   1.003 -2.2421 -2.5288  1.7561
40971SOL    HW227276   0.864   4.866   1.066 -0.1033 -1.4098 -0.2704
40972SOL     OW27277   1.730   9.275   4.985  0.1254 -0.3555 -0.3663
40972SOL    HW127278   1.821   9.266   5.012 -0.1626 -0.8342  0.4625
40972SOL    HW227279   1.692   9.188   4.999 -0.6344  0.0201 -0.0502
40973SOL     OW27280   6.028   2.817   8.378 -0.1434 -0.1844  0.6841
40973SOL    HW127281   5.946   2.779   8.412 -1.2730  1.4083 -0.1397
40973SOL    HW227282   6.006   2.908   8.358  1.8893  0.3215  0.5542
40974SOL     OW27283   5.725   0.253   7.057 -0.1540 -0.5270 -0.3084
40974SOL    HW127284   5.661   0.182   7.057 -1.9879  1.0461 -0.9400
40974SOL    HW227285   5.685   0.322   7.110  0.5874  0.8448 -1.4481
40975SOL     OW27286   0.123   2.187   8.970 -0.4391  0.3224 -0.0778
40975SOL    HW127287   0.094   2.217   9.057 -0.3306 -1.2379  0.5298
40975SOL    HW227288   0.058   2.122   8.945  0.9798 -1.1979  0.0558
40976SOL     OW27289   0.203   7.835   8.669 -0.3947  0.0414  0.9496
40976SOL    HW127290   0.268   7.775   8.706 -1.3047 -1.1251  0.6800
40976SOL    HW227291   0.119   7.793   8.684 -1.2129  1.9718  2.1408
40977SOL     OW27292   6.528   5.434  10.756  0.1569 -0.1271  0.0123
40977SOL    HW127293   6.449   5.456  10.707 -0.1018 -0.3324  0.3358
40977SOL    HW227294   6.561   5.354  10.713 -0.9854 -1.2770  1.1857
40978SOL     OW27295   9.501   7.105   6.412  0.0473 -0.1603 -0.0040
40978SOL    HW127296   9.564   7.177   6.410 -0.5615  0.4626  1.7672
40978SOL    HW227297   9.463   7.106   6.324  1.6812  0.1736 -0.7425
40979SOL     OW27298  10.258   8.605   9.649  0.1145 -0.2384 -0.2463
40979SOL    HW127299  10.266   8.517   9.611  0.4297  0.2890 -1.4673
40979SOL    HW227300  10.348   8.637   9.654 -0.1153  0.7055 -1.5793
40980SOL     OW27301   8.490   9.216   2.877 -0.2837 -0.9094  0.3091
40980SOL    HW127302   8.552   9.275   2.921 -2.4602  1.0212  0.9419
40980SOL    HW227303   8.527   9.203   2.790  1.8444 -1.2100  1.1906
40981SOL     OW27304   3.055   9.369   6.800  0.2474 -0.2893  0.6253
40981SOL    HW127305   3.001   9.439   6.837  0.3168  0.6950 -1.0455
40981SOL    HW227306   3.121   9.351   6.868  0.0557  1.0749  1.2083
40982SOL     OW27307   8.704   7.102   4.713  0.2281 -0.0930  0.4228
40982SOL    HW127308   8.700   7.196   4.695  0.6452  0.0565  1.0702
40982SOL    HW227309   8.713   7.061   4.627 -2.6879  0.2499 -0.1358
40983SOL     OW27310   4.758   6.973   1.765  0.0740 -0.0987  0.2164
40983SOL    HW127311   4.747   7.029   1.841  2.0983 -0.1644  0.6209
40983SOL    HW227312   4.803   6.896   1.798  0.8743 -0.1894 -1.0060
40984SOL     OW27313   0.016   1.012   3.971 -0.0532 -0.8679 -0.2399
40984SOL    HW127314   0.075   1.077   4.007  1.8848 -1.5964 -1.8559
40984SOL    HW227315  -0.049   1.062   3.922  0.4748 -0.0931 -0.1588
40985SOL     OW27316   9.725   0.983   8.776  0.0338  0.7117 -0.1224
40985SOL    HW127317   9.630   0.982   8.787 -0.2972  0.7414 -2.5126
40985SOL    HW227318   9.758   1.014   8.860 -1.9781 -0.3633  1.1702
40986SOL     OW27319   4.947  10.655   4.188  0.3412 -0.2781 -0.0807
40986SOL    HW127320   5.010  10.598   4.232  2.1569  0.7907 -1.1660
40986SOL    HW227321   4.880  10.672   4.255  0.7326 -2.1358  0.8409
40987SOL     OW27322   0.556   9.122   0.767 -0.2967 -0.3045 -0.9338
40987SOL    HW127323   0.594   9.075   0.841 -0.6538 -0.1769 -0.6643
40987SOL    HW227324   0.484   9.066   0.738 -0.8701  0.1719 -0.4644
40988SOL     OW27325   6.577   3.523   0.980  0.6071  0.2386  0.3935
40988SOL    HW127326   6.564   3.429   0.969 -1.5803  0.3235  1.5908
40988SOL    HW227327   6.492   3.561   0.956  1.1986  1.8330  0.7195
40989SOL     OW27328   5.853   6.826   4.067 -0.0045 -0.0284 -0.3282
40989SOL    HW127329   5.935   6.871   4.085 -0.3206  0.9872 -1.2824
40989SOL    HW227330   5.788   6.874   4.118  0.3707 -2.9254  3.2716
40990SOL     OW27331  10.071   8.800   5.215  0.7419  0.4806 -0.0739
40990SOL    HW127332  10.026   8.880   5.189 -0.1091 -0.4178 -1.4097
40990SOL    HW227333  10.154   8.803   5.167  1.4228  1.3119  1.1023
40991SOL     OW27334   3.873   0.673   7.239 -0.3268 -0.0667  0.1381
40991SOL    HW127335   3.939   0.733   7.274 -0.4919  0.0317  0.2817
40991SOL    HW227336   3.898   0.587   7.274 -0.7943  0.1099  0.9504
40992SOL     OW27337   3.485   3.867   9.256 -0.5070  0.3034 -1.0119
40992SOL    HW127338   3.515   3.943   9.208 -0.7812  0.6192 -0.6902
40992SOL    HW227339   3.496   3.890   9.348 -0.2057 -0.2031 -0.9187
40993SOL     OW27340   0.865   7.820  10.045 -0.0578 -0.0453 -0.1833
40993SOL    HW127341   0.815   7.870   9.981  0.3544 -1.5572 -1.7677
40993SOL    HW227342   0.847   7.863  10.129 -2.4348  0.6448 -0.9602
40994SOL     OW27343   4.421   3.944   8.419 -0.7384 -0.1327  0.0243
40994SOL    HW127344   4.504   3.917   8.458 -1.0676 -1.2120  0.0311
40994SOL    HW227345   4.409   3.884   8.345 -0.5627  1.2976 -1.2097
40995SOL     OW27346   5.876   8.288   0.252  0.1700 -0.1546 -0.1576
40995SOL    HW127347   5.789   8.292   0.213  0.7594  1.6467 -1.4547
40995SOL    HW227348   5.871   8.346   0.328  0.5652  1.0445 -1.0225
40996SOL     OW27349  11.024   9.485   1.026 -0.4126 -0.6696  0.1999
40996SOL    HW127350  11.019   9.571   0.984  0.3011 -0.2751  0.8944
40996SOL    HW227351  11.006   9.423   0.956 -2.8911  0.0988  0.0629
40997SOL     OW27352   1.488   4.385   6.694 -0.1409 -0.2837  0.1497
40997SOL    HW127353   1.565   4.353   6.741 -1.3141  0.4881  2.7758
40997SOL    HW227354   1.470   4.471   6.732 -1.3121  0.3115 -1.6195
40998SOL     OW27355   1.061   0.377   5.161 -0.5831  0.8389  0.0649
40998SOL    HW127356   0.989   0.314   5.165  0.1972 -0.1182 -0.8409
40998SOL    HW227357   1.050   0.429   5.241 -2.1525  0.5832  0.0571
40999SOL     OW27358   1.582   7.184   5.444  0.4319 -0.0187  0.5836
40999SOL    HW127359   1.668   7.170   5.405 -0.4690 -0.4570 -1.3574
40999SOL    HW227360   1.534   7.104   5.424 -0.8575  0.7787  0.4311
41000SOL     OW27361   0.368  10.386   5.050  0.4616  0.9739 -0.0895
41000SOL    HW127362   0.310  10.323   5.007 -0.8335  2.1373 -0.1380
41000SOL    HW227363   0.443  10.394   4.991  0.4562 -0.2044 -0.2763
41001SOL     OW27364   6.355   8.950   3.648  0.2406 -0.2557 -0.1490
41001SOL    HW127365   6.445   8.965   3.618 -0.0909 -0.2185 -1.1503
41001SOL    HW227366   6.310   9.033   3.632  0.0311 -0.2535  0.4120
41002SOL     OW27367   8.771   6.048   0.043 -0.4393 -0.1808  0.1506
41002SOL    HW127368   8.806   5.963   0.069 -0.9276 -0.4008  0.1007
41002SOL    HW227369   8.838   6.085  -0.014 -0.6212 -0.9272 -0.5565
41003SOL     OW27370  10.431   2.894   8.984  0.0489 -0.0063 -0.5103
41003SOL    HW127371  10.485   2.855   9.052 -0.0203 -1.6860 -1.3617
41003SOL    HW227372  10.356   2.834   8.976  0.6954 -0.6028 -2.9275
41004SOL     OW27373  10.548   1.995   4.792 -0.0259  0.1532 -1.1934
41004SOL    HW127374  10.484   2.014   4.723  0.3371  1.4740 -1.1935
41004SOL    HW227375  10.497   1.991   4.872 -0.0257  2.3908 -1.0125
41005SOL     OW27376   8.904   4.872   8.914 -0.1950 -0.6113  0.2299
41005SOL    HW127377   8.917   4.953   8.963 -2.1224 -0.1035 -0.0236
41005SOL    HW227378   8.890   4.900   8.824  1.4779 -1.4228 -0.3201
41006SOL     OW27379   1.517   1.147   7.318  0.6491 -0.6208  0.1217
41006SOL    HW127380   1.578   1.077   7.340  1.0527 -0.5814 -0.8257
41006SOL    HW227381   1.506   1.140   7.223  1.3229  1.0932 -0.1130
41007SOL     OW27382   7.037   3.356   8.304  0.5462 -0.0831 -0.7874
41007SOL    HW127383   7.066   3.359   8.396 -0.1222 -0.0528 -0.5754
41007SOL    HW227384   7.032   3.262   8.284  1.6736 -0.0954 -1.1196
41008SOL     OW27385   3.635   8.858   2.008 -0.1027 -0.3539 -0.5405
41008SOL    HW127386   3.614   8.833   2.098  0.0218 -1.6388 -0.8545
41008SOL    HW227387   3.680   8.782   1.971 -1.2826 -0.3672 -2.0766
41009SOL     OW27388  11.092   3.796  10.352  0.0497  0.2502 -0.2930
41009SOL    HW127389  11.150   3.761  10.419 -0.3812  1.8199  0.9599
41009SOL    HW227390  11.018   3.832  10.401 -1.0170  0.0772 -1.7246
41010SOL     OW27391   5.190  10.690  10.677  0.1063  0.1295  0.2904
41010SOL    HW127392   5.168  10.631  10.605 -1.5239  2.0866 -0.9273
41010SOL    HW227393   5.223  10.769  10.634 -2.5265  2.0350  1.5145
41011SOL     OW27394   4.801   7.608   7.232 -0.0777 -0.0786 -0.3112
41011SOL    HW127395   4.859   7.534   7.216  0.1049  0.2413 -1.1961
41011SOL    HW227396   4.723   7.569   7.271 -0.0939 -0.7810 -1.0189
41012SOL     OW27397   9.611   6.392   0.934  0.1382 -0.1581 -0.7547
41012SOL    HW127398   9.644   6.481   0.941  1.8618 -0.8885  2.7912
41012SOL    HW227399   9.676   6.346   0.880  1.5480 -0.1285  0.8514
41013SOL     OW27400   1.942  11.093   0.082 -0.3625 -0.2999  0.1275
41013SOL    HW127401   1.988  11.031   0.139 -0.5069 -0.0304  0.5394
41013SOL    HW227402   1.998  11.170   0.081  0.8606 -1.1072 -1.9914
41014SOL     OW27403   1.052   0.878   4.930  0.7737 -0.1543 -0.3160
41014SOL    HW127404   1.069   0.889   4.836  1.9894  2.3474  0.0952
41014SOL    HW227405   1.007   0.959   4.955  2.3460  0.1949  1.6146
41015SOL     OW27406   3.472   1.435   4.917  0.0852  0.2347  0.0577
41015SOL    HW127407   3.420   1.484   4.853 -1.6641 -0.0064  1.2426
41015SOL    HW227408   3.449   1.343   4.901  1.6273 -0.0699 -0.6413
41016SOL     OW27409   3.140   9.115   3.120  0.3822  0.3204 -0.4440
41016SOL    HW127410   3.155   9.200   3.162 -2.9406  0.8264 -0.0055
41016SOL    HW227411   3.074   9.133   3.053 -1.0465 -2.0100  0.2452
41017SOL     OW27412   7.722   6.033   7.495  0.6537 -0.1388 -0.5719
41017SOL    HW127413   7.759   5.991   7.417  1.6902 -1.5275  0.6105
41017SOL    HW227414   7.646   6.081   7.462  1.2412 -0.4045 -2.4792
41018SOL     OW27415   7.409  10.569  10.233  0.4870  0.3969  0.1010
41018SOL    HW127416   7.391  10.490  10.183 -0.3458  0.2726  0.5805
41018SOL    HW227417   7.396  10.544  10.324 -1.3345  1.4628  0.1726
41019SOL     OW27418  11.110   2.350  10.891  0.6573 -0.0171 -0.0183
41019SOL    HW127419  11.039   2.307  10.938  2.5195 -0.8627  2.2359
41019SOL    HW227420  11.134   2.288  10.822 -0.0254 -0.2285 -0.0722
41020SOL     OW27421  11.085   2.198   6.347 -0.4039  0.3333  0.4925
41020SOL    HW127422  11.169   2.167   6.380 -0.2982 -0.7692 -0.7197
41020SOL    HW227423  11.060   2.134   6.281 -1.6387  1.2742 -0.0017
41021SOL     OW27424   7.780   5.420   1.340  0.6629 -0.2560  0.2705
41021SOL    HW127425   7.685   5.414   1.349  0.7508  0.2935  2.0279
41021SOL    HW227426   7.797   5.515   1.335  1.0392 -0.3853 -1.4596
41022SOL     OW27427   0.325  10.781   0.035  0.1903 -0.2160  0.4770
41022SOL    HW127428   0.239  10.791   0.077 -0.9114 -0.2057 -1.6291
41022SOL    HW227429   0.323  10.694  -0.003  0.4356  0.3661 -0.9428
41023SOL     OW27430   5.545   2.690   6.074 -0.5092 -0.8836  0.2941
41023SOL    HW127431   5.533   2.744   6.152  1.2931 -0.3845  0.2526
41023SOL    HW227432   5.620   2.634   6.095  0.1837 -0.5349 -1.1885
41024SOL     OW27433   2.937   3.549   0.290 -0.1020  0.2134 -0.6281
41024SOL    HW127434   2.947   3.637   0.255  0.9623  0.0061 -0.8887
41024SOL    HW227435   2.978   3.492   0.224 -0.7814 -0.4742 -0.4706
41025SOL     OW27436  10.778   6.168   9.053 -0.7264 -0.0509 -0.1148
41025SOL    HW127437  10.770   6.261   9.075 -0.2818 -0.2466  0.9004
41025SOL    HW227438  10.860   6.140   9.094 -0.2075 -0.6010 -1.4737
41026SOL     OW27439   0.962  11.045   1.051  0.3607 -0.1952 -0.0301
41026SOL    HW127440   0.967  11.049   1.147  1.3598 -0.9536 -0.0288
41026SOL    HW227441   1.007  11.124   1.021 -2.1966  1.4436  0.0940
41027SOL     OW27442   5.843   5.714   0.429 -0.6026  0.2691  0.5116
41027SOL    HW127443   5.917   5.682   0.377 -2.8402 -1.7488 -1.7080
41027SOL    HW227444   5.822   5.799   0.391  1.2651  1.4949  2.0291
41028SOL     OW27445   9.275   3.586   3.305 -0.0610  0.0568  0.0899
41028SOL    HW127446   9.262   3.569   3.212 -0.6696  0.0908  0.1640
41028SOL    HW227447   9.250   3.504   3.348 -0.3203  0.2246  0.2606
41029SOL     OW27448   2.241   9.489   2.744 -0.6322 -0.0542  0.3351
41029SOL    HW127449   2.241   9.576   2.704 -1.2087  0.0038  0.4607
41029SOL    HW227450   2.246   9.429   2.669 -0.4258  0.0808  0.2396
41030SOL     OW27451  10.954   5.557   3.191  0.0160  0.3128 -0.0040
41030SOL    HW127452  10.992   5.644   3.177 -0.6612  0.3858 -1.5944
41030SOL    HW227453  10.988   5.504   3.118 -0.3775 -0.4853  0.3791
41031SOL     OW27454   8.746   8.409   2.663  0.2721 -0.5984 -0.2760
41031SOL    HW127455   8.658   8.419   2.698  0.1621  0.0275 -0.7041
41031SOL    HW227456   8.739   8.441   2.573  1.5016  2.0437  0.4626
41032SOL     OW27457   9.476   6.641   2.193  0.3557  0.4217 -0.2720
41032SOL    HW127458   9.512   6.658   2.106  0.4523  1.0828 -0.1067
41032SOL    HW227459   9.477   6.726   2.237 -3.4895  1.0150 -1.0111
41033SOL     OW27460   5.467   6.545   0.239 -0.3163 -0.2934  0.4905
41033SOL    HW127461   5.458   6.606   0.312 -3.5510  1.1272 -0.8907
41033SOL    HW227462   5.545   6.575   0.193 -0.0656  0.8308  1.5904
41034SOL     OW27463   8.276   0.767   6.226 -0.3432  0.0694 -0.7828
41034SOL    HW127464   8.227   0.797   6.149 -0.0625 -0.0060 -0.9898
41034SOL    HW227465   8.297   0.676   6.207  1.6962  0.6797 -1.6199
41035SOL     OW27466  10.452   2.386   0.300  0.1253  0.1220 -0.5348
41035SOL    HW127467  10.512   2.452   0.265  1.4368 -1.3699 -1.2164
41035SOL    HW227468  10.442   2.323   0.229 -0.4449 -0.8434  0.3700
41036SOL     OW27469  10.397   4.640   2.188  0.4100  0.0411 -0.6962
41036SOL    HW127470  10.332   4.702   2.152  1.6723  0.6315 -2.0412
41036SOL    HW227471  10.416   4.581   2.116  2.1570  0.5372 -0.6669
41037SOL     OW27472   2.459   3.996   8.322  0.1617  0.3748  0.4446
41037SOL    HW127473   2.552   4.012   8.340 -0.1800  0.2898  2.6565
41037SOL    HW227474   2.454   3.901   8.309  0.4952  0.4917 -0.6094
41038SOL     OW27475  10.546   3.494  10.729 -0.7684  0.9210 -0.7874
41038SOL    HW127476  10.611   3.531  10.669 -0.2612  1.0038 -0.1966
41038SOL    HW227477  10.495   3.434  10.675 -0.1733  0.8214 -1.2456
41039SOL     OW27478   2.938   5.719   6.512  0.2410 -0.3173 -0.2085
41039SOL    HW127479   2.890   5.768   6.579  1.7162  1.4471 -0.3670
41039SOL    HW227480   2.938   5.777   6.436  0.4312 -1.3939 -1.0539
41040SOL     OW27481   4.902   7.125  10.689  0.4420 -0.9083 -0.6421
41040SOL    HW127482   4.884   7.041  10.647  1.6069 -1.0320 -0.9292
41040SOL    HW227483   4.827   7.180  10.666 -0.7904 -2.1324  0.3407
41041SOL     OW27484   7.689   5.844   7.707  0.1718  0.1430  0.5024
41041SOL    HW127485   7.696   5.927   7.659 -0.2322 -0.1604 -0.0898
41041SOL    HW227486   7.779   5.817   7.720  0.3363  1.0008  1.2794
41042SOL     OW27487  10.020   4.481   7.315 -0.1553 -0.1161 -0.0838
41042SOL    HW127488  10.084   4.544   7.347  1.8282 -1.1205 -1.7833
41042SOL    HW227489   9.995   4.515   7.229 -0.8823 -0.4475 -0.0076
41043SOL     OW27490   5.389   6.267   9.260  0.1356  0.7541  0.2270
41043SOL    HW127491   5.320   6.312   9.212  0.3175 -0.0460 -0.7999
41043SOL    HW227492   5.374   6.292   9.351 -1.2252  0.9605 -0.0312
41044SOL     OW27493   8.109   6.272   3.036 -0.2116 -0.2036 -0.7089
41044SOL    HW127494   8.162   6.314   2.969 -0.1757  0.1672 -0.4537
41044SOL    HW227495   8.021   6.267   2.998  0.0212 -0.8849 -1.1590
41045SOL     OW27496   1.226   0.470  10.632 -0.2668 -0.1185 -0.1529
41045SOL    HW127497   1.215   0.525  10.709  0.3374 -1.2451  0.7616
41045SOL    HW227498   1.311   0.495  10.597 -0.1678 -0.2004  0.0308
41046SOL     OW27499   4.834   2.128   4.752  0.1039 -0.4578 -0.1676
41046SOL    HW127500   4.876   2.213   4.771 -1.6298  0.6114 -0.9073
41046SOL    HW227501   4.745   2.137   4.786 -0.3700 -1.6675 -1.0217
41047SOL     OW27502  10.704   4.495  10.655  0.0343 -0.2621 -0.3835
41047SOL    HW127503  10.635   4.497  10.588  0.2675  0.5561 -0.6173
41047SOL    HW227504  10.668   4.443  10.726 -1.1405  0.8078 -0.1700
41048SOL     OW27505   3.297   7.333   2.871 -0.1024  0.5145  0.3442
41048SOL    HW127506   3.204   7.355   2.877 -0.2298  0.1943 -0.4138
41048SOL    HW227507   3.299   7.245   2.834  0.5427  1.4108 -1.9286
41049SOL     OW27508   8.035   1.505   4.369  0.5765 -0.6209  0.2781
41049SOL    HW127509   8.096   1.433   4.384  0.8239 -0.4727 -0.0056
41049SOL    HW227510   7.960   1.465   4.326 -0.7651 -1.3249  3.0340
41050SOL     OW27511   6.263   1.856   5.862  0.4427 -0.4974 -0.2825
41050SOL    HW127512   6.176   1.816   5.858  1.3381 -2.9109  1.6500
41050SOL    HW227513   6.256   1.921   5.932  0.2080 -0.8203  0.0009
41051SOL     OW27514   0.084   3.208   5.747  0.1170 -0.0627  0.0911
41051SOL    HW127515   0.124   3.127   5.777 -0.4096 -0.2350  0.3162
41051SOL    HW227516  -0.002   3.183   5.714 -1.8135  0.8868  3.8243
41052SOL     OW27517   8.854   6.808   4.074  0.1949 -0.4584 -0.7488
41052SOL    HW127518   8.902   6.887   4.049 -0.5819  1.2290  2.5571
41052SOL    HW227519   8.764   6.824   4.045  0.1822 -0.4855 -0.7242
41053SOL     OW27520   4.709   2.186   8.569 -0.0701  0.0673 -0.4317
41053SOL    HW127521   4.768   2.112   8.554  0.6611 -0.0628  2.4903
41053SOL    HW227522   4.683   2.178   8.661 -0.0553  3.3545 -0.0096
41054SOL     OW27523  10.857  10.715   7.019  0.3148  0.1122  0.2783
41054SOL    HW127524  10.944  10.691   7.050 -0.3536 -1.2897  1.2005
41054SOL    HW227525  10.799  10.692   7.091 -0.7541  1.8150  0.0108
41055SOL     OW27526   0.437  10.825   2.706  0.1621 -0.4213 -0.7589
41055SOL    HW127527   0.497  10.879   2.758 -0.8296 -1.4908  1.6842
41055SOL    HW227528   0.351  10.839   2.747 -0.5533 -1.9174 -1.6414
41056SOL     OW27529   5.589   0.068   3.483 -0.0182 -0.2546  0.5282
41056SOL    HW127530   5.497   0.078   3.505 -0.8478 -3.8207 -0.6628
41056SOL    HW227531   5.628   0.026   3.560  0.0240 -1.0835  0.0565
41057SOL     OW27532   0.388   3.149   8.623 -0.5841  0.3035 -0.0713
41057SOL    HW127533   0.364   3.070   8.574  0.1858  0.3425 -0.5377
41057SOL    HW227534   0.418   3.117   8.708 -2.4764  0.2735  0.6323
41058SOL     OW27535   9.808   4.034  10.245  0.3896 -0.4444 -0.1849
41058SOL    HW127536   9.768   3.950  10.223 -1.7701  0.6268 -0.5962
41058SOL    HW227537   9.897   4.028  10.209  0.1016 -2.3318 -0.6994
41059SOL     OW27538  10.421   4.093   9.647  0.1390 -0.1529 -0.2089
41059SOL    HW127539  10.468   4.049   9.576 -0.3067  0.0837 -0.6550
41059SOL    HW227540  10.490   4.127   9.704  0.4936 -0.8981 -0.1811
41060SOL     OW27541   6.017   7.218   0.867 -0.1164 -0.3745  0.0645
41060SOL    HW127542   5.943   7.157   0.865  0.0313 -0.5674 -1.8080
41060SOL    HW227543   6.014   7.262   0.782  1.4812  0.1542  0.2400
41061SOL     OW27544   8.006   2.319   0.593  0.5277  0.2481 -0.6560
41061SOL    HW127545   7.984   2.366   0.673 -0.4620 -1.4170  0.1052
41061SOL    HW227546   7.963   2.368   0.523  0.8555  1.3467 -0.1017
41062SOL     OW27547   0.351   9.586   8.162 -0.1739 -0.2540 -0.3144
41062SOL    HW127548   0.309   9.608   8.078  0.5109  1.4080 -0.2713
41062SOL    HW227549   0.440   9.558   8.138  0.0035  0.1669 -0.1577
41063SOL     OW27550   5.977   9.284   0.252 -0.2602 -0.2702 -0.0968
41063SOL    HW127551   6.052   9.342   0.261  0.5556 -1.2692 -0.2441
41063SOL    HW227552   5.947   9.269   0.342  0.7716 -1.1921  0.1075
41064SOL     OW27553   4.369   4.468   1.407 -0.1426 -0.1698 -0.0258
41064SOL    HW127554   4.373   4.509   1.493 -0.3234 -0.6022  0.1916
41064SOL    HW227555   4.389   4.376   1.422 -0.8152 -0.3839 -0.3431
41065SOL     OW27556  11.046   1.707   1.555 -0.0504 -0.2333  0.3257
41065SOL    HW127557  11.141   1.722   1.554 -0.1002  0.0736  0.1153
41065SOL    HW227558  11.017   1.735   1.469 -0.1107 -1.7812 -0.1934
41066SOL     OW27559   6.764   5.541   5.028  0.4122 -0.1780 -0.3595
41066SOL    HW127560   6.857   5.532   5.006  0.4217 -0.9434 -0.0333
41066SOL    HW227561   6.720   5.481   4.967  0.3286 -1.3834  0.8336
41067SOL     OW27562   4.451   3.471   5.321 -1.1376  0.2543  0.0859
41067SOL    HW127563   4.468   3.401   5.257 -0.8910  0.8759 -0.5385
41067SOL    HW227564   4.393   3.431   5.385 -1.0350 -0.5163 -0.2887
41068SOL     OW27565   4.840   4.758   1.768  0.4031  0.0880 -0.2270
41068SOL    HW127566   4.834   4.853   1.779  1.3959  0.5157 -2.6974
41068SOL    HW227567   4.751   4.726   1.784  0.1237  1.3518  0.9595
41069SOL     OW27568   4.971   6.295  10.667  0.0438 -0.4145 -0.0251
41069SOL    HW127569   4.938   6.352  10.736 -0.2897  0.4526 -0.8759
41069SOL    HW227570   5.035   6.348  10.621 -2.5308  0.5304 -2.8439
41070SOL     OW27571  10.617   0.527   9.702 -0.3127  0.1501 -0.1318
41070SOL    HW127572  10.523   0.529   9.722 -0.0398  0.1713  1.2671
41070SOL    HW227573  10.621   0.518   9.607 -1.7331  1.2189 -0.3311
41071SOL     OW27574   8.333  10.371   0.145 -0.4421  0.4175 -0.1476
41071SOL    HW127575   8.418  10.345   0.109 -0.4953  0.4379 -0.2864
41071SOL    HW227576   8.356  10.435   0.213 -0.0633 -2.3183  2.4872
41072SOL     OW27577   0.070   5.443   9.107 -0.1584 -0.0830  0.2515
41072SOL    HW127578   0.140   5.428   9.043 -0.0494 -0.0912  0.3698
41072SOL    HW227579  -0.004   5.476   9.056 -0.1997 -0.4593  0.0685
41073SOL     OW27580   0.668   3.308  11.052 -0.2371  0.0632 -0.9344
41073SOL    HW127581   0.639   3.397  11.073 -1.7777 -0.6237 -0.0127
41073SOL    HW227582   0.749   3.297  11.103 -1.2476  0.1828  0.7877
41074SOL     OW27583   4.885   4.729   9.648  0.0342  0.0626 -0.1151
41074SOL    HW127584   4.889   4.653   9.590  1.1231 -0.7151  0.9244
41074SOL    HW227585   4.806   4.714   9.701 -1.0280  0.8338 -1.4093
41075SOL     OW27586  10.391   5.657  10.644 -0.3217 -0.4264 -0.3950
41075SOL    HW127587  10.316   5.705  10.609 -0.1805 -0.2539 -0.4631
41075SOL    HW227588  10.371   5.645  10.737 -0.5834 -0.6685 -0.4822
41076SOL     OW27589   7.228   1.825   2.286 -0.1576  0.6552 -0.5533
41076SOL    HW127590   7.295   1.872   2.237 -1.5273  2.3849 -0.8678
41076SOL    HW227591   7.173   1.893   2.325 -0.7785 -0.6893  1.0710
41077SOL     OW27592   6.734   1.214   3.107  0.0448  0.2532  0.2310
41077SOL    HW127593   6.657   1.170   3.143  0.8447 -0.1399  1.5015
41077SOL    HW227594   6.706   1.305   3.096 -1.2444 -0.2692 -1.2945
41078SOL     OW27595   9.392   8.086   7.969 -0.5625 -0.2419  0.3151
41078SOL    HW127596   9.429   8.142   7.900 -0.4522 -1.6452 -0.8002
41078SOL    HW227597   9.445   8.007   7.966  0.4481  0.2224  3.0849
41079SOL     OW27598   7.871   9.500   7.755  0.1563 -0.1262  0.5748
41079SOL    HW127599   7.840   9.415   7.725  1.6736 -0.3125 -0.5940
41079SOL    HW227600   7.966   9.491   7.760  0.2190  0.9599  2.2230
41080SOL     OW27601   8.239   9.381  10.476  0.6404  0.0865  0.1967
41080SOL    HW127602   8.241   9.431  10.557 -0.3941 -0.1713  0.3936
41080SOL    HW227603   8.298   9.428  10.417  1.7491  0.0266  1.2272
41081SOL     OW27604  10.777   1.523   0.906  0.2003 -0.0084  0.3914
41081SOL    HW127605  10.754   1.447   0.853 -0.6609  0.4267  0.1244
41081SOL    HW227606  10.794   1.592   0.842  0.0003  0.2899  0.6576
41082SOL     OW27607   0.917   3.449   3.013 -0.2238  0.3430 -0.2964
41082SOL    HW127608   0.839   3.436   2.959  0.1510  0.0919 -0.7878
41082SOL    HW227609   0.891   3.420   3.101 -0.5774 -0.0630 -0.5326
41083SOL     OW27610   5.769   1.710   4.927 -0.2088  0.0150  0.1566
41083SOL    HW127611   5.806   1.688   4.842  0.2355  1.8125 -0.1582
41083SOL    HW227612   5.833   1.679   4.990 -0.1094 -0.5156 -0.2012
41084SOL     OW27613   6.124   8.703   8.989  0.5777  0.2293 -0.0347
41084SOL    HW127614   6.111   8.630   9.049 -1.2224 -0.2431 -0.9232
41084SOL    HW227615   6.112   8.781   9.044  1.6417 -0.1236  0.7365
41085SOL     OW27616   1.737   2.613  10.052 -0.2481 -0.3235  0.0584
41085SOL    HW127617   1.663   2.625  10.111 -0.6658 -0.7236 -0.3844
41085SOL    HW227618   1.716   2.535  10.002  1.1722 -1.3484  0.9731
41086SOL     OW27619   2.409   7.643   1.410  0.1743  0.5712 -0.2750
41086SOL    HW127620   2.485   7.595   1.381 -1.0228 -0.4641 -1.8551
41086SOL    HW227621   2.335   7.585   1.392 -1.0292  1.6490  0.9351
41087SOL     OW27622   1.276   0.709   2.155  0.5883  0.1421 -0.8161
41087SOL    HW127623   1.341   0.727   2.222  0.2433  0.0281 -0.4477
41087SOL    HW227624   1.263   0.793   2.111  1.2688  0.0755 -1.1500
41088SOL     OW27625   3.496   4.909  10.554  0.3412  0.5797 -0.1088
41088SOL    HW127626   3.584   4.929  10.584  0.3505 -0.0797  0.3059
41088SOL    HW227627   3.442   4.981  10.589  0.6182  0.6911  0.0881
41089SOL     OW27628   1.072   4.743   7.295 -0.4134  0.0381 -0.0859
41089SOL    HW127629   1.104   4.823   7.335  1.2323 -0.8169  0.4124
41089SOL    HW227630   1.075   4.760   7.201  1.9341 -0.0727 -0.1024
41090SOL     OW27631   1.711   2.693   9.379  0.3584 -0.0033 -0.0094
41090SOL    HW127632   1.717   2.741   9.461  0.4951  0.1165 -0.0905
41090SOL    HW227633   1.773   2.620   9.389 -0.8405 -0.9751  0.6576
41091SOL     OW27634   1.099   0.005   0.068  0.2187 -0.9578 -0.1458
41091SOL    HW127635   1.154  -0.062   0.109 -1.1453 -1.5439  0.7868
41091SOL    HW227636   1.045   0.038   0.139 -0.9209 -0.6731 -1.1177
41092SOL     OW27637   7.891   3.436   1.732  0.1534  0.7215 -0.0062
41092SOL    HW127638   7.872   3.529   1.745 -0.4564  0.3934  1.6552
41092SOL    HW227639   7.982   3.426   1.759  0.4435  0.9350 -0.8540
41093SOL     OW27640   4.110   7.139   3.733 -0.2817 -0.1373 -0.4367
41093SOL    HW127641   4.076   7.138   3.644 -2.5298 -1.2127  0.3572
41093SOL    HW227642   4.101   7.230   3.761 -0.1016  0.0901 -1.0853
41094SOL     OW27643   2.220   5.852  10.942 -0.1568  0.6340  0.2530
41094SOL    HW127644   2.203   5.873  11.034 -0.6219 -0.1066  0.3387
41094SOL    HW227645   2.160   5.780  10.922  1.2025 -0.4491 -0.1051
41095SOL     OW27646   3.800   4.077   8.916  0.1527  0.9284  0.1244
41095SOL    HW127647   3.748   4.048   8.841 -0.3562  1.8486  0.1127
41095SOL    HW227648   3.846   4.155   8.884  0.0306  1.2509  0.7291
41096SOL     OW27649   3.136   5.826   2.708  0.5349  0.0004 -0.5695
41096SOL    HW127650   3.124   5.905   2.761 -2.5823 -0.3693 -0.5884
41096SOL    HW227651   3.076   5.837   2.635  2.1033 -1.1778 -2.1257
41097SOL     OW27652   9.906   3.136   9.365  0.3884 -0.0680  0.4257
41097SOL    HW127653   9.891   3.049   9.401 -0.5577 -0.3234 -0.5086
41097SOL    HW227654  10.001   3.143   9.357  0.7103  0.2278  3.3937
41098SOL     OW27655   8.995   9.472  10.499 -0.1402  0.2554 -0.3413
41098SOL    HW127656   9.001   9.404  10.432  0.5803 -2.2729  2.0775
41098SOL    HW227657   8.928   9.439  10.560  1.0981  1.0739  1.5614
41099SOL     OW27658  10.973   8.791   0.178 -0.1246 -0.7828  0.0009
41099SOL    HW127659  10.988   8.789   0.273  1.2083  2.3467 -0.0008
41099SOL    HW227660  10.891   8.840   0.168  0.9165  1.0002 -0.4048
41100SOL     OW27661   6.837   0.047   0.954 -0.4497 -0.0885  0.1018
41100SOL    HW127662   6.746   0.017   0.953 -0.9565  1.3815 -0.1644
41100SOL    HW227663   6.865   0.042   0.863 -1.0295  1.5697 -0.2103
41101SOL     OW27664   9.677   2.879   5.920  0.2944 -0.4040 -0.4243
41101SOL    HW127665   9.741   2.904   5.853 -0.4286  2.9324 -0.0424
41101SOL    HW227666   9.611   2.830   5.871 -1.0418  3.2707 -2.7424
41102SOL     OW27667   1.748   8.051   8.881 -0.3963  0.5426 -0.1145
41102SOL    HW127668   1.729   8.119   8.816  0.8619  1.7353  0.7109
41102SOL    HW227669   1.762   8.099   8.963 -1.6896 -0.9012  1.0272
41103SOL     OW27670   7.057   5.164   0.958 -0.3645 -0.4814  0.5441
41103SOL    HW127671   7.085   5.249   0.992 -1.4358  0.0076  0.2428
41103SOL    HW227672   6.995   5.185   0.888  0.8752 -1.4774 -0.9456
41104SOL     OW27673   2.958   4.778   0.582  0.5027  0.7307 -0.1644
41104SOL    HW127674   3.014   4.842   0.624  2.6984 -0.3810 -1.2347
41104SOL    HW227675   2.996   4.693   0.605  0.6891  0.0198 -2.7347
41105SOL     OW27676   0.002  11.022   0.369  0.6964 -0.7450 -0.5332
41105SOL    HW127677   0.010  10.957   0.300 -2.1121  0.4126 -2.1035
41105SOL    HW227678   0.014  10.973   0.450  0.6574 -2.7974 -1.7032
41106SOL     OW27679   4.566   4.182   3.947  0.0958  0.2805 -0.1922
41106SOL    HW127680   4.490   4.129   3.922 -1.1351  2.6084 -1.7634
41106SOL    HW227681   4.528   4.257   3.993  1.3044  1.9525 -1.8064
41107SOL     OW27682   5.423   2.083   6.111  0.4206 -0.1314  0.2128
41107SOL    HW127683   5.506   2.054   6.073  0.7258 -1.7673  1.9682
41107SOL    HW227684   5.356   2.032   6.066  0.7234 -1.5515  1.2982
41108SOL     OW27685  10.560   7.385   1.788  0.2394 -0.1314 -0.2404
41108SOL    HW127686  10.503   7.310   1.773 -0.8083  0.2294  1.6805
41108SOL    HW227687  10.529   7.424   1.869  2.1283  1.1313 -0.0450
41109SOL     OW27688   3.147   7.476   9.073  0.0182 -0.4880  0.4719
41109SOL    HW127689   3.131   7.399   9.129 -0.2531 -0.0805  0.9666
41109SOL    HW227690   3.081   7.468   9.004 -2.2212  0.9710  2.2884
41110SOL     OW27691   5.477   5.211  10.913 -0.4770  0.2033 -0.4602
41110SOL    HW127692   5.389   5.173  10.909 -0.0222 -1.4942  2.5905
41110SOL    HW227693   5.524   5.173  10.839 -1.8807  0.0481 -1.3023
41111SOL     OW27694   5.972   6.649   1.913 -0.0182 -0.5414  0.3655
41111SOL    HW127695   5.903   6.666   1.848 -0.7930 -2.1092  0.7377
41111SOL    HW227696   6.040   6.602   1.864  0.6175  0.6305  0.0969
41112SOL     OW27697   2.546   7.639   9.119  0.0192  0.0902  0.4851
41112SOL    HW127698   2.483   7.640   9.191  0.7617  0.2256  1.1413
41112SOL    HW227699   2.579   7.729   9.114  0.2706 -0.0122  0.2502
41113SOL     OW27700   2.960   1.880   8.278 -0.3642 -0.1077  0.1851
41113SOL    HW127701   2.871   1.854   8.301 -0.3497 -1.0802 -0.7902
41113SOL    HW227702   2.951   1.924   8.193  0.2153 -1.1939 -0.4513
41114SOL     OW27703   1.355   9.921   7.499 -0.2855 -0.0175 -0.4543
41114SOL    HW127704   1.406   9.978   7.442 -0.4523  0.8733  0.2527
41114SOL    HW227705   1.420   9.876   7.553 -0.2106  2.3916  1.6464
41115SOL     OW27706   5.740  10.359   4.269  0.1585  0.4926  0.2020
41115SOL    HW127707   5.783  10.343   4.185  2.3537  0.7597  1.2179
41115SOL    HW227708   5.785  10.302   4.331 -1.8519 -0.1841  1.1445
41116SOL     OW27709   4.241   3.242   8.324  0.1987 -0.0937  0.4547
41116SOL    HW127710   4.331   3.274   8.320  0.0488  0.2029 -1.8210
41116SOL    HW227711   4.248   3.149   8.303 -0.0470  0.0402 -0.2641
41117SOL     OW27712  10.113   0.502  10.538  0.2214 -0.1307  0.0966
41117SOL    HW127713  10.024   0.516  10.569  0.3757 -0.9990  0.9737
41117SOL    HW227714  10.165   0.568  10.584 -0.1477  1.3418 -1.4984
41118SOL     OW27715   0.256   5.840   5.139 -0.5316 -0.1907  0.4819
41118SOL    HW127716   0.279   5.862   5.049 -0.1853 -0.3292  0.5322
41118SOL    HW227717   0.261   5.924   5.186 -3.3971  0.4029 -0.1403
41119SOL     OW27718   0.508   2.958   5.217  0.0981 -0.3364  0.2420
41119SOL    HW127719   0.529   2.889   5.280 -0.6910 -0.0289  0.8538
41119SOL    HW227720   0.577   3.023   5.229  0.1499 -0.4467  0.5392
41120SOL     OW27721   7.130   0.585   0.158 -0.3695  0.0967 -0.0104
41120SOL    HW127722   7.076   0.517   0.119 -0.3655 -1.2511  2.1903
41120SOL    HW227723   7.195   0.606   0.090  0.7602 -3.4061 -0.1793
41121SOL     OW27724   2.828   8.545   5.042 -0.5953  0.4079 -0.6683
41121SOL    HW127725   2.760   8.491   5.002 -0.8351  0.7600 -0.7431
41121SOL    HW227726   2.780   8.600   5.104 -0.4543  1.0636 -1.1410
41122SOL     OW27727   0.558   5.817   3.521 -0.2877 -0.3405  0.0267
41122SOL    HW127728   0.623   5.857   3.579 -0.5135  0.0009  0.0499
41122SOL    HW227729   0.592   5.834   3.433 -1.3560  1.6963 -0.0622
41123SOL     OW27730   9.170   7.747   1.759  0.3758 -0.6234  0.3956
41123SOL    HW127731   9.191   7.835   1.728  0.0907 -0.6350  0.1632
41123SOL    HW227732   9.250   7.717   1.801  0.8133 -0.6481 -0.4248
41124SOL     OW27733   1.112  10.552   4.696  0.8278  0.6738 -0.6561
41124SOL    HW127734   1.083  10.556   4.605  0.1994 -1.5921 -0.6225
41124SOL    HW227735   1.182  10.486   4.696  0.0444 -0.2132  0.6420
41125SOL     OW27736   9.067   2.671   5.122 -0.0830  0.7308  0.0751
41125SOL    HW127737   9.115   2.639   5.045 -0.2449  1.9029 -0.5484
41125SOL    HW227738   9.003   2.603   5.141 -0.5777  0.7639 -1.3530
41126SOL     OW27739   6.393   3.250   4.221 -0.3715  0.3915  0.4151
41126SOL    HW127740   6.486   3.270   4.209 -0.3149 -0.5926 -0.9844
41126SOL    HW227741   6.392   3.172   4.276 -0.1822 -1.4563 -2.0257
41127SOL     OW27742   8.248   8.391   8.414 -0.0780  0.6239  0.1237
41127SOL    HW127743   8.294   8.325   8.467  0.1426  0.5710 -0.1356
41127SOL    HW227744   8.207   8.448   8.478 -1.0764 -0.3285  0.3708
41128SOL     OW27745   2.726  10.648   6.644 -0.2286  0.0725 -0.0525
41128SOL    HW127746   2.677  10.602   6.576  0.9595 -0.2883 -0.6757
41128SOL    HW227747   2.767  10.722   6.600 -0.1920  0.3756  0.4714
41129SOL     OW27748   7.205   8.769  10.805  0.0026  0.3773  0.4944
41129SOL    HW127749   7.249   8.758  10.889 -0.1553  0.2827  0.5653
41129SOL    HW227750   7.190   8.680  10.774  0.4818  0.4216  0.1429
41130SOL     OW27751   0.020   2.560   2.582 -0.2584  0.1576  0.3361
41130SOL    HW127752  -0.043   2.492   2.560 -0.5013  0.5214 -0.1123
41130SOL    HW227753   0.104   2.524   2.554 -0.4757  0.3309 -0.5863
41131SOL     OW27754  11.095   4.972   9.910 -0.1558 -0.5393 -0.3273
41131SOL    HW127755  11.016   4.987   9.857  0.2237 -2.5737 -1.5870
41131SOL    HW227756  11.067   4.908   9.976  0.2694 -0.7755 -0.3722
41132SOL     OW27757   8.783   2.104   5.387  0.4886 -0.0127  0.2738
41132SOL    HW127758   8.778   2.197   5.364 -0.2821 -0.0897  0.1057
41132SOL    HW227759   8.854   2.070   5.332 -0.0240  0.2303 -0.5639
41133SOL     OW27760   4.522   1.036   1.206 -0.3171  0.9034 -0.2240
41133SOL    HW127761   4.602   0.985   1.219  0.3480  0.6932 -3.9802
41133SOL    HW227762   4.452   0.979   1.237  0.7813 -0.1726  0.3500
41134SOL     OW27763   6.690   3.949  10.756 -0.0846 -1.0591 -0.7975
41134SOL    HW127764   6.688   4.003  10.676  0.2497  0.2155  0.0237
41134SOL    HW227765   6.686   4.012  10.827  1.1288 -2.0845  0.2267
41135SOL     OW27766   9.532   4.350   5.796  0.2463 -0.2401 -0.7152
41135SOL    HW127767   9.484   4.433   5.793  3.3249  1.6805 -0.9046
41135SOL    HW227768   9.618   4.373   5.831  0.8830 -3.5884  0.2721
41136SOL     OW27769  10.278   9.348   7.345  0.1553 -0.1289 -0.2920
41136SOL    HW127770  10.317   9.329   7.430  2.9188  2.2119 -0.8841
41136SOL    HW227771  10.272   9.262   7.302  1.5555 -0.9977  1.1412
41137SOL     OW27772   5.182   5.662   2.404 -0.7602  0.9098  0.2071
41137SOL    HW127773   5.098   5.634   2.369 -0.2707 -0.9569  0.4307
41137SOL    HW227774   5.190   5.616   2.488  0.9804  0.0980 -0.3557
41138SOL     OW27775   1.127   2.499   8.732 -0.0264  0.0196 -0.3517
41138SOL    HW127776   1.052   2.548   8.765  1.3590  1.2893  1.0590
41138SOL    HW227777   1.160   2.552   8.659  1.1262  0.9702  0.8093
41139SOL     OW27778   6.905   5.610   9.856 -0.5279 -0.0720 -0.1701
41139SOL    HW127779   6.863   5.615   9.771 -0.8648  0.4971  0.0229
41139SOL    HW227780   6.841   5.646   9.917  0.2282  0.8142  0.1255
41140SOL     OW27781   6.923  10.928   9.541  0.3657  0.0391 -0.6479
41140SOL    HW127782   6.879  10.951   9.623 -0.1752 -3.9212  0.3462
41140SOL    HW227783   7.014  10.914   9.566  0.2807 -0.7831 -0.7774
41141SOL     OW27784  10.060   8.888   2.811  0.4873 -0.5267 -0.3236
41141SOL    HW127785   9.991   8.833   2.774  1.0883 -1.8285  0.4145
41141SOL    HW227786  10.021   8.925   2.891 -0.4733  1.5031 -1.6317
41142SOL     OW27787   3.266   7.149   5.988  0.1418 -0.2299 -0.2020
41142SOL    HW127788   3.173   7.175   5.983 -0.2740 -1.7221 -0.5302
41142SOL    HW227789   3.312   7.232   6.002 -1.3810  0.3586  1.9666
41143SOL     OW27790   1.663   7.214   0.758 -0.6026 -0.4284 -1.0146
41143SOL    HW127791   1.736   7.257   0.713 -1.8041 -0.1799 -2.7781
41143SOL    HW227792   1.631   7.149   0.696 -2.0142 -0.3943 -0.3587
41144SOL     OW27793  10.578   1.385   9.367 -0.1467  0.1920  0.4809
41144SOL    HW127794  10.588   1.466   9.316 -0.2149  0.4186  0.8218
41144SOL    HW227795  10.526   1.328   9.311 -0.0808  0.3774  0.2282
41145SOL     OW27796   8.779   1.553   4.682 -0.5048 -0.5673  0.3738
41145SOL    HW127797   8.826   1.530   4.762  0.2130  0.3713  0.2335
41145SOL    HW227798   8.689   1.524   4.697 -0.3493 -0.4864  1.4790
41146SOL     OW27799   9.207  11.076  10.249 -0.1547  0.3034  0.8814
41146SOL    HW127800   9.224  10.981  10.249  1.0980  0.5125  1.0310
41146SOL    HW227801   9.277  11.113  10.196 -0.2511  1.2121  1.3712
41147SOL     OW27802   4.612   8.943   8.596  0.0638  0.6889 -0.0096
41147SOL    HW127803   4.586   8.873   8.656 -0.9998  0.2826 -0.9040
41147SOL    HW227804   4.557   9.018   8.621 -0.9921  0.2720 -0.9525
41148SOL     OW27805  10.661   1.945  10.132  0.0285  0.1005 -0.3588
41148SOL    HW127806  10.644   1.956  10.225 -0.0981 -1.1849 -0.2166
41148SOL    HW227807  10.584   1.897  10.099  0.3284  0.0608 -1.0183
41149SOL     OW27808   2.197   6.846   0.857  0.1628 -0.3569 -0.6620
41149SOL    HW127809   2.207   6.751   0.848 -1.1628 -0.5205 -0.5837
41149SOL    HW227810   2.103   6.860   0.859  0.3407  0.9886 -0.8545
41150SOL     OW27811   0.845   9.905   0.399 -0.1595 -0.5465 -0.2188
41150SOL    HW127812   0.921   9.963   0.397 -0.6409  0.0845 -0.9033
41150SOL    HW227813   0.881   9.817   0.396  0.5144 -0.2388 -1.4922
41151SOL     OW27814   1.174   1.803   3.894  0.2827 -0.0244  0.7279
41151SOL    HW127815   1.136   1.843   3.815 -0.4826 -0.0647  1.0716
41151SOL    HW227816   1.105   1.747   3.928  1.0833 -1.0541  0.6853
41152SOL     OW27817   9.029   7.948   3.208 -0.3640  0.5635  0.1081
41152SOL    HW127818   9.090   7.950   3.134  0.1490  1.1767  0.5305
41152SOL    HW227819   8.943   7.955   3.168 -0.2213 -0.9597 -0.5482
41153SOL     OW27820   2.498   4.124   3.019 -0.2041 -0.3021  0.2126
41153SOL    HW127821   2.408   4.143   2.994 -0.6001 -1.5116  0.6695
41153SOL    HW227822   2.496   4.035   3.053  0.4582  0.8513  3.6813
41154SOL     OW27823   9.726  10.158  10.197  0.1999  0.1896 -0.3243
41154SOL    HW127824   9.725  10.231  10.135  0.9857 -1.4501 -2.3843
41154SOL    HW227825   9.816  10.157  10.230 -0.2316  1.0917  0.9430
41155SOL     OW27826   1.607   0.512   2.078  0.3768 -0.5602 -0.1117
41155SOL    HW127827   1.519   0.538   2.052  1.1375  0.2229 -2.1115
41155SOL    HW227828   1.637   0.454   2.008  1.6458 -0.3718  0.2475
41156SOL     OW27829   7.129   5.681   4.470  0.1504 -0.0552 -0.2120
41156SOL    HW127830   7.097   5.767   4.442  0.3758  0.2709  0.5253
41156SOL    HW227831   7.062   5.620   4.439  0.1569  0.3419 -1.0465
41157SOL     OW27832   0.369   7.523   6.233 -0.4657 -0.1494 -0.3707
41157SOL    HW127833   0.409   7.480   6.309 -0.8703  0.8008  0.4087
41157SOL    HW227834   0.442   7.542   6.174 -0.1487 -0.9387 -0.2367
41158SOL     OW27835   8.206   1.109   3.039 -0.2934  0.1622  0.5558
41158SOL    HW127836   8.235   1.200   3.041 -0.0553  0.0827  1.6116
41158SOL    HW227837   8.125   1.109   3.091 -0.9028 -0.0466 -0.3611
41159SOL     OW27838   6.130   2.550   9.678  0.1922 -0.2175  0.0119
41159SOL    HW127839   6.181   2.573   9.756 -0.4532  1.4624 -0.0076
41159SOL    HW227840   6.058   2.613   9.678  1.5115  1.5558 -3.2676
41160SOL     OW27841   0.710   5.339  11.075  0.4291 -0.1650  0.5339
41160SOL    HW127842   0.795   5.334  11.119  0.7454  0.9644  0.0939
41160SOL    HW227843   0.700   5.254  11.033  1.6404 -0.0944  0.0668
41161SOL     OW27844  10.882   2.410   2.906  0.0958  0.7178 -0.0006
41161SOL    HW127845  10.914   2.321   2.895 -1.2978  0.3298 -1.1801
41161SOL    HW227846  10.844   2.411   2.994  0.5915  0.3148  0.2231
41162SOL     OW27847   8.247  10.482   5.506  0.4015 -0.5167  0.4079
41162SOL    HW127848   8.295  10.448   5.431 -1.7655  1.6518 -2.1681
41162SOL    HW227849   8.181  10.415   5.525 -0.5890 -0.1077 -1.3195
41163SOL     OW27850   0.592   1.528   2.311 -0.3660  0.1804  0.1797
41163SOL    HW127851   0.687   1.527   2.304 -0.1765  0.3513  2.2272
41163SOL    HW227852   0.568   1.438   2.332 -0.6309  0.2190  0.0575
41164SOL     OW27853   5.446   9.986   4.341 -0.4114 -0.0610  0.2665
41164SOL    HW127854   5.442  10.077   4.371  1.2616  0.2385 -0.3207
41164SOL    HW227855   5.539   9.970   4.326 -0.8428 -1.2943 -1.3400
41165SOL     OW27856  11.006   3.801   9.254  0.2031  0.1485 -0.4914
41165SOL    HW127857  10.997   3.892   9.225 -0.5843  0.3112  0.2237
41165SOL    HW227858  10.917   3.769   9.262  0.4742 -0.6635 -0.6459
41166SOL     OW27859   6.102   1.272   3.803  0.3413  0.2761  0.3648
41166SOL    HW127860   6.157   1.252   3.726  0.9262 -0.1163  0.8712
41166SOL    HW227861   6.023   1.312   3.767  0.7486  0.3888 -0.4206
41167SOL     OW27862   9.042   8.341   6.331  0.4654  0.2689 -0.3319
41167SOL    HW127863   9.094   8.311   6.406 -0.5584 -0.5505  0.0681
41167SOL    HW227864   9.103   8.340   6.258  1.3529  0.5947  0.3874
41168SOL     OW27865   7.871   2.454  10.781 -0.4673 -0.3366  0.5721
41168SOL    HW127866   7.851   2.360  10.781 -1.6109 -0.1117  0.6716
41168SOL    HW227867   7.885   2.476  10.873 -0.3838 -0.3757  0.5685
41169SOL     OW27868  10.107  10.518   0.390  0.2568 -0.0178 -0.5220
41169SOL    HW127869  10.133  10.473   0.470  1.1350  2.5030  0.7316
41169SOL    HW227870  10.175  10.495   0.326 -0.6242 -2.3071 -0.7263
41170SOL     OW27871   8.428   9.022   5.572 -0.0728  0.7860  0.1059
41170SOL    HW127872   8.368   8.970   5.626 -0.4265  0.1218 -0.8766
41170SOL    HW227873   8.384   9.106   5.559 -0.8594  0.2737 -0.6720
41171SOL     OW27874   1.358   4.378   0.029  0.2313  0.1666 -0.1517
41171SOL    HW127875   1.351   4.469   0.001 -1.6742  0.8502  2.2049
41171SOL    HW227876   1.275   4.338   0.004 -1.0020  0.4753  3.0448
41172SOL     OW27877   9.394   1.659   8.956  0.0012 -0.5901  0.4165
41172SOL    HW127878   9.481   1.625   8.936  1.4493  2.2411  1.3512
41172SOL    HW227879   9.390   1.742   8.908 -1.2884  0.3731  2.0881
41173SOL     OW27880   7.161   4.475   9.674 -0.0505 -0.4213 -0.2143
41173SOL    HW127881   7.158   4.421   9.754  1.0997 -0.2017  0.0051
41173SOL    HW227882   7.249   4.513   9.675 -0.2243  0.0413 -1.2989
41174SOL     OW27883   9.040   1.673   1.202  0.1128 -0.1216  0.6351
41174SOL    HW127884   9.073   1.591   1.164  0.1451  0.2063 -0.0622
41174SOL    HW227885   9.118   1.727   1.212  0.4265 -0.9354  3.1121
41175SOL     OW27886   7.025  10.676   8.169  0.1549  0.4472  0.3528
41175SOL    HW127887   7.065  10.626   8.241  0.8389  1.3132  0.5833
41175SOL    HW227888   7.045  10.625   8.091 -0.7155 -0.5820  0.7727
41176SOL     OW27889   2.556   9.503   3.665  0.9830  0.4239  0.0736
41176SOL    HW127890   2.598   9.457   3.592 -0.2956  0.4244 -0.6789
41176SOL    HW227891   2.625   9.509   3.732  2.3469  0.8661 -1.3091
41177SOL     OW27892   0.117  10.504   7.968 -1.4557  0.1673 -0.1088
41177SOL    HW127893   0.083  10.416   7.983  1.6296 -1.6034 -2.2529
41177SOL    HW227894   0.107  10.517   7.874  0.3199  1.0284 -0.2201
41178SOL     OW27895   7.690   8.088   1.334 -0.7105 -0.0090  0.3834
41178SOL    HW127896   7.672   8.182   1.335 -2.0385 -0.2016 -1.2225
41178SOL    HW227897   7.679   8.060   1.425  2.0677  1.7527  1.3589
41179SOL     OW27898   2.617  10.587   5.073 -0.9383 -0.0298 -0.1237
41179SOL    HW127899   2.629  10.637   4.992  0.3563 -0.9842 -0.5532
41179SOL    HW227900   2.523  10.568   5.076 -1.3792  1.9093 -0.2270
41180SOL     OW27901   8.235   5.897   0.675  0.1753 -0.2853 -0.0788
41180SOL    HW127902   8.232   5.952   0.596 -0.7254  0.1079  0.2164
41180SOL    HW227903   8.283   5.949   0.739 -0.0316 -0.1591 -0.0283
41181SOL     OW27904   7.234   6.542   5.225 -0.2216 -0.0727  0.6295
41181SOL    HW127905   7.153   6.521   5.271  0.8264 -0.2064  2.5314
41181SOL    HW227906   7.225   6.635   5.203 -1.1344 -0.2390  0.2633
41182SOL     OW27907   2.895   5.235   0.724  0.1202 -0.3420 -0.9885
41182SOL    HW127908   2.977   5.247   0.677  0.8364  0.3985  0.4065
41182SOL    HW227909   2.919   5.193   0.806 -0.8567  0.1098 -0.4484
41183SOL     OW27910   8.254  10.131   9.226  0.0311  0.0473  0.0661
41183SOL    HW127911   8.349  10.141   9.226  0.1602 -1.0817  0.5723
41183SOL    HW227912   8.239  10.039   9.249 -1.1820  0.1892 -0.0833
41184SOL     OW27913   3.947   3.409   1.536  0.7567 -0.1023  0.4065
41184SOL    HW127914   3.888   3.484   1.542  0.0199 -0.6106 -0.2402
41184SOL    HW227915   4.002   3.415   1.615 -0.3636  0.2142  1.1922
41185SOL     OW27916   4.687   6.231   9.992 -0.0527 -0.5560 -0.3600
41185SOL    HW127917   4.781   6.214   9.998  0.4813  2.2886  1.6585
41185SOL    HW227918   4.682   6.318   9.952 -1.5291  0.9257  2.7463
41186SOL     OW27919   9.833   4.492   1.780 -0.0769  0.0913 -0.1928
41186SOL    HW127920   9.844   4.444   1.698  1.1478 -0.1702  0.0958
41186SOL    HW227921   9.858   4.430   1.848 -1.4815  0.1753  0.4347
41187SOL     OW27922   8.455   9.373   6.174 -0.0781 -0.5421  0.3793
41187SOL    HW127923   8.464   9.305   6.107 -0.9266 -0.5903  0.2988
41187SOL    HW227924   8.396   9.335   6.239 -1.1710  0.3894 -0.0386
41188SOL     OW27925   3.786  10.962   0.195  0.0839  0.0888  0.3680
41188SOL    HW127926   3.698  10.967   0.234 -0.1894 -0.2955 -0.1903
41188SOL    HW227927   3.840  10.922   0.264  0.4867  2.8853  1.8036
41189SOL     OW27928   5.312   7.788   5.104 -0.1183 -0.3259  0.0283
41189SOL    HW127929   5.323   7.882   5.116 -0.8998 -0.5158  2.8686
41189SOL    HW227930   5.398   7.751   5.125 -0.0360 -0.3014 -0.2647
41190SOL     OW27931   9.369   7.349   5.316  0.2085 -0.1355  0.3376
41190SOL    HW127932   9.379   7.440   5.287 -2.6222  0.3093  0.4748
41190SOL    HW227933   9.378   7.297   5.236  0.8152  0.3428  0.0889
41191SOL     OW27934   9.227   4.645   5.423  0.0859  0.4268  0.2312
41191SOL    HW127935   9.186   4.640   5.509 -0.7587  3.3538  0.1115
41191SOL    HW227936   9.312   4.686   5.439  0.1078  0.5853 -0.2603
41192SOL     OW27937  10.078   1.704   4.235  0.5336  0.2788 -0.3443
41192SOL    HW127938  10.120   1.691   4.320  0.3854 -0.7196 -0.4207
41192SOL    HW227939  10.129   1.773   4.193  0.7810  0.5816  0.4369
41193SOL     OW27940   3.878   5.457   8.307  0.1917  0.1155  0.2717
41193SOL    HW127941   3.931   5.377   8.305 -1.0592 -0.7500  0.0198
41193SOL    HW227942   3.809   5.439   8.371 -0.6297  0.6327 -0.4389
41194SOL     OW27943   4.513   7.018   5.516  0.0636 -0.1751  0.0839
41194SOL    HW127944   4.540   7.002   5.426  1.1554  1.5988  0.0655
41194SOL    HW227945   4.424   7.051   5.509 -0.3906 -1.3853 -0.2057
41195SOL     OW27946   4.904  10.907   1.507 -0.0160  0.0747  0.1513
41195SOL    HW127947   4.818  10.867   1.516  0.6489 -1.2641  0.9261
41195SOL    HW227948   4.952  10.878   1.584  1.2324  0.5319 -0.4217
41196SOL     OW27949   9.317   6.744   3.495 -0.0401  0.0717  0.3582
41196SOL    HW127950   9.371   6.671   3.526 -0.9185  0.2624  2.4688
41196SOL    HW227951   9.227   6.714   3.505 -0.4194  1.3854  1.1961
41197SOL     OW27952   1.710   5.735   6.168 -0.2516  0.8499  1.1256
41197SOL    HW127953   1.743   5.647   6.188 -1.4985  0.3086  0.8653
41197SOL    HW227954   1.754   5.758   6.086  1.2014  1.1026  1.9264
41198SOL     OW27955   6.621   9.133   1.652 -0.2322 -0.1904 -0.1945
41198SOL    HW127956   6.601   9.055   1.599 -0.7212 -0.0333 -0.2469
41198SOL    HW227957   6.700   9.109   1.701 -0.9418 -1.1011  0.5422
41199SOL     OW27958   0.315   7.052   6.597 -0.4451  0.2831  0.5170
41199SOL    HW127959   0.404   7.067   6.565 -0.7535 -0.0099 -0.5197
41199SOL    HW227960   0.277   7.139   6.607 -1.5059  0.4664 -3.3749
41200SOL     OW27961  10.833   1.934   4.458 -0.4975  0.6019 -0.4200
41200SOL    HW127962  10.772   1.981   4.515  2.5829  3.0376  1.2123
41200SOL    HW227963  10.865   2.002   4.398  2.0850  0.0209  0.1887
41201SOL     OW27964   4.755   8.862   4.233 -0.1513 -0.4181 -0.0434
41201SOL    HW127965   4.680   8.860   4.173 -1.1383 -0.0037  1.1379
41201SOL    HW227966   4.766   8.771   4.260 -1.8599 -0.1608  1.6958
41202SOL     OW27967   8.767   6.516   3.851 -0.1525 -0.3531 -0.0760
41202SOL    HW127968   8.680   6.553   3.861 -0.8072 -0.3985 -3.9100
41202SOL    HW227969   8.753   6.421   3.856 -0.3003 -0.3482 -0.3433
41203SOL     OW27970   9.554   5.609   0.285 -0.4612 -0.0163 -0.3001
41203SOL    HW127971   9.488   5.651   0.230 -1.4057 -1.3410 -0.2176
41203SOL    HW227972   9.525   5.518   0.293  1.4334 -0.6818 -0.3624
41204SOL     OW27973   4.171   7.118   8.591 -0.3832  0.0813 -0.5707
41204SOL    HW127974   4.151   7.208   8.618  0.1330 -0.2099  0.8496
41204SOL    HW227975   4.086   7.081   8.566 -1.0451  0.1407  1.4305
41205SOL     OW27976  10.218   9.661   9.410 -0.4655 -0.2607 -0.4205
41205SOL    HW127977  10.265   9.597   9.357 -0.6360 -0.1095 -0.7544
41205SOL    HW227978  10.231   9.631   9.500  1.2323  0.4034 -0.3938
41206SOL     OW27979   9.850   0.672   0.074 -0.2385  0.3039 -0.1661
41206SOL    HW127980   9.868   0.755   0.031  0.4771  1.3450  2.0078
41206SOL    HW227981   9.842   0.693   0.167 -0.7910 -1.9563  0.3857
41207SOL     OW27982  10.526   0.754   9.562 -0.7780  0.3791  0.5725
41207SOL    HW127983  10.459   0.690   9.585 -0.2353  0.3604  2.2031
41207SOL    HW227984  10.557   0.726   9.476 -1.2394 -0.9567  0.8208
41208SOL     OW27985   8.322   2.166   6.516  0.4147 -0.6670 -0.2649
41208SOL    HW127986   8.238   2.187   6.475 -0.0512 -0.5759  0.7166
41208SOL    HW227987   8.366   2.250   6.526 -0.4697 -0.3675  1.5335
41209SOL     OW27988   1.417  11.040  10.946  0.3249 -0.0235 -0.2597
41209SOL    HW127989   1.436  10.974  10.879  0.5553  0.6444 -0.8730
41209SOL    HW227990   1.489  11.032  11.009 -0.7932 -1.8245  0.8739
41210SOL     OW27991   3.138   3.599   5.093  0.4082 -0.3902 -1.1056
41210SOL    HW127992   3.185   3.656   5.032 -0.4943  1.0186 -0.5178
41210SOL    HW227993   3.201   3.530   5.113  2.6494  1.8505  0.2770
41211SOL     OW27994   2.316   0.330   7.394 -0.4257  0.0995 -0.6677
41211SOL    HW127995   2.410   0.329   7.410 -0.7238 -0.1431  1.2945
41211SOL    HW227996   2.308   0.340   7.299  1.5632  0.0544 -0.8809
41212SOL     OW27997   3.662   0.346   5.746 -0.4423 -0.0668 -0.2337
41212SOL    HW127998   3.601   0.381   5.811  2.0634  0.8466  1.8342
41212SOL    HW227999   3.637   0.388   5.664 -0.8018  2.6461  1.1307
41213SOL     OW28000  10.871   5.910   0.240 -0.6035 -0.1060 -0.4129
41213SOL    HW128001  10.877   5.988   0.185 -0.1503 -0.4550 -0.8610
41213SOL    HW228002  10.900   5.939   0.326 -0.4006  0.2077 -0.5860
41214SOL     OW28003   0.150   8.927   5.786 -0.0488  0.2169  0.5663
41214SOL    HW128004   0.162   8.945   5.693 -3.1220  1.6280  0.3069
41214SOL    HW228005   0.110   8.839   5.788 -0.4662  0.3990  0.4717
41215SOL     OW28006   6.309   1.734   0.413 -0.5312 -0.1603  0.2725
41215SOL    HW128007   6.330   1.825   0.434  0.2127 -0.2289 -0.1474
41215SOL    HW228008   6.385   1.702   0.364 -0.7520 -1.0314  0.4805
41216SOL     OW28009  10.984   7.997   3.241 -0.3599 -0.3735  0.1208
41216SOL    HW128010  11.063   7.943   3.232  0.8548  1.1485  1.0628
41216SOL    HW228011  11.003   8.075   3.190 -1.4457 -0.1500  0.0360
41217SOL     OW28012   0.466  10.886   5.124 -0.1768  0.2107 -0.1542
41217SOL    HW128013   0.514  10.803   5.131  0.0357  0.4096  0.9450
41217SOL    HW228014   0.485  10.932   5.206  1.1334  2.1371 -1.4603
41218SOL     OW28015   5.937  10.628   2.000  0.3078  0.1321 -0.4411
41218SOL    HW128016   5.870  10.689   2.031  1.7005  1.2046  0.5556
41218SOL    HW228017   5.887  10.556   1.962 -1.3971  1.4620 -0.8453
41219SOL     OW28018   1.700   4.440   9.607 -0.6504 -0.1584 -0.2394
41219SOL    HW128019   1.746   4.356   9.607 -0.3576 -0.0090  0.5044
41219SOL    HW228020   1.679   4.456   9.700 -1.8236 -0.0112 -0.5171
41220SOL     OW28021  10.401   6.886   4.328 -0.0082  0.1627  0.2028
41220SOL    HW128022  10.318   6.884   4.281  0.2992  0.5005 -0.3856
41220SOL    HW228023  10.453   6.816   4.289  1.1150  1.9101 -1.7116
41221SOL     OW28024   3.676   2.720   8.652  0.3341  0.0039  0.2580
41221SOL    HW128025   3.594   2.671   8.656  1.1929 -1.4491  1.0734
41221SOL    HW228026   3.655   2.806   8.690 -0.8541 -0.2728  0.2475
41222SOL     OW28027   1.871   7.271   8.404  0.5081  0.3038 -0.6628
41222SOL    HW128028   1.916   7.352   8.428  2.4673 -0.4000 -1.7043
41222SOL    HW228029   1.838   7.287   8.316  0.0947  0.2655 -0.5185
41223SOL     OW28030   5.640   4.108   7.403  0.2660 -0.1494  0.2582
41223SOL    HW128031   5.565   4.151   7.361 -0.1193 -0.7820  0.2847
41223SOL    HW228032   5.679   4.054   7.334 -1.1611 -2.2322  0.9978
41224SOL     OW28033   3.846   2.669   2.885 -0.1269 -0.0808 -1.1326
41224SOL    HW128034   3.770   2.611   2.878 -2.3658  2.7062 -1.6671
41224SOL    HW228035   3.910   2.632   2.824 -0.9848 -2.5337 -0.6595
41225SOL     OW28036   6.420   9.319   8.812 -0.2814 -0.1406  0.0310
41225SOL    HW128037   6.332   9.283   8.812  0.5069 -2.2601 -0.4740
41225SOL    HW228038   6.423   9.378   8.888 -2.5341  1.1985 -0.8456
41226SOL     OW28039   7.419   7.170   3.916  0.4495 -0.3894  0.2712
41226SOL    HW128040   7.448   7.258   3.892 -0.1374 -0.3633 -0.3939
41226SOL    HW228041   7.463   7.112   3.853  1.7353 -0.7108  1.4142
41227SOL     OW28042   1.018   0.355   8.641  0.2366  0.1862  0.5586
41227SOL    HW128043   0.941   0.412   8.633  0.4661  0.2638 -1.9264
41227SOL    HW228044   1.092   0.416   8.640  0.3918 -0.0015  0.3739
41228SOL     OW28045  10.715   1.131   1.884  0.2800 -0.0884  0.6125
41228SOL    HW128046  10.809   1.144   1.896  0.2043 -0.0820  1.2591
41228SOL    HW228047  10.692   1.188   1.811  1.0713 -1.3677 -0.6701
41229SOL     OW28048   3.336   0.479   4.875 -0.1849  0.2242 -0.6429
41229SOL    HW128049   3.279   0.435   4.811  0.2923 -1.8925  0.3112
41229SOL    HW228050   3.423   0.446   4.856  0.1326  0.4384  0.3990
41230SOL     OW28051   6.235   6.345   0.838 -0.4941 -0.4358 -0.5590
41230SOL    HW128052   6.155   6.374   0.882  0.2885  1.3689 -0.2726
41230SOL    HW228053   6.205   6.315   0.752 -1.4721  0.2708 -0.4769
41231SOL     OW28054   9.031   5.001   7.293  0.0847 -0.4883  0.1826
41231SOL    HW128055   9.073   4.917   7.310  0.0500 -0.7446 -0.9547
41231SOL    HW228056   9.006   4.998   7.201 -0.0103  0.7315  0.1503
41232SOL     OW28057   5.909  10.491  11.083 -0.0309 -0.1962  0.1188
41232SOL    HW128058   5.962  10.439  11.023 -1.1197 -0.8270 -0.3141
41232SOL    HW228059   5.848  10.539  11.027 -0.3991 -0.0267  0.6495
41233SOL     OW28060   4.766   8.914   3.907 -0.3881  0.0241  0.3843
41233SOL    HW128061   4.726   8.996   3.937  1.4008  0.1730  2.6385
41233SOL    HW228062   4.730   8.900   3.820 -0.7686  3.2030 -0.0802
41234SOL     OW28063   8.172   5.752   2.019 -0.6420 -0.8139  0.5242
41234SOL    HW128064   8.240   5.791   1.963 -0.9027  1.8190  1.8780
41234SOL    HW228065   8.219   5.719   2.095 -0.7246 -0.0080  0.9393
41235SOL     OW28066   1.840   4.465   8.616  0.4995  0.0292  0.2936
41235SOL    HW128067   1.855   4.480   8.523 -1.0104 -1.1205 -0.1795
41235SOL    HW228068   1.763   4.408   8.619  1.7552 -1.7090  2.1737
41236SOL     OW28069   6.477   5.170  10.987 -0.3900  0.0829 -0.0019
41236SOL    HW128070   6.534   5.120  11.045 -1.0241 -0.5481  0.0966
41236SOL    HW228071   6.526   5.178  10.905  0.2052  0.3362  0.3775
41237SOL     OW28072   8.795  10.744   9.235  0.0734  0.2360  0.0112
41237SOL    HW128073   8.888  10.761   9.220  0.1080 -0.6321 -0.9229
41237SOL    HW228074   8.791  10.650   9.255 -0.8081 -0.3596 -2.4941
41238SOL     OW28075   5.487   5.953   8.462 -0.0930  0.0225 -0.1771
41238SOL    HW128076   5.496   5.922   8.553  0.2394 -0.2108 -0.2870
41238SOL    HW228077   5.513   6.045   8.465 -0.4590  0.1176  0.0364
41239SOL     OW28078   8.600   5.344   1.512  0.5160  0.0899  0.0456
41239SOL    HW128079   8.528   5.391   1.553 -0.2669 -1.0006 -0.0377
41239SOL    HW228080   8.567   5.255   1.499  1.0964  0.1296 -2.0405
41240SOL     OW28081  10.676   8.262   9.216  0.7107  0.4154  0.0581
41240SOL    HW128082  10.678   8.248   9.311 -1.3750 -0.0895  0.0724
41240SOL    HW228083  10.690   8.175   9.179  0.3886  0.4156 -0.0664
41241SOL     OW28084   9.933   3.577   8.411  0.8216  0.1193 -0.4817
41241SOL    HW128085   9.907   3.493   8.374 -1.5967 -1.3276  3.7588
41241SOL    HW228086   9.981   3.554   8.491  2.3414  2.8373 -0.4975
41242SOL     OW28087   5.650   7.601  10.591 -0.0393 -0.3269  0.3198
41242SOL    HW128088   5.592   7.602  10.514  0.7039  1.4437 -0.2715
41242SOL    HW228089   5.591   7.618  10.665 -0.3848  0.8494 -0.2016
41243SOL     OW28090   5.888   1.711   0.877 -0.1925  0.5902 -0.1253
41243SOL    HW128091   5.916   1.720   0.968 -0.7958  2.3994 -0.0752
41243SOL    HW228092   5.798   1.678   0.883 -0.8339  2.2742  0.0385
41244SOL     OW28093   5.666   0.430   4.740 -0.2645 -0.2227 -0.3703
41244SOL    HW128094   5.744   0.485   4.732 -1.0650  0.8327 -1.2358
41244SOL    HW228095   5.694   0.357   4.795  0.8982  0.9552  0.6955
41245SOL     OW28096   6.054   6.345   7.051 -0.0989  0.6135 -0.1617
41245SOL    HW128097   6.124   6.401   7.017  2.0159 -1.1246  1.0554
41245SOL    HW228098   6.070   6.342   7.145 -1.1504 -0.7206 -0.0067
41246SOL     OW28099   2.978   3.595   6.468 -0.2899  0.5317  0.1813
41246SOL    HW128100   2.982   3.689   6.452  2.0882  0.7864  1.8174
41246SOL    HW228101   2.917   3.586   6.541  0.9187  1.0765  1.3089
41247SOL     OW28102   0.633   1.992  10.572 -0.6367 -0.0780 -0.5603
41247SOL    HW128103   0.657   1.900  10.560  0.3802  0.1756 -0.5384
41247SOL    HW228104   0.559   1.989  10.632 -2.7895 -1.0781 -3.0227
41248SOL     OW28105   3.647   4.553  10.187 -0.2569  0.5061  0.2134
41248SOL    HW128106   3.633   4.531  10.279  0.8056  1.5463  0.6473
41248SOL    HW228107   3.631   4.471  10.140  1.3198 -0.6282  1.5305
41249SOL     OW28108   9.683   8.089   5.070 -0.0735 -0.0522 -0.0705
41249SOL    HW128109   9.747   8.160   5.076 -1.5697  1.2416  2.1388
41249SOL    HW228110   9.716   8.022   5.130 -1.2897  1.1204  1.9963
41250SOL     OW28111   3.283  10.791   6.204  0.4176 -0.0982 -0.3814
41250SOL    HW128112   3.276  10.697   6.188  0.1985 -0.3420  1.0613
41250SOL    HW228113   3.282  10.830   6.116  0.1114 -1.4020 -0.9801
41251SOL     OW28114   0.987   6.765   6.037  0.2240  0.0755 -0.2820
41251SOL    HW128115   1.024   6.818   5.967 -0.0508 -0.4457 -0.8342
41251SOL    HW228116   0.928   6.704   5.992 -2.6548  1.9757  0.6684
41252SOL     OW28117   9.338   4.511   9.862 -0.2374 -0.5180 -0.3691
41252SOL    HW128118   9.353   4.479   9.773  1.1190  0.4445 -0.5144
41252SOL    HW228119   9.421   4.550   9.888 -1.1931  1.0039  0.5629
41253SOL     OW28120   0.053   3.498  11.084 -0.1855  0.3193 -0.2103
41253SOL    HW128121  -0.005   3.572  11.066 -0.6224 -0.0554 -0.3649
41253SOL    HW228122   0.085   3.514  11.173 -0.5183  0.5347 -0.1266
41254SOL     OW28123   4.264   7.617   7.510 -0.5954 -0.2184 -0.1222
41254SOL    HW128124   4.344   7.668   7.499  0.1980 -1.0561  1.5033
41254SOL    HW228125   4.193   7.682   7.504  0.3274  0.9321  0.9080
41255SOL     OW28126   1.934   1.810   3.259  0.2307  0.0549  0.3073
41255SOL    HW128127   1.863   1.813   3.323  0.7810 -1.0938  1.0156
41255SOL    HW228128   1.974   1.723   3.272  0.9600  0.1828 -0.9388
41256SOL     OW28129   6.846   9.695   7.156  0.0658 -0.0950 -0.2105
41256SOL    HW128130   6.939   9.675   7.150  0.1830  0.3656  0.0465
41256SOL    HW228131   6.839   9.787   7.129 -0.4399 -0.4015 -1.1811
41257SOL     OW28132   2.869   1.754   6.340  0.1334  0.3905  0.1954
41257SOL    HW128133   2.927   1.829   6.322 -0.1478  0.9457  1.4616
41257SOL    HW228134   2.859   1.755   6.435  0.0104 -1.1946  0.2170
41258SOL     OW28135  11.022   3.518   2.710 -0.2951  0.4656  0.2413
41258SOL    HW128136  11.109   3.499   2.676  0.6732  2.6647  1.2948
41258SOL    HW228137  11.038   3.553   2.798 -2.1965  1.5205  0.2197
41259SOL     OW28138   5.607   5.454   4.651  0.1681 -0.2843  0.2114
41259SOL    HW128139   5.687   5.422   4.694  0.2882 -0.2078  0.0466
41259SOL    HW228140   5.548   5.476   4.723  1.0094  1.5176  0.4150
41260SOL     OW28141   4.922   0.910   5.552  0.5655 -0.2620 -0.4039
41260SOL    HW128142   4.954   0.823   5.528  1.4841 -0.0979  0.2073
41260SOL    HW228143   4.967   0.930   5.634  0.7093  0.9920 -0.7838
41261SOL     OW28144   5.096   6.561   3.631  0.4140  0.5525 -0.5111
41261SOL    HW128145   5.111   6.611   3.550  1.4338 -0.2639 -0.8474
41261SOL    HW228146   5.003   6.540   3.629  0.5045  0.1765 -1.7147
41262SOL     OW28147   5.048   8.532   5.966 -0.5529  0.3451 -0.1338
41262SOL    HW128148   4.977   8.483   5.925  0.1036 -1.2093  0.4772
41262SOL    HW228149   5.122   8.470   5.967  0.4119  1.4560  0.4369
41263SOL     OW28150  10.243   6.708   0.068  0.4910 -0.0071  0.2841
41263SOL    HW128151  10.193   6.760   0.005  1.0724  0.4143  0.1681
41263SOL    HW228152  10.330   6.701   0.029  1.2071  1.2512  1.5682
41264SOL     OW28153   0.443   1.217   2.127 -0.1001 -0.4267 -0.0466
41264SOL    HW128154   0.514   1.276   2.103 -0.7122 -0.2281 -1.4337
41264SOL    HW228155   0.484   1.153   2.186  0.4087  1.7609  2.1506
41265SOL     OW28156   6.515   3.891   8.970  0.1451  0.1594  0.0584
41265SOL    HW128157   6.610   3.900   8.960  0.3130 -0.9489  0.4365
41265SOL    HW228158   6.505   3.833   9.046 -0.8024 -0.6135 -0.6301
41266SOL     OW28159   4.828   4.133  10.279 -0.3162  0.1500 -0.2603
41266SOL    HW128160   4.862   4.126  10.368 -0.8629  0.4603 -0.0284
41266SOL    HW228161   4.736   4.155  10.289 -0.8147 -1.5324 -0.8834
41267SOL     OW28162   2.377   6.071   9.763  0.0080 -0.0321 -0.4625
41267SOL    HW128163   2.370   6.159   9.725  0.6962  0.3699  0.3068
41267SOL    HW228164   2.471   6.052   9.764 -0.1374 -0.7987 -0.6530
41268SOL     OW28165   6.337   3.109   6.148  0.1408 -0.0426 -0.2980
41268SOL    HW128166   6.325   3.115   6.243 -0.5090  1.6869 -0.4515
41268SOL    HW228167   6.432   3.118   6.135  0.2614 -0.5397  0.1768
41269SOL     OW28168   9.827   2.977   7.307  0.6565  0.3637 -0.2907
41269SOL    HW128169   9.872   3.057   7.335  0.2730  0.6270 -0.4180
41269SOL    HW228170   9.812   2.928   7.388 -1.2790  1.5466  0.1382
41270SOL     OW28171  10.248   3.861   5.381  0.0808  0.4105  0.1092
41270SOL    HW128172  10.244   3.927   5.311  1.2259 -0.2724 -0.6288
41270SOL    HW228173  10.157   3.837   5.397 -0.2218  0.8709 -0.8606
41271SOL     OW28174   4.458   6.703   0.817 -0.0005  0.5206  0.1513
41271SOL    HW128175   4.496   6.784   0.853  1.5770 -0.2199  0.2228
41271SOL    HW228176   4.396   6.674   0.885 -0.5234  1.6078  0.1598
41272SOL     OW28177   4.377   7.800   5.928  0.5043  0.0062  0.2193
41272SOL    HW128178   4.322   7.745   5.984  0.6015 -0.0805  0.2298
41272SOL    HW228179   4.365   7.763   5.840 -0.8908  1.1120 -0.0885
41273SOL     OW28180  10.888  10.569  10.080 -0.1108  0.0011  0.3687
41273SOL    HW128181  10.982  10.569  10.099 -0.0832  0.1880  0.2359
41273SOL    HW228182  10.880  10.523   9.997 -0.0164  0.9629 -0.1859
41274SOL     OW28183  10.270   7.565   9.314  0.2082 -1.0364  0.5356
41274SOL    HW128184  10.223   7.486   9.286 -0.3535 -0.8870  1.0490
41274SOL    HW228185  10.352   7.532   9.351  1.3321 -1.2197 -1.8782
41275SOL     OW28186   1.584   1.330   4.524  0.0341  0.8008  0.3530
41275SOL    HW128187   1.501   1.310   4.568  0.0468 -0.7332 -0.2319
41275SOL    HW228188   1.561   1.335   4.431  0.9532 -2.6157 -0.2005
41276SOL     OW28189   9.066   9.872   6.522 -0.1450 -0.5709  0.3357
41276SOL    HW128190   9.043   9.779   6.514 -0.5274 -0.5298  0.8491
41276SOL    HW228191   9.033   9.912   6.442 -1.3707 -0.6256  0.7814
41277SOL     OW28192   8.661   1.920   3.518  0.4955  0.4210  0.3409
41277SOL    HW128193   8.746   1.961   3.534  1.9221 -1.6147 -1.4238
41277SOL    HW228194   8.676   1.862   3.444 -2.5797  0.2639 -0.2932
41278SOL     OW28195   8.179   6.952   4.678 -0.0260 -0.1529  0.0760
41278SOL    HW128196   8.210   6.867   4.711  0.1559  0.8393  2.7192
41278SOL    HW228197   8.253   7.011   4.692 -1.4170  1.2523  2.0892
41279SOL     OW28198   5.962   9.814   4.605  0.8109  0.2524  0.6650
41279SOL    HW128199   5.897   9.883   4.618  0.4038  0.1171 -0.5547
41279SOL    HW228200   6.017   9.845   4.534  0.3773 -0.8262 -0.1794
41280SOL     OW28201   5.416  10.359   1.888  0.4002  0.5450  0.1877
41280SOL    HW128202   5.419  10.279   1.834 -1.0321  0.2519  0.5139
41280SOL    HW228203   5.452  10.332   1.972 -1.5185 -0.2206  0.8168
41281SOL     OW28204   2.883   0.139   6.793  0.4012  0.9347 -0.2760
41281SOL    HW128205   2.940   0.116   6.866  1.4703 -0.0171 -1.3549
41281SOL    HW228206   2.819   0.067   6.789  0.7381  0.6518 -0.6565
41282SOL     OW28207   0.507   8.701  10.057  0.1575  0.2459  0.0022
41282SOL    HW128208   0.557   8.722  10.136  0.5438  0.2147 -0.2327
41282SOL    HW228209   0.571   8.704   9.987 -0.2121  0.3963 -0.3315
41283SOL     OW28210   8.821   7.186   8.686 -0.2901 -0.1864 -0.8649
41283SOL    HW128211   8.842   7.110   8.740  0.1389  0.9569  0.6322
41283SOL    HW228212   8.902   7.204   8.638  1.2387  2.0137  2.1963
41284SOL     OW28213  10.980   6.452   5.207 -0.3271 -0.6244 -0.1002
41284SOL    HW128214  11.008   6.541   5.229  2.0397 -1.4381  0.5333
41284SOL    HW228215  10.904   6.464   5.150 -0.9915  1.7534  1.1396
41285SOL     OW28216   9.597   8.902   0.007  0.3142  0.2636  0.2519
41285SOL    HW128217   9.596   8.904  -0.088 -1.3135 -1.3422  0.1743
41285SOL    HW228218   9.543   8.976   0.034 -0.7921 -0.3683 -0.1642
41286SOL     OW28219   7.601   5.229   3.333  0.1576  0.1930 -0.1461
41286SOL    HW128220   7.616   5.320   3.358  1.6508  0.3688 -1.5548
41286SOL    HW228221   7.506   5.221   3.328  0.0136  1.8192 -0.4587
41287SOL     OW28222   0.203   2.298   6.512 -0.4235  0.3687 -0.1039
41287SOL    HW128223   0.137   2.355   6.552  0.3773  0.3705  1.2766
41287SOL    HW228224   0.275   2.357   6.489 -0.4237  0.1969 -0.5659
41288SOL     OW28225   6.026   6.780   2.163 -0.4235  0.1109  0.6922
41288SOL    HW128226   6.104   6.821   2.124 -1.3182  2.2098  1.0233
41288SOL    HW228227   5.991   6.726   2.092 -0.2415  1.3867 -0.4272
41289SOL     OW28228   3.958   8.702   6.454 -0.0436 -0.6833  0.5208
41289SOL    HW128229   3.889   8.721   6.518 -0.0158  1.8572 -0.1266
41289SOL    HW228230   4.039   8.705   6.504  0.1831  3.2546  0.2039
41290SOL     OW28231   9.181   6.264   5.382 -0.1028 -0.4480 -0.0994
41290SOL    HW128232   9.148   6.275   5.293 -0.7953  0.1221  0.2178
41290SOL    HW228233   9.191   6.169   5.392 -1.0470 -0.5969 -0.4254
41291SOL     OW28234   9.508   5.324   0.211 -0.3642  0.4438  0.3865
41291SOL    HW128235   9.452   5.295   0.140  1.8083  0.2074 -1.3328
41291SOL    HW228236   9.467   5.289   0.290 -2.1542 -0.3862 -0.8427
41292SOL     OW28237   8.778   0.301   0.019 -0.2145 -0.0822 -0.4546
41292SOL    HW128238   8.770   0.385   0.065 -0.3580 -1.1268  1.5330
41292SOL    HW228239   8.801   0.325  -0.071 -1.4852  2.1198 -0.2610
41293SOL     OW28240   2.250   4.831   0.528  0.0062  0.7862  0.3319
41293SOL    HW128241   2.261   4.863   0.618  0.9849 -0.9323  0.8709
41293SOL    HW228242   2.156   4.817   0.518 -0.0947  0.8794  1.1287
41294SOL     OW28243  10.804   4.941   4.329  0.0228  0.3586  0.1532
41294SOL    HW128244  10.725   4.993   4.339 -0.2676  0.4835 -2.2098
41294SOL    HW228245  10.775   4.850   4.339 -0.6570  0.3425 -1.5718
41295SOL     OW28246   5.550   5.686   0.949  0.0051  0.4520  0.1002
41295SOL    HW128247   5.497   5.634   1.009  0.0927  0.7829  0.4684
41295SOL    HW228248   5.574   5.764   0.999 -0.4779  1.0515 -0.5694
41296SOL     OW28249   5.685   0.801   6.819  0.7641  0.9692 -0.5759
41296SOL    HW128250   5.707   0.892   6.799  2.7359  0.8864  0.9296
41296SOL    HW228251   5.593   0.793   6.793  0.4813  3.4115 -0.6172
41297SOL     OW28252   7.245   4.955   4.963  0.2630 -0.3576 -0.2484
41297SOL    HW128253   7.233   4.979   5.055 -1.9699 -0.0313 -0.5832
41297SOL    HW228254   7.246   4.860   4.963 -0.9875 -0.3891  0.0084
41298SOL     OW28255   9.307   2.113   7.001  0.7887 -0.2687  0.0562
41298SOL    HW128256   9.401   2.098   6.992  0.5330 -0.6990 -2.8600
41298SOL    HW228257   9.285   2.171   6.929 -1.0369  0.7671  1.3691
41299SOL     OW28258   4.205   6.717   9.970  0.0931 -0.4439  0.2347
41299SOL    HW128259   4.274   6.704   9.904  0.0169  0.7617 -0.1058
41299SOL    HW228260   4.234   6.795  10.019 -0.7262 -0.2908  0.4807
41300SOL     OW28261   9.544  10.194   8.184  0.2244  0.0269 -0.3636
41300SOL    HW128262   9.595  10.114   8.173 -1.1648 -0.8516 -0.6038
41300SOL    HW228263   9.537  10.205   8.279  2.2120  1.0955 -0.2665
41301SOL     OW28264   6.869   0.582   2.614  0.0178  0.1695  0.1634
41301SOL    HW128265   6.952   0.537   2.599 -0.1959 -0.0131 -0.4855
41301SOL    HW228266   6.804   0.527   2.570 -0.6388 -0.3961  1.7823
41302SOL     OW28267   8.499  10.835   3.721  0.2348  0.8341  0.9716
41302SOL    HW128268   8.537  10.748   3.732 -1.4282 -0.1844 -0.6849
41302SOL    HW228269   8.442  10.846   3.797 -0.2515  0.0469  0.7372
41303SOL     OW28270   8.032   7.428   3.719  0.0720 -0.2056 -0.1038
41303SOL    HW128271   8.035   7.520   3.692 -0.6024 -0.3970 -0.8744
41303SOL    HW228272   7.974   7.386   3.655 -1.5042 -0.7152  1.5682
41304SOL     OW28273   7.262   4.686   1.686  0.3580  0.0902 -0.2481
41304SOL    HW128274   7.215   4.747   1.629 -0.2307 -0.6370 -0.5624
41304SOL    HW228275   7.307   4.742   1.749  1.0878  0.9190 -1.4597
41305SOL     OW28276   0.500   7.085   3.929 -0.6848 -0.4861 -0.3339
41305SOL    HW128277   0.445   7.143   3.877 -1.0596 -1.2424 -0.7971
41305SOL    HW228278   0.583   7.080   3.881 -1.1639 -1.4860 -1.0664
41306SOL     OW28279   0.483   2.468   3.004 -0.2566 -0.0047 -0.8211
41306SOL    HW128280   0.426   2.444   3.077  1.6055  0.1791  0.7863
41306SOL    HW228281   0.540   2.391   2.992  2.0377  1.3449  0.6257
41307SOL     OW28282   4.922   1.225   7.957 -0.0373  0.4236 -0.4517
41307SOL    HW128283   5.015   1.244   7.948  0.2590 -0.4843  0.3996
41307SOL    HW228284   4.912   1.202   8.050 -0.7068 -1.4650 -0.9482
41308SOL     OW28285   7.143   5.237   9.672  0.0126  0.1735  0.5752
41308SOL    HW128286   7.161   5.157   9.723 -1.1196  0.5348  1.5832
41308SOL    HW228287   7.177   5.218   9.585 -0.6649 -1.6039  0.6598
41309SOL     OW28288   2.864   4.247   9.925 -0.5422 -0.3312  0.0774
41309SOL    HW128289   2.794   4.271   9.986 -0.3929  0.7304 -0.1433
41309SOL    HW228290   2.876   4.325   9.871  0.3357 -0.7469 -0.3461
41310SOL     OW28291   9.884   3.645   2.955  0.8396 -0.3134 -0.0603
41310SOL    HW128292   9.800   3.681   2.925  0.6135  1.3966  2.3474
41310SOL    HW228293   9.950   3.691   2.904  0.3948  0.3524 -0.0462
41311SOL     OW28294   7.339   0.603   1.309 -0.7726  0.6122 -0.0535
41311SOL    HW128295   7.431   0.585   1.288 -1.0581 -1.0873 -0.0395
41311SOL    HW228296   7.310   0.524   1.356 -2.0099  1.4786  0.6819
41312SOL     OW28297   4.991   7.343   3.764  0.6003 -0.2201 -0.2821
41312SOL    HW128298   4.910   7.361   3.812  2.0199  0.4150  2.0463
41312SOL    HW228299   4.963   7.329   3.673 -1.9456  1.3761  0.1625
41313SOL     OW28300   4.079  10.306   9.532 -0.2824  0.0386 -0.0397
41313SOL    HW128301   4.032  10.336   9.610  1.3335 -0.5514  1.2182
41313SOL    HW228302   4.093  10.386   9.481  1.7844  1.1695  2.0555
41314SOL     OW28303   3.868   2.663   9.824 -0.3535  0.2367  0.5157
41314SOL    HW128304   3.935   2.595   9.835 -0.1102  0.2105 -0.9259
41314SOL    HW228305   3.787   2.615   9.810 -0.0714  0.1893 -1.1738
41315SOL     OW28306  10.576   3.597   8.697  0.2818 -0.5457 -0.1244
41315SOL    HW128307  10.637   3.608   8.624  0.4151  0.5667  0.1391
41315SOL    HW228308  10.626   3.551   8.764  0.9575  0.6554  0.2226
41316SOL     OW28309   6.012   2.077  10.197  0.4194 -0.0083  0.3177
41316SOL    HW128310   5.943   2.131  10.236 -0.7711  1.6720 -3.6092
41316SOL    HW228311   5.966   2.000  10.164  0.9072 -0.1514 -0.0328
41317SOL     OW28312   1.188   3.368   8.548 -0.4055  0.8226  0.1307
41317SOL    HW128313   1.152   3.434   8.607  1.0230  0.2928  1.6669
41317SOL    HW228314   1.112   3.329   8.505 -1.5041  1.0733  1.7879
41318SOL     OW28315  10.687   4.736   5.094  0.0041 -0.3795 -0.2422
41318SOL    HW128316  10.706   4.828   5.112  1.0739 -0.2299 -1.8549
41318SOL    HW228317  10.762   4.688   5.130 -0.8103 -0.6933  1.0761
41319SOL     OW28318   0.015   8.206   6.715 -0.2866  0.1821 -0.2707
41319SOL    HW128319   0.084   8.203   6.782 -0.6628  0.6450  0.1482
41319SOL    HW228320   0.046   8.271   6.652 -2.1418  3.6247  2.0266
41320SOL     OW28321   5.522   6.757  10.279 -0.3532 -0.2663 -0.2838
41320SOL    HW128322   5.602   6.735  10.230  0.9968  0.9679  1.2367
41320SOL    HW228323   5.528   6.852  10.291 -2.3106 -0.0855 -0.5028
41321SOL     OW28324   0.833  10.126   2.256  0.2950  0.2681  0.1676
41321SOL    HW128325   0.888  10.090   2.186  0.5915  1.6079 -0.3166
41321SOL    HW228326   0.744  10.099   2.234  0.7438 -2.2371  1.1491
41322SOL     OW28327   3.423   6.004   1.269  0.1756 -0.1405  0.2968
41322SOL    HW128328   3.487   6.070   1.298  0.3339 -0.4828  0.7458
41322SOL    HW228329   3.365   6.051   1.209 -0.8150  0.8800  1.9721
41323SOL     OW28330   9.773   3.102   9.888 -0.0135 -0.2960 -0.0339
41323SOL    HW128331   9.762   3.061   9.802  0.5146  0.2176 -0.3568
41323SOL    HW228332   9.685   3.130   9.913 -0.4578 -1.9979  0.3995
41324SOL     OW28333   6.313   8.574   4.884  0.1833  0.1436  0.2253
41324SOL    HW128334   6.245   8.633   4.916  0.0172  0.8575 -1.3334
41324SOL    HW228335   6.276   8.537   4.804  1.3790  0.0782 -0.3227
41325SOL     OW28336   0.365   7.876   5.626 -0.0133 -0.9084 -0.2944
41325SOL    HW128337   0.342   7.850   5.537  0.5151  0.4174 -0.8468
41325SOL    HW228338   0.460   7.888   5.624  0.2468 -2.4957  0.9143
41326SOL     OW28339   7.441   4.002   7.818 -0.3038 -0.3811 -0.1675
41326SOL    HW128340   7.508   4.024   7.752 -0.9467 -0.7817 -0.9746
41326SOL    HW228341   7.486   3.945   7.880  0.0523 -0.8519 -0.8403
41327SOL     OW28342   4.384   4.982   8.322 -0.0343 -0.8883  0.1618
41327SOL    HW128343   4.393   5.077   8.311  0.2116 -1.1252 -2.2555
41327SOL    HW228344   4.370   4.970   8.416 -0.5820  1.5632  0.4618
41328SOL     OW28345   1.821   3.496   3.676 -0.6233  0.4502 -0.0918
41328SOL    HW128346   1.826   3.522   3.584 -1.5123  0.1894 -0.2297
41328SOL    HW228347   1.912   3.486   3.704 -0.3515  0.2599 -1.0202
41329SOL     OW28348   3.331   7.772   1.204 -0.0119  0.4576 -0.2284
41329SOL    HW128349   3.363   7.835   1.139 -0.1978  0.6470 -0.1416
41329SOL    HW228350   3.236   7.784   1.203  0.0697  1.6925  1.2842
41330SOL     OW28351   7.533   3.991   0.564  0.2480  0.1638 -0.0081
41330SOL    HW128352   7.473   3.918   0.578 -1.1115  1.2001 -0.2162
41330SOL    HW228353   7.478   4.069   0.569  1.7615  1.2320  0.8681
41331SOL     OW28354   7.150   0.620   0.929 -0.2958  0.1502  0.6287
41331SOL    HW128355   7.183   0.582   0.848 -1.6157 -1.8407  0.9448
41331SOL    HW228356   7.100   0.697   0.900  1.7433  1.2526 -0.1175
41332SOL     OW28357   3.433   0.994   8.877 -0.3066 -0.6013  0.2590
41332SOL    HW128358   3.492   1.069   8.885 -0.6698 -0.2560 -0.2644
41332SOL    HW228359   3.384   0.993   8.959 -1.7876  1.0191 -0.5464
41333SOL     OW28360   4.110   9.692   6.057  0.0494 -0.0089  0.6669
41333SOL    HW128361   4.143   9.672   6.144 -0.5967 -0.5142  0.8001
41333SOL    HW228362   4.185   9.732   6.012  0.3432  0.3880  1.4876
41334SOL     OW28363   6.861   1.959   7.432  0.3018 -0.4606  0.5905
41334SOL    HW128364   6.925   1.893   7.457  0.0901 -0.8013  0.2342
41334SOL    HW228365   6.908   2.042   7.443  0.1840 -0.5650  2.2314
41335SOL     OW28366   6.601   8.876   0.845  0.0944 -0.1398 -0.1866
41335SOL    HW128367   6.547   8.845   0.772  0.2035 -1.9101  0.4268
41335SOL    HW228368   6.691   8.859   0.817  0.2154  0.4772 -0.1881
41336SOL     OW28369  11.084  10.292   9.393  0.0333  0.3016 -0.0821
41336SOL    HW128370  11.142  10.244   9.334  1.8586  0.8229  1.1848
41336SOL    HW228371  11.061  10.371   9.345 -0.8549 -0.5756 -1.1630
41337SOL     OW28372   0.221   6.517   6.389 -1.3507  0.0970 -0.3315
41337SOL    HW128373   0.246   6.609   6.403  1.1754 -0.6086  0.1883
41337SOL    HW228374   0.164   6.496   6.463 -0.0598  0.6154  0.8523
41338SOL     OW28375   6.974  10.159   8.132 -0.0164  0.3652 -0.4780
41338SOL    HW128376   6.909  10.227   8.112 -1.9636 -1.3238 -0.2829
41338SOL    HW228377   7.046  10.176   8.071 -1.1722  1.5971 -1.5780
41339SOL     OW28378  10.934  10.697   8.825 -0.2892 -0.5158 -0.3267
41339SOL    HW128379  11.016  10.647   8.820 -0.7421 -1.3314  0.1191
41339SOL    HW228380  10.868  10.631   8.846 -0.7118  0.4635  1.6481
41340SOL     OW28381   6.651  10.075   9.798  0.5562  0.0325 -0.5676
41340SOL    HW128382   6.731  10.061   9.849  2.5959  1.6644 -3.0952
41340SOL    HW228383   6.618   9.987   9.780 -0.0518 -0.6356  3.0336
41341SOL     OW28384   2.920   2.938   5.021  0.3573 -0.0314  0.2100
41341SOL    HW128385   2.978   3.006   5.056 -0.0383  0.7663 -0.6246
41341SOL    HW228386   2.934   2.941   4.926 -1.2582  0.3986 -0.0525
41342SOL     OW28387   9.488  10.335   3.052 -0.0376  0.0868  0.5325
41342SOL    HW128388   9.408  10.345   3.103 -2.2295 -0.4591 -2.5681
41342SOL    HW228389   9.503  10.421   3.014  0.1585 -0.1282  0.1248
41343SOL     OW28390   4.274   3.398   2.844 -0.0631 -0.3596  0.1490
41343SOL    HW128391   4.258   3.304   2.848 -0.8683 -0.1880  3.1287
41343SOL    HW228392   4.362   3.409   2.880 -0.8039  0.1210  1.9399
41344SOL     OW28393   8.022   4.519   6.147 -0.0846 -0.3267  0.0595
41344SOL    HW128394   7.990   4.608   6.138  1.9178  0.4548  0.0743
41344SOL    HW228395   7.962   4.477   6.208 -1.4540  0.7906 -0.4733
41345SOL     OW28396   2.698   0.348   6.726 -0.1371  0.3082  0.0172
41345SOL    HW128397   2.756   0.277   6.697 -1.2033  0.5987 -3.2474
41345SOL    HW228398   2.757   0.413   6.764  1.0699 -1.4633  1.3336
41346SOL     OW28399   9.385   6.729   9.082  0.3292 -0.0527  0.1378
41346SOL    HW128400   9.408   6.652   9.029  0.4722 -0.6433  1.0290
41346SOL    HW228401   9.382   6.696   9.172  1.4255  1.2050  0.6712
41347SOL     OW28402   1.023   9.196   6.492  0.2761 -0.2615  0.0259
41347SOL    HW128403   1.104   9.176   6.446  1.0706  1.3942  0.5842
41347SOL    HW228404   1.030   9.148   6.574  1.4718  1.0191  0.7363
41348SOL     OW28405   5.644   2.032   4.828  0.0281 -0.2883  0.3333
41348SOL    HW128406   5.578   1.990   4.773 -1.7488  1.9882  0.5775
41348SOL    HW228407   5.631   1.993   4.914 -0.8388 -0.0811  0.3110
41349SOL     OW28408   5.080   3.477   1.997  0.5069 -0.0113 -0.1448
41349SOL    HW128409   5.152   3.530   1.964  0.9306 -0.1112  0.5966
41349SOL    HW228410   5.016   3.541   2.029 -0.9627  0.1932 -3.1426
41350SOL     OW28411   3.143   7.510   4.560  0.0206  0.0509 -0.1163
41350SOL    HW128412   3.057   7.482   4.590 -0.9667  0.4487 -2.4083
41350SOL    HW228413   3.159   7.461   4.480  1.1583  1.2393 -0.6705
41351SOL     OW28414   5.741   4.243   1.789  0.1063 -0.5220 -0.0915
41351SOL    HW128415   5.820   4.289   1.759  0.7133 -0.6563  1.2351
41351SOL    HW228416   5.674   4.311   1.793 -0.1258 -0.5621 -2.0543
41352SOL     OW28417   6.027   1.535   5.568 -0.2129  0.0816  0.3836
41352SOL    HW128418   5.954   1.505   5.514 -1.0219 -0.9049  1.9280
41352SOL    HW228419   6.070   1.454   5.597  1.2077  0.6376 -0.1109
41353SOL     OW28420   4.924   7.295   4.227  0.4359 -0.2190 -0.2624
41353SOL    HW128421   4.997   7.236   4.205  1.4580  0.9930 -0.1881
41353SOL    HW228422   4.957   7.382   4.208 -0.1292  0.5774  2.0863
41354SOL     OW28423   3.672   7.637   2.064 -0.5052 -0.0830 -0.4554
41354SOL    HW128424   3.580   7.653   2.083 -0.6237  1.7984 -2.1590
41354SOL    HW228425   3.719   7.680   2.135 -0.9396 -0.3623  0.0051
41355SOL     OW28426   7.348   0.503   5.254  0.7346 -0.9656 -0.1407
41355SOL    HW128427   7.328   0.597   5.250  1.2966 -0.8757 -1.0248
41355SOL    HW228428   7.293   0.463   5.188  0.2280 -1.3244  0.4820
41356SOL     OW28429   3.318   8.113   9.391 -0.0411 -0.1707 -0.7446
41356SOL    HW128430   3.317   8.027   9.348 -0.2645  0.6898 -2.5584
41356SOL    HW228431   3.410   8.138   9.393  0.0120 -0.3941 -0.3244
41357SOL     OW28432   2.794   9.185   1.816 -0.7112  0.0948 -0.2359
41357SOL    HW128433   2.777   9.093   1.797  1.2392 -0.0252 -1.6299
41357SOL    HW228434   2.770   9.232   1.736  2.4420  0.2326 -1.1994
41358SOL     OW28435   2.406  10.251   0.936  0.2546  0.2293  0.3985
41358SOL    HW128436   2.423  10.332   0.888 -2.0481  0.1767 -0.6372
41358SOL    HW228437   2.445  10.265   1.022  3.0588  0.9696 -0.8770
41359SOL     OW28438   6.485   4.953   9.141 -0.3696  0.2234  0.4475
41359SOL    HW128439   6.561   4.920   9.188  1.1822  0.7870 -1.5337
41359SOL    HW228440   6.412   4.939   9.201  0.7931 -2.9875  1.3092
41360SOL     OW28441   8.669   8.020   5.809  0.1142  0.1783 -0.1020
41360SOL    HW128442   8.623   7.958   5.865 -0.6612  0.5203 -0.3499
41360SOL    HW228443   8.758   8.022   5.844 -0.6605  1.3609  1.9709
41361SOL     OW28444   2.292   3.113   3.458 -0.0557  0.0034  0.3242
41361SOL    HW128445   2.336   3.154   3.532 -0.1625  3.0889 -1.1680
41361SOL    HW228446   2.279   3.184   3.395 -1.8401 -2.0289 -1.8000
41362SOL     OW28447   2.619   9.205   4.058  0.3641  0.3005 -0.3419
41362SOL    HW128448   2.613   9.147   4.134 -2.0036 -2.2903 -2.3046
41362SOL    HW228449   2.528   9.226   4.037  1.0387  2.3981 -1.5071
41363SOL     OW28450   6.116  10.354   4.169 -0.0598  0.2064 -0.2532
41363SOL    HW128451   6.098  10.440   4.206 -0.9012  0.8990 -2.1493
41363SOL    HW228452   6.048  10.297   4.206 -0.0554  0.5495  0.2967
41364SOL     OW28453   7.951   3.023   1.815 -0.3755  0.3189  0.5199
41364SOL    HW128454   7.878   3.081   1.840 -1.3366  0.4365 -2.1861
41364SOL    HW228455   7.993   3.068   1.741  0.5072 -1.2148  0.0362
41365SOL     OW28456   9.746  10.032   8.126 -0.1218  0.1930  0.2899
41365SOL    HW128457   9.826  10.030   8.178 -0.8897  0.4132  1.5039
41365SOL    HW228458   9.718   9.940   8.121  0.7804 -0.0342 -1.0850
41366SOL     OW28459   8.850   1.584   2.136  0.0108  0.0696  0.0691
41366SOL    HW128460   8.918   1.561   2.199 -0.4269 -0.8198  0.2383
41366SOL    HW228461   8.790   1.641   2.185  0.6371  0.8818 -0.0908
41367SOL     OW28462   9.173  10.358   9.727  0.0367  0.0691 -0.1096
41367SOL    HW128463   9.227  10.432   9.700 -0.3246  0.1632 -0.5881
41367SOL    HW228464   9.141  10.320   9.646 -2.7815  1.6366  0.1079
41368SOL     OW28465   9.706   2.449   0.349  0.2164  0.4766 -0.4235
41368SOL    HW128466   9.613   2.434   0.330  0.6111 -0.2171 -1.9304
41368SOL    HW228467   9.706   2.515   0.418 -1.3590  2.3433 -2.0925
41369SOL     OW28468   8.331   1.882   7.223  0.4925  0.1759  0.1267
41369SOL    HW128469   8.399   1.815   7.215  0.6592  0.5464 -2.6044
41369SOL    HW228470   8.369   1.960   7.181 -0.9468  0.9276  0.1333
41370SOL     OW28471   9.634  10.477   9.397  0.0572 -0.5631  0.5937
41370SOL    HW128472   9.660  10.497   9.487  0.5559  1.5133  0.0288
41370SOL    HW228473   9.574  10.548   9.373 -0.5012 -1.3926 -0.5352
41371SOL     OW28474   3.958   8.910   9.200 -0.3278  0.1830  0.1113
41371SOL    HW128475   3.887   8.846   9.192  0.5153 -0.7874  0.2782
41371SOL    HW228476   3.968   8.923   9.295 -1.2508  1.4559  0.0726
41372SOL     OW28477   6.847   2.968   2.835 -0.1817 -0.4282 -0.0298
41372SOL    HW128478   6.936   2.939   2.853  0.2472  1.0102  0.3003
41372SOL    HW228479   6.844   2.978   2.740 -0.0974 -0.7866 -0.0729
41373SOL     OW28480   8.080   5.076   8.959  0.4179  0.3559  0.5107
41373SOL    HW128481   8.039   4.992   8.940 -2.0783  1.1336  1.9544
41373SOL    HW228482   8.074   5.125   8.877 -0.2799 -0.0682  0.3008
41374SOL     OW28483   9.899   0.969   3.365 -0.8042  0.4855 -0.2120
41374SOL    HW128484   9.880   1.050   3.411 -0.6392  1.6926 -2.1641
41374SOL    HW228485   9.980   0.938   3.404 -0.3598  1.7759 -0.0666
41375SOL     OW28486   2.186   1.133   3.946 -0.3380 -0.2702 -0.0055
41375SOL    HW128487   2.254   1.108   3.883  1.0429 -0.8644  1.6335
41375SOL    HW228488   2.106   1.096   3.911  0.1765  0.2587 -1.9049
41376SOL     OW28489   4.647   8.891   3.660  0.2913 -0.0056 -0.2437
41376SOL    HW128490   4.671   8.814   3.608  2.1062 -1.1781  2.1322
41376SOL    HW228491   4.651   8.964   3.598  1.6694 -1.3878 -1.8875
41377SOL     OW28492   8.028   3.079   0.362  0.0878 -0.2881  0.1214
41377SOL    HW128493   8.034   3.173   0.380 -0.3945  0.0855 -1.4952
41377SOL    HW228494   8.010   3.074   0.268 -5.8731 -1.7670  0.9511
41378SOL     OW28495   5.951   8.546   9.170  0.5956  0.4313  0.0834
41378SOL    HW128496   5.911   8.474   9.219  0.4418  1.1940  1.1221
41378SOL    HW228497   5.877   8.594   9.133  0.7298 -0.5572 -1.5749
41379SOL     OW28498   8.529   0.171   0.043 -0.1221 -0.0120  0.5355
41379SOL    HW128499   8.621   0.196   0.058 -0.0901 -0.5455  1.2892
41379SOL    HW228500   8.533   0.078   0.022 -0.4048  0.1954 -0.4946
41380SOL     OW28501   9.660   1.740   8.679 -0.4543 -0.2562 -0.6447
41380SOL    HW128502   9.660   1.655   8.723  1.4319 -0.6067 -1.2559
41380SOL    HW228503   9.574   1.778   8.700 -0.4100 -1.2698  1.6188
41381SOL     OW28504   2.056   7.063   6.086  0.2317  0.0423 -0.0144
41381SOL    HW128505   2.041   6.970   6.104  2.4750 -0.5090 -0.6573
41381SOL    HW228506   2.032   7.107   6.167 -1.1370 -1.0331  0.2128
41382SOL     OW28507   4.180   6.139   9.164 -0.2762 -0.3579  0.2745
41382SOL    HW128508   4.257   6.124   9.219  1.6588  1.1643 -1.8307
41382SOL    HW228509   4.198   6.222   9.120 -3.8641  0.8390  0.7780
41383SOL     OW28510   7.063   2.841   8.908 -0.2730 -0.1282 -0.5319
41383SOL    HW128511   7.096   2.805   8.991 -0.6578 -1.8981 -1.1078
41383SOL    HW228512   7.115   2.796   8.841  0.0180  1.2692 -1.2783
41384SOL     OW28513   3.794   3.466   8.386  0.1241 -0.0693 -0.7285
41384SOL    HW128514   3.754   3.505   8.464 -0.8710 -0.5386 -0.9752
41384SOL    HW228515   3.861   3.407   8.421  2.5538  2.6628 -0.3854
41385SOL     OW28516   6.887   9.751   4.445 -0.5043  0.5524 -0.2309
41385SOL    HW128517   6.870   9.703   4.525 -2.1958  2.4625  0.6423
41385SOL    HW228518   6.927   9.833   4.474  0.8214  0.4266 -1.5426
41386SOL     OW28519  10.281   9.050   7.723 -0.3994  0.3743  0.0397
41386SOL    HW128520  10.306   9.083   7.810  0.7469 -2.0152  0.6889
41386SOL    HW228521  10.275   8.956   7.734 -0.0189 -0.0179 -2.5389
41387SOL     OW28522   1.888   2.935   6.551  0.5005  0.3868  0.4183
41387SOL    HW128523   1.892   2.936   6.647  2.5286 -1.6242  0.4350
41387SOL    HW228524   1.888   3.027   6.526 -2.1271  1.0019  2.3482
41388SOL     OW28525   3.284   8.295   6.802  0.6320 -0.4204 -0.9644
41388SOL    HW128526   3.354   8.328   6.745  0.9578  0.3760 -0.1312
41388SOL    HW228527   3.331   8.256   6.876  0.2068 -1.3019 -1.1377
41389SOL     OW28528   9.847   8.438   1.387 -0.0032 -0.1361  0.1205
41389SOL    HW128529   9.819   8.460   1.298 -0.2722  1.8328  0.6324
41389SOL    HW228530   9.838   8.520   1.436 -1.8493 -1.6145  2.4883
41390SOL     OW28531   4.870   5.588   5.110  0.0145  0.4732 -0.0575
41390SOL    HW128532   4.781   5.604   5.078 -0.0721  0.0045 -0.0481
41390SOL    HW228533   4.858   5.544   5.194  0.1998  2.9536  1.3887
41391SOL     OW28534   4.001   6.937   5.441  0.1655 -0.0998 -0.0186
41391SOL    HW128535   4.013   6.868   5.507 -1.3468 -1.3576 -0.9616
41391SOL    HW228536   4.085   6.942   5.396  1.0477  0.3959  1.6190
41392SOL     OW28537   7.240   7.175   9.757  0.0374 -0.3682  0.3651
41392SOL    HW128538   7.189   7.240   9.707  0.0605 -0.4395  0.2492
41392SOL    HW228539   7.195   7.170   9.841  0.7610  0.7293  0.8391
41393SOL     OW28540   7.592   1.757   5.376  0.0862 -0.5026 -0.2801
41393SOL    HW128541   7.590   1.852   5.378  2.5952 -0.1699 -3.6318
41393SOL    HW228542   7.516   1.732   5.323  1.1376 -0.0140 -2.1133
41394SOL     OW28543   7.397   5.956   7.946  0.2086  0.6205 -0.3733
41394SOL    HW128544   7.318   5.924   7.990 -1.6694 -0.2256 -3.9012
41394SOL    HW228545   7.451   5.878   7.934  0.4105  0.7225 -0.1247
41395SOL     OW28546  10.407   6.531  10.136 -0.3614 -0.2167 -0.3348
41395SOL    HW128547  10.417   6.436  10.142  1.9638  0.0013  0.1849
41395SOL    HW228548  10.399   6.560  10.227 -0.9246  0.1238 -0.4827
41396SOL     OW28549   3.728   0.965   8.490  0.1833  0.1599 -0.2072
41396SOL    HW128550   3.737   1.057   8.513  0.0930  0.1624 -0.1818
41396SOL    HW228551   3.807   0.924   8.525  0.9187  0.4650 -1.4672
41397SOL     OW28552   9.376   1.387   7.276 -0.1427  0.4800  0.0894
41397SOL    HW128553   9.385   1.453   7.344 -1.6947  0.0559  0.7565
41397SOL    HW228554   9.363   1.305   7.323  0.7645 -0.1577 -0.7331
41398SOL     OW28555   6.212   1.428   6.521 -0.0717  0.3079 -0.3270
41398SOL    HW128556   6.200   1.477   6.603  1.5823  0.5595 -0.2119
41398SOL    HW228557   6.203   1.336   6.546  1.1960  0.3424  0.3004
41399SOL     OW28558  10.488   2.404   7.752  0.2176 -0.2993 -0.3797
41399SOL    HW128559  10.517   2.359   7.831 -0.0674 -0.1898 -0.2092
41399SOL    HW228560  10.548   2.478   7.743 -1.3045  1.2273  1.2122
41400SOL     OW28561   0.821   9.267   6.119 -0.3652  0.3091 -0.3015
41400SOL    HW128562   0.742   9.215   6.135  1.2605 -2.2681  0.0189
41400SOL    HW228563   0.811   9.298   6.029 -1.6081 -0.2121 -0.3642
41401SOL     OW28564   0.414   5.512   0.197  0.1467  0.3264  0.2928
41401SOL    HW128565   0.376   5.566   0.267 -1.1173  0.6648 -0.6141
41401SOL    HW228566   0.380   5.424   0.214  3.1291 -0.5567  2.4509
41402SOL     OW28567   0.097   6.699   4.394  0.2390 -0.2522  0.2244
41402SOL    HW128568   0.074   6.633   4.329 -0.4535 -0.3631  0.5743
41402SOL    HW228569   0.188   6.722   4.374  0.4430 -1.2103  0.0155
41403SOL     OW28570   9.385   6.897   4.422  0.2084  0.0331 -0.3933
41403SOL    HW128571   9.428   6.978   4.449  1.5283 -1.0861  1.0556
41403SOL    HW228572   9.420   6.880   4.334  0.2650  0.7945 -0.5253
41404SOL     OW28573   6.018   7.041   0.612 -0.3346 -0.2750 -0.3663
41404SOL    HW128574   5.930   7.022   0.646  0.6787 -0.1991  2.6006
41404SOL    HW228575   6.030   7.135   0.629 -0.0217 -0.0596 -1.6841
41405SOL     OW28576   6.389   3.145   0.302  0.2931  0.0703  0.1386
41405SOL    HW128577   6.384   3.070   0.361 -0.6811  0.6077  0.7615
41405SOL    HW228578   6.318   3.203   0.330  1.1578  1.3357 -0.1696
41406SOL     OW28579   4.484   7.947   8.688 -0.4510  0.2993 -0.6608
41406SOL    HW128580   4.434   7.896   8.751  0.6466  0.0817  0.0562
41406SOL    HW228581   4.499   7.888   8.614  1.0989 -0.5642  0.3026
41407SOL     OW28582   7.089   1.218   3.863  0.1285  1.0636 -0.1598
41407SOL    HW128583   7.064   1.134   3.902  1.0588  0.7666 -0.1778
41407SOL    HW228584   7.018   1.239   3.803  0.5411 -0.4301 -1.2290
41408SOL     OW28585   4.111  10.044   0.073 -0.4218  0.3010  0.4569
41408SOL    HW128586   4.082  10.119   0.022  2.5214  2.8255  2.1469
41408SOL    HW228587   4.191  10.014   0.028  0.2776  0.3775  1.6030
41409SOL     OW28588   8.476   0.875   1.386 -0.3522  0.0634 -0.0664
41409SOL    HW128589   8.520   0.955   1.358  0.1629 -0.3858 -0.5539
41409SOL    HW228590   8.420   0.852   1.312  0.0968 -0.4598 -0.2446
41410SOL     OW28591   0.307   4.296   8.816 -0.2501 -0.5678  0.1376
41410SOL    HW128592   0.296   4.366   8.751  0.3595  0.1010  0.7308
41410SOL    HW228593   0.344   4.223   8.766 -2.7255 -1.1914 -0.8966
41411SOL     OW28594   2.182   6.850   2.739 -0.4702 -0.0611  0.6837
41411SOL    HW128595   2.266   6.892   2.757  0.6959 -1.5406 -1.0039
41411SOL    HW228596   2.163   6.799   2.818  0.7472 -0.5325  0.6803
41412SOL     OW28597  10.039   5.406   7.394  0.1829  0.0217  0.0629
41412SOL    HW128598  10.092   5.326   7.386 -0.1687 -0.1913 -0.1904
41412SOL    HW228599  10.100   5.477   7.375  0.3424 -0.2292 -0.3858
41413SOL     OW28600   6.381   8.195   5.401 -0.0952 -0.3026  0.1249
41413SOL    HW128601   6.457   8.154   5.442  0.7076  0.9094 -0.1016
41413SOL    HW228602   6.398   8.289   5.408 -0.4899 -0.0378 -1.9193
41414SOL     OW28603   2.011   4.739   9.362 -0.0238 -0.0313 -0.0954
41414SOL    HW128604   1.969   4.709   9.442  1.7196 -0.7367  0.6008
41414SOL    HW228605   2.048   4.660   9.323  1.4253  0.6634 -0.1913
41415SOL     OW28606   2.030   0.498   2.027  0.0243 -0.4252  0.1270
41415SOL    HW128607   2.123   0.519   2.027 -0.1580  0.4040 -0.8660
41415SOL    HW228608   1.995   0.545   2.103  0.6725 -2.0769  1.5344
41416SOL     OW28609   8.600   0.639   1.473 -0.4164 -0.3269 -0.2124
41416SOL    HW128610   8.547   0.709   1.433 -0.6662 -1.2991 -1.6672
41416SOL    HW228611   8.681   0.639   1.422  0.7417  0.6528  1.5234
41417SOL     OW28612   8.858   5.177   1.002  0.0418  0.0878 -0.1859
41417SOL    HW128613   8.945   5.138   1.007 -0.7740 -1.9378 -0.6807
41417SOL    HW228614   8.824   5.148   0.917 -1.2972  0.4275  0.2089
41418SOL     OW28615   2.257   1.522   3.792 -0.1188 -0.6965 -0.4917
41418SOL    HW128616   2.274   1.559   3.705  1.9371  0.1416  0.2200
41418SOL    HW228617   2.256   1.427   3.778 -1.6833 -0.5468 -1.6997
41419SOL     OW28618   3.321   0.931   5.110  0.3685 -0.0955 -0.5164
41419SOL    HW128619   3.339   0.910   5.018 -0.9394  0.3306 -0.8876
41419SOL    HW228620   3.289   1.021   5.109 -1.7822 -0.7771  0.0463
41420SOL     OW28621   9.842   5.997   6.457 -0.0940  0.2611  0.3805
41420SOL    HW128622   9.856   6.011   6.551 -0.4413  0.7523  0.3635
41420SOL    HW228623   9.905   6.055   6.414  0.3982 -0.3230  0.3083
41421SOL     OW28624   0.296   0.867   5.277  0.7650 -0.0727  0.4679
41421SOL    HW128625   0.361   0.927   5.239  0.0792  0.0273 -0.5657
41421SOL    HW228626   0.311   0.784   5.232 -0.9995  0.4149 -1.1518
41422SOL     OW28627   3.481   2.288   1.889  0.6126  0.0902 -0.1438
41422SOL    HW128628   3.576   2.282   1.896  0.6249  0.2914 -0.1203
41422SOL    HW228629   3.464   2.281   1.795  0.5801 -0.8483 -0.0772
41423SOL     OW28630   7.325   0.991   4.488  0.4753 -0.3727  0.3762
41423SOL    HW128631   7.419   0.976   4.475  0.4972  0.9616 -1.3686
41423SOL    HW228632   7.320   1.077   4.529  0.0074 -0.6045  0.8157
41424SOL     OW28633   5.397   5.606   2.219 -0.0313  0.4107 -0.0538
41424SOL    HW128634   5.378   5.514   2.240  0.7718  0.7635  2.5723
41424SOL    HW228635   5.332   5.656   2.268 -1.3722  1.3154 -2.5551
41425SOL     OW28636   0.358   9.484   2.251  0.5133 -0.0255 -0.2198
41425SOL    HW128637   0.377   9.541   2.326 -1.3506  2.1433 -1.2511
41425SOL    HW228638   0.289   9.425   2.281 -0.2793  0.8875 -0.1783
41426SOL     OW28639   4.323   8.403   1.742  0.1314 -0.0578  0.3286
41426SOL    HW128640   4.267   8.480   1.731  0.6561  0.1943 -0.6730
41426SOL    HW228641   4.409   8.438   1.762  0.5079 -0.3546 -0.7232
41427SOL     OW28642  10.402   0.770   2.098 -0.1326  0.5877 -0.3690
41427SOL    HW128643  10.455   0.754   2.176  0.5577 -3.5549 -1.4408
41427SOL    HW228644  10.465   0.797   2.032 -0.5668  3.0105  0.1183
41428SOL     OW28645   6.294   7.658   0.390 -0.4553 -0.6332  0.0604
41428SOL    HW128646   6.209   7.666   0.433 -0.9027 -2.3023 -0.4174
41428SOL    HW228647   6.358   7.661   0.462 -1.0778 -1.6226  0.6756
41429SOL     OW28648   5.951  10.496   2.921 -0.2328  0.2991 -0.0247
41429SOL    HW128649   5.996  10.425   2.876  0.7248  0.5355  0.5216
41429SOL    HW228650   5.870  10.457   2.953 -1.2260  0.2890 -2.4324
41430SOL     OW28651   8.811   0.446   5.255  0.5065 -0.0406  0.4592
41430SOL    HW128652   8.799   0.520   5.315  0.9313  0.1930  0.2634
41430SOL    HW228653   8.798   0.483   5.168 -1.5628 -0.6873  0.4504
41431SOL     OW28654   9.884   3.740   1.709  0.1788  0.4535  0.2972
41431SOL    HW128655   9.976   3.717   1.721  0.5251  2.0018  0.8704
41431SOL    HW228656   9.841   3.709   1.789  0.0487 -0.8902 -0.2690
41432SOL     OW28657   6.142   8.096   2.231 -0.3018 -0.0934  0.4634
41432SOL    HW128658   6.226   8.141   2.237 -1.0223  1.2093  1.2626
41432SOL    HW228659   6.099   8.115   2.315 -1.8412  0.2345 -0.3663
41433SOL     OW28660   5.942   0.790   3.157 -0.4383 -0.2934 -0.3922
41433SOL    HW128661   5.990   0.720   3.112  1.9639  1.3647 -0.5957
41433SOL    HW228662   5.922   0.753   3.243  0.8137 -1.2562 -0.4781
41434SOL     OW28663   4.612   2.037   2.365 -0.4217  0.5174 -0.2564
41434SOL    HW128664   4.602   2.107   2.429  0.7639  0.7719 -0.3298
41434SOL    HW228665   4.566   1.962   2.404  0.1637  0.7016  0.8338
41435SOL     OW28666   2.456  10.056   6.540  0.1990  0.0642  0.4628
41435SOL    HW128667   2.370  10.093   6.563 -0.3013 -1.3231  1.0304
41435SOL    HW228668   2.436   9.964   6.519  1.1843  0.3796 -2.0943
41436SOL     OW28669   3.636   6.018   7.095 -0.2347  0.3601  0.0668
41436SOL    HW128670   3.621   6.082   7.026 -0.3651  0.1502 -0.0999
41436SOL    HW228671   3.731   6.019   7.108 -0.3428  1.4544  0.9031
41437SOL     OW28672   4.125   5.956  11.104 -0.0749 -0.1754 -0.1290
41437SOL    HW128673   4.163   5.968  11.017 -1.4161 -1.1911 -0.8973
41437SOL    HW228674   4.198   5.926  11.158  1.1169  1.9246 -0.4961
41438SOL     OW28675   0.465   9.594   2.506  0.0728 -0.3237  0.2888
41438SOL    HW128676   0.491   9.628   2.592  1.2522  0.4529 -0.3406
41438SOL    HW228677   0.462   9.499   2.518  0.2146 -0.2217  1.1893
41439SOL     OW28678   5.586  10.077   1.350 -0.7279 -0.3389  0.3715
41439SOL    HW128679   5.631  10.056   1.432 -0.2900  1.9163  0.7617
41439SOL    HW228680   5.655  10.110   1.293 -1.3479 -0.0738 -0.2353
41440SOL     OW28681   8.394   3.974  10.715  0.1494  0.2050 -0.5250
41440SOL    HW128682   8.431   4.046  10.664  0.6276 -0.0915 -0.6060
41440SOL    HW228683   8.343   3.923  10.652  0.5067 -0.0002 -0.6541
41441SOL     OW28684   1.496   1.739  10.050  0.1059  0.2801 -0.4059
41441SOL    HW128685   1.544   1.662  10.018 -3.1283 -1.4659 -1.4835
41441SOL    HW228686   1.534   1.812  10.000  1.3592 -1.0240 -1.4889
41442SOL     OW28687   7.257   1.182   3.401 -0.3473 -0.5727 -0.3059
41442SOL    HW128688   7.182   1.240   3.412 -0.4182 -0.7744  0.2947
41442SOL    HW228689   7.322   1.235   3.355 -1.0513 -0.5646 -1.3300
41443SOL     OW28690   6.090   7.112   8.142 -1.0080 -0.5169 -0.0318
41443SOL    HW128691   6.025   7.181   8.159  0.1961  0.3435  1.2848
41443SOL    HW228692   6.042   7.047   8.091 -2.5965  0.6062 -0.0698
41444SOL     OW28693   0.850   1.828   2.874 -0.2558  0.2604 -0.4546
41444SOL    HW128694   0.915   1.879   2.825  0.1217 -0.1122 -0.3508
41444SOL    HW228695   0.902   1.766   2.924 -0.5697  1.3994  1.3486
41445SOL     OW28696   6.985   2.962   3.807 -0.2482  0.2447 -0.0171
41445SOL    HW128697   6.922   2.997   3.743 -1.7569 -0.5494  0.9776
41445SOL    HW228698   6.964   2.869   3.813 -0.2360  0.3180  1.7053
41446SOL     OW28699   2.316   8.082   7.800 -0.5496 -0.4228 -0.5528
41446SOL    HW128700   2.264   8.162   7.787  1.7080  0.8534 -2.5924
41446SOL    HW228701   2.403   8.105   7.766  0.8820 -2.9880  1.1266
41447SOL     OW28702   5.617   1.502   7.265  0.0931  0.0014 -0.1811
41447SOL    HW128703   5.575   1.588   7.260 -1.2470 -0.5589  0.8001
41447SOL    HW228704   5.710   1.521   7.253 -0.1753  1.5847 -0.0768
41448SOL     OW28705   0.095   0.719   9.727 -0.4537  0.9937  0.2283
41448SOL    HW128706   0.006   0.705   9.760 -0.9113  0.9292 -1.0144
41448SOL    HW228707   0.130   0.631   9.713  0.0626  1.0004  1.3236
41449SOL     OW28708   0.182   2.207   7.559 -0.4862 -0.0699  0.1954
41449SOL    HW128709   0.207   2.175   7.645 -1.9527 -0.5944  0.4617
41449SOL    HW228710   0.133   2.134   7.520 -1.0401  0.6609 -0.5148
41450SOL     OW28711   2.135   7.958   2.276  0.0703  0.0685 -0.1427
41450SOL    HW128712   2.081   7.910   2.213  0.1955 -0.0569 -0.1556
41450SOL    HW228713   2.157   7.893   2.342 -1.6657  0.6529  1.0765
41451SOL     OW28714   0.378  11.032   6.835 -0.1874  0.0977 -0.8920
41451SOL    HW128715   0.327  11.113   6.829  1.3261  0.9499 -3.8408
41451SOL    HW228716   0.456  11.057   6.884 -0.1338  0.1943 -1.0259
41452SOL     OW28717  10.730   5.368   0.895 -0.0519 -0.4259 -0.3909
41452SOL    HW128718  10.796   5.434   0.917 -1.2696  0.5547  0.5013
41452SOL    HW228719  10.646   5.411   0.914 -0.9779 -1.5199 -1.7689
41453SOL     OW28720   9.661   9.350   3.958 -0.1885  1.0443 -0.3065
41453SOL    HW128721   9.702   9.432   3.930  0.2328  1.0098  0.1880
41453SOL    HW228722   9.690   9.339   4.049 -1.1509  0.9262 -0.0011
41454SOL     OW28723   3.263   0.972   6.327  0.2345  0.3458 -0.5333
41454SOL    HW128724   3.352   0.982   6.361  0.3285 -0.0325 -0.6609
41454SOL    HW228725   3.271   0.983   6.233 -0.1015  1.8630 -0.4013
41455SOL     OW28726   8.744   2.285   3.535 -0.2132 -0.1752  0.2984
41455SOL    HW128727   8.804   2.215   3.557  0.7149  0.7921  0.9631
41455SOL    HW228728   8.719   2.269   3.444  0.7129 -0.8352  0.1575
41456SOL     OW28729   7.787  10.281   2.842  0.0020  0.0688  0.3104
41456SOL    HW128730   7.842  10.226   2.898 -0.1604  1.0432  1.4854
41456SOL    HW228731   7.844  10.306   2.769  0.3064 -1.0143  0.1671
41457SOL     OW28732   2.627   8.448   8.368 -0.1088 -0.3457  0.2421
41457SOL    HW128733   2.580   8.371   8.400 -0.0430 -0.7303 -0.5679
41457SOL    HW228734   2.559   8.504   8.331  0.0182 -0.7447 -0.6141
41458SOL     OW28735   9.967   0.141  10.209 -0.4018 -0.5115 -0.0896
41458SOL    HW128736  10.041   0.141  10.270 -1.1965  0.7138  0.9373
41458SOL    HW228737   9.901   0.196  10.252 -1.3005 -0.2678 -1.6992
41459SOL     OW28738   0.734   5.091   9.742  0.0300 -0.4177  0.3507
41459SOL    HW128739   0.671   5.162   9.745 -1.5645 -1.7590 -0.0019
41459SOL    HW228740   0.753   5.078   9.649  2.4459  1.2698  0.5113
41460SOL     OW28741   0.770   4.955   4.940  0.2865 -0.0038  0.0423
41460SOL    HW128742   0.845   5.008   4.968  2.3839 -2.8164  0.1981
41460SOL    HW228743   0.694   5.011   4.957  2.2059  2.4717  1.2302
41461SOL     OW28744   0.534   1.588   5.676  0.2479 -0.5559 -0.1964
41461SOL    HW128745   0.506   1.556   5.591 -0.2806 -1.3202  0.2586
41461SOL    HW228746   0.453   1.600   5.726  0.3655  1.9385 -0.4737
41462SOL     OW28747   0.677   5.099   1.927  0.0479  0.3252 -0.2060
41462SOL    HW128748   0.696   5.109   2.020  0.0101 -1.8233  0.0755
41462SOL    HW228749   0.585   5.124   1.919 -0.6572 -1.6979  0.8181
41463SOL     OW28750   7.167   7.046   8.189  0.0501 -0.2018 -0.3786
41463SOL    HW128751   7.259   7.060   8.209  0.2732 -1.0262 -0.8192
41463SOL    HW228752   7.125   7.035   8.275  0.3375  0.2457 -0.1747
41464SOL     OW28753  10.426   6.619   6.188  0.1067  0.0530  0.3934
41464SOL    HW128754  10.432   6.594   6.096  0.4498 -0.1550  0.4686
41464SOL    HW228755  10.484   6.557   6.233 -1.7545 -1.3248  1.0385
41465SOL     OW28756   2.929   5.118   7.008 -0.6358  0.4275 -0.4475
41465SOL    HW128757   2.963   5.159   7.087  0.7703  0.4165 -1.0153
41465SOL    HW228758   3.006   5.107   6.951 -0.7417 -3.6619 -0.0903
41466SOL     OW28759   2.138   0.578   8.777 -0.0597 -0.4020  0.1802
41466SOL    HW128760   2.093   0.533   8.706 -1.7522  1.0726  0.2545
41466SOL    HW228761   2.214   0.620   8.735  0.9294 -2.3138 -0.0740
41467SOL     OW28762   8.033   8.511   5.413  0.0236 -0.2433  0.1167
41467SOL    HW128763   7.997   8.438   5.363 -3.0835  0.9944  0.3232
41467SOL    HW228764   8.022   8.587   5.356 -1.0726  0.7470  1.5572
41468SOL     OW28765   8.064   2.325   1.777 -0.0316  0.0867  0.5911
41468SOL    HW128766   8.143   2.272   1.770  1.3262  2.0498  0.1214
41468SOL    HW228767   8.069   2.364   1.864 -1.0932 -0.6197  0.9927
41469SOL     OW28768   7.937  10.730   4.905  0.0361  0.0431  0.3530
41469SOL    HW128769   7.943  10.815   4.950 -3.2683  0.0623  0.9609
41469SOL    HW228770   7.912  10.752   4.815  1.1280 -0.2565 -0.0449
41470SOL     OW28771  10.755   2.592   2.248  0.2289 -0.1070  0.1379
41470SOL    HW128772  10.774   2.601   2.155 -1.6821  0.4344 -0.2306
41470SOL    HW228773  10.827   2.638   2.292 -1.0313  3.5390 -1.2340
41471SOL     OW28774  10.182   6.455   9.840 -0.0465 -0.1602  0.0709
41471SOL    HW128775  10.208   6.370   9.805 -0.8217  0.3062 -1.7484
41471SOL    HW228776  10.137   6.434   9.922  1.3499 -1.3409  0.5736
41472SOL     OW28777   5.109   9.313   2.893 -0.1325  0.5872 -0.3250
41472SOL    HW128778   5.033   9.292   2.946 -0.3356 -0.1913 -0.9117
41472SOL    HW228779   5.080   9.300   2.803  0.9858 -0.7612 -0.5315
41473SOL     OW28780   5.927   6.129   9.287  0.1075  0.6332  0.0066
41473SOL    HW128781   5.860   6.194   9.263 -0.4242 -1.1476 -4.2017
41473SOL    HW228782   6.007   6.161   9.245  1.3525  1.3388  2.7245
41474SOL     OW28783   4.186   3.975   9.889  0.1609  0.1930  0.8661
41474SOL    HW128784   4.130   3.994   9.964 -0.8180  2.1506 -0.2850
41474SOL    HW228785   4.252   4.044   9.891  0.4702 -0.0821  0.2502
41475SOL     OW28786  10.239  10.149   7.461  0.3274  0.1836 -0.3030
41475SOL    HW128787  10.182  10.175   7.534  1.9178  0.3294  0.9553
41475SOL    HW228788  10.186  10.163   7.383 -0.8222  1.8322  0.6984
41476SOL     OW28789   1.364   0.106   9.735  0.2485  0.1954 -0.1833
41476SOL    HW128790   1.365   0.202   9.733 -2.9840  0.3319 -0.9403
41476SOL    HW228791   1.343   0.080   9.645 -1.2177 -1.0785  0.4763
41477SOL     OW28792  10.803  10.475   7.209  0.3852  0.5277 -0.4922
41477SOL    HW128793  10.822  10.501   7.299 -0.7355  0.9561 -0.3585
41477SOL    HW228794  10.870  10.410   7.188  1.5833  1.5176  0.1147
41478SOL     OW28795   9.500   5.116   2.976  0.4430 -0.0376  0.4509
41478SOL    HW128796   9.448   5.185   2.933 -0.7085 -0.2776  1.3961
41478SOL    HW228797   9.591   5.144   2.965 -0.0108  1.7756  1.0287
41479SOL     OW28798   5.127   4.072   1.940  0.1828 -0.1269 -0.1561
41479SOL    HW128799   5.219   4.071   1.915  0.1137 -0.7055 -0.3991
41479SOL    HW228800   5.125   4.121   2.022  0.3469  2.3147 -1.5028
41480SOL     OW28801   6.366   3.959  10.111  0.0688 -0.4962  0.2613
41480SOL    HW128802   6.440   3.982  10.167  1.0145  1.7395 -1.7495
41480SOL    HW228803   6.319   4.041  10.097 -1.5611 -1.4586 -0.2764
41481SOL     OW28804   3.993   5.408   3.892 -0.5411 -0.0622  0.0227
41481SOL    HW128805   3.918   5.454   3.929 -0.1140  1.3910 -0.8498
41481SOL    HW228806   4.058   5.408   3.963 -0.6752  0.3483  0.1466
41482SOL     OW28807   3.677   4.225   1.465  0.1940 -0.1244 -0.0894
41482SOL    HW128808   3.650   4.210   1.556 -1.7521  0.7695 -0.4699
41482SOL    HW228809   3.658   4.317   1.449  2.3242  0.2519 -0.8702
41483SOL     OW28810   3.117  11.022  10.164  0.3422  0.2246  0.2047
41483SOL    HW128811   3.059  11.026  10.088  0.2482 -0.1592  0.2530
41483SOL    HW228812   3.059  11.006  10.238  0.4604  0.3337  0.3226
41484SOL     OW28813   7.565   2.131  10.207 -0.6507  0.1479 -0.2053
41484SOL    HW128814   7.606   2.188  10.142 -0.2551  0.3249  0.1895
41484SOL    HW228815   7.548   2.049  10.161  0.9349 -0.2323 -0.1453
41485SOL     OW28816   2.289   4.918   0.803 -0.2702 -0.3445 -0.2532
41485SOL    HW128817   2.282   5.009   0.833 -2.1993 -0.1225 -1.2404
41485SOL    HW228818   2.250   4.867   0.873  1.5753 -0.5561  0.6909
41486SOL     OW28819   5.860  10.994   7.907 -0.0580 -0.0174  0.1186
41486SOL    HW128820   5.833  11.086   7.914 -2.3185 -0.4872 -1.3416
41486SOL    HW228821   5.891  10.985   7.817 -1.0044 -0.9250 -0.1389
41487SOL     OW28822   0.754   1.993   1.307  0.0501  0.0280 -0.6239
41487SOL    HW128823   0.846   2.018   1.319 -0.1323  0.6066 -0.3976
41487SOL    HW228824   0.712   2.015   1.391 -0.0094 -1.5721 -0.1969
41488SOL     OW28825   5.256   3.412   6.544 -0.1865 -0.2195 -0.1132
41488SOL    HW128826   5.291   3.484   6.492 -0.7553 -0.0357 -0.2478
41488SOL    HW228827   5.300   3.334   6.510  1.3836  0.1784  0.8585
41489SOL     OW28828   6.968   6.767   6.462  0.4434  0.0155  0.2438
41489SOL    HW128829   6.997   6.853   6.495  0.5973  0.0295  0.0739
41489SOL    HW228830   6.962   6.779   6.367  1.0014 -0.3209  0.1634
41490SOL     OW28831   7.523   9.011  10.550  0.4357  0.0184  0.1295
41490SOL    HW128832   7.484   8.926  10.528  0.8872 -0.2768  0.4583
41490SOL    HW228833   7.613   9.004  10.518  0.3647  0.5206 -0.1897
41491SOL     OW28834   8.898   0.314   5.832  0.4275  0.0294 -0.0886
41491SOL    HW128835   8.814   0.286   5.868  0.9628 -0.9433  0.4392
41491SOL    HW228836   8.941   0.359   5.904  0.1282  1.0518 -0.5362
41492SOL     OW28837   7.547   7.909   9.813 -0.4229  0.1754 -0.1056
41492SOL    HW128838   7.573   7.854   9.739  0.0463 -0.1004  0.2556
41492SOL    HW228839   7.567   7.999   9.784  0.0822  0.0425 -0.1891
41493SOL     OW28840   6.737   1.378   7.564 -0.4532 -0.2671 -0.0883
41493SOL    HW128841   6.812   1.377   7.504 -0.2307 -1.4196  0.1773
41493SOL    HW228842   6.700   1.465   7.555  2.1268  1.0866  1.2951
41494SOL     OW28843   0.600   2.957   3.492  0.0428  0.7165 -1.0241
41494SOL    HW128844   0.665   2.921   3.433  0.4292  1.9183 -1.3631
41494SOL    HW228845   0.627   3.048   3.505 -0.1483  0.5511  0.8413
41495SOL     OW28846   1.793   9.377   4.103 -0.4191  0.3681  0.3432
41495SOL    HW128847   1.840   9.362   4.021  0.8190  0.2813  1.0457
41495SOL    HW228848   1.861   9.371   4.171 -1.3263  0.9577  1.3291
41496SOL     OW28849   6.097   8.308   3.207  0.0921  0.0204  0.1524
41496SOL    HW128850   6.107   8.287   3.114 -0.8289 -0.5317  0.1685
41496SOL    HW228851   6.151   8.386   3.220 -0.0016  0.2707 -0.9049
41497SOL     OW28852   6.022   5.374   0.787  0.3699  0.2424  0.4578
41497SOL    HW128853   6.038   5.466   0.763  3.3944  0.0633  1.3321
41497SOL    HW228854   6.065   5.324   0.717  0.9680 -0.4219  1.2837
41498SOL     OW28855   1.646   7.520   9.448 -0.0154 -0.2368 -0.6948
41498SOL    HW128856   1.558   7.485   9.430 -0.8986  1.5119  0.0099
41498SOL    HW228857   1.663   7.494   9.539 -0.3032  0.3661 -0.4601
41499SOL     OW28858   5.382   6.888   5.434 -0.2323 -0.9009 -0.0540
41499SOL    HW128859   5.311   6.886   5.370 -0.8783 -2.2312  0.6483
41499SOL    HW228860   5.348   6.837   5.508  0.7287  0.0610  1.0978
41500SOL     OW28861   6.631   7.679   9.013 -0.0171 -0.1563  0.0982
41500SOL    HW128862   6.583   7.664   8.932 -0.6637  0.9885  0.2350
41500SOL    HW228863   6.718   7.708   8.985 -0.4854  1.0002 -0.2170
41501SOL     OW28864   1.757  10.406  10.374  0.0089  0.0954  0.1023
41501SOL    HW128865   1.815  10.413  10.450 -1.4119 -0.1700  1.2478
41501SOL    HW228866   1.679  10.363  10.407 -0.7678  0.2248 -1.4653
41502SOL     OW28867   3.314   6.487   5.973 -0.5454  0.0594 -0.2302
41502SOL    HW128868   3.314   6.403   5.926  2.2107  0.1610 -0.5767
41502SOL    HW228869   3.319   6.462   6.065  0.4791 -0.1983 -0.3400
41503SOL     OW28870   9.704   4.909   0.874  0.4685  0.1741  0.1576
41503SOL    HW128871   9.646   4.967   0.923  0.4985  0.5660 -0.2584
41503SOL    HW228872   9.653   4.885   0.796  0.8244  0.4346 -0.1556
41504SOL     OW28873   2.953  10.495  10.895  0.2496 -0.3441  0.4173
41504SOL    HW128874   2.904  10.420  10.928  0.0794  0.0483  1.0857
41504SOL    HW228875   3.031  10.457  10.854  0.8135 -0.8482  1.8845
41505SOL     OW28876   6.195   8.612   5.871 -0.6017  0.1648  0.0399
41505SOL    HW128877   6.261   8.547   5.893  0.7532  1.2523 -0.6567
41505SOL    HW228878   6.182   8.602   5.776  0.7058  1.8139 -0.3597
41506SOL     OW28879   9.999   8.873   9.863  0.4663  0.7944  0.3665
41506SOL    HW128880   9.930   8.820   9.902 -1.1557  1.2021 -1.7869
41506SOL    HW228881   9.972   8.964   9.880 -0.6494  0.9984 -2.1489
41507SOL     OW28882   2.578  10.070   1.632  0.3543 -0.3087 -0.4675
41507SOL    HW128883   2.646  10.120   1.587 -0.2522 -0.8846 -2.0900
41507SOL    HW228884   2.503  10.073   1.573 -0.6924 -0.5789  0.8075
41508SOL     OW28885   3.401   7.190   6.423  0.8019  0.4276  0.3006
41508SOL    HW128886   3.386   7.280   6.393 -1.5895  0.0880  0.2197
41508SOL    HW228887   3.313   7.151   6.424  1.0912 -0.6186  4.5878
41509SOL     OW28888   8.089   9.039   5.633 -0.4495  0.2154  0.0971
41509SOL    HW128889   8.130   9.114   5.676 -3.6152  1.3609  1.4202
41509SOL    HW228890   8.047   8.990   5.704 -0.5367 -1.4738 -1.0338
41510SOL     OW28891   3.058   6.653   5.941 -0.2342 -0.0014  0.4713
41510SOL    HW128892   3.120   6.713   5.983  0.1453  0.4114 -0.6276
41510SOL    HW228893   3.085   6.652   5.849 -0.9114 -1.0269  0.2677
41511SOL     OW28894   5.275   8.525   9.637 -0.1996 -0.2026  0.3008
41511SOL    HW128895   5.339   8.571   9.692  0.6057 -0.2868 -0.5389
41511SOL    HW228896   5.192   8.571   9.652  0.5286  1.3878 -0.3315
41512SOL     OW28897   1.507   6.614   8.693  0.2204 -0.3368  0.1470
41512SOL    HW128898   1.477   6.671   8.622  1.0489 -1.7169 -1.3758
41512SOL    HW228899   1.599   6.635   8.705  0.2386 -0.5381  0.4008
41513SOL     OW28900   1.471  10.924   2.752 -0.5044  0.2684 -0.0631
41513SOL    HW128901   1.490  10.980   2.677  1.2077 -0.2992 -0.0995
41513SOL    HW228902   1.396  10.871   2.724 -1.5420  1.8365 -0.3759
41514SOL     OW28903  10.149   4.905   8.253  0.1982 -0.2997  0.4330
41514SOL    HW128904  10.145   4.811   8.270  1.1356 -0.5619 -0.6798
41514SOL    HW228905  10.062   4.937   8.278 -0.2037 -1.4879  0.6422
41515SOL     OW28906   3.183   5.393   1.546  0.6881 -0.2827 -0.1298
41515SOL    HW128907   3.144   5.339   1.615 -0.9843  1.0917  0.0887
41515SOL    HW228908   3.188   5.336   1.470  2.4020 -1.7850  1.0283
41516SOL     OW28909   2.238   9.530  10.795  0.3336  0.0692 -0.3236
41516SOL    HW128910   2.173   9.572  10.739 -0.0814 -0.9077 -0.5928
41516SOL    HW228911   2.212   9.553  10.884 -0.5682 -0.5357 -0.4127
41517SOL     OW28912   2.508   0.343   4.459  0.1043  0.1349 -0.1066
41517SOL    HW128913   2.446   0.367   4.390  0.0015 -0.8382 -0.3596
41517SOL    HW228914   2.543   0.427   4.490  1.2069  0.5628 -2.3140
41518SOL     OW28915   3.163   1.438   9.309  0.6368  0.4534 -0.5764
41518SOL    HW128916   3.195   1.401   9.226 -0.3339  0.3323 -0.9019
41518SOL    HW228917   3.075   1.470   9.289  0.1880 -0.0460  0.5460
41519SOL     OW28918   1.186   9.159   1.205 -0.5902  0.1368 -0.0908
41519SOL    HW128919   1.095   9.128   1.208 -0.6560  0.2073 -1.1313
41519SOL    HW228920   1.237   9.087   1.242 -0.8774 -0.7145 -1.2914
41520SOL     OW28921   2.249   8.473   8.805 -0.4199 -0.0840  0.4277
41520SOL    HW128922   2.285   8.505   8.887  1.0210  1.3175 -0.7019
41520SOL    HW228923   2.154   8.479   8.816 -0.2296  0.8669  1.6754
41521SOL     OW28924   8.617  10.161   5.763  0.0957 -0.3472 -0.3830
41521SOL    HW128925   8.688  10.172   5.700 -0.8892 -0.1718 -1.5030
41521SOL    HW228926   8.643  10.213   5.839  1.2247 -0.4083 -0.7200
41522SOL     OW28927   5.527   5.148   4.685  0.3943  0.8699  0.0635
41522SOL    HW128928   5.557   5.239   4.683 -0.0865  1.0865  1.7972
41522SOL    HW228929   5.432   5.154   4.694  0.1785  0.1675 -1.3689
41523SOL     OW28930   4.102  10.557   9.415  0.8086 -0.4920 -0.1838
41523SOL    HW128931   4.082  10.650   9.429  1.2557 -0.4122 -0.0654
41523SOL    HW228932   4.128  10.552   9.323 -0.9470 -0.8120 -0.7043
41524SOL     OW28933   8.155   6.418   0.151  0.2101  0.3228 -0.1993
41524SOL    HW128934   8.114   6.504   0.155 -2.3326 -0.8466  1.5281
41524SOL    HW228935   8.228   6.423   0.213  0.5783  1.4179 -0.6926
41525SOL     OW28936   3.731   6.173   3.234 -0.1854 -0.0035  0.2252
41525SOL    HW128937   3.792   6.237   3.270  2.0316 -2.9024  2.1924
41525SOL    HW228938   3.678   6.146   3.310  0.1321 -1.6397 -0.0964
41526SOL     OW28939   1.196   6.314   5.852 -0.4740 -0.0115  0.1118
41526SOL    HW128940   1.216   6.244   5.789 -0.2934 -0.6611  0.8844
41526SOL    HW228941   1.190   6.270   5.936 -2.8658  0.5146  0.2889
41527SOL     OW28942   1.247   5.602   2.733 -0.4562  0.1255  0.1089
41527SOL    HW128943   1.219   5.541   2.664  1.0818  1.0769 -1.4404
41527SOL    HW228944   1.333   5.632   2.705 -0.2065  1.3198  1.9798
41528SOL     OW28945   5.005   4.087   3.812  0.0155  0.3518 -0.2343
41528SOL    HW128946   4.916   4.060   3.837  0.8714 -0.3950  2.3095
41528SOL    HW228947   5.020   4.044   3.728 -0.9137 -2.1530  0.7828
41529SOL     OW28948   2.827   5.475   6.877 -0.2935  0.2395  0.6843
41529SOL    HW128949   2.803   5.561   6.913 -2.3776 -0.0356  0.0525
41529SOL    HW228950   2.790   5.412   6.939 -1.4118 -0.2051 -0.3988
41530SOL     OW28951   9.075   8.550   4.785  0.3931  0.0663  0.4892
41530SOL    HW128952   9.134   8.555   4.860 -0.9044 -0.0927  1.5573
41530SOL    HW228953   9.016   8.625   4.796  1.9592  1.8332 -2.0054
41531SOL     OW28954   3.211   9.301   3.294  0.0971 -0.3219  0.0586
41531SOL    HW128955   3.270   9.318   3.367  0.4274 -1.0516 -0.0313
41531SOL    HW228956   3.143   9.368   3.302 -0.6843 -1.2675  1.9098
41532SOL     OW28957   4.419   7.237   7.326 -0.8314  0.0757 -0.1852
41532SOL    HW128958   4.366   7.316   7.316 -0.6062  0.0615 -1.8312
41532SOL    HW228959   4.415   7.217   7.420  0.4168  2.9273  0.5904
41533SOL     OW28960   7.288  10.241   8.993 -0.0744 -0.3370 -0.0890
41533SOL    HW128961   7.269  10.279   8.908 -0.2686  1.8786  0.8944
41533SOL    HW228962   7.383  10.245   9.001  0.0152 -1.2930 -0.4958
41534SOL     OW28963   2.541   8.924   3.330  0.1918  0.0799  0.3707
41534SOL    HW128964   2.546   8.839   3.374 -0.3036 -0.2582 -0.2013
41534SOL    HW228965   2.496   8.905   3.248 -2.4427  1.3817  1.4220
41535SOL     OW28966   8.725   8.592   6.004 -0.7676 -0.7669 -0.7726
41535SOL    HW128967   8.738   8.650   6.079 -0.5879 -2.7907  0.8419
41535SOL    HW228968   8.670   8.643   5.944 -2.2357  0.3820  1.4117
41536SOL     OW28969   6.484   2.646   1.567 -0.1604  0.1218 -0.0086
41536SOL    HW128970   6.440   2.657   1.483  0.2086 -4.0369 -0.9473
41536SOL    HW228971   6.413   2.649   1.632 -1.2004 -1.5380 -1.0159
41537SOL     OW28972   6.831   2.022   0.134 -0.0985 -0.2306 -0.0113
41537SOL    HW128973   6.890   1.949   0.155  0.2193 -0.3081 -1.1298
41537SOL    HW228974   6.777   2.031   0.212  1.1042 -0.4410  0.8866
41538SOL     OW28975   5.325   5.359   2.321 -0.0452  0.5875  0.6945
41538SOL    HW128976   5.356   5.304   2.249 -0.8965 -0.4061  1.0594
41538SOL    HW228977   5.230   5.346   2.321 -0.2031  1.6406  1.1491
41539SOL     OW28978   4.854   8.984   9.880  0.0827  0.5345 -0.2574
41539SOL    HW128979   4.771   8.955   9.841 -0.0556  0.9637 -0.2936
41539SOL    HW228980   4.881   8.912   9.937 -0.7961  0.7752  0.4853
41540SOL     OW28981  10.109   7.336   2.625  0.2100  0.6076 -0.4714
41540SOL    HW128982  10.052   7.320   2.550 -0.1032  0.6630 -0.2483
41540SOL    HW228983  10.083   7.270   2.690  0.5289  0.5116 -0.4406
41541SOL     OW28984   8.942   7.685   8.804  0.2699  0.3326  0.0742
41541SOL    HW128985   9.017   7.688   8.863 -0.5402  0.2170  1.1362
41541SOL    HW228986   8.896   7.604   8.828 -0.5717  0.7564 -0.0735
41542SOL     OW28987   2.652   0.211   6.268  0.0223 -0.4981  0.5354
41542SOL    HW128988   2.686   0.224   6.179 -1.1215 -1.2578 -0.0421
41542SOL    HW228989   2.698   0.133   6.300  0.3475 -0.2948  0.5649
41543SOL     OW28990   6.450   2.076   6.322 -0.2480  0.7486  0.2451
41543SOL    HW128991   6.520   2.062   6.259 -1.2907 -0.4061 -0.7180
41543SOL    HW228992   6.472   2.158   6.365  1.8002  0.3009  0.1521
41544SOL     OW28993   5.790   1.553   2.415 -0.4081  0.0599 -0.3561
41544SOL    HW128994   5.697   1.576   2.419 -0.4927 -0.1679 -1.0123
41544SOL    HW228995   5.792   1.465   2.379  0.1925  1.2396 -3.5710
41545SOL     OW28996   9.170   0.975   7.011 -0.0393  0.1770  0.3194
41545SOL    HW128997   9.081   0.970   7.048 -0.1123 -0.5901  0.0518
41545SOL    HW228998   9.163   0.933   6.926  0.7647 -0.6171  0.6375
41546SOL     OW28999   6.967   8.291   9.428 -0.8658 -0.0235 -0.4680
41546SOL    HW129000   7.021   8.366   9.453 -1.2961  0.2551 -0.3550
41546SOL    HW229001   6.947   8.306   9.335 -1.1767  0.1472 -0.3754
41547SOL     OW29002   5.026   8.287   7.779 -0.3950  0.2170 -0.0921
41547SOL    HW129003   5.015   8.382   7.785 -2.2372  0.0527 -0.3627
41547SOL    HW229004   5.015   8.267   7.686  2.7675 -0.0194 -0.5236
41548SOL     OW29005   1.724   5.497   6.364  0.6757  0.4995 -0.1107
41548SOL    HW129006   1.774   5.424   6.400  0.5148 -0.2482 -1.3381
41548SOL    HW229007   1.645   5.457   6.327 -1.0084  1.6708  1.9673
41549SOL     OW29008   5.389   2.882   5.096  0.1255  0.7008  0.3065
41549SOL    HW129009   5.385   2.820   5.023  0.8778 -1.2726  1.8771
41549SOL    HW229010   5.427   2.961   5.057 -1.0961  0.3329 -1.8077
41550SOL     OW29011   2.998   7.786   3.119  0.0211 -0.2772  0.2140
41550SOL    HW129012   3.062   7.749   3.179 -1.7925 -2.5704  0.8993
41550SOL    HW229013   3.050   7.825   3.049  2.2467 -3.7350 -0.2926
41551SOL     OW29014   7.316   1.038   2.004  0.0097  0.2905 -0.4080
41551SOL    HW129015   7.307   0.991   1.921 -0.1212  0.3598 -0.4338
41551SOL    HW229016   7.405   1.074   2.002 -0.3523  1.2013 -1.0003
41552SOL     OW29017   8.980   2.296   4.892  0.2533  0.0816  0.1383
41552SOL    HW129018   9.020   2.332   4.971 -0.0475 -1.0358  0.8277
41552SOL    HW229019   8.945   2.210   4.920  0.5840 -0.5529 -1.3178
41553SOL     OW29020   6.702   4.587   0.917  0.7253 -0.4763 -0.1939
41553SOL    HW129021   6.735   4.527   0.984  0.4126 -1.2918 -0.7602
41553SOL    HW229022   6.607   4.586   0.928  0.6655 -0.6699 -0.6797
41554SOL     OW29023   8.666  10.433   3.096 -0.1722 -0.7108 -0.4481
41554SOL    HW129024   8.620  10.407   3.176  0.0032  1.1280  0.3045
41554SOL    HW229025   8.758  10.416   3.114 -0.2258 -1.2491 -0.6635
41555SOL     OW29026   7.300   8.963   7.800  0.3948  0.1698 -0.0524
41555SOL    HW129027   7.394   8.963   7.815  0.1871  0.5622  1.3636
41555SOL    HW229028   7.261   8.949   7.887 -0.8478 -0.2296 -0.6412
41556SOL     OW29029   9.049   6.625   3.495 -0.3894  0.0186 -0.4684
41556SOL    HW129030   9.006   6.592   3.416 -0.9742 -0.2120 -0.0608
41556SOL    HW229031   9.049   6.550   3.555  0.8575 -0.0799 -0.5664
41557SOL     OW29032   3.710   0.105   2.554  0.0391  0.0019  0.0811
41557SOL    HW129033   3.642   0.095   2.621  1.1988 -0.6252  1.2183
41557SOL    HW229034   3.744   0.016   2.542  2.9322  0.7134  2.0508
41558SOL     OW29035   0.946   6.227   4.284 -0.1211  0.2913  0.1507
41558SOL    HW129036   0.912   6.140   4.303 -0.0496  0.5670  1.6890
41558SOL    HW229037   1.041   6.216   4.287 -0.1112  0.3992  0.2281
41559SOL     OW29038   8.229   2.528   5.712  0.0728 -0.4481 -0.1174
41559SOL    HW129039   8.290   2.582   5.763  0.0719 -1.1653  0.6661
41559SOL    HW229040   8.179   2.479   5.778 -0.7640 -0.5061 -0.7742
41560SOL     OW29041   0.837   8.965   4.089  1.0901 -0.3671  0.0096
41560SOL    HW129042   0.850   8.890   4.148  1.9395  1.6183  2.4971
41560SOL    HW229043   0.917   9.017   4.099 -0.4009  2.0126  0.1588
41561SOL     OW29044  10.022   0.316   5.668 -0.2539  0.5590  0.5121
41561SOL    HW129045   9.967   0.302   5.745  0.0276  0.3443  0.6793
41561SOL    HW229046  10.027   0.231   5.626 -3.1260  1.3254 -1.6362
41562SOL     OW29047   6.845   7.478   6.397  0.0223 -0.1975 -0.4821
41562SOL    HW129048   6.878   7.542   6.460 -2.1496 -1.0177  1.6458
41562SOL    HW229049   6.799   7.531   6.332 -1.0816  0.5176  0.8168
41563SOL     OW29050   0.924   5.384   5.063  0.0815 -0.0704 -0.0345
41563SOL    HW129051   1.005   5.419   5.100 -0.1833  0.7455 -0.1985
41563SOL    HW229052   0.890   5.456   5.009 -0.4677 -0.5993 -0.4012
41564SOL     OW29053   3.331   6.236   8.700  0.0261  0.0282 -0.2850
41564SOL    HW129054   3.255   6.193   8.740  0.1138 -0.8815 -1.0535
41564SOL    HW229055   3.343   6.316   8.750 -0.1793 -0.8281  1.1821
41565SOL     OW29056   9.553  10.330   3.773 -0.5516  0.1845  0.1362
41565SOL    HW129057   9.517  10.243   3.792  0.0480  0.0107  0.5125
41565SOL    HW229058   9.595  10.321   3.688  0.6486 -0.2670  0.7512
41566SOL     OW29059   8.485   5.392   3.156 -0.3806  0.2830 -0.0135
41566SOL    HW129060   8.422   5.444   3.105 -2.7158 -1.4713  0.8686
41566SOL    HW229061   8.431   5.323   3.197  2.1132 -1.1577  1.0675
41567SOL     OW29062   4.501   8.703  10.903 -0.4716 -0.5576  0.1622
41567SOL    HW129063   4.435   8.643  10.936 -0.1081 -1.1768 -0.2294
41567SOL    HW229064   4.582   8.652  10.903 -0.4298 -0.5288 -1.5450
41568SOL     OW29065   4.215   9.441   0.367 -0.0943  0.1629  0.0401
41568SOL    HW129066   4.151   9.480   0.308 -0.8874 -0.9573  0.1276
41568SOL    HW229067   4.184   9.351   0.381 -0.0949  0.4515  2.3483
41569SOL     OW29068   4.953   2.576   4.427  0.2046 -0.1947 -0.1391
41569SOL    HW129069   4.953   2.668   4.452 -2.0718  0.4990 -2.2480
41569SOL    HW229070   5.045   2.556   4.410  0.5559  2.4684 -1.9865
41570SOL     OW29071  11.065   3.420   3.755 -0.0933 -0.1441  0.5035
41570SOL    HW129072  11.111   3.352   3.705 -0.9774  0.0317 -0.5878
41570SOL    HW229073  11.108   3.501   3.729  0.3787 -0.1951  1.1231
41571SOL     OW29074   1.835   8.777  10.383 -0.6066  0.1473  0.2128
41571SOL    HW129075   1.910   8.751  10.436  0.4385 -0.6667 -1.5796
41571SOL    HW229076   1.814   8.699  10.331 -1.9535  0.7295 -0.1685
41572SOL     OW29077   6.064   9.956   9.515  0.0282  0.2462 -0.3493
41572SOL    HW129078   6.125   9.927   9.583  0.7779  0.0945 -1.0787
41572SOL    HW229079   6.060  10.051   9.525  0.7182  0.3026 -0.5680
41573SOL     OW29080   2.101   7.330   0.111  0.0172  0.0042 -0.3623
41573SOL    HW129081   2.163   7.337   0.038 -0.9586 -1.9750 -1.4313
41573SOL    HW229082   2.035   7.397   0.092  0.0106 -0.1901 -1.0484
41574SOL     OW29083   0.400   6.856   1.502  0.0948  0.6450  0.3008
41574SOL    HW129084   0.359   6.771   1.489  0.7608  0.4997 -1.0719
41574SOL    HW229085   0.394   6.899   1.417 -0.8263  2.2601  1.1330
41575SOL     OW29086   4.839   0.601   1.184 -0.2631 -0.6704  0.0012
41575SOL    HW129087   4.794   0.527   1.225 -0.4945 -0.2153  0.5782
41575SOL    HW229088   4.903   0.630   1.249  1.1218 -1.5095 -0.9246
41576SOL     OW29089  11.071   2.864   8.018 -0.0981  0.3574  0.0022
41576SOL    HW129090  11.065   2.876   8.112 -2.6698 -2.5226  0.3782
41576SOL    HW229091  11.066   2.769   8.005 -0.3562  0.6812 -3.0453
41577SOL     OW29092  10.138   6.152   4.143 -0.0813  0.2849  0.1719
41577SOL    HW129093  10.146   6.068   4.189  0.7691 -0.3745 -1.0801
41577SOL    HW229094  10.046   6.177   4.153 -0.3610 -0.8232  0.5403
41578SOL     OW29095   8.610   4.108   1.638 -0.0430 -0.0902  0.4650
41578SOL    HW129096   8.577   4.163   1.567 -1.2021 -2.3887 -0.9133
41578SOL    HW229097   8.659   4.168   1.695  0.7533  1.9099 -2.1252
41579SOL     OW29098   0.340  10.784   1.367 -0.2575 -0.2797 -0.1871
41579SOL    HW129099   0.251  10.805   1.338  0.1184  0.7487 -0.6691
41579SOL    HW229100   0.373  10.867   1.403  0.6143 -0.5644 -0.3096
41580SOL     OW29101   3.400   6.397   2.812  0.0219 -0.1510 -0.1361
41580SOL    HW129102   3.372   6.400   2.903 -1.3194 -1.5163 -0.4627
41580SOL    HW229103   3.490   6.429   2.814  0.2995 -0.9138  1.7740
41581SOL     OW29104   9.048   2.480   7.421  0.4183 -0.0478  0.1327
41581SOL    HW129105   9.075   2.488   7.513  0.7879 -0.8106  0.0954
41581SOL    HW229106   9.108   2.537   7.374  0.0923  0.5121  0.3892
41582SOL     OW29107   7.536   7.870   5.910 -0.4132 -0.1783 -0.1021
41582SOL    HW129108   7.459   7.884   5.966  0.2369  1.1630  0.5189
41582SOL    HW229109   7.555   7.957   5.874  0.8619 -0.4641 -0.1577
41583SOL     OW29110   5.063  11.101   7.284 -0.6621  0.3648 -0.3919
41583SOL    HW129111   5.036  11.192   7.289  1.1347  0.9363 -0.2491
41583SOL    HW229112   5.110  11.085   7.366  1.1248  0.0717 -1.4077
41584SOL     OW29113   9.642   4.039   9.630 -0.3391  0.3839  0.3901
41584SOL    HW129114   9.548   4.027   9.621 -0.1730 -0.6233 -0.1696
41584SOL    HW229115   9.672   4.062   9.543 -0.1200  1.1488  0.6620
41585SOL     OW29116   4.681   1.822   8.177 -0.2368  0.0109 -0.3169
41585SOL    HW129117   4.753   1.759   8.176  0.0012  0.2889 -0.9535
41585SOL    HW229118   4.641   1.814   8.091 -0.0171  0.9466 -0.5151
41586SOL     OW29119  10.067   7.631   4.185  0.0480 -0.0763  0.0330
41586SOL    HW129120  10.012   7.705   4.212  0.7048  0.9999 -1.4735
41586SOL    HW229121  10.004   7.563   4.160 -0.5632  0.2122  0.7182
41587SOL     OW29122   8.426   6.286   4.922 -0.3786 -0.2503 -0.4922
41587SOL    HW129123   8.361   6.326   4.980  0.9782  0.3097  0.7101
41587SOL    HW229124   8.398   6.311   4.834 -2.9567 -1.8101 -0.2222
41588SOL     OW29125   8.475  10.926   2.194  0.3189  0.1491 -0.4644
41588SOL    HW129126   8.471  10.968   2.280  0.3327  0.2885 -0.5308
41588SOL    HW229127   8.550  10.967   2.151  0.7459 -0.4273 -0.2807
41589SOL     OW29128   1.091   3.185   2.070  0.4728  0.0305 -0.3353
41589SOL    HW129129   1.089   3.137   2.154 -0.8625 -0.5086 -0.6392
41589SOL    HW229130   1.054   3.270   2.091 -2.7078 -1.0827 -0.8691
41590SOL     OW29131   5.975  10.357   6.952 -0.2919 -1.1252 -0.0627
41590SOL    HW129132   5.949  10.269   6.979 -0.2284 -1.6284 -1.5602
41590SOL    HW229133   6.029  10.344   6.874  0.3807  0.1985  0.1468
41591SOL     OW29134  10.236   6.460   4.924  0.3078 -0.6584  0.1136
41591SOL    HW129135  10.253   6.397   4.853  2.6719 -1.2791  1.1404
41591SOL    HW229136  10.204   6.406   4.996 -0.5531 -0.2367  0.0579
41592SOL     OW29137   8.541   4.203   6.526 -0.3091  0.2486  0.3280
41592SOL    HW129138   8.522   4.181   6.435 -0.9943 -1.4376  0.8340
41592SOL    HW229139   8.608   4.139   6.552  1.2552  1.8987  0.4945
41593SOL     OW29140   6.080   7.319  10.442  0.2234 -0.0618  0.0581
41593SOL    HW129141   6.078   7.404  10.486 -0.2895 -0.9430  1.8608
41593SOL    HW229142   6.088   7.340  10.349  0.9308  1.9236  0.5153
41594SOL     OW29143   9.811  10.622   4.418 -0.1046  0.3210 -0.2350
41594SOL    HW129144   9.800  10.577   4.334  1.6410  0.4876 -0.6011
41594SOL    HW229145   9.859  10.560   4.473  0.2496  0.8304  0.0475
41595SOL     OW29146  10.771  10.553   9.484  0.5694  0.4701  0.3227
41595SOL    HW129147  10.821  10.634   9.492  1.5139 -0.0530 -0.0815
41595SOL    HW229148  10.826  10.487   9.526  0.3633 -0.1761 -0.4082
41596SOL     OW29149   7.395   6.634   8.933  0.4005 -0.1754  0.1812
41596SOL    HW129150   7.309   6.638   8.974 -0.3011 -0.7877 -1.1573
41596SOL    HW229151   7.385   6.683   8.851  1.0144 -1.1191 -0.4810
41597SOL     OW29152   0.168   9.388   8.026 -0.0814 -0.2043  0.0599
41597SOL    HW129153   0.203   9.425   8.107  0.1285 -1.0928  0.3798
41597SOL    HW229154   0.081   9.356   8.051 -0.7618  1.1249 -0.5027
41598SOL     OW29155   6.460   5.109   8.783 -0.6160 -0.7594 -0.0255
41598SOL    HW129156   6.499   5.050   8.718 -1.1588 -0.6480 -0.4705
41598SOL    HW229157   6.525   5.115   8.852 -0.4022 -1.6072 -0.1317
41599SOL     OW29158   7.730   0.876   9.889 -0.1782 -0.1481 -0.5456
41599SOL    HW129159   7.701   0.915   9.972 -0.5529 -0.5366 -0.4898
41599SOL    HW229160   7.731   0.949   9.828 -0.4284  0.0414 -0.3277
41600SOL     OW29161  10.388   9.974   6.476 -0.5054 -0.3882 -0.2684
41600SOL    HW129162  10.350   9.892   6.445 -0.4179 -0.3901 -0.3717
41600SOL    HW229163  10.390   9.965   6.571 -1.1762 -0.2126 -0.2273
41601SOL     OW29164   3.120   3.159   7.380 -0.3086 -0.0641 -0.0198
41601SOL    HW129165   3.064   3.110   7.320 -0.7522 -0.0841  0.4103
41601SOL    HW229166   3.184   3.095   7.411  0.2736  0.0765 -0.8966
41602SOL     OW29167   7.746   0.986  10.653  0.4242 -0.0398  0.4361
41602SOL    HW129168   7.796   0.967  10.732  0.9937 -0.7463 -0.0794
41602SOL    HW229169   7.703   1.070  10.671  0.7871 -0.0434  1.3693
41603SOL     OW29170   8.663   5.464   5.208  0.2657 -0.3968 -0.0263
41603SOL    HW129171   8.706   5.485   5.291  0.4045  1.5250 -0.5368
41603SOL    HW229172   8.729   5.418   5.157  0.0353 -2.0015  1.0685
41604SOL     OW29173   6.580   4.212   6.735 -0.2418 -0.1344 -0.5010
41604SOL    HW129174   6.503   4.265   6.755  0.9190  2.3512 -2.1182
41604SOL    HW229175   6.558   4.166   6.654 -0.7476 -1.0531  0.1497
41605SOL     OW29176   9.901  10.290   9.880  0.4836  0.2001 -0.5604
41605SOL    HW129177   9.958  10.356   9.840  1.4263 -2.0401 -3.2374
41605SOL    HW229178   9.961  10.231   9.925 -0.0011 -0.5469 -0.8831
41606SOL     OW29179   1.012   1.214  11.105  0.6204  0.4330 -0.3463
41606SOL    HW129180   0.934   1.164  11.078  1.7087 -0.4124 -2.0926
41606SOL    HW229181   0.977   1.284  11.159 -1.3562 -0.0257 -0.9201
41607SOL     OW29182  10.306   5.004  10.872 -0.7137 -0.0184 -0.6831
41607SOL    HW129183  10.244   5.062  10.916 -2.8445 -2.4333 -0.2526
41607SOL    HW229184  10.288   4.918  10.910  1.5366 -1.1809 -2.0626
41608SOL     OW29185   0.811   5.887   5.552  0.0919  0.0099  0.0946
41608SOL    HW129186   0.748   5.819   5.527 -0.2099  0.1667  0.4325
41608SOL    HW229187   0.851   5.913   5.469 -0.7484  0.3623 -0.2105
41609SOL     OW29188   1.558  10.517   0.049 -0.6864  0.3223  0.2375
41609SOL    HW129189   1.494  10.552  -0.012 -0.8200 -0.4505 -0.0661
41609SOL    HW229190   1.589  10.436   0.009  0.8271  0.9106  0.1478
41610SOL     OW29191   7.704   2.783   0.283  0.0026 -0.4620  0.3538
41610SOL    HW129192   7.637   2.724   0.249  0.3022 -0.6972  0.1625
41610SOL    HW229193   7.682   2.793   0.376 -0.4496 -0.3225  0.2364
41611SOL     OW29194   1.131   8.785   9.825  0.3234  0.0038 -0.4993
41611SOL    HW129195   1.050   8.828   9.851 -0.3151 -0.8422 -1.0288
41611SOL    HW229196   1.128   8.783   9.729  1.0946  0.1875 -0.5386
41612SOL     OW29197   5.173  10.721   3.287  0.1892 -0.0694  0.1713
41612SOL    HW129198   5.219  10.667   3.352  2.2643  1.4320  0.0222
41612SOL    HW229199   5.171  10.667   3.208  0.7078 -0.5746  0.4981
41613SOL     OW29200   4.530   6.612   4.212  0.8743 -0.7015  0.0057
41613SOL    HW129201   4.517   6.706   4.226  0.4254 -0.6164 -0.9019
41613SOL    HW229202   4.529   6.574   4.300  2.1860  0.2702  0.4687
41614SOL     OW29203   4.185   9.062   9.691  0.0921  0.2016 -0.1361
41614SOL    HW129204   4.153   9.147   9.721 -0.1109 -0.3140  1.1775
41614SOL    HW229205   4.259   9.042   9.749 -0.0071 -0.6116 -0.2777
41615SOL     OW29206   6.727   3.166   1.705  0.5131 -0.0344 -0.7039
41615SOL    HW129207   6.767   3.159   1.619  0.3209 -2.5384 -0.6551
41615SOL    HW229208   6.715   3.260   1.718  0.1648  0.4166 -3.5686
41616SOL     OW29209   2.158   9.210   1.536  0.1665  0.2337  0.0347
41616SOL    HW129210   2.138   9.276   1.602  1.8538  1.7886 -0.8944
41616SOL    HW229211   2.174   9.260   1.456 -2.0266 -1.5900 -1.6880
41617SOL     OW29212  10.559   9.567   9.668  0.1723  0.0201 -0.2834
41617SOL    HW129213  10.585   9.596   9.580 -0.3318  0.2647 -0.3513
41617SOL    HW229214  10.623   9.609   9.726  0.5405 -0.1868 -0.5338
41618SOL     OW29215   3.145   5.240   0.533  0.2793 -0.2698  0.0733
41618SOL    HW129216   3.155   5.309   0.598 -0.5313 -1.3327  1.3655
41618SOL    HW229217   3.232   5.200   0.526  0.9102  1.2170 -1.1356
41619SOL     OW29218   4.996  10.173   2.577 -0.2429  0.0913  0.1221
41619SOL    HW129219   5.019  10.138   2.663  0.8653 -0.1672 -0.2540
41619SOL    HW229220   5.078  10.168   2.527 -1.0838 -0.6349 -1.2387
41620SOL     OW29221   9.119   4.152   0.086 -0.1389 -0.4349  0.5659
41620SOL    HW129222   9.079   4.238   0.074 -0.9002 -0.9298 -0.6354
41620SOL    HW229223   9.045   4.092   0.099  0.2506 -1.2090 -0.6486
41621SOL     OW29224   2.167   6.063  10.765 -0.0648 -0.1603  0.3171
41621SOL    HW129225   2.094   6.006  10.743 -0.0680 -0.8345  1.9363
41621SOL    HW229226   2.204   6.026  10.845  2.8610 -0.5846 -1.0847
41622SOL     OW29227   7.683   3.429   1.575 -0.1187  0.1188 -0.1900
41622SOL    HW129228   7.767   3.423   1.620 -0.6598  1.1569  1.0278
41622SOL    HW229229   7.619   3.444   1.645 -1.3548 -0.7860 -1.0660
41623SOL     OW29230   6.176   1.171   2.247 -0.0798  0.5223  0.1326
41623SOL    HW129231   6.237   1.241   2.222  0.2492 -0.1915 -1.1435
41623SOL    HW229232   6.108   1.173   2.180  2.3204 -3.3343 -2.8266
41624SOL     OW29233   0.119  10.272   4.007 -0.2343  0.4660 -0.0645
41624SOL    HW129234   0.179  10.228   3.947  0.8773  1.1933  0.4975
41624SOL    HW229235   0.060  10.202   4.036  0.6374 -0.3689 -0.2412
41625SOL     OW29236   6.777   0.340   4.213  0.1767  0.2199  0.4677
41625SOL    HW129237   6.746   0.288   4.139  0.5102  0.9772 -0.2205
41625SOL    HW229238   6.720   0.417   4.214  2.1275  1.8152 -1.0410
41626SOL     OW29239   0.226   0.829   8.784 -0.7024  0.0405  0.3461
41626SOL    HW129240   0.307   0.869   8.816  1.4080 -2.7430 -1.0963
41626SOL    HW229241   0.195   0.775   8.857 -0.1419 -0.3723  0.2886
41627SOL     OW29242   8.321   1.900   8.607  0.3403 -0.2308 -0.5525
41627SOL    HW129243   8.307   1.967   8.541  1.5063  2.5864  1.8520
41627SOL    HW229244   8.416   1.894   8.616  0.2089 -0.1324  1.2298
41628SOL     OW29245  10.599   4.921   9.658  0.4399 -0.2751  0.1473
41628SOL    HW129246  10.530   4.876   9.707  0.3140  0.4967  0.7045
41628SOL    HW229247  10.677   4.867   9.671 -0.2681 -1.8032 -1.4535
41629SOL     OW29248  10.873   6.515  10.926  0.2499 -0.0472  0.2640
41629SOL    HW129249  10.893   6.559  11.008  1.2592  0.2102 -0.1077
41629SOL    HW229250  10.945   6.454  10.913 -0.1887 -0.4868 -0.1558
41630SOL     OW29251   6.422   3.817   5.365 -0.0477  0.5481  0.2613
41630SOL    HW129252   6.453   3.900   5.401  0.3477 -0.0601  1.3481
41630SOL    HW229253   6.444   3.822   5.272 -0.0250  1.6519  0.3121
41631SOL     OW29254   5.537   5.383   3.227 -0.0930  0.6539  0.0638
41631SOL    HW129255   5.503   5.294   3.222 -0.6077  0.7822  1.1047
41631SOL    HW229256   5.618   5.374   3.277 -1.3924  1.0733  2.3635
41632SOL     OW29257   1.433  10.233   0.247  0.0315 -0.2922 -0.2134
41632SOL    HW129258   1.346  10.207   0.216 -0.4823  2.6808 -1.5741
41632SOL    HW229259   1.416  10.282   0.327  0.5687 -0.5548  0.0630
41633SOL     OW29260   8.673   4.355   7.571 -0.1211  0.2090 -0.3956
41633SOL    HW129261   8.734   4.424   7.543 -1.9805  1.2110 -2.2907
41633SOL    HW229262   8.704   4.277   7.526  1.9142 -0.2596  1.6398
41634SOL     OW29263   8.654   7.018  11.012 -0.5299 -0.2269  0.0610
41634SOL    HW129264   8.637   7.045  11.102 -1.2981 -2.7673  0.7700
41634SOL    HW229265   8.749   7.022  11.003 -0.5133  1.0481  0.6080
41635SOL     OW29266   9.578   6.534   3.135  0.0437 -0.4818  0.0137
41635SOL    HW129267   9.555   6.443   3.155  3.2570 -1.9657 -2.3511
41635SOL    HW229268   9.586   6.537   3.040  1.4463  1.9123  0.1295
41636SOL     OW29269   1.701  10.860   5.253 -0.1379  0.0703 -0.1678
41636SOL    HW129270   1.754  10.873   5.332 -0.9888  0.1525  0.3951
41636SOL    HW229271   1.644  10.936   5.249  0.7833  0.7345 -1.5931
41637SOL     OW29272   5.571   7.057   4.803 -0.2046 -0.3147 -0.3167
41637SOL    HW129273   5.571   7.153   4.801  2.4301 -0.2316 -2.5216
41637SOL    HW229274   5.480   7.033   4.817 -0.8870  2.4827  0.7835
41638SOL     OW29275   4.894  11.078   6.054  0.5927  0.1096 -0.4820
41638SOL    HW129276   4.809  11.121   6.042  0.0341 -0.1288  1.9574
41638SOL    HW229277   4.955  11.150   6.068  0.3697  0.2264 -0.0907
41639SOL     OW29278   3.725   4.591   5.069  0.2240 -0.0673  0.3902
41639SOL    HW129279   3.647   4.613   5.119  0.0835  0.9605 -0.2604
41639SOL    HW229280   3.719   4.644   4.990  0.8691 -1.0331 -0.3354
41640SOL     OW29281  10.696   9.912   1.502  0.1458  0.0681 -0.5398
41640SOL    HW129282  10.620   9.857   1.521 -1.2123  1.4692 -1.6433
41640SOL    HW229283  10.712   9.900   1.408  1.6065 -0.5478 -0.2446
41641SOL     OW29284   0.369   4.213   6.604  0.1516 -0.3651 -0.4953
41641SOL    HW129285   0.324   4.129   6.600 -0.3899 -0.0694 -0.7247
41641SOL    HW229286   0.432   4.211   6.533  1.2274 -1.1884  0.4523
41642SOL     OW29287   4.800   4.228   6.058 -0.0923  0.3990  0.6733
41642SOL    HW129288   4.709   4.242   6.086 -0.0880  1.7275  0.1187
41642SOL    HW229289   4.848   4.301   6.097  0.8643 -0.6239  1.4587
41643SOL     OW29290   0.672   9.576   4.519  0.3096  0.0383  0.2239
41643SOL    HW129291   0.725   9.587   4.598  1.7168 -1.4643 -0.4324
41643SOL    HW229292   0.651   9.665   4.491  2.5388  0.7352  0.5426
41644SOL     OW29293   5.933   9.857   0.067 -0.1036 -0.0757 -0.6009
41644SOL    HW129294   5.913   9.767   0.091 -0.0936 -0.3666 -1.6641
41644SOL    HW229295   6.011   9.878   0.119  0.4090 -0.9776 -0.9790
41645SOL     OW29296   9.750   1.489   4.684 -0.2166 -0.1999 -0.0076
41645SOL    HW129297   9.762   1.562   4.744 -0.4570 -0.4187  0.3118
41645SOL    HW229298   9.657   1.466   4.692  0.0309 -1.0688  0.5123
41646SOL     OW29299   9.008   6.950   5.332 -0.1160  0.4387  0.0025
41646SOL    HW129300   8.967   6.865   5.343  1.2094 -0.3322 -0.8214
41646SOL    HW229301   8.941   7.003   5.289 -0.7933 -0.3266  0.0962
41647SOL     OW29302   5.735   5.053   7.277 -0.1142  0.0426 -0.3039
41647SOL    HW129303   5.764   5.073   7.366  0.2691 -0.6623 -0.2569
41647SOL    HW229304   5.802   5.092   7.221 -1.4067  2.2943 -0.4070
41648SOL     OW29305   1.365   1.922   3.113 -0.0410  0.0463  0.1308
41648SOL    HW129306   1.448   1.954   3.078 -0.6076  1.9622  0.4706
41648SOL    HW229307   1.389   1.873   3.192  0.9312 -1.4091 -0.9968
41649SOL     OW29308   2.891   6.617   2.786 -0.4323 -0.4927 -0.1138
41649SOL    HW129309   2.926   6.538   2.829  1.8488  0.6046  0.1981
41649SOL    HW229310   2.949   6.687   2.815 -3.0733  1.5687  0.5545
41650SOL     OW29311   2.489   8.011   5.333  0.3065 -0.2074 -0.5571
41650SOL    HW129312   2.445   7.927   5.322 -0.6275  0.0751  0.7569
41650SOL    HW229313   2.581   7.993   5.315  0.1480 -1.5473 -0.1105
41651SOL     OW29314  10.817   9.251   4.657 -0.2050  0.2222  0.1202
41651SOL    HW129315  10.828   9.181   4.593  0.3681 -0.3752  0.8649
41651SOL    HW229316  10.776   9.322   4.607  1.2400  0.1891 -1.1832
41652SOL     OW29317  10.965   8.994   8.727 -0.3373 -0.4454 -0.0680
41652SOL    HW129318  10.920   8.917   8.693 -0.9195 -0.3578  0.4833
41652SOL    HW229319  10.967   8.980   8.822  1.0884 -0.5960 -0.1064
41653SOL     OW29320   5.794   0.902   2.266  0.4485  0.4618  0.0448
41653SOL    HW129321   5.793   0.926   2.173 -0.5015  1.0966  0.2058
41653SOL    HW229322   5.714   0.940   2.301  0.5411 -0.2190  1.0222
41654SOL     OW29323   7.330   3.924   4.334  0.6061  0.2978  0.0113
41654SOL    HW129324   7.336   3.848   4.391 -0.4361  1.1183  1.2553
41654SOL    HW229325   7.292   3.890   4.253 -0.4469 -0.3924  0.7819
41655SOL     OW29326   6.324   7.152   6.529 -0.2847  0.2869  0.3336
41655SOL    HW129327   6.370   7.091   6.471 -0.3671  1.0669 -0.5700
41655SOL    HW229328   6.280   7.212   6.470 -1.0015  0.6403  1.2131
41656SOL     OW29329   7.717   1.424   9.836  0.4297  0.2046  0.0841
41656SOL    HW129330   7.653   1.364   9.874  0.9139 -0.3660  0.0212
41656SOL    HW229331   7.771   1.368   9.779  0.0465  0.9406 -1.0408
41657SOL     OW29332   0.315   3.758   3.641  0.1645 -0.2902 -0.4521
41657SOL    HW129333   0.252   3.686   3.640  1.8416 -1.8005 -0.7416
41657SOL    HW229334   0.367   3.747   3.562  0.8546  0.8844 -0.1939
41658SOL     OW29335   5.115   6.306   4.933 -0.0596 -0.0405 -0.5835
41658SOL    HW129336   5.127   6.229   4.877  0.4798  0.9595 -1.8875
41658SOL    HW229337   5.164   6.376   4.890 -1.6387  1.4029 -0.1562
41659SOL     OW29338   2.952   1.240   6.972  0.5295 -0.3032 -0.7135
41659SOL    HW129339   2.924   1.148   6.975 -1.8418  0.3554  0.0826
41659SOL    HW229340   2.974   1.260   7.063  2.4641 -0.4299 -1.1212
41660SOL     OW29341   6.697   6.812   7.955  0.1906 -0.0569  0.1103
41660SOL    HW129342   6.668   6.721   7.965  1.9055 -0.5862  0.7124
41660SOL    HW229343   6.791   6.809   7.973  0.7584  1.4652 -2.1588
41661SOL     OW29344   9.856   2.082   2.427  0.7078  0.4330 -0.3318
41661SOL    HW129345   9.943   2.067   2.391  0.5297 -1.3859 -0.0942
41661SOL    HW229346   9.868   2.077   2.522  0.3996  0.5035 -0.2857
41662SOL     OW29347   7.472   3.103   7.480 -0.0463 -0.6081  0.1612
41662SOL    HW129348   7.417   3.162   7.428  0.1076 -1.1141 -0.6034
41662SOL    HW229349   7.522   3.161   7.538  1.2007  0.1750 -1.6061
41663SOL     OW29350   2.644   1.576   0.166  0.1246 -0.6887 -0.4628
41663SOL    HW129351   2.619   1.542   0.080  0.8084 -1.3320 -0.4118
41663SOL    HW229352   2.569   1.555   0.223 -0.7362  0.5554 -1.0817
41664SOL     OW29353   3.146   0.666   9.968  0.0157 -0.0392 -0.0604
41664SOL    HW129354   3.056   0.697   9.963 -0.5081 -1.4550  0.2821
41664SOL    HW229355   3.139   0.572   9.982  1.5532 -0.2897 -0.7169
41665SOL     OW29356   4.113   6.152   7.021 -0.0619  0.0582 -0.5031
41665SOL    HW129357   4.154   6.222   7.072 -0.7839 -0.8889  1.4756
41665SOL    HW229358   4.147   6.164   6.932  2.4086  0.9143  0.4731
41666SOL     OW29359   2.469   9.428   8.349 -0.8330 -0.1131 -0.1361
41666SOL    HW129360   2.539   9.461   8.406 -0.7975  0.6270 -0.5948
41666SOL    HW229361   2.472   9.333   8.359  0.7912 -0.1632 -0.7828
41667SOL     OW29362   8.124   9.583   6.421  0.1683 -0.4813 -0.5286
41667SOL    HW129363   8.047   9.618   6.465  1.1529 -0.1857  1.0452
41667SOL    HW229364   8.157   9.657   6.369  0.7834  0.1982  0.7723
41668SOL     OW29365   6.512   8.725   0.556 -0.6276 -0.0630  0.0245
41668SOL    HW129366   6.562   8.764   0.484 -0.9766  2.0925  0.8649
41668SOL    HW229367   6.430   8.697   0.516 -0.4863  0.3609 -0.5624
41669SOL     OW29368   6.099   8.631   3.135 -0.3974  0.0565 -0.2102
41669SOL    HW129369   6.186   8.650   3.168 -0.1831  0.5418 -1.0297
41669SOL    HW229370   6.044   8.627   3.213  0.3834 -0.4466  0.3344
41670SOL     OW29371   5.724  10.299   0.109  0.2334 -0.4418  0.5810
41670SOL    HW129372   5.800  10.244   0.129 -0.3614 -1.2946  0.5623
41670SOL    HW229373   5.757  10.364   0.047  0.0901 -3.2550 -2.7237
41671SOL     OW29374   9.722   6.225   7.568  0.6354  0.3773  0.2904
41671SOL    HW129375   9.792   6.203   7.628  1.8508  2.3586 -0.3146
41671SOL    HW229376   9.721   6.321   7.565 -0.1814  0.3672 -1.8942
41672SOL     OW29377   8.491   1.977   9.305  0.7773 -0.3982  0.0394
41672SOL    HW129378   8.484   2.072   9.297 -0.1086 -0.3478  1.2415
41672SOL    HW229379   8.491   1.946   9.215 -1.0010  0.6008 -0.3469
41673SOL     OW29380   5.340   5.599   3.338  0.0897  0.2686  0.3840
41673SOL    HW129381   5.328   5.595   3.433  0.1861  1.8356  0.4940
41673SOL    HW229382   5.304   5.517   3.305  0.6919 -0.6167  1.8326
41674SOL     OW29383   9.920   7.551   9.381  0.2738 -0.6094 -0.5029
41674SOL    HW129384   9.855   7.508   9.436  0.6299  1.2202  1.4776
41674SOL    HW229385   9.984   7.481   9.362 -0.2173 -1.4776  0.8555
41675SOL     OW29386   4.758   6.337   8.242  0.5071 -0.4016 -0.8063
41675SOL    HW129387   4.724   6.350   8.331  1.0999  2.2312 -0.8887
41675SOL    HW229388   4.727   6.250   8.217 -2.6796  0.1658  0.6562
41676SOL     OW29389   0.080   7.677  10.758  0.0513  0.2781 -0.3868
41676SOL    HW129390   0.169   7.640  10.751  0.8284  2.2717 -2.1033
41676SOL    HW229391   0.086   7.738  10.831 -0.9689 -2.0662  1.8117
41677SOL     OW29392  10.345   1.569   1.078  0.2718  0.2033 -0.4328
41677SOL    HW129393  10.385   1.507   1.017 -0.9529  1.7445 -2.9457
41677SOL    HW229394  10.274   1.609   1.028  0.6464  3.2433  1.2543
41678SOL     OW29395  10.215   1.335   8.403 -0.7658 -0.1152 -0.4895
41678SOL    HW129396  10.298   1.336   8.356 -0.1984 -2.1219  0.3481
41678SOL    HW229397  10.185   1.244   8.395 -1.5528 -0.0695  1.4404
41679SOL     OW29398  11.019   4.985   2.258 -0.2466  0.2629  0.4143
41679SOL    HW129399  11.012   4.890   2.248 -0.4630  0.2518  0.6905
41679SOL    HW229400  11.003   5.019   2.170 -0.2688  0.0512  0.3355
41680SOL     OW29401   6.668   0.912   8.559  0.9482 -0.1081 -0.5052
41680SOL    HW129402   6.756   0.948   8.573  0.6288  1.0801 -1.2954
41680SOL    HW229403   6.638   0.957   8.480 -0.1973 -0.8349 -0.4905
41681SOL     OW29404  10.453  10.809   7.076 -0.8753 -0.8820 -0.1173
41681SOL    HW129405  10.513  10.883   7.079  2.0554 -3.0810 -0.0761
41681SOL    HW229406  10.431  10.799   6.984  0.1903 -1.0295 -0.3671
41682SOL     OW29407   0.974   4.194   7.308 -0.0086 -0.3503 -0.3772
41682SOL    HW129408   0.991   4.143   7.229 -0.8422 -0.4160 -0.5217
41682SOL    HW229409   0.931   4.274   7.277  1.6947  0.6745 -0.1926
41683SOL     OW29410   2.450   6.385   4.526  0.3191 -0.4182  0.2503
41683SOL    HW129411   2.517   6.388   4.594 -1.5472 -1.5053  2.2434
41683SOL    HW229412   2.370   6.360   4.572 -1.2737 -0.1345 -2.1904
41684SOL     OW29413   4.115  10.713   1.367 -0.3071  0.3056 -0.3261
41684SOL    HW129414   4.084  10.666   1.445 -0.2853 -0.4701 -0.7727
41684SOL    HW229415   4.047  10.698   1.301 -1.0559  2.2133 -0.0257
41685SOL     OW29416   6.080   3.315   9.032  0.3187 -0.2521 -0.5870
41685SOL    HW129417   6.035   3.397   9.052 -1.9258 -1.8275  1.3248
41685SOL    HW229418   6.012   3.248   9.034  2.3691 -2.4998  0.0992
41686SOL     OW29419   6.685   0.676   7.857  0.1111  0.4579  0.6875
41686SOL    HW129420   6.721   0.599   7.812 -2.6007 -0.0938 -0.7717
41686SOL    HW229421   6.703   0.749   7.797  0.6370  0.5704  0.9751
41687SOL     OW29422  10.867   1.350   6.557  0.4840 -0.0317 -0.6041
41687SOL    HW129423  10.903   1.272   6.599  1.2995  0.1328 -0.9915
41687SOL    HW229424  10.772   1.339   6.564  0.5860 -1.1506 -0.8190
41688SOL     OW29425   4.894   4.569   0.943  0.0476  0.4438 -0.4671
41688SOL    HW129426   4.980   4.549   0.906 -0.1603  1.0806 -1.3316
41688SOL    HW229427   4.910   4.581   1.037  0.6711 -0.7223 -0.4130
41689SOL     OW29428   7.940   5.801   8.258  0.6883 -0.2383  0.2461
41689SOL    HW129429   7.975   5.723   8.301  1.4096  0.0780  0.2607
41689SOL    HW229430   8.018   5.853   8.236  0.2615  0.1711 -0.3519
41690SOL     OW29431   3.053   8.681  10.281  0.2478  0.3765 -0.4496
41690SOL    HW129432   2.982   8.710  10.338 -1.4919 -2.7312 -0.8183
41690SOL    HW229433   3.009   8.647  10.203  1.9165 -2.6385 -0.2466
41691SOL     OW29434   4.676   8.656   2.642 -0.3636 -0.5099  0.2089
41691SOL    HW129435   4.589   8.694   2.651 -0.4952 -0.7003 -0.2571
41691SOL    HW229436   4.674   8.577   2.695 -0.0124  0.2374  1.3918
41692SOL     OW29437   8.766   4.255   1.253 -0.4780  0.1782 -0.7027
41692SOL    HW129438   8.681   4.259   1.297 -0.1592 -0.3725 -0.0203
41692SOL    HW229439   8.773   4.338   1.207 -0.3320  1.3052  1.2290
41693SOL     OW29440   5.475  10.283   4.475  0.5340  0.3805  0.1223
41693SOL    HW129441   5.454  10.330   4.394 -0.7632  1.6202  1.1238
41693SOL    HW229442   5.398  10.296   4.531  1.9178  0.6966  2.0545
41694SOL     OW29443   1.778   1.263   8.341  0.2516  0.2352 -0.7165
41694SOL    HW129444   1.718   1.226   8.405  1.0083 -0.3532 -0.3372
41694SOL    HW229445   1.865   1.244   8.375  0.6936 -0.7200 -2.2576
41695SOL     OW29446   2.734   9.180   2.132  0.2533 -0.3330  0.3070
41695SOL    HW129447   2.806   9.235   2.163 -0.6498  1.1708 -0.1576
41695SOL    HW229448   2.762   9.152   2.045 -0.1281  1.0899 -0.3000
41696SOL     OW29449  10.062   4.852   3.726  0.3211  0.0402  0.4035
41696SOL    HW129450  10.114   4.783   3.684  0.5079  0.2828  0.2317
41696SOL    HW229451  10.112   4.875   3.804  0.2017 -0.0941  0.5221
41697SOL     OW29452   1.353   0.634   7.795 -0.3125  0.1784 -0.9995
41697SOL    HW129453   1.400   0.551   7.786 -0.6462 -0.3449  1.3072
41697SOL    HW229454   1.263   0.614   7.768 -0.2413 -0.0290 -1.0853
41698SOL     OW29455   1.700   4.839   6.615  0.1872  0.2639  0.4854
41698SOL    HW129456   1.741   4.758   6.587 -0.2607 -0.2573  1.2723
41698SOL    HW229457   1.614   4.838   6.573  0.8608  1.2511 -0.9923
41699SOL     OW29458   2.460  10.218   8.877 -0.0951 -0.0629 -0.4018
41699SOL    HW129459   2.505  10.199   8.795 -1.6851  0.7150 -1.5120
41699SOL    HW229460   2.508  10.293   8.914  1.7137 -1.5230  0.3317
41700SOL     OW29461   5.687   9.034   1.373  0.0170 -0.7200 -0.1834
41700SOL    HW129462   5.699   8.974   1.300 -0.1564 -0.8566 -0.1019
41700SOL    HW229463   5.675   8.977   1.449  1.3086 -0.5880  0.1472
41701SOL     OW29464   5.774   9.722   1.125  0.4948  0.9429 -0.9696
41701SOL    HW129465   5.857   9.723   1.171 -0.4623 -3.2055  1.3292
41701SOL    HW229466   5.718   9.783   1.174  1.0070  0.5453  0.1254
41702SOL     OW29467   0.592   6.346   0.495 -0.5144 -0.2477  0.2889
41702SOL    HW129468   0.655   6.318   0.429 -0.1391  0.0944  0.4999
41702SOL    HW229469   0.518   6.286   0.484 -0.9529  0.4933 -1.2173
41703SOL     OW29470   9.607   0.114   8.252 -0.1158 -0.4434 -0.7021
41703SOL    HW129471   9.579   0.023   8.254  1.4677 -0.9441  0.0853
41703SOL    HW229472   9.590   0.142   8.162  1.5924 -2.2794 -1.6760
41704SOL     OW29473   7.914   5.393   7.809 -0.2842 -0.0440 -0.0920
41704SOL    HW129474   7.882   5.483   7.799  1.5157  0.5510 -0.9138
41704SOL    HW229475   7.837   5.339   7.793 -0.9368  1.3001 -1.8429
41705SOL     OW29476   4.639   4.620   0.478  0.2479 -0.1460 -0.2268
41705SOL    HW129477   4.682   4.613   0.393 -0.5435 -2.7367 -0.4924
41705SOL    HW229478   4.712   4.624   0.541  0.8561  2.8134 -0.9765
41706SOL     OW29479   8.754   3.067   6.058 -0.0484 -0.1575  0.5559
41706SOL    HW129480   8.687   3.051   6.125  0.1398  0.3945  0.8830
41706SOL    HW229481   8.824   3.006   6.079  0.1491  0.2374  1.0658
41707SOL     OW29482   1.066   1.358   1.305  0.4760 -0.4030  0.6229
41707SOL    HW129483   1.006   1.431   1.296  1.6284  0.4452 -0.4342
41707SOL    HW229484   1.066   1.315   1.219  1.1769 -0.5411  0.6827
41708SOL     OW29485   9.790   7.886  10.042 -0.1739 -0.2722 -0.1884
41708SOL    HW129486   9.757   7.884  10.132  0.8016 -0.4127  0.1789
41708SOL    HW229487   9.769   7.799  10.007 -0.6752 -0.1708 -0.1535
41709SOL     OW29488   5.107   8.220   9.411 -0.1009  0.0945 -0.0155
41709SOL    HW129489   5.032   8.165   9.391 -1.1460  1.6351 -0.5339
41709SOL    HW229490   5.081   8.308   9.383  1.4966  0.8730  0.7666
41710SOL     OW29491   5.902   5.338  10.450 -0.1178 -0.2923 -0.3833
41710SOL    HW129492   5.913   5.344  10.355  0.3724 -1.6684 -0.4364
41710SOL    HW229493   5.975   5.284  10.479 -0.8550 -0.7686  0.6373
41711SOL     OW29494   8.228   6.932   2.988  0.0130  0.1295  0.4032
41711SOL    HW129495   8.271   6.882   2.918  0.0450 -0.9288  1.1536
41711SOL    HW229496   8.142   6.891   2.997 -0.5924  1.2603 -0.0554
41712SOL     OW29497   1.139   9.177   9.057 -0.2953 -0.4750  0.6466
41712SOL    HW129498   1.067   9.240   9.064  0.1089  0.2228 -1.0606
41712SOL    HW229499   1.113   9.118   8.986  0.8113 -0.2096 -0.0031
41713SOL     OW29500   5.863   7.370  10.719  0.3882 -0.1747 -0.4403
41713SOL    HW129501   5.880   7.407  10.806 -0.1011 -1.4441  0.2249
41713SOL    HW229502   5.895   7.437  10.658  1.5616  0.3623  0.7093
41714SOL     OW29503   4.670   8.532   9.022 -0.1188 -0.1695  0.2507
41714SOL    HW129504   4.731   8.483   8.968 -1.5133 -0.2625 -1.2928
41714SOL    HW229505   4.587   8.530   8.974 -1.8381 -1.4145  2.9868
41715SOL     OW29506   5.842   7.641   1.874  0.4940  0.2681 -0.3971
41715SOL    HW129507   5.861   7.556   1.914  1.8056  0.0204 -1.4814
41715SOL    HW229508   5.764   7.672   1.920  0.1920 -1.3600  0.2648
41716SOL     OW29509   2.819   6.876  10.106 -0.5453  0.2167 -0.2259
41716SOL    HW129510   2.785   6.789  10.128 -0.9802  0.4870  0.2054
41716SOL    HW229511   2.792   6.890  10.015  0.2096 -0.4140 -0.5575
41717SOL     OW29512   1.870   9.710   1.405 -0.1050 -0.7601 -0.3877
41717SOL    HW129513   1.856   9.691   1.312 -1.4606  0.2497 -0.4174
41717SOL    HW229514   1.798   9.665   1.449 -0.2198 -0.1546  0.0459
41718SOL     OW29515   7.176   6.651   9.260  0.3708  0.1593 -0.3224
41718SOL    HW129516   7.157   6.603   9.340  1.4820  0.0471 -0.1106
41718SOL    HW229517   7.265   6.685   9.272  1.0105 -0.8055 -1.9623
41719SOL     OW29518   9.127   2.851   2.926 -0.1437  0.2212  0.1507
41719SOL    HW129519   9.208   2.809   2.896 -0.6455 -0.1332 -0.7345
41719SOL    HW229520   9.128   2.839   3.021  0.0333 -1.2383 -0.0178
41720SOL     OW29521   3.319   4.188   5.844 -0.3317 -0.4463  0.7559
41720SOL    HW129522   3.378   4.253   5.805  0.0713 -0.5197  1.2296
41720SOL    HW229523   3.244   4.239   5.874 -0.1919 -0.2513  0.7755
41721SOL     OW29524   0.267   5.670   8.778 -0.1271  0.4868  0.4956
41721SOL    HW129525   0.174   5.689   8.767  0.1511  1.3698 -0.5399
41721SOL    HW229526   0.310   5.718   8.707  0.8113 -2.5825 -1.2495
41722SOL     OW29527   0.019   3.697   5.432  0.1595  0.5998  0.2459
41722SOL    HW129528   0.043   3.608   5.459  2.0163  0.8842 -0.3419
41722SOL    HW229529  -0.051   3.684   5.368  1.6521 -0.6003 -1.2575
41723SOL     OW29530   3.738   7.764   7.617 -0.3457  0.0669  0.1981
41723SOL    HW129531   3.791   7.843   7.608  0.0487 -0.0581  1.3506
41723SOL    HW229532   3.797   7.693   7.589 -0.4240  0.0821 -0.0121
41724SOL     OW29533   6.309   2.237   5.205 -0.0550  0.4455 -0.4557
41724SOL    HW129534   6.297   2.201   5.292 -0.7581 -0.4149 -0.8870
41724SOL    HW229535   6.383   2.297   5.213  1.0341 -0.9624  0.3396
41725SOL     OW29536   0.162   6.502   7.081 -0.5894 -0.3503  0.0495
41725SOL    HW129537   0.101   6.484   7.152 -1.2300 -0.0471 -0.4161
41725SOL    HW229538   0.152   6.596   7.064  0.1672 -0.2498  0.1127
41726SOL     OW29539   4.509   9.512   6.166  0.3165  0.0467 -0.0032
41726SOL    HW129540   4.453   9.551   6.233  0.7411 -1.0268  0.9996
41726SOL    HW229541   4.454   9.445   6.125 -0.7634  2.2564 -2.4254
41727SOL     OW29542   5.662   1.192   1.455  0.3110 -0.1735 -0.0089
41727SOL    HW129543   5.595   1.124   1.453  0.2210 -0.1344  1.1692
41727SOL    HW229544   5.696   1.189   1.544 -0.1335  1.7603  0.2604
41728SOL     OW29545   4.809   9.944  10.667  0.6004 -0.0041 -0.0042
41728SOL    HW129546   4.724   9.979  10.695  0.7152 -0.7136  1.3176
41728SOL    HW229547   4.872   9.986  10.725  1.1076  0.1301 -0.6409
41729SOL     OW29548   1.826   7.816   5.020 -0.2678  0.3516 -0.3824
41729SOL    HW129549   1.873   7.762   4.955  0.3936  1.2662 -0.6861
41729SOL    HW229550   1.891   7.881   5.048 -0.8451  0.5623  0.4899
41730SOL     OW29551  11.032   6.907   8.336 -0.2835  0.1781  0.1862
41730SOL    HW129552  10.966   6.848   8.298  0.5483 -0.7958  0.1911
41730SOL    HW229553  10.981   6.978   8.374 -1.2282  0.5794 -1.6836
41731SOL     OW29554   3.141   7.771   7.415 -0.1134 -0.0434  0.2966
41731SOL    HW129555   3.213   7.736   7.467  1.1488  0.8154 -0.8097
41731SOL    HW229556   3.170   7.763   7.324 -2.2389 -1.4872 -0.3510
41732SOL     OW29557   2.573  10.035   0.805  0.9009 -0.5283  0.2395
41732SOL    HW129558   2.524  10.116   0.817  1.9552  0.1883 -0.1226
41732SOL    HW229559   2.531   9.973   0.864  1.5236  0.9149  2.3253
41733SOL     OW29560   5.143  10.488   2.591  0.4129 -0.9007  0.0073
41733SOL    HW129561   5.185  10.561   2.636  0.1691 -0.7918  0.0593
41733SOL    HW229562   5.051  10.511   2.587  0.6391 -0.1320 -2.0034
41734SOL     OW29563   5.771   5.375   0.472 -0.1535 -0.0293  0.6928
41734SOL    HW129564   5.844   5.376   0.410  1.0479 -3.3753  1.8397
41734SOL    HW229565   5.792   5.444   0.535  1.0913  0.2215  0.0424
41735SOL     OW29566   4.833   1.209   6.457 -0.0690  0.0667  0.3336
41735SOL    HW129567   4.885   1.164   6.524  0.2094  0.3600  0.3158
41735SOL    HW229568   4.804   1.139   6.398 -1.8954 -0.4847  1.7853
41736SOL     OW29569   0.862   0.223   6.080 -0.5353  0.9537 -0.1412
41736SOL    HW129570   0.918   0.146   6.076 -1.3303  0.2065  1.9760
41736SOL    HW229571   0.911   0.290   6.032  2.2220  0.3489  1.5879
41737SOL     OW29572  10.592   9.165   4.271  0.0576 -0.3823 -0.2561
41737SOL    HW129573  10.497   9.171   4.270  0.1143  1.8276 -2.0937
41737SOL    HW229574  10.614   9.113   4.194  0.3734 -2.5644  1.2105
41738SOL     OW29575   9.893   7.106  10.635 -0.1463  0.0233 -0.9145
41738SOL    HW129576   9.926   7.112  10.545  0.6773  0.5432 -0.5948
41738SOL    HW229577   9.905   7.014  10.659 -1.0301 -0.2800 -1.5615
41739SOL     OW29578   0.518   1.290   4.871 -0.5322 -0.4505 -0.5066
41739SOL    HW129579   0.505   1.204   4.832  1.2261 -1.4351  0.9230
41739SOL    HW229580   0.440   1.303   4.925 -1.3626 -0.5872 -1.6320
41740SOL     OW29581   1.185   5.414   6.366 -0.7961 -0.3477  0.2032
41740SOL    HW129582   1.118   5.465   6.319 -0.2035 -0.1854 -0.4746
41740SOL    HW229583   1.139   5.334   6.391 -0.7081 -1.2214 -2.1592
41741SOL     OW29584   9.002   0.263  10.424  0.0015  0.0405 -0.4863
41741SOL    HW129585   9.048   0.202  10.481  0.5247  0.1071 -0.8265
41741SOL    HW229586   8.930   0.297  10.477 -0.2843 -0.8535 -0.2844
41742SOL     OW29587  10.972   4.450   4.719 -0.2688 -0.1413  0.7861
41742SOL    HW129588  11.062   4.430   4.693 -0.3561 -0.5062  0.7540
41742SOL    HW229589  10.977   4.536   4.761  0.1545 -0.3348  1.1354
41743SOL     OW29590   2.291   5.731  10.048  0.3252 -0.0780  0.5507
41743SOL    HW129591   2.333   5.648  10.025  2.1326  1.0286 -0.3946
41743SOL    HW229592   2.283   5.729  10.143 -0.6234 -1.7354  0.4730
41744SOL     OW29593   2.195   5.212   3.475 -0.2506 -0.0353 -0.0223
41744SOL    HW129594   2.159   5.130   3.509  2.6683 -2.6379 -2.5370
41744SOL    HW229595   2.275   5.225   3.525  1.6888 -1.4139 -2.5073
41745SOL     OW29596  10.997   3.974   7.073  0.2112 -0.7881 -0.2357
41745SOL    HW129597  10.903   3.974   7.086  0.1000 -1.5285 -0.9573
41745SOL    HW229598  11.031   4.032   7.142 -0.7086 -0.9791  0.3934
41746SOL     OW29599  10.820   4.824   5.612  0.1633  0.3706  0.0797
41746SOL    HW129600  10.776   4.818   5.527 -0.5377  0.1178  0.4477
41746SOL    HW229601  10.762   4.880   5.664  0.9180  1.0640  0.1967
41747SOL     OW29602   3.721   5.919   1.558  0.5750 -0.4319 -0.0899
41747SOL    HW129603   3.663   5.995   1.557  1.0432 -0.0776 -1.1596
41747SOL    HW229604   3.704   5.874   1.475  0.1990 -1.5992  0.5862
41748SOL     OW29605   3.029   4.027   2.410 -0.3881 -0.2100  0.8306
41748SOL    HW129606   2.938   4.026   2.381  0.5767 -2.0421 -2.5711
41748SOL    HW229607   3.062   4.113   2.383 -0.6503 -0.2438  0.3948
41749SOL     OW29608   6.785   1.472   4.076 -0.0810  0.1475 -0.3012
41749SOL    HW129609   6.732   1.540   4.118 -0.1281  1.5205 -2.4215
41749SOL    HW229610   6.875   1.504   4.083 -0.0026 -0.0407 -0.4569
41750SOL     OW29611   6.771   9.955   3.167  0.2699 -0.0986 -0.1510
41750SOL    HW129612   6.688   9.999   3.150 -0.4101 -1.5923 -0.8656
41750SOL    HW229613   6.811   9.945   3.080  0.6046 -0.4989  0.0463
41751SOL     OW29614  10.894   6.229   5.755 -0.1079 -0.2745  0.0945
41751SOL    HW129615  10.955   6.177   5.807 -1.2732 -0.7903  1.0019
41751SOL    HW229616  10.946   6.262   5.682  0.9499 -1.7556  0.1383
41752SOL     OW29617   0.228   0.222  10.480 -0.0299  0.1850  0.1302
41752SOL    HW129618   0.285   0.147  10.492  0.3048  0.2028 -1.2197
41752SOL    HW229619   0.238   0.273  10.560  2.2460  0.4469 -0.2744
41753SOL     OW29620   7.216   9.494   4.936 -0.2799  0.3700  0.1732
41753SOL    HW129621   7.125   9.515   4.955 -0.0573  0.2677  1.4689
41753SOL    HW229622   7.256   9.578   4.912 -0.3475  0.7243  1.2458
41754SOL     OW29623   2.717   4.711   4.206  0.6860 -0.0112 -0.2534
41754SOL    HW129624   2.797   4.730   4.255  0.3799 -1.5575  0.9150
41754SOL    HW229625   2.743   4.650   4.138  0.5264 -0.5067  0.1203
41755SOL     OW29626   2.172   2.434   7.748 -0.0954  0.1858 -0.2798
41755SOL    HW129627   2.134   2.350   7.774  0.8563  0.1484  1.0812
41755SOL    HW229628   2.264   2.428   7.776  0.2338  1.2947 -1.0799
41756SOL     OW29629  10.946   7.927   5.001 -0.5848  0.2304 -0.0624
41756SOL    HW129630  10.865   7.898   5.042  0.5299 -0.4783  1.7879
41756SOL    HW229631  11.012   7.865   5.033  1.0717  2.0986  0.3232
41757SOL     OW29632  10.606   1.543   8.547 -0.3996 -0.0406  0.4077
41757SOL    HW129633  10.584   1.567   8.638 -0.4965 -0.2894  0.4505
41757SOL    HW229634  10.606   1.626   8.500  3.3701  0.7101  1.3711
41758SOL     OW29635   5.260   6.978   8.596 -0.4951 -0.0890 -0.4274
41758SOL    HW129636   5.285   6.980   8.688  1.1100 -1.7998 -0.7596
41758SOL    HW229637   5.167   7.001   8.595 -0.4484  0.3163  1.5706
41759SOL     OW29638  10.943   4.155   0.867  0.0699 -0.2648  0.4310
41759SOL    HW129639  10.853   4.141   0.836  0.1009  1.2289 -0.4263
41759SOL    HW229640  10.943   4.244   0.902  1.8405  0.8312 -2.0907
41760SOL     OW29641   6.547  10.378   2.490 -0.3492 -0.3525  0.0518
41760SOL    HW129642   6.559  10.469   2.463 -0.9886 -0.4961 -0.7542
41760SOL    HW229643   6.453  10.371   2.508  0.0749 -0.1210  2.9147
41761SOL     OW29644   1.114   9.371   2.462  0.1754  0.0498 -0.2619
41761SOL    HW129645   1.023   9.399   2.467  0.2214  0.2122 -0.3186
41761SOL    HW229646   1.111   9.287   2.417  0.0271 -0.0855 -0.0018
41762SOL     OW29647   5.943   5.999   6.127 -0.0985 -0.4342 -0.0160
41762SOL    HW129648   5.848   6.012   6.127 -0.0395  0.0152 -0.3290
41762SOL    HW229649   5.978   6.080   6.091  0.4170 -0.5298  0.2628
41763SOL     OW29650   1.627  11.047   2.945 -0.0757  0.0738 -0.0801
41763SOL    HW129651   1.595  10.989   2.876  0.0256  0.5026 -0.4928
41763SOL    HW229652   1.553  11.104   2.964 -0.6369 -1.0750  1.3055
41764SOL     OW29653   0.766   3.775   9.556 -0.0133 -0.2023  0.6709
41764SOL    HW129654   0.835   3.836   9.582 -0.3138  0.2132  0.5086
41764SOL    HW229655   0.685   3.823   9.572 -0.2580 -0.6009  0.6383
41765SOL     OW29656  10.893   3.166   6.145 -0.0746 -0.5906  0.0336
41765SOL    HW129657  10.838   3.093   6.171  0.7828 -1.6574 -1.0084
41765SOL    HW229658  10.982   3.139   6.171  0.2161  0.1826 -0.1395
41766SOL     OW29659   5.185   2.455  10.207  0.2059 -0.4608 -0.0381
41766SOL    HW129660   5.186   2.456  10.111 -0.3068 -0.4781 -0.0501
41766SOL    HW229661   5.116   2.517  10.230 -0.9895 -1.8428  0.2715
41767SOL     OW29662   7.047   3.202   8.800  0.2601 -0.0940  0.1414
41767SOL    HW129663   7.096   3.139   8.851  1.2002 -0.6635 -1.3768
41767SOL    HW229664   6.964   3.158   8.779  0.5141 -0.4656 -0.0987
41768SOL     OW29665   5.622   1.435   5.130  0.0496  0.1407  0.5516
41768SOL    HW129666   5.546   1.480   5.167  0.9024  1.4497  0.7900
41768SOL    HW229667   5.593   1.406   5.043 -1.1182 -0.5520  1.1536
41769SOL     OW29668  10.658   8.869   1.051  0.2984 -0.1324 -0.2436
41769SOL    HW129669  10.679   8.933   1.118 -1.2680  0.6906 -0.4925
41769SOL    HW229670  10.628   8.792   1.099 -0.2290  0.2326  0.0127
41770SOL     OW29671   9.064   2.600  10.091  0.2286  0.2106  0.6629
41770SOL    HW129672   9.054   2.644  10.175  0.4908  1.1797  0.2054
41770SOL    HW229673   9.053   2.507  10.111 -1.2502  0.5312  1.5132
41771SOL     OW29674   7.970   7.926   2.527 -0.4687  0.3586 -0.0792
41771SOL    HW129675   8.024   7.876   2.587  0.1464  0.5142 -0.4981
41771SOL    HW229676   8.015   7.922   2.443 -0.5555  1.3579 -0.1928
41772SOL     OW29677   2.969   5.412   4.346  0.1434  0.4382 -0.2043
41772SOL    HW129678   3.055   5.448   4.368  0.3288 -0.4711  0.6676
41772SOL    HW229679   2.970   5.324   4.384 -0.7761  0.0098 -1.1156
41773SOL     OW29680   4.557   7.882   2.242  0.2470  0.4728 -0.3689
41773SOL    HW129681   4.529   7.865   2.332  1.8381  2.4070  0.5725
41773SOL    HW229682   4.539   7.975   2.228  0.3004  0.2764 -1.9499
41774SOL     OW29683   1.149   0.799   2.882  0.6681  0.2307 -0.3419
41774SOL    HW129684   1.219   0.823   2.944 -1.2682  0.7525  1.7954
41774SOL    HW229685   1.177   0.715   2.846  2.2745  0.2869  0.6541
41775SOL     OW29686   2.824  11.046   7.517  0.1371  0.2584  0.4706
41775SOL    HW129687   2.770  10.988   7.571 -1.8438  1.8187  0.3048
41775SOL    HW229688   2.897  11.071   7.574 -1.1394  0.7267  1.9817
41776SOL     OW29689   6.982   9.146   3.423  0.2442 -0.3072  0.2038
41776SOL    HW129690   6.936   9.168   3.342 -1.8818 -0.8874  1.1792
41776SOL    HW229691   6.987   9.229   3.470  2.5426  0.2862 -0.9412
41777SOL     OW29692   4.275   3.366   1.621  0.6030  0.1422 -0.1078
41777SOL    HW129693   4.360   3.409   1.634  0.9234  0.2410 -2.1954
41777SOL    HW229694   4.266   3.307   1.696  1.8645  1.1286  0.8693
41778SOL     OW29695   6.834  10.655   5.463  0.2369  0.1100  0.2873
41778SOL    HW129696   6.809  10.609   5.383  1.1385 -1.0846  0.6538
41778SOL    HW229697   6.925  10.680   5.448 -0.2546  1.9612  0.0532
41779SOL     OW29698   4.223   5.303   5.778  0.3058  0.4669  0.2652
41779SOL    HW129699   4.136   5.323   5.812  0.2646 -0.9251  1.0479
41779SOL    HW229700   4.270   5.266   5.853  0.7943 -1.0192 -0.7304
41780SOL     OW29701   9.226   6.131   4.758  0.1126 -0.4672  0.3176
41780SOL    HW129702   9.272   6.178   4.688 -0.0231 -0.2018  0.4087
41780SOL    HW229703   9.294   6.076   4.797  0.6051  0.6979  1.1329
41781SOL     OW29704   2.883   7.403   4.592  0.1670 -0.2605 -0.1533
41781SOL    HW129705   2.817   7.389   4.661 -1.2985 -1.2319 -1.6787
41781SOL    HW229706   2.901   7.315   4.559  0.9079  0.1831 -0.9510
41782SOL     OW29707   6.568   8.304   0.679  0.0713  0.1019 -0.0490
41782SOL    HW129708   6.490   8.342   0.639  0.7565  2.1070  0.4228
41782SOL    HW229709   6.614   8.378   0.717  1.6234 -1.1961  0.7107
41783SOL     OW29710   2.867   4.707   8.445 -0.2820 -0.4880 -0.0156
41783SOL    HW129711   2.812   4.629   8.432 -1.2719  0.0737  0.6736
41783SOL    HW229712   2.932   4.701   8.375 -1.8427 -0.6453 -1.5631
41784SOL     OW29713   2.993   9.754  10.741 -0.1751 -0.2192  0.2882
41784SOL    HW129714   3.010   9.705  10.821  0.4994 -0.9635 -0.2997
41784SOL    HW229715   3.070   9.738  10.686 -0.7354  0.0870 -0.6028
41785SOL     OW29716   8.060   2.650   3.958 -0.2324 -0.0109 -0.3685
41785SOL    HW129717   8.010   2.657   3.876  1.6876 -0.8071 -1.6963
41785SOL    HW229718   8.017   2.579   4.006 -1.6562  0.7543 -0.4779
41786SOL     OW29719   8.085  10.235   0.144  0.5660  0.2856  0.1147
41786SOL    HW129720   8.061  10.249   0.235  0.0894 -0.8115  0.1622
41786SOL    HW229721   8.163  10.290   0.131  0.0317  1.2619  0.8771
41787SOL     OW29722   6.569   5.652   0.596  0.0908  0.5204 -0.3292
41787SOL    HW129723   6.611   5.717   0.540 -1.4387  0.8019 -1.1952
41787SOL    HW229724   6.639   5.623   0.656  0.7487  3.1728  0.3087
41788SOL     OW29725   3.690   1.558   8.934 -0.0761 -0.2789  0.1860
41788SOL    HW129726   3.756   1.560   8.866  0.1735 -1.0242  0.4011
41788SOL    HW229727   3.739   1.563   9.016 -0.3411  0.0488  0.3292
41789SOL     OW29728   7.354   7.975   7.375  0.5266 -0.7262 -0.0569
41789SOL    HW129729   7.431   8.032   7.378 -1.0049  1.4163  1.2359
41789SOL    HW229730   7.369   7.918   7.299  1.6693  2.1514 -2.1807
41790SOL     OW29731   7.138   4.460   8.333  0.0794 -0.3460 -0.1604
41790SOL    HW129732   7.171   4.395   8.271 -1.2199 -1.1086 -0.0814
41790SOL    HW229733   7.195   4.451   8.409  1.7759  0.6932 -1.2445
41791SOL     OW29734   2.429  10.194   5.585 -0.0468 -0.3252  0.2122
41791SOL    HW129735   2.364  10.261   5.609  0.3458 -0.1875  0.9152
41791SOL    HW229736   2.513  10.236   5.600  0.2404 -0.2688 -1.3589
41792SOL     OW29737   0.796   7.879   7.711 -0.3891 -0.2238  0.7647
41792SOL    HW129738   0.787   7.912   7.621 -1.2373  0.9430  1.2484
41792SOL    HW229739   0.861   7.936   7.751  0.7654 -1.3993  0.6152
41793SOL     OW29740   0.108   5.280   4.786  0.0952 -0.2811  0.0258
41793SOL    HW129741   0.155   5.229   4.852  0.2461  0.0164  0.1521
41793SOL    HW229742   0.029   5.310   4.830  0.3867  0.2492  0.2017
41794SOL     OW29743   0.952   3.994   8.115 -0.0232 -0.3902  0.1426
41794SOL    HW129744   1.008   3.962   8.185 -0.3804  0.5278  0.8694
41794SOL    HW229745   0.929   3.916   8.065  0.7321 -0.9716  0.6842
41795SOL     OW29746  10.952   6.816   6.670  0.3597 -0.0364  0.3416
41795SOL    HW129747  10.876   6.763   6.697  0.3126  0.2219  0.7293
41795SOL    HW229748  10.924   6.858   6.589  0.5490 -0.9300 -0.1930
41796SOL     OW29749   2.488   8.297   7.123 -0.4476  0.7796 -0.2980
41796SOL    HW129750   2.569   8.278   7.075  0.0156  0.3699  0.6189
41796SOL    HW229751   2.418   8.276   7.062  0.1226 -0.0109 -0.6945
41797SOL     OW29752   8.324   8.803   4.897 -0.3085 -0.6153  0.1822
41797SOL    HW129753   8.354   8.891   4.920 -2.3934  0.1084  0.3736
41797SOL    HW229754   8.316   8.758   4.981 -2.6226  0.2220  0.4791
41798SOL     OW29755   3.966   1.096   3.905 -0.1551  0.2067  0.0141
41798SOL    HW129756   4.038   1.036   3.889 -0.1048 -0.0343  1.0516
41798SOL    HW229757   3.960   1.149   3.826 -0.3161 -1.2761 -0.9916
41799SOL     OW29758   9.890   8.852   1.382 -0.2668  0.3048  0.2386
41799SOL    HW129759   9.966   8.801   1.353  0.4822  1.0476  0.8139
41799SOL    HW229760   9.918   8.943   1.372 -1.6407  0.6276 -0.9412
41800SOL     OW29761  10.762   8.260   0.598  0.1194 -0.3266  0.5321
41800SOL    HW129762  10.804   8.287   0.680 -0.2426 -0.6910  0.8424
41800SOL    HW229763  10.676   8.229   0.625 -0.5077  0.7638 -0.1403
41801SOL     OW29764   7.516   6.119  10.251 -0.2528 -0.0179  0.1698
41801SOL    HW129765   7.430   6.118  10.293 -0.0878 -1.5370  0.5059
41801SOL    HW229766   7.501   6.160  10.166 -0.9233  1.5362  0.9851
41802SOL     OW29767   0.493   3.598   0.872  0.3786  0.0384  0.2165
41802SOL    HW129768   0.420   3.632   0.925  0.0443  0.8487 -0.7258
41802SOL    HW229769   0.506   3.509   0.903 -0.9719 -0.0953  0.4639
41803SOL     OW29770   1.990   8.875   9.478  0.5879 -0.4003  0.5019
41803SOL    HW129771   1.993   8.798   9.422 -0.0192  1.1425 -1.7830
41803SOL    HW229772   1.897   8.884   9.501  0.1018  1.2912 -1.7981
41804SOL     OW29773   2.532   4.949   4.955 -0.0078 -0.5168  0.2080
41804SOL    HW129774   2.490   4.945   5.041 -1.0192  2.0039 -0.1020
41804SOL    HW229775   2.596   5.019   4.963 -2.4335  2.1880 -1.9243
41805SOL     OW29776   3.846   4.117   4.235  0.1066 -0.0469  0.5073
41805SOL    HW129777   3.855   4.052   4.305  0.7157  1.5371  1.9993
41805SOL    HW229778   3.875   4.072   4.156 -2.4000 -2.5174  0.8367
41806SOL     OW29779   7.915   0.918   8.275  0.0186  0.2044 -0.2290
41806SOL    HW129780   7.916   0.892   8.183  1.8778 -2.1640  0.3570
41806SOL    HW229781   7.880   0.842   8.321  1.1291  0.5218  1.2018
41807SOL     OW29782   2.504   1.969   6.392 -0.0015  0.5186  0.0873
41807SOL    HW129783   2.548   1.892   6.428  0.2696  0.7656  0.2970
41807SOL    HW229784   2.518   2.037   6.458 -1.0377  0.5013  0.3281
41808SOL     OW29785   1.128   7.506   1.539  0.5421  0.0343 -0.0515
41808SOL    HW129786   1.046   7.525   1.493 -0.3205 -1.6053  0.7146
41808SOL    HW229787   1.187   7.473   1.471  0.1047 -0.0562 -0.3956
41809SOL     OW29788   1.310   8.264   9.000  0.0163  0.1751 -0.1689
41809SOL    HW129789   1.321   8.277   9.094 -1.7223 -0.9945  0.2353
41809SOL    HW229790   1.391   8.298   8.962  1.7113 -1.2617  1.9013
41810SOL     OW29791   2.136   8.251   1.754 -0.3026  0.1446  0.3522
41810SOL    HW129792   2.227   8.224   1.741 -0.1532  0.6601  0.3074
41810SOL    HW229793   2.141   8.321   1.820 -0.7133 -0.1437  0.6893
41811SOL     OW29794   9.401   5.054   1.168 -0.6350  0.1226 -0.0495
41811SOL    HW129795   9.348   5.015   1.099 -2.1961  2.8567 -0.5426
41811SOL    HW229796   9.491   5.040   1.140 -1.2078  0.4437 -2.2457
41812SOL     OW29797   3.616   4.102  11.112  0.0391  0.2142 -0.5346
41812SOL    HW129798   3.653   4.182  11.075  1.9360  0.1115  0.9487
41812SOL    HW229799   3.629   4.036  11.044  2.0816  0.3490 -0.3464
41813SOL     OW29800   1.702   4.296   1.838  0.0872  0.5240 -0.9170
41813SOL    HW129801   1.685   4.263   1.749  1.6632 -1.0019 -0.6995
41813SOL    HW229802   1.777   4.355   1.828 -1.0487  2.0437 -0.8760
41814SOL     OW29803   9.999   1.531   8.386  0.2653  0.0199 -0.5856
41814SOL    HW129804  10.066   1.462   8.386  0.3953  0.1440 -0.1484
41814SOL    HW229805   9.929   1.497   8.441  0.9349  0.8010  0.8225
41815SOL     OW29806   2.478   4.244   8.086 -0.3480  0.6353  0.4588
41815SOL    HW129807   2.495   4.198   8.003  2.4792  1.5743  0.4213
41815SOL    HW229808   2.393   4.209   8.115 -0.1863 -1.6803 -1.4941
41816SOL     OW29809   8.458  10.158   4.251 -0.3268  1.1831 -0.3861
41816SOL    HW129810   8.538  10.179   4.300 -0.9055  1.2619  0.5473
41816SOL    HW229811   8.389  10.207   4.296 -0.9379  0.9336 -1.0426
41817SOL     OW29812   4.938   9.317   1.341  0.1010  0.8352  0.2436
41817SOL    HW129813   4.960   9.305   1.248  0.3423  0.1937  0.3815
41817SOL    HW229814   4.870   9.252   1.358  0.0333  0.9746  0.5138
41818SOL     OW29815   8.966   6.873   1.092  0.1685  0.2575  0.3357
41818SOL    HW129816   9.003   6.906   1.174  1.2224 -0.1134  0.0132
41818SOL    HW229817   8.930   6.787   1.115 -0.1030  0.4214  0.5411
41819SOL     OW29818   6.345   7.175   2.404  0.5041 -0.1474 -0.2130
41819SOL    HW129819   6.297   7.246   2.445  0.1376  0.9165 -2.3118
41819SOL    HW229820   6.279   7.109   2.385  0.5221 -0.2711  0.1619
41820SOL     OW29821   5.288   7.847   9.238 -0.2966  0.6181 -0.0677
41820SOL    HW129822   5.320   7.936   9.255  0.6551  0.2757 -0.0103
41820SOL    HW229823   5.227   7.830   9.310 -1.6573  1.7546 -0.8793
41821SOL     OW29824   6.379  10.292   6.894 -0.2955  0.2723 -0.1218
41821SOL    HW129825   6.371  10.364   6.957  0.4353 -0.9257  1.4110
41821SOL    HW229826   6.425  10.331   6.820 -0.1371  1.4528  0.5612
41822SOL     OW29827  10.020   0.370  10.879 -0.0048  0.0882 -0.4856
41822SOL    HW129828  10.087   0.336  10.820  0.0577 -1.2084  0.3009
41822SOL    HW229829  10.062   0.444  10.924  0.0183  0.9447 -1.8578
41823SOL     OW29830   3.557   4.569   1.079  0.5499 -0.5939  0.6389
41823SOL    HW129831   3.633   4.526   1.118  0.2901 -0.9182  0.7906
41823SOL    HW229832   3.590   4.607   0.998  0.8983 -0.6445  0.7550
41824SOL     OW29833   0.694   3.162   9.150  0.5810  0.1535  0.3748
41824SOL    HW129834   0.605   3.165   9.115  1.3240 -1.0799 -1.8295
41824SOL    HW229835   0.707   3.070   9.174  1.8991 -0.1557 -1.2997
41825SOL     OW29836   1.999   5.690   5.953 -0.6111 -0.0059 -0.4649
41825SOL    HW129837   2.001   5.620   5.887  0.8361  0.6612 -1.1951
41825SOL    HW229838   1.992   5.644   6.036 -1.8817 -0.9038 -1.0313
41826SOL     OW29839   2.024   6.808   6.557 -0.4846  0.1803  0.1010
41826SOL    HW129840   1.993   6.897   6.549 -2.1953 -0.0957  2.6003
41826SOL    HW229841   1.950   6.759   6.592  0.7172 -2.0063 -0.2056
41827SOL     OW29842   0.422   4.807   5.932 -0.4042 -0.2768 -0.7557
41827SOL    HW129843   0.419   4.762   5.848  1.1407  0.4466 -1.2206
41827SOL    HW229844   0.477   4.884   5.917  0.2355 -0.3427  0.9974
41828SOL     OW29845  10.160   2.233   2.642  0.3794 -0.2329 -0.4219
41828SOL    HW129846  10.179   2.302   2.579  0.0167  0.9144  0.6797
41828SOL    HW229847  10.212   2.256   2.719 -0.2676 -0.8137  0.2055
41829SOL     OW29848   3.132   0.352   5.601  0.2627  0.1299 -0.1891
41829SOL    HW129849   3.060   0.318   5.653  1.0370 -0.6417  0.3975
41829SOL    HW229850   3.186   0.402   5.662  0.6924 -0.0148 -0.4436
41830SOL     OW29851   9.898   5.236   5.596 -0.3528 -0.4489  0.1770
41830SOL    HW129852   9.906   5.250   5.501  1.5676 -1.5606  0.1388
41830SOL    HW229853   9.824   5.175   5.604 -2.6101  2.0173 -0.2958
41831SOL     OW29854   5.609   1.979   0.241 -0.5505 -0.0841  0.0110
41831SOL    HW129855   5.683   1.924   0.266 -0.4068  0.6110  1.1461
41831SOL    HW229856   5.545   1.917   0.205  0.5346 -0.6919 -0.9138
41832SOL     OW29857   9.152   8.490   5.953 -0.3788  0.0905 -0.0020
41832SOL    HW129858   9.164   8.396   5.966 -0.5770  0.2742  1.7794
41832SOL    HW229859   9.221   8.514   5.892  0.0766 -1.1066  0.0042
41833SOL     OW29860   2.240   4.454   9.844 -0.6458  0.2472  0.1283
41833SOL    HW129861   2.270   4.514   9.913 -1.8181 -0.6083  1.4409
41833SOL    HW229862   2.151   4.484   9.823 -0.3802  0.3710 -0.8915
41834SOL     OW29863   8.853   9.192   5.490  0.1519  0.3751 -0.5949
41834SOL    HW129864   8.933   9.158   5.529  1.2204  0.3078 -2.6679
41834SOL    HW229865   8.793   9.203   5.563  1.6572 -0.6712  0.8757
41835SOL     OW29866   4.399   8.236   5.161 -0.4660  0.3865 -0.2552
41835SOL    HW129867   4.478   8.187   5.143 -1.3653 -1.3739  0.3635
41835SOL    HW229868   4.408   8.262   5.253 -0.5414  0.2905 -0.2200
41836SOL     OW29869   8.968   5.841   1.097  0.1070  0.2395 -0.0996
41836SOL    HW129870   9.052   5.871   1.130  1.4766  0.5689 -3.4895
41836SOL    HW229871   8.904   5.902   1.135  1.3748  0.2300  2.2170
41837SOL     OW29872   8.684   1.228   2.996  0.7351 -0.2749 -0.3568
41837SOL    HW129873   8.779   1.224   3.006  0.6695  1.4871  2.4204
41837SOL    HW229874   8.669   1.289   2.923  1.7517 -0.3519 -0.6310
41838SOL     OW29875   8.510  10.129   9.245 -1.0203 -0.3204  0.3052
41838SOL    HW129876   8.552  10.208   9.212 -2.3280  0.4167  0.3361
41838SOL    HW229877   8.554  10.111   9.329 -0.0903 -0.1774 -0.1395
41839SOL     OW29878   4.650   6.293   5.535 -0.5866 -0.6085  0.0572
41839SOL    HW129879   4.673   6.256   5.450  2.3325  0.0218  0.4816
41839SOL    HW229880   4.720   6.266   5.593  0.3492  3.2549  1.0075
41840SOL     OW29881   4.953   7.031   4.720  0.1104 -0.2255  0.2369
41840SOL    HW129882   4.962   7.123   4.747  1.7425 -0.9813  2.5911
41840SOL    HW229883   4.908   6.989   4.792  0.7281 -1.5566 -0.1235
41841SOL     OW29884   0.411   0.602   1.479  0.0525  0.3123  0.1664
41841SOL    HW129885   0.418   0.690   1.443 -2.4498  0.4740 -0.0471
41841SOL    HW229886   0.386   0.547   1.405  2.6423 -0.8782  0.0423
41842SOL     OW29887   7.797  10.007   9.472 -0.1969  0.1612 -0.1640
41842SOL    HW129888   7.802   9.923   9.518 -0.0082  0.0139 -0.4445
41842SOL    HW229889   7.704  10.022   9.460 -0.2092 -1.0938 -2.0391
41843SOL     OW29890   8.787   0.045   7.379 -0.0780  0.2273  0.2095
41843SOL    HW129891   8.754   0.134   7.386 -3.5632 -0.9829  2.0507
41843SOL    HW229892   8.850   0.036   7.450 -0.8060  0.8699  0.9608
41844SOL     OW29893   5.964   9.884   6.183 -0.5475  0.2102 -0.3046
41844SOL    HW129894   6.008   9.956   6.137  0.4509 -0.6996 -0.8422
41844SOL    HW229895   5.871   9.905   6.179 -0.1970  2.1840  0.8139
41845SOL     OW29896   3.939   3.247   4.867 -0.6419  0.5207  0.6158
41845SOL    HW129897   3.877   3.232   4.939  0.5771  0.8250  1.7811
41845SOL    HW229898   3.900   3.319   4.817 -2.6286 -1.1525 -0.4131
41846SOL     OW29899   0.457   8.705   3.726 -0.5709  0.7303 -0.9946
41846SOL    HW129900   0.464   8.713   3.822  1.5777  0.1393 -1.0593
41846SOL    HW229901   0.433   8.613   3.712  0.3277  0.4957 -1.0439
41847SOL     OW29902   8.545   0.562   2.301 -0.2854  0.7590 -0.4540
41847SOL    HW129903   8.559   0.558   2.206  0.0626 -2.1769 -0.3796
41847SOL    HW229904   8.451   0.578   2.311 -0.4329  0.5044 -1.3328
41848SOL     OW29905   4.465   3.732   0.897 -0.0923 -0.2821 -0.2071
41848SOL    HW129906   4.404   3.659   0.886 -0.7652  0.5878 -3.0716
41848SOL    HW229907   4.425   3.787   0.964 -0.8878 -1.2371  0.1261
41849SOL     OW29908   2.016   5.088   7.568  0.4665 -0.2003 -0.9528
41849SOL    HW129909   2.051   5.005   7.535  0.0352 -1.0239  0.5677
41849SOL    HW229910   2.049   5.094   7.658  0.3758  1.2206 -0.9891
41850SOL     OW29911   4.989   9.147   4.076  0.0322  0.1100  0.5370
41850SOL    HW129912   5.018   9.138   3.985  0.4485 -0.5725  0.7317
41850SOL    HW229913   5.007   9.062   4.116 -2.0350 -0.2750  0.7378
41851SOL     OW29914   6.065   0.812   1.910 -0.3798  0.3035  0.6787
41851SOL    HW129915   6.076   0.761   1.991  0.7335 -0.6085 -0.0096
41851SOL    HW229916   6.021   0.752   1.850  0.6202  0.2487 -0.0272
41852SOL     OW29917   4.402   2.192   9.450 -0.0456 -0.3628 -0.4090
41852SOL    HW129918   4.441   2.136   9.517 -1.0284  0.2949  0.7458
41852SOL    HW229919   4.445   2.276   9.461 -2.6396  0.8127  1.8550
41853SOL     OW29920   3.976  10.939   8.705  0.5523 -0.2161 -0.5715
41853SOL    HW129921   4.064  10.910   8.731 -0.3940 -2.0973  0.8074
41853SOL    HW229922   3.931  10.859   8.679 -1.1750  0.4747  0.1195
41854SOL     OW29923   0.323   7.322  10.983 -0.1639 -0.0191  0.2553
41854SOL    HW129924   0.301   7.415  10.988 -0.1538 -0.0865  2.2676
41854SOL    HW229925   0.418   7.319  10.988 -0.2308 -0.2009  3.5884
41855SOL     OW29926   9.140   5.478   2.580 -0.0216 -0.2742  0.1100
41855SOL    HW129927   9.160   5.470   2.673  0.4245 -0.3902  0.0089
41855SOL    HW229928   9.174   5.397   2.542 -1.5255 -0.9023  0.0613
41856SOL     OW29929   9.418   8.860   4.441 -0.2142  0.1744  0.5114
41856SOL    HW129930   9.379   8.820   4.363 -0.7926  0.5128  0.6197
41856SOL    HW229931   9.397   8.799   4.512  0.0940 -0.0072  0.4495
41857SOL     OW29932   8.825   8.070   7.800  0.2458  0.4803  0.1220
41857SOL    HW129933   8.921   8.068   7.799  0.2722  1.4400 -0.5955
41857SOL    HW229934   8.803   8.129   7.872  0.2183  0.9582 -0.2745
41858SOL     OW29935   2.035   9.159   9.840  0.0449  0.1428 -0.4668
41858SOL    HW129936   2.083   9.077   9.832 -0.3264 -0.0419 -0.8497
41858SOL    HW229937   2.029   9.175   9.934 -0.1347 -0.4201 -0.3832
41859SOL     OW29938   1.560   8.356   3.727 -0.1936 -0.3443  0.3572
41859SOL    HW129939   1.473   8.397   3.728 -0.6890 -1.3902  1.1226
41859SOL    HW229940   1.610   8.405   3.793  0.4318  1.5023 -1.3697
41860SOL     OW29941   9.060  10.334   5.850  0.1967  0.4750  0.6642
41860SOL    HW129942   9.104  10.249   5.859 -0.0522  0.3618  0.8291
41860SOL    HW229943   8.967  10.313   5.853  0.1304  0.6949  0.1483
41861SOL     OW29944   6.347   2.009   0.458  0.2415 -0.0214  0.1900
41861SOL    HW129945   6.317   2.078   0.398  0.2760 -1.0868 -1.0909
41861SOL    HW229946   6.442   2.019   0.459  0.1775  0.5530  0.7626
41862SOL     OW29947   1.493   5.103   2.966  0.4234  1.0255  0.3111
41862SOL    HW129948   1.509   5.017   3.004 -1.5758  0.5173  0.1461
41862SOL    HW229949   1.488   5.161   3.042 -0.1775  0.6264  0.5843
41863SOL     OW29950   1.135   2.153  10.600  0.5317  0.3266 -0.3452
41863SOL    HW129951   1.040   2.162  10.597  0.4313 -0.4781  0.1018
41863SOL    HW229952   1.162   2.209  10.672  0.5107  1.3462 -1.1142
41864SOL     OW29953   5.168  10.958   9.582 -0.0199  0.1107  0.2311
41864SOL    HW129954   5.206  10.880   9.541  0.2726  0.0277  0.6569
41864SOL    HW229955   5.094  10.925   9.633  0.6597 -0.0243  1.1611
41865SOL     OW29956   3.027   8.617   8.360  0.5375  0.4194 -0.4377
41865SOL    HW129957   3.107   8.666   8.343  2.1739 -2.0414 -0.4169
41865SOL    HW229958   3.024   8.608   8.456  0.1061  0.7131 -0.4224
41866SOL     OW29959   5.793   5.542   3.380  0.5267 -0.0466  0.4012
41866SOL    HW129960   5.879   5.580   3.395  0.9163 -1.4933  2.2848
41866SOL    HW229961   5.738   5.581   3.448 -0.1732  0.4193 -0.4145
41867SOL     OW29962   2.550   4.810   9.954  0.2777  0.0158 -0.4219
41867SOL    HW129963   2.578   4.822   9.863  0.0750 -1.9427 -0.8004
41867SOL    HW229964   2.535   4.716   9.961  0.9897  0.0183  1.8608
41868SOL     OW29965   6.880   7.303   8.818 -0.2576 -0.2156  0.5719
41868SOL    HW129966   6.868   7.392   8.784 -2.1390 -0.6233  0.0907
41868SOL    HW229967   6.897   7.315   8.911  1.7278  0.7379  0.1382
41869SOL     OW29968   3.442   6.869   0.500 -0.6727 -0.0499  0.2235
41869SOL    HW129969   3.505   6.905   0.439 -0.3110 -0.8421  0.1274
41869SOL    HW229970   3.403   6.946   0.542  0.6390  0.4409  0.5847
41870SOL     OW29971   0.898   2.640   7.723 -0.3809  0.4304  0.4118
41870SOL    HW129972   0.881   2.546   7.734 -2.2625  0.7633  0.8187
41870SOL    HW229973   0.993   2.649   7.727  0.0141 -1.7299 -1.9442
41871SOL     OW29974   2.086  10.781   8.101 -0.0437 -0.3453  0.0990
41871SOL    HW129975   2.128  10.867   8.092 -1.7598  0.4291 -0.8408
41871SOL    HW229976   2.080  10.747   8.012 -2.8194  0.2949 -0.0221
41872SOL     OW29977   5.667   7.209   3.525 -0.5645 -0.0778  0.3981
41872SOL    HW129978   5.715   7.284   3.490 -1.6697 -0.3344 -1.9026
41872SOL    HW229979   5.633   7.239   3.609  0.9176  1.1788  0.5898
41873SOL     OW29980   4.936   2.215   2.097 -0.2796 -0.4461  0.8897
41873SOL    HW129981   4.975   2.284   2.149 -0.1792 -0.4581  0.8311
41873SOL    HW229982   4.969   2.230   2.008 -1.3618  0.2682  0.5992
41874SOL     OW29983   9.723   3.584   9.245 -0.0389  0.4636  0.4860
41874SOL    HW129984   9.773   3.650   9.293  0.3942 -0.4005  1.2450
41874SOL    HW229985   9.631   3.608   9.261  0.1149  1.3732  0.0493
41875SOL     OW29986   8.156   3.063   9.249  0.3611 -0.3024  0.2532
41875SOL    HW129987   8.142   2.973   9.218 -1.2428 -0.1343  0.3999
41875SOL    HW229988   8.103   3.116   9.189  3.1310  0.8608 -1.3615
41876SOL     OW29989   8.141   0.916   7.839  0.1131 -0.2343 -1.0059
41876SOL    HW129990   8.174   1.004   7.856 -1.2258  0.1155 -0.1073
41876SOL    HW229991   8.061   0.929   7.789  0.6683 -1.0284 -2.1554
41877SOL     OW29992   3.201   9.018   8.962 -0.8127 -0.0191  0.2762
41877SOL    HW129993   3.108   9.037   8.955 -0.6025  0.5455 -1.8366
41877SOL    HW229994   3.231   9.010   8.871  1.6002  1.8342  0.8035
41878SOL     OW29995  11.001   7.879   5.801 -0.5712  0.1749 -0.4701
41878SOL    HW129996  11.095   7.863   5.790  0.1863  3.1606  0.8520
41878SOL    HW229997  10.973   7.914   5.716  0.3622  2.5668  0.1424
41879SOL     OW29998   8.965   1.324   1.710 -0.2839 -0.0303  0.0000
41879SOL    HW129999   8.947   1.323   1.804  2.0129  0.8274  0.5198
41879SOL    HW230000   8.950   1.414   1.683 -1.3087 -0.3560 -0.5682
41880SOL     OW30001   5.341  10.820   4.148  0.3907  0.4522 -0.3251
41880SOL    HW130002   5.257  10.854   4.118  0.1837 -0.3930 -0.7499
41880SOL    HW230003   5.401  10.838   4.075  1.2530  3.3737  0.9495
41881SOL     OW30004   9.692   8.145   6.417 -0.2722  0.2483 -0.2471
41881SOL    HW130005   9.669   8.236   6.433  1.2318  1.1228 -2.5175
41881SOL    HW230006   9.635   8.118   6.345  2.1682  0.9115 -2.6092
41882SOL     OW30007   8.057   0.381   2.161 -0.3813  0.2736  0.2855
41882SOL    HW130008   8.140   0.347   2.128 -1.5397 -2.9813  0.4421
41882SOL    HW230009   8.018   0.427   2.087  0.5167 -0.2112 -0.5054
41883SOL     OW30010   9.941   9.751   8.068 -0.3282  0.1845  0.0011
41883SOL    HW130011   9.958   9.658   8.049 -1.0467  0.2608 -1.0528
41883SOL    HW230012   9.852   9.752   8.103 -0.1135  0.4183  0.5474
41884SOL     OW30013   9.800   2.349  10.327  0.0481  0.0084  0.3472
41884SOL    HW130014   9.796   2.438  10.361 -1.8193  0.6408 -1.3315
41884SOL    HW230015   9.728   2.344  10.264  0.6423 -2.4257 -0.2456
41885SOL     OW30016   0.726   9.230   7.928 -0.0564  0.8330  0.3818
41885SOL    HW130017   0.813   9.191   7.921  0.2382  1.5164  0.1269
41885SOL    HW230018   0.730   9.308   7.872 -0.6542  1.1877  0.8201
41886SOL     OW30019  10.911  10.150   5.430 -0.1669  0.2610 -0.0381
41886SOL    HW130020  10.877  10.206   5.500  2.6011  1.4075  0.5103
41886SOL    HW230021  10.947  10.212   5.366 -0.7676 -0.8379 -1.4846
41887SOL     OW30022   7.656   0.077   7.475 -0.0875 -0.4588  0.0543
41887SOL    HW130023   7.747   0.077   7.444 -0.0012 -1.0464  0.2837
41887SOL    HW230024   7.623  -0.010   7.453 -0.5985 -0.2431 -0.0342
41888SOL     OW30025   8.338   3.857   0.502  0.5564 -0.2716 -0.4600
41888SOL    HW130026   8.361   3.845   0.595  0.6795  2.1201 -0.1159
41888SOL    HW230027   8.257   3.909   0.504  1.0352  0.5580 -1.6791
41889SOL     OW30028   6.705   6.998   1.737 -0.3214 -0.4635 -0.0933
41889SOL    HW130029   6.758   6.926   1.702 -0.6825 -0.4252 -0.7387
41889SOL    HW230030   6.633   6.954   1.784 -0.9291 -0.5455 -1.0717
41890SOL     OW30031   2.395   5.440   4.802  0.0500 -0.1680 -0.2471
41890SOL    HW130032   2.486   5.432   4.775  0.1309 -0.2288  0.0450
41890SOL    HW230033   2.346   5.392   4.734  0.1481  0.6167 -0.8945
41891SOL     OW30034   8.632   0.208   0.671  0.1589 -0.1234  0.3560
41891SOL    HW130035   8.697   0.278   0.665 -0.6730  0.5822 -0.8682
41891SOL    HW230036   8.561   0.245   0.722  0.1059 -0.3854  0.4726
41892SOL     OW30037   1.522   8.200   3.000  0.2466 -0.0199  0.1284
41892SOL    HW130038   1.475   8.195   3.084 -0.8112 -0.2129 -0.4558
41892SOL    HW230039   1.456   8.231   2.938  0.5053 -1.6694 -1.0166
41893SOL     OW30040   2.409  10.441   1.980 -0.0944 -0.0406  1.0360
41893SOL    HW130041   2.390  10.443   2.074 -0.2664 -0.1043  1.0034
41893SOL    HW230042   2.501  10.416   1.974 -0.0956 -0.0785  1.1879
41894SOL     OW30043   7.965   8.710   3.652 -0.0412  0.3330  0.1562
41894SOL    HW130044   7.961   8.617   3.671  2.1609  0.2335  0.3071
41894SOL    HW230045   7.982   8.715   3.558 -0.9351  0.6339 -0.0067
41895SOL     OW30046   7.846   4.911   3.169  0.4288  0.2908  0.0170
41895SOL    HW130047   7.935   4.885   3.142 -0.0610  0.5332 -2.0046
41895SOL    HW230048   7.789   4.846   3.128 -0.3906  0.5275  0.7576
41896SOL     OW30049   1.026  10.937   0.632  0.2831 -0.5089  0.6656
41896SOL    HW130050   1.081  10.876   0.682  0.6302 -0.4549  0.3549
41896SOL    HW230051   0.961  10.880   0.590  0.5655 -0.6647  0.4291
41897SOL     OW30052   1.022   4.666   2.992  0.2516 -0.1895 -0.6664
41897SOL    HW130053   0.949   4.686   2.934 -0.6306 -0.6995  0.2464
41897SOL    HW230054   1.016   4.572   3.008  0.9336 -0.1882 -0.3518
41898SOL     OW30055   8.280   0.709   7.901 -1.2208  0.1564  0.5400
41898SOL    HW130056   8.213   0.778   7.898 -0.1449  1.1975 -0.4806
41898SOL    HW230057   8.362   0.755   7.884 -0.6544 -1.6411 -2.1114
41899SOL     OW30058   7.502   4.351  10.120  0.5020  0.1722 -0.1550
41899SOL    HW130059   7.572   4.287  10.132 -1.1540 -1.4941  1.3559
41899SOL    HW230060   7.521   4.420  10.184  0.2878 -0.7880  0.9967
41900SOL     OW30061   6.341   3.266   7.798 -0.6392 -0.3282 -0.1675
41900SOL    HW130062   6.255   3.230   7.774 -1.1689 -0.0873  1.2265
41900SOL    HW230063   6.378   3.201   7.858 -0.4555  0.2149  0.3191
41901SOL     OW30064   5.769  10.705  10.054 -0.8952 -0.0767 -0.6232
41901SOL    HW130065   5.860  10.728  10.039 -0.6287  0.4456  1.5905
41901SOL    HW230066   5.720  10.782  10.026 -0.2678  1.7339  2.7432
41902SOL     OW30067   7.927   3.797   3.019 -0.8838  0.1365  0.2643
41902SOL    HW130068   7.887   3.780   2.933 -1.7329  0.2779  0.6182
41902SOL    HW230069   7.907   3.719   3.070 -1.5696  0.6201  0.7484
41903SOL     OW30070   9.258   0.335   3.040  0.5701 -0.5073 -0.5237
41903SOL    HW130071   9.307   0.269   2.992  1.7963  2.1208 -3.1252
41903SOL    HW230072   9.166   0.315   3.021  0.8515 -1.9290 -0.5092
41904SOL     OW30073   1.607   9.637   1.759 -0.1775  0.2845 -0.3483
41904SOL    HW130074   1.584   9.730   1.762 -1.7188 -0.0392 -1.5231
41904SOL    HW230075   1.540   9.594   1.812  0.7455 -0.1582  0.5108
41905SOL     OW30076   9.336   2.362   7.994  0.6731 -0.1294 -0.9438
41905SOL    HW130077   9.277   2.299   8.035  1.6404 -0.1151  0.5648
41905SOL    HW230078   9.280   2.417   7.939 -0.4652 -1.0593 -0.7337
41906SOL     OW30079   7.717   7.791   7.947  0.4334  1.1598 -0.0793
41906SOL    HW130080   7.784   7.855   7.926  0.4297  0.8176 -1.1521
41906SOL    HW230081   7.640   7.820   7.898  0.0977  0.9571  0.3193
41907SOL     OW30082   5.161   7.222   8.281 -0.3151  0.1610 -0.0242
41907SOL    HW130083   5.195   7.284   8.216  0.0307  1.1647  1.0827
41907SOL    HW230084   5.224   7.226   8.353 -0.6014 -1.0635  0.3206
41908SOL     OW30085   2.672   0.078   3.899  0.6369 -0.4004 -0.0045
41908SOL    HW130086   2.712   0.164   3.908  0.2854 -0.3290  0.9446
41908SOL    HW230087   2.725   0.034   3.832  1.5447  0.1326  0.3432
41909SOL     OW30088   6.403   3.807   8.586  0.4147  0.5203  0.2268
41909SOL    HW130089   6.434   3.881   8.534  1.9629 -0.2350  0.0247
41909SOL    HW230090   6.339   3.845   8.646  0.8531  1.9324 -0.1574
41910SOL     OW30091   7.355   7.030   6.730 -0.1587  0.0803  0.4398
41910SOL    HW130092   7.423   7.053   6.667 -1.5137  2.3302 -0.3279
41910SOL    HW230093   7.294   7.104   6.727 -2.7286 -1.8741  0.9514
41911SOL     OW30094   6.701   7.825   1.041  0.5922  0.0046  0.1664
41911SOL    HW130095   6.622   7.801   0.992  1.3341 -1.6268 -0.3049
41911SOL    HW230096   6.672   7.827   1.132 -0.6522  2.4360 -0.1863
41912SOL     OW30097   5.208   2.060   2.191 -0.5937  0.9684  0.1142
41912SOL    HW130098   5.221   2.148   2.156  4.0534  1.6563  2.6736
41912SOL    HW230099   5.133   2.068   2.250 -0.9294  2.8895 -0.5165
41913SOL     OW30100   2.263   2.522   5.580 -0.2196 -0.5807 -0.7012
41913SOL    HW130101   2.211   2.569   5.644 -0.4301  0.1748 -1.4103
41913SOL    HW230102   2.291   2.589   5.517 -0.4547 -1.3778 -1.6859
41914SOL     OW30103  10.044   1.886   4.867  0.1325  0.6738 -0.5063
41914SOL    HW130104  10.054   1.921   4.955 -0.5020  0.6760 -0.4356
41914SOL    HW230105  10.006   1.958   4.816 -1.0729  0.1403 -0.3869
41915SOL     OW30106   2.205   6.776   7.405 -0.5656 -0.1865 -0.3416
41915SOL    HW130107   2.192   6.744   7.316 -0.5480  1.2757 -0.9094
41915SOL    HW230108   2.279   6.726   7.439  2.0411  1.8807 -2.5967
41916SOL     OW30109  10.842   6.433   7.538  0.1059 -0.2490  0.3911
41916SOL    HW130110  10.830   6.412   7.446  0.2275 -2.1157  0.7555
41916SOL    HW230111  10.815   6.525   7.546 -1.3579 -0.4999 -1.2125
41917SOL     OW30112   0.133   2.959   7.416 -0.8002  0.5701  0.1585
41917SOL    HW130113   0.182   2.881   7.444  0.5403  0.9987 -0.8627
41917SOL    HW230114   0.152   3.025   7.482 -1.0737  0.3422  0.4657
41918SOL     OW30115  10.123   0.597   7.023  0.4295  0.1263 -0.0970
41918SOL    HW130116  10.087   0.524   6.973 -0.3729  1.0431 -0.8725
41918SOL    HW230117  10.098   0.578   7.113 -1.3341  0.3339 -0.5127
41919SOL     OW30118   0.092   5.839   8.068 -0.2677 -0.7932  0.6058
41919SOL    HW130119   0.161   5.898   8.039  0.6610 -1.8335  0.6281
41919SOL    HW230120   0.065   5.873   8.153  0.9761 -0.9569  1.0921
41920SOL     OW30121   1.038  10.331   7.151 -0.4185 -0.0377 -0.6432
41920SOL    HW130122   0.986  10.398   7.106  0.3198  2.5314  1.9784
41920SOL    HW230123   1.128  10.352   7.128 -0.0431  1.1947  1.6527
41921SOL     OW30124   7.680   7.793   8.775 -0.1968  0.1586 -0.1129
41921SOL    HW130125   7.716   7.871   8.817  1.1574 -0.9358  0.8762
41921SOL    HW230126   7.698   7.806   8.682  0.2815  0.8900  0.0711
41922SOL     OW30127   4.994   9.694   0.979  0.0789  0.0595 -0.2258
41922SOL    HW130128   4.924   9.631   0.963  2.3017 -2.9846  1.1152
41922SOL    HW230129   5.070   9.657   0.935  1.6681  1.4182  1.2275
41923SOL     OW30130  10.808  10.339   6.845 -0.2211  0.5003  0.1910
41923SOL    HW130131  10.839  10.250   6.858 -2.6838 -0.2520  1.4658
41923SOL    HW230132  10.749  10.333   6.769 -0.8449  0.9036  0.6359
41924SOL     OW30133   9.846   9.272   0.820  0.0131 -0.3258 -0.0987
41924SOL    HW130134   9.848   9.348   0.879  0.8715 -1.0281  0.7994
41924SOL    HW230135   9.846   9.196   0.878  0.4441 -1.0304 -0.9908
41925SOL     OW30136   2.412   4.219   5.786  0.0541 -0.2368  0.3270
41925SOL    HW130137   2.458   4.199   5.867 -0.0185 -0.3108  0.3502
41925SOL    HW230138   2.320   4.199   5.806  0.0978 -0.6710  0.0859
41926SOL     OW30139  10.628   5.519   5.188 -0.2445  0.1039 -0.0628
41926SOL    HW130140  10.652   5.427   5.199  0.0639  0.3185  1.1809
41926SOL    HW230141  10.543   5.528   5.231 -0.1768  0.4501  0.0028
41927SOL     OW30142   3.394   7.939   4.060  0.0947  0.1587  0.2619
41927SOL    HW130143   3.479   7.925   4.019 -0.1595  1.6658 -0.8216
41927SOL    HW230144   3.337   7.874   4.019  0.2352  0.5520 -0.5692
41928SOL     OW30145   1.218   5.347   7.588 -0.0245 -0.1136 -0.1319
41928SOL    HW130146   1.154   5.373   7.655  1.0630  0.1893  0.8194
41928SOL    HW230147   1.238   5.428   7.541  0.6261  0.0650  0.4350
41929SOL     OW30148   2.655   8.520   9.635  0.1108 -0.1767 -0.5159
41929SOL    HW130149   2.742   8.484   9.615  0.3994  0.6029 -0.6813
41929SOL    HW230150   2.595   8.446   9.624  0.8196 -0.8823  0.1934
41930SOL     OW30151   9.625  10.771   4.925  0.2063 -0.6148  0.2347
41930SOL    HW130152   9.555  10.731   4.873 -1.0117  0.9465  0.6094
41930SOL    HW230153   9.702  10.766   4.869 -0.5993 -0.8140 -0.8933
41931SOL     OW30154   8.104   2.487   0.954  0.1800  0.4319 -0.3284
41931SOL    HW130155   8.014   2.503   0.927 -0.1091 -0.7941 -0.1277
41931SOL    HW230156   8.149   2.569   0.936 -0.8556  0.8873 -0.9213
41932SOL     OW30157   4.029   4.132   6.118 -0.1582  0.7838 -0.0422
41932SOL    HW130158   3.972   4.127   6.195 -1.0472  0.2013 -0.7090
41932SOL    HW230159   4.061   4.222   6.117  0.0872  0.7235  1.1513
41933SOL     OW30160  11.088   5.240   6.528  0.2486 -0.2465  0.3588
41933SOL    HW130161  11.111   5.215   6.438  1.2747  0.5104  0.3968
41933SOL    HW230162  11.010   5.295   6.518 -1.7645 -2.9258  0.2392
41934SOL     OW30163   6.716   9.589   3.769 -0.4488  0.0538  0.5282
41934SOL    HW130164   6.809   9.574   3.787 -0.6972 -2.4052  0.1108
41934SOL    HW230165   6.709   9.578   3.674 -1.0099  1.3315  0.4099
41935SOL     OW30166  10.289   7.478   0.120  0.5972  0.3901 -0.1379
41935SOL    HW130167  10.207   7.507   0.160  0.0612 -1.7428  0.3925
41935SOL    HW230168  10.342   7.447   0.193  0.9305 -0.4535 -0.7317
41936SOL     OW30169   2.629  10.808   8.387  0.2911  0.3479 -0.1786
41936SOL    HW130170   2.707  10.844   8.429  0.0880  0.0351  0.4902
41936SOL    HW230171   2.588  10.755   8.456 -0.4250  0.3885 -0.5731
41937SOL     OW30172   5.685   0.129   6.687  0.5720 -0.5334  0.2591
41937SOL    HW130173   5.631   0.128   6.608  1.6525 -0.0322 -0.5039
41937SOL    HW230174   5.758   0.187   6.666 -0.2075  1.3663  2.3753
41938SOL     OW30175  10.310   0.045   5.700  0.4051  0.1197 -0.0089
41938SOL    HW130176  10.303   0.095   5.619 -1.9069 -2.3309 -1.4772
41938SOL    HW230177  10.354  -0.036   5.674 -0.6215 -0.8230  1.0927
41939SOL     OW30178  10.030   4.184   9.104 -0.3949  0.7107  0.0641
41939SOL    HW130179   9.965   4.253   9.096  0.6197  1.8647  1.2662
41939SOL    HW230180  10.046   4.177   9.199  0.4175 -0.3210 -0.1225
41940SOL     OW30181   8.923  10.563  10.034 -0.2564  0.0577 -0.0709
41940SOL    HW130182   8.829  10.577  10.023 -0.1969  2.5950  1.7634
41940SOL    HW230183   8.963  10.642   9.997  0.9489  0.1431  1.3075
41941SOL     OW30184   6.886  10.177   6.356 -0.2185  0.4816 -0.4258
41941SOL    HW130185   6.927  10.240   6.297 -0.8805 -0.3847 -1.8717
41941SOL    HW230186   6.841  10.115   6.298  0.6601 -1.5247  0.9132
41942SOL     OW30187   6.621   8.517   6.086 -0.2488 -0.3406  0.2454
41942SOL    HW130188   6.602   8.445   6.026 -0.3635  0.8379 -1.1721
41942SOL    HW230189   6.625   8.475   6.172 -0.4284 -2.0173 -0.5186
41943SOL     OW30190   0.275   1.207   1.556 -0.5230 -0.0169  0.0064
41943SOL    HW130191   0.366   1.178   1.552 -0.7062 -0.4839 -1.0459
41943SOL    HW230192   0.270   1.282   1.497 -0.7939  0.0825  0.1521
41944SOL     OW30193  10.225   7.588   4.536 -0.1265  0.3043  0.4453
41944SOL    HW130194  10.272   7.582   4.453  0.7397 -0.6117  0.9716
41944SOL    HW230195  10.289   7.626   4.597  0.6286 -2.5459  1.5977
41945SOL     OW30196   7.548   1.036   5.209 -0.1227  0.1260 -0.3640
41945SOL    HW130197   7.589   1.021   5.123 -0.9763 -1.2929 -0.5500
41945SOL    HW230198   7.602   0.986   5.270 -0.7944 -0.6840 -0.4191
41946SOL     OW30199  10.251   6.541   8.593 -0.0800  0.5434 -0.4251
41946SOL    HW130200  10.316   6.545   8.662  0.7992  1.0884 -1.2600
41946SOL    HW230201  10.189   6.611   8.613  0.5045  1.0911 -0.5118
41947SOL     OW30202   6.111   2.084   0.615 -0.4787  0.1661 -0.6026
41947SOL    HW130203   6.112   2.179   0.628  2.0042 -0.0798  2.0143
41947SOL    HW230204   6.199   2.063   0.584  0.1507 -1.4803  1.9369
41948SOL     OW30205   8.862  10.778   3.977 -0.9405  0.8347 -0.8853
41948SOL    HW130206   8.840  10.787   3.885 -2.3303  2.2417 -0.4576
41948SOL    HW230207   8.836  10.689   4.000  0.4863  0.0595 -2.0762
41949SOL     OW30208   5.505   7.141   6.649 -0.0815  0.5614  0.4177
41949SOL    HW130209   5.569   7.084   6.606  0.6494  2.1101 -0.6888
41949SOL    HW230210   5.520   7.129   6.742  2.2576  1.2577  0.2033
41950SOL     OW30211   9.315   0.867   9.397 -0.0003 -0.6845  0.2836
41950SOL    HW130212   9.269   0.872   9.481 -0.4327  0.1796  0.0104
41950SOL    HW230213   9.252   0.901   9.333  0.7439 -0.2086 -0.2107
41951SOL     OW30214   5.710   5.563   2.883 -0.0942 -0.4465 -0.2364
41951SOL    HW130215   5.767   5.631   2.920 -0.5322 -0.8242  1.1837
41951SOL    HW230216   5.770   5.494   2.854  0.2737 -0.0106 -0.5356
41952SOL     OW30217   9.810   6.331   3.054 -0.2864 -0.0380  0.2286
41952SOL    HW130218   9.856   6.249   3.036  0.1850 -0.0564  1.4144
41952SOL    HW230219   9.803   6.374   2.968  1.2870 -0.3785 -0.1051
41953SOL     OW30220  10.806   5.903   7.216 -0.2515 -0.0896 -0.3136
41953SOL    HW130221  10.777   5.994   7.228 -0.4813 -0.2648  0.5110
41953SOL    HW230222  10.803   5.889   7.122  0.6779  1.0572 -0.5407
41954SOL     OW30223   4.313   6.473  10.612 -0.3731 -0.2932 -0.3598
41954SOL    HW130224   4.222   6.503  10.614  0.0990  1.2375 -0.2672
41954SOL    HW230225   4.339   6.483  10.520  0.5304  2.1101  0.0727
41955SOL     OW30226   2.736   9.848   1.065 -0.5401  0.4518  0.3598
41955SOL    HW130227   2.675   9.836   0.992 -0.5573  2.0898  0.0816
41955SOL    HW230228   2.773   9.935   1.052  0.3254  0.3094  1.6783
41956SOL     OW30229   8.699   1.993   9.884  0.1122  0.1703  0.4864
41956SOL    HW130230   8.744   1.972   9.966  0.4115 -0.4131  0.1785
41956SOL    HW230231   8.724   1.922   9.824 -0.7542  0.1535  0.1358
41957SOL     OW30232  11.003   1.876   5.608 -0.1392  0.1465  0.3501
41957SOL    HW130233  11.054   1.867   5.689  1.0343 -0.8058 -0.4527
41957SOL    HW230234  10.914   1.897   5.637  0.6219  1.5233  1.8113
41958SOL     OW30235   2.792   7.969   4.444  0.6312  0.1148  0.4933
41958SOL    HW130236   2.806   7.893   4.501 -1.8939 -2.2931 -1.8075
41958SOL    HW230237   2.806   7.936   4.356 -2.6787  1.6356 -0.7645
41959SOL     OW30238   1.883   1.707   5.933  0.1444  0.2986 -0.6772
41959SOL    HW130239   1.914   1.690   5.844 -1.1352  0.2388 -1.1441
41959SOL    HW230240   1.788   1.718   5.923  0.1978  2.1474  0.4280
41960SOL     OW30241   0.514   0.445   1.720  0.1547 -0.3334  0.1415
41960SOL    HW130242   0.504   0.499   1.642 -0.5998 -0.7995 -0.0936
41960SOL    HW230243   0.510   0.355   1.688  1.6356 -0.5639  0.4968
41961SOL     OW30244   6.485   1.043   9.957  0.1068  0.1723  0.1704
41961SOL    HW130245   6.391   1.034   9.970  0.2586  0.1319  1.4165
41961SOL    HW230246   6.524   1.006  10.037  1.1857 -0.0345 -0.4274
41962SOL     OW30247   5.365   5.968   0.581  0.0103 -0.5540 -0.2872
41962SOL    HW130248   5.343   5.974   0.488  0.5073  2.6832 -0.2875
41962SOL    HW230249   5.436   5.904   0.585 -0.5516 -1.3403 -1.9990
41963SOL     OW30250   2.204  10.414   8.179  0.5904  0.2857  0.0165
41963SOL    HW130251   2.233  10.454   8.097 -1.2766 -0.8652 -1.2766
41963SOL    HW230252   2.114  10.444   8.190  0.8337  0.4972  1.7430
41964SOL     OW30253   1.330   5.973   2.257  0.2048  0.0187  0.1025
41964SOL    HW130254   1.269   5.944   2.325  1.1704  0.3830  1.1529
41964SOL    HW230255   1.310   6.065   2.245  1.8138  0.6702  1.9023
41965SOL     OW30256   5.793   8.411   0.501 -0.3764  0.2736 -0.3127
41965SOL    HW130257   5.742   8.359   0.563 -1.0920 -1.8778 -2.5422
41965SOL    HW230258   5.733   8.479   0.472 -0.9394 -0.3203 -0.5698
41966SOL     OW30259   0.264   9.298   4.388 -0.8018 -0.3822 -0.1858
41966SOL    HW130260   0.351   9.305   4.428 -0.6099  1.6133 -0.8537
41966SOL    HW230261   0.272   9.225   4.326 -0.1690 -1.4107  1.0785
41967SOL     OW30262   3.072  11.086   7.672 -0.2666 -0.6943  0.0393
41967SOL    HW130263   3.154  11.070   7.626 -0.1918 -1.6728  0.4858
41967SOL    HW230264   3.081  11.038   7.754 -1.1377 -0.5089  0.2544
41968SOL     OW30265   0.451   4.655   7.569  0.1941  0.7861  0.0915
41968SOL    HW130266   0.533   4.678   7.526 -0.4454  0.6464 -1.2497
41968SOL    HW230267   0.398   4.735   7.566 -0.3005  0.4494 -0.4734
41969SOL     OW30268   3.594   7.592   5.146  0.0947 -0.5254 -0.5619
41969SOL    HW130269   3.553   7.619   5.228  0.4737 -2.7861  0.4224
41969SOL    HW230270   3.664   7.533   5.172  2.5384  1.3558 -2.3416
41970SOL     OW30271   3.471   6.706   9.666  0.1221 -0.3782  0.2666
41970SOL    HW130272   3.445   6.797   9.649  0.1225 -0.6186 -1.1214
41970SOL    HW230273   3.389   6.661   9.686  0.0432 -0.1939  0.3583
41971SOL     OW30274   0.577   1.289   2.500 -0.2844  0.4586  0.2179
41971SOL    HW130275   0.615   1.217   2.550 -2.3490 -0.8059  0.0782
41971SOL    HW230276   0.585   1.365   2.557  1.7424  0.1295  0.4580
41972SOL     OW30277   3.345   7.915   0.152 -0.0434 -0.1414  0.1117
41972SOL    HW130278   3.283   7.909   0.224 -0.6471  2.1884 -0.1205
41972SOL    HW230279   3.429   7.935   0.194  0.2726 -1.7903  0.3232
41973SOL     OW30280  10.010   9.545   3.014 -0.1832 -0.7650 -0.0140
41973SOL    HW130281  10.001   9.628   2.966 -2.8120  0.0141  1.6344
41973SOL    HW230282  10.066   9.491   2.958 -1.3437  0.8201 -2.9066
41974SOL     OW30283   5.027   3.000   6.883 -0.3263  0.3430  0.0272
41974SOL    HW130284   5.081   3.055   6.827 -0.2964  0.1119 -0.1700
41974SOL    HW230285   5.022   3.048   6.966  2.6091 -0.9617  1.0837
41975SOL     OW30286   8.753   7.808   8.585  0.3852  0.1751  0.0652
41975SOL    HW130287   8.756   7.763   8.669  3.1386 -1.8596 -0.9498
41975SOL    HW230288   8.707   7.890   8.602 -0.1346 -0.6722  3.2541
41976SOL     OW30289   8.429   6.587   7.647 -0.2055 -0.3199  0.5719
41976SOL    HW130290   8.370   6.624   7.713 -0.0536  1.7717 -0.3716
41976SOL    HW230291   8.501   6.650   7.642  0.5586 -1.2489 -0.4761
41977SOL     OW30292   6.922   4.417   9.590 -0.3135  0.5589  0.1814
41977SOL    HW130293   6.940   4.398   9.498 -0.6419 -0.7071  0.3496
41977SOL    HW230294   7.008   4.420   9.632 -0.1585  1.2335 -0.1798
41978SOL     OW30295   8.914   1.576   1.663 -0.3440 -0.2803  0.0652
41978SOL    HW130296   8.947   1.663   1.641 -1.0590  0.2362  0.9617
41978SOL    HW230297   8.841   1.561   1.603 -1.8392  0.8293  1.5149
41979SOL     OW30298   9.493   3.206  10.300  0.0102  0.0333  0.0957
41979SOL    HW130299   9.399   3.220  10.288 -0.0866 -0.1901  0.5360
41979SOL    HW230300   9.505   3.112  10.286 -0.0547 -0.1779  1.2848
41980SOL     OW30301   5.172   5.811  10.058 -0.5150  0.0612  0.1692
41980SOL    HW130302   5.216   5.819   9.974 -0.5576  1.0195  0.2252
41980SOL    HW230303   5.094   5.758  10.039 -1.1557  1.2562 -0.6549
41981SOL     OW30304   6.914   5.162   2.158 -0.4030  0.3376 -0.3637
41981SOL    HW130305   6.967   5.149   2.236 -1.4209 -2.2141  0.0188
41981SOL    HW230306   6.878   5.075   2.139 -1.2018  1.1372 -2.9478
41982SOL     OW30307   1.954   5.620   7.389 -0.1579 -0.3479  0.7404
41982SOL    HW130308   1.963   5.628   7.294 -0.2180 -1.3075  0.6541
41982SOL    HW230309   2.010   5.690   7.424  1.5261 -1.2938  0.0365
41983SOL     OW30310  10.916   1.331   0.443  0.2283  0.1253 -0.6984
41983SOL    HW130311  10.956   1.258   0.489 -0.2915 -0.3099 -0.9286
41983SOL    HW230312  10.917   1.306   0.351 -0.5102  0.1305 -0.7154
41984SOL     OW30313   8.103   0.687   9.324 -0.3035 -0.2777  0.3057
41984SOL    HW130314   8.139   0.631   9.394 -1.9559  0.8807  2.2012
41984SOL    HW230315   8.015   0.653   9.310 -0.3737  0.2028 -0.4691
41985SOL     OW30316   0.341   3.922  10.283  0.6877 -0.0589  0.4464
41985SOL    HW130317   0.259   3.881  10.255  0.4788 -0.5663  1.7093
41985SOL    HW230318   0.409   3.861  10.256  0.7240  0.6242 -1.0998
41986SOL     OW30319   6.671   0.211   1.761  0.2712 -0.1432 -0.2629
41986SOL    HW130320   6.614   0.245   1.831  0.8968 -0.1171  0.2501
41986SOL    HW230321   6.723   0.287   1.734 -1.7733  0.5371 -2.6461
41987SOL     OW30322   1.456   3.965  10.641 -0.5032  0.0414 -0.2241
41987SOL    HW130323   1.547   3.937  10.632  0.0617  2.3506 -3.3003
41987SOL    HW230324   1.410   3.920  10.570 -1.2946  0.5475 -0.0423
41988SOL     OW30325   5.081   5.360   7.152 -0.0790  0.0702 -0.1807
41988SOL    HW130326   5.155   5.331   7.205 -0.2835  1.4684  0.9235
41988SOL    HW230327   5.118   5.376   7.065  1.4313  2.6649  0.8107
41989SOL     OW30328   1.989   7.407   1.136  0.3505  0.1721 -0.0347
41989SOL    HW130329   1.927   7.333   1.135  1.1343 -0.4930 -0.0062
41989SOL    HW230330   1.944   7.475   1.186 -0.6019 -0.0853 -0.5107
41990SOL     OW30331   8.423   3.181  11.100  0.3704 -0.2693  0.1977
41990SOL    HW130332   8.518   3.177  11.108  0.4799  0.5427 -0.4963
41990SOL    HW230333   8.408   3.207  11.009 -0.4754  0.8934  0.6374
41991SOL     OW30334   8.811   9.210   2.942 -0.5152  0.1862  0.1939
41991SOL    HW130335   8.796   9.292   2.895 -0.3313  1.1452  1.7389
41991SOL    HW230336   8.792   9.142   2.878 -2.3866  1.4089 -0.6377
41992SOL     OW30337  10.265   5.373  10.371  0.0058 -0.5593  1.0415
41992SOL    HW130338  10.297   5.306  10.311  1.5062  0.1076  1.0339
41992SOL    HW230339  10.260   5.330  10.456  2.4623 -0.3573  1.3609
41993SOL     OW30340   6.541   2.396   1.237  0.1189 -0.3360  0.0114
41993SOL    HW130341   6.594   2.361   1.309 -1.4054 -0.9868  0.8471
41993SOL    HW230342   6.518   2.319   1.185 -0.2923 -0.0953 -0.1619
41994SOL     OW30343   5.303   1.506   9.205 -0.3096 -0.9624 -0.4136
41994SOL    HW130344   5.260   1.434   9.160 -1.7822  0.4481 -1.3732
41994SOL    HW230345   5.246   1.581   9.190  2.2419  0.9324 -1.3657
41995SOL     OW30346   8.176  10.810   4.604  0.1010 -0.5092  0.2456
41995SOL    HW130347   8.239  10.812   4.677  0.4907 -1.8896 -0.0212
41995SOL    HW230348   8.227  10.838   4.529  0.5997 -2.1476 -0.0762
41996SOL     OW30349  10.732   2.632   9.756  0.3225 -0.6021  0.3089
41996SOL    HW130350  10.664   2.612   9.820  3.0833 -0.9843  3.3730
41996SOL    HW230351  10.795   2.560   9.765  1.2714 -0.2208 -2.3190
41997SOL     OW30352  10.215   0.687   6.780  0.4156  0.1574  0.0601
41997SOL    HW130353  10.132   0.703   6.734  0.2330  0.7631  0.5787
41997SOL    HW230354  10.190   0.646   6.862  0.7797 -1.3962 -0.5719
41998SOL     OW30355   2.420   9.917   2.680  0.0841  0.1479  0.5477
41998SOL    HW130356   2.501   9.951   2.642 -0.1898  0.9638  0.6767
41998SOL    HW230357   2.446   9.882   2.765  0.1948  1.0492  0.8970
41999SOL     OW30358   0.273   4.358   3.776 -0.3867 -0.2986 -0.0522
41999SOL    HW130359   0.367   4.340   3.785 -0.7428 -3.0221 -0.8314
41999SOL    HW230360   0.249   4.401   3.858  1.4122 -0.1925  0.4596
42000SOL     OW30361   5.838   1.511   7.581 -0.1091  0.1426  0.8480
42000SOL    HW130362   5.864   1.490   7.670  0.8223  1.0298  0.8028
42000SOL    HW230363   5.896   1.460   7.525 -0.7437 -0.4730  0.7398
42001SOL     OW30364   0.769   2.306   7.310  0.3216  0.2030  0.6467
42001SOL    HW130365   0.766   2.380   7.248 -0.7944  0.0359  0.4878
42001SOL    HW230366   0.697   2.250   7.283  0.5048 -0.4205  1.4413
42002SOL     OW30367  10.285   3.562   4.071  0.4032 -0.8191  0.3482
42002SOL    HW130368  10.243   3.573   4.156 -1.1058 -1.0468 -0.3355
42002SOL    HW230369  10.254   3.476   4.040  1.8558 -1.2702  0.0553
42003SOL     OW30370   2.856   4.924   5.464 -0.3388 -0.3277  0.0660
42003SOL    HW130371   2.864   4.845   5.410  0.8060  1.1308 -2.0171
42003SOL    HW230372   2.823   4.991   5.404  3.7392  2.1356  0.2571
42004SOL     OW30373   2.105   2.387   5.031 -0.2001 -0.5451  0.2733
42004SOL    HW130374   2.145   2.309   5.069  0.4234 -0.6964 -0.6811
42004SOL    HW230375   2.167   2.457   5.049  0.3457 -0.7096 -0.8693
42005SOL     OW30376   6.816   7.851   0.551 -0.1981 -0.2156 -0.4790
42005SOL    HW130377   6.773   7.936   0.559  0.9241  0.4011 -0.8149
42005SOL    HW230378   6.903   7.871   0.516  0.6703 -1.3240  0.9266
42006SOL     OW30379   4.131   5.336   9.759 -0.0116  0.4236 -0.0469
42006SOL    HW130380   4.176   5.266   9.711 -1.4211  0.5891 -1.6941
42006SOL    HW230381   4.095   5.393   9.691 -0.1355  1.9673  1.2460
42007SOL     OW30382   6.062   5.422   8.920  0.1400  0.1437  0.0846
42007SOL    HW130383   5.974   5.457   8.934  0.6799  2.6855 -2.0544
42007SOL    HW230384   6.116   5.467   8.985  0.1805  0.1252  0.0645
42008SOL     OW30385   7.706   8.484   1.210  0.1018  0.0165  0.0211
42008SOL    HW130386   7.704   8.470   1.305 -1.3809 -0.7427 -0.0983
42008SOL    HW230387   7.700   8.579   1.201  2.2935  0.2803  0.6907
42009SOL     OW30388   0.611   2.672   4.588 -0.0919 -0.0663  0.3474
42009SOL    HW130389   0.566   2.757   4.593  0.1903  0.1114 -0.0877
42009SOL    HW230390   0.701   2.694   4.564 -0.4428 -0.5974 -1.6572
42010SOL     OW30391   7.201   8.191   2.759 -0.3681  0.0225  0.1095
42010SOL    HW130392   7.136   8.220   2.695  1.0821 -0.4574 -1.6275
42010SOL    HW230393   7.163   8.113   2.799  0.0803 -1.6711 -2.5837
42011SOL     OW30394   3.528   6.282   8.920 -0.5399  0.4679  0.3569
42011SOL    HW130395   3.567   6.241   8.843  0.9852  1.1928  0.7065
42011SOL    HW230396   3.462   6.220   8.950 -0.5459 -0.2154 -1.0188
42012SOL     OW30397   5.952   4.139   0.868  0.0413 -0.5007 -0.0661
42012SOL    HW130398   5.972   4.233   0.867  0.3576 -0.5675 -0.6139
42012SOL    HW230399   5.915   4.123   0.955  0.5051  0.0237  0.2366
42013SOL     OW30400   0.620   3.668   2.450 -0.4537 -0.3480 -0.5050
42013SOL    HW130401   0.713   3.669   2.427 -0.3564 -0.4438 -0.1238
42013SOL    HW230402   0.597   3.760   2.459 -0.2849 -0.3402 -0.1592
42014SOL     OW30403   7.259   3.037   8.251  0.1988 -0.0408  0.1910
42014SOL    HW130404   7.237   3.115   8.302  1.1399 -0.1242  0.7640
42014SOL    HW230405   7.218   3.051   8.166 -1.5285  0.0469  0.9920
42015SOL     OW30406   2.088   7.256   9.415  0.4431  0.3378 -0.3603
42015SOL    HW130407   2.176   7.217   9.420  0.7110  1.0075  0.2803
42015SOL    HW230408   2.104   7.350   9.408 -0.2050  0.3658 -1.6670
42016SOL     OW30409   0.464   7.125  10.356  0.6186 -0.1478 -0.5891
42016SOL    HW130410   0.471   7.212  10.395  0.5382 -0.2032 -0.4507
42016SOL    HW230411   0.518   7.129  10.277  1.0641 -0.1391 -0.2923
42017SOL     OW30412   1.346   5.792  10.281  0.1576  0.5988  0.0405
42017SOL    HW130413   1.359   5.886  10.270  0.2857  0.7461  1.2806
42017SOL    HW230414   1.356   5.756  10.193  2.0458  1.5234 -0.1891
42018SOL     OW30415   7.487   3.793   3.942 -0.5376  0.0189 -0.1885
42018SOL    HW130416   7.445   3.742   3.873  1.5584 -3.1215  0.6164
42018SOL    HW230417   7.559   3.839   3.899 -0.9036  0.2540 -0.5448
42019SOL     OW30418   3.874   5.378  10.350 -0.0846  0.0592 -0.8055
42019SOL    HW130419   3.813   5.452  10.350 -0.6031 -0.3490 -1.7774
42019SOL    HW230420   3.915   5.380  10.437  0.5007  1.9588 -1.0752
42020SOL     OW30421   8.011   6.077  10.360 -0.3408  0.4217 -0.4112
42020SOL    HW130422   8.080   6.126  10.316  0.7780 -0.8315 -0.1205
42020SOL    HW230423   8.040   6.073  10.452 -0.8208 -0.0578 -0.2735
42021SOL     OW30424   2.377   5.719   1.417 -0.6498 -0.3417 -0.1225
42021SOL    HW130425   2.373   5.646   1.356 -0.7354  0.8211 -1.5683
42021SOL    HW230426   2.288   5.726   1.452 -0.3784 -1.5974  0.9031
42022SOL     OW30427  10.554   7.387   6.490 -0.5125  0.6252  0.2199
42022SOL    HW130428  10.624   7.335   6.450 -0.8583 -0.2404  0.7172
42022SOL    HW230429  10.476   7.332   6.483 -0.7467  0.7898  1.3568
42023SOL     OW30430   4.566  11.109   6.074  0.0785  0.3099  0.0823
42023SOL    HW130431   4.584  11.176   6.139 -0.9507 -0.1362  0.8454
42023SOL    HW230432   4.470  11.107   6.066  0.0752 -1.1289  0.1558
42024SOL     OW30433   9.522   0.417   8.445  0.4022 -0.1043  0.0362
42024SOL    HW130434   9.557   0.501   8.475  1.2056 -0.9501  1.5930
42024SOL    HW230435   9.587   0.386   8.381 -0.4230  0.8935 -1.3420
42025SOL     OW30436   8.815   5.775  11.059  0.8026 -0.2634  0.7082
42025SOL    HW130437   8.864   5.819  11.129 -1.1695  1.6172  0.9762
42025SOL    HW230438   8.848   5.685  11.061  1.3312 -0.0935  3.5653
42026SOL     OW30439   0.447   3.486   5.067 -0.0217  0.0831  0.1154
42026SOL    HW130440   0.354   3.465   5.066 -0.2231  0.9195 -0.8160
42026SOL    HW230441   0.474   3.480   4.975  0.5535  1.0028  0.2033
42027SOL     OW30442   5.253  10.962   5.354 -0.0749  0.5522  0.5443
42027SOL    HW130443   5.186  10.992   5.416 -1.1781  1.9606 -1.2192
42027SOL    HW230444   5.321  11.029   5.357  0.3042  0.1577  0.8724
42028SOL     OW30445   5.252   8.864  10.655  0.6732  1.0902  0.5880
42028SOL    HW130446   5.264   8.811  10.734  0.5743 -0.0451 -0.1371
42028SOL    HW230447   5.186   8.928  10.680 -0.1620  0.0596  1.1292
42029SOL     OW30448   2.370  10.875   5.261  0.1116  0.0181  0.3293
42029SOL    HW130449   2.441  10.819   5.293 -0.0866  0.4297  1.5685
42029SOL    HW230450   2.377  10.955   5.314  0.1472  1.0147 -1.1339
42030SOL     OW30451   9.291   1.647   2.441 -0.0984 -0.3343 -0.1280
42030SOL    HW130452   9.375   1.602   2.438 -0.2625 -0.7712  1.2017
42030SOL    HW230453   9.286   1.683   2.530 -0.3487  1.5982 -0.8876
42031SOL     OW30454   9.678   1.721  10.785  0.6653  0.4597 -0.6644
42031SOL    HW130455   9.756   1.702  10.733  0.2695 -0.4397 -0.9676
42031SOL    HW230456   9.680   1.815  10.799  1.3988  0.5536 -1.3249
42032SOL     OW30457   7.645   8.433  10.079  0.7309 -0.3769  0.7340
42032SOL    HW130458   7.664   8.526  10.066  2.0821 -0.4267  2.0746
42032SOL    HW230459   7.561   8.432  10.124  0.6255  0.1827  0.5655
42033SOL     OW30460   9.899   6.669   6.313 -0.3729 -0.0804  0.0414
42033SOL    HW130461   9.970   6.609   6.291  0.7421  1.2230 -0.0218
42033SOL    HW230462   9.908   6.683   6.408  0.2150  1.0097 -0.1640
42034SOL     OW30463   0.473   3.323   1.692 -0.1185 -0.0874  0.2647
42034SOL    HW130464   0.430   3.251   1.739 -0.2670 -0.0554  0.1802
42034SOL    HW230465   0.498   3.284   1.608  0.2835 -0.1864  0.4301
42035SOL     OW30466   4.472   8.379   6.801  0.0371  0.0300 -0.2987
42035SOL    HW130467   4.523   8.460   6.799  0.6039 -0.2591  1.1798
42035SOL    HW230468   4.473   8.352   6.893 -1.2251 -0.9792 -0.5430
42036SOL     OW30469   1.266   6.308   1.084 -0.3089 -0.0138 -0.7044
42036SOL    HW130470   1.180   6.315   1.044  0.7993 -0.0166 -3.2621
42036SOL    HW230471   1.321   6.368   1.035  0.7515  1.7047  2.3174
42037SOL     OW30472   6.996   5.185   4.226  0.3336  0.2651 -0.2966
42037SOL    HW130473   7.018   5.146   4.310  0.5711 -1.6140 -1.1624
42037SOL    HW230474   6.902   5.168   4.216  0.1476  1.1594 -0.0801
42038SOL     OW30475   8.698   3.832   5.856  0.3211  0.3661 -0.2175
42038SOL    HW130476   8.774   3.800   5.906  0.0559 -0.2010 -0.1650
42038SOL    HW230477   8.634   3.761   5.863  0.2800  0.2842 -1.3550
42039SOL     OW30478   0.573  10.079   3.966  0.1831  0.2262 -0.0573
42039SOL    HW130479   0.663  10.059   3.991  0.6154  1.6693 -0.4156
42039SOL    HW230480   0.541  10.139   4.034 -2.0382 -3.4616  2.5912
42040SOL     OW30481   8.999   0.659   3.022 -0.3345  0.2324  0.1523
42040SOL    HW130482   8.986   0.586   3.083  1.1701 -1.8511 -1.8547
42040SOL    HW230483   8.977   0.623   2.936 -0.6107  2.5089 -0.8025
42041SOL     OW30484   5.878   1.480   7.860 -0.5246  0.0456  0.1618
42041SOL    HW130485   5.877   1.539   7.935  0.8697 -0.3695  0.5518
42041SOL    HW230486   5.861   1.393   7.898 -0.6585 -0.0527 -0.1205
42042SOL     OW30487   9.429   6.193   0.278 -0.2133 -0.2199  0.1133
42042SOL    HW130488   9.414   6.099   0.294  0.3707 -0.0655  1.7904
42042SOL    HW230489   9.342   6.232   0.286 -0.2346 -0.4286  1.0343
42043SOL     OW30490   8.439   3.232   8.671 -0.5246 -0.1061 -0.2153
42043SOL    HW130491   8.497   3.301   8.639 -0.4306 -1.0894 -2.3366
42043SOL    HW230492   8.482   3.150   8.646 -1.3993 -0.9202  0.8274
42044SOL     OW30493   6.567   3.336   3.355  0.3158  0.0759  0.0111
42044SOL    HW130494   6.572   3.429   3.376  0.1478 -0.0922  0.8246
42044SOL    HW230495   6.620   3.327   3.275 -0.3316  0.9909 -0.5416
42045SOL     OW30496   6.986   6.179   8.785  0.2393 -0.0049 -0.0122
42045SOL    HW130497   7.066   6.144   8.744 -0.2357  0.6273 -1.5491
42045SOL    HW230498   6.978   6.267   8.750  0.7612  1.3080  2.8913
42046SOL     OW30499   6.459   9.192   5.067 -0.2325 -0.2170  0.7379
42046SOL    HW130500   6.527   9.257   5.049  0.2714 -1.0158 -0.3071
42046SOL    HW230501   6.494   9.140   5.140 -0.3449  0.2419  1.1265
42047SOL     OW30502   9.044   7.877   8.271 -0.1383  0.8583 -0.4345
42047SOL    HW130503   9.120   7.921   8.233  1.2355 -0.4821  0.5880
42047SOL    HW230504   8.993   7.846   8.196  1.3723  0.0999 -1.1919
42048SOL     OW30505   4.085  10.186   8.201 -0.2636 -0.3977  0.3050
42048SOL    HW130506   4.051  10.243   8.270  0.5218 -2.0405  2.1463
42048SOL    HW230507   4.168  10.226   8.175  0.7784 -1.1503  2.2949
42049SOL     OW30508   3.660   9.629   8.350  0.1317  0.0026 -0.5373
42049SOL    HW130509   3.711   9.706   8.376  0.7057 -0.3077 -0.7204
42049SOL    HW230510   3.571   9.662   8.340  0.6214  1.0015 -2.1454
42050SOL     OW30511  10.715   9.864   2.510  0.6484 -0.4527 -0.2975
42050SOL    HW130512  10.655   9.826   2.445  0.5552  0.1393 -0.5577
42050SOL    HW230513  10.664   9.932   2.553  0.3676 -1.5267  1.1330
42051SOL     OW30514   4.772   3.996   6.251 -0.3520  0.8016 -0.3016
42051SOL    HW130515   4.714   4.041   6.313 -1.0680 -0.0153 -0.3686
42051SOL    HW230516   4.816   3.930   6.304  1.5136  2.2230  0.0414
42052SOL     OW30517  10.121   4.157  10.874  0.2628 -0.5676  0.4932
42052SOL    HW130518  10.105   4.152  10.968 -0.3410 -0.3192  0.4078
42052SOL    HW230519  10.115   4.066  10.844 -1.2261 -0.4666  0.4348
42053SOL     OW30520   4.370   5.153   6.354  0.5520  0.1684  0.1469
42053SOL    HW130521   4.302   5.208   6.315 -0.0233 -0.2053  0.6147
42053SOL    HW230522   4.442   5.214   6.371  0.1717  0.6527  0.0613
42054SOL     OW30523   5.117   6.149   6.457 -0.2052 -0.0714  0.2191
42054SOL    HW130524   5.178   6.114   6.393  1.9911  3.5816  0.0610
42054SOL    HW230525   5.033   6.154   6.410  0.1886 -1.8266 -0.7535
42055SOL     OW30526   3.647   4.251   5.826  0.1001  0.1781 -0.2432
42055SOL    HW130527   3.654   4.211   5.913  0.2447 -2.2532 -1.2945
42055SOL    HW230528   3.695   4.333   5.834  2.4038 -1.2051  1.2960
42056SOL     OW30529   4.625   0.209   8.303  0.2639  0.4395 -0.2331
42056SOL    HW130530   4.544   0.235   8.259  1.1561  1.1480 -1.5424
42056SOL    HW230531   4.601   0.200   8.395 -1.5258 -0.3746 -0.7310
42057SOL     OW30532   8.682   0.985   5.754  0.3075  0.4848 -0.0155
42057SOL    HW130533   8.685   0.996   5.659  0.7893  1.0989  0.0607
42057SOL    HW230534   8.666   1.074   5.787  0.9026  0.3988  0.5054
42058SOL     OW30535   4.543   9.960  10.781 -0.2751  0.0200  0.0609
42058SOL    HW130536   4.482   9.950  10.708 -2.2869 -2.2308  1.8524
42058SOL    HW230537   4.547  10.054  10.797  0.8493  0.6726 -3.3083
42059SOL     OW30538   1.371  10.372   9.089 -0.4189 -0.1648 -0.6934
42059SOL    HW130539   1.357  10.460   9.124  0.7502 -0.4663  0.6399
42059SOL    HW230540   1.449  10.341   9.135 -0.5116 -1.7061 -1.5268
42060SOL     OW30541   2.334   2.031   6.190 -0.3271  0.1171  0.6677
42060SOL    HW130542   2.406   2.017   6.252  1.1350  0.3588 -0.9085
42060SOL    HW230543   2.265   2.070   6.243  0.3239 -1.0044  2.4312
42061SOL     OW30544   0.953   3.195   3.831  0.0035 -0.5146  0.2594
42061SOL    HW130545   0.988   3.263   3.888 -1.2593  0.1811  0.2597
42061SOL    HW230546   0.950   3.236   3.744 -1.1375 -0.3976  0.3318
42062SOL     OW30547   9.027   9.916  10.740  0.2282  0.1079  0.3319
42062SOL    HW130548   8.959   9.970  10.781  0.1821 -0.0880  0.5151
42062SOL    HW230549   8.980   9.838  10.709  0.1796  0.4673 -0.5104
42063SOL     OW30550   6.205   3.461   3.006 -0.5638  0.1374 -0.1729
42063SOL    HW130551   6.142   3.396   3.037 -0.7366 -0.1980 -1.1989
42063SOL    HW230552   6.164   3.545   3.027 -2.1224 -0.0376 -2.1941
42064SOL     OW30553   5.518   5.243   1.472 -0.0275  0.5187 -0.3190
42064SOL    HW130554   5.516   5.216   1.380  1.2980 -0.3112 -0.1279
42064SOL    HW230555   5.471   5.175   1.518  0.6508  0.1073 -0.2133
42065SOL     OW30556   0.731   4.927   6.708 -0.5584 -0.1853  0.4563
42065SOL    HW130557   0.654   4.897   6.756 -0.4560 -0.2028  0.6121
42065SOL    HW230558   0.787   4.850   6.702 -1.4406 -0.7314 -1.4746
42066SOL     OW30559   0.846   5.386   3.817 -0.2345 -0.4807  0.2610
42066SOL    HW130560   0.902   5.383   3.895  0.9891 -1.3707 -0.6062
42066SOL    HW230561   0.850   5.297   3.781  0.6205  0.2850 -1.7234
42067SOL     OW30562  10.220  11.094   1.872  0.0228  0.6308 -0.8135
42067SOL    HW130563  10.176  11.128   1.794 -0.0730  0.5421 -0.7982
42067SOL    HW230564  10.313  11.115   1.858 -0.0133  0.7463 -0.8824
42068SOL     OW30565   1.018   3.175   1.804 -0.1730 -0.0595 -0.1801
42068SOL    HW130566   0.977   3.259   1.784  0.7629  0.0945 -1.6302
42068SOL    HW230567   1.034   3.177   1.898 -0.1689  1.3864 -0.1966
42069SOL     OW30568   3.394  10.999   8.941 -0.4682 -0.3338  0.5129
42069SOL    HW130569   3.427  10.996   9.031 -2.5848 -1.4701  1.3232
42069SOL    HW230570   3.306  10.961   8.946 -0.2404 -1.4760 -2.2355
42070SOL     OW30571   8.220   2.242   5.589  0.0132  0.9804 -0.6016
42070SOL    HW130572   8.230   2.337   5.579 -2.6062  1.4355  0.3341
42070SOL    HW230573   8.132   2.224   5.556  1.0481 -1.4373 -2.3015
42071SOL     OW30574   0.467   7.498   5.170  0.0760  0.3219  0.6445
42071SOL    HW130575   0.409   7.425   5.190 -1.9476  2.2748  2.3232
42071SOL    HW230576   0.470   7.549   5.250  3.4815  0.8403  0.3397
42072SOL     OW30577   4.312   9.629   7.951 -0.1401  0.1203  0.7166
42072SOL    HW130578   4.283   9.672   7.870  0.8539 -1.0757 -0.3202
42072SOL    HW230579   4.268   9.677   8.021 -0.4589  1.6635 -0.4875
42073SOL     OW30580   5.739   6.730  10.125  0.1806  0.0428 -0.0371
42073SOL    HW130581   5.762   6.769  10.040  0.4251 -1.0026 -0.4742
42073SOL    HW230582   5.798   6.655  10.133 -1.5257 -1.3871 -0.1468
42074SOL     OW30583   3.740   8.023   3.276  0.1747  0.1371  0.2388
42074SOL    HW130584   3.767   7.958   3.340  0.0332  0.2603  0.4246
42074SOL    HW230585   3.652   7.995   3.249 -0.3227  0.8213  1.0913
42075SOL     OW30586   8.050   2.319   9.276  0.7798 -0.2723  0.4224
42075SOL    HW130587   8.051   2.347   9.184  2.7004 -2.5897 -0.3527
42075SOL    HW230588   8.100   2.387   9.322 -0.5085  1.1053 -0.1151
42076SOL     OW30589   3.862   4.138   1.834  1.0591 -0.1620 -0.1383
42076SOL    HW130590   3.771   4.168   1.835  1.9733  2.9321  0.1069
42076SOL    HW230591   3.884   4.120   1.925  0.5705 -1.5195 -0.2633
42077SOL     OW30592  10.738   1.701   1.109 -0.0585  0.3213 -0.2191
42077SOL    HW130593  10.762   1.622   1.059  1.8910  1.0897 -0.5924
42077SOL    HW230594  10.765   1.681   1.199 -1.0358 -0.0154  0.0120
42078SOL     OW30595   4.528   1.709   4.301  0.4983 -0.0829  0.3172
42078SOL    HW130596   4.534   1.721   4.395 -1.0612 -2.4809  0.8080
42078SOL    HW230597   4.434   1.709   4.282  0.7903  1.2557 -1.4003
42079SOL     OW30598  11.048   7.901   2.648  0.0407  0.7370 -0.2407
42079SOL    HW130599  11.115   7.969   2.658 -0.7400  1.4544  0.2054
42079SOL    HW230600  11.034   7.894   2.554  1.5220 -0.2107 -0.4262
42080SOL     OW30601   1.968   8.448   5.189 -0.2807 -0.0540  0.2975
42080SOL    HW130602   1.917   8.429   5.111  0.0251  0.5466 -0.0503
42080SOL    HW230603   1.925   8.523   5.229  0.2818  0.4050  0.0473
42081SOL     OW30604   7.605   0.175   1.499 -0.3371  0.2040 -0.2497
42081SOL    HW130605   7.544   0.195   1.429  2.1530  0.4864 -2.4904
42081SOL    HW230606   7.691   0.196   1.463  1.2006 -1.0117  2.4028
42082SOL     OW30607   4.715   1.439   6.754 -0.3981  0.2518 -0.1468
42082SOL    HW130608   4.722   1.524   6.798  0.7016  0.2247 -0.2562
42082SOL    HW230609   4.786   1.438   6.690 -1.7434  0.1331 -1.6984
42083SOL     OW30610   9.141   5.978   6.410  0.1425 -0.3621 -0.0385
42083SOL    HW130611   9.064   5.922   6.400 -0.4913  0.9052 -4.1870
42083SOL    HW230612   9.128   6.023   6.493 -3.9199  0.1324 -0.7610
42084SOL     OW30613   6.947   3.889   1.003  0.0427 -0.2697 -0.1872
42084SOL    HW130614   6.887   3.838   0.948 -0.3786 -0.7082  0.6603
42084SOL    HW230615   6.949   3.975   0.962 -0.7047 -0.4261 -0.5790
42085SOL     OW30616   7.811   7.777   3.094  0.4364 -0.4878  0.0639
42085SOL    HW130617   7.810   7.796   3.000 -0.3286  0.7822  0.3081
42085SOL    HW230618   7.849   7.689   3.100 -1.2775 -1.4194 -1.5877
42086SOL     OW30619   7.338   4.203   4.046  0.0838 -0.0892 -0.0896
42086SOL    HW130620   7.428   4.227   4.026  0.5934 -1.5074  0.4114
42086SOL    HW230621   7.292   4.207   3.962  1.0480 -1.1599 -0.6914
42087SOL     OW30622   8.800   3.407   9.124  0.5328 -0.6127 -0.3262
42087SOL    HW130623   8.750   3.487   9.143 -0.2471 -0.7409 -1.7640
42087SOL    HW230624   8.746   3.336   9.160  1.2353 -0.5217  0.9690
42088SOL     OW30625   9.216   6.725   0.838  0.2368  0.6386  0.0939
42088SOL    HW130626   9.230   6.704   0.930 -2.3702  1.2191  0.7049
42088SOL    HW230627   9.251   6.650   0.791  1.3391  0.1915  1.5678
42089SOL     OW30628   9.115   2.590   8.338 -0.3479  0.9380 -0.0079
42089SOL    HW130629   9.093   2.662   8.397 -1.0111  0.8471 -0.1358
42089SOL    HW230630   9.031   2.545   8.323  0.2225 -0.4591  0.8443
42090SOL     OW30631   4.216   8.858   1.954 -0.6865  0.0343  0.1618
42090SOL    HW130632   4.297   8.910   1.948 -0.3422 -0.4762  0.2640
42090SOL    HW230633   4.156   8.899   1.892 -0.6198  0.8960  0.6435
42091SOL     OW30634   9.707   4.065   9.356 -0.3930  0.2031 -0.2504
42091SOL    HW130635   9.662   4.061   9.271 -3.0210  1.5031  0.9517
42091SOL    HW230636   9.727   4.158   9.368 -0.1706  0.0536  0.6214
42092SOL     OW30637   8.540   4.185   3.031 -0.3280 -0.1676 -0.3738
42092SOL    HW130638   8.635   4.199   3.022 -0.5359  1.4935 -0.2436
42092SOL    HW230639   8.532   4.109   3.089  0.9147 -0.4512 -0.5451
42093SOL     OW30640  10.375   1.897   0.073 -0.1131  0.0174 -0.4190
42093SOL    HW130641  10.308   1.958   0.040 -0.4509  0.0411  0.2805
42093SOL    HW230642  10.398   1.843  -0.002  0.2084  1.0224 -1.0632
42094SOL     OW30643   1.202  10.807  10.044 -0.1027  0.2404  0.3827
42094SOL    HW130644   1.197  10.832   9.952 -0.2893 -0.4570  0.2006
42094SOL    HW230645   1.294  10.822  10.067  0.3576 -1.1994 -0.4007
42095SOL     OW30646   2.166   9.479   0.826  0.7552  0.6878 -1.1289
42095SOL    HW130647   2.209   9.461   0.742  2.9760 -1.9116  0.3955
42095SOL    HW230648   2.235   9.466   0.891 -1.7303 -1.1134  1.3475
42096SOL     OW30649   0.871   4.053   9.306 -0.1065  0.2396  0.4302
42096SOL    HW130650   0.890   4.050   9.400  0.2182 -1.4316  0.3446
42096SOL    HW230651   0.832   3.967   9.287 -0.2780  0.6016 -0.9324
42097SOL     OW30652  10.525   0.144   9.454 -1.1167 -0.0764  0.5874
42097SOL    HW130653  10.591   0.168   9.519 -0.0325 -0.9714 -0.1177
42097SOL    HW230654  10.539   0.206   9.382  0.5684 -1.6197 -0.5287
42098SOL     OW30655   6.247   3.246   2.451 -0.5592  0.1881 -0.1472
42098SOL    HW130656   6.166   3.245   2.400 -0.4684  2.7051 -0.4840
42098SOL    HW230657   6.279   3.336   2.441  1.8070 -0.5117  0.7203
42099SOL     OW30658   0.262   9.848   4.876  0.1055  0.1842 -0.5703
42099SOL    HW130659   0.305   9.783   4.820 -0.7784 -1.2683  0.3506
42099SOL    HW230660   0.184   9.802   4.909 -0.4825  1.6918  0.2226
42100SOL     OW30661   4.859   8.666   7.958  0.0684 -0.4452 -0.3595
42100SOL    HW130662   4.778   8.690   8.003 -1.2216 -1.6083 -1.9191
42100SOL    HW230663   4.891   8.748   7.920  0.5747  0.3321  1.6543
42101SOL     OW30664   1.783   1.241   8.084 -0.1207  0.2234 -0.0133
42101SOL    HW130665   1.792   1.267   8.176  1.3843  1.4047 -0.4669
42101SOL    HW230666   1.731   1.160   8.087  0.1471  0.0867  1.8876
42102SOL     OW30667   6.916   9.037   5.960  0.0947  0.1862 -0.1638
42102SOL    HW130668   6.878   8.949   5.969  2.0124 -0.6310  0.3652
42102SOL    HW230669   6.843   9.091   5.930 -1.2309 -1.5018 -0.1474
42103SOL     OW30670   1.127   6.652   3.087  0.1166  0.1242  0.1267
42103SOL    HW130671   1.129   6.705   3.166 -0.9064 -0.0187  0.2571
42103SOL    HW230672   1.065   6.582   3.106 -0.4828  0.3331 -0.9535
42104SOL     OW30673   8.767   2.606   4.867  0.3599 -0.0389  0.1797
42104SOL    HW130674   8.680   2.584   4.832  1.1651 -0.0518 -1.9717
42104SOL    HW230675   8.758   2.697   4.897 -0.3175  0.0827 -0.3513
42105SOL     OW30676   5.939  10.463   4.536  0.5909 -0.1042 -0.5306
42105SOL    HW130677   5.952  10.403   4.463  0.3204 -0.6878 -0.1096
42105SOL    HW230678   5.865  10.518   4.510  1.0069  0.2331 -1.0279
42106SOL     OW30679   0.345   6.532   7.644  0.1226 -0.6848 -0.0601
42106SOL    HW130680   0.279   6.466   7.624  1.2630 -2.1744  0.8977
42106SOL    HW230681   0.366   6.518   7.737  0.5441  0.9032  0.1142
42107SOL     OW30682   6.634   1.634   8.221  0.1576  0.0831 -0.3578
42107SOL    HW130683   6.700   1.587   8.170  1.4862  1.9135 -0.4082
42107SOL    HW230684   6.678   1.656   8.303  0.0484  2.3347 -0.8428
42108SOL     OW30685   5.921   6.754  10.820 -0.2937 -0.4104 -0.3693
42108SOL    HW130686   5.924   6.847  10.800  3.2284 -0.1331  0.8362
42108SOL    HW230687   6.003   6.719  10.787 -0.1322 -2.4498  1.8939
42109SOL     OW30688   5.946   7.511  10.982 -0.5275  0.1177 -0.0754
42109SOL    HW130689   5.877   7.515  11.048 -0.4061 -0.5119  0.0943
42109SOL    HW230690   6.005   7.443  11.013  0.5445  1.1027  0.1329
42110SOL     OW30691   9.520   5.674   8.379 -0.3623 -0.6211  0.3209
42110SOL    HW130692   9.516   5.678   8.475 -0.9710 -1.2870  0.3330
42110SOL    HW230693   9.602   5.717   8.357 -0.3579 -0.1970  1.1260
42111SOL     OW30694   8.678  11.033   2.743  0.0080  0.0023  0.3426
42111SOL    HW130695   8.644  11.114   2.704 -0.3016 -0.7146 -0.9456
42111SOL    HW230696   8.752  11.009   2.687  1.0328  0.1518  1.5845
42112SOL     OW30697   2.732  11.032   6.875  0.4797 -0.6497  0.1574
42112SOL    HW130698   2.778  10.975   6.937  1.1036  1.7361  2.0422
42112SOL    HW230699   2.714  11.112   6.924 -1.7858  0.2170 -1.8777
42113SOL     OW30700   0.727   6.722   8.983  0.2288 -0.5885  0.0947
42113SOL    HW130701   0.752   6.803   8.939 -1.3586  1.0832  2.0539
42113SOL    HW230702   0.802   6.702   9.040 -0.1369  0.6877  1.0777
42114SOL     OW30703   6.920  10.724   9.351  0.1086  0.3369 -0.2470
42114SOL    HW130704   6.919  10.632   9.379  0.2769  0.2801 -0.4248
42114SOL    HW230705   6.898  10.773   9.430 -1.0428  0.0813 -0.3939
42115SOL     OW30706   8.409  10.712   2.891 -0.1129  0.0592  0.4773
42115SOL    HW130707   8.322  10.684   2.922  0.7727  0.3632  3.6378
42115SOL    HW230708   8.454  10.631   2.869 -1.8040 -0.0169 -3.5260
42116SOL     OW30709   6.994   3.868   0.227 -0.4751  0.5437  0.2336
42116SOL    HW130710   6.961   3.884   0.316 -0.1666 -0.5623  0.5721
42116SOL    HW230711   6.915   3.851   0.175 -0.6182  0.5739  0.4377
42117SOL     OW30712   8.905   8.256   5.027 -0.1814 -0.5614 -0.3865
42117SOL    HW130713   8.873   8.345   5.038  0.9663 -0.0694 -0.8514
42117SOL    HW230714   8.960   8.241   5.104  0.1645 -0.6165 -0.6410
42118SOL     OW30715   0.931   4.716   0.778  0.8543  0.7060 -0.5563
42118SOL    HW130716   0.901   4.778   0.845 -1.3269 -1.2343  0.3645
42118SOL    HW230717   0.894   4.750   0.696  0.7351  1.2761 -0.2739
42119SOL     OW30718   3.257   9.260   2.031 -0.1490  0.2409  0.3825
42119SOL    HW130719   3.238   9.333   2.090  1.2944  0.1224  1.0541
42119SOL    HW230720   3.299   9.195   2.088 -2.1375 -1.4920 -0.0134
42120SOL     OW30721   0.973   9.697   5.186 -0.2695 -0.5658  0.2577
42120SOL    HW130722   0.938   9.619   5.142  0.6600 -0.2934 -1.0182
42120SOL    HW230723   1.062   9.672   5.212 -0.5840 -0.5051  1.4403
42121SOL     OW30724   6.808   5.793   0.747  0.6761  0.5087  0.0831
42121SOL    HW130725   6.829   5.724   0.684 -1.3127 -0.6328  0.5712
42121SOL    HW230726   6.836   5.757   0.832 -0.6954  0.0992  0.3844
42122SOL     OW30727   5.151   2.639   5.228 -0.0925 -0.3229  0.0420
42122SOL    HW130728   5.133   2.720   5.180 -0.2319 -0.2244  0.2576
42122SOL    HW230729   5.065   2.600   5.242 -0.0413 -0.4125  0.1049
42123SOL     OW30730   5.900   8.056   9.826 -0.0243  0.5849  0.7747
42123SOL    HW130731   5.989   8.040   9.795 -0.9930 -0.3448 -1.8338
42123SOL    HW230732   5.902   8.146   9.858  1.9229  0.4469  1.1808
42124SOL     OW30733   1.053   5.222   2.061  0.5595 -0.2110  0.2673
42124SOL    HW130734   1.123   5.180   2.112  1.0236 -0.1418 -0.2999
42124SOL    HW230735   1.074   5.201   1.970 -2.0555 -3.2013  0.1682
42125SOL     OW30736   7.562   3.544   7.703  0.5583  0.1639 -0.2959
42125SOL    HW130737   7.468   3.548   7.716  0.2956  0.1173 -1.9414
42125SOL    HW230738   7.579   3.608   7.633  1.5280 -0.7974 -0.9736
42126SOL     OW30739   5.311   1.444   7.251  0.5176  0.1257 -0.0287
42126SOL    HW130740   5.345   1.461   7.339  1.7537 -0.5741 -0.3428
42126SOL    HW230741   5.329   1.525   7.203 -0.1328  0.4983  0.3469
42127SOL     OW30742   6.856   2.835  10.595  0.0474  0.4880  0.1644
42127SOL    HW130743   6.801   2.842  10.517  1.3998 -1.4725 -1.0633
42127SOL    HW230744   6.927   2.897  10.580  0.1045  0.3868  0.0145
42128SOL     OW30745   2.802   8.600   9.008 -0.0822 -0.5178  0.1843
42128SOL    HW130746   2.896   8.621   9.003 -0.2886  0.4062 -0.1164
42128SOL    HW230747   2.798   8.505   8.998  0.8045 -0.5395 -0.1127
42129SOL     OW30748   9.246   1.210   4.345 -0.1905  0.3653  0.1947
42129SOL    HW130749   9.154   1.194   4.362  0.5600 -2.2227  2.4533
42129SOL    HW230750   9.277   1.129   4.303  1.1844  0.9496  0.0358
42130SOL     OW30751   9.893   8.618   6.456 -0.7401 -0.1510  0.8482
42130SOL    HW130752   9.814   8.588   6.502 -0.4500 -0.5481  1.0991
42130SOL    HW230753   9.860   8.656   6.375 -1.4755  2.8204  2.4212
42131SOL     OW30754   0.600   5.654  10.544  0.2236  0.5396  0.2273
42131SOL    HW130755   0.555   5.678  10.462  0.3977  2.0344  0.5464
42131SOL    HW230756   0.675   5.603  10.516  1.1357  2.2923 -0.7050
42132SOL     OW30757   0.859   8.593  10.780  0.4407 -0.4236 -0.0052
42132SOL    HW130758   0.842   8.531  10.851  1.5081  0.0481  0.6803
42132SOL    HW230759   0.930   8.648  10.812  2.3347 -1.4365 -2.1939
42133SOL     OW30760   5.165   3.533   9.077  0.2201  0.2744  0.5045
42133SOL    HW130761   5.132   3.526   9.167 -2.1019 -0.0571 -0.3089
42133SOL    HW230762   5.181   3.443   9.051  2.6722  0.4692  1.1411
42134SOL     OW30763   4.334  10.692   2.909  0.5357 -0.0663  0.7495
42134SOL    HW130764   4.278  10.669   2.983  1.7992 -1.2056  1.3930
42134SOL    HW230765   4.337  10.613   2.855  1.0247  0.1861  0.4018
42135SOL     OW30766   3.374   3.735   2.009 -0.0190  0.3199  0.2160
42135SOL    HW130767   3.334   3.822   2.013  1.6637  1.1603 -0.4665
42135SOL    HW230768   3.432   3.732   2.086 -1.1563 -0.8121  1.0873
42136SOL     OW30769  10.458  10.152   5.418  0.1148  0.1223  0.2440
42136SOL    HW130770  10.553  10.146   5.414  0.1874  1.3394 -0.3243
42136SOL    HW230771  10.428  10.140   5.328 -0.1585  1.0798  0.1928
42137SOL     OW30772   8.955   4.414   2.172  0.3297  0.6866  0.7866
42137SOL    HW130773   8.880   4.464   2.204 -0.8931  0.8750 -2.1375
42137SOL    HW230774   9.022   4.480   2.152  0.1337  0.8003  0.5109
42138SOL     OW30775   5.835   6.904   5.755 -0.4967  0.2726 -0.2905
42138SOL    HW130776   5.762   6.846   5.733 -1.2215  0.7018  0.9196
42138SOL    HW230777   5.797   6.970   5.814  0.9546  0.2457  0.7193
42139SOL     OW30778   5.674   7.431   8.169 -0.6377  0.6819 -0.2797
42139SOL    HW130779   5.708   7.510   8.125  0.6319  0.5831  0.4559
42139SOL    HW230780   5.584   7.454   8.193 -1.4156  0.7152 -2.9155
42140SOL     OW30781   6.711   7.061   5.747  0.1842  0.1647  0.0873
42140SOL    HW130782   6.730   7.128   5.812  0.1145  1.0571 -0.7767
42140SOL    HW230783   6.668   7.109   5.676 -4.9273 -1.4832  1.5710
42141SOL     OW30784   0.726   7.982   4.500  0.2468  0.0490  0.0653
42141SOL    HW130785   0.630   7.979   4.507  0.2882 -1.3260  0.3382
42141SOL    HW230786   0.747   8.075   4.496 -0.9164  0.4885  2.5164
42142SOL     OW30787   0.506   9.671  10.481  0.5612  0.3586 -0.9740
42142SOL    HW130788   0.594   9.708  10.480  1.8121 -2.3456 -0.9901
42142SOL    HW230789   0.451   9.738  10.441  2.5513  2.2165 -0.7929
42143SOL     OW30790   7.594   9.475   9.921  0.6503  0.3049 -0.1256
42143SOL    HW130791   7.622   9.566   9.921  0.6411  0.3093  0.6954
42143SOL    HW230792   7.656   9.431   9.863  0.4022  0.8988 -0.8716
42144SOL     OW30793   4.160  10.891   9.099  0.3652 -0.0493 -0.9800
42144SOL    HW130794   4.140  10.798   9.083  0.8913 -0.3160 -0.1668
42144SOL    HW230795   4.086  10.938   9.063 -0.5408 -0.8651 -0.2371
42145SOL     OW30796   9.931   0.448   1.184  0.6375 -0.7625 -0.2923
42145SOL    HW130797   9.986   0.423   1.258  2.6222 -1.4699 -1.8951
42145SOL    HW230798   9.888   0.366   1.158 -1.4005 -0.1778  1.0564
42146SOL     OW30799  10.670  10.003   5.783 -0.3129 -0.2795  0.3444
42146SOL    HW130800  10.761   9.976   5.794 -0.1384  0.2792  0.2894
42146SOL    HW230801  10.619   9.927   5.811  0.1760 -1.0201 -0.6972
42147SOL     OW30802  10.870   8.201   6.633  0.2790  0.2826 -0.6171
42147SOL    HW130803  10.949   8.191   6.687 -1.3133  0.8370  1.9846
42147SOL    HW230804  10.862   8.117   6.587 -0.9986 -2.5237  4.0444
42148SOL     OW30805   5.376   6.893   1.013 -0.6668  0.5428  0.0275
42148SOL    HW130806   5.427   6.972   0.998 -0.3571  0.2368 -0.5799
42148SOL    HW230807   5.312   6.890   0.942 -0.2891 -0.0491 -0.2991
42149SOL     OW30808   0.801   9.484   4.281 -0.0705  0.3568  0.1892
42149SOL    HW130809   0.733   9.483   4.214 -0.1995 -1.6663  0.2668
42149SOL    HW230810   0.760   9.526   4.357 -0.4241  1.2884 -0.5126
42150SOL     OW30811   0.488   4.793   9.205  0.1341  0.1554 -0.2705
42150SOL    HW130812   0.436   4.840   9.140  1.0893  1.7359  0.0713
42150SOL    HW230813   0.438   4.801   9.286 -0.7451 -1.2851 -0.6188
42151SOL     OW30814   3.258   4.040   8.878  0.3261  0.1177  0.3370
42151SOL    HW130815   3.257   3.969   8.942 -0.0840 -0.3016 -0.1182
42151SOL    HW230816   3.348   4.073   8.880  0.6106 -0.6338  0.3247
42152SOL     OW30817  10.348   4.859   9.256 -0.1222  0.1745  0.1530
42152SOL    HW130818  10.271   4.881   9.308 -0.8172 -1.5038 -0.0951
42152SOL    HW230819  10.371   4.940   9.211 -1.4796  0.8143  0.5670
42153SOL     OW30820   8.749   2.896   9.375  0.7833  0.4387  0.2177
42153SOL    HW130821   8.732   2.883   9.282  0.6914 -1.7957  0.5046
42153SOL    HW230822   8.663   2.913   9.413  0.3075 -1.8785  0.3232
42154SOL     OW30823   6.662   0.163   8.247 -0.2868  0.1679 -0.6655
42154SOL    HW130824   6.753   0.134   8.254  0.3081  1.9992 -0.3147
42154SOL    HW230825   6.666   0.259   8.251 -2.3391  0.2832  0.6513
42155SOL     OW30826   5.442   2.452  10.650 -0.6060  0.0674 -0.2367
42155SOL    HW130827   5.406   2.435  10.737  0.3964 -0.0730  0.1661
42155SOL    HW230828   5.367   2.482  10.599 -1.2356  0.0410  0.6372
42156SOL     OW30829   5.524   6.075   8.208 -0.2540 -0.2779 -0.2435
42156SOL    HW130830   5.507   5.995   8.258 -0.8080 -0.7997 -1.2475
42156SOL    HW230831   5.439   6.117   8.199 -0.0030  0.3196  0.0712
42157SOL     OW30832   0.873   0.218  10.992  0.4406  0.4673 -0.3362
42157SOL    HW130833   0.887   0.181  11.079 -0.9650  0.7960  0.0582
42157SOL    HW230834   0.919   0.159  10.932  2.3828  0.8572  0.7121
42158SOL     OW30835   1.180   8.483   1.551 -0.1420  0.1040 -0.1994
42158SOL    HW130836   1.262   8.448   1.585  0.4515  2.4509  0.9859
42158SOL    HW230837   1.202   8.516   1.464 -0.3179 -0.9071 -0.6469
42159SOL     OW30838   0.233  11.103   8.252 -0.2710 -0.3628 -0.0840
42159SOL    HW130839   0.251  11.079   8.343 -0.6647 -1.2178 -0.2256
42159SOL    HW230840   0.139  11.089   8.241 -0.8691  2.6357  0.2248
42160SOL     OW30841   1.624   9.897   8.303 -0.1824  0.4439 -0.1491
42160SOL    HW130842   1.528   9.906   8.298 -0.4873 -2.4560 -1.6491
42160SOL    HW230843   1.652   9.896   8.212  0.6535 -3.2629  0.0263
42161SOL     OW30844   6.917   7.868   5.653  0.3884 -0.7812  0.1148
42161SOL    HW130845   6.841   7.911   5.692 -0.6420 -1.5438 -0.9975
42161SOL    HW230846   6.945   7.926   5.583  0.4176 -0.8295  0.0863
42162SOL     OW30847   2.238   3.159   8.511 -0.6122 -0.1661  0.2964
42162SOL    HW130848   2.214   3.079   8.557 -0.5303  0.2577  1.0851
42162SOL    HW230849   2.176   3.225   8.540  1.5893  1.0468  2.6766
42163SOL     OW30850   8.682   8.819   2.875 -0.0517  0.2186 -0.1118
42163SOL    HW130851   8.666   8.794   2.966 -1.8574  0.3776 -0.3620
42163SOL    HW230852   8.748   8.756   2.844  1.7155  1.0856  1.7097
42164SOL     OW30853   5.067   0.447   7.118 -0.1953 -0.2461  0.1322
42164SOL    HW130854   5.079   0.375   7.056 -0.0282 -0.3941  0.3353
42164SOL    HW230855   4.987   0.491   7.088 -1.0270 -1.2819  0.7394
42165SOL     OW30856   5.391   6.909   1.785 -0.2872  0.0279 -0.3406
42165SOL    HW130857   5.370   6.941   1.873 -0.8252 -0.6042 -0.2248
42165SOL    HW230858   5.437   6.826   1.799 -1.2283 -0.5726 -0.6456
42166SOL     OW30859  11.085   9.102   2.476 -0.0986 -0.1248 -0.1183
42166SOL    HW130860  11.082   9.036   2.545 -0.9225 -0.0566 -0.0809
42166SOL    HW230861  11.040   9.178   2.513 -0.3145  0.0026 -0.6279
42167SOL     OW30862   1.033   0.546   3.014  0.5326 -0.7183  0.4125
42167SOL    HW130863   0.984   0.618   3.053  0.8270 -0.1505 -0.2267
42167SOL    HW230864   1.030   0.476   3.079 -1.1854 -0.7404  0.3482
42168SOL     OW30865   1.408   3.534   6.440 -0.2319  0.1091 -0.1276
42168SOL    HW130866   1.460   3.612   6.464 -0.8218  0.2283  0.8086
42168SOL    HW230867   1.354   3.563   6.366 -1.0794  0.8631  0.7688
42169SOL     OW30868   4.759   4.086   7.151 -0.0393  1.0173 -0.6286
42169SOL    HW130869   4.775   3.992   7.155 -1.6024  0.6909 -1.3758
42169SOL    HW230870   4.823   4.123   7.213  0.7063 -0.4945 -0.4246
42170SOL     OW30871   6.982  10.181   2.131  0.0067  0.4198  0.1968
42170SOL    HW130872   7.045  10.177   2.203 -0.6338 -0.0045  0.7422
42170SOL    HW230873   6.909  10.233   2.165 -0.2568  0.3062 -0.1810
42171SOL     OW30874   8.740   0.957   9.098 -0.2018  0.2257 -0.1678
42171SOL    HW130875   8.699   0.969   9.184 -1.6636 -0.0163 -0.8041
42171SOL    HW230876   8.672   0.982   9.036  1.5769  2.7754 -1.2886
42172SOL     OW30877   6.660   1.532   7.246 -0.4234 -0.3046  0.2999
42172SOL    HW130878   6.666   1.546   7.340 -0.3639 -0.6951  0.3555
42172SOL    HW230879   6.735   1.477   7.225 -2.2704 -3.1000  0.5859
42173SOL     OW30880   8.953   9.412   5.329 -0.5609  0.2977  0.2426
42173SOL    HW130881   8.952   9.505   5.354 -0.0979  0.0346  1.3069
42173SOL    HW230882   8.957   9.365   5.413 -0.7559 -0.6867 -0.2846
42174SOL     OW30883   0.573   1.174   9.067 -0.2286  0.0614  0.5172
42174SOL    HW130884   0.625   1.224   9.004 -0.8044  0.1785  0.1265
42174SOL    HW230885   0.561   1.233   9.141 -1.7759  0.9319 -0.3611
42175SOL     OW30886   1.760   4.828   3.795  0.3342 -0.4077 -0.0926
42175SOL    HW130887   1.832   4.770   3.769 -0.3558 -0.5146 -1.8668
42175SOL    HW230888   1.722   4.785   3.872  0.7493 -1.5510 -0.5033
42176SOL     OW30889   6.101   4.518   6.007 -0.4389 -0.1010  0.1442
42176SOL    HW130890   6.065   4.469   6.081 -1.1071  1.2698  0.7638
42176SOL    HW230891   6.059   4.604   6.012 -0.2093  0.1505 -1.6187
42177SOL     OW30892   4.062   9.650   5.785  0.8268  0.4315  0.5140
42177SOL    HW130893   4.018   9.735   5.776 -2.2246 -0.9655  0.7438
42177SOL    HW230894   4.061   9.633   5.879 -1.8052 -1.2307  0.3138
42178SOL     OW30895   5.218   8.862  10.185 -0.9197 -0.0448  0.7696
42178SOL    HW130896   5.293   8.854  10.126 -0.3388 -0.2191  1.5172
42178SOL    HW230897   5.142   8.844  10.130 -0.6530  2.5249 -0.5954
42179SOL     OW30898   6.893   6.569  10.585  0.1092  0.3768 -0.4024
42179SOL    HW130899   6.982   6.549  10.613 -0.0544 -0.0338 -0.1689
42179SOL    HW230900   6.859   6.630  10.651 -1.3547 -2.9136  2.1584
42180SOL     OW30901   7.009   8.568   7.375  0.6636 -0.2072  0.0595
42180SOL    HW130902   7.061   8.495   7.341 -0.5172 -1.1420  0.1943
42180SOL    HW230903   6.931   8.527   7.411  0.7594  0.9789  1.7208
42181SOL     OW30904   2.089   9.923   6.089  0.4479 -0.2998  0.3177
42181SOL    HW130905   2.185   9.929   6.092  0.6048 -2.1396  0.1369
42181SOL    HW230906   2.070   9.833   6.114 -1.2704  0.0826  0.5134
42182SOL     OW30907   8.150   2.572   9.558  0.1328 -0.2481 -0.6762
42182SOL    HW130908   8.167   2.584   9.465  0.7206 -1.1766 -0.7007
42182SOL    HW230909   8.077   2.631   9.577  0.9612  1.0393 -1.3885
42183SOL     OW30910   9.003   7.799   2.863  0.2814 -0.1569 -0.4152
42183SOL    HW130911   9.035   7.889   2.870 -2.9537  1.0677  1.0385
42183SOL    HW230912   9.038   7.755   2.940  1.0003  0.1826 -0.5442
42184SOL     OW30913   7.934   5.535   0.364  0.6532 -0.3795  0.2604
42184SOL    HW130914   7.850   5.579   0.347  0.5296  0.0720  1.8684
42184SOL    HW230915   7.962   5.504   0.278 -1.0222 -0.2967 -0.3620
42185SOL     OW30916   8.349   9.127   6.092  0.1663  0.2707  0.0962
42185SOL    HW130917   8.367   9.037   6.063 -0.7688  0.6299 -1.7241
42185SOL    HW230918   8.269   9.120   6.143  0.5202 -0.0204  0.6269
42186SOL     OW30919   9.339   5.100   0.664  0.0396 -0.0899 -0.4185
42186SOL    HW130920   9.357   5.183   0.708 -0.0920 -0.9898  1.3993
42186SOL    HW230921   9.257   5.069   0.702  0.8361 -1.7631  0.0226
42187SOL     OW30922   5.507   7.985   7.052  0.2098  0.3781 -0.3638
42187SOL    HW130923   5.451   8.008   7.126 -1.5997 -0.6876 -1.3359
42187SOL    HW230924   5.483   8.048   6.983 -0.4650 -0.5923 -1.0573
42188SOL     OW30925   7.008   0.048   9.827 -0.3946  0.5914 -0.1057
42188SOL    HW130926   6.939   0.114   9.834  0.3554  1.2716  1.1342
42188SOL    HW230927   6.961  -0.035   9.818 -1.3556  1.2209 -1.1908
42189SOL     OW30928   7.472   1.073   7.313  0.4087  0.2888  0.2097
42189SOL    HW130929   7.407   1.013   7.349 -1.1408  0.3355 -2.2028
42189SOL    HW230930   7.459   1.154   7.362 -2.0556  0.5607 -0.7200
42190SOL     OW30931   9.035   5.221  10.924 -0.2887 -0.3268 -0.2880
42190SOL    HW130932   8.960   5.274  10.949  0.0435 -0.9361  2.2458
42190SOL    HW230933   8.997   5.143  10.882 -0.8296  1.0625 -2.5833
42191SOL     OW30934   4.903  10.606   2.564  1.0295  0.2379  0.1369
42191SOL    HW130935   4.809  10.585   2.560  1.3470 -1.0456 -1.8388
42191SOL    HW230936   4.906  10.689   2.611 -1.1694  0.5859 -0.1957
42192SOL     OW30937   5.563   1.756   1.183 -0.0455  0.5477 -0.7398
42192SOL    HW130938   5.544   1.838   1.137 -0.2938  1.5282  1.0213
42192SOL    HW230939   5.635   1.778   1.242 -0.5075 -0.3483  0.1896
42193SOL     OW30940   0.163   1.508  10.565  0.1025  0.7829  0.2509
42193SOL    HW130941   0.241   1.459  10.541  0.9848  1.6876  1.2050
42193SOL    HW230942   0.164   1.510  10.660 -1.8072 -0.3076  0.3380
42194SOL     OW30943   4.191   0.861   4.737 -0.0925  0.0796  0.4600
42194SOL    HW130944   4.213   0.868   4.644 -0.9857  1.9611  0.3343
42194SOL    HW230945   4.199   0.950   4.770 -0.9276 -0.3568  1.9246
42195SOL     OW30946   7.678   7.774   5.477  0.3101 -0.3475 -0.2007
42195SOL    HW130947   7.730   7.712   5.426  2.5943  1.4278 -0.2289
42195SOL    HW230948   7.678   7.740   5.566  0.1450 -1.1842 -0.5158
42196SOL     OW30949   4.859   1.005  11.054 -0.0877 -0.0263  0.2555
42196SOL    HW130950   4.940   0.999  11.105 -0.3710  1.2650  0.8938
42196SOL    HW230951   4.864   1.090  11.010 -1.9100  0.9498  1.7870
42197SOL     OW30952   7.018   8.621   4.220 -1.0167  0.7190  0.1936
42197SOL    HW130953   6.961   8.552   4.255 -0.6863  0.6278  0.5559
42197SOL    HW230954   7.042   8.674   4.296  1.3713 -0.6753  0.5200
42198SOL     OW30955   7.452   1.323   1.165  0.2685  0.7434  0.3346
42198SOL    HW130956   7.473   1.401   1.215 -0.6201 -0.0713  2.0526
42198SOL    HW230957   7.537   1.283   1.146  0.6923  1.8035 -0.0678
42199SOL     OW30958   5.101  10.736   8.821  0.1658 -0.0660  0.0940
42199SOL    HW130959   5.162  10.752   8.893  2.4775  1.3396 -2.0456
42199SOL    HW230960   5.075  10.823   8.792 -0.8043 -0.6045 -0.7265
42200SOL     OW30961   3.996   9.928  10.845  0.2598  0.4925 -0.2232
42200SOL    HW130962   3.998   9.858  10.910 -1.0935  1.1766  0.5889
42200SOL    HW230963   4.011   9.883  10.762  0.2193 -0.6537  0.3639
42201SOL     OW30964   8.420  10.880   2.667 -0.1257 -0.4036 -0.1008
42201SOL    HW130965   8.398  10.833   2.748  0.9651  0.1977  0.5743
42201SOL    HW230966   8.510  10.910   2.681 -1.2298  3.3170  0.2469
42202SOL     OW30967  10.861   6.086   3.502 -0.2745 -0.4670  0.6114
42202SOL    HW130968  10.850   6.030   3.580  1.1505 -0.8661  0.5529
42202SOL    HW230969  10.898   6.167   3.537 -2.7371  0.6824  0.7535
42203SOL     OW30970   5.578   9.207   3.814  0.2067  0.1996 -0.0323
42203SOL    HW130971   5.524   9.278   3.779  0.1169 -0.8106 -2.1317
42203SOL    HW230972   5.667   9.242   3.814  0.2564  0.1463 -1.6776
42204SOL     OW30973   5.849   5.639   7.657 -0.0052 -0.2887 -0.4701
42204SOL    HW130974   5.912   5.711   7.660  0.2942 -0.5736  2.4922
42204SOL    HW230975   5.763   5.681   7.664  0.2314 -0.1466  3.8141
42205SOL     OW30976   0.664   2.999   1.702  0.0490 -0.5083  0.0670
42205SOL    HW130977   0.577   3.031   1.728 -0.7680 -1.4252 -1.3782
42205SOL    HW230978   0.711   3.077   1.673 -0.8651 -0.2116 -0.6511
42206SOL     OW30979   5.054   1.097   9.931 -0.3587  0.4556  0.1960
42206SOL    HW130980   5.062   1.025   9.994 -2.3885  0.6052  0.6703
42206SOL    HW230981   5.076   1.175   9.982  0.0591  0.3663  0.1572
42207SOL     OW30982   1.478   7.971   0.026  0.1319  0.0016 -0.6863
42207SOL    HW130983   1.528   8.016  -0.042 -0.1172  0.6749 -0.4335
42207SOL    HW230984   1.543   7.936   0.086  0.4393 -1.8600 -2.0094
42208SOL     OW30985   0.729   4.411   8.729  0.1693 -0.0647 -0.7819
42208SOL    HW130986   0.809   4.435   8.775 -0.1661  0.5430 -0.5040
42208SOL    HW230987   0.745   4.433   8.638  0.3875 -0.1150 -0.7543
42209SOL     OW30988   5.722   8.311   8.435  0.7119  0.2834  0.8730
42209SOL    HW130989   5.649   8.368   8.460  0.5464 -0.1601  1.4205
42209SOL    HW230990   5.758   8.279   8.518  1.2262  0.1197  0.5916
42210SOL     OW30991   2.166   6.855   1.468 -0.0869 -0.1813 -0.0961
42210SOL    HW130992   2.192   6.893   1.552  0.4942 -0.4206 -0.1638
42210SOL    HW230993   2.091   6.906   1.440  0.6398  0.8753 -0.1554
42211SOL     OW30994   1.314  10.111   2.289  0.1228  0.3440 -0.5659
42211SOL    HW130995   1.275  10.197   2.274  0.5976  0.6961  0.2097
42211SOL    HW230996   1.298  10.063   2.207 -0.1997  1.1396 -0.9752
42212SOL     OW30997   1.092   5.893  10.094 -0.3844  0.0974  0.1600
42212SOL    HW130998   1.042   5.970  10.122 -0.1639  0.7173 -1.0722
42212SOL    HW230999   1.109   5.845  10.175  1.7451  2.6825  1.4211
42213SOL     OW31000   8.201   0.915   6.002 -0.5593  0.2597  0.3122
42213SOL    HW131001   8.187   0.956   5.917  0.5400 -1.2586 -0.6203
42213SOL    HW231002   8.269   0.968   6.043 -0.2034  0.2641 -0.2735
42214SOL     OW31003   1.616   1.396   7.950  0.0344 -0.0149 -0.3503
42214SOL    HW131004   1.680   1.348   8.004  0.9457  0.4093 -1.0259
42214SOL    HW231005   1.657   1.402   7.864 -1.5784 -1.0337 -1.2416
42215SOL     OW31006   5.496   4.379   1.561  0.2269  0.0866  0.4419
42215SOL    HW131007   5.417   4.411   1.605  0.1982  0.7828 -0.0955
42215SOL    HW231008   5.466   4.306   1.508 -0.1283  0.5442 -0.0007
42216SOL     OW31009  10.592   2.126   6.833  0.3873  0.0364 -0.2232
42216SOL    HW131010  10.543   2.204   6.860  1.2916  0.3530  0.5711
42216SOL    HW231011  10.683   2.156   6.827  0.7536 -0.9717  0.1491
42217SOL     OW31012  10.610   1.773   2.547  0.2070  0.3278 -0.3418
42217SOL    HW131013  10.603   1.860   2.508  0.1277  0.6280  0.3318
42217SOL    HW231014  10.593   1.787   2.640  3.6534  0.1844  0.4396
42218SOL     OW31015   7.770   7.017   5.317  0.2727  0.0984 -0.0833
42218SOL    HW131016   7.762   6.993   5.224  2.4055 -0.3839 -0.1958
42218SOL    HW231017   7.778   6.934   5.363 -0.9808  0.3317  0.5741
42219SOL     OW31018   2.064  10.086   2.129  0.1264  0.4303  0.0859
42219SOL    HW131019   2.132  10.021   2.109  0.4478  0.8976 -0.3686
42219SOL    HW231020   2.077  10.155   2.064 -1.1584  0.2606 -0.3953
42220SOL     OW31021   1.950   1.222   3.432 -0.0153 -0.0875  0.5174
42220SOL    HW131022   1.905   1.154   3.481 -0.0516 -0.0564  0.5271
42220SOL    HW231023   1.971   1.182   3.348  1.8632 -0.8333  1.2817
42221SOL     OW31024   5.233   2.837   1.534  0.2490 -0.3995  0.0717
42221SOL    HW131025   5.141   2.861   1.526  0.5044  0.3366 -0.8290
42221SOL    HW231026   5.278   2.890   1.468  1.3692 -0.4563  0.7503
42222SOL     OW31027   0.559   8.226   6.397  0.5634 -0.4823 -0.0030
42222SOL    HW131028   0.645   8.211   6.358  0.7132 -0.3527  0.2705
42222SOL    HW231029   0.499   8.225   6.323  0.5183 -2.6291 -0.0044
42223SOL     OW31030   9.315   6.968   8.327 -0.0915 -0.3848 -0.1135
42223SOL    HW131031   9.295   6.974   8.234  0.5544 -1.7103 -0.3603
42223SOL    HW231032   9.252   6.904   8.360 -0.0681 -0.2033  0.2848
42224SOL     OW31033   4.926   3.051   4.513 -0.5975 -0.4723 -0.4132
42224SOL    HW131034   4.878   3.022   4.435 -1.2112 -2.3737  0.6117
42224SOL    HW231035   4.882   3.007   4.586  1.1614 -0.2783  0.8190
42225SOL     OW31036   5.048   0.327  10.743 -0.1518  0.2624  0.3439
42225SOL    HW131037   5.127   0.311  10.794 -0.5212 -0.2901  0.7564
42225SOL    HW231038   5.050   0.421  10.726  0.5940  0.2561  0.3421
42226SOL     OW31039   3.731   3.601   4.914  0.6307 -0.1235 -0.0437
42226SOL    HW131040   3.772   3.688   4.911 -2.1130  1.2573 -1.3818
42226SOL    HW231041   3.761   3.558   4.835  2.2160 -0.5806  0.7537
42227SOL     OW31042  10.651  10.229   2.800 -0.3653  0.4333 -0.2025
42227SOL    HW131043  10.607  10.314   2.801  1.3506  1.3565 -0.3243
42227SOL    HW231044  10.641  10.196   2.889 -1.3469  0.5820 -0.2459
42228SOL     OW31045   0.148   0.653   5.455  0.6276  0.2702  0.3803
42228SOL    HW131046   0.112   0.676   5.370  0.7220  0.4604  0.3900
42228SOL    HW231047   0.186   0.735   5.487 -1.2336  0.7452  1.5263
42229SOL     OW31048   4.767   2.953   5.415 -0.3580 -0.0829  0.0787
42229SOL    HW131049   4.748   3.046   5.423  1.0883  0.4223 -1.7126
42229SOL    HW231050   4.695   2.919   5.361  1.2795  0.9633 -3.0272
42230SOL     OW31051   9.870   3.829   7.440 -0.1763 -0.0405  0.2536
42230SOL    HW131052   9.824   3.913   7.445  0.8856  0.6274 -0.7230
42230SOL    HW231053   9.846   3.784   7.521 -3.2130 -0.1122 -0.5492
42231SOL     OW31054   7.755   7.055   6.754  0.2708 -0.3753 -0.4071
42231SOL    HW131055   7.713   7.035   6.670 -1.7758 -0.4778  0.5823
42231SOL    HW231056   7.749   6.974   6.804  1.9972 -0.4828 -0.3277
42232SOL     OW31057   4.956   9.936   6.532  0.7020 -0.7658 -0.2440
42232SOL    HW131058   4.978   9.948   6.440 -0.4886 -0.1061 -0.4601
42232SOL    HW231059   4.861   9.943   6.535  0.8540  2.7593  1.4999
42233SOL     OW31060  10.120   8.902   3.465 -0.4197  0.1317 -0.1993
42233SOL    HW131061  10.142   8.897   3.558 -0.8786  2.6440  0.1231
42233SOL    HW231062  10.026   8.921   3.464 -0.6824 -1.0915 -1.2476
42234SOL     OW31063   9.755   8.887   7.796 -0.2391 -0.5633 -0.4264
42234SOL    HW131064   9.749   8.938   7.877 -1.5307 -0.5811 -0.4868
42234SOL    HW231065   9.720   8.801   7.819  2.3044 -1.6455 -0.2131
42235SOL     OW31066   4.048   0.779   1.943 -0.0487 -0.0259 -0.4966
42235SOL    HW131067   4.109   0.792   2.015  0.7345 -0.9775 -0.9737
42235SOL    HW231068   4.094   0.721   1.882 -1.5258 -0.9945 -0.7412
42236SOL     OW31069   0.417   5.215   1.942 -0.2465  0.4881 -0.1517
42236SOL    HW131070   0.347   5.173   1.992 -0.3921  0.0159 -0.7340
42236SOL    HW231071   0.423   5.304   1.977 -1.0965  0.5102 -0.0564
42237SOL     OW31072   7.737   1.082   8.009 -0.0177 -0.5279  0.5999
42237SOL    HW131073   7.653   1.079   8.055 -0.0103  1.1425  0.7620
42237SOL    HW231074   7.802   1.096   8.078  0.2429 -0.3605  0.3259
42238SOL     OW31075   0.393   2.254  10.093  0.3280  0.0752 -0.2023
42238SOL    HW131076   0.452   2.293  10.028  0.7717 -1.4554 -0.7584
42238SOL    HW231077   0.322   2.317  10.102  1.8368  1.8035  0.1911
42239SOL     OW31078   1.424  11.031   7.003 -0.1377  0.7131  0.0495
42239SOL    HW131079   1.518  11.021   6.986 -0.2238  0.7484 -0.4696
42239SOL    HW231080   1.382  11.001   6.922 -0.5045  3.1600 -0.7336
42240SOL     OW31081  11.034   6.038  10.577  0.6904  0.0246  0.3919
42240SOL    HW131082  11.036   6.093  10.655 -2.7519 -0.8650  1.3142
42240SOL    HW231083  11.011   6.097  10.506 -1.0201  0.1520  1.0105
42241SOL     OW31084   2.666   8.935  10.583 -0.8629 -0.4275 -0.0256
42241SOL    HW131085   2.730   8.946  10.653 -2.7505 -0.3067  1.8005
42241SOL    HW231086   2.702   8.865  10.528  0.6135 -0.6546  1.1710
42242SOL     OW31087   8.405   8.683   8.785  0.0835  0.1670 -0.3960
42242SOL    HW131088   8.442   8.717   8.866  0.1080 -1.1309  0.1566
42242SOL    HW231089   8.472   8.623   8.751 -1.2121 -1.7884  0.3326
42243SOL     OW31090   3.400   5.822   9.457  0.4105 -0.3052  0.5602
42243SOL    HW131091   3.399   5.849   9.549  2.6339  0.9935  0.2529
42243SOL    HW231092   3.349   5.741   9.456 -0.5750  0.2020  2.7301
42244SOL     OW31093   2.914   6.261   4.056 -0.0655 -0.4404 -0.2559
42244SOL    HW131094   2.941   6.180   4.013 -0.0348 -0.7618  0.3670
42244SOL    HW231095   2.852   6.233   4.123  1.1273 -0.1049  1.0123
42245SOL     OW31096   6.879   9.916   8.225 -0.2618  0.1779  0.5438
42245SOL    HW131097   6.931   9.915   8.305 -0.7826  0.8104  0.9017
42245SOL    HW231098   6.914   9.989   8.173 -0.6224  0.4621  0.6871
42246SOL     OW31099   1.955   2.216   1.275  0.6703  0.0246  0.2269
42246SOL    HW131100   1.950   2.122   1.291  4.3741 -0.4957 -0.8858
42246SOL    HW231101   1.950   2.224   1.180  0.3963  0.9762  0.3149
42247SOL     OW31102   0.224   2.413   2.481  0.3148 -0.0925 -0.4818
42247SOL    HW131103   0.298   2.404   2.541 -1.3009  1.0569  1.8645
42247SOL    HW231104   0.195   2.324   2.464  2.2542 -0.5677 -1.5606
42248SOL     OW31105   4.854   4.979   7.546  0.1031  0.5315  0.1792
42248SOL    HW131106   4.770   4.960   7.589  0.4696  0.5415  0.9006
42248SOL    HW231107   4.841   4.949   7.456 -0.1910 -0.8255  0.6471
42249SOL     OW31108   3.634   1.045   1.654 -0.1590  0.0566 -0.0854
42249SOL    HW131109   3.666   1.134   1.640  0.3257 -0.0823  0.1205
42249SOL    HW231110   3.591   1.022   1.572 -2.4168  1.3447  0.6514
42250SOL     OW31111   9.262   8.573   5.015 -0.0238 -0.5556 -0.2615
42250SOL    HW131112   9.215   8.501   5.058 -0.1081  0.7035  1.8898
42250SOL    HW231113   9.260   8.644   5.079  2.1879  0.5544 -1.3340
42251SOL     OW31114   6.357   6.840   1.486 -0.6997 -0.1609 -0.6763
42251SOL    HW131115   6.318   6.927   1.482 -0.6804 -0.0945  0.4491
42251SOL    HW231116   6.451   6.855   1.480 -0.7367 -0.1788 -1.3931
42252SOL     OW31117   1.770   1.688   3.053 -0.2482 -0.2972 -0.0905
42252SOL    HW131118   1.746   1.604   3.092  0.6523 -1.2152 -1.3811
42252SOL    HW231119   1.856   1.708   3.091  0.5566 -1.1140 -1.3800
42253SOL     OW31120   3.840  10.480   0.414 -0.4469 -1.1033 -0.5500
42253SOL    HW131121   3.878  10.395   0.437 -0.7124 -0.7207  1.4521
42253SOL    HW231122   3.834  10.527   0.497 -0.4072  0.8564 -1.5925
42254SOL     OW31123   1.355  10.557   8.006 -0.4013 -0.1584 -0.4603
42254SOL    HW131124   1.448  10.548   8.026 -0.7747 -0.6790  1.1504
42254SOL    HW231125   1.313  10.486   8.055 -1.6816  0.2271 -0.9620
42255SOL     OW31126   9.081  11.095  10.479  0.6111 -0.1643 -0.2315
42255SOL    HW131127   9.060  11.004  10.501 -0.0977  0.1395  0.3979
42255SOL    HW231128   9.130  11.089  10.397  1.8440 -1.2255  0.5339
42256SOL     OW31129  10.578   2.050   2.466 -0.6708  0.7071 -0.0710
42256SOL    HW131130  10.599   2.058   2.559  0.3335 -0.4322 -0.1731
42256SOL    HW231131  10.642   2.105   2.422  0.9470 -1.2026 -0.2516
42257SOL     OW31132   4.459   7.300   7.838 -0.7318 -0.4936 -0.2530
42257SOL    HW131133   4.514   7.300   7.760 -0.0432  2.6691  0.1201
42257SOL    HW231134   4.509   7.248   7.902  0.6091  0.1928 -0.7087
42258SOL     OW31135   1.448   2.832   2.118  0.4464 -0.1895  0.0940
42258SOL    HW131136   1.485   2.920   2.123 -0.0435 -0.0485  2.2321
42258SOL    HW231137   1.517   2.780   2.077  1.6256  0.7708  0.7893
42259SOL     OW31138   6.312   3.179   9.089 -0.0270 -0.1271 -0.4715
42259SOL    HW131139   6.382   3.242   9.071 -0.5159  0.2578 -1.0787
42259SOL    HW231140   6.231   3.228   9.074 -0.4196 -0.9274 -1.0453
42260SOL     OW31141  10.318   1.372   9.941 -0.6932  0.2524  0.0850
42260SOL    HW131142  10.365   1.302   9.986  0.7056  0.6696 -0.6656
42260SOL    HW231143  10.337   1.451   9.991  1.6566  0.8930 -1.6459
42261SOL     OW31144   2.160   9.711   5.777 -0.1088  0.0163  0.7791
42261SOL    HW131145   2.170   9.708   5.872 -0.3622  2.0950  0.9101
42261SOL    HW231146   2.248   9.724   5.743  0.5750 -4.1855  0.3955
42262SOL     OW31147   3.132   5.125   6.823  0.1010  0.0163  0.0760
42262SOL    HW131148   3.094   5.201   6.777  0.2183  0.3071  0.4530
42262SOL    HW231149   3.191   5.086   6.759  1.4078  1.2942  0.4518
42263SOL     OW31150   7.197   9.047   4.864 -0.0437  0.2089  0.2735
42263SOL    HW131151   7.229   9.126   4.820 -0.5915  1.0861  1.4008
42263SOL    HW231152   7.173   9.076   4.952 -2.9648 -0.6050 -0.1505
42264SOL     OW31153   7.372   0.176  10.710 -0.8189  0.9121 -0.0868
42264SOL    HW131154   7.429   0.229  10.766 -0.0624 -0.8405  0.8642
42264SOL    HW231155   7.297   0.233  10.692 -0.0562  2.2874  0.9074
42265SOL     OW31156   8.264   9.102   0.762  0.3805 -0.5219  0.2341
42265SOL    HW131157   8.227   9.157   0.692 -0.0459  0.3348  1.1118
42265SOL    HW231158   8.359   9.108   0.748  0.2936 -0.6965 -0.5133
42266SOL     OW31159   4.368   6.745   5.164  0.2851  0.0441 -0.8555
42266SOL    HW131160   4.279   6.735   5.130 -0.3155  1.8530  0.0444
42266SOL    HW231161   4.416   6.788   5.093  0.4579 -0.9445 -1.3466
42267SOL     OW31162   2.502   6.103   3.524 -0.1464  0.2241 -0.3445
42267SOL    HW131163   2.480   6.196   3.526 -0.8105  0.0786 -0.3283
42267SOL    HW231164   2.504   6.077   3.616  3.5304  0.9557 -0.0814
42268SOL     OW31165   7.694   2.669   7.864  0.8039  0.0672  0.0820
42268SOL    HW131166   7.648   2.595   7.826 -0.4959  0.3858  0.9804
42268SOL    HW231167   7.664   2.745   7.813  0.6809  0.2235  0.3860
42269SOL     OW31168   6.802   9.504   2.251  0.1499 -0.0857  0.2192
42269SOL    HW131169   6.815   9.510   2.346  0.5845 -0.8717  0.2162
42269SOL    HW231170   6.710   9.480   2.241 -0.6392  2.5085  0.3349
42270SOL     OW31171   4.473   6.107   6.219 -0.5431 -0.0561  0.0942
42270SOL    HW131172   4.464   6.035   6.157 -1.6801 -0.6756  0.9431
42270SOL    HW231173   4.423   6.179   6.181 -0.1419  0.0038 -0.3273
42271SOL     OW31174   2.655   5.331   7.064  0.1213  0.2116 -0.6011
42271SOL    HW131175   2.693   5.376   7.140  2.1220 -0.2214 -1.2893
42271SOL    HW231176   2.561   5.346   7.072  0.2436  0.0701  2.0339
42272SOL     OW31177   7.943   5.793   2.450  0.1729 -0.8337  0.6957
42272SOL    HW131178   7.919   5.886   2.443 -1.8822 -1.2608  1.4579
42272SOL    HW231179   7.897   5.751   2.378  0.3452 -1.3971  0.9128
42273SOL     OW31180   0.851   3.076  10.644 -0.4252  0.2487  0.5851
42273SOL    HW131181   0.788   3.114  10.705 -0.1820  0.6348  0.5968
42273SOL    HW231182   0.911   3.148  10.623 -0.1681 -0.0345  0.3389
42274SOL     OW31183   9.427  11.059   7.840  0.7044 -0.1099  0.1102
42274SOL    HW131184   9.514  11.051   7.801  0.5764 -1.1222 -0.0013
42274SOL    HW231185   9.419  10.982   7.896 -0.0704  0.0370  0.2143
42275SOL     OW31186  10.699  10.623   9.097 -0.1592 -0.3923  0.4301
42275SOL    HW131187  10.707  10.578   9.013 -1.0659 -1.1024  0.7163
42275SOL    HW231188  10.616  10.592   9.134 -0.4274  0.9203  0.9896
42276SOL     OW31189   9.318   8.092   4.036 -0.6080  0.3390  0.1998
42276SOL    HW131190   9.401   8.044   4.035 -0.8808 -0.2369  2.0488
42276SOL    HW231191   9.319   8.142   3.954  2.2880  1.5465  0.8332
42277SOL     OW31192   5.636   3.273   3.361 -0.0164  0.0583 -0.3291
42277SOL    HW131193   5.699   3.218   3.315 -0.4016 -0.7018  0.0361
42277SOL    HW231194   5.688   3.346   3.395  0.5890 -0.3297 -0.4064
42278SOL     OW31195   8.583   9.135   9.461 -0.3866 -0.3829  0.1925
42278SOL    HW131196   8.507   9.154   9.406 -1.0130 -1.1312  0.7796
42278SOL    HW231197   8.545   9.102   9.543  0.4987  1.1483  1.2644
42279SOL     OW31198   0.782   2.216   8.498  0.2502 -0.0055 -0.1657
42279SOL    HW131199   0.726   2.173   8.564 -0.2996 -0.2803 -0.7981
42279SOL    HW231200   0.780   2.308   8.522  0.0653 -0.1008  0.2101
42280SOL     OW31201  10.027   2.892  10.248  0.1423  0.0273  0.2680
42280SOL    HW131202  10.001   2.971  10.201  0.6587  1.6896  2.5995
42280SOL    HW231203   9.986   2.820  10.200 -1.4067  1.8019 -1.1867
42281SOL     OW31204   2.180   1.199   3.172  0.8143  0.2638  0.0617
42281SOL    HW131205   2.152   1.121   3.219 -0.7930  0.5913 -0.3003
42281SOL    HW231206   2.234   1.165   3.100  0.8995 -0.4374  0.4476
42282SOL     OW31207   9.459   2.099   9.703  0.0601 -0.4152  0.1115
42282SOL    HW131208   9.396   2.150   9.755  0.8103 -1.4061  2.0962
42282SOL    HW231209   9.455   2.139   9.616  0.7091  3.1536  1.5189
42283SOL     OW31210   9.297   8.185   0.308  0.2189 -0.2984  0.2236
42283SOL    HW131211   9.210   8.192   0.347 -0.3489  2.1291 -1.2478
42283SOL    HW231212   9.340   8.268   0.328  2.4822 -1.6555  1.3880
42284SOL     OW31213   6.895   4.527   5.618 -0.5943 -0.1328 -0.4018
42284SOL    HW131214   6.847   4.610   5.609 -2.0153 -0.4143  3.0384
42284SOL    HW231215   6.830   4.460   5.596  0.6247 -0.4530 -3.4330
42285SOL     OW31216   0.250   3.448   3.848 -0.1870 -0.0496 -0.0032
42285SOL    HW131217   0.170   3.414   3.888  0.3425 -0.3753  0.7826
42285SOL    HW231218   0.306   3.371   3.837  0.3801  0.3173  0.2974
42286SOL     OW31219   9.385   5.155   4.299 -0.6241  0.5078  0.4889
42286SOL    HW131220   9.409   5.215   4.229  4.3683 -0.0542  1.3643
42286SOL    HW231221   9.316   5.201   4.348 -0.6217  3.1507 -1.7518
42287SOL     OW31222   4.713   6.371   4.167  0.5858  0.4219  0.2164
42287SOL    HW131223   4.687   6.463   4.173 -0.1421  0.2203  0.1972
42287SOL    HW231224   4.795   6.367   4.216 -0.0838  0.8121  1.4147
42288SOL     OW31225   5.611   2.675   4.465 -0.1977  0.3795 -0.0537
42288SOL    HW131226   5.649   2.622   4.535 -0.6943  0.1771  0.0710
42288SOL    HW231227   5.672   2.748   4.454  0.2215  0.0628  0.1385
42289SOL     OW31228   4.727  11.068   1.665 -0.4417  0.6254 -0.3092
42289SOL    HW131229   4.747  11.056   1.757 -1.5855  0.7121 -0.0312
42289SOL    HW231230   4.705  10.981   1.633  1.5565  0.3016 -0.9374
42290SOL     OW31231   5.503   6.931   1.528  0.6479  0.1527  0.1206
42290SOL    HW131232   5.470   6.936   1.617 -0.2788 -0.9108 -0.1529
42290SOL    HW231233   5.426   6.917   1.474  1.3219 -0.3663 -0.7378
42291SOL     OW31234  10.901   3.380  10.102 -0.3135 -0.2165 -0.5771
42291SOL    HW131235  10.950   3.462  10.107 -2.6515  1.2774 -0.1033
42291SOL    HW231236  10.929   3.340  10.019  1.5165  0.5967 -0.4022
42292SOL     OW31237   2.622   4.876   9.092  0.4359  0.3730 -0.2656
42292SOL    HW131238   2.592   4.863   9.002  0.7565  2.1742 -0.6608
42292SOL    HW231239   2.716   4.890   9.084  0.9611 -2.0534  0.6626
42293SOL     OW31240  10.021   5.498   0.816 -0.2428 -0.2576  0.9563
42293SOL    HW131241  10.111   5.524   0.796 -0.6999  0.5458 -0.1669
42293SOL    HW231242  10.015   5.406   0.789 -0.2479  0.2074 -0.6914
42294SOL     OW31243   6.950   0.247   8.683  0.2077 -0.3248 -0.1620
42294SOL    HW131244   6.938   0.294   8.600 -1.8212 -1.5538 -0.6253
42294SOL    HW231245   6.998   0.309   8.739  0.9010  0.8317 -1.9580
42295SOL     OW31246  10.363   4.694   3.409  0.0942  0.1966  0.4618
42295SOL    HW131247  10.325   4.736   3.332  0.7393 -1.1608 -0.6443
42295SOL    HW231248  10.430   4.754   3.440 -0.4429  0.9304  0.2101
42296SOL     OW31249   3.159   6.935   3.991 -0.2638 -0.1560  0.2937
42296SOL    HW131250   3.096   6.978   3.933  0.6572  0.6592 -0.1318
42296SOL    HW231251   3.110   6.920   4.072 -1.5181 -1.1677 -0.6095
42297SOL     OW31252   8.284   8.116   0.566  0.0498 -0.8155 -0.1598
42297SOL    HW131253   8.303   8.159   0.483 -0.6890 -0.6861 -0.2687
42297SOL    HW231254   8.364   8.126   0.617  0.0393  0.3061 -0.3507
42298SOL     OW31255   5.087   4.381   8.718  0.0438 -0.3948  0.4182
42298SOL    HW131256   5.179   4.387   8.691  0.1900 -0.9543  0.7726
42298SOL    HW231257   5.077   4.450   8.783 -0.1616  0.5872 -0.6306
42299SOL     OW31258  10.525   8.890   2.489  0.1266 -0.3023 -0.3625
42299SOL    HW131259  10.499   8.979   2.514 -0.4701 -0.5346 -0.1472
42299SOL    HW231260  10.621   8.891   2.493  0.0906 -0.2532  1.6798
42300SOL     OW31261   0.435   0.638   0.540 -0.0185  0.0579 -0.3431
42300SOL    HW131262   0.414   0.588   0.461  2.8447 -3.0736  0.6590
42300SOL    HW231263   0.528   0.660   0.530  0.3263 -0.1147  1.9759
42301SOL     OW31264   8.770   0.109  10.249  0.3206 -0.0400  0.4637
42301SOL    HW131265   8.739   0.044  10.312  0.6418 -1.3017 -0.6467
42301SOL    HW231266   8.789   0.186  10.302 -1.0490 -0.4960  1.6816
42302SOL     OW31267   4.104   6.152   2.565 -0.3082  0.1583  0.5490
42302SOL    HW131268   4.022   6.104   2.572  0.1271 -0.8260 -0.8195
42302SOL    HW231269   4.166   6.101   2.617  0.6217 -1.9583 -2.3547
42303SOL     OW31270  10.908   6.172   7.492  0.2703 -0.3713  0.1782
42303SOL    HW131271  10.853   6.249   7.506 -1.0477 -1.0342 -1.1449
42303SOL    HW231272  10.969   6.198   7.423  0.3591 -0.2596  0.2982
42304SOL     OW31273   0.594   9.976   7.206  0.2542 -0.6242  0.5245
42304SOL    HW131274   0.583   9.936   7.119  0.7382 -0.1684  0.2441
42304SOL    HW231275   0.682  10.013   7.203 -0.7661  1.9334  0.1655
42305SOL     OW31276   5.679  10.401   5.293  0.5482  0.0886 -0.5486
42305SOL    HW131277   5.733  10.481   5.294  1.1978 -0.3427  0.3203
42305SOL    HW231278   5.589  10.434   5.286  0.6927  1.0002  1.2208
42306SOL     OW31279   3.624   4.982   2.153 -0.0576 -1.1923  0.1880
42306SOL    HW131280   3.682   5.033   2.096 -1.0225 -0.5808 -0.2625
42306SOL    HW231281   3.573   4.928   2.093  0.8498 -2.6253  0.6478
42307SOL     OW31282   7.747   3.202   8.217 -0.1174 -0.1024 -0.6874
42307SOL    HW131283   7.743   3.119   8.264  3.5826 -1.1036 -1.7657
42307SOL    HW231284   7.794   3.261   8.276 -3.2150  1.5618  0.3135
42308SOL     OW31285  10.570   7.608   4.243  0.4355  0.0188  0.2449
42308SOL    HW131286  10.476   7.593   4.254  0.4848 -0.1065  0.5020
42308SOL    HW231287  10.576   7.692   4.196  0.2056  0.3180  0.7463
42309SOL     OW31288   9.112   1.697   7.587 -0.7427 -0.4549  0.1491
42309SOL    HW131289   9.154   1.760   7.529 -0.5060  0.7555  1.5640
42309SOL    HW231290   9.028   1.678   7.546 -0.3348 -0.0841 -0.8686
42310SOL     OW31291   1.935   4.617   3.778 -0.1780 -0.5644 -0.3113
42310SOL    HW131292   1.989   4.543   3.805  0.2852 -0.5056 -1.0466
42310SOL    HW231293   1.892   4.587   3.698  1.6122  0.6269 -1.8300
42311SOL     OW31294   8.129   9.054  10.195 -0.1407 -0.2575  0.5932
42311SOL    HW131295   8.044   9.042  10.151  0.1551 -4.1575  0.6932
42311SOL    HW231296   8.109   9.040  10.288  0.5537 -1.0223  0.6359
42312SOL     OW31297  10.870  10.967   6.996  0.2080  0.1742  0.0785
42312SOL    HW131298  10.777  10.987   6.983  0.7627  1.1157 -3.3918
42312SOL    HW231299  10.874  10.871   6.993 -0.6426  0.1226  0.2534
42313SOL     OW31300   4.628  10.339   8.829 -0.0120  0.2653  0.0925
42313SOL    HW131301   4.600  10.406   8.891  0.5151  0.4736  0.1131
42313SOL    HW231302   4.548  10.313   8.784 -0.4256 -0.0005  0.9625
42314SOL     OW31303   9.347   1.977   3.345 -0.0576  0.0588  0.2418
42314SOL    HW131304   9.394   2.036   3.404  1.9092 -1.6375  0.4803
42314SOL    HW231305   9.309   2.035   3.279 -0.4224  1.7961  1.8902
42315SOL     OW31306   7.056   3.924   7.721  0.1872  0.3125 -0.1326
42315SOL    HW131307   7.096   3.984   7.784 -0.6581  1.6367 -0.7982
42315SOL    HW231308   7.111   3.931   7.643 -0.6751  1.3080 -0.6785
42316SOL     OW31309   8.933  10.142   8.170 -0.9004 -0.5786 -0.2505
42316SOL    HW131310   9.019  10.140   8.127 -0.1334  0.9926  1.0873
42316SOL    HW231311   8.925  10.056   8.211 -1.4905 -1.9959 -3.0775
42317SOL     OW31312   9.040   8.595   8.258  0.0515  0.0101  0.1150
42317SOL    HW131313   9.001   8.514   8.291 -0.2126  0.7381  1.6567
42317SOL    HW231314   9.081   8.569   8.175  0.5026 -1.8270  0.8594
42318SOL     OW31315   4.960   3.593   6.786 -0.1988 -0.2273  0.2503
42318SOL    HW131316   4.937   3.684   6.803 -0.7221 -0.4703  0.8902
42318SOL    HW231317   4.877   3.546   6.787 -0.1453 -0.4430 -1.9800
42319SOL     OW31318  10.252  10.761   9.773  0.1040 -0.0940 -0.3784
42319SOL    HW131319  10.178  10.822   9.769 -1.0565 -0.9973  3.3403
42319SOL    HW231320  10.221  10.683   9.728  0.0343  0.5882 -1.5522
42320SOL     OW31321   8.119  10.460   4.073  1.0591 -0.2612  0.5827
42320SOL    HW131322   8.037  10.492   4.035  1.5395  1.7913  1.1813
42320SOL    HW231323   8.122  10.368   4.047  1.1020  0.7799 -3.9320
42321SOL     OW31324   6.429   1.575   5.840 -0.0668  0.0610 -0.5273
42321SOL    HW131325   6.389   1.603   5.922 -0.8669 -0.5891 -0.6844
42321SOL    HW231326   6.366   1.514   5.802  0.6753 -0.2941 -1.2204
42322SOL     OW31327   4.684   8.689   9.883 -0.2436 -0.1823  0.2120
42322SOL    HW131328   4.745   8.615   9.876  1.7515  1.4263 -0.4986
42322SOL    HW231329   4.646   8.696   9.795 -0.2693 -0.2270  0.2191
42323SOL     OW31330   4.953   0.308   8.633  0.4146  0.6382  0.2537
42323SOL    HW131331   5.002   0.373   8.683 -1.1704  1.0157  1.4229
42323SOL    HW231332   4.919   0.357   8.558  1.3951  0.4891 -0.2995
42324SOL     OW31333   1.789   2.178   6.304 -0.3088 -0.8224  0.2964
42324SOL    HW131334   1.832   2.111   6.251  2.2705 -0.5409  1.9200
42324SOL    HW231335   1.860   2.229   6.341 -2.1608  1.6430  0.6814
42325SOL     OW31336  10.921   1.447  10.703  0.8106 -0.6713 -0.2816
42325SOL    HW131337  10.990   1.499  10.744  0.7968  0.1312 -1.2494
42325SOL    HW231338  10.958   1.422  10.619  0.7944 -2.2023  0.1375
42326SOL     OW31339   8.418   7.373   9.102 -0.0976 -0.1136  0.5520
42326SOL    HW131340   8.323   7.364   9.093 -0.2984  2.0817 -0.0521
42326SOL    HW231341   8.454   7.335   9.022 -0.5279 -0.0449  0.3274
42327SOL     OW31342   6.562  11.086   0.956 -0.3509  0.7996 -0.1277
42327SOL    HW131343   6.491  11.078   1.021  0.0732 -0.3913  0.2134
42327SOL    HW231344   6.521  11.130   0.882 -1.1206  1.2589  0.5463
42328SOL     OW31345   5.980   9.887   7.461  0.3693  0.0002 -0.3449
42328SOL    HW131346   5.969   9.858   7.371 -2.0589  1.3317 -0.5564
42328SOL    HW231347   6.017   9.975   7.454  0.0547  0.1576 -0.0563
42329SOL     OW31348   7.640   0.717   5.851 -0.1004 -0.6540  0.1975
42329SOL    HW131349   7.668   0.626   5.862  1.9529 -0.2502 -1.1687
42329SOL    HW231350   7.682   0.765   5.922 -0.6994 -0.6643  0.5653
42330SOL     OW31351   8.501   7.238   1.724  0.1235 -0.7580 -0.7867
42330SOL    HW131352   8.490   7.303   1.794  0.2149 -1.6190  0.0517
42330SOL    HW231353   8.594   7.218   1.723  0.4979  0.7894 -2.6174
42331SOL     OW31354   5.496   5.458   9.571  0.5167 -0.0872 -0.4529
42331SOL    HW131355   5.456   5.544   9.586  0.1283 -0.4708  0.8249
42331SOL    HW231356   5.461   5.430   9.486  0.0621  0.6960 -0.5310
42332SOL     OW31357   5.148  10.103   1.082 -0.0678  0.3815 -0.0738
42332SOL    HW131358   5.152  10.199   1.088  0.1778  0.4248 -0.8804
42332SOL    HW231359   5.239  10.075   1.092 -0.1759  0.2093  0.4520
42333SOL     OW31360  10.444   2.593   9.735  0.0494 -0.2336 -0.4657
42333SOL    HW131361  10.423   2.544   9.814  1.0044 -1.7816 -1.1214
42333SOL    HW231362  10.360   2.625   9.703 -0.8152 -2.5884 -0.7047
42334SOL     OW31363   2.875   8.953   5.259  0.1827  0.5578  0.4145
42334SOL    HW131364   2.936   8.896   5.306  1.0266  0.7241 -0.4421
42334SOL    HW231365   2.896   9.041   5.291  0.1981  0.5884  0.3194
42335SOL     OW31366   8.484   9.166  10.282  0.2404 -0.3211 -0.4211
42335SOL    HW131367   8.446   9.227  10.219  0.2971  1.3842  1.1252
42335SOL    HW231368   8.413   9.147  10.343  1.2342  1.4147  1.4028
42336SOL     OW31369   2.493   7.989   0.355  0.2811  0.0933 -0.3582
42336SOL    HW131370   2.437   7.916   0.383  0.8235  0.6631  2.5262
42336SOL    HW231371   2.510   8.038   0.435  3.6278  0.8344 -1.3674
42337SOL     OW31372   8.867   9.536   6.138  0.2743  0.0404  0.3751
42337SOL    HW131373   8.902   9.621   6.165 -0.4710  0.4579  0.0679
42337SOL    HW231374   8.866   9.484   6.219  0.9296  0.2561  0.5218
42338SOL     OW31375   8.039  10.111   5.359 -0.0243 -0.3135  0.7890
42338SOL    HW131376   8.132  10.118   5.339  0.0082 -0.9077  0.6969
42338SOL    HW231377   7.996  10.129   5.275  0.0303 -0.5067  0.7170
42339SOL     OW31378   2.753   8.446   7.495 -0.1154 -0.4621  0.3874
42339SOL    HW131379   2.765   8.400   7.578  0.2576  0.2914  0.7564
42339SOL    HW231380   2.743   8.538   7.520 -0.9559 -0.3417 -0.3322
42340SOL     OW31381   3.521   3.923   7.024  0.8801  0.3296 -0.3202
42340SOL    HW131382   3.550   3.954   7.110  0.6411  2.1959 -0.8778
42340SOL    HW231383   3.430   3.897   7.037  0.5714  1.4429 -0.1906
42341SOL     OW31384   8.922   7.025   1.531  0.1674  0.1139 -0.2076
42341SOL    HW131385   8.839   7.017   1.482  0.9025  0.7672 -1.6289
42341SOL    HW231386   8.962   6.939   1.522 -1.8602 -1.4238  3.5103
42342SOL     OW31387   7.620   0.724   2.835 -0.5948 -0.5629 -0.5529
42342SOL    HW131388   7.589   0.656   2.775 -1.3400 -0.9717  0.2749
42342SOL    HW231389   7.669   0.677   2.901 -2.3924 -0.5372  0.8871
42343SOL     OW31390   4.170  10.718   8.145  0.4906  0.2440 -0.0886
42343SOL    HW131391   4.162  10.718   8.050  1.4928  1.6955 -0.1986
42343SOL    HW231392   4.086  10.754   8.176  0.0732 -0.4505 -0.4010
42344SOL     OW31393   3.371   0.897   3.682 -0.2253 -0.3095  0.0596
42344SOL    HW131394   3.379   0.992   3.674 -1.0298 -0.2586 -0.2381
42344SOL    HW231395   3.390   0.878   3.773 -1.1636  0.2686  0.3901
42345SOL     OW31396   7.626   3.667  10.630  0.2458  0.4736  0.1880
42345SOL    HW131397   7.710   3.714  10.637 -0.0716  0.8521  2.1482
42345SOL    HW231398   7.651   3.576  10.611  1.1178  0.5825  0.7495
42346SOL     OW31399   3.015   2.957   2.801 -0.2748  0.1989  0.1321
42346SOL    HW131400   3.030   2.961   2.895 -0.6943 -0.2836  0.2270
42346SOL    HW231401   3.081   2.896   2.768  0.0702  0.6059  0.0670
42347SOL     OW31402   8.884   6.909   0.061  0.2282  0.2109  0.0882
42347SOL    HW131403   8.911   6.865  -0.019  1.8657  1.0590  0.1251
42347SOL    HW231404   8.835   6.843   0.110  1.3489 -1.1057 -0.4929
42348SOL     OW31405   7.010   8.851   4.374  0.2115 -0.3769  0.3122
42348SOL    HW131406   7.084   8.884   4.323  0.1682 -1.0299 -0.1772
42348SOL    HW231407   7.044   8.847   4.464  0.3497  0.5842  0.3145
42349SOL     OW31408   8.143   9.808   0.795 -0.1644  0.7132  0.1068
42349SOL    HW131409   8.054   9.776   0.778 -0.1923  1.0885 -0.4691
42349SOL    HW231410   8.144   9.827   0.889 -1.0389  1.7339 -0.0677
42350SOL     OW31411   5.947   0.693   4.418 -0.4165  0.2937 -0.9493
42350SOL    HW131412   5.880   0.746   4.375 -0.9653  0.6901  0.3589
42350SOL    HW231413   5.923   0.602   4.396 -0.8211  0.4783 -1.2894
42351SOL     OW31414   7.545   6.748   2.170  0.4637 -0.5644 -0.2502
42351SOL    HW131415   7.504   6.666   2.143  0.5663 -0.9038  0.5882
42351SOL    HW231416   7.490   6.780   2.242  0.8661 -0.2928 -0.0600
42352SOL     OW31417   4.499   9.930   3.040  0.0221  0.0971 -0.1246
42352SOL    HW131418   4.502   9.837   3.064  2.3431  0.0554 -0.3959
42352SOL    HW231419   4.405   9.948   3.030 -0.5013 -2.2079 -0.1030
42353SOL     OW31420   6.958  10.572   2.880  0.4573  0.1700 -0.0357
42353SOL    HW131421   6.972  10.498   2.938 -0.0491 -0.2656 -0.4516
42353SOL    HW231422   7.030  10.568   2.817  0.0154 -0.4437 -0.5254
42354SOL     OW31423   4.587   3.529  10.344  0.6549  0.0532 -0.4404
42354SOL    HW131424   4.541   3.516  10.261  1.0003  0.9749 -0.7872
42354SOL    HW231425   4.539   3.600  10.387  1.4808  0.7369 -0.6208
42355SOL     OW31426  10.341  10.376   3.737  0.2633  0.2112  0.1215
42355SOL    HW131427  10.421  10.416   3.703  0.3972  0.3054  0.5390
42355SOL    HW231428  10.298  10.446   3.785 -0.3556  0.3122 -0.5672
42356SOL     OW31429   7.091   3.227   9.652  0.4914 -0.2129  0.4370
42356SOL    HW131430   7.036   3.287   9.602  1.3666  0.3270  0.1067
42356SOL    HW231431   7.045   3.217   9.736 -3.0659 -4.1128 -1.6148
42357SOL     OW31432   8.001   3.235   7.290 -0.1325 -0.0730  0.1050
42357SOL    HW131433   8.036   3.166   7.234  0.7322  0.6284 -0.2481
42357SOL    HW231434   7.944   3.189   7.352 -0.1094 -1.0104 -0.5451
42358SOL     OW31435   6.240   3.724   1.590 -0.4694  0.0042  0.1885
42358SOL    HW131436   6.246   3.819   1.603  0.3603 -0.3831  3.8521
42358SOL    HW231437   6.164   3.712   1.533 -0.3829  2.8537 -0.6659
42359SOL     OW31438  10.548   7.157   6.811  0.0958  0.1231 -0.3918
42359SOL    HW131439  10.542   7.204   6.894 -2.8337  0.1181 -0.4636
42359SOL    HW231440  10.499   7.212   6.750 -0.1323 -1.1720 -1.4180
42360SOL     OW31441  10.016   7.452   3.733 -0.4827  0.5325 -0.1117
42360SOL    HW131442  10.091   7.512   3.725 -0.1970  0.0158 -1.7323
42360SOL    HW231443   9.940   7.509   3.739 -0.2881  1.1329 -2.3533
42361SOL     OW31444   1.232   9.227   8.716  0.0426  0.6676 -0.4212
42361SOL    HW131445   1.179   9.158   8.756 -0.6511  1.5203  0.1611
42361SOL    HW231446   1.202   9.230   8.625 -0.4208  0.6816 -0.2688
42362SOL     OW31447   0.008   4.741   0.875  0.2924  0.3160  0.2349
42362SOL    HW131448  -0.087   4.730   0.864  0.0583  1.9022  0.4803
42362SOL    HW231449   0.044   4.732   0.787  0.1546 -2.0513  0.3464
42363SOL     OW31450   0.340   5.680   5.945  0.0980  0.5026 -0.1678
42363SOL    HW131451   0.357   5.744   5.876  1.5589 -2.5404 -2.8415
42363SOL    HW231452   0.248   5.694   5.967 -0.9215  0.7010 -3.8551
42364SOL     OW31453   2.312   9.458   3.561  0.5115  0.2390 -0.4647
42364SOL    HW131454   2.314   9.368   3.529  0.0668  1.1984 -3.5312
42364SOL    HW231455   2.400   9.473   3.596  1.2857 -0.7849 -1.8760
42365SOL     OW31456   5.425   8.013   3.595  0.2776  0.2354 -0.5444
42365SOL    HW131457   5.486   7.939   3.590  0.0615 -0.0501  0.6396
42365SOL    HW231458   5.477   8.088   3.566  0.6014 -0.3170 -1.4379
42366SOL     OW31459   1.028   9.348   0.576  0.2884  0.2537  0.3529
42366SOL    HW131460   1.064   9.307   0.498  1.2381 -1.0408  1.4126
42366SOL    HW231461   0.949   9.298   0.595 -0.7051  1.4417 -0.5132
42367SOL     OW31462   6.259   7.473   3.615 -0.2176  1.0940  0.6045
42367SOL    HW131463   6.217   7.442   3.695 -1.4005 -0.8945 -0.7045
42367SOL    HW231464   6.218   7.558   3.598 -0.9522  0.9064  1.3770
42368SOL     OW31465   7.741  10.436  10.126  0.0557  0.0523 -0.2437
42368SOL    HW131466   7.682  10.361  10.128 -0.7838  0.6265  3.7547
42368SOL    HW231467   7.826  10.401  10.151 -0.2006  0.2912  1.0109
42369SOL     OW31468   4.285   8.943   5.185 -0.1017 -0.1843 -0.8754
42369SOL    HW131469   4.191   8.946   5.200  0.3414 -0.8263  3.1888
42369SOL    HW231470   4.305   8.849   5.175  0.4013 -0.5251  2.2616
42370SOL     OW31471   8.318   2.489   2.594 -0.0910 -0.1505  0.3409
42370SOL    HW131472   8.223   2.482   2.600 -0.0171 -1.7773  0.0175
42370SOL    HW231473   8.334   2.535   2.511 -0.5840 -4.6996 -2.5873
42371SOL     OW31474   0.547   0.286  10.087 -0.0747  0.2697  0.8250
42371SOL    HW131475   0.485   0.213  10.084 -1.0735  1.0039  2.2623
42371SOL    HW231476   0.496   0.358  10.124  0.5879  2.0191 -1.4682
42372SOL     OW31477   8.086   1.827  10.009  0.2689  0.0580  0.0929
42372SOL    HW131478   7.990   1.827  10.005 -0.0159  2.5001  2.8793
42372SOL    HW231479   8.108   1.744  10.052 -0.7118  0.0002  0.5162
42373SOL     OW31480   6.534   5.520   8.634 -0.0405  0.1219  0.0208
42373SOL    HW131481   6.482   5.560   8.704  0.8256  1.2248  0.0698
42373SOL    HW231482   6.561   5.593   8.579 -0.9899 -0.7517 -1.7132
42374SOL     OW31483   1.413   9.428   0.145  0.5196 -0.1946 -0.5518
42374SOL    HW131484   1.493   9.435   0.094  0.6454  0.8402 -0.2268
42374SOL    HW231485   1.417   9.500   0.208  0.8808 -2.0227  1.6511
42375SOL     OW31486   0.586   2.629   6.196 -0.2070 -0.4423 -0.0224
42375SOL    HW131487   0.619   2.580   6.272  0.1382  0.8257  0.6729
42375SOL    HW231488   0.492   2.639   6.214 -0.2105 -0.5283  0.0112
42376SOL     OW31489   2.474   7.456   2.233  0.3359 -0.4268  0.2529
42376SOL    HW131490   2.458   7.536   2.283  1.5965 -0.6438  1.0163
42376SOL    HW231491   2.471   7.386   2.297  0.2865 -0.8977 -0.2530
42377SOL     OW31492   6.919   7.102   2.220 -0.3360 -0.1101  0.5328
42377SOL    HW131493   7.004   7.130   2.186 -0.7393  0.5750  0.0587
42377SOL    HW231494   6.896   7.026   2.167  0.0567 -0.3957  0.7734
42378SOL     OW31495   8.850   1.919   1.210 -0.3178 -0.6031  0.2717
42378SOL    HW131496   8.812   1.832   1.217  0.4593 -1.1412 -1.6307
42378SOL    HW231497   8.836   1.959   1.296 -1.9098 -2.0873  0.7437
42379SOL     OW31498   4.386   0.754   1.378 -0.0452  0.2910 -0.0829
42379SOL    HW131499   4.465   0.746   1.324  1.2660 -1.9924  1.9564
42379SOL    HW231500   4.367   0.664   1.405 -1.7697  1.1139  1.6472
42380SOL     OW31501   1.186   1.783   6.887 -0.4112  0.1219 -0.1433
42380SOL    HW131502   1.154   1.720   6.823 -0.3884  0.3015 -0.3349
42380SOL    HW231503   1.273   1.807   6.855 -0.0045 -0.4990  0.4709
42381SOL     OW31504   5.897   9.249  11.115 -0.4063  0.1865  0.2438
42381SOL    HW131505   5.936   9.257  11.202  0.0728 -0.1329  0.0647
42381SOL    HW231506   5.918   9.160  11.087 -3.4353 -0.9439  1.1624
42382SOL     OW31507  10.515   9.365   4.060  0.1227  0.3125  0.4481
42382SOL    HW131508  10.463   9.298   4.016 -1.1099  2.1031 -0.9515
42382SOL    HW231509  10.452   9.416   4.110  1.1248  0.1032  1.9723
42383SOL     OW31510   1.645   2.363   8.028 -0.8369 -0.3341  0.2997
42383SOL    HW131511   1.700   2.355   7.949 -0.3833 -1.0735  0.6776
42383SOL    HW231512   1.584   2.433   8.007 -0.6611 -0.4528 -0.6801
42384SOL     OW31513  10.731   0.150   5.989  0.1240 -0.1262  0.0247
42384SOL    HW131514  10.793   0.082   5.966  0.5549  0.2665  0.0034
42384SOL    HW231515  10.765   0.229   5.946 -0.2852  0.1313  0.1657
42385SOL     OW31516   1.920   4.700   2.615  0.2517 -0.3778 -0.6572
42385SOL    HW131517   1.966   4.616   2.622  1.3527 -0.0875 -3.1648
42385SOL    HW231518   1.895   4.705   2.523 -3.0752  0.4633  0.1717
42386SOL     OW31519   5.994   2.126   1.155  0.5579  0.0646 -0.0440
42386SOL    HW131520   5.948   2.095   1.077  1.5879  0.0801 -0.6686
42386SOL    HW231521   6.046   2.201   1.125  2.3259 -0.9845  0.2315
42387SOL     OW31522  10.008   6.680   1.189  0.2047 -0.0970  0.5388
42387SOL    HW131523   9.992   6.748   1.255  1.5833  1.3238 -0.5447
42387SOL    HW231524  10.089   6.638   1.217  1.7592  1.6636 -1.0944
42388SOL     OW31525   3.570   6.845   0.755  0.1062 -0.0452 -0.4333
42388SOL    HW131526   3.653   6.837   0.709 -0.3491 -0.4595 -1.1987
42388SOL    HW231527   3.505   6.813   0.693 -0.5454 -0.4189  0.4297
42389SOL     OW31528   2.626   5.952   2.697  0.9857  0.3276 -0.0240
42389SOL    HW131529   2.625   6.046   2.676 -0.5376 -0.0657 -1.9141
42389SOL    HW231530   2.540   5.934   2.734  1.2759 -0.3451  0.3490
42390SOL     OW31531   3.779   3.943   7.387  0.2175  0.6396  0.3346
42390SOL    HW131532   3.824   3.944   7.302  0.3017 -1.2934  0.2960
42390SOL    HW231533   3.819   4.015   7.436  1.0166  1.0419 -0.8471
42391SOL     OW31534  10.203  10.220   2.193 -0.1090  0.6173  0.2595
42391SOL    HW131535  10.191  10.187   2.282  0.9252 -1.5299 -0.3224
42391SOL    HW231536  10.196  10.315   2.202 -2.0156  0.3839  2.2733
42392SOL     OW31537   2.294   1.818   3.894 -0.3078  0.0196  0.0960
42392SOL    HW131538   2.265   1.907   3.913  0.3237  0.3643 -0.5306
42392SOL    HW231539   2.222   1.779   3.845  0.4727  1.0805 -2.0372
42393SOL     OW31540   0.468   4.347   7.291  0.0809  0.0285  0.0282
42393SOL    HW131541   0.440   4.293   7.217 -0.6822 -0.6398  0.7864
42393SOL    HW231542   0.387   4.366   7.339  0.7824 -1.5923  2.0363
42394SOL     OW31543   4.520   9.279   3.684  0.1543 -0.3102  0.8466
42394SOL    HW131544   4.498   9.195   3.643  2.2417 -0.8291  0.6966
42394SOL    HW231545   4.468   9.344   3.635  0.6573 -1.1995 -0.9432
42395SOL     OW31546   3.872  10.135   8.747 -0.0639  0.3477  0.0457
42395SOL    HW131547   3.892  10.043   8.733 -0.8241  0.1288  0.3469
42395SOL    HW231548   3.956  10.174   8.773 -0.0175 -0.5348  1.3026
42396SOL     OW31549   8.493   6.700   0.692 -0.9693 -0.2500  0.2879
42396SOL    HW131550   8.447   6.629   0.736  0.9071  0.4766  3.7813
42396SOL    HW231551   8.443   6.779   0.714 -0.7621 -0.0224 -0.0501
42397SOL     OW31552   1.066   1.651   8.061 -0.1900 -0.7906  0.6317
42397SOL    HW131553   1.073   1.570   8.010 -0.5665 -1.3630  1.4580
42397SOL    HW231554   1.011   1.626   8.136 -0.9448  0.4279  0.5007
42398SOL     OW31555  10.891   8.614   8.232  0.6096 -0.1502  0.1217
42398SOL    HW131556  10.971   8.667   8.221 -0.4445  1.3546 -0.6512
42398SOL    HW231557  10.922   8.524   8.231  2.1375  0.3135 -2.0242
42399SOL     OW31558   7.323   8.360   9.638 -0.1399 -0.2783  0.6519
42399SOL    HW131559   7.356   8.420   9.572 -1.7052  2.0044  1.8115
42399SOL    HW231560   7.339   8.273   9.601  0.8532  0.8402 -1.7857
42400SOL     OW31561   7.511  11.117   9.309 -0.1922 -0.1497 -0.0497
42400SOL    HW131562   7.492  11.025   9.289  1.2544  0.0347 -2.6839
42400SOL    HW231563   7.497  11.124   9.403 -1.0962 -2.8683  0.1133
42401SOL     OW31564   0.014   6.852   2.759 -0.0029 -0.9587  0.2804
42401SOL    HW131565  -0.021   6.882   2.675 -1.2093 -3.3353 -0.1394
42401SOL    HW231566  -0.001   6.925   2.819 -0.4590  0.2216 -1.2149
42402SOL     OW31567   0.567   8.625   4.264  0.3350  0.4755  0.0212
42402SOL    HW131568   0.535   8.617   4.354  1.1406 -0.6406  0.2247
42402SOL    HW231569   0.659   8.647   4.272  0.9850 -1.7828 -0.4597
42403SOL     OW31570   3.412   3.835   2.891 -0.5697  0.4218  0.1063
42403SOL    HW131571   3.447   3.753   2.857 -0.0522  0.6533  0.0738
42403SOL    HW231572   3.370   3.811   2.974 -0.8253  0.0516 -0.1307
42404SOL     OW31573   3.911   9.697   3.827  0.6618 -0.3219  0.0523
42404SOL    HW131574   3.981   9.741   3.875 -0.4069 -0.6535  2.0250
42404SOL    HW231575   3.843   9.682   3.893 -1.0218 -0.5388 -1.6578
42405SOL     OW31576   0.710   5.305   0.705 -0.4551  0.9318 -0.3629
42405SOL    HW131577   0.749   5.276   0.623  1.4648 -0.5689  0.9869
42405SOL    HW231578   0.720   5.231   0.764 -1.1668  2.1851  1.4273
42406SOL     OW31579  11.009   9.269   0.829  0.1610 -0.4014 -0.1947
42406SOL    HW131580  10.920   9.246   0.856  0.5064 -2.8024 -0.8961
42406SOL    HW231581  11.035   9.199   0.770  3.0803 -0.6406  1.1965
42407SOL     OW31582   7.349   5.815   3.080 -0.0952 -0.0700  0.0539
42407SOL    HW131583   7.359   5.887   3.018  1.3119 -1.2692 -1.2062
42407SOL    HW231584   7.261   5.825   3.115 -0.1967  1.8121 -0.6491
42408SOL     OW31585  10.245   9.189   9.123  0.4903 -0.0763  0.5975
42408SOL    HW131586  10.198   9.194   9.039  2.3243  0.3166 -0.4649
42408SOL    HW231587  10.259   9.095   9.137  3.3043 -0.1058 -1.4788
42409SOL     OW31588   3.805   9.881   4.834 -0.4793  0.2448  0.3038
42409SOL    HW131589   3.870   9.824   4.876 -0.6861 -1.4903 -1.5902
42409SOL    HW231590   3.806   9.961   4.887  2.5279 -0.0467  0.8956
42410SOL     OW31591  10.846   9.163   5.952 -0.4749 -0.4551  0.0041
42410SOL    HW131592  10.872   9.114   6.030 -1.5348 -1.0299  0.0156
42410SOL    HW231593  10.926   9.169   5.899  0.1414 -0.4619  0.9156
42411SOL     OW31594  10.117   8.462   6.746  1.1323  0.3902 -0.3930
42411SOL    HW131595  10.170   8.522   6.799  2.1929  1.1690 -2.2304
42411SOL    HW231596  10.171   8.444   6.669 -0.9395  0.5565 -1.9659
42412SOL     OW31597   3.146   0.647   6.264  0.3519  0.4930 -0.1065
42412SOL    HW131598   3.056   0.621   6.283  0.2703  1.7394  1.3861
42412SOL    HW231599   3.155   0.733   6.304  2.2001  0.4265 -0.3027
42413SOL     OW31600   9.863   4.083   4.506 -0.4802 -0.1155  0.3567
42413SOL    HW131601   9.951   4.111   4.532  0.3614 -1.7652 -0.5763
42413SOL    HW231602   9.830   4.035   4.581 -0.2099 -0.2853  0.3680
42414SOL     OW31603   7.770   2.906   5.306 -0.8226  0.2080 -0.3640
42414SOL    HW131604   7.864   2.892   5.297 -0.6577  0.6964  0.4598
42414SOL    HW231605   7.758   2.928   5.399 -1.8825 -0.8985 -0.2202
42415SOL     OW31606   6.348   8.091   3.181 -0.1598  0.2472 -0.1119
42415SOL    HW131607   6.290   8.027   3.224  0.2373 -2.6775 -3.4191
42415SOL    HW231608   6.327   8.083   3.088  4.3353  0.1432 -1.3776
42416SOL     OW31609   2.125  10.009   5.189 -0.1371  0.6653  0.9228
42416SOL    HW131610   2.172  10.076   5.139  1.2770  0.5406  2.0458
42416SOL    HW231611   2.092  10.055   5.266 -0.0163  0.2909  1.2008
42417SOL     OW31612   0.418   0.178   2.605 -0.0883  0.1320 -0.2053
42417SOL    HW131613   0.387   0.093   2.572 -1.7958  0.5449  0.2271
42417SOL    HW231614   0.363   0.242   2.561  2.6413  1.2505 -2.2189
42418SOL     OW31615   6.877   9.108   0.540  0.4601  0.0895 -0.1001
42418SOL    HW131616   6.935   9.111   0.463  1.3367 -0.7367  0.4976
42418SOL    HW231617   6.838   9.195   0.544  1.2838  0.5073 -0.8253
42419SOL     OW31618   4.476   6.871  10.992 -0.2859  0.1598 -0.7006
42419SOL    HW131619   4.450   6.871  11.084 -3.1492  2.6428 -1.3423
42419SOL    HW231620   4.535   6.946  10.984 -1.5128  1.1015 -1.1693
42420SOL     OW31621   2.894   4.581   0.396 -0.1420 -0.4079  0.4859
42420SOL    HW131622   2.810   4.558   0.434 -1.9706  0.0340 -2.9088
42420SOL    HW231623   2.933   4.641   0.459 -2.6283 -0.1461  1.9017
42421SOL     OW31624  10.111   0.619  11.007  0.2118 -0.1663 -0.0598
42421SOL    HW131625  10.196   0.656  11.029  0.3376  0.5457 -1.5610
42421SOL    HW231626  10.048   0.686  11.034  0.2548  0.0037 -0.3691
42422SOL     OW31627   3.500   7.255   3.393 -0.3733 -0.2933  0.0874
42422SOL    HW131628   3.567   7.229   3.329  0.6621  1.8843  0.1923
42422SOL    HW231629   3.549   7.275   3.473 -1.0657  1.5570  0.1017
42423SOL     OW31630   6.867   4.744   6.638  0.5918 -0.3170 -0.4050
42423SOL    HW131631   6.942   4.690   6.663  0.2681 -1.1146 -1.0862
42423SOL    HW231632   6.904   4.813   6.583  0.7202 -1.2984 -1.5872
42424SOL     OW31633   4.872   6.522   2.495  0.9824 -0.1124  0.5123
42424SOL    HW131634   4.825   6.467   2.432  0.0079 -0.8095  1.8087
42424SOL    HW231635   4.961   6.528   2.459  0.3203 -0.0096 -1.2094
42425SOL     OW31636   5.205   0.395   1.867  0.1840  0.2504  0.4899
42425SOL    HW131637   5.154   0.314   1.856  0.1863  0.2454  0.5164
42425SOL    HW231638   5.277   0.386   1.805 -0.0983  0.4579  0.1350
42426SOL     OW31639   9.493   7.472   7.042 -0.8856 -0.1673  0.3067
42426SOL    HW131640   9.504   7.536   7.112 -1.0693  0.3911 -0.1615
42426SOL    HW231641   9.447   7.520   6.973 -1.1649 -0.8512  0.0074
42427SOL     OW31642   4.425   1.490   6.045 -0.0594  0.2926  0.6883
42427SOL    HW131643   4.460   1.427   5.982 -1.4495 -0.4883  0.6599
42427SOL    HW231644   4.497   1.551   6.060  0.9315 -0.6136 -0.1911
42428SOL     OW31645   5.800   9.264   6.869 -0.1831 -0.1191 -0.4304
42428SOL    HW131646   5.779   9.237   6.959  1.0657 -0.0695 -0.1081
42428SOL    HW231647   5.769   9.354   6.863 -1.2137 -0.4526 -0.3954
42429SOL     OW31648   6.169   2.570   7.408 -0.7670 -0.5514 -0.4286
42429SOL    HW131649   6.221   2.650   7.408  0.7071 -1.2950  3.2982
42429SOL    HW231650   6.196   2.524   7.329  1.7171  0.6786 -0.3915
42430SOL     OW31651   3.210   9.676  10.477 -0.5447  0.0604  0.1113
42430SOL    HW131652   3.173   9.587  10.477  1.4307 -0.8017 -0.0282
42430SOL    HW231653   3.205   9.704  10.386 -0.8629 -0.0229  0.0995
42431SOL     OW31654   7.153   3.916   2.485  0.2112 -0.2030 -0.6472
42431SOL    HW131655   7.192   3.930   2.572 -0.9825 -0.3685 -0.0639
42431SOL    HW231656   7.090   3.845   2.498  2.0884 -2.3092 -2.3175
42432SOL     OW31657   3.984   4.809   7.431 -0.0013  0.2084 -0.2630
42432SOL    HW131658   3.899   4.825   7.388  0.9239  0.7273 -1.9923
42432SOL    HW231659   4.008   4.721   7.402  0.9337  0.8113 -1.4217
42433SOL     OW31660   7.887   7.158   7.612 -0.2332 -0.0120 -0.5061
42433SOL    HW131661   7.878   7.068   7.582  0.6297 -0.0064 -0.7968
42433SOL    HW231662   7.927   7.151   7.698  1.6724  0.1464 -1.3326
42434SOL     OW31663   7.604   3.918   1.324 -0.1802 -0.1911  0.1909
42434SOL    HW131664   7.643   3.833   1.347 -1.1588 -0.4123  1.1914
42434SOL    HW231665   7.655   3.982   1.373  1.3781 -0.0303 -1.5616
42435SOL     OW31666   3.517   8.302   9.532  0.0193 -0.2700 -0.4400
42435SOL    HW131667   3.611   8.291   9.521  0.3051  1.0828  0.2867
42435SOL    HW231668   3.499   8.265   9.618 -0.1291 -0.5820 -0.6047
42436SOL     OW31669   3.450   5.821   2.260  0.0441  0.1351 -0.1218
42436SOL    HW131670   3.478   5.874   2.335 -1.4162  1.2002 -0.2675
42436SOL    HW231671   3.420   5.886   2.196  1.6655 -0.7338 -1.8225
42437SOL     OW31672   6.731   1.369   3.488  0.1566 -0.3613  0.0400
42437SOL    HW131673   6.771   1.393   3.572 -1.7782 -3.1604  1.9586
42437SOL    HW231674   6.648   1.416   3.486  2.2440  3.7803 -2.9463
42438SOL     OW31675   9.296   0.079   2.891  0.2201  0.1142  0.9186
42438SOL    HW131676   9.373   0.114   2.846  0.2916  0.8798  1.6046
42438SOL    HW231677   9.314  -0.015   2.900 -0.0558 -0.1860 -1.1078
42439SOL     OW31678   8.309   6.477  10.143 -0.3394 -0.2034 -0.1415
42439SOL    HW131679   8.269   6.561  10.122 -1.2304  0.0495  2.2449
42439SOL    HW231680   8.235   6.421  10.170  0.3561 -1.4070 -0.6299
42440SOL     OW31681   0.340   6.278   9.359 -0.8814 -0.1800  0.8242
42440SOL    HW131682   0.314   6.367   9.384 -2.0796  0.2053 -1.5212
42440SOL    HW231683   0.312   6.224   9.433 -2.2566  1.1058  1.3081
42441SOL     OW31684   4.239  10.831   5.893  0.4251  0.7894 -0.7900
42441SOL    HW131685   4.147  10.807   5.902  0.3610  0.8704 -1.1837
42441SOL    HW231686   4.240  10.896   5.823  0.7124  1.2372 -0.3732
42442SOL     OW31687  10.499   1.999   8.985  0.2463 -0.4459  0.2247
42442SOL    HW131688  10.464   1.916   9.018  1.3895 -0.6419  1.0360
42442SOL    HW231689  10.429   2.062   8.999 -0.7607 -1.3282 -0.7087
42443SOL     OW31690   2.846   4.509   3.281  0.2714 -0.1707 -0.1074
42443SOL    HW131691   2.761   4.554   3.279  1.9323  3.3591  0.2510
42443SOL    HW231692   2.891   4.539   3.203  1.2993 -1.8342 -0.2025
42444SOL     OW31693   7.670  11.113   3.193 -0.2086  0.1899 -0.6120
42444SOL    HW131694   7.693  11.084   3.282  1.0580  1.4806 -0.4725
42444SOL    HW231695   7.588  11.067   3.173 -0.3737 -0.3431  1.1082
42445SOL     OW31696   3.479   0.049   7.989  0.3440  0.1144  0.0466
42445SOL    HW131697   3.414   0.009   8.048  0.2378  0.3388  0.0859
42445SOL    HW231698   3.517   0.119   8.041 -0.0940  0.6280 -0.3099
42446SOL     OW31699   5.859   5.443   5.367  0.0003  0.0333 -0.3367
42446SOL    HW131700   5.894   5.430   5.279  0.3630 -2.2318  0.0988
42446SOL    HW231701   5.905   5.380   5.421 -0.1248  1.4666  1.5479
42447SOL     OW31702   3.794   1.573   0.836 -0.0675  0.1551  0.7673
42447SOL    HW131703   3.762   1.663   0.822 -1.6522 -0.4664  0.1158
42447SOL    HW231704   3.888   1.582   0.845 -0.1747  1.8672  0.5076
42448SOL     OW31705   1.553   0.818   7.421 -0.1532  0.1589  0.2037
42448SOL    HW131706   1.594   0.902   7.444  1.6732 -0.4732 -0.5755
42448SOL    HW231707   1.493   0.801   7.494  0.0573  1.7241  0.8022
42449SOL     OW31708   7.090   8.303   0.614  0.0417 -0.4335 -0.7237
42449SOL    HW131709   7.184   8.313   0.632 -0.1437  0.8956 -0.4315
42449SOL    HW231710   7.056   8.258   0.691  0.3496 -0.4282 -0.5810
42450SOL     OW31711   8.397  10.433   2.543  0.6296  0.5241  0.2224
42450SOL    HW131712   8.476  10.464   2.587 -0.0498  1.2478  0.9617
42450SOL    HW231713   8.345  10.392   2.612  1.2242 -1.7772 -0.6135
42451SOL     OW31714   6.410   4.570   0.363  0.0886  0.0301  0.4736
42451SOL    HW131715   6.330   4.590   0.410  0.0672  2.5817 -0.5137
42451SOL    HW231716   6.481   4.591   0.424  0.0590 -1.2427  0.9802
42452SOL     OW31717  10.172   1.500   9.452 -0.0140 -0.1829 -0.3647
42452SOL    HW131718  10.227   1.453   9.390 -0.4276 -1.6872  0.3540
42452SOL    HW231719  10.190   1.459   9.537 -0.8610  0.5398  0.1955
42453SOL     OW31720   3.088   8.128   0.103 -0.1891 -0.3171 -0.2378
42453SOL    HW131721   3.171   8.081   0.092 -0.9654 -2.1440  1.1925
42453SOL    HW231722   3.058   8.105   0.191 -3.3870 -1.7729 -1.5176
42454SOL     OW31723   3.992   3.092   9.492 -0.1019 -0.2945  0.0385
42454SOL    HW131724   3.981   3.160   9.426  0.8588 -1.2435 -1.1392
42454SOL    HW231725   4.048   3.133   9.559  1.2674 -0.2017 -1.1179
42455SOL     OW31726   2.017   7.817   0.818  0.9245 -0.2050 -0.4754
42455SOL    HW131727   2.004   7.822   0.724  0.2345  2.7462 -0.3137
42455SOL    HW231728   1.956   7.881   0.855  1.8868 -0.5312  1.8936
42456SOL     OW31729   3.965   1.210   2.464  0.1637  0.3712 -0.1123
42456SOL    HW131730   4.008   1.133   2.428  0.8159  1.0536 -0.8441
42456SOL    HW231731   3.872   1.194   2.453  0.2847 -0.3989 -0.0566
42457SOL     OW31732   4.781   3.920   2.644  0.1409  0.0088 -0.5475
42457SOL    HW131733   4.802   3.826   2.642 -3.9360 -1.1290  0.3744
42457SOL    HW231734   4.788   3.943   2.737  0.0358  0.3070 -0.6147
42458SOL     OW31735   5.001   4.500   2.399  0.2642 -0.4255  0.1343
42458SOL    HW131736   5.000   4.408   2.425 -0.7481  0.3448  3.2866
42458SOL    HW231737   5.034   4.546   2.476 -0.6872  1.9967 -0.8078
42459SOL     OW31738  10.466   8.652   0.864  0.1297 -0.2395  0.2410
42459SOL    HW131739  10.505   8.660   0.777 -1.6135 -0.2353 -0.5626
42459SOL    HW231740  10.407   8.726   0.872  0.2450 -0.2547  1.4306
42460SOL     OW31741   5.524   1.021   2.020  0.2476 -0.8581  0.1437
42460SOL    HW131742   5.506   1.031   1.926  0.8531 -1.1423 -0.0033
42460SOL    HW231743   5.537   1.110   2.052  2.3006 -0.8910 -0.5007
42461SOL     OW31744  10.458   5.682   5.369 -0.3680 -0.4921  0.1782
42461SOL    HW131745  10.539   5.665   5.417 -0.0177  1.6027  0.4091
42461SOL    HW231746  10.478   5.756   5.312 -1.9069 -0.4040 -0.2942
42462SOL     OW31747   1.636   2.462   8.785  0.1600 -0.1460 -0.6808
42462SOL    HW131748   1.646   2.537   8.843  1.0110  0.0684 -1.0923
42462SOL    HW231749   1.644   2.386   8.844  2.6988  0.0371 -0.7070
42463SOL     OW31750  10.625   9.110   8.530  0.1506  0.2538 -0.4689
42463SOL    HW131751  10.565   9.097   8.604  0.3317 -1.2368 -0.5533
42463SOL    HW231752  10.705   9.144   8.569  0.0733 -0.0615 -0.0275
42464SOL     OW31753   3.071   2.624   5.723 -0.3605  0.4951  0.0957
42464SOL    HW131754   3.069   2.570   5.644 -3.5403 -0.1927  0.4966
42464SOL    HW231755   3.094   2.563   5.793  0.2190  0.6033  0.0007
42465SOL     OW31756  10.673   9.903  10.848 -0.5602 -0.3171  0.1696
42465SOL    HW131757  10.673   9.830  10.786  0.3400 -1.1085  1.0628
42465SOL    HW231758  10.581   9.925  10.860 -0.9166 -2.0454  0.7330
42466SOL     OW31759   1.325   0.421   4.443  0.5660 -0.2146 -0.0384
42466SOL    HW131760   1.338   0.411   4.538  2.2750  0.7745 -0.1259
42466SOL    HW231761   1.293   0.336   4.414 -0.7172 -0.3251  1.5198
42467SOL     OW31762   9.050   2.993   4.744 -0.8012 -0.2437  0.3461
42467SOL    HW131763   8.985   2.933   4.708 -0.6296 -0.1860 -0.0675
42467SOL    HW231764   9.028   3.000   4.837 -2.6803  1.3815 -0.1564
42468SOL     OW31765   4.048   7.974   8.339 -0.8541  0.5207 -0.3215
42468SOL    HW131766   4.133   8.017   8.352 -0.8408 -0.1634  2.6665
42468SOL    HW231767   3.989   8.045   8.315  0.3638  1.1208 -1.7385
42469SOL     OW31768   4.442   2.659   5.681  0.0484  0.5125  0.8740
42469SOL    HW131769   4.485   2.607   5.614 -1.2734 -0.6310  0.8687
42469SOL    HW231770   4.499   2.735   5.693 -0.5950  1.8284 -2.9785
42470SOL     OW31771   1.623   4.133   8.883  0.2621  0.3678 -0.0092
42470SOL    HW131772   1.608   4.182   8.802  0.0317 -0.0058 -0.1931
42470SOL    HW231773   1.593   4.193   8.952  0.2033  0.5796 -0.2157
42471SOL     OW31774   5.509   7.061   9.433  0.0348 -0.2063 -0.2452
42471SOL    HW131775   5.459   6.982   9.409 -1.1945  0.6225 -0.5095
42471SOL    HW231776   5.576   7.068   9.366 -0.9088 -0.1068 -1.2143
42472SOL     OW31777   7.449  10.038   1.109  0.3524 -0.8027  0.0320
42472SOL    HW131778   7.372  10.093   1.096  0.6889 -0.3277  0.0602
42472SOL    HW231779   7.465  10.042   1.204  1.6294  0.7478 -0.2170
42473SOL     OW31780   5.236   8.353   2.856  0.4076 -0.1098  0.6285
42473SOL    HW131781   5.190   8.425   2.813  0.7059 -0.9064 -1.1555
42473SOL    HW231782   5.167   8.290   2.877  0.2009  0.4819  1.7993
42474SOL     OW31783   4.676   2.233   3.561 -0.0444 -0.0917  0.3219
42474SOL    HW131784   4.662   2.307   3.620 -1.2234 -0.0895  0.0558
42474SOL    HW231785   4.710   2.163   3.617  1.2886  0.6897  0.5388
42475SOL     OW31786  10.943   5.845   2.937  0.0524 -0.6355 -0.4542
42475SOL    HW131787  11.035   5.845   2.964 -0.3798 -1.3122  1.2141
42475SOL    HW231788  10.935   5.919   2.878  1.3143  0.4889  0.7019
42476SOL     OW31789   5.664   9.850   5.053  0.2223  0.3455 -0.0562
42476SOL    HW131790   5.748   9.806   5.038  0.3150  0.8003 -0.9489
42476SOL    HW231791   5.688   9.942   5.064 -0.3094  0.8233 -2.3967
42477SOL     OW31792   5.169   4.793   4.903  0.7029  0.8392 -0.5494
42477SOL    HW131793   5.230   4.826   4.836  0.8638 -1.9960 -1.9229
42477SOL    HW231794   5.100   4.750   4.853 -0.0360  0.0492  1.0878
42478SOL     OW31795   3.501   1.715   6.108  0.0053  0.1505 -0.3369
42478SOL    HW131796   3.534   1.804   6.096 -0.7555  0.4844 -0.0364
42478SOL    HW231797   3.497   1.703   6.203  0.3535 -0.3080 -0.3742
42479SOL     OW31798   2.181   2.830   1.404  0.1254 -0.8777  0.2150
42479SOL    HW131799   2.163   2.913   1.448  1.1310 -1.3283  1.5729
42479SOL    HW231800   2.149   2.763   1.466 -0.2591 -1.5180 -0.6531
42480SOL     OW31801   9.279   8.291   8.552 -0.4322 -0.0114 -0.0853
42480SOL    HW131802   9.269   8.382   8.524 -2.6624 -0.5560 -1.3012
42480SOL    HW231803   9.337   8.252   8.488 -1.8631 -0.1172 -1.3778
42481SOL     OW31804   9.615   0.678   8.434  0.6765  0.1449  1.3151
42481SOL    HW131805   9.659   0.715   8.511 -0.0136  1.1881  1.2276
42481SOL    HW231806   9.530   0.722   8.432  0.7683  0.2908 -0.1636
42482SOL     OW31807   7.825   5.428   8.277 -0.3270  0.5789  0.2166
42482SOL    HW131808   7.738   5.416   8.315 -0.7236  0.7005 -0.6299
42482SOL    HW231809   7.826   5.368   8.202 -0.3789  1.9246 -0.8883
42483SOL     OW31810   8.952   1.999  10.914 -0.0818 -0.1306 -0.0812
42483SOL    HW131811   9.014   1.988  10.986 -0.2357 -0.1783  0.0439
42483SOL    HW231812   8.894   1.922  10.920 -0.0052 -0.2109 -0.3434
42484SOL     OW31813   5.344   4.878  11.109  0.4828  0.0277  0.0260
42484SOL    HW131814   5.369   4.799  11.156  1.3546 -0.5351 -1.3237
42484SOL    HW231815   5.350   4.948  11.174  1.6798 -0.7213  0.7588
42485SOL     OW31816   8.576   8.016   6.430 -0.2214  0.0536 -0.1775
42485SOL    HW131817   8.597   7.954   6.360 -0.6326 -0.4714  0.1491
42485SOL    HW231818   8.599   7.969   6.511  1.0068  0.9515  0.0234
42486SOL     OW31819   2.772   5.299  10.347 -0.2947 -0.0021 -0.2693
42486SOL    HW131820   2.767   5.392  10.329  1.0272 -0.2181 -1.9832
42486SOL    HW231821   2.778   5.293  10.443  0.2360  1.6972 -0.1745
42487SOL     OW31822   6.977   2.914   7.055 -0.4569  1.1928 -0.4145
42487SOL    HW131823   6.948   2.886   6.969  1.5941  2.2272 -1.4985
42487SOL    HW231824   6.901   2.959   7.093 -2.1602 -1.3175 -0.6371
42488SOL     OW31825   1.047   3.080   3.244 -0.6517 -0.3899  0.1290
42488SOL    HW131826   0.986   3.007   3.252 -0.2486 -1.0191 -1.9571
42488SOL    HW231827   1.133   3.043   3.264 -0.4765 -0.4309 -0.6943
42489SOL     OW31828   0.635   3.843   9.932  0.1879 -0.1240  0.1543
42489SOL    HW131829   0.564   3.903   9.953  0.3166 -0.4939  1.8238
42489SOL    HW231830   0.615   3.811   9.844 -1.1357  0.5729  0.1796
42490SOL     OW31831   9.670   1.175   2.689  0.0754  0.0569  0.1069
42490SOL    HW131832   9.746   1.164   2.746  0.1637  0.8835  0.1688
42490SOL    HW231833   9.697   1.137   2.605  1.2917  1.9861 -0.4581
42491SOL     OW31834  10.380   9.952  11.111 -0.0241  0.0208  0.1517
42491SOL    HW131835  10.378  10.047  11.107 -0.5734  0.0238  0.4343
42491SOL    HW231836  10.363   9.923  11.022  0.5592  0.1872 -0.0196
42492SOL     OW31837   3.975   4.547   4.190  0.1162  0.1158 -0.2170
42492SOL    HW131838   4.043   4.518   4.129  0.8903  1.9309 -0.2842
42492SOL    HW231839   4.007   4.630   4.223 -1.9718  0.9037 -0.0445
42493SOL     OW31840   5.250   8.513   7.086 -0.1619 -0.6914 -0.3301
42493SOL    HW131841   5.209   8.433   7.119 -2.7004  1.4689  2.3093
42493SOL    HW231842   5.178   8.576   7.077  1.9703  2.0605  0.2348
42494SOL     OW31843   6.813   6.637   5.519  0.2445 -0.3993  0.1208
42494SOL    HW131844   6.754   6.694   5.570  0.3612  0.8357 -1.0501
42494SOL    HW231845   6.880   6.697   5.485  1.5423 -1.6064  0.5103
42495SOL     OW31846   8.573  10.490   2.855  0.2899  0.3143  0.1011
42495SOL    HW131847   8.653  10.531   2.824  0.1558  0.9549  0.5720
42495SOL    HW231848   8.588  10.476   2.948  1.1935 -2.7722 -0.4174
42496SOL     OW31849   3.128   5.643   1.466  0.0959  0.3674  0.6151
42496SOL    HW131850   3.215   5.676   1.487  0.2378  0.7426 -0.4825
42496SOL    HW231851   3.128   5.553   1.498  0.3171  0.8691  2.0774
42497SOL     OW31852   2.248   2.487   8.413  0.8378 -0.0594  0.4774
42497SOL    HW131853   2.233   2.497   8.507 -0.9203  1.7828  0.0723
42497SOL    HW231854   2.312   2.555   8.392 -0.0982  0.7226  0.0848
42498SOL     OW31855   6.919   2.943   0.703 -0.7894 -0.4980  0.0133
42498SOL    HW131856   6.869   3.006   0.755  0.6450 -0.2064  1.1184
42498SOL    HW231857   6.961   2.887   0.769  0.2115 -0.8148 -0.8727
42499SOL     OW31858   6.755   2.961  10.976  0.0188  0.0124 -0.0169
42499SOL    HW131859   6.801   2.993  11.054  0.0001  0.3379 -0.1362
42499SOL    HW231860   6.724   3.041  10.933 -0.8906 -0.2114  0.2071
42500SOL     OW31861   3.742   5.103   5.048 -0.2144 -0.2724  0.2177
42500SOL    HW131862   3.698   5.116   4.964 -1.4467  0.6924  0.9870
42500SOL    HW231863   3.834   5.086   5.025 -0.2391  1.4052 -1.2543
42501SOL     OW31864   0.439   9.147   0.160  0.5846 -0.2766  0.0650
42501SOL    HW131865   0.509   9.149   0.226  0.1744 -1.8924  0.5925
42501SOL    HW231866   0.402   9.235   0.162  0.5743 -0.2844  2.0205
42502SOL     OW31867   3.371   4.866   0.891 -0.3902  0.0850  0.1832
42502SOL    HW131868   3.445   4.899   0.841  0.3793 -2.7302 -0.7016
42502SOL    HW231869   3.375   4.915   0.974  1.5717  1.0173 -0.3984
42503SOL     OW31870   2.722   6.444   7.905 -0.3047  0.7790  0.0411
42503SOL    HW131871   2.789   6.505   7.937  0.6374 -0.0483 -0.2791
42503SOL    HW231872   2.711   6.382   7.977 -0.1854  0.4883 -0.1904
42504SOL     OW31873   7.669   2.624   2.606  0.1097 -0.2416  0.3365
42504SOL    HW131874   7.579   2.639   2.578  0.2473 -1.3368 -0.7765
42504SOL    HW231875   7.663   2.559   2.675  0.0318 -0.1651  0.4012
42505SOL     OW31876   6.853   6.816   1.153  0.9527 -1.0025 -0.3810
42505SOL    HW131877   6.869   6.888   1.214 -0.7273 -1.0767  0.2080
42505SOL    HW231878   6.920   6.826   1.086 -0.6234  2.6391 -1.6876
42506SOL     OW31879   9.976  10.255   8.148  0.4081  0.3042 -0.1988
42506SOL    HW131880  10.045  10.204   8.106  0.4904  0.7546 -0.6280
42506SOL    HW231881   9.988  10.241   8.242 -0.6142 -1.8103 -0.3270
42507SOL     OW31882   6.671   2.717   8.029 -0.0588  0.3232 -0.7276
42507SOL    HW131883   6.701   2.761   7.950  0.7305  1.6421  0.2574
42507SOL    HW231884   6.695   2.776   8.100 -1.1726 -0.5896  0.4731
42508SOL     OW31885   2.780   9.250   1.545  0.3480  0.6558 -0.4304
42508SOL    HW131886   2.827   9.326   1.510  2.5580 -0.2623  0.3322
42508SOL    HW231887   2.769   9.192   1.470 -0.2800  1.1946 -0.7690
42509SOL     OW31888   0.418   7.389   6.464 -0.2327  0.2360 -0.3433
42509SOL    HW131889   0.354   7.351   6.524 -0.3748 -0.7289 -1.0781
42509SOL    HW231890   0.486   7.323   6.457  0.0815  0.6007 -0.7682
42510SOL     OW31891   9.305   5.887   9.747  0.3721  0.5232 -0.0736
42510SOL    HW131892   9.285   5.907   9.656  0.4887 -0.4444 -0.3219
42510SOL    HW231893   9.374   5.948   9.771  1.3530 -0.1662 -1.0777
42511SOL     OW31894   6.523  11.067   4.957 -0.0161 -0.2617  0.3323
42511SOL    HW131895   6.432  11.063   4.987 -0.2199  0.3028 -0.1915
42511SOL    HW231896   6.558  11.148   4.993 -0.5542  0.9247 -1.6814
42512SOL     OW31897   3.789   5.329   6.490  0.1898 -0.6449  0.0139
42512SOL    HW131898   3.780   5.382   6.569 -1.6022 -2.3980  1.0863
42512SOL    HW231899   3.699   5.317   6.459  0.9038  0.8585 -2.9659
42513SOL     OW31900   6.252   6.989   0.282  0.4783  0.7439  0.1835
42513SOL    HW131901   6.258   6.988   0.378 -0.1237 -0.0233  0.2205
42513SOL    HW231902   6.164   7.022   0.264  1.0137  2.0831 -0.1485
42514SOL     OW31903   0.682   1.174   7.393  0.2762  0.1114 -0.1862
42514SOL    HW131904   0.658   1.267   7.388  2.4276  0.7159 -0.3906
42514SOL    HW231905   0.763   1.168   7.343  0.3009 -1.8549  0.0252
42515SOL     OW31906   4.615   5.086   5.364 -0.7972  0.1933  0.4407
42515SOL    HW131907   4.663   5.057   5.441  0.1518 -0.5036 -0.3926
42515SOL    HW231908   4.611   5.181   5.372 -0.9446  0.1085  1.4696
42516SOL     OW31909   2.794  10.189   4.175 -0.4062 -0.4962  0.2045
42516SOL    HW131910   2.787  10.148   4.262 -0.5686 -0.6313  0.1284
42516SOL    HW231911   2.718  10.247   4.170  0.1164  0.2319  0.5254
42517SOL     OW31912   6.163   7.047   6.282  0.8291 -0.2211  0.1633
42517SOL    HW131913   6.104   6.993   6.229  0.8364 -0.0946  0.0261
42517SOL    HW231914   6.193   7.115   6.222  0.3870  0.2599  0.4843
42518SOL     OW31915   8.182   0.219   1.740  0.4767 -0.0096 -0.1798
42518SOL    HW131916   8.139   0.299   1.710  0.8375  0.6684  1.0748
42518SOL    HW231917   8.267   0.247   1.773  1.1765 -1.1050 -0.9632
42519SOL     OW31918  10.504   7.889   4.398  0.4184  0.7700  0.0981
42519SOL    HW131919  10.414   7.872   4.372  0.8386 -0.7259 -0.4898
42519SOL    HW231920  10.497   7.928   4.485 -0.7448 -0.8404  0.7682
42520SOL     OW31921   3.866   7.406   1.065 -0.1326  0.2150  0.4026
42520SOL    HW131922   3.890   7.466   0.994 -0.3900 -1.0139 -0.7743
42520SOL    HW231923   3.935   7.418   1.130  0.3233  1.1120 -0.2128
42521SOL     OW31924  10.323   8.342   9.559 -0.2198  0.2667 -0.5722
42521SOL    HW131925  10.308   8.263   9.506  0.3414 -0.3611  0.1750
42521SOL    HW231926  10.385   8.314   9.626 -0.4677  1.2022  0.0644
42522SOL     OW31927   3.645   1.175   7.502  0.6691 -0.6169  0.0707
42522SOL    HW131928   3.654   1.087   7.466 -0.2285 -1.3475  1.5376
42522SOL    HW231929   3.692   1.172   7.585 -1.6851 -0.6047  1.4990
42523SOL     OW31930   6.978   7.019   6.918 -0.2537  0.1486  0.3183
42523SOL    HW131931   6.890   7.016   6.881 -0.3773  0.3792  0.5908
42523SOL    HW231932   7.010   6.929   6.910 -0.7996 -0.1054  0.9040
42524SOL     OW31933  10.360   9.049   1.169  0.7037 -0.8485  0.0721
42524SOL    HW131934  10.445   9.091   1.155  1.4233 -2.1613  0.3163
42524SOL    HW231935  10.377   8.956   1.155 -0.4191 -1.2686  1.2965
42525SOL     OW31936   9.360   0.282   6.330 -0.3399 -0.0581  0.1894
42525SOL    HW131937   9.443   0.263   6.373 -0.1263  0.8268  0.1900
42525SOL    HW231938   9.309   0.201   6.340  0.5499 -0.6540  0.0878
42526SOL     OW31939   1.830   6.503  10.208  0.6996  0.3675  0.4659
42526SOL    HW131940   1.747   6.505  10.160  0.0314  1.4708  1.5889
42526SOL    HW231941   1.846   6.410  10.225  1.2038 -0.1001 -2.2136
42527SOL     OW31942   5.032   1.855   8.503  0.5867  0.0556 -0.7845
42527SOL    HW131943   5.098   1.920   8.530 -0.0606  0.8461 -1.0662
42527SOL    HW231944   4.953   1.907   8.489  0.0267 -0.8256 -0.8998
42528SOL     OW31945   5.268   7.279   2.644 -0.1735 -0.6760 -0.4299
42528SOL    HW131946   5.334   7.297   2.712  0.0750  0.3280 -0.9195
42528SOL    HW231947   5.186   7.271   2.693  0.2903 -1.9466  0.1902
42529SOL     OW31948   2.143   4.145   5.881  0.1465  0.4100  0.2240
42529SOL    HW131949   2.089   4.126   5.958 -0.6156 -1.2531 -0.6774
42529SOL    HW231950   2.154   4.061   5.837 -0.0214  1.3981 -1.8569
42530SOL     OW31951  10.026  10.427   1.859  0.5477  0.1997 -0.5782
42530SOL    HW131952  10.019  10.444   1.952 -0.4948  0.0450 -0.6135
42530SOL    HW231953   9.994  10.337   1.848 -0.8029  0.7394 -1.2623
42531SOL     OW31954   0.907   4.953   8.869 -0.2271 -0.3658  0.8290
42531SOL    HW131955   0.894   5.047   8.884  2.7898  0.1894  0.6490
42531SOL    HW231956   0.866   4.911   8.944 -2.1496  1.0099  0.6244
42532SOL     OW31957  10.094   4.641   0.106 -0.7306  0.4828  0.4567
42532SOL    HW131958  10.051   4.688   0.178 -1.4446  2.1239 -0.9477
42532SOL    HW231959  10.022   4.617   0.048 -0.2850 -1.7786  0.7642
42533SOL     OW31960   5.814   3.054   5.023 -0.3682 -0.3401 -0.2667
42533SOL    HW131961   5.879   2.986   5.007 -2.3214 -2.2374 -0.7182
42533SOL    HW231962   5.850   3.106   5.094  1.8932 -0.8820 -0.9302
42534SOL     OW31963   0.986   3.149   4.456 -0.5570 -0.0706  0.6021
42534SOL    HW131964   1.035   3.067   4.450  1.3086  0.8123  2.4293
42534SOL    HW231965   0.898   3.122   4.483 -1.0331 -1.6564 -2.1986
42535SOL     OW31966   3.273   1.004   9.101 -0.0620  0.7150 -0.3947
42535SOL    HW131967   3.271   0.920   9.147  0.2635  1.2116  0.5497
42535SOL    HW231968   3.181   1.023   9.082 -0.2478  0.7089  0.4545
42536SOL     OW31969   5.461   8.546   4.671  0.4771 -0.1884 -0.3913
42536SOL    HW131970   5.512   8.605   4.727  1.0546  0.6038 -1.7054
42536SOL    HW231971   5.467   8.585   4.584 -0.5363 -1.3033 -0.9827
42537SOL     OW31972   6.197   4.522   6.565  0.1411 -0.2766  0.0747
42537SOL    HW131973   6.176   4.511   6.472 -0.8213 -1.1866  0.3843
42537SOL    HW231974   6.112   4.524   6.609  0.5239  1.3021  0.8418
42538SOL     OW31975   4.581   1.815   8.556 -0.5395 -0.6580  0.3093
42538SOL    HW131976   4.531   1.751   8.505 -0.6979 -1.1874  1.1054
42538SOL    HW231977   4.516   1.855   8.614 -0.2797 -0.4015  0.4286
42539SOL     OW31978   8.118   8.184   7.357  0.1695  0.5893  0.3221
42539SOL    HW131979   8.147   8.174   7.448 -0.5421  1.6222  0.6752
42539SOL    HW231980   8.184   8.241   7.317  0.7123 -0.2039  0.0619
42540SOL     OW31981   9.619   7.466   0.450  0.0360  0.0333 -0.0838
42540SOL    HW131982   9.564   7.468   0.372  0.4350  0.3810 -0.3601
42540SOL    HW231983   9.563   7.497   0.520  0.5883  3.0659 -0.8189
42541SOL     OW31984   3.100   7.916   2.030  0.1082  0.0453  0.7359
42541SOL    HW131985   3.114   7.877   2.116  0.4618  0.8934  1.0739
42541SOL    HW231986   3.188   7.935   1.998  0.1120 -2.0371 -0.6764
42542SOL     OW31987   6.926   2.378   6.244  0.2739  0.4989  0.0163
42542SOL    HW131988   6.925   2.297   6.295  1.8831  2.3016  3.2437
42542SOL    HW231989   6.869   2.360   6.169 -1.6238 -2.6997  1.9727
42543SOL     OW31990   7.695   5.825   0.105 -0.2449  0.0045 -0.3421
42543SOL    HW131991   7.724   5.873   0.182 -2.5835 -0.2635  0.7815
42543SOL    HW231992   7.760   5.756   0.094  0.5558  0.5253  0.8980
42544SOL     OW31993   3.464   9.213   9.491 -0.0964 -0.1679 -0.5408
42544SOL    HW131994   3.425   9.206   9.404 -0.6079 -0.1361 -0.3167
42544SOL    HW231995   3.491   9.305   9.498 -0.8501  0.0418 -0.3332
42545SOL     OW31996   7.451   7.709   8.459 -0.4445 -0.1841 -0.1800
42545SOL    HW131997   7.510   7.725   8.386  0.9466 -1.2806  0.6528
42545SOL    HW231998   7.370   7.677   8.418 -0.2316  0.6232 -1.2907
42546SOL     OW31999   8.547   5.678   2.489  0.7679  0.0719 -0.1110
42546SOL    HW132000   8.515   5.716   2.571 -0.1332 -0.1265 -0.3654
42546SOL    HW232001   8.579   5.754   2.439  0.9604  0.2386  0.2572
42547SOL     OW32002   4.206   9.602  10.891 -0.3172 -0.2667 -0.0027
42547SOL    HW132003   4.264   9.574  10.962  1.1713 -0.7447 -1.3642
42547SOL    HW232004   4.251   9.675  10.849 -0.0851 -1.3958 -1.8298
42548SOL     OW32005   0.860  10.332   9.531  0.3728 -0.1688 -0.5955
42548SOL    HW132006   0.866  10.257   9.472  0.3284 -1.3817  0.8923
42548SOL    HW232007   0.943  10.333   9.578 -0.1617 -0.1437  0.3780
42549SOL     OW32008   3.195   7.305   0.486  0.0510 -0.4074 -0.2275
42549SOL    HW132009   3.149   7.235   0.440  1.0428 -0.8068 -0.6252
42549SOL    HW232010   3.139   7.324   0.562 -0.7311 -0.9228 -0.6600
42550SOL     OW32011   0.987   2.309   5.012 -0.0401 -0.5906 -0.6106
42550SOL    HW132012   0.921   2.244   4.989  0.6830 -1.4260 -0.3960
42550SOL    HW232013   1.066   2.280   4.966 -0.1164  1.0957 -1.8941
42551SOL     OW32014  11.004  11.064   8.528 -0.1857 -0.3003  0.0482
42551SOL    HW132015  10.954  11.073   8.610  0.2963 -0.5650  0.3819
42551SOL    HW232016  10.940  11.082   8.459 -0.9929 -1.5759  0.4212
42552SOL     OW32017   8.660   3.951   6.144 -0.7332  0.7133  0.8218
42552SOL    HW132018   8.687   3.862   6.168 -0.9027  0.6618  0.8245
42552SOL    HW232019   8.585   3.970   6.201  0.2051  1.4275  1.8624
42553SOL     OW32020   0.672   2.949   0.946 -0.1692 -0.3178  0.6996
42553SOL    HW132021   0.719   2.867   0.960 -0.0274 -0.0605  1.8396
42553SOL    HW232022   0.597   2.944   1.006 -1.4215 -0.5625 -0.8089
42554SOL     OW32023   7.047   6.748  10.367 -0.0021  0.2819 -0.6362
42554SOL    HW132024   7.104   6.784  10.299 -0.4008  1.7067 -0.2560
42554SOL    HW232025   7.103   6.690  10.418  0.4060 -0.4691 -1.9038
42555SOL     OW32026   4.862   3.140   1.026  0.5311 -0.0172  0.4785
42555SOL    HW132027   4.896   3.192   0.953 -2.9075  0.0098 -1.2906
42555SOL    HW232028   4.811   3.201   1.078 -0.8870 -0.9285  0.2170
42556SOL     OW32029   1.586   1.949   4.561  0.2102 -0.1768  0.2242
42556SOL    HW132030   1.546   2.026   4.521  0.2635 -0.5313 -0.5286
42556SOL    HW232031   1.626   1.902   4.488  0.9188 -0.4790  0.7955
42557SOL     OW32032   3.061   9.448  10.570  0.1350  0.4526 -0.0906
42557SOL    HW132033   3.062   9.353  10.557  0.1749  0.4028  0.2612
42557SOL    HW232034   3.036   9.459  10.662  2.0770  0.7110  0.4503
42558SOL     OW32035   5.425   8.447   7.414 -0.3516 -0.5176 -0.4130
42558SOL    HW132036   5.491   8.380   7.400  1.1329  0.3387  1.9595
42558SOL    HW232037   5.381   8.422   7.495 -0.2415  0.9651  0.1470
42559SOL     OW32038   1.804   5.821   8.877 -0.2567  0.4045  0.2779
42559SOL    HW132039   1.759   5.884   8.933 -0.4588  2.4487 -2.0335
42559SOL    HW232040   1.738   5.755   8.857 -1.3902  1.7564 -0.6436
42560SOL     OW32041   2.410   2.758   8.533 -0.4200  0.1987  0.1792
42560SOL    HW132042   2.331   2.711   8.558  0.1213 -0.4582  0.6972
42560SOL    HW232043   2.422   2.823   8.602  0.7641 -1.2470  1.4106
42561SOL     OW32044   7.352   5.635   4.937 -0.3291 -0.1579  0.1618
42561SOL    HW132045   7.303   5.578   4.996 -2.0242 -1.2563 -2.1768
42561SOL    HW232046   7.406   5.575   4.884 -0.8421  0.5190 -1.1770
42562SOL     OW32047   2.708   7.220   2.678  0.4001 -0.0261  0.1292
42562SOL    HW132048   2.683   7.129   2.665 -0.5883  0.5168 -2.3251
42562SOL    HW232049   2.648   7.270   2.623  0.6108  2.1841  1.7630
42563SOL     OW32050   7.239   6.433   5.749  0.0776  0.0093 -0.1898
42563SOL    HW132051   7.259   6.527   5.758  0.1944  0.1328 -1.5308
42563SOL    HW232052   7.247   6.416   5.655  1.2736 -1.6225  0.1654
42564SOL     OW32053   0.595   7.326   3.367  0.1956  0.3934  0.4690
42564SOL    HW132054   0.642   7.372   3.297 -0.4908  0.0562 -0.2261
42564SOL    HW232055   0.656   7.259   3.398 -0.5705 -1.5998 -1.9993
42565SOL     OW32056   4.239   5.890   1.107  0.3104 -0.2031 -0.3434
42565SOL    HW132057   4.329   5.908   1.081  0.5256 -0.2279  0.3862
42565SOL    HW232058   4.236   5.795   1.117  0.1213 -0.2325 -0.6407
42566SOL     OW32059   4.499   3.337  10.596  0.2603  0.2672  0.0809
42566SOL    HW132060   4.559   3.412  10.594  1.0249 -0.3580 -1.0758
42566SOL    HW232061   4.412   3.377  10.607  0.6494  1.3256 -0.5107
42567SOL     OW32062   2.696   4.790   0.944 -0.2303  0.8118 -0.1436
42567SOL    HW132063   2.786   4.783   0.911 -0.8031  0.9753 -1.8607
42567SOL    HW232064   2.706   4.808   1.037  1.5005 -0.9783  0.0907
42568SOL     OW32065   6.368   4.442   4.828 -0.2689  0.3065 -0.0123
42568SOL    HW132066   6.272   4.441   4.822 -0.1939 -0.2842 -1.6048
42568SOL    HW232067   6.397   4.461   4.739  1.1078 -0.8313  0.1594
42569SOL     OW32068   8.296   6.932   0.753  0.2880 -0.0050  0.2077
42569SOL    HW132069   8.348   7.011   0.762 -0.0562  0.2529 -0.0650
42569SOL    HW232070   8.229   6.954   0.688  0.8548 -0.8609 -0.6976
42570SOL     OW32071   1.112   0.504   7.757 -0.1737 -0.0456  0.1542
42570SOL    HW132072   1.128   0.413   7.782 -1.9869 -0.5600 -0.3804
42570SOL    HW232073   1.062   0.498   7.675 -0.5382  1.4205  0.2403
42571SOL     OW32074   9.698   0.415   5.257  0.2601 -0.0241  0.2182
42571SOL    HW132075   9.630   0.468   5.297  2.1055  0.6621  2.7105
42571SOL    HW232076   9.673   0.408   5.165 -1.9166  2.0933  0.5646
42572SOL     OW32077   8.223   7.178   9.515 -0.8387 -0.5788 -0.1440
42572SOL    HW132078   8.271   7.251   9.555 -0.1773 -1.7086  1.2436
42572SOL    HW232079   8.228   7.193   9.421  0.3375  0.5171  0.0742
42573SOL     OW32080  10.701  10.842   5.357  0.4473  0.0345  0.4438
42573SOL    HW132081  10.618  10.884   5.379 -0.7365 -1.1395 -1.5186
42573SOL    HW232082  10.765  10.913   5.358 -1.1737  1.6110 -1.1842
42574SOL     OW32083   6.057   8.624   1.473 -0.1280 -0.2382  0.3558
42574SOL    HW132084   5.991   8.653   1.536  0.1403  0.7784  0.1917
42574SOL    HW232085   6.015   8.553   1.424 -1.4937  1.0659 -0.4480
42575SOL     OW32086   7.684   6.103   1.450 -0.2501 -0.6945 -0.5130
42575SOL    HW132087   7.668   6.149   1.533 -1.3679 -0.6829 -0.7240
42575SOL    HW232088   7.706   6.173   1.388  0.4586 -0.6905 -0.2623
42576SOL     OW32089   6.653   1.565   6.755  0.6622  0.4767  0.2024
42576SOL    HW132090   6.670   1.540   6.664 -0.9967  3.1503 -0.9422
42576SOL    HW232091   6.681   1.656   6.761  0.7292  0.3707  2.4094
42577SOL     OW32092   3.140   6.143   5.911  0.1143 -0.0328  0.2557
42577SOL    HW132093   3.119   6.221   5.963 -0.5010  1.1837 -1.7259
42577SOL    HW232094   3.235   6.146   5.902 -0.0430  1.7930 -1.6098
42578SOL     OW32095   5.790   5.796   4.590  0.3485  0.1431  0.0809
42578SOL    HW132096   5.879   5.784   4.624  0.8728  1.6280 -0.6822
42578SOL    HW232097   5.795   5.768   4.499 -0.3157 -1.0033  0.3777
42579SOL     OW32098   8.969   5.581   5.890 -0.5834  0.3393 -0.6444
42579SOL    HW132099   8.995   5.514   5.953 -0.3673  1.3502  0.3636
42579SOL    HW232100   8.892   5.545   5.847 -0.7752 -0.3419  0.2448
42580SOL     OW32101   1.756   2.838   9.591  0.9156 -0.2702 -0.1372
42580SOL    HW132102   1.730   2.861   9.681  2.7340  0.3354  0.2762
42580SOL    HW232103   1.842   2.879   9.580  0.3779  0.3501 -2.4637
42581SOL     OW32104   9.382   3.325   1.966 -0.2722 -0.4570 -0.0074
42581SOL    HW132105   9.321   3.387   1.926 -0.8789 -1.0055  0.0527
42581SOL    HW232106   9.456   3.321   1.904 -1.5026 -1.8190 -1.4974
42582SOL     OW32107   8.174   7.421   4.189  0.2808  0.1408 -0.2237
42582SOL    HW132108   8.193   7.425   4.095  0.4045  0.1007 -0.2006
42582SOL    HW232109   8.219   7.497   4.225  2.0260 -0.9959  0.1142
42583SOL     OW32110  10.165   5.429   8.317 -0.2090  0.4553 -0.2970
42583SOL    HW132111  10.097   5.392   8.260  0.0810  0.3103 -0.5490
42583SOL    HW232112  10.176   5.519   8.285 -0.3561  0.5137 -0.1867
42584SOL     OW32113   4.750   3.648   8.268  0.3201 -0.0388  0.8653
42584SOL    HW132114   4.715   3.586   8.332  0.5129  0.2212  1.2286
42584SOL    HW232115   4.836   3.612   8.245 -1.5391 -2.8727 -2.9830
42585SOL     OW32116   3.931   7.594   3.568  0.0495  0.1405 -0.1353
42585SOL    HW132117   3.904   7.528   3.632  0.3503  0.7614  0.6446
42585SOL    HW232118   3.971   7.663   3.620  0.2628  0.6811 -0.9962
42586SOL     OW32119   1.076   8.287   8.478 -0.7588 -0.2850  0.2264
42586SOL    HW132120   1.121   8.203   8.468  0.6518  0.3838  0.6858
42586SOL    HW232121   0.988   8.264   8.509  0.3947 -1.5451  2.9294
42587SOL     OW32122   6.681   2.292   0.241  0.2757 -0.1136 -0.0362
42587SOL    HW132123   6.742   2.302   0.168  0.0958  2.7480  0.0838
42587SOL    HW232124   6.699   2.205   0.276  1.6936 -0.8104 -2.2812
42588SOL     OW32125   8.019   0.509  10.496 -0.0080  0.0631 -0.6294
42588SOL    HW132126   7.982   0.429  10.459 -0.2859  0.2008 -0.6504
42588SOL    HW232127   8.101   0.481  10.536 -0.0336 -0.2058 -0.7647
42589SOL     OW32128   5.187   4.007   4.140 -0.1122 -0.1066  0.0819
42589SOL    HW132129   5.180   4.100   4.119  0.0585 -0.4488 -1.6815
42589SOL    HW232130   5.099   3.982   4.169 -0.0620  0.6600  0.9512
42590SOL     OW32131   0.163   1.065   6.341 -0.1596  0.1879  0.3495
42590SOL    HW132132   0.136   0.983   6.381 -1.3407  0.6800  0.6062
42590SOL    HW232133   0.153   1.130   6.410 -2.5107  1.1012 -0.7621
42591SOL     OW32134   8.633   4.446   4.040  0.5062  0.0807 -0.3593
42591SOL    HW132135   8.609   4.529   3.998 -0.4731 -0.3416 -0.6423
42591SOL    HW232136   8.640   4.468   4.133 -1.8443  0.0771 -0.1199
42592SOL     OW32137   8.017   9.492   5.908 -0.0562  0.2718 -0.4466
42592SOL    HW132138   7.961   9.459   5.979  0.7854 -0.8130 -0.2728
42592SOL    HW232139   8.045   9.578   5.939  0.7522 -0.4111  0.8273
42593SOL     OW32140   2.040   2.655   3.389  0.2024  0.4512 -0.0538
42593SOL    HW132141   2.058   2.747   3.369  3.3604 -0.3515 -1.4905
42593SOL    HW232142   2.091   2.637   3.468  1.1482 -0.4842 -0.8502
42594SOL     OW32143   4.730   8.870  10.293 -0.2585  0.2982  0.1402
42594SOL    HW132144   4.676   8.880  10.371  1.4859 -2.5745  1.9369
42594SOL    HW232145   4.776   8.953  10.285  0.0058  0.4826  2.6671
42595SOL     OW32146   8.688   7.111   6.784 -0.1716  0.0952  0.1417
42595SOL    HW132147   8.635   7.097   6.706  2.3444 -1.6039 -1.3858
42595SOL    HW232148   8.742   7.187   6.763  1.0781 -0.8442 -0.1597
42596SOL     OW32149   1.716   5.704   4.012 -0.5683  0.0605  0.1355
42596SOL    HW132150   1.749   5.639   4.074  0.2007  1.3483  1.1320
42596SOL    HW232151   1.649   5.752   4.061  0.9511  1.9528  0.5026
42597SOL     OW32152   3.399   6.692   5.367  0.3858  0.4490  0.0622
42597SOL    HW132153   3.427   6.783   5.362 -0.1225  0.5690 -0.9175
42597SOL    HW232154   3.413   6.657   5.280  1.5876 -0.7425  0.7032
42598SOL     OW32155  10.432   9.504   3.221 -0.3754  0.4399  0.1721
42598SOL    HW132156  10.431   9.599   3.208 -2.4238  0.3383 -0.7069
42598SOL    HW232157  10.375   9.489   3.296  0.5812 -0.0656  0.8218
42599SOL     OW32158   0.547   8.330   4.439  0.3734 -0.1020 -0.3046
42599SOL    HW132159   0.628   8.280   4.427  0.0478 -0.9203  0.7413
42599SOL    HW232160   0.571   8.403   4.495  0.3576 -0.4163  0.1106
42600SOL     OW32161   6.637  11.070   5.548 -0.0822 -0.4843  0.1024
42600SOL    HW132162   6.714  11.016   5.564  1.0747  1.5674  1.8786
42600SOL    HW232163   6.602  11.090   5.634 -1.3310  0.4290 -0.5739
42601SOL     OW32164   4.307   8.416   3.061 -0.6778  0.3103  0.1753
42601SOL    HW132165   4.227   8.417   3.008 -0.4706 -1.3927 -0.2385
42601SOL    HW232166   4.276   8.418   3.152 -1.2459 -0.9531  0.0297
42602SOL     OW32167   0.379   1.660   3.316  0.1111 -0.4734 -0.1548
42602SOL    HW132168   0.376   1.730   3.380 -0.2286 -0.8699  0.2713
42602SOL    HW232169   0.295   1.615   3.324 -0.2255 -0.1025 -1.3738
42603SOL     OW32170   4.207   5.028   8.940  0.1456 -0.2611 -0.4301
42603SOL    HW132171   4.230   4.956   8.880 -0.5205 -0.7891 -0.0587
42603SOL    HW232172   4.127   5.066   8.903  1.5029  1.5673 -1.7068
42604SOL     OW32173   0.501   2.512   4.770 -0.1117  0.1236  0.3621
42604SOL    HW132174   0.555   2.554   4.703 -1.3210  1.5680  0.2436
42604SOL    HW232175   0.520   2.419   4.761  1.5189  0.4913 -0.3974
42605SOL     OW32176   4.374   2.179   7.052 -0.4016  0.0279 -0.1983
42605SOL    HW132177   4.456   2.148   7.089 -0.3824 -1.2900 -1.2929
42605SOL    HW232178   4.314   2.105   7.058 -1.3756  0.8121  0.1254
42606SOL     OW32179   3.395   5.203   8.314  0.1887  0.1383  0.5106
42606SOL    HW132180   3.395   5.287   8.358  0.7502 -0.4669  1.7205
42606SOL    HW232181   3.339   5.147   8.368  2.1854 -1.0752  1.4645
42607SOL     OW32182   0.787   6.952   0.049 -0.1618  0.7390  0.2928
42607SOL    HW132183   0.817   6.864   0.073 -0.1169 -0.2438 -2.8605
42607SOL    HW232184   0.694   6.953   0.073 -0.7299 -1.0396 -1.5601
42608SOL     OW32185   0.923   8.471   6.854  0.2672 -0.0030  0.5469
42608SOL    HW132186   0.885   8.537   6.912 -0.0189 -0.1869  0.5685
42608SOL    HW232187   1.016   8.492   6.852  0.1693  0.4327  0.5117
42609SOL     OW32188   5.910   0.306   1.283 -0.5883  0.0217 -0.3223
42609SOL    HW132189   5.852   0.291   1.358  1.6282 -1.0672  1.2515
42609SOL    HW232190   5.957   0.387   1.305 -0.2709 -0.0314 -0.7915
42610SOL     OW32191   3.054   2.863   9.015 -0.6347 -0.3924  0.0186
42610SOL    HW132192   3.143   2.882   9.045 -1.0763 -0.6458  1.5727
42610SOL    HW232193   3.025   2.791   9.070 -2.6289  1.1953  1.1661
42611SOL     OW32194   1.278   5.642   8.791 -0.3429  0.2416  0.1303
42611SOL    HW132195   1.329   5.635   8.872 -1.3525  0.6360  0.8252
42611SOL    HW232196   1.271   5.736   8.775 -0.4040  0.1736 -0.2613
42612SOL     OW32197   3.481   8.211   5.339 -0.4279 -0.2797 -0.3694
42612SOL    HW132198   3.544   8.140   5.330  1.3727  1.2508 -0.3647
42612SOL    HW232199   3.401   8.168   5.370 -0.2008 -2.6193 -2.6747
42613SOL     OW32200   1.405   1.698   1.735  0.4946  0.3619  0.8729
42613SOL    HW132201   1.399   1.681   1.829 -1.1287  0.8806  0.9011
42613SOL    HW232202   1.321   1.740   1.713  0.7974  0.1502 -0.8220
42614SOL     OW32203   4.118   6.832   7.657  0.6754 -0.3227 -0.0476
42614SOL    HW132204   4.033   6.870   7.632  0.2346 -2.3448 -1.8785
42614SOL    HW232205   4.182   6.899   7.633 -0.2872  0.5766 -0.1840
42615SOL     OW32206   4.449   7.371   0.118  0.3900  0.1885 -0.0689
42615SOL    HW132207   4.426   7.464   0.128  1.4157  0.4838 -0.3609
42615SOL    HW232208   4.396   7.326   0.184  2.5445  1.3715  2.6261
42616SOL     OW32209   3.637   3.263   8.557 -0.1997  0.4508  0.5884
42616SOL    HW132210   3.576   3.191   8.570  1.1960 -0.7067  0.9581
42616SOL    HW232211   3.628   3.285   8.464  0.6939 -1.4968 -0.0113
42617SOL     OW32212  10.443   2.975   9.538 -0.1186 -0.1617  0.7020
42617SOL    HW132213  10.517   2.918   9.519  0.4669  0.2466  1.6627
42617SOL    HW232214  10.367   2.930   9.501  0.5244 -0.8850  0.2408
42618SOL     OW32215   4.604   6.296   1.831 -0.0951  0.2534  0.2364
42618SOL    HW132216   4.610   6.244   1.752  0.9073  1.0906 -0.2709
42618SOL    HW232217   4.557   6.241   1.893  2.6843 -2.1595  0.4333
42619SOL     OW32218   9.935   0.207   3.315 -0.1207 -0.0675 -0.2403
42619SOL    HW132219   9.969   0.166   3.394 -0.1135 -1.7096 -1.0547
42619SOL    HW232220   9.855   0.251   3.344 -1.2841 -2.4018  0.3511
42620SOL     OW32221   4.691   1.640   2.482  0.0152  0.4222  0.1493
42620SOL    HW132222   4.631   1.704   2.520 -0.0335  0.5808 -0.1964
42620SOL    HW232223   4.770   1.647   2.535 -0.2945  0.1537  0.6606
42621SOL     OW32224   2.136   3.003   6.339 -0.7158  0.0983  0.4769
42621SOL    HW132225   2.169   2.971   6.423 -1.0184  1.5002  1.1518
42621SOL    HW232226   2.214   3.039   6.296 -0.4839 -0.9701 -0.0434
42622SOL     OW32227   1.078   7.223   0.418  0.2209 -0.2739 -0.1586
42622SOL    HW132228   0.984   7.234   0.412  0.1005 -1.0002  0.3230
42622SOL    HW232229   1.096   7.219   0.512  0.6048 -1.0960 -0.2533
42623SOL     OW32230   3.649   8.815   9.232 -0.4319  0.0106 -0.2522
42623SOL    HW132231   3.563   8.853   9.212 -0.3696  0.5470  0.4672
42623SOL    HW232232   3.660   8.746   9.167  0.5631  2.8310 -3.3947
42624SOL     OW32233   0.608   0.713  10.990  0.1331  0.1611  0.5781
42624SOL    HW132234   0.634   0.803  10.972  2.7119 -0.9659 -2.4117
42624SOL    HW232235   0.517   0.708  10.963  0.2944  1.6485 -0.3293
42625SOL     OW32236   4.660  10.129   8.998 -0.2432 -0.0959 -0.5595
42625SOL    HW132237   4.730  10.089   8.945 -0.8504 -0.9549 -0.7360
42625SOL    HW232238   4.624  10.198   8.943 -0.6772 -0.7961 -1.1728
42626SOL     OW32239   9.347   0.354   5.720  0.2955  1.0525  0.5138
42626SOL    HW132240   9.271   0.321   5.671  0.5431 -0.4058  1.0547
42626SOL    HW232241   9.402   0.277   5.732  1.3093  1.8586  1.1439
42627SOL     OW32242   7.209   5.542  10.319 -0.0020 -0.2841 -0.2392
42627SOL    HW132243   7.213   5.573  10.410 -1.6248  1.2943 -0.6463
42627SOL    HW232244   7.280   5.589  10.276 -1.0435  1.2711 -0.3602
42628SOL     OW32245   4.034   4.743   3.039 -0.4853 -0.1686 -0.1391
42628SOL    HW132246   4.072   4.830   3.051  0.7328 -0.5534 -1.0314
42628SOL    HW232247   4.005   4.742   2.948  0.6176 -1.1039 -0.4941
42629SOL     OW32248   6.862   0.354   2.890 -0.1639  0.0423  0.5484
42629SOL    HW132249   6.865   0.356   2.986  1.0482  0.7778  0.5075
42629SOL    HW232250   6.952   0.336   2.863 -0.0216  2.0045 -0.4912
42630SOL     OW32251   5.925   8.997   6.116  0.3031  0.9043 -0.4824
42630SOL    HW132252   5.961   9.006   6.204  2.2463 -0.2768 -1.0789
42630SOL    HW232253   5.997   8.959   6.065 -0.9212  1.1119 -2.4695
42631SOL     OW32254   6.327   1.009   2.475  0.1308  0.0558  0.2989
42631SOL    HW132255   6.412   1.018   2.517  0.3255 -1.1543  0.2170
42631SOL    HW232256   6.299   1.098   2.456  0.1086  0.6603  2.8241
42632SOL     OW32257   1.951  10.803  10.153 -0.2235  0.0113 -0.2710
42632SOL    HW132258   1.921  10.769  10.238  0.9847  1.0932  0.6284
42632SOL    HW232259   2.035  10.759  10.138  0.1971  0.7832 -0.2492
42633SOL     OW32260   5.587   7.734   2.433 -0.4618 -0.2788  0.2403
42633SOL    HW132261   5.628   7.787   2.364  0.4328  0.0951  1.0411
42633SOL    HW232262   5.558   7.655   2.388  0.4503 -0.2119 -0.5010
42634SOL     OW32263   8.629   8.301   6.474  0.0165  0.2955 -0.1633
42634SOL    HW132264   8.585   8.216   6.462 -0.8286  0.8268 -0.9480
42634SOL    HW232265   8.686   8.288   6.549 -1.9287 -0.2555  1.2843
42635SOL     OW32266   0.842   3.613   3.691  0.6172  0.3187 -0.8189
42635SOL    HW132267   0.788   3.657   3.757 -2.3496  0.3488 -3.0347
42635SOL    HW232268   0.852   3.678   3.622  0.6642 -0.7850 -1.8798
42636SOL     OW32269   4.445   3.663   0.082 -0.4832  0.0701 -0.1416
42636SOL    HW132270   4.350   3.678   0.082 -0.2901  1.4189  0.2248
42636SOL    HW232271   4.480   3.728   0.021  0.3945  1.0455  1.3427
42637SOL     OW32272   0.296   3.495   7.690 -0.1562  0.2656  0.0731
42637SOL    HW132273   0.262   3.541   7.613 -0.9226  1.1546  0.9151
42637SOL    HW232274   0.346   3.562   7.737  0.5912 -0.3594  0.1905
42638SOL     OW32275   5.037   8.870   7.822 -0.2062 -0.6027  0.3443
42638SOL    HW132276   5.007   8.821   7.746 -1.1360  1.7007 -0.8726
42638SOL    HW232277   5.114   8.917   7.791 -0.1721 -0.1818  1.0484
42639SOL     OW32278  10.868  10.308   3.159 -0.5297 -0.0140  0.5699
42639SOL    HW132279  10.804  10.248   3.197 -0.2585 -0.8198 -0.1998
42639SOL    HW232280  10.909  10.351   3.234 -1.6540  0.1921  1.0858
42640SOL     OW32281   1.469   7.806   0.637  0.0079  0.2846  0.2472
42640SOL    HW132282   1.496   7.721   0.672 -0.3710  0.3137  0.6267
42640SOL    HW232283   1.548   7.860   0.642  0.1427  0.0767  0.3959
42641SOL     OW32284   9.060   2.350   5.182  0.0467  0.0060  0.3782
42641SOL    HW132285   8.987   2.296   5.212 -0.6525  0.1853 -0.9085
42641SOL    HW232286   9.093   2.392   5.261 -1.3193 -0.0079  0.9857
42642SOL     OW32287   3.371   0.752   0.572 -0.4138 -0.2073  0.4109
42642SOL    HW132288   3.395   0.684   0.509  1.5316 -0.8573  1.7733
42642SOL    HW232289   3.288   0.721   0.609 -0.8215 -0.5611 -0.7482
42643SOL     OW32290   3.340   4.599   0.775 -0.0021 -0.3485 -0.1134
42643SOL    HW132291   3.355   4.674   0.832  0.3812  0.1432 -0.8539
42643SOL    HW232292   3.427   4.565   0.755 -0.1751 -1.0751  0.3150
42644SOL     OW32293   0.217   0.286   0.318 -0.2462 -0.4497 -0.1626
42644SOL    HW132294   0.291   0.228   0.300 -0.2237 -0.8987  1.2493
42644SOL    HW232295   0.176   0.249   0.396  0.2404  1.8611  1.2721
42645SOL     OW32296   5.791   6.855   4.752  0.3387  0.0582  0.0592
42645SOL    HW132297   5.849   6.847   4.828  0.0236 -0.4972  0.2442
42645SOL    HW232298   5.726   6.920   4.779 -1.2508 -1.8930  1.2461
42646SOL     OW32299   1.284   3.461   6.698  0.2639  0.1425  0.3072
42646SOL    HW132300   1.235   3.530   6.653  2.8535  2.3243  0.5907
42646SOL    HW232301   1.371   3.463   6.658  0.7361 -2.3063  1.0602
42647SOL     OW32302   9.000   8.487   0.353 -0.0404 -0.2244  0.5296
42647SOL    HW132303   8.956   8.514   0.434 -0.2528 -0.1969  0.4059
42647SOL    HW232304   9.015   8.394   0.364  1.0996  0.0155  1.1513
42648SOL     OW32305   7.384   9.962   9.819 -0.0698 -0.5507 -0.5430
42648SOL    HW132306   7.388  10.038   9.760 -0.5476  0.8652  1.1771
42648SOL    HW232307   7.296   9.927   9.807 -0.3175  0.0009 -0.3550
42649SOL     OW32308   4.923  10.605  10.333  0.2745 -0.2248  0.0574
42649SOL    HW132309   4.844  10.572  10.376  0.3219 -1.3035 -0.6408
42649SOL    HW232310   4.913  10.700  10.334 -0.2148 -0.2703  1.5035
42650SOL     OW32311   9.890   4.051   2.130  0.3308 -0.1237  0.1065
42650SOL    HW132312   9.815   4.077   2.184  1.2737  1.2046  0.8262
42650SOL    HW232313   9.870   3.961   2.103 -1.5231  0.2079  0.2596
42651SOL     OW32314   5.215  10.483   8.468 -0.2052  0.1677  0.3291
42651SOL    HW132315   5.130  10.488   8.424  0.0906  0.8760 -0.1778
42651SOL    HW232316   5.278  10.512   8.402  0.4126 -0.2003  0.7520
42652SOL     OW32317  10.136   0.269  10.032 -0.4877 -0.1116  0.2970
42652SOL    HW132318  10.098   0.222  10.106 -1.1130  1.8772  1.3106
42652SOL    HW232319  10.107   0.359  10.044  2.5340  1.0396 -0.2659
42653SOL     OW32320   9.540   7.365   2.175 -0.0679 -0.2433  0.0071
42653SOL    HW132321   9.522   7.297   2.241 -0.1731  0.3643  0.6097
42653SOL    HW232322   9.477   7.434   2.194 -1.1637 -0.7033 -1.7199
42654SOL     OW32323   4.532   2.488   6.003  0.1164  0.3809 -0.9300
42654SOL    HW132324   4.463   2.513   6.064  1.0145 -0.3051  0.4121
42654SOL    HW232325   4.594   2.560   6.007  1.4728 -0.8042  1.0389
42655SOL     OW32326   0.286   1.048  10.511 -0.1705  0.7875 -0.0044
42655SOL    HW132327   0.220   0.978  10.509 -0.4056  1.0026  0.2035
42655SOL    HW232328   0.368   1.004  10.489 -0.1560  0.2718  1.0380
42656SOL     OW32329   2.553  10.298  11.011  0.7102  0.2761  0.4122
42656SOL    HW132330   2.567  10.208  10.981 -0.2262  0.3781 -0.3777
42656SOL    HW232331   2.482  10.291  11.076  1.8465  0.2290  1.6947
42657SOL     OW32332   7.551   7.563  10.253 -0.2649  0.2454  0.4728
42657SOL    HW132333   7.610   7.628  10.292  0.0750  0.9998 -1.2047
42657SOL    HW232334   7.531   7.598  10.166 -0.3967 -1.6989 -0.3243
42658SOL     OW32335   5.311   4.971   7.279 -0.3776 -0.1951  0.3411
42658SOL    HW132336   5.342   5.046   7.227  0.5432 -0.0817  1.0131
42658SOL    HW232337   5.268   5.012   7.355 -1.0673 -0.3557  0.0400
42659SOL     OW32338   3.460   6.463  10.247 -0.1110 -0.2493 -0.0556
42659SOL    HW132339   3.375   6.508  10.248  0.2225  0.4035 -0.0672
42659SOL    HW232340   3.523   6.532  10.268  0.5613 -0.4259 -1.4271
42660SOL     OW32341   9.287   1.456   6.755  0.1678  0.1904  0.2074
42660SOL    HW132342   9.281   1.372   6.708 -1.7868  0.1101  0.5176
42660SOL    HW232343   9.319   1.432   6.842  5.6120  0.5255 -1.3272
42661SOL     OW32344   6.950   2.370   0.444 -0.1512 -0.1330  0.3949
42661SOL    HW132345   6.917   2.289   0.484  0.3555 -0.3162  0.4485
42661SOL    HW232346   7.043   2.371   0.466  0.5178 -1.0329 -2.0910
42662SOL     OW32347   2.426   5.238   3.607 -0.4163  0.1568  0.2400
42662SOL    HW132348   2.457   5.264   3.520 -1.1012  2.0556  0.5108
42662SOL    HW232349   2.500   5.191   3.645 -0.0635 -0.6258 -1.3168
42663SOL     OW32350   0.782   4.426   6.860  0.5474  0.2509 -0.3432
42663SOL    HW132351   0.775   4.478   6.780  0.2723  0.4277 -0.2067
42663SOL    HW232352   0.774   4.335   6.831 -2.0025  0.3767 -0.2778
42664SOL     OW32353   0.390  10.062   4.280  0.4151 -0.4752  0.8877
42664SOL    HW132354   0.428  10.132   4.228  0.8310 -0.5138  1.1350
42664SOL    HW232355   0.335  10.107   4.344  3.2991 -0.0690  3.2990
42665SOL     OW32356  10.771   3.817   0.031 -0.2752 -0.0015 -0.2525
42665SOL    HW132357  10.785   3.830   0.124  3.4855  0.6874 -0.7807
42665SOL    HW232358  10.758   3.905  -0.004  0.9317  0.0240 -0.6770
42666SOL     OW32359   6.438  10.722   4.528 -0.3439 -0.3957 -0.4279
42666SOL    HW132360   6.375  10.793   4.510 -0.9752 -0.7815  0.1732
42666SOL    HW232361   6.421  10.700   4.620  1.3201  0.1133  0.0279
42667SOL     OW32362   3.715   3.515   0.730 -0.1052 -0.0683 -0.2423
42667SOL    HW132363   3.652   3.446   0.710 -1.0969  0.4340  0.9838
42667SOL    HW232364   3.673   3.595   0.698  0.0406  0.2351  0.3133
42668SOL     OW32365   6.284   4.177   3.983 -0.4348 -0.5309 -0.1550
42668SOL    HW132366   6.248   4.159   3.895  2.2138  1.5540 -1.8231
42668SOL    HW232367   6.334   4.098   4.004  0.2906 -0.4146 -1.3344
42669SOL     OW32368   6.393   3.522   6.551 -0.0616  0.2465 -0.6528
42669SOL    HW132369   6.355   3.491   6.469  1.0405  0.9564 -1.4619
42669SOL    HW232370   6.375   3.453   6.615 -0.0343 -0.7883 -1.7425
42670SOL     OW32371   6.382   3.264   4.801  0.2110 -0.1945 -0.6205
42670SOL    HW132372   6.401   3.196   4.866  0.3197  0.5349  0.1275
42670SOL    HW232373   6.294   3.294   4.823  0.4696  0.4527 -0.4483
42671SOL     OW32374   4.015   4.245   5.025  0.0892  0.1741  0.1957
42671SOL    HW132375   4.094   4.234   4.971 -0.8297 -0.2354 -1.1250
42671SOL    HW232376   4.009   4.165   5.076  0.2712 -0.0042 -0.0606
42672SOL     OW32377   6.251   4.414  10.831 -0.3196  0.0917 -0.2689
42672SOL    HW132378   6.163   4.404  10.868 -0.0897 -1.4232 -0.0297
42672SOL    HW232379   6.259   4.339  10.771  0.3556  0.9251 -1.2395
42673SOL     OW32380   0.747   7.517   9.021  0.1488 -0.1326 -0.4407
42673SOL    HW132381   0.739   7.562   8.936  0.6206  0.6731 -0.0717
42673SOL    HW232382   0.838   7.532   9.047 -0.7004  2.1630  1.5596
42674SOL     OW32383   6.783   4.198   0.180  0.2698  0.1546 -0.0264
42674SOL    HW132384   6.875   4.224   0.187  0.4742 -0.4100 -0.5743
42674SOL    HW232385   6.770   4.184   0.086 -0.5386  0.8142 -0.0177
42675SOL     OW32386   3.267   3.508   5.514 -0.3120  0.1511  0.0712
42675SOL    HW132387   3.262   3.571   5.586  0.3393  0.6944 -0.3451
42675SOL    HW232388   3.331   3.545   5.454  0.7589 -1.3327  0.2382
42676SOL     OW32389   7.834   4.803   9.159 -0.0959 -0.4813  0.3768
42676SOL    HW132390   7.765   4.867   9.176 -0.9114 -1.1902 -0.1924
42676SOL    HW232391   7.808   4.726   9.209 -0.0304 -0.9524 -0.2996
42677SOL     OW32392   3.142   8.850   3.074 -0.9820  0.4836 -0.0448
42677SOL    HW132393   3.140   8.942   3.101  1.6590  0.3257  1.0139
42677SOL    HW232394   3.162   8.853   2.980  0.1512  1.0292  0.1932
42678SOL     OW32395   4.740  10.529  10.536  0.7259  0.2292 -0.1008
42678SOL    HW132396   4.652  10.499  10.513  0.8719  0.5126 -1.0443
42678SOL    HW232397   4.739  10.533  10.632 -0.1774 -0.0968 -0.0855
42679SOL     OW32398   0.222   6.134  10.694 -0.0401  0.9190 -0.4022
42679SOL    HW132399   0.306   6.148  10.738  1.0934 -2.4618 -1.1429
42679SOL    HW232400   0.229   6.046  10.656 -3.8093  0.6201 -0.8294
42680SOL     OW32401   1.558   4.171   5.245  0.1179 -0.4811  0.3414
42680SOL    HW132402   1.531   4.223   5.320 -0.8704 -0.4000 -0.0434
42680SOL    HW232403   1.493   4.192   5.177 -0.3991 -2.2810  0.2207
42681SOL     OW32404   6.258   9.242   1.006 -0.4720  0.1333  0.7216
42681SOL    HW132405   6.215   9.195   0.935  1.8795 -0.3122 -0.4994
42681SOL    HW232406   6.263   9.178   1.078  0.6378 -0.7336 -0.1103
42682SOL     OW32407   8.681   4.858  11.018  0.0686 -0.1069 -0.0020
42682SOL    HW132408   8.683   4.765  10.995 -0.7584  0.4617 -2.8843
42682SOL    HW232409   8.590   4.884  11.005  0.6058  1.4372 -0.9858
42683SOL     OW32410   2.233   4.991   1.662 -0.1041 -0.7033  0.5855
42683SOL    HW132411   2.173   5.065   1.661 -0.1308 -0.7290 -0.0918
42683SOL    HW232412   2.181   4.919   1.698 -0.3820 -0.6465  0.3009
42684SOL     OW32413   1.188   7.725   7.105  0.1834  0.6575  0.1263
42684SOL    HW132414   1.100   7.689   7.115  0.1593  0.8163  0.5141
42684SOL    HW232415   1.244   7.648   7.093 -0.0410  0.5729 -0.3803
42685SOL     OW32416   4.626   5.835  10.956 -0.2453  0.1289 -0.0669
42685SOL    HW132417   4.706   5.860  10.908 -0.6515 -0.5545 -1.1484
42685SOL    HW232418   4.564   5.906  10.937 -0.5998 -0.4262 -1.0991
42686SOL     OW32419   3.009   3.996   3.347  0.2829  0.0517 -0.3417
42686SOL    HW132420   2.965   3.928   3.296 -1.1113  0.9673 -0.4317
42686SOL    HW232421   2.967   4.078   3.319  1.1996  0.8348  0.5009
42687SOL     OW32422   7.949   7.271   4.706  0.2199 -0.1012  0.2023
42687SOL    HW132423   7.892   7.285   4.630 -0.0271  1.1488  0.6018
42687SOL    HW232424   7.947   7.176   4.719  0.2675 -0.3488 -1.3434
42688SOL     OW32425  10.379   1.599   5.599  0.0031 -0.4765 -0.3532
42688SOL    HW132426  10.343   1.572   5.515 -0.4771  0.1746 -0.3566
42688SOL    HW232427  10.467   1.560   5.601 -0.7605 -2.2781 -0.2408
42689SOL     OW32428  10.223   6.822   0.813 -0.0556 -0.0498 -0.8767
42689SOL    HW132429  10.211   6.825   0.719 -1.1816 -2.7937 -0.9142
42689SOL    HW232430  10.145   6.864   0.849 -0.8132 -1.1422 -1.1964
42690SOL     OW32431   1.127   9.148   8.477  0.0983 -0.1915  0.0750
42690SOL    HW132432   1.155   9.175   8.390 -1.6190 -1.3092 -0.8879
42690SOL    HW232433   1.133   9.053   8.475  0.9028 -0.1987  1.5257
42691SOL     OW32434   3.242   3.072   8.126  0.0437 -0.5074 -0.7440
42691SOL    HW132435   3.312   3.006   8.121 -0.3665 -1.2447  1.7812
42691SOL    HW232436   3.288   3.156   8.125  0.8899 -0.9506 -0.0857
42692SOL     OW32437   3.230  10.535   3.896  0.2917 -0.1153 -0.1782
42692SOL    HW132438   3.188  10.475   3.958 -0.7787  0.7052 -0.0674
42692SOL    HW232439   3.163  10.549   3.829  1.0117 -0.0638 -0.8992
42693SOL     OW32440   6.030   0.283   7.448  0.1851 -0.2745 -0.1356
42693SOL    HW132441   6.038   0.364   7.498 -0.1469  0.5776 -1.4080
42693SOL    HW232442   6.114   0.239   7.460 -0.2237 -0.5857  1.9353
42694SOL     OW32443  10.979   1.840   2.712  0.7610 -0.1835  0.1324
42694SOL    HW132444  10.976   1.797   2.797 -0.4271 -1.6745 -0.6026
42694SOL    HW232445  10.989   1.768   2.649 -1.2782  0.5642 -1.1435
42695SOL     OW32446   1.912   9.442   2.120 -0.1310  0.0764 -0.9394
42695SOL    HW132447   1.950   9.529   2.137  1.3084 -1.0249  2.3588
42695SOL    HW232448   1.835   9.439   2.177  0.8597 -1.3468  0.4295
42696SOL     OW32449   7.988   0.636   2.296 -0.1585  0.5706  0.3555
42696SOL    HW132450   8.019   0.546   2.294  0.3963  0.7536  0.5195
42696SOL    HW232451   7.918   0.639   2.230 -1.7319 -0.5099  1.8938
42697SOL     OW32452   4.718   7.135   1.980  0.8004 -0.0717  0.1850
42697SOL    HW132453   4.637   7.098   2.014  0.6600 -1.6696 -1.7035
42697SOL    HW232454   4.715   7.227   2.006 -1.5826 -0.0966  0.2089
42698SOL     OW32455   5.405   6.878   1.261  0.3030  0.6692 -0.0665
42698SOL    HW132456   5.321   6.914   1.288 -0.5058 -0.4399 -1.0017
42698SOL    HW232457   5.399   6.873   1.165  1.3252  0.3040 -0.1241
42699SOL     OW32458   2.707   7.915   1.316  0.8843 -0.1355  0.4868
42699SOL    HW132459   2.677   7.890   1.404  1.1978  0.6377  0.8305
42699SOL    HW232460   2.715   7.832   1.269 -2.1389 -0.4079  0.2219
42700SOL     OW32461   8.378   1.819   2.382 -0.3650  0.0812 -0.0662
42700SOL    HW132462   8.305   1.867   2.344 -1.1643 -0.1820  1.0847
42700SOL    HW232463   8.414   1.878   2.448  0.0993 -0.0209 -0.2227
42701SOL     OW32464   5.964   5.432   7.782 -0.1492  0.2245 -0.0697
42701SOL    HW132465   5.909   5.504   7.753 -0.6367  0.2408  0.8452
42701SOL    HW232466   6.032   5.473   7.835 -0.8494 -0.0191  1.0675
42702SOL     OW32467   8.439   4.407   8.887 -0.2902  0.2149  0.6782
42702SOL    HW132468   8.363   4.365   8.847 -1.0201  1.9524  0.1307
42702SOL    HW232469   8.474   4.464   8.818 -0.0579  1.3833  1.7199
42703SOL     OW32470   2.497   2.381   4.094  0.3403  0.0377  0.7759
42703SOL    HW132471   2.539   2.467   4.103  0.1552  0.1440  0.6354
42703SOL    HW232472   2.434   2.393   4.023 -0.4034  0.0711  1.4240
42704SOL     OW32473   0.062   2.264   0.507  0.2197 -0.2587  0.1202
42704SOL    HW132474   0.059   2.295   0.597 -1.3236  0.2927 -0.0928
42704SOL    HW232475   0.067   2.343   0.454 -0.0467 -0.5195 -0.3053
42705SOL     OW32476   6.569  10.358   5.354  0.3589  0.2486  0.1694
42705SOL    HW132477   6.540  10.313   5.275  0.6193  0.2407  0.0765
42705SOL    HW232478   6.532  10.306   5.426 -2.7344  2.1024  0.0843
42706SOL     OW32479   5.092   5.141   1.947 -0.2676 -0.1112  0.5509
42706SOL    HW132480   5.101   5.045   1.950  0.6032 -0.0205  2.4472
42706SOL    HW232481   5.030   5.161   2.018 -0.5009  0.7361  0.1200
42707SOL     OW32482   8.761   3.663   5.380  0.1044  0.0462  0.0498
42707SOL    HW132483   8.706   3.703   5.447 -0.8225 -1.5928  0.3061
42707SOL    HW232484   8.700   3.621   5.320  1.0524 -1.8025  0.3210
42708SOL     OW32485   3.626   4.210   3.883 -0.1593 -0.1467 -0.4233
42708SOL    HW132486   3.702   4.218   3.825  0.4463 -0.0004  0.3708
42708SOL    HW232487   3.662   4.220   3.971 -1.0329 -0.5723 -0.0052
42709SOL     OW32488   9.515   5.979   6.419  0.0420 -0.1649 -0.5346
42709SOL    HW132489   9.610   5.980   6.435 -0.3167 -1.6587  2.2752
42709SOL    HW232490   9.482   6.056   6.465 -0.2289 -0.3946 -0.3386
42710SOL     OW32491   2.954   4.260   3.340 -1.1612 -0.0607  0.2851
42710SOL    HW132492   2.903   4.341   3.343  0.7588  1.2538 -0.5944
42710SOL    HW232493   3.010   4.270   3.263 -0.4090 -1.9627  0.5366
42711SOL     OW32494   6.776   7.344   2.256 -0.2728 -0.1165  0.1443
42711SOL    HW132495   6.691   7.309   2.229 -0.6517 -0.0031  1.1568
42711SOL    HW232496   6.840   7.282   2.222 -0.5402  1.0796 -2.8659
42712SOL     OW32497   2.960  10.534   9.696 -0.3608  0.1332 -0.3874
42712SOL    HW132498   2.944  10.540   9.790  1.7169 -1.2487  0.1140
42712SOL    HW232499   2.885  10.484   9.662 -0.2889 -0.8388  0.8292
42713SOL     OW32500   1.778   3.052   1.666 -0.0894  0.0044  0.2334
42713SOL    HW132501   1.796   2.994   1.592  2.0938 -0.8056  1.3004
42713SOL    HW232502   1.682   3.058   1.669 -0.3048 -1.7803 -1.2471
42714SOL     OW32503   6.046   5.023   6.229  0.1400  0.0128 -0.0843
42714SOL    HW132504   5.955   5.047   6.212  0.0624 -0.8173 -0.9252
42714SOL    HW232505   6.092   5.046   6.148  0.2589 -1.6004 -0.4949
42715SOL     OW32506   4.433   9.641   1.255 -0.0681 -0.2336 -0.1246
42715SOL    HW132507   4.472   9.610   1.336 -1.0108  0.2810  0.5421
42715SOL    HW232508   4.436   9.565   1.197 -0.4084 -0.9464  0.7671
42716SOL     OW32509   4.377   5.395   0.137 -0.3215 -0.4719  0.1974
42716SOL    HW132510   4.372   5.488   0.114 -1.5620  0.0029  2.1301
42716SOL    HW232511   4.374   5.350   0.053  0.2407  1.2185 -0.7877
42717SOL     OW32512   7.163   1.803   5.865 -0.4951 -0.3399 -0.5538
42717SOL    HW132513   7.215   1.743   5.811 -0.2021  0.4203 -1.1323
42717SOL    HW232514   7.172   1.769   5.954 -0.8532 -1.5166 -0.9536
42718SOL     OW32515   6.613   8.095   3.996  0.4286  0.7460 -0.4454
42718SOL    HW132516   6.595   8.145   4.075 -1.5077 -0.1448 -0.2737
42718SOL    HW232517   6.692   8.045   4.017  0.0608  0.6887  0.8642
42719SOL     OW32518   1.622   9.231   8.306  0.3552  0.3955 -0.1366
42719SOL    HW132519   1.543   9.285   8.300  0.6484  0.8931  0.3632
42719SOL    HW232520   1.613   9.168   8.235  1.2870  2.7680 -2.5547
42720SOL     OW32521   3.111   9.396   8.358 -0.4716  0.3304 -0.2638
42720SOL    HW132522   3.177   9.360   8.300 -0.4282 -0.2791  0.1475
42720SOL    HW232523   3.103   9.488   8.333  0.1818  0.2876 -0.6315
42721SOL     OW32524   9.349   9.117   3.382  0.5535  0.5636 -0.1063
42721SOL    HW132525   9.396   9.174   3.443  1.4210  0.6425 -0.8272
42721SOL    HW232526   9.262   9.157   3.374  1.4630  2.4111 -1.4033
42722SOL     OW32527   8.868  10.171   3.912 -0.2225  0.5220  0.1345
42722SOL    HW132528   8.782  10.203   3.939 -0.5051 -0.0600 -0.0590
42722SOL    HW232529   8.889  10.222   3.834 -0.0158  1.2494  0.6556
42723SOL     OW32530  10.102   2.917   7.463  0.3296  0.3590 -0.0885
42723SOL    HW132531  10.074   2.919   7.372  2.3675  0.4083 -0.7663
42723SOL    HW232532  10.109   2.824   7.484 -2.6215  0.2584  0.9174
42724SOL     OW32533   6.857   8.357   1.636  0.4446  0.2186 -0.2705
42724SOL    HW132534   6.783   8.394   1.684 -0.1271 -0.6416 -0.4654
42724SOL    HW232535   6.840   8.381   1.545 -0.1153 -0.7960 -0.4468
42725SOL     OW32536   9.088   7.257   6.992  0.6174  0.1999  0.1513
42725SOL    HW132537   9.095   7.313   6.915 -0.2291 -0.0925 -0.1628
42725SOL    HW232538   9.168   7.205   6.991 -0.0346 -0.8864 -1.4384
42726SOL     OW32539   9.027   1.860   2.564  0.2268  0.1120  0.0295
42726SOL    HW132540   9.119   1.851   2.589  0.0375  1.9904  1.7324
42726SOL    HW232541   8.979   1.815   2.634 -0.1690 -2.0687 -1.5702
42727SOL     OW32542   2.152   2.100   4.391  0.6771  0.4890  0.0638
42727SOL    HW132543   2.074   2.057   4.356  1.8353 -0.1382 -1.9414
42727SOL    HW232544   2.119   2.170   4.446 -1.3217  0.6971 -1.3092
42728SOL     OW32545  10.755   1.958   6.386 -0.1802 -0.2353 -0.0750
42728SOL    HW132546  10.812   1.905   6.442 -0.8575  0.7600  1.6552
42728SOL    HW232547  10.689   1.992   6.446 -1.6700 -0.0719 -1.7369
42729SOL     OW32548  10.342   7.963   6.844 -0.0582  0.7231 -0.2016
42729SOL    HW132549  10.362   7.963   6.751  0.9447 -0.5350 -0.0010
42729SOL    HW232550  10.426   7.980   6.887 -0.2038 -0.2875  0.5122
42730SOL     OW32551   8.612  10.648   0.400 -0.7248  0.0014  0.2327
42730SOL    HW132552   8.577  10.631   0.312  0.6856 -2.2681  0.0255
42730SOL    HW232553   8.535  10.661   0.455 -1.6641  0.2668 -1.0966
42731SOL     OW32554   8.195   9.960   8.540  0.9520 -0.0339 -0.1276
42731SOL    HW132555   8.150   9.915   8.612  0.6646 -0.0459 -0.3121
42731SOL    HW232556   8.287   9.959   8.565  0.9485 -0.7428 -0.1459
42732SOL     OW32557   2.229   6.206   3.669  0.1855 -0.0118  0.0878
42732SOL    HW132558   2.287   6.276   3.639  1.6403 -2.3276 -3.0590
42732SOL    HW232559   2.145   6.226   3.629  0.4307  0.2326 -0.3103
42733SOL     OW32560   5.903   2.133   3.624  0.5515 -0.0097 -0.1454
42733SOL    HW132561   5.877   2.174   3.541 -1.9865  0.5955  0.8224
42733SOL    HW232562   5.974   2.189   3.657  0.5409  0.6552 -1.1886
42734SOL     OW32563   3.007  10.729   8.370 -0.3526  0.1729 -0.5299
42734SOL    HW132564   3.030  10.677   8.447 -0.1893  0.8696 -0.0882
42734SOL    HW232565   3.091  10.753   8.331 -0.4052  0.4067 -0.5075
42735SOL     OW32566   7.078   9.255   7.320 -0.5640  0.2299  0.3603
42735SOL    HW132567   7.034   9.264   7.235  0.5798 -0.9017 -0.3696
42735SOL    HW232568   7.110   9.165   7.322 -0.5393  0.2387  1.9971
42736SOL     OW32569   0.751   4.090   0.116 -0.3006 -0.6064 -0.2683
42736SOL    HW132570   0.796   4.167   0.151  1.1141 -0.3851 -2.4007
42736SOL    HW232571   0.663   4.094   0.153  0.6616  0.3096  2.1024
42737SOL     OW32572   9.218   3.866   0.147 -0.2853 -0.5445  0.1792
42737SOL    HW132573   9.196   3.957   0.129 -2.7835 -1.3682 -1.4711
42737SOL    HW232574   9.230   3.862   0.242  0.5837  1.5917  0.2133
42738SOL     OW32575   3.825  10.861   2.990  0.4110 -0.1020 -0.0453
42738SOL    HW132576   3.747  10.909   3.018  0.6181 -0.0172  0.3816
42738SOL    HW232577   3.792  10.802   2.921 -0.3388 -1.1747  1.1805
42739SOL     OW32578   9.724   3.934   4.692 -0.1198 -0.2637  0.2930
42739SOL    HW132579   9.661   3.967   4.757  0.3613 -0.1377  0.7042
42739SOL    HW232580   9.674   3.872   4.639 -0.8582  0.6043 -0.0474
42740SOL     OW32581   0.687   5.847   1.251  0.6991 -0.1354  0.0124
42740SOL    HW132582   0.615   5.899   1.287  0.3205 -1.5903  1.4811
42740SOL    HW232583   0.644   5.782   1.195  1.0623  0.3168 -0.8057
42741SOL     OW32584   3.640  11.075   4.306 -0.4766  0.0333 -0.3201
42741SOL    HW132585   3.698  11.134   4.355 -1.0996  1.2042 -0.9564
42741SOL    HW232586   3.679  10.989   4.318  0.8848  0.6639  0.0389
42742SOL     OW32587   1.253   2.210   7.490  0.0007  0.1225  0.2417
42742SOL    HW132588   1.302   2.146   7.438 -2.0573 -1.5534  0.2146
42742SOL    HW232589   1.317   2.245   7.552  1.1776 -2.2981  0.5416
42743SOL     OW32590   0.159   7.775   3.210 -0.0935 -0.3402  0.4184
42743SOL    HW132591   0.130   7.684   3.203 -2.2349  0.3246 -0.0817
42743SOL    HW232592   0.142   7.798   3.302  1.3035 -0.6615  0.7919
42744SOL     OW32593  10.487   9.139   3.823  0.3599  0.2460  0.1200
42744SOL    HW132594  10.445   9.207   3.771 -1.0642  0.4643  1.4992
42744SOL    HW232595  10.447   9.058   3.794  0.2213  0.2658  0.2575
42745SOL     OW32596   2.686   2.598   4.136  0.4763 -0.1490 -0.2073
42745SOL    HW132597   2.703   2.617   4.228 -0.9212 -0.4948  0.1439
42745SOL    HW232598   2.673   2.683   4.095  0.0645 -0.0519  0.1291
42746SOL     OW32599   4.869   8.771   5.951  0.2945 -0.1971  0.4130
42746SOL    HW132600   4.937   8.704   5.952 -0.6988 -1.3242 -1.9089
42746SOL    HW232601   4.789   8.725   5.975 -0.6832 -0.3258 -2.6505
42747SOL     OW32602   6.275  11.080   7.206  0.3016  0.4702  0.2584
42747SOL    HW132603   6.265  11.155   7.146 -1.0777  2.1501  2.4393
42747SOL    HW232604   6.327  11.114   7.278  0.4776 -0.9922  0.8453
42748SOL     OW32605  10.529  10.434   4.382  0.0719 -0.0365 -0.7199
42748SOL    HW132606  10.475  10.452   4.305  0.8175 -0.3899 -1.3319
42748SOL    HW232607  10.618  10.425   4.348  0.8259  2.0859  0.4549
42749SOL     OW32608   5.096  10.246   9.974 -0.4045  0.0385 -0.2349
42749SOL    HW132609   5.044  10.323   9.996 -2.7152 -1.3280 -0.4887
42749SOL    HW232610   5.140  10.222  10.055 -1.2466  0.4949  0.3646
42750SOL     OW32611   6.749   7.271   4.184 -0.0301 -0.5094 -0.7322
42750SOL    HW132612   6.747   7.354   4.231  2.6321 -0.1213 -1.1386
42750SOL    HW232613   6.753   7.296   4.091 -1.3667 -1.1741 -0.9957
42751SOL     OW32614   1.291  10.377   1.343 -0.1920  0.1683  0.4529
42751SOL    HW132615   1.211  10.418   1.377  0.2781 -0.0007  1.8181
42751SOL    HW232616   1.361  10.432   1.377  0.5203 -2.0522  2.9591
42752SOL     OW32617   3.309   9.799   5.629 -0.0030 -0.5968  0.3466
42752SOL    HW132618   3.330   9.707   5.614  0.7617 -0.7748  2.3001
42752SOL    HW232619   3.358   9.823   5.707 -0.3062  1.4471 -0.0257
42753SOL     OW32620   7.115   7.983   8.498 -0.0105  0.2453  0.4174
42753SOL    HW132621   7.114   7.973   8.403  1.5004 -1.9630  0.5570
42753SOL    HW232622   7.182   8.048   8.515  1.0005 -0.6622  0.0098
42754SOL     OW32623   3.662   9.602   5.672  0.6929 -0.0234  0.3654
42754SOL    HW132624   3.657   9.562   5.585  1.0882  1.2811 -0.2858
42754SOL    HW232625   3.616   9.685   5.663 -0.5224 -0.5034  1.8167
42755SOL     OW32626   2.131   3.252   5.500  0.2547  0.3780 -0.5175
42755SOL    HW132627   2.096   3.236   5.413 -0.4239 -1.7281  0.0619
42755SOL    HW232628   2.224   3.231   5.493  0.3658  0.9859 -0.8995
42756SOL     OW32629   2.071   1.389   5.378  0.4475 -0.1476  0.2977
42756SOL    HW132630   2.059   1.484   5.387  1.4318 -0.0251  0.4355
42756SOL    HW232631   1.983   1.353   5.388  0.3025  0.6147  2.2645
42757SOL     OW32632   4.199   7.819   2.299  0.0308 -0.0961  0.2914
42757SOL    HW132633   4.253   7.792   2.374  0.4157 -0.7213 -0.1986
42757SOL    HW232634   4.242   7.897   2.265 -0.2146  0.2646  0.7901
42758SOL     OW32635   7.744  10.300   6.242 -0.7714  0.0916 -0.3269
42758SOL    HW132636   7.762  10.376   6.298  0.3314 -0.5313  0.2032
42758SOL    HW232637   7.712  10.337   6.160  1.2452  1.2266 -0.6557
42759SOL     OW32638   1.877   3.668   7.474  0.1059 -0.0360 -0.0522
42759SOL    HW132639   1.930   3.652   7.396  0.0476  0.2320 -0.1486
42759SOL    HW232640   1.930   3.728   7.527 -0.2818  0.5872 -0.3510
42760SOL     OW32641  10.398   4.376   0.046 -0.2772  0.2650 -0.2469
42760SOL    HW132642  10.335   4.403  -0.021 -0.3754  0.3867 -0.1063
42760SOL    HW232643  10.372   4.425   0.124 -1.2461 -1.1818  0.3825
42761SOL     OW32644   6.900   8.976   2.946  0.1747  0.0598 -0.7563
42761SOL    HW132645   6.927   9.051   2.998 -0.6428 -0.1296 -0.0369
42761SOL    HW232646   6.855   9.014   2.870 -2.1968  0.3434  0.6664
42762SOL     OW32647   2.263   9.054   5.284 -0.1377 -0.0644 -0.1283
42762SOL    HW132648   2.251   9.126   5.221 -0.1284  0.5347  0.5424
42762SOL    HW232649   2.351   9.020   5.265 -0.3794 -0.3025 -0.8497
42763SOL     OW32650   2.830   4.690   2.271  0.1658  0.6918 -0.0508
42763SOL    HW132651   2.881   4.661   2.195 -0.5496 -1.4555  0.2276
42763SOL    HW232652   2.891   4.745   2.321  0.9448  1.3821 -1.6672
42764SOL     OW32653   9.545   5.204   9.620  0.1686 -0.1879  0.2181
42764SOL    HW132654   9.454   5.206   9.592  0.2699 -0.8995 -0.1831
42764SOL    HW232655   9.549   5.131   9.682  0.8524 -1.4109 -1.2054
42765SOL     OW32656   7.243   5.079   2.122 -0.4545 -0.4006 -0.0690
42765SOL    HW132657   7.176   5.115   2.181 -0.6711  1.7672 -1.5098
42765SOL    HW232658   7.326   5.107   2.159 -0.4812 -0.8173  0.3063
42766SOL     OW32659   6.890   5.935   2.966  0.1007 -0.3533 -0.0340
42766SOL    HW132660   6.917   5.870   3.031  0.2363 -0.9358 -0.6652
42766SOL    HW232661   6.797   5.947   2.980  0.4718  0.9761  1.5521
42767SOL     OW32662   5.781   6.754   8.857  0.3262  0.0061  0.2083
42767SOL    HW132663   5.719   6.729   8.789  0.9672 -0.5060 -0.1917
42767SOL    HW232664   5.774   6.850   8.860 -1.5297 -0.0979  1.1809
42768SOL     OW32665   7.573   1.864   2.880  0.5931  0.2144 -0.0450
42768SOL    HW132666   7.593   1.778   2.844 -1.0153  0.0349 -0.5761
42768SOL    HW232667   7.479   1.863   2.897  0.7138  1.5228  0.8981
42769SOL     OW32668   0.713   3.077   2.400  0.1144 -0.0260  0.8467
42769SOL    HW132669   0.651   3.104   2.468  0.1306 -0.0652  0.8770
42769SOL    HW232670   0.726   3.156   2.347  0.5733  0.1768  1.2525
42770SOL     OW32671   3.034   3.972   9.189 -0.4176 -0.0506 -0.5746
42770SOL    HW132672   2.993   4.006   9.109  1.3324  1.2339 -0.9924
42770SOL    HW232673   3.093   3.903   9.159 -0.7682 -0.5051 -0.2257
42771SOL     OW32674   2.213   4.596   3.114 -0.1696  0.0534 -0.1012
42771SOL    HW132675   2.138   4.608   3.174  1.0731  1.5740  1.2490
42771SOL    HW232676   2.284   4.568   3.171  0.1058 -2.2854 -1.5156
42772SOL     OW32677   7.475   4.424   0.942  0.2123  0.1534 -0.0005
42772SOL    HW132678   7.514   4.466   1.018  0.8575  0.3565 -0.4369
42772SOL    HW232679   7.529   4.347   0.926 -1.3902 -1.3079  1.2348
42773SOL     OW32680   6.548   4.777   5.016  0.5716 -0.7877 -0.1227
42773SOL    HW132681   6.463   4.821   5.025  0.0905 -1.5913 -0.5837
42773SOL    HW232682   6.529   4.686   5.039  0.9134 -1.3520 -1.9658
42774SOL     OW32683   4.040   2.788   8.153 -0.6067  0.6291 -0.0425
42774SOL    HW132684   3.958   2.774   8.106 -1.0726  0.4570  0.7957
42774SOL    HW232685   4.029   2.740   8.235  1.1873 -1.2291 -0.8064
42775SOL     OW32686  10.579   1.631   3.715 -0.1472 -0.5804 -0.1833
42775SOL    HW132687  10.528   1.664   3.641  0.2562  2.7444  0.8223
42775SOL    HW232688  10.668   1.663   3.700 -0.1722  0.7197  1.9258
42776SOL     OW32689   6.111   8.067   4.952 -0.3920  0.2182 -0.2882
42776SOL    HW132690   6.141   8.028   5.034 -0.3488  2.3648  0.7785
42776SOL    HW232691   6.021   8.035   4.941 -0.4878  0.1153  0.7379
42777SOL     OW32692   8.621   0.793   3.752  0.2003 -0.3743  0.1742
42777SOL    HW132693   8.628   0.833   3.839  0.3447 -0.7608  0.3461
42777SOL    HW232694   8.712   0.788   3.722 -0.0039  2.1302 -1.1192
42778SOL     OW32695   4.494  10.087   1.803 -0.0773  0.4128 -0.1835
42778SOL    HW132696   4.527  10.087   1.713 -0.6010 -1.2569 -0.4191
42778SOL    HW232697   4.399  10.085   1.793 -0.1479  0.6518  0.4247
42779SOL     OW32698   7.444   8.301   2.634  0.3335 -0.0053 -0.3062
42779SOL    HW132699   7.416   8.376   2.582 -0.2097 -0.1797 -0.2697
42779SOL    HW232700   7.363   8.262   2.666  0.5136 -1.2795 -1.2713
42780SOL     OW32701   7.498   8.204  11.093  0.0418  0.1259 -0.3668
42780SOL    HW132702   7.409   8.209  11.058  0.4900  2.3059 -1.4129
42780SOL    HW232703   7.534   8.124  11.056 -1.4205 -0.6956 -0.0680
42781SOL     OW32704   2.026   6.524   8.251 -0.2410  0.4863  0.6954
42781SOL    HW132705   2.069   6.528   8.337  0.8090  0.0065  0.2105
42781SOL    HW232706   1.963   6.595   8.253 -0.7674  0.0133  2.1487
42782SOL     OW32707   0.337   7.336   2.345 -0.1647 -0.2366 -0.3428
42782SOL    HW132708   0.287   7.415   2.323 -2.9499 -1.9092 -0.5603
42782SOL    HW232709   0.354   7.293   2.261  2.6305  0.7541 -0.3656
42783SOL     OW32710  10.283   1.659   1.986 -0.1754 -0.2893 -0.1591
42783SOL    HW132711  10.283   1.589   2.051  0.6230 -0.1136  0.0341
42783SOL    HW232712  10.193   1.661   1.953 -0.3348 -1.0453  0.2192
42784SOL     OW32713  10.443   7.531   1.350 -0.3987 -0.0501  0.4823
42784SOL    HW132714  10.433   7.436   1.345  0.1179 -0.0669 -0.4019
42784SOL    HW232715  10.514   7.551   1.289 -1.0347  0.9828  0.0578
42785SOL     OW32716   6.648   3.318   4.154  0.0824 -0.2177  0.3519
42785SOL    HW132717   6.699   3.271   4.088 -0.3033  1.1111 -0.9436
42785SOL    HW232718   6.694   3.401   4.165 -0.2369 -0.1510  1.2689
42786SOL     OW32719   7.732   1.257   9.348  0.0425  0.0793  0.3085
42786SOL    HW132720   7.688   1.187   9.299  0.9372  0.2767 -0.7932
42786SOL    HW232721   7.697   1.338   9.312  2.1021  0.2796 -1.4279
42787SOL     OW32722   1.097  10.511   5.468  0.1795 -0.3981 -0.3394
42787SOL    HW132723   1.163  10.453   5.507  0.4755 -0.6530 -1.1910
42787SOL    HW232724   1.086  10.477   5.379 -0.2842  0.3340 -0.5652
42788SOL     OW32725   2.135   4.520   0.349  0.2878 -0.2465 -0.0944
42788SOL    HW132726   2.187   4.498   0.427  0.3375  0.0316 -0.0467
42788SOL    HW232727   2.199   4.553   0.286  0.1965 -0.0895 -0.1058
42789SOL     OW32728   3.662   6.116   1.880  0.1232 -0.3873 -0.1160
42789SOL    HW132729   3.692   6.041   1.931 -0.8825 -0.7175  0.0227
42789SOL    HW232730   3.592   6.080   1.824  1.0781 -0.0064 -1.6276
42790SOL     OW32731   0.276   8.498   8.863  0.2486 -0.0183  0.2736
42790SOL    HW132732   0.243   8.539   8.783  3.5328 -0.9545 -1.7475
42790SOL    HW232733   0.236   8.411   8.863  0.1565  0.0157 -0.3427
42791SOL     OW32734  10.248   3.704   5.856  0.7089  0.1115 -0.0979
42791SOL    HW132735  10.244   3.706   5.952  0.4922  1.3402 -0.1150
42791SOL    HW232736  10.337   3.734   5.835  0.5930  0.3322 -0.2839
42792SOL     OW32737   5.599   5.565   8.653 -0.4016  0.0465 -0.0027
42792SOL    HW132738   5.644   5.530   8.576 -1.9535  1.3588 -1.5871
42792SOL    HW232739   5.512   5.590   8.621 -0.7504  1.5847  1.9534
42793SOL     OW32740   6.508   7.404  10.574 -0.8586  0.1020 -0.3718
42793SOL    HW132741   6.557   7.479  10.538  1.8612 -1.5077 -0.3038
42793SOL    HW232742   6.488   7.350  10.497 -1.1210 -0.0372 -0.2062
42794SOL     OW32743   2.903   5.875   6.267 -0.1390  0.0934 -0.0261
42794SOL    HW132744   2.861   5.943   6.214 -1.2707  0.3996  1.2084
42794SOL    HW232745   2.923   5.805   6.205 -1.1793  0.5454 -0.9099
42795SOL     OW32746   8.779   4.054   2.207 -0.1066  0.3759 -0.1687
42795SOL    HW132747   8.770   3.959   2.200 -1.6585  0.5207 -0.4890
42795SOL    HW232748   8.843   4.077   2.139  0.9339 -0.5030  0.4731
42796SOL     OW32749   0.876   8.746   6.471 -0.1503 -0.3473  0.3321
42796SOL    HW132750   0.878   8.772   6.379 -2.1414 -0.9937  0.0642
42796SOL    HW232751   0.945   8.679   6.479  1.2166  0.9366 -0.2390
42797SOL     OW32752   0.997   3.205   9.352 -0.6563 -0.0532  0.1651
42797SOL    HW132753   0.935   3.137   9.378  0.3992 -0.6381  1.2898
42797SOL    HW232754   0.990   3.271   9.421 -0.4893  0.1995 -0.0566
42798SOL     OW32755   2.077   1.405   9.818 -0.0271 -0.4583 -0.3577
42798SOL    HW132756   2.019   1.376   9.748 -0.5744 -0.9680  0.2976
42798SOL    HW232757   2.163   1.410   9.777 -0.3066 -0.9451 -1.0159
42799SOL     OW32758   7.562   3.492   0.288 -0.1595 -0.1221  0.8463
42799SOL    HW132759   7.536   3.578   0.256  1.8238  0.3484  0.3712
42799SOL    HW232760   7.489   3.464   0.343 -2.0377  0.6734 -1.0892
42800SOL     OW32761   5.692   2.856   2.104 -0.1233  0.3750 -0.3897
42800SOL    HW132762   5.673   2.947   2.125 -0.0600  0.3082 -0.0206
42800SOL    HW232763   5.779   2.858   2.065 -0.5933  0.6020 -1.4527
42801SOL     OW32764   8.948   8.633  11.045 -0.0234 -0.0340  0.1455
42801SOL    HW132765   8.938   8.719  11.003  1.3217  0.2310  0.3160
42801SOL    HW232766   8.939   8.570  10.973  0.2855  0.3252 -0.2143
42802SOL     OW32767   2.319   7.804   0.430  0.1819 -0.7076 -0.0542
42802SOL    HW132768   2.361   7.719   0.418  1.5593 -0.2123  0.9741
42802SOL    HW232769   2.293   7.806   0.522 -0.3339 -0.2285 -0.2017
42803SOL     OW32770   3.383   7.262   9.973  0.1889  0.1925 -0.3726
42803SOL    HW132771   3.475   7.265  10.000  0.1244  0.0685 -0.1293
42803SOL    HW232772   3.379   7.315   9.893  0.5765 -0.2623 -0.6983
42804SOL     OW32773   3.795   2.374   9.656 -0.1968 -0.6151  0.3209
42804SOL    HW132774   3.722   2.347   9.712 -0.8022 -0.4525 -0.3795
42804SOL    HW232775   3.872   2.335   9.698 -0.7383 -1.2055  0.7981
42805SOL     OW32776   8.278   9.974  10.874  0.0797 -0.1492  0.0597
42805SOL    HW132777   8.304  10.058  10.837  1.1510 -0.5155 -0.0454
42805SOL    HW232778   8.345   9.913  10.844 -0.9426 -1.1501 -0.2682
42806SOL     OW32779   2.501   3.471   6.865  0.0914 -0.0699 -0.0330
42806SOL    HW132780   2.529   3.450   6.954 -1.6027  0.4212  0.6627
42806SOL    HW232781   2.408   3.448   6.863 -0.0689  0.5753 -1.4693
42807SOL     OW32782   4.020   1.768   4.094  0.0647  0.0262  0.5337
42807SOL    HW132783   3.948   1.709   4.116  0.9035 -1.6328 -0.9457
42807SOL    HW232784   3.988   1.816   4.017  0.1944 -0.0474  0.4346
42808SOL     OW32785   8.589   2.481   7.179 -0.3353  0.3108  0.0054
42808SOL    HW132786   8.504   2.444   7.155 -0.9251  0.6913  1.3680
42808SOL    HW232787   8.648   2.406   7.182 -1.4162 -0.5537  2.3441
42809SOL     OW32788   1.502   1.609   7.197 -0.0484 -0.0873 -0.1729
42809SOL    HW132789   1.546   1.528   7.169 -0.9822 -0.1271 -1.5858
42809SOL    HW232790   1.450   1.582   7.274 -0.8419 -1.0011 -0.9997
42810SOL     OW32791   3.354   4.400   8.883 -0.1588  0.2293  0.8529
42810SOL    HW132792   3.279   4.454   8.859  0.7592  1.1872  0.0638
42810SOL    HW232793   3.318   4.334   8.943 -1.9709 -0.4323 -0.8690
42811SOL     OW32794   1.943   6.272   0.605 -0.0001 -0.0625  0.0774
42811SOL    HW132795   2.006   6.340   0.629 -0.9766  0.1976  2.1392
42811SOL    HW232796   1.987   6.222   0.536  1.6086  1.3354  0.0152
42812SOL     OW32797   5.217   9.346  10.214 -0.6047 -0.2860 -0.1118
42812SOL    HW132798   5.194   9.347  10.121 -0.7965 -0.3385 -0.0649
42812SOL    HW232799   5.261   9.262  10.227 -2.0905 -1.0560  0.2080
42813SOL     OW32800   1.419   6.977   2.996 -0.1398  0.0876 -0.1805
42813SOL    HW132801   1.386   6.894   2.962 -0.4591 -0.4165  1.2890
42813SOL    HW232802   1.461   7.019   2.921 -1.2415 -0.7426 -1.3023
42814SOL     OW32803   7.306   7.277   7.776 -0.3201 -0.0056 -0.1731
42814SOL    HW132804   7.383   7.220   7.778 -1.6386 -1.9630 -1.2709
42814SOL    HW232805   7.241   7.230   7.828 -0.9673  1.3526  0.2801
42815SOL     OW32806   9.365   8.758   2.008 -0.0646 -0.1480 -0.0900
42815SOL    HW132807   9.446   8.802   1.979  0.0419 -0.1965  0.1268
42815SOL    HW232808   9.337   8.706   1.933 -0.9587  1.3675 -0.8548
42816SOL     OW32809   2.781   0.597   7.515  0.4796 -0.5701 -0.1390
42816SOL    HW132810   2.822   0.563   7.436  0.0415 -1.1029 -0.1357
42816SOL    HW232811   2.853   0.641   7.562  0.3597  1.5338 -1.7744
42817SOL     OW32812   4.449  10.474   9.533  0.0576  0.5732 -0.7338
42817SOL    HW132813   4.446  10.567   9.553  0.7835  0.7756 -1.4855
42817SOL    HW232814   4.475  10.433   9.616 -1.0568  0.9380 -0.1855
42818SOL     OW32815   5.532   4.678  10.201  0.2952 -0.0252  0.2384
42818SOL    HW132816   5.519   4.734  10.125  0.1477 -0.6325 -0.1882
42818SOL    HW232817   5.626   4.676  10.214  0.3962 -0.7633 -0.5710
42819SOL     OW32818   8.569  10.349   3.349  0.3621 -0.3250  0.7672
42819SOL    HW132819   8.624  10.317   3.420 -2.1346 -3.0806  1.6721
42819SOL    HW232820   8.514  10.416   3.390  0.8802  0.1595  0.6743
42820SOL     OW32821  10.244  11.114   3.085  0.0551  0.4978 -0.3096
42820SOL    HW132822  10.177  11.175   3.051  0.4612  0.4032 -1.3307
42820SOL    HW232823  10.325  11.165   3.084  0.1051  0.4278  0.3519
42821SOL     OW32824   2.170   5.051   6.586  0.3509 -0.3320 -0.4608
42821SOL    HW132825   2.193   5.137   6.621 -0.1218 -0.0410 -0.8546
42821SOL    HW232826   2.077   5.057   6.566 -0.0145 -1.3743  0.7797
42822SOL     OW32827   8.386   7.167   3.816 -0.3319 -0.0132 -0.3891
42822SOL    HW132828   8.342   7.247   3.845  0.0731  0.5971 -1.4062
42822SOL    HW232829   8.409   7.184   3.724  1.5268 -0.5248 -0.0651
42823SOL     OW32830   0.398   8.316   8.399  0.1769  0.0378  0.3384
42823SOL    HW132831   0.453   8.297   8.475 -2.2042 -0.3218  2.0694
42823SOL    HW232832   0.405   8.237   8.345 -0.4957 -1.0420  1.7548
42824SOL     OW32833   2.308   8.383   5.041 -0.0228 -0.4372  0.5799
42824SOL    HW132834   2.317   8.337   4.957  1.8772 -0.5770  0.8154
42824SOL    HW232835   2.285   8.314   5.103  0.0818 -0.5950  0.4443
42825SOL     OW32836   2.092   4.298   8.726  0.5640  0.5476  0.3976
42825SOL    HW132837   2.048   4.318   8.808 -3.5503 -0.7372 -1.2635
42825SOL    HW232838   2.067   4.369   8.667  2.0805  0.5625 -0.2864
42826SOL     OW32839  10.697   5.631   6.236  0.1464 -0.1175  0.0685
42826SOL    HW132840  10.786   5.603   6.259 -0.6615 -1.0266  2.3670
42826SOL    HW232841  10.687   5.605   6.144  2.4409  0.6235 -0.4732
42827SOL     OW32842   6.743   1.907   8.761  0.3459 -0.4679 -0.1619
42827SOL    HW132843   6.734   1.874   8.672 -0.6077 -0.7254  0.0219
42827SOL    HW232844   6.656   1.941   8.783  0.1990 -1.5961  1.1348
42828SOL     OW32845   0.356  11.103  10.556 -0.3124 -0.0896 -0.2825
42828SOL    HW132846   0.337  11.009  10.554 -0.8428  0.0075 -0.0057
42828SOL    HW232847   0.442  11.109  10.597  0.0102 -0.4948 -0.8867
42829SOL     OW32848   1.950   3.735   4.180  0.3035 -0.5384  0.4937
42829SOL    HW132849   2.016   3.698   4.122 -1.5084 -0.1733 -1.9659
42829SOL    HW232850   1.909   3.804   4.128 -1.2362  0.0238  2.3515
42830SOL     OW32851  10.748   3.804   0.369 -0.8539  0.1490 -0.6021
42830SOL    HW132852  10.782   3.834   0.453 -1.3191  3.3678 -1.4254
42830SOL    HW232853  10.814   3.741   0.338  0.3066  0.3489  1.2631
42831SOL     OW32854   6.824   4.394   6.711  0.2823  0.3587  0.4018
42831SOL    HW132855   6.739   4.352   6.724 -0.0995  0.6373 -0.9805
42831SOL    HW232856   6.846   4.431   6.796 -1.4996  1.2051  0.5546
42832SOL     OW32857   3.384   7.896   7.029  0.0518 -0.5763 -0.2432
42832SOL    HW132858   3.388   7.902   7.125  1.2807 -0.4848 -0.2871
42832SOL    HW232859   3.436   7.970   6.998  1.4056 -1.7879 -0.9566
42833SOL     OW32860   3.980   4.950  11.006 -0.2452 -0.1147 -0.4356
42833SOL    HW132861   3.951   4.882  10.945 -1.4367 -0.6361  0.6587
42833SOL    HW232862   3.994   4.903  11.089 -1.3968  0.9843  0.4241
42834SOL     OW32863   9.702  11.095   4.494 -0.1482 -0.3071 -0.2562
42834SOL    HW132864   9.624  11.139   4.461  1.6291  0.7291 -3.5462
42834SOL    HW232865   9.752  11.163   4.538 -0.2688 -0.5446  0.2531
42835SOL     OW32866   5.891   2.508   4.827 -0.1076  0.7735 -0.3765
42835SOL    HW132867   5.914   2.423   4.864  0.7112  0.3925 -1.6840
42835SOL    HW232868   5.816   2.538   4.879  1.1382  0.4194  1.7399
42836SOL     OW32869   0.681   4.795   3.325  0.5028 -0.0418  0.5807
42836SOL    HW132870   0.709   4.815   3.415  1.7010 -1.2734  0.5169
42836SOL    HW232871   0.723   4.711   3.305 -0.7213 -0.3874 -0.7096
42837SOL     OW32872  10.289   0.905   9.375 -0.9432  0.4443  0.0718
42837SOL    HW132873  10.356   0.955   9.328 -1.2062  0.6909 -0.0461
42837SOL    HW232874  10.212   0.963   9.375 -0.7961  0.6626  1.2488
42838SOL     OW32875   1.304   6.705   0.084  0.4543  0.1651  0.0524
42838SOL    HW132876   1.297   6.701   0.180 -1.1464  1.7135  0.0526
42838SOL    HW232877   1.384   6.754   0.067 -0.9167  2.7883  0.7255
42839SOL     OW32878  10.630   8.292   8.715  0.7231  0.0678 -0.0631
42839SOL    HW132879  10.539   8.316   8.700  0.3675 -0.1345  1.5950
42839SOL    HW232880  10.637   8.204   8.678  1.0949  1.1921 -2.9163
42840SOL     OW32881   2.450   4.835   6.342 -0.3998 -0.4760  0.6519
42840SOL    HW132882   2.444   4.817   6.248 -1.6016 -1.5500  0.8989
42840SOL    HW232883   2.481   4.925   6.347  0.8525 -0.7891 -0.7522
42841SOL     OW32884   2.835   6.844   4.523 -0.7093 -0.2088 -0.0617
42841SOL    HW132885   2.759   6.802   4.483 -0.5225 -0.2536 -0.3763
42841SOL    HW232886   2.887   6.874   4.449  0.3972 -1.6213  0.0941
42842SOL     OW32887   6.775   0.631   3.162 -0.5716  0.0802 -0.2261
42842SOL    HW132888   6.801   0.651   3.072  1.3137 -0.3217  0.1853
42842SOL    HW232889   6.752   0.538   3.160 -2.0319  0.4169 -0.5724
42843SOL     OW32890  10.196  10.574   5.327 -0.1013  0.5332 -0.2063
42843SOL    HW132891  10.127  10.609   5.271 -1.3767 -0.3681  0.7062
42843SOL    HW232892  10.155  10.498   5.369  0.5522  1.5171  2.4009
42844SOL     OW32893   2.653   1.798   0.741  0.4574  0.3805 -0.4275
42844SOL    HW132894   2.683   1.740   0.811  1.7253  0.8209 -0.5747
42844SOL    HW232895   2.733   1.825   0.696 -0.2085  1.2780 -1.1206
42845SOL     OW32896   1.627   3.226   1.094 -0.2196 -0.1054 -0.7182
42845SOL    HW132897   1.616   3.300   1.154  0.0198  0.2740 -1.1349
42845SOL    HW232898   1.564   3.161   1.125  1.9786 -1.2114  1.9065
42846SOL     OW32899   4.677   2.195   5.382  0.4238 -0.5344 -0.1706
42846SOL    HW132900   4.747   2.158   5.328  2.0165 -0.3275  1.6498
42846SOL    HW232901   4.597   2.179   5.332  1.7187 -1.0330 -2.2026
42847SOL     OW32902   0.648   0.447  10.363  0.0419 -0.0811 -0.4836
42847SOL    HW132903   0.553   0.435  10.367  0.2908 -2.2199  0.8722
42847SOL    HW232904   0.661   0.513  10.295 -2.3664 -0.2074 -1.1666
42848SOL     OW32905   0.931   3.345   3.584  0.0916 -0.4811  0.0914
42848SOL    HW132906   1.016   3.329   3.544  1.4206  1.8048  1.7810
42848SOL    HW232907   0.924   3.440   3.590 -2.6542 -0.5813 -0.0457
42849SOL     OW32908   3.030   9.383   2.492 -1.0041 -0.2901  0.2959
42849SOL    HW132909   3.080   9.302   2.497  1.3703  1.0589  0.4076
42849SOL    HW232910   2.996   9.397   2.580 -0.4617 -0.6146  0.5604
42850SOL     OW32911   9.160   8.746   7.440 -0.5670  0.2992 -0.3933
42850SOL    HW132912   9.069   8.746   7.411 -0.5548  1.2778 -0.4616
42850SOL    HW232913   9.206   8.800   7.376  0.0578 -0.1484 -0.3308
42851SOL     OW32914   7.391   9.372   0.288  0.1577  0.4239  0.3814
42851SOL    HW132915   7.354   9.440   0.345 -1.2002  1.8455 -2.0160
42851SOL    HW232916   7.469   9.413   0.250  0.8054 -0.3511  0.8496
42852SOL     OW32917   2.764   7.535  10.086  0.2129  0.6183  0.1696
42852SOL    HW132918   2.748   7.542  10.180  0.6813 -0.3607  0.3406
42852SOL    HW232919   2.676   7.536  10.047  0.0199  1.1135  0.6051
42853SOL     OW32920   8.327  10.037   6.499  0.0716  0.6221  0.8714
42853SOL    HW132921   8.382  10.065   6.425 -1.6563  0.9485 -0.3500
42853SOL    HW232922   8.262   9.979   6.459 -0.6017  0.4195  2.2321
42854SOL     OW32923   1.044   2.237   4.553  0.2481  0.2265 -0.2326
42854SOL    HW132924   1.079   2.243   4.464  2.2664  1.0741  0.5597
42854SOL    HW232925   0.966   2.293   4.553 -0.8003 -1.1385 -1.8755
42855SOL     OW32926   8.557   7.617   5.464  0.1810  0.1768 -0.4822
42855SOL    HW132927   8.560   7.674   5.541 -0.9946 -0.6845  0.2505
42855SOL    HW232928   8.493   7.659   5.406 -0.0045  0.0870 -0.3453
42856SOL     OW32929   7.186   1.886   5.520 -0.0821 -0.1455  0.1274
42856SOL    HW132930   7.204   1.823   5.449 -0.0000  0.1693 -0.1326
42856SOL    HW232931   7.138   1.957   5.477  1.3845  0.8448  0.0238
42857SOL     OW32932   9.701   9.833   3.601 -0.3756  0.0448  0.6521
42857SOL    HW132933   9.637   9.879   3.656 -0.3446  0.1460  0.6033
42857SOL    HW232934   9.658   9.751   3.577 -1.3476  1.0187 -1.1408
42858SOL     OW32935  10.531   2.718   0.625  0.3248 -0.2214 -0.0199
42858SOL    HW132936  10.562   2.745   0.539 -0.6880 -0.4020 -0.4483
42858SOL    HW232937  10.479   2.639   0.609  0.8963 -0.7972  0.8765
42859SOL     OW32938   2.952   0.008   7.243 -0.1398 -0.3566  0.2594
42859SOL    HW132939   2.923  -0.068   7.192 -0.5483  0.9248 -1.5303
42859SOL    HW232940   2.908  -0.002   7.328 -1.5332 -1.2660 -0.5253
42860SOL     OW32941   5.313   3.446   0.392  0.5168  0.1550 -0.0407
42860SOL    HW132942   5.337   3.514   0.330  0.3071  0.2755  0.0100
42860SOL    HW232943   5.374   3.374   0.374  1.7266  0.9073  0.8961
42861SOL     OW32944   9.250   2.324   6.200  0.3024  0.0200 -0.4254
42861SOL    HW132945   9.237   2.254   6.264 -1.5710 -0.2445 -1.0327
42861SOL    HW232946   9.222   2.403   6.246 -1.2420 -0.1983 -0.9302
42862SOL     OW32947   6.349   0.110   5.951 -0.0346  0.0977  0.0336
42862SOL    HW132948   6.262   0.119   5.912 -0.5010 -0.2032  0.9856
42862SOL    HW232949   6.332   0.085   6.042  0.9943  1.6228  0.6917
42863SOL     OW32950   7.696   9.359   8.965 -0.5840  0.6565  0.0662
42863SOL    HW132951   7.623   9.406   8.927  0.9340  0.7413 -3.0503
42863SOL    HW232952   7.773   9.414   8.947  0.7008 -1.0983 -0.1158
42864SOL     OW32953   5.928   5.349   0.008 -0.2747  0.4447  0.0917
42864SOL    HW132954   6.018   5.375  -0.011 -0.6467  0.8087 -1.2597
42864SOL    HW232955   5.920   5.260  -0.028 -0.4738  0.4327  0.1606
42865SOL     OW32956   6.949   4.875   0.464 -0.9062  0.0377 -0.0862
42865SOL    HW132957   6.972   4.808   0.529 -2.3940 -0.9218 -0.5053
42865SOL    HW232958   6.971   4.835   0.380 -2.0115 -0.0370 -0.3525
42866SOL     OW32959   4.781   9.680   8.717 -0.0125  0.3823 -0.4131
42866SOL    HW132960   4.693   9.653   8.742  0.9791 -2.3048  0.6083
42866SOL    HW232961   4.783   9.671   8.622 -0.3768 -1.4273 -0.2968
42867SOL     OW32962   4.961   9.303   5.721 -0.2478  0.2282  0.0244
42867SOL    HW132963   4.996   9.273   5.637 -1.4458 -0.4483 -0.2389
42867SOL    HW232964   4.976   9.230   5.781 -0.7484  0.1336  0.0348
42868SOL     OW32965   8.724  10.079   3.194  0.3508  0.4985  0.3465
42868SOL    HW132966   8.725  10.027   3.275 -1.3044  0.9190  0.6878
42868SOL    HW232967   8.715  10.169   3.224 -4.5904  0.4648 -0.1609
42869SOL     OW32968   6.811  10.605   7.721  0.0305  0.4563  0.3576
42869SOL    HW132969   6.724  10.575   7.698 -0.0996 -0.2476  1.6864
42869SOL    HW232970   6.823  10.686   7.671 -1.6581  0.9415  0.6869
42870SOL     OW32971  10.975   0.665   9.818  0.2822 -0.1692  0.0225
42870SOL    HW132972  10.898   0.714   9.790  0.5407  0.5580  0.5729
42870SOL    HW232973  10.941   0.597   9.877  0.0703  0.1920  0.3178
42871SOL     OW32974   4.878   6.793   0.875  0.0409 -0.9118  0.1972
42871SOL    HW132975   4.864   6.762   0.965 -0.8099  0.5725  0.6083
42871SOL    HW232976   4.907   6.715   0.827 -0.6788 -2.0111  1.4825
42872SOL     OW32977   1.537   6.798   0.039 -0.1200 -1.0037  0.1322
42872SOL    HW132978   1.512   6.751  -0.040  0.8934  0.4173 -1.0879
42872SOL    HW232979   1.569   6.883   0.008 -1.0567  0.1778  2.1716
42873SOL     OW32980   8.031   5.999   4.362  0.2859 -0.0524 -0.5563
42873SOL    HW132981   7.941   6.012   4.392  0.1781  0.1277 -0.9464
42873SOL    HW232982   8.080   5.978   4.441 -0.3758 -1.6656 -0.5410
42874SOL     OW32983   8.436   5.545   0.996 -0.0810  0.0586 -0.4458
42874SOL    HW132984   8.374   5.593   1.051 -0.6987 -0.1034 -0.9856
42874SOL    HW232985   8.517   5.546   1.046 -0.2807  1.0176 -0.1059
42875SOL     OW32986   4.609   4.180   6.431 -0.1708  0.4383  0.2136
42875SOL    HW132987   4.601   4.094   6.472 -0.1785  0.3926  0.1176
42875SOL    HW232988   4.689   4.217   6.468 -1.6556  1.5908  2.4483
42876SOL     OW32989  10.620   2.241   9.348 -0.1199 -0.2743 -0.0125
42876SOL    HW132990  10.568   2.215   9.424  0.8161 -0.1805  0.6777
42876SOL    HW232991  10.559   2.236   9.274 -1.1494  0.0328  0.7986
42877SOL     OW32992   2.137   7.049   7.650  0.0145  0.4871  0.5482
42877SOL    HW132993   2.200   7.048   7.578  0.9081 -0.4589  1.3107
42877SOL    HW232994   2.150   7.133   7.693  2.7899 -0.7381  2.3751
42878SOL     OW32995   0.909   2.569   9.166  0.0641  0.2297 -0.3682
42878SOL    HW132996   0.983   2.598   9.220 -1.4402  1.5283  1.1030
42878SOL    HW232997   0.856   2.516   9.225 -0.4741 -0.2030 -1.2331
42879SOL     OW32998   3.501   0.523   8.991 -0.1823  0.1096 -0.1199
42879SOL    HW132999   3.477   0.584   8.921  0.2552 -1.7115 -1.9929
42879SOL    HW233000   3.419   0.476   9.010 -0.0891 -0.0659 -0.1430
42880SOL     OW33001   7.107   8.365  10.785  0.1212  0.1370 -0.1972
42880SOL    HW133002   7.060   8.447  10.798  0.4826  0.2076  0.6951
42880SOL    HW233003   7.199   8.389  10.788  0.2308 -0.3114  0.1345
42881SOL     OW33004   7.787   0.277   0.102 -0.7951 -0.0548 -0.2329
42881SOL    HW133005   7.851   0.249   0.036 -1.5585 -1.2103 -0.5161
42881SOL    HW233006   7.727   0.334   0.055 -0.0557  0.9631  0.0135
42882SOL     OW33007  11.009   8.951   9.818  0.2577  0.2826 -0.7972
42882SOL    HW133008  10.961   9.005   9.880  0.5485  1.6195 -1.7067
42882SOL    HW233009  11.101   8.976   9.830  0.1997  1.5022 -2.6171
42883SOL     OW33010   9.490   4.793  10.732 -0.0792  0.0309 -0.2992
42883SOL    HW133011   9.476   4.698  10.741  1.7282 -0.2827 -0.4890
42883SOL    HW233012   9.410   4.824  10.688 -1.1371 -1.2241  0.6410
42884SOL     OW33013   7.751  10.150   1.383  0.7923  0.1420  0.3670
42884SOL    HW133014   7.675  10.145   1.441 -0.0202 -0.4523 -0.6950
42884SOL    HW233015   7.792  10.233   1.404 -2.4888  2.5592 -1.7767
42885SOL     OW33016   9.605  10.579   5.663  0.6134  0.1789  0.3086
42885SOL    HW133017   9.541  10.570   5.733 -0.5724  0.2800 -0.7249
42885SOL    HW233018   9.570  10.648   5.607 -0.4409 -2.2771 -2.3615
42886SOL     OW33019   9.286   1.980   6.659 -0.5247  0.0158  0.5296
42886SOL    HW133020   9.257   2.020   6.741 -0.2675  1.4351 -0.0440
42886SOL    HW233021   9.207   1.943   6.621 -0.6123 -0.8190  1.4997
42887SOL     OW33022  10.649   1.566   5.874 -0.1044  0.4821 -0.9931
42887SOL    HW133023  10.631   1.557   5.780  0.7713 -0.3614 -1.0955
42887SOL    HW233024  10.575   1.524   5.917 -0.4058  0.6880 -1.3017
42888SOL     OW33025   8.246   3.636   5.096  0.5130  0.1847  0.6466
42888SOL    HW133026   8.233   3.669   5.185 -1.0938 -1.7927  1.2305
42888SOL    HW233027   8.274   3.545   5.108 -0.4588 -0.3419 -0.8446
42889SOL     OW33028  10.655   4.528   8.123  0.0211 -0.1136  0.1623
42889SOL    HW133029  10.707   4.514   8.044  1.1596  0.9914  0.6860
42889SOL    HW233030  10.676   4.454   8.179  1.1881  0.4117  0.4394
42890SOL     OW33031   6.045   4.152   4.989  0.2055  0.7266 -0.1408
42890SOL    HW133032   6.046   4.069   5.036  2.1176  1.3347  1.0189
42890SOL    HW233033   6.124   4.149   4.935  0.3016  1.7776 -0.0792
42891SOL     OW33034   4.292   6.046   9.816  0.5006 -0.1814 -0.3441
42891SOL    HW133035   4.254   6.083   9.737 -2.2772  2.5252  2.0256
42891SOL    HW233036   4.247   5.962   9.827  1.0303 -0.6655 -1.5982
42892SOL     OW33037  10.315   4.213   1.378  0.1657  0.3590 -0.4853
42892SOL    HW133038  10.366   4.245   1.452  0.3845  1.2012 -0.9771
42892SOL    HW233039  10.232   4.260   1.383 -0.8170 -1.3958  0.6155
42893SOL     OW33040   4.834   5.576   5.432  0.5785 -0.5630  0.1075
42893SOL    HW133041   4.748   5.536   5.416  1.3474 -1.0281 -3.6945
42893SOL    HW233042   4.816   5.669   5.444 -0.6101 -0.9834  1.9093
42894SOL     OW33043   8.836  11.030   3.671 -0.1379  0.4914  0.6546
42894SOL    HW133044   8.898  11.096   3.639 -1.1350  0.7458 -0.9101
42894SOL    HW233045   8.791  11.073   3.744 -0.7243  1.5914 -0.2949
42895SOL     OW33046   3.400   5.061   0.229  0.1241 -0.2531  0.4253
42895SOL    HW133047   3.310   5.084   0.203  0.0680  0.3733  1.1561
42895SOL    HW233048   3.448   5.058   0.146 -0.1367  1.3639  0.1845
42896SOL     OW33049   6.828   8.031   0.897 -0.9380 -0.6354 -0.3841
42896SOL    HW133050   6.767   7.977   0.946  1.4427 -2.0594  1.2061
42896SOL    HW233051   6.833   8.113   0.947 -0.0513 -1.2994  0.6386
42897SOL     OW33052   7.030   3.758   3.943 -0.5308  0.0018  0.7724
42897SOL    HW133053   7.085   3.806   4.004 -2.0121  0.3905  1.8579
42897SOL    HW233054   7.058   3.667   3.951  0.4110  0.2844  0.7668
42898SOL     OW33055   3.937   5.409   2.923  0.2444  0.1458  0.4624
42898SOL    HW133056   3.997   5.476   2.954  1.8113 -0.9387 -0.0774
42898SOL    HW233057   3.870   5.456   2.874  1.1918  1.3296  0.2732
42899SOL     OW33058   4.323   9.720   2.920  1.1390  0.1487  0.2651
42899SOL    HW133059   4.343   9.660   2.992  0.8751  0.7725  0.8738
42899SOL    HW233060   4.262   9.672   2.864 -0.1145  0.3101  1.4498
42900SOL     OW33061   3.110   7.319   6.255 -0.2952  0.1222 -0.0233
42900SOL    HW133062   3.016   7.312   6.269 -0.1664  0.0369  0.8343
42900SOL    HW233063   3.122   7.407   6.218 -0.6649  0.3216  0.3182
42901SOL     OW33064   3.035   8.168   6.772 -0.0432 -0.7482  0.0885
42901SOL    HW133065   3.110   8.223   6.793 -1.1460  0.5995  0.6299
42901SOL    HW233066   2.996   8.147   6.857 -0.1242 -1.6781 -0.1683
42902SOL     OW33067   4.879   8.030   9.869  0.3536  0.1429  0.1972
42902SOL    HW133068   4.801   8.031   9.813  0.5831  3.1323 -0.2136
42902SOL    HW233069   4.844   8.040   9.958  0.2463  1.2088  0.0383
42903SOL     OW33070   9.389   0.973   3.247 -0.2494 -0.3894 -0.3096
42903SOL    HW133071   9.414   0.905   3.185 -1.0427 -0.7227 -0.2720
42903SOL    HW233072   9.430   0.947   3.329 -1.8385 -1.6745  0.1011
42904SOL     OW33073   9.381   5.656   2.000  0.3866  0.3609  0.3085
42904SOL    HW133074   9.465   5.689   1.969 -0.0159  0.5083 -0.6540
42904SOL    HW233075   9.368   5.575   1.951 -1.6091  2.0339 -2.2292
42905SOL     OW33076   3.392   6.636   0.383  0.6405 -0.3995 -0.1823
42905SOL    HW133077   3.472   6.590   0.410  0.8490  0.1118  0.0828
42905SOL    HW233078   3.402   6.725   0.418  0.6814  0.1409 -1.5166
42906SOL     OW33079   3.422   4.606  11.104  0.5633 -0.1683 -0.4077
42906SOL    HW133080   3.388   4.580  11.189  0.1900  0.4693 -0.3548
42906SOL    HW233081   3.409   4.700  11.100  0.6219 -0.1798 -1.1517
42907SOL     OW33082   8.540   0.994   4.960 -0.8723  0.0849 -0.2774
42907SOL    HW133083   8.494   0.916   4.932 -0.3395 -0.9854  1.6496
42907SOL    HW233084   8.582   0.970   5.043  1.0746  1.7566 -0.6664
42908SOL     OW33085  10.529   7.652   4.950 -0.5850  0.3395  0.3721
42908SOL    HW133086  10.515   7.699   4.868 -1.0706 -1.2586 -0.4947
42908SOL    HW233087  10.465   7.690   5.010  1.2549  3.1038  0.7766
42909SOL     OW33088   9.774   9.303   2.375  0.2256  0.0535  0.4196
42909SOL    HW133089   9.826   9.227   2.349  1.0906 -0.2481  2.7826
42909SOL    HW233090   9.797   9.318   2.467 -2.3671  1.2002  0.9699
42910SOL     OW33091  10.855   8.423  10.411 -0.7681 -0.1089  0.3240
42910SOL    HW133092  10.947   8.443  10.432  0.1023 -1.5602 -1.7905
42910SOL    HW233093  10.825   8.371  10.485  0.8196 -1.3878  0.1355
42911SOL     OW33094   6.817   8.928   3.802 -0.1442 -0.4511  0.0944
42911SOL    HW133095   6.750   8.997   3.809  0.6036  0.2143  0.9901
42911SOL    HW233096   6.855   8.924   3.890 -0.5574 -2.4272  0.2341
42912SOL     OW33097   5.813   1.544   1.429  0.3648 -0.2060  0.3046
42912SOL    HW133098   5.877   1.474   1.414  0.1903 -0.3843  0.3859
42912SOL    HW233099   5.747   1.530   1.361  0.6198  0.2267 -0.0375
42913SOL     OW33100   9.165   5.058  10.462  0.2316 -0.1862 -0.4454
42913SOL    HW133101   9.111   5.041  10.539 -0.7054  0.2683 -0.9857
42913SOL    HW233102   9.146   4.986  10.402  0.3268 -0.0954 -0.5865
42914SOL     OW33103   7.998   5.725   9.675  0.3590 -0.4420  0.1367
42914SOL    HW133104   7.959   5.721   9.588 -0.3537 -0.0109  0.4292
42914SOL    HW233105   8.092   5.718   9.660  0.3516  1.0738 -0.7829
42915SOL     OW33106   0.085   8.988   6.225 -0.2331  0.2328  0.2569
42915SOL    HW133107   0.133   9.063   6.189 -0.0162  0.2736  0.6148
42915SOL    HW233108   0.148   8.946   6.284  0.0849 -0.9957 -0.9133
42916SOL     OW33109   4.701   6.594   2.962  0.6115  0.3928  0.6226
42916SOL    HW133110   4.696   6.654   2.888 -0.8395 -0.9234 -0.4061
42916SOL    HW233111   4.770   6.631   3.018  0.0645  2.7559 -0.1442
42917SOL     OW33112   0.978   5.112   5.014  0.1223  0.1969 -0.6332
42917SOL    HW133113   0.965   5.195   5.060 -1.4715  0.0267 -0.7307
42917SOL    HW233114   1.029   5.136   4.936 -0.5928  1.1596 -0.8279
42918SOL     OW33115   7.601   7.773   4.890  0.5332 -0.3149 -0.1251
42918SOL    HW133116   7.514   7.733   4.889  1.5057 -2.6091 -0.1402
42918SOL    HW233117   7.585   7.867   4.901 -1.8868 -0.8091  1.1366
42919SOL     OW33118   1.357   4.796  10.039  0.0030  0.3232  0.4498
42919SOL    HW133119   1.384   4.881  10.074 -1.4877  0.9213  0.2096
42919SOL    HW233120   1.429   4.770   9.981  0.3371  1.5733  0.2825
42920SOL     OW33121  10.323   7.501  10.730 -0.4639  0.3334  0.7284
42920SOL    HW133122  10.409   7.541  10.717 -0.9541  1.0485 -0.5290
42920SOL    HW233123  10.312   7.497  10.825  0.5917  1.0470  0.8935
42921SOL     OW33124   2.436   7.550   0.090  0.2364  0.1330 -0.8870
42921SOL    HW133125   2.446   7.560   0.184  0.8892 -1.3235 -0.7744
42921SOL    HW233126   2.513   7.593   0.053 -0.9069  2.2926 -0.9000
42922SOL     OW33127   6.444   1.007   7.694 -0.2426  0.2041  0.1535
42922SOL    HW133128   6.363   1.013   7.745 -2.4990 -1.4667 -2.8289
42922SOL    HW233129   6.457   0.913   7.680  0.8756  0.5268 -1.3351
42923SOL     OW33130   6.264   7.413   4.928 -0.0320 -0.2139  0.3943
42923SOL    HW133131   6.298   7.484   4.874  0.3995 -0.6823  0.0403
42923SOL    HW233132   6.169   7.419   4.919 -0.0876  1.1808  1.4798
42924SOL     OW33133   1.597   2.957   8.497  0.1134 -0.2899  0.4933
42924SOL    HW133134   1.693   2.961   8.501  0.1097 -0.0008  0.3227
42924SOL    HW233135   1.574   2.875   8.541  0.2817  1.1390  3.5671
42925SOL     OW33136   2.322   8.312   0.984  0.1849  0.9551  0.3945
42925SOL    HW133137   2.253   8.265   1.031 -2.4122  2.8643 -1.1998
42925SOL    HW233138   2.345   8.255   0.911 -2.0345  1.4467 -0.8036
42926SOL     OW33139   6.111   0.914   2.711 -0.1826 -0.4449  0.2518
42926SOL    HW133140   6.140   0.938   2.799 -1.7322  0.5056  0.5450
42926SOL    HW233141   6.156   0.976   2.653  0.4525 -0.7455  0.4237
42927SOL     OW33142   2.735   4.669   7.965  0.3351 -0.0005 -0.6613
42927SOL    HW133143   2.679   4.614   8.020  0.3643  0.4778 -0.1444
42927SOL    HW233144   2.677   4.740   7.936  0.7917  0.8318  0.3647
42928SOL     OW33145  10.976   2.792   1.234 -0.5152 -0.0305 -0.2790
42928SOL    HW133146  10.977   2.835   1.149 -0.1963 -0.9416 -0.7510
42928SOL    HW233147  10.940   2.858   1.294  0.4001  1.0571 -0.8772
42929SOL     OW33148   7.876   4.000   1.392 -0.5968 -0.2320  0.4969
42929SOL    HW133149   7.834   4.077   1.354 -0.1950 -0.7572 -1.0524
42929SOL    HW233150   7.930   4.036   1.463  0.2271  1.0358 -0.7269
42930SOL     OW33151   8.574   5.605   3.345 -0.2245 -0.4902 -0.1678
42930SOL    HW133152   8.558   5.552   3.266  0.1880 -0.7180 -0.1052
42930SOL    HW233153   8.530   5.688   3.328  0.3447 -0.3259 -0.8885
42931SOL     OW33154   1.830   5.456  10.971  0.1841 -0.1226 -0.0046
42931SOL    HW133155   1.766   5.449  10.900  0.4132 -1.2473 -0.1043
42931SOL    HW233156   1.814   5.380  11.026 -0.5548  1.1634  1.6458
42932SOL     OW33157  10.237   7.353   2.058 -0.6539  0.3491  0.1355
42932SOL    HW133158  10.144   7.378   2.054 -0.3737  1.3894 -0.0938
42932SOL    HW233159  10.258   7.329   1.968 -0.2903  1.6571 -0.1357
42933SOL     OW33160   3.148  10.437   2.287 -0.2965  0.6817  0.3589
42933SOL    HW133161   3.193  10.514   2.252 -0.5377  0.3151 -0.8022
42933SOL    HW233162   3.216  10.369   2.290  0.4273  1.4169  3.2473
42934SOL     OW33163   0.684   9.160  10.727  0.0972 -0.8127 -0.6383
42934SOL    HW133164   0.761   9.189  10.775  0.9849  2.1655 -3.4456
42934SOL    HW233165   0.620   9.231  10.739 -0.4314 -1.0171 -2.0195
42935SOL     OW33166   1.398   5.924   1.668 -0.2281 -0.0013  0.2647
42935SOL    HW133167   1.325   5.964   1.715 -0.9928  0.1952 -1.0341
42935SOL    HW233168   1.377   5.831   1.664 -0.8084  0.1589 -0.7549
42936SOL     OW33169   0.190   7.717   8.388 -0.5990 -0.0960 -0.0061
42936SOL    HW133170   0.227   7.776   8.454  0.3097  0.7710 -1.2375
42936SOL    HW233171   0.170   7.637   8.436  2.0910 -0.3105  0.9462
42937SOL     OW33172   0.450   6.513   3.133 -0.2866  0.0654  0.3635
42937SOL    HW133173   0.357   6.521   3.158 -0.3744 -1.2965  0.5407
42937SOL    HW233174   0.466   6.419   3.131  0.6926  0.2363 -1.2182
42938SOL     OW33175   6.407  10.211   9.289 -1.1917  0.1480 -0.2918
42938SOL    HW133176   6.499  10.209   9.262 -0.9086 -1.4400  0.6535
42938SOL    HW233177   6.402  10.281   9.354 -0.2283 -0.8951  0.9517
42939SOL     OW33178   7.461   1.882   5.650 -0.1771  0.1267 -0.0968
42939SOL    HW133179   7.506   1.960   5.682 -0.5836  0.6201 -0.7092
42939SOL    HW233180   7.385   1.915   5.602 -0.5546 -0.6582 -0.0566
42940SOL     OW33181   7.780   0.381   3.535 -0.0747  0.6287  0.0316
42940SOL    HW133182   7.842   0.451   3.514  1.8340 -1.1438 -0.4993
42940SOL    HW233183   7.818   0.302   3.496 -2.6878 -0.5584 -0.3158
42941SOL     OW33184  10.974   1.865  10.899 -0.0448 -0.1295 -0.0933
42941SOL    HW133185  10.936   1.798  10.956 -2.6386  0.6169 -0.8118
42941SOL    HW233186  11.064   1.874  10.930 -0.4938 -1.8009  1.9595
42942SOL     OW33187   2.074   5.265   9.705 -0.0871 -0.0558  0.6652
42942SOL    HW133188   2.062   5.330   9.775  2.0014  0.0625  1.0002
42942SOL    HW233189   2.120   5.193   9.748 -0.2415 -0.7138 -0.2448
42943SOL     OW33190   3.135   0.948   7.279 -0.0792  0.1252  0.1263
42943SOL    HW133191   3.051   0.923   7.316 -0.4413  0.3938 -0.5005
42943SOL    HW233192   3.137   1.043   7.286  1.3863  0.0032  2.7049
42944SOL     OW33193   5.929   2.449   2.189  0.5838 -0.0616  0.0461
42944SOL    HW133194   6.021   2.475   2.183  0.9992 -1.3996  0.1525
42944SOL    HW233195   5.915   2.392   2.114  0.1546 -0.7291  0.6190
42945SOL     OW33196   0.020   5.040   4.682 -0.2002  0.2192 -0.2245
42945SOL    HW133197   0.041   5.122   4.725 -1.2020  0.9454 -1.0693
42945SOL    HW233198   0.048   5.052   4.591  0.2750 -0.6338 -0.2009
42946SOL     OW33199   9.686   8.515   2.647  0.3731  0.2628 -0.7717
42946SOL    HW133200   9.765   8.494   2.597  0.9739 -1.7985  0.8631
42946SOL    HW233201   9.623   8.447   2.622 -0.3167  0.9032 -0.8159
42947SOL     OW33202   4.619   2.395   9.878  0.4734 -0.1899  0.5165
42947SOL    HW133203   4.635   2.317   9.931  1.4085  0.2778  0.9495
42947SOL    HW233204   4.657   2.467   9.929  1.7258  0.2197 -0.9155
42948SOL     OW33205   0.539   1.002   6.661 -0.1470 -0.1206  0.6069
42948SOL    HW133206   0.584   0.975   6.582  0.0588 -0.2603  0.7696
42948SOL    HW233207   0.608   1.039   6.717 -0.5792  1.8001 -0.0467
42949SOL     OW33208   8.106   5.584   6.968 -0.5886  0.5560  0.5550
42949SOL    HW133209   8.197   5.569   6.991  0.0712 -0.3628 -2.1853
42949SOL    HW233210   8.058   5.512   7.008  0.2155 -0.0792  0.3948
42950SOL     OW33211   4.577   7.905   0.693 -0.5506  0.0960  0.6716
42950SOL    HW133212   4.568   7.911   0.598  1.1644  1.5419  0.5485
42950SOL    HW233213   4.500   7.949   0.727 -1.6414 -1.2068 -0.0011
42951SOL     OW33214   9.346   0.935  10.563  0.0969  0.4317  0.7418
42951SOL    HW133215   9.300   0.876  10.624 -2.3136  2.0626  0.6542
42951SOL    HW233216   9.377   0.877  10.494 -2.2553 -0.8240  0.6107
42952SOL     OW33217   6.515   7.380   3.549 -0.6779 -0.5932 -0.0332
42952SOL    HW133218   6.428   7.420   3.554 -0.5084 -0.1837 -0.2847
42952SOL    HW233219   6.519   7.321   3.624 -0.4467  0.8324  1.1194
42953SOL     OW33220   1.216   9.901  10.817  0.1527 -0.1569  0.0258
42953SOL    HW133221   1.127   9.913  10.783  1.1001  0.3350 -2.5229
42953SOL    HW233222   1.269   9.884  10.739  2.1055 -1.8148  1.6002
42954SOL     OW33223   2.569   8.075   9.951 -0.1366 -0.1717 -0.6035
42954SOL    HW133224   2.637   8.023   9.994 -0.3928 -0.6548 -0.7756
42954SOL    HW233225   2.487   8.040   9.985 -0.5251 -2.7575 -3.7812
42955SOL     OW33226   0.641   5.923   9.985 -0.3877  0.6871  0.1836
42955SOL    HW133227   0.611   6.011   9.964 -0.0415  0.4788 -1.3000
42955SOL    HW233228   0.560   5.872   9.994 -0.5610  0.8700 -0.3073
42956SOL     OW33229   6.340  10.871   3.894 -0.0942 -0.3153  0.1869
42956SOL    HW133230   6.293  10.930   3.835  0.4299 -1.4994 -1.4795
42956SOL    HW233231   6.288  10.791   3.894  0.6430 -0.7991  0.2433
42957SOL     OW33232   4.002   3.942   7.837 -0.6071 -0.3503  0.5157
42957SOL    HW133233   3.916   3.949   7.879  0.8358  2.4454  3.4551
42957SOL    HW233234   4.000   4.009   7.769 -0.3664  0.6540  1.4729
42958SOL     OW33235   8.708   5.999   4.507  0.5596 -0.8640 -0.2819
42958SOL    HW133236   8.654   5.990   4.585  0.6768 -0.3983 -0.1472
42958SOL    HW233237   8.686   5.922   4.454 -1.6700  0.2533 -1.0980
42959SOL     OW33238   9.186   8.026   1.671 -0.6528 -0.4791 -0.4595
42959SOL    HW133239   9.211   8.084   1.599  0.4321  0.9442  1.0004
42959SOL    HW233240   9.125   8.077   1.723  0.8159 -0.3518  1.2157
42960SOL     OW33241   2.715   6.669   9.490 -0.6216  0.1958 -0.1218
42960SOL    HW133242   2.662   6.663   9.411  0.3024  0.9343 -0.8286
42960SOL    HW233243   2.728   6.578   9.517 -0.6237 -0.0889 -1.0476
42961SOL     OW33244   1.956   0.006   1.802 -0.2561 -0.1067  0.2786
42961SOL    HW133245   1.955   0.010   1.897  2.6904  0.3149  0.3809
42961SOL    HW233246   1.887   0.067   1.775 -0.5491  0.4437  2.1291
42962SOL     OW33247   7.981   2.858   2.104  0.0400 -0.4173 -0.6544
42962SOL    HW133248   7.910   2.907   2.147  0.5176  0.4706 -0.8550
42962SOL    HW233249   7.952   2.847   2.014  0.0791 -0.1999 -0.6941
42963SOL     OW33250   0.202   7.627   1.162 -0.3323  0.5012  0.0082
42963SOL    HW133251   0.135   7.695   1.166 -0.4555  0.3658  0.3016
42963SOL    HW233252   0.160   7.554   1.116 -0.8318 -0.0716  1.3344
42964SOL     OW33253   0.283   4.808   3.012  0.1081  0.1789  0.8604
42964SOL    HW133254   0.344   4.771   3.076  0.9737 -0.9708 -0.5347
42964SOL    HW233255   0.338   4.824   2.935 -0.7210  2.3585  0.6771
42965SOL     OW33256   2.741   0.227   3.259 -0.2174  0.7080  0.1570
42965SOL    HW133257   2.737   0.322   3.271 -1.2939  0.3994  2.9389
42965SOL    HW233258   2.803   0.198   3.326 -1.5991 -0.7415  0.8492
42966SOL     OW33259   9.108   7.113   5.540 -0.4503  0.8046  0.3432
42966SOL    HW133260   9.106   7.195   5.489  0.6609  0.6197 -0.0228
42966SOL    HW233261   9.078   7.046   5.478 -0.2700  0.7656  0.2967
42967SOL     OW33262   5.961  10.139   6.054 -0.3772  0.4312 -0.7311
42967SOL    HW133263   5.905  10.142   5.977 -1.3479  0.5236 -0.0321
42967SOL    HW233264   5.921  10.199   6.116 -0.8382 -1.2292  0.6440
42968SOL     OW33265  10.349   5.732  11.100 -1.0658 -0.3889  0.0536
42968SOL    HW133266  10.310   5.700  11.182  1.3018 -2.5651  0.4587
42968SOL    HW233267  10.395   5.656  11.064  0.8223  1.3954 -1.5457
42969SOL     OW33268   9.660   6.761   3.703 -0.4923 -0.2883 -0.0361
42969SOL    HW133269   9.624   6.797   3.784  0.0560  0.9245 -0.3093
42969SOL    HW233270   9.653   6.833   3.640 -1.4444 -1.3994 -1.2322
42970SOL     OW33271   6.419   6.412   1.548  0.1922 -0.0118  0.3952
42970SOL    HW133272   6.469   6.453   1.619 -1.0140  1.1876  0.5851
42970SOL    HW233273   6.366   6.483   1.512 -1.6204 -1.2900  0.4326
42971SOL     OW33274   7.764   9.165   8.701  0.7037  0.3179  0.3862
42971SOL    HW133275   7.715   9.090   8.734  0.7629 -0.1297 -0.4963
42971SOL    HW233276   7.762   9.229   8.772 -0.3615 -0.0541  0.7115
42972SOL     OW33277   7.719   3.846   6.134 -0.0748  0.1836 -0.0614
42972SOL    HW133278   7.635   3.892   6.129 -0.5291 -0.4971  0.9424
42972SOL    HW233279   7.705   3.765   6.085  0.2620  0.4202 -0.5647
42973SOL     OW33280   9.927   0.630   0.863 -0.2208 -0.6097  0.1496
42973SOL    HW133281   9.980   0.606   0.788 -2.8294 -0.2181 -1.9901
42973SOL    HW233282   9.855   0.567   0.863 -1.3016  0.5622  1.1395
42974SOL     OW33283   3.688   9.196   2.481  0.0537 -0.0154 -0.4797
42974SOL    HW133284   3.660   9.194   2.573 -1.1351 -1.5084 -0.8226
42974SOL    HW233285   3.711   9.106   2.461  2.7506  0.7060 -1.0069
42975SOL     OW33286   6.870   1.996   7.135  0.7044 -0.0243  0.4353
42975SOL    HW133287   6.930   1.932   7.098 -0.5634 -1.1448  0.2536
42975SOL    HW233288   6.855   1.967   7.225  1.0011  0.6704  0.7191
42976SOL     OW33289   7.269   8.032   3.340 -0.2341  0.3007  0.2715
42976SOL    HW133290   7.237   7.961   3.283  4.0207 -2.6094  1.0594
42976SOL    HW233291   7.235   8.009   3.427 -0.3480  0.2615  0.2172
42977SOL     OW33292  10.955   1.133   0.604  0.3198 -0.1566 -0.0661
42977SOL    HW133293  11.046   1.149   0.630 -0.1386 -0.4163  1.8694
42977SOL    HW233294  10.933   1.049   0.644 -1.2590  0.7019  0.9703
42978SOL     OW33295   1.853  11.062   6.392 -0.6391  0.1415 -0.3380
42978SOL    HW133296   1.831  11.151   6.363  2.7780  0.5732 -2.1617
42978SOL    HW233297   1.892  11.074   6.479 -0.2467  0.4592 -0.5516
42979SOL     OW33298   4.057   5.108   2.527  0.2865  0.6387  0.0405
42979SOL    HW133299   4.069   5.014   2.514 -1.8494  0.2582  0.4150
42979SOL    HW233300   4.000   5.114   2.604 -0.5282  2.1820 -0.6474
42980SOL     OW33301   7.939   4.785   1.682  0.2623  0.0851  0.3000
42980SOL    HW133302   7.992   4.712   1.713 -0.8417 -0.6731  0.4308
42980SOL    HW233303   7.909   4.829   1.761  1.0420  0.7912  0.2219
42981SOL     OW33304   3.367   9.243   0.248  0.1039 -0.9117  0.6794
42981SOL    HW133305   3.280   9.205   0.262 -0.6036  0.9973  1.8634
42981SOL    HW233306   3.407   9.245   0.336  2.1992 -3.5431 -0.0919
42982SOL     OW33307   0.635   3.366   3.105  0.0207 -0.3228 -0.1437
42982SOL    HW133308   0.645   3.382   3.011  2.1799  1.0991  0.2567
42982SOL    HW233309   0.648   3.272   3.115  1.2009 -0.2845 -1.1341
42983SOL     OW33310   9.777   6.941   3.312  0.3739  0.2084  0.2804
42983SOL    HW133311   9.860   6.894   3.310  0.5973  0.5706  0.7835
42983SOL    HW233312   9.737   6.915   3.395  0.3911  0.7118  0.4489
42984SOL     OW33313  11.008  10.010   1.089 -0.2377  0.1340 -0.3328
42984SOL    HW133314  11.081   9.979   1.143  0.4474  0.6346 -0.9525
42984SOL    HW233315  10.983  10.094   1.129 -2.1163 -1.1577  1.3675
42985SOL     OW33316   2.193  10.522   3.439  0.0621  0.1166  0.5925
42985SOL    HW133317   2.185  10.555   3.350  0.2015 -0.4316  0.3745
42985SOL    HW233318   2.268  10.570   3.476  0.3339 -0.0376  0.2427
42986SOL     OW33319  10.355   2.735   5.548  0.1162 -0.0196  0.0575
42986SOL    HW133320  10.369   2.789   5.470  1.0360 -2.2927 -1.4872
42986SOL    HW233321  10.351   2.797   5.620  1.1650  2.0743 -1.5639
42987SOL     OW33322   4.320   2.356   4.782 -0.1355  0.0493 -0.4529
42987SOL    HW133323   4.256   2.403   4.729 -0.0503 -0.6114 -1.1709
42987SOL    HW233324   4.400   2.358   4.729 -0.2393 -1.2438 -0.7028
42988SOL     OW33325   7.176   9.918   1.713 -0.2275 -0.0757 -0.5524
42988SOL    HW133326   7.153   9.935   1.804  1.0204 -0.4048 -0.1575
42988SOL    HW233327   7.176  10.005   1.672 -0.4379  0.1145 -0.1517
42989SOL     OW33328   3.696   6.283   4.099 -0.3181 -0.0867  0.2745
42989SOL    HW133329   3.709   6.365   4.147 -0.2044  0.5767 -0.8423
42989SOL    HW233330   3.785   6.250   4.083 -0.2652  0.4585 -0.7013
42990SOL     OW33331   1.819   8.445   8.029  0.4149 -0.7043  0.4408
42990SOL    HW133332   1.843   8.508   8.097  0.4010  1.4808 -1.4496
42990SOL    HW233333   1.846   8.360   8.065  1.2797  0.4449  2.7394
42991SOL     OW33334   8.777   0.293   6.485 -0.4197 -0.0385 -0.2381
42991SOL    HW133335   8.829   0.373   6.480 -1.3613  0.6123  0.0429
42991SOL    HW233336   8.705   0.315   6.545 -0.4117 -1.2561  0.2436
42992SOL     OW33337   6.260   9.853   8.322  0.4371  0.0503 -0.6689
42992SOL    HW133338   6.327   9.878   8.386  0.9174  0.0383 -1.1569
42992SOL    HW233339   6.301   9.869   8.237 -0.4123  0.6401 -0.9805
42993SOL     OW33340   5.194   6.414   1.382  0.0270  0.1066 -0.0544
42993SOL    HW133341   5.249   6.483   1.418  0.9265 -0.4322 -0.3383
42993SOL    HW233342   5.239   6.388   1.301  0.6742 -1.9487  0.8753
42994SOL     OW33343   2.434   8.144  10.615 -0.2743 -0.0740  0.4168
42994SOL    HW133344   2.431   8.221  10.559  1.9965 -0.0386  0.2444
42994SOL    HW233345   2.467   8.176  10.699  2.0059 -0.9556 -0.0495
42995SOL     OW33346   9.879  10.893   4.407  0.1118  0.1557 -0.6116
42995SOL    HW133347   9.811  10.953   4.439  1.2248  0.3134  1.6636
42995SOL    HW233348   9.840  10.806   4.416  0.4075  0.1843  1.4160
42996SOL     OW33349   0.231   9.734   9.406 -0.5047  0.5486  0.0226
42996SOL    HW133350   0.288   9.810   9.419  0.5394 -0.1429 -0.4910
42996SOL    HW233351   0.224   9.695   9.493 -0.4875  0.8244  0.1517
42997SOL     OW33352   7.256  10.243   2.754  0.6054 -0.3497  0.1713
42997SOL    HW133353   7.264  10.178   2.683  0.8066 -1.1339  0.9017
42997SOL    HW233354   7.344  10.250   2.790  0.9943  1.6877 -1.0514
42998SOL     OW33355   0.851   3.046   5.672 -0.6039  0.2429  0.2491
42998SOL    HW133356   0.765   3.017   5.640 -0.1630 -1.2443  0.3383
42998SOL    HW233357   0.869   3.125   5.622 -1.7081  0.1680 -0.3036
42999SOL     OW33358   1.531   1.170   1.925  0.1054 -0.1807 -0.1598
42999SOL    HW133359   1.452   1.151   1.875 -0.1731 -0.3204  0.3247
42999SOL    HW233360   1.518   1.124   2.008  0.7073 -0.2230 -0.0875
43000SOL     OW33361  10.801   8.846   4.771 -0.1116 -0.0812 -0.1503
43000SOL    HW133362  10.776   8.877   4.684  0.6410  0.9900 -0.0114
43000SOL    HW233363  10.897   8.854   4.772 -0.0409 -0.9043  0.4752
43001SOL     OW33364   9.264   3.251   3.767  0.1210 -0.4067  0.6581
43001SOL    HW133365   9.182   3.278   3.809 -0.1945  0.2120 -0.3316
43001SOL    HW233366   9.333   3.289   3.822 -0.2928  0.8332  0.3390
43002SOL     OW33367   7.946   1.595   0.212 -0.5049  0.1827 -0.6415
43002SOL    HW133368   7.859   1.604   0.172 -0.3920  1.1098 -0.6959
43002SOL    HW233369   8.003   1.647   0.156  0.1068 -0.4915 -0.6492
43003SOL     OW33370   8.620   4.682   1.806  0.6339 -0.1460  0.0536
43003SOL    HW133371   8.643   4.600   1.850 -0.0929  0.3430  1.4231
43003SOL    HW233372   8.652   4.671   1.717  1.0842 -1.6814  0.3637
43004SOL     OW33373   2.274  10.085   2.839 -0.2218  0.4052  0.5540
43004SOL    HW133374   2.280  10.096   2.744 -1.0988  1.3601  0.6028
43004SOL    HW233375   2.343  10.021   2.859  1.3388  1.6693 -0.4646
43005SOL     OW33376   4.316   9.649   0.520 -0.1505 -0.2712 -0.1987
43005SOL    HW133377   4.371   9.699   0.459 -2.5835  1.3055 -1.2658
43005SOL    HW233378   4.278   9.580   0.466 -0.0001 -0.7503  0.3014
43006SOL     OW33379   1.249   8.314   1.910  0.1306  0.0828  0.1863
43006SOL    HW133380   1.157   8.304   1.883 -0.0620  0.0031  0.8389
43006SOL    HW233381   1.277   8.396   1.871 -0.5498  0.6437  0.8431
43007SOL     OW33382   4.248   3.438  10.647  0.7369  0.1196  0.6936
43007SOL    HW133383   4.248   3.504  10.578 -1.4504 -0.2030  0.3178
43007SOL    HW233384   4.178   3.464  10.706 -1.0978 -2.4934 -0.1651
43008SOL     OW33385   1.235   7.770   4.752  0.1466 -0.4189  0.3325
43008SOL    HW133386   1.280   7.829   4.812  0.9075  0.2974 -0.8914
43008SOL    HW233387   1.258   7.803   4.665 -0.4123 -1.7962 -0.3648
43009SOL     OW33388   7.171  11.042  10.082  0.1909  0.6691  0.3229
43009SOL    HW133389   7.112  11.115  10.102  0.4482  0.5314  1.6816
43009SOL    HW233390   7.230  11.077  10.016 -0.4557  1.2940  0.0543
43010SOL     OW33391   8.281   7.024  10.614  0.3572  0.2219 -0.6242
43010SOL    HW133392   8.211   7.083  10.641 -0.4192 -0.2990 -1.4413
43010SOL    HW233393   8.253   6.937  10.643  0.8159  0.0479 -0.6806
43011SOL     OW33394  11.015   8.687   9.751 -0.8079  0.3670 -0.3228
43011SOL    HW133395  11.003   8.782   9.756 -0.7120  0.4115 -0.8957
43011SOL    HW233396  10.977   8.655   9.833  0.9537  1.0537  0.8156
43012SOL     OW33397   9.136   9.993   2.423  0.2999 -0.3128  0.0505
43012SOL    HW133398   9.230   9.997   2.438  0.5826 -2.9920 -0.4318
43012SOL    HW233399   9.097  10.036   2.500  1.8956 -0.8317  1.2035
43013SOL     OW33400   5.167   5.234   4.130 -0.4828 -0.3442 -0.4412
43013SOL    HW133401   5.211   5.179   4.066  1.4972 -0.2968  0.7857
43013SOL    HW233402   5.121   5.300   4.078 -0.5832 -1.4611 -1.8360
43014SOL     OW33403   7.921   1.633   4.758 -0.0483 -0.5066 -0.1797
43014SOL    HW133404   7.933   1.710   4.703  0.7284 -0.8260 -0.4742
43014SOL    HW233405   8.010   1.604   4.780 -0.3096  0.1768  2.0660
43015SOL     OW33406   7.221   9.871   5.074  0.1634 -0.4975  0.4950
43015SOL    HW133407   7.175   9.954   5.091  1.2672  0.0147  1.0743
43015SOL    HW233408   7.154   9.804   5.087 -0.3902  0.2244  1.5117
43016SOL     OW33409   5.878   7.952   8.860  0.3307  0.0235 -0.4316
43016SOL    HW133410   5.862   7.868   8.905  0.7090 -0.1177 -0.5528
43016SOL    HW233411   5.889   7.928   8.768  1.0853  0.1241 -0.3747
43017SOL     OW33412   2.239  10.858   1.752 -0.1693 -0.1691 -0.2476
43017SOL    HW133413   2.284  10.922   1.697 -1.9155  0.8558 -0.5494
43017SOL    HW233414   2.304  10.833   1.817  1.1838  0.3983 -1.3286
43018SOL     OW33415   3.268  10.827   1.441 -0.2061 -0.7186 -0.1112
43018SOL    HW133416   3.227  10.759   1.494 -2.0250  0.6722  0.3433
43018SOL    HW233417   3.237  10.810   1.352 -0.3285 -0.7356 -0.0655
43019SOL     OW33418   7.833   1.310   7.553 -0.1890 -0.3001 -0.3824
43019SOL    HW133419   7.783   1.244   7.601  0.9232 -0.0101  1.2830
43019SOL    HW233420   7.877   1.260   7.484 -0.4686 -1.0643 -0.0299
43020SOL     OW33421   3.390   1.654   8.351 -0.1409 -0.1211  1.1834
43020SOL    HW133422   3.441   1.686   8.425  0.2240  1.1118  0.4329
43020SOL    HW233423   3.455   1.631   8.285 -0.4785 -0.6443  1.0302
43021SOL     OW33424   3.598   5.040   8.950 -0.3510  0.7266  0.0672
43021SOL    HW133425   3.505   5.028   8.930 -0.0231 -1.3769 -0.5153
43021SOL    HW233426   3.642   4.968   8.904  1.4248  0.8870  1.3928
43022SOL     OW33427   6.046   4.284   9.769 -0.0585  0.1601  0.3710
43022SOL    HW133428   6.052   4.244   9.856 -0.6096  0.9684  0.7941
43022SOL    HW233429   6.030   4.376   9.787  0.2276  0.4028 -0.5974
43023SOL     OW33430   3.175   9.330   1.568  0.7859 -0.1592 -0.5343
43023SOL    HW133431   3.106   9.315   1.632  1.5262  1.0047  0.5717
43023SOL    HW233432   3.165   9.259   1.504  0.3881 -1.6918  1.1672
43024SOL     OW33433   0.381   3.557   5.324 -0.0167 -0.0762  0.0207
43024SOL    HW133434   0.405   3.517   5.240  0.4996  0.7111 -0.2241
43024SOL    HW233435   0.371   3.483   5.384 -0.9197 -0.6906 -0.8520
43025SOL     OW33436   6.500   3.090   9.362  0.3117  0.1037  0.3078
43025SOL    HW133437   6.495   3.113   9.455 -0.2104 -0.4662  0.4318
43025SOL    HW233438   6.432   3.143   9.321 -1.0051 -1.2562  0.6195
43026SOL     OW33439  10.551   6.356   6.560  0.0150 -0.0705 -0.4993
43026SOL    HW133440  10.581   6.423   6.498  0.4028 -1.7999 -2.2868
43026SOL    HW233441  10.560   6.274   6.512 -1.4241 -1.3213  1.2521
43027SOL     OW33442   9.031   0.991   3.020 -0.2530  0.3195  1.0558
43027SOL    HW133443   9.045   1.014   3.111 -0.3547 -2.6233  1.9109
43027SOL    HW233444   9.033   0.895   3.018  1.0493  0.2521 -2.2314
43028SOL     OW33445   2.989   3.166   4.417 -0.1078  0.1153 -0.0389
43028SOL    HW133446   2.962   3.205   4.334 -1.3812 -1.1110 -0.2333
43028SOL    HW233447   3.015   3.077   4.394 -0.4137 -0.2109  0.8714
43029SOL     OW33448   7.678   5.627   2.309  0.0291 -0.5694 -0.0065
43029SOL    HW133449   7.628   5.550   2.335  2.7601 -1.7793  2.1648
43029SOL    HW233450   7.613   5.698   2.306 -2.1339 -2.4109  0.5375
43030SOL     OW33451   9.825   3.459   4.317 -0.9958 -0.1348  0.0156
43030SOL    HW133452   9.873   3.535   4.349 -0.0708 -0.3286 -0.8657
43030SOL    HW233453   9.832   3.464   4.222 -0.1933 -1.7664 -0.0414
43031SOL     OW33454   8.463   2.981   8.232 -0.2023 -0.0088  0.0376
43031SOL    HW133455   8.498   2.961   8.146 -0.8424 -0.0880 -0.2099
43031SOL    HW233456   8.377   3.019   8.215 -0.8467 -1.1287  0.6818
43032SOL     OW33457   9.223   4.621  10.844 -0.3445  0.5077  0.0211
43032SOL    HW133458   9.134   4.603  10.814  0.0341  0.5766 -1.1768
43032SOL    HW233459   9.213   4.693  10.906 -1.0796  0.7825 -0.4086
43033SOL     OW33460   9.684   1.817   5.378  0.3774 -0.2470  0.6914
43033SOL    HW133461   9.637   1.750   5.328 -1.2548  1.9366 -0.9239
43033SOL    HW233462   9.767   1.828   5.331 -0.5633  0.8119 -0.8055
43034SOL     OW33463   4.933  10.043   9.869  0.6062 -0.0223 -0.0365
43034SOL    HW133464   4.976  10.122   9.899 -1.6137  0.3373  2.5675
43034SOL    HW233465   4.889  10.069   9.788  0.1857  1.3189  0.5995
43035SOL     OW33466   3.586   0.135   2.053 -0.5027 -0.1272 -0.2442
43035SOL    HW133467   3.672   0.113   2.018 -1.0402 -1.4295 -0.8267
43035SOL    HW233468   3.563   0.060   2.107 -1.2610  0.2185 -0.0798
43036SOL     OW33469   6.214   2.725   2.077 -0.2933 -0.2895  0.3852
43036SOL    HW133470   6.170   2.736   1.993 -0.1604  1.3262  0.4857
43036SOL    HW233471   6.195   2.635   2.103 -0.9381 -0.5841 -1.0275
43037SOL     OW33472   2.900   4.968   2.154  0.3477 -0.6782  0.6310
43037SOL    HW133473   2.988   4.974   2.192 -0.3238 -1.4803  2.4508
43037SOL    HW233474   2.841   4.973   2.230 -1.1644 -0.4696 -0.5168
43038SOL     OW33475   8.793   2.861   3.488  0.1747 -0.1927 -0.4085
43038SOL    HW133476   8.784   2.883   3.395 -1.0801  0.3470 -0.1767
43038SOL    HW233477   8.747   2.931   3.534  2.4416  0.6414  0.7629
43039SOL     OW33478   7.514   2.383   0.560  0.0382 -0.3329  0.1423
43039SOL    HW133479   7.462   2.321   0.612  0.4985 -1.3299 -0.5479
43039SOL    HW233480   7.465   2.394   0.479 -0.8565  1.4964  0.8882
43040SOL     OW33481   1.091   5.547   4.239 -0.4277 -0.3428  0.1060
43040SOL    HW133482   1.177   5.504   4.234 -0.0026  0.5873 -1.1100
43040SOL    HW233483   1.107   5.627   4.289 -0.4504  0.0987 -0.5742
43041SOL     OW33484  11.072  10.225  10.108 -0.6062  0.1069 -0.5415
43041SOL    HW133485  11.008  10.216  10.179  0.6118  1.1709  0.7540
43041SOL    HW233486  11.156  10.240  10.153  0.3750 -0.1395 -2.1971
43042SOL     OW33487   8.303   8.969   4.422 -0.1608 -0.0215  0.4436
43042SOL    HW133488   8.261   8.974   4.508 -0.9985 -0.1439  0.0521
43042SOL    HW233489   8.276   9.050   4.378  1.4799  0.7673  0.8161
43043SOL     OW33490   3.995   9.875   2.104  0.0734 -0.2228  0.1536
43043SOL    HW133491   4.063   9.939   2.083  0.0779  0.6151  2.4046
43043SOL    HW233492   3.959   9.849   2.020  2.2659  0.3160 -1.0181
43044SOL     OW33493   4.811   9.084   1.044 -0.0508 -0.3939  0.1141
43044SOL    HW133494   4.724   9.099   1.008 -1.5695  0.4684  3.6696
43044SOL    HW233495   4.821   8.989   1.046 -0.4939 -0.4844 -1.1278
43045SOL     OW33496   8.926   7.349   0.888 -0.3635  0.0040  0.4310
43045SOL    HW133497   8.862   7.336   0.957  0.6540  0.3599  1.4752
43045SOL    HW233498   8.990   7.279   0.900 -0.8116 -0.6749 -0.9326
43046SOL     OW33499   6.572   4.259   5.921 -0.6435 -0.4662  0.2851
43046SOL    HW133500   6.485   4.269   5.959 -1.5988  0.8199 -2.0306
43046SOL    HW233501   6.593   4.346   5.887  1.0457 -1.0422 -0.2268
43047SOL     OW33502   9.173   7.174   0.952  0.1696  0.0066  0.3919
43047SOL    HW133503   9.142   7.096   0.998 -0.0670 -0.6322 -0.7956
43047SOL    HW233504   9.208   7.140   0.869  4.2743  0.6301  1.6275
43048SOL     OW33505   2.005   8.204   7.058  0.4921 -0.1964  0.0088
43048SOL    HW133506   1.958   8.130   7.020 -0.1794  0.2347 -0.0186
43048SOL    HW233507   1.937   8.258   7.098  0.7453  1.2866 -1.4553
43049SOL     OW33508   4.541   0.459   2.751 -0.8416  0.4149  0.1329
43049SOL    HW133509   4.517   0.387   2.692  1.2081  1.3154 -1.9553
43049SOL    HW233510   4.591   0.418   2.821  1.3550 -0.1863 -1.6627
43050SOL     OW33511   4.624   5.537   3.936  0.6138  0.0830 -0.1871
43050SOL    HW133512   4.652   5.551   3.845  0.4481  0.8832 -0.1188
43050SOL    HW233513   4.537   5.500   3.929  1.3783 -1.7726 -0.3886
43051SOL     OW33514   4.486   9.988   9.173 -0.1080 -0.0224  0.6994
43051SOL    HW133515   4.546  10.056   9.143 -0.5519  0.3410  0.6291
43051SOL    HW233516   4.538   9.936   9.234  0.6938 -0.5482 -0.3973
43052SOL     OW33517   9.203   4.355  10.996  0.5381  1.1286  0.2496
43052SOL    HW133518   9.187   4.445  10.966 -1.9413  0.4814 -0.6506
43052SOL    HW233519   9.260   4.317  10.930 -0.0668  1.4560 -0.4763
43053SOL     OW33520   1.340   5.030  10.241  0.6419 -0.5533 -0.1595
43053SOL    HW133521   1.257   5.067  10.211  0.8756 -0.0939 -0.2521
43053SOL    HW233522   1.319   4.987  10.324  1.0139  2.9788  1.9703
43054SOL     OW33523   6.678  10.627   2.842 -0.0408 -0.0467 -0.3405
43054SOL    HW133524   6.665  10.607   2.750 -0.0697 -1.9083  0.0317
43054SOL    HW233525   6.745  10.566   2.871 -0.7012 -0.1427  1.0817
43055SOL     OW33526   7.181  10.218   6.451 -0.2139  0.2794  0.4087
43055SOL    HW133527   7.091  10.195   6.426 -0.0418 -0.1165  0.1320
43055SOL    HW233528   7.236  10.159   6.398  0.2077  0.5385  0.5542
43056SOL     OW33529   0.739   1.564   7.072 -0.0083 -0.3970 -0.4151
43056SOL    HW133530   0.786   1.481   7.073 -0.6139 -0.7515  0.6731
43056SOL    HW233531   0.647   1.539   7.069 -0.2112  0.2128  0.2519
43057SOL     OW33532   5.444   0.598   4.487 -0.6532 -0.0576 -0.0003
43057SOL    HW133533   5.420   0.529   4.550 -2.1654  0.1009 -0.3536
43057SOL    HW233534   5.410   0.678   4.526  0.8786  0.4724  0.2845
43058SOL     OW33535   8.496   1.021   1.141  0.0176  0.2648  0.0759
43058SOL    HW133536   8.443   1.091   1.177 -1.6124 -0.6358 -0.4576
43058SOL    HW233537   8.557   1.065   1.081 -1.1070  1.1977 -0.4087
43059SOL     OW33538   0.690  10.161   2.528 -0.4130 -0.6326  0.6693
43059SOL    HW133539   0.757  10.204   2.475 -1.4944  0.5495  0.2422
43059SOL    HW233540   0.667  10.082   2.478 -0.9581  0.1353 -0.3111
43060SOL     OW33541   4.271   4.364   9.453 -0.4454 -0.2263 -0.1635
43060SOL    HW133542   4.227   4.279   9.449  0.5546 -0.7087 -2.4704
43060SOL    HW233543   4.350   4.353   9.401  0.3319  1.7864  0.4978
43061SOL     OW33544   3.648   8.019   5.253  0.4865  0.3044 -0.1383
43061SOL    HW133545   3.602   7.971   5.184  1.4869 -0.0105 -0.6135
43061SOL    HW233546   3.740   8.016   5.226  0.5678  2.6502 -0.2876
43062SOL     OW33547   0.695   8.981   0.967 -0.6051  0.0908  0.0336
43062SOL    HW133548   0.716   8.988   1.060  2.5518  0.0710 -0.5549
43062SOL    HW233549   0.698   8.887   0.949  0.7276  0.1841 -0.3879
43063SOL     OW33550   9.409   7.012  10.435 -0.1962 -0.3341  0.3079
43063SOL    HW133551   9.496   7.052  10.429 -0.0127 -0.3390  2.2137
43063SOL    HW233552   9.386   7.019  10.528 -1.4942 -1.8983  0.1519
43064SOL     OW33553  10.158   7.927   1.401  0.7846 -0.3396 -0.0444
43064SOL    HW133554  10.184   7.844   1.361  1.4269 -0.0623 -0.2113
43064SOL    HW233555  10.224   7.989   1.372  2.1290 -0.4200  2.6344
43065SOL     OW33556   9.028   3.158   8.264  0.2322  0.1926 -0.2609
43065SOL    HW133557   9.118   3.165   8.233 -0.2245  1.3904 -1.4279
43065SOL    HW233558   8.977   3.206   8.199 -1.0029  1.3455  1.4613
43066SOL     OW33559   8.258   8.378   3.017 -0.2066  0.2370 -0.2112
43066SOL    HW133560   8.329   8.314   3.025 -0.1900  0.2293 -0.4386
43066SOL    HW233561   8.251   8.395   2.924  0.1675  0.9943 -0.1043
43067SOL     OW33562   4.589   3.700   6.728 -0.0347 -0.4019  0.3238
43067SOL    HW133563   4.625   3.629   6.782  0.4971 -1.1874 -1.0202
43067SOL    HW233564   4.583   3.775   6.788  3.9993 -0.1413  0.6977
43068SOL     OW33565   6.606   8.257   4.224 -0.3241  0.0688 -0.0873
43068SOL    HW133566   6.603   8.351   4.241  1.8383  0.4493 -1.3526
43068SOL    HW233567   6.590   8.216   4.309  0.2097  1.6027  0.7902
43069SOL     OW33568   2.970   4.996   3.685  0.5012  0.0961  0.0024
43069SOL    HW133569   2.957   5.089   3.704 -0.2235 -0.1952  1.0251
43069SOL    HW233570   3.052   4.974   3.729 -0.9115 -0.4530  2.5647
43070SOL     OW33571   9.999  10.750   5.061  0.1631 -0.4585  0.7480
43070SOL    HW133572  10.041  10.750   4.975  0.2798 -0.8478  0.8021
43070SOL    HW233573   9.943  10.673   5.061 -0.1858 -0.2100  0.8557
43071SOL     OW33574   7.296  10.269   0.025  0.1561  0.2499  0.1768
43071SOL    HW133575   7.249  10.343   0.064 -1.8215 -0.6752 -0.3372
43071SOL    HW233576   7.385  10.302   0.011  0.0372  1.6928  2.2929
43072SOL     OW33577   6.596   1.129   1.174 -0.3898 -0.0820 -0.5877
43072SOL    HW133578   6.684   1.165   1.187 -1.0075  0.8619  1.4622
43072SOL    HW233579   6.574   1.089   1.259 -2.2367  0.4318 -0.7786
43073SOL     OW33580  10.766   8.978  10.973 -0.2510 -0.5211  0.1484
43073SOL    HW133581  10.787   8.953  11.063 -1.3852  0.3779  0.6779
43073SOL    HW233582  10.735   9.068  10.979  0.4428 -0.1558 -1.2645
43074SOL     OW33583   9.500   2.766   7.628  0.3770  0.3624  0.1658
43074SOL    HW133584   9.551   2.789   7.706 -1.0992  2.4138  0.6204
43074SOL    HW233585   9.519   2.674   7.613  1.9916  0.3457  1.9673
43075SOL     OW33586  10.870   4.967   1.049  0.4862  0.0102 -0.3445
43075SOL    HW133587  10.869   4.892   1.109 -0.3396  0.6151  0.4205
43075SOL    HW233588  10.917   5.035   1.097  2.5802 -0.4396 -1.6213
43076SOL     OW33589   9.761   7.951   1.681 -0.1936  0.4814  0.4924
43076SOL    HW133590   9.804   7.895   1.616  1.9843  2.3769  0.1846
43076SOL    HW233591   9.672   7.963   1.646 -1.1952 -3.4902  1.1144
43077SOL     OW33592   0.944   7.510   1.204 -0.6080  0.0686  0.1135
43077SOL    HW133593   0.886   7.446   1.244 -0.4033  0.1990  0.6223
43077SOL    HW233594   0.945   7.584   1.265  0.0817  0.0720  0.1097
43078SOL     OW33595   1.911   2.406   0.153  0.4808  0.4578 -0.0892
43078SOL    HW133596   1.977   2.342   0.126  0.6348  0.2143  0.8496
43078SOL    HW233597   1.842   2.354   0.194 -0.7138  0.6135 -1.7704
43079SOL     OW33598   8.717   1.844   7.587  0.4703  0.1120 -0.4046
43079SOL    HW133599   8.682   1.784   7.521  0.5067 -0.5793  0.1928
43079SOL    HW233600   8.729   1.790   7.665 -2.3048  1.4712  1.1290
43080SOL     OW33601  10.320   0.778   5.163 -0.1396 -0.6315  0.8327
43080SOL    HW133602  10.281   0.866   5.159  2.2254  0.4657  0.2045
43080SOL    HW233603  10.289   0.742   5.246 -0.3411  1.2215  1.6177
43081SOL     OW33604   4.347   2.979   1.419  0.1302  0.2679 -0.3839
43081SOL    HW133605   4.418   3.035   1.451 -1.0151  0.9206  1.1515
43081SOL    HW233606   4.350   2.902   1.477  0.6720 -0.5387 -1.4483
43082SOL     OW33607   5.775  10.544   2.267  0.2845 -0.5424 -0.0600
43082SOL    HW133608   5.762  10.596   2.346  3.2004  0.0400  0.1334
43082SOL    HW233609   5.740  10.598   2.197  2.5324  1.4847  0.2432
43083SOL     OW33610   0.208   2.313   9.770  0.9223 -0.1734 -0.2403
43083SOL    HW133611   0.206   2.227   9.812 -0.9299 -0.7327 -1.3539
43083SOL    HW233612   0.142   2.364   9.818  0.5341 -0.0515 -0.8967
43084SOL     OW33613   0.729   3.254   1.075 -0.7013 -0.4452 -0.1330
43084SOL    HW133614   0.658   3.315   1.061 -0.8483  0.0023  2.2804
43084SOL    HW233615   0.687   3.168   1.079 -1.2061 -0.1533  1.6026
43085SOL     OW33616  10.531   1.399   3.559  0.1758  0.2033 -0.1075
43085SOL    HW133617  10.508   1.450   3.636  2.5785 -0.4469  1.1370
43085SOL    HW233618  10.627   1.395   3.561  0.2296 -1.0405 -2.3466
43086SOL     OW33619   9.825  10.669   3.686 -0.1635 -0.8878  0.7118
43086SOL    HW133620   9.882  10.605   3.729  1.8035  0.3985  0.1745
43086SOL    HW233621   9.885  10.735   3.652 -2.0562  0.8369  0.5367
43087SOL     OW33622   3.374   8.115   1.286  0.1297 -0.2788  0.6176
43087SOL    HW133623   3.378   8.060   1.208 -0.8705  0.9894 -0.3817
43087SOL    HW233624   3.397   8.203   1.254  3.2118 -0.2868  2.4336
43088SOL     OW33625   7.109   1.527   8.701 -0.2566  0.2442 -0.2527
43088SOL    HW133626   7.041   1.575   8.749 -0.3897  0.0078 -0.2064
43088SOL    HW233627   7.087   1.435   8.715  0.7191  0.1369  0.7131
43089SOL     OW33628   1.131   3.609   3.098  0.4412  0.1727 -0.3040
43089SOL    HW133629   1.115   3.703   3.094 -0.8125 -0.0284 -0.2208
43089SOL    HW233630   1.061   3.570   3.047  0.1277 -0.7939  0.8149
43090SOL     OW33631   8.041   6.935   9.474  0.6238 -0.1621 -0.1213
43090SOL    HW133632   8.106   6.998   9.506  0.3424 -0.7022  1.6240
43090SOL    HW233633   8.091   6.875   9.419  1.4278 -0.0022  0.4132
43091SOL     OW33634   8.273   7.730   0.980 -0.1133 -0.4168 -0.5192
43091SOL    HW133635   8.296   7.671   1.052 -2.3224 -1.0125 -0.2169
43091SOL    HW233636   8.354   7.776   0.959  1.0728 -1.7579  0.9321
43092SOL     OW33637   8.368   6.812   7.992  0.0392  0.0584 -0.2368
43092SOL    HW133638   8.356   6.906   8.004  0.5505  0.3755 -1.9078
43092SOL    HW233639   8.303   6.788   7.926  1.2358 -0.3516 -1.2911
43093SOL     OW33640   7.747   6.334   7.826 -0.5124  0.4590  0.2814
43093SOL    HW133641   7.661   6.337   7.868 -0.6063  0.5103  0.0807
43093SOL    HW233642   7.795   6.266   7.875 -1.1998 -0.7322 -0.6385
43094SOL     OW33643   4.248   7.889   4.812  0.0401 -0.3558  0.4085
43094SOL    HW133644   4.256   7.846   4.897  1.5330 -0.8598  0.0530
43094SOL    HW233645   4.302   7.967   4.820 -1.3764  0.6473  0.5249
43095SOL     OW33646   6.287   0.271   1.452 -0.1595 -0.5341 -0.2325
43095SOL    HW133647   6.320   0.199   1.399 -1.2397 -1.5593  0.4497
43095SOL    HW233648   6.358   0.288   1.515  0.4980 -0.3202 -1.0111
43096SOL     OW33649   1.386   7.342   9.806  0.0300 -0.1641  0.2499
43096SOL    HW133650   1.448   7.412   9.825  0.1546 -0.0768 -0.4453
43096SOL    HW233651   1.307   7.365   9.855 -0.0485  0.6517 -0.2457
43097SOL     OW33652   7.255   7.326   8.163  0.3991  0.4183 -0.1483
43097SOL    HW133653   7.274   7.290   8.077 -1.1611  1.3829 -0.9562
43097SOL    HW233654   7.171   7.286   8.188  0.3382  0.8948  0.4574
43098SOL     OW33655   5.010   6.141   0.887 -0.0761  0.0151 -0.4867
43098SOL    HW133656   4.942   6.180   0.832 -1.1187 -0.1877  0.6149
43098SOL    HW233657   5.068   6.096   0.825  0.4046  2.1421 -1.6514
43099SOL     OW33658   1.003   0.408  10.418 -0.4887 -0.1258  1.1795
43099SOL    HW133659   1.045   0.406  10.503 -4.0851  1.4653  3.2451
43099SOL    HW233660   0.941   0.335  10.420  0.7059 -1.3007 -0.9872
43100SOL     OW33661  10.042  10.829   8.687 -0.5492  0.2766 -0.2530
43100SOL    HW133662  10.038  10.896   8.755 -1.1379 -1.5169  1.5802
43100SOL    HW233663  10.132  10.797   8.689 -0.7730 -0.3460  0.2992
43101SOL     OW33664   5.151   8.981   3.555  0.3179  0.2978  0.0718
43101SOL    HW133665   5.110   8.924   3.490  0.3090  1.3079 -0.8420
43101SOL    HW233666   5.223   9.024   3.507  0.9657  0.2910  1.0154
43102SOL     OW33667   0.920   5.714   1.350 -0.4178  0.1089 -0.0264
43102SOL    HW133668   0.846   5.770   1.329 -0.0668  0.7496  0.4002
43102SOL    HW233669   0.882   5.628   1.364 -0.8151 -0.0686 -1.9894
43103SOL     OW33670   4.318   9.924   7.914 -0.3315 -0.1427  0.7437
43103SOL    HW133671   4.395   9.907   7.967  0.3279  2.4097  0.7297
43103SOL    HW233672   4.338   9.885   7.829  0.1964 -0.9550  1.2268
43104SOL     OW33673   1.250   4.252   0.316 -0.0147  0.0943 -0.7383
43104SOL    HW133674   1.162   4.252   0.355 -1.1457  2.3590 -2.9504
43104SOL    HW233675   1.270   4.160   0.301 -2.2263 -0.4602 -0.6071
43105SOL     OW33676   1.841   8.060   9.606  0.5455 -0.2670 -0.6955
43105SOL    HW133677   1.857   7.992   9.671  2.8292 -0.0096 -0.9214
43105SOL    HW233678   1.821   8.011   9.526 -2.2864 -0.5821  0.0900
43106SOL     OW33679   5.249   4.804   4.597 -0.0611 -0.3141  0.0196
43106SOL    HW133680   5.228   4.711   4.584 -0.6904 -0.0498 -0.9639
43106SOL    HW233681   5.325   4.819   4.541  0.2346 -0.2956  0.4174
43107SOL     OW33682   7.303   4.008   5.939 -0.1269  0.1816  0.0295
43107SOL    HW133683   7.286   3.938   6.002  2.3819  1.4222  2.2894
43107SOL    HW233684   7.227   4.066   5.947 -0.9041 -0.8272  0.2184
43108SOL     OW33685   8.787   9.092   7.127  0.0750  0.2164 -0.0376
43108SOL    HW133686   8.857   9.070   7.189 -0.5457 -0.7091  0.3554
43108SOL    HW233687   8.790   9.021   7.063 -1.0175 -0.2752  0.4310
43109SOL     OW33688   2.406   7.621   9.343  0.3782 -0.1178  0.4646
43109SOL    HW133689   2.367   7.534   9.353 -1.0763  0.5363  0.7428
43109SOL    HW233690   2.438   7.642   9.431 -0.4453  0.1523  0.7088
43110SOL     OW33691   6.003   3.175   7.395 -0.2963 -0.0393  0.0479
43110SOL    HW133692   5.970   3.139   7.312  0.8642  0.1387 -0.5037
43110SOL    HW233693   6.026   3.265   7.375 -0.0520  0.0193  0.5763
43111SOL     OW33694   1.008   8.613   0.521 -0.1820 -0.4446  0.0029
43111SOL    HW133695   0.951   8.598   0.596 -1.7610 -0.0733 -1.0916
43111SOL    HW233696   0.976   8.695   0.482  1.3655  0.0014 -0.4145
43112SOL     OW33697   6.932   0.809   8.975 -0.0339 -0.1180 -0.4658
43112SOL    HW133698   6.996   0.838   8.909  0.0409 -1.0114 -0.7988
43112SOL    HW233699   6.895   0.729   8.938  0.3652 -0.9090  0.8069
43113SOL     OW33700   6.911   1.373   1.793  0.2624 -0.3477 -0.2172
43113SOL    HW133701   6.856   1.416   1.858 -0.8841 -0.8670 -0.8099
43113SOL    HW233702   6.970   1.317   1.844  0.3504  0.3381  0.4390
43114SOL     OW33703   6.551   2.909   0.455  0.2164  0.4980 -0.8412
43114SOL    HW133704   6.613   2.978   0.479  3.2434 -1.6282 -1.8808
43114SOL    HW233705   6.581   2.878   0.370 -1.6133 -1.4304 -0.8830
43115SOL     OW33706   4.253   0.986   7.487  0.3741 -0.0632 -0.3973
43115SOL    HW133707   4.265   1.079   7.502  0.8792 -0.1551 -0.2106
43115SOL    HW233708   4.281   0.972   7.396 -1.4260  0.2666 -1.0435
43116SOL     OW33709  10.890   5.205   4.153  0.0030  0.1144 -0.3625
43116SOL    HW133710  10.922   5.116   4.172 -0.3810 -0.3292 -1.6730
43116SOL    HW233711  10.828   5.224   4.223  0.9834 -0.1642  0.6046
43117SOL     OW33712   1.956   7.987  10.207  0.1444 -0.2512 -0.4311
43117SOL    HW133713   1.997   7.988  10.120  0.3391  0.5480 -0.3360
43117SOL    HW233714   1.926   7.897  10.218  1.5357 -0.7714 -0.6595
43118SOL     OW33715   5.675  10.383   6.534 -0.5418 -0.1969 -0.2994
43118SOL    HW133716   5.741  10.314   6.531 -0.2119  0.0854  0.2530
43118SOL    HW233717   5.684  10.421   6.622  0.3000  1.5421 -1.0928
43119SOL     OW33718  10.265   4.529   8.804  0.1421 -0.0800  0.3290
43119SOL    HW133719  10.182   4.556   8.842  0.7658  1.8983  0.3987
43119SOL    HW233720  10.242   4.463   8.739 -1.5029  0.6735  0.1178
43120SOL     OW33721   2.254   2.849   9.126 -0.4824 -0.3343  0.6613
43120SOL    HW133722   2.281   2.847   9.217 -0.0612 -1.8159  0.5216
43120SOL    HW233723   2.164   2.882   9.129  0.2535  1.7821  1.3819
43121SOL     OW33724   4.133   5.836   9.851 -0.0978 -0.2898  0.2399
43121SOL    HW133725   4.060   5.883   9.890  2.0334  2.7370  0.9559
43121SOL    HW233726   4.173   5.789   9.925  1.1629  1.6512  0.8884
43122SOL     OW33727  10.041   0.541   9.004 -0.6669  0.0818  0.4062
43122SOL    HW133728   9.950   0.536   8.974 -0.3863 -1.2021 -0.2687
43122SOL    HW233729  10.053   0.462   9.056  0.0917  0.2119  0.4356
43123SOL     OW33730  11.116   8.735   0.842  0.4583  0.3507 -0.1592
43123SOL    HW133731  11.106   8.644   0.872  1.1545 -0.5155 -2.3357
43123SOL    HW233732  11.109   8.787   0.922 -0.4716 -1.5658  1.0976
43124SOL     OW33733   6.637   3.534   3.860  0.3259  0.7704  0.3672
43124SOL    HW133734   6.557   3.586   3.863 -0.8150 -0.8538 -0.4802
43124SOL    HW233735   6.678   3.547   3.946 -0.9854  1.4277  0.9119
43125SOL     OW33736   9.736   3.433   7.827  0.2461 -0.5552  0.2206
43125SOL    HW133737   9.642   3.445   7.845  0.6629  0.4537  1.9672
43125SOL    HW233738   9.738   3.372   7.754 -1.7864 -0.3120 -0.1128
43126SOL     OW33739   8.080   1.464   2.604  0.2030 -0.3499  0.1479
43126SOL    HW133740   8.034   1.533   2.651  0.8231 -1.2950  2.2181
43126SOL    HW233741   8.123   1.412   2.672 -0.0682 -2.6602 -1.3572
43127SOL     OW33742   8.202   3.435   6.608 -0.2885  0.3172  1.2037
43127SOL    HW133743   8.188   3.526   6.581  0.5117 -0.1910 -1.1561
43127SOL    HW233744   8.139   3.421   6.679 -1.7121  2.1599  0.3850
43128SOL     OW33745   8.378   2.875   7.822 -0.2078  0.0943  0.8441
43128SOL    HW133746   8.315   2.947   7.829  1.0026  1.7501 -2.7889
43128SOL    HW233747   8.457   2.908   7.865 -0.4985 -0.2882  1.6994
43129SOL     OW33748   4.428   5.387   3.694  0.0347  0.5068 -0.4023
43129SOL    HW133749   4.448   5.468   3.741 -1.2129  0.9816 -0.6540
43129SOL    HW233750   4.333   5.385   3.688  0.1015 -0.1849 -1.7739
43130SOL     OW33751   6.647   7.204   3.142 -0.0446  0.3825 -0.7872
43130SOL    HW133752   6.611   7.116   3.156 -0.2307  0.7201  1.1962
43130SOL    HW233753   6.742   7.190   3.136  0.2029  0.2275  2.1694
43131SOL     OW33754   6.708   4.811   5.597 -0.2713  0.4039 -0.4966
43131SOL    HW133755   6.720   4.865   5.676 -0.5879  0.0566 -0.2071
43131SOL    HW233756   6.618   4.780   5.604 -1.1631  2.3540 -2.2317
43132SOL     OW33757   2.827   3.690   9.113  0.7258 -0.4218  0.7784
43132SOL    HW133758   2.877   3.609   9.104 -2.3443 -2.2452 -1.9880
43132SOL    HW233759   2.745   3.663   9.155 -0.2483  1.3062  0.0913
43133SOL     OW33760   1.259   0.346   2.335  0.0176 -0.7613  0.3195
43133SOL    HW133761   1.262   0.256   2.367  1.1027 -0.9711 -0.3474
43133SOL    HW233762   1.240   0.337   2.241 -1.1595 -0.2259  0.4778
43134SOL     OW33763   7.248   4.554   0.497  0.2142 -0.1261 -0.1820
43134SOL    HW133764   7.209   4.481   0.544 -1.8256  0.4032 -0.9707
43134SOL    HW233765   7.216   4.632   0.542  1.3243  0.3225 -0.1391
43135SOL     OW33766   4.771   1.665   8.694  0.2162  0.3117 -0.3370
43135SOL    HW133767   4.716   1.596   8.730  0.2755  0.6609  0.4294
43135SOL    HW233768   4.709   1.727   8.655  0.1720 -0.2584 -1.1988
43136SOL     OW33769   4.914   2.722   6.105 -0.3757 -0.0564 -0.1633
43136SOL    HW133770   4.928   2.641   6.056 -1.3310  0.2798 -1.0252
43136SOL    HW233771   4.857   2.697   6.178  1.2167 -0.5999  0.9682
43137SOL     OW33772   1.610   4.686   1.142 -0.1319 -0.2628 -0.3765
43137SOL    HW133773   1.617   4.709   1.050 -1.5094  1.7444 -0.0348
43137SOL    HW233774   1.642   4.763   1.189  0.2144 -1.1134  0.8480
43138SOL     OW33775   6.703   0.253   9.460 -0.2505  0.2486  1.1887
43138SOL    HW133776   6.700   0.164   9.425 -0.6297  0.4304  0.7559
43138SOL    HW233777   6.748   0.304   9.393 -0.2072  0.4219  1.3502
43139SOL     OW33778   0.076   8.245   0.525 -0.0738 -0.1979 -0.2518
43139SOL    HW133779   0.142   8.312   0.542  0.5903 -0.9266  0.1073
43139SOL    HW233780   0.077   8.234   0.430  0.7132 -0.5894 -0.2040
43140SOL     OW33781   3.416   8.766   4.373 -1.1284 -0.0572 -0.0641
43140SOL    HW133782   3.396   8.728   4.287 -1.2253  0.2201 -0.1638
43140SOL    HW233783   3.469   8.699   4.417 -0.1375  0.2494 -0.7499
43141SOL     OW33784   5.604   5.698   1.317 -0.5606  0.4996  0.3909
43141SOL    HW133785   5.587   5.771   1.257  1.0330 -1.4589 -2.7103
43141SOL    HW233786   5.659   5.736   1.385 -0.9347  2.4727 -0.3302
43142SOL     OW33787   9.181   3.196   2.605 -0.6540  0.3993 -0.5243
43142SOL    HW133788   9.246   3.267   2.600 -0.4563  0.1938 -0.9409
43142SOL    HW233789   9.181   3.158   2.517 -1.8265  0.8265 -0.7248
43143SOL     OW33790   0.112  10.681   5.840 -0.3071 -0.1370 -0.0895
43143SOL    HW133791   0.054  10.738   5.891  1.1404  0.4189  1.0011
43143SOL    HW233792   0.124  10.728   5.757 -2.2911 -0.8166 -0.8194
43144SOL     OW33793   0.187   2.840   0.081  0.3188  0.9709  0.7350
43144SOL    HW133794   0.271   2.795   0.074 -0.2916 -0.0729 -0.1906
43144SOL    HW233795   0.145   2.801   0.158 -0.2065 -0.0786 -0.0620
43145SOL     OW33796  10.684   0.121   7.464  0.0819  0.2077  0.3250
43145SOL    HW133797  10.743   0.065   7.514 -0.3535 -2.2554 -1.7251
43145SOL    HW233798  10.718   0.118   7.374 -1.5570  0.9729 -0.3648
43146SOL     OW33799   4.416   0.706   4.986 -0.2613 -0.2195  0.5807
43146SOL    HW133800   4.353   0.654   5.035 -0.8792 -0.9957 -0.9552
43146SOL    HW233801   4.446   0.773   5.047 -4.0984  1.4998  0.8532
43147SOL     OW33802   7.526  10.041   8.883  0.0515  0.5804 -0.2154
43147SOL    HW133803   7.597   9.981   8.859 -0.4540  0.1101 -0.5531
43147SOL    HW233804   7.452  10.013   8.830  0.1154  2.2364 -1.2251
43148SOL     OW33805   9.021   4.698   5.934  0.0987 -0.2015 -0.0784
43148SOL    HW133806   9.104   4.671   5.895  0.6290 -0.5927  1.2383
43148SOL    HW233807   9.045   4.770   5.993 -0.5073 -0.2192  0.1936
43149SOL     OW33808   8.688   8.453   5.157  0.3740  0.0494  0.5734
43149SOL    HW133809   8.749   8.507   5.106  1.1560 -0.3973  1.0091
43149SOL    HW233810   8.744   8.405   5.218 -0.3480 -0.9157  0.5016
43150SOL     OW33811   7.495   9.410   4.189  0.2400 -0.1314  0.4197
43150SOL    HW133812   7.565   9.345   4.194  1.3823  1.0680  0.4334
43150SOL    HW233813   7.470   9.411   4.097  1.2795  0.4825  0.1343
43151SOL     OW33814   8.343  10.942   5.596 -0.3602  0.1025  0.0086
43151SOL    HW133815   8.330  10.882   5.522  1.4755  0.9547 -1.0773
43151SOL    HW233816   8.354  11.028   5.556  1.6610  0.4463  1.1553
43152SOL     OW33817   0.937   2.372   9.508 -0.5793 -0.1688  0.1048
43152SOL    HW133818   0.911   2.367   9.416 -1.1414  1.5990  0.1347
43152SOL    HW233819   0.916   2.461   9.534  1.5641  0.0197  1.3663
43153SOL     OW33820   8.075   8.022   2.270  0.5407 -0.8342 -0.3995
43153SOL    HW133821   7.998   8.077   2.281  0.9532 -0.3911  0.3612
43153SOL    HW233822   8.123   8.061   2.196 -0.3241 -1.5525 -1.3638
43154SOL     OW33823   2.118   4.242   6.524  0.1996  0.1670  0.1328
43154SOL    HW133824   2.198   4.275   6.483  0.6515  1.0141  1.5882
43154SOL    HW233825   2.133   4.148   6.534  0.7505  0.2177 -0.1682
43155SOL     OW33826  10.365   5.521   4.531  0.1443 -0.1350 -0.6154
43155SOL    HW133827  10.431   5.501   4.597  0.2182 -0.5987 -0.8237
43155SOL    HW233828  10.282   5.508   4.576  0.1906  0.3777 -0.3737
43156SOL     OW33829   4.064   8.117   1.016  0.5677  0.3077  0.2888
43156SOL    HW133830   4.002   8.183   1.047 -0.3815 -0.8331  0.9208
43156SOL    HW233831   4.053   8.115   0.921  0.6845  1.1245  0.2575
43157SOL     OW33832   5.958   0.785   1.560  0.1490  0.6518 -0.4640
43157SOL    HW133833   6.028   0.849   1.547  1.6616 -0.9523 -0.5847
43157SOL    HW233834   5.933   0.759   1.471  0.1132  0.4809 -0.4043
43158SOL     OW33835   2.320   4.871   3.231 -0.7467 -0.1229  0.1338
43158SOL    HW133836   2.307   4.786   3.188 -0.5749 -1.0436  1.8297
43158SOL    HW233837   2.280   4.860   3.317 -1.0339  1.6622  0.2550
43159SOL     OW33838  10.389   3.472   5.057 -0.6832 -0.4656 -0.4768
43159SOL    HW133839  10.405   3.532   4.984  0.0753  1.7964  1.4469
43159SOL    HW233840  10.331   3.520   5.116  0.6902 -1.1920  1.5880
43160SOL     OW33841   8.325   4.118   2.881  0.2869 -0.5635 -0.2324
43160SOL    HW133842   8.374   4.054   2.829 -0.4468 -1.8143  0.5863
43160SOL    HW233843   8.387   4.144   2.949  0.1275 -1.4680  0.2693
43161SOL     OW33844   7.254  10.566   6.608  0.3924  0.5039 -0.5215
43161SOL    HW133845   7.231  10.538   6.519 -1.2393 -0.9454  0.3132
43161SOL    HW233846   7.224  10.495   6.664 -0.0160  2.0765  1.3413
43162SOL     OW33847   4.198   5.381   3.062  0.1350 -0.0966 -0.7567
43162SOL    HW133848   4.126   5.352   3.006  1.7290  0.5986 -3.3619
43162SOL    HW233849   4.267   5.407   3.001  3.3710 -2.4235  1.5388
43163SOL     OW33850   4.341   8.997   3.487  0.1732 -0.2548  0.1058
43163SOL    HW133851   4.347   8.999   3.583  1.4745  0.3540  0.0279
43163SOL    HW233852   4.418   8.948   3.459  1.7125  2.4803 -0.7487
43164SOL     OW33853   9.705   1.347   3.216 -0.0430 -0.0081  0.1974
43164SOL    HW133854   9.686   1.292   3.292  3.4093  0.2701  1.4533
43164SOL    HW233855   9.685   1.436   3.246 -1.0491 -0.1034 -0.1485
43165SOL     OW33856   4.146   3.790  10.329  0.0337  0.8053 -0.5806
43165SOL    HW133857   4.051   3.806  10.321  0.3441  2.2827 -1.8834
43165SOL    HW233858   4.171   3.753  10.245  0.7174  1.0532 -0.4934
43166SOL     OW33859   0.520   9.027   2.129  0.0181  0.2789  0.1188
43166SOL    HW133860   0.445   9.057   2.078 -0.9071  0.1338  1.3472
43166SOL    HW233861   0.521   9.084   2.205  0.0195 -0.9039  1.0305
43167SOL     OW33862   6.016   9.029   5.748  0.2815  0.1933  0.3975
43167SOL    HW133863   5.924   9.007   5.761 -0.0144  1.0800 -0.1120
43167SOL    HW233864   6.059   9.001   5.828 -0.2138 -1.3853  0.1339
43168SOL     OW33865   9.656  11.002   6.554  0.1227  0.1153 -0.4787
43168SOL    HW133866   9.643  11.043   6.468 -0.0876  1.9898  0.4138
43168SOL    HW233867   9.585  10.938   6.560 -0.2109  0.3668 -1.4509
43169SOL     OW33868   7.360   2.024   3.972 -0.2402  0.3580  0.2666
43169SOL    HW133869   7.426   2.022   4.041 -1.0379  0.5341  1.0468
43169SOL    HW233870   7.310   1.944   3.984 -0.2660  0.2935 -0.2348
43170SOL     OW33871   0.847   7.959   8.094 -0.2913 -0.0467 -0.5218
43170SOL    HW133872   0.875   7.964   8.002  0.3969 -0.9743 -0.3808
43170SOL    HW233873   0.768   8.014   8.098  0.5199  1.2289 -1.3188
43171SOL     OW33874  10.666   4.212   8.927 -0.1272 -0.0211  0.2550
43171SOL    HW133875  10.594   4.192   8.987  0.5172 -0.6059  0.8466
43171SOL    HW233876  10.640   4.172   8.844 -0.4141 -0.3564  0.5043
43172SOL     OW33877   1.594   7.473   0.405  0.5882 -0.1154 -0.0846
43172SOL    HW133878   1.526   7.520   0.357 -0.0882  0.9312  1.7865
43172SOL    HW233879   1.645   7.428   0.337 -1.0693  0.2466 -1.6427
43173SOL     OW33880   3.525   2.682   1.857  0.3987 -0.1125  0.5343
43173SOL    HW133881   3.556   2.769   1.882 -0.7048 -0.3389  2.9271
43173SOL    HW233882   3.523   2.633   1.939 -2.2021 -1.3634 -0.1774
43174SOL     OW33883   6.318   1.164   6.752  0.1481 -0.1415 -0.4161
43174SOL    HW133884   6.358   1.166   6.839  1.2861  0.0695 -0.9192
43174SOL    HW233885   6.393   1.157   6.692 -0.6960 -2.2782 -1.3008
43175SOL     OW33886   1.021   3.078  10.314  0.3319  0.0564 -0.1057
43175SOL    HW133887   0.944   3.135  10.319 -0.1151 -0.6273  2.4789
43175SOL    HW233888   1.093   3.136  10.293 -0.4030  1.2859  0.6447
43176SOL     OW33889   5.091   3.442  10.977 -0.6893  0.2183 -0.0383
43176SOL    HW133890   5.031   3.508  11.012  0.8694  0.8002  1.7318
43176SOL    HW233891   5.131   3.403  11.055  2.4890  1.0992 -1.0818
43177SOL     OW33892  10.858   3.161   4.168  0.8156 -0.3034 -0.0655
43177SOL    HW133893  10.816   3.081   4.197 -0.4708  0.1877 -0.5010
43177SOL    HW233894  10.855   3.156   4.072  0.2193  0.5004 -0.1004
43178SOL     OW33895   6.538   5.907   1.418  0.1478  0.0067  0.4158
43178SOL    HW133896   6.498   5.956   1.489 -2.2520 -0.9066 -0.2219
43178SOL    HW233897   6.511   5.953   1.339 -1.1264 -1.5501 -0.1157
43179SOL     OW33898   5.710   7.317   0.698 -0.1313 -0.4189  0.4914
43179SOL    HW133899   5.665   7.356   0.773 -0.0016  1.9170 -0.5666
43179SOL    HW233900   5.704   7.223   0.712 -2.6372 -0.1030  1.9474
43180SOL     OW33901   9.809   5.842   3.695  0.4545 -0.4621  0.3684
43180SOL    HW133902   9.864   5.851   3.618 -1.2459 -0.0262 -0.8692
43180SOL    HW233903   9.739   5.907   3.682 -0.5904 -1.2861  1.6212
43181SOL     OW33904   0.375  10.908   8.092  0.1884 -0.2330 -0.0491
43181SOL    HW133905   0.349  10.977   8.154  2.8097  1.5278 -0.7148
43181SOL    HW233906   0.382  10.829   8.146 -2.9153 -0.0967  0.7423
43182SOL     OW33907   7.982   9.781   9.353 -0.1351 -0.5779 -0.0427
43182SOL    HW133908   8.040   9.856   9.370 -0.2688  0.0278 -1.9282
43182SOL    HW233909   7.897   9.821   9.334  0.0636 -1.0444 -2.2300
43183SOL     OW33910   7.777   4.222   2.265  0.4543 -0.4122 -0.2165
43183SOL    HW133911   7.763   4.269   2.347 -0.4419 -0.5867 -0.2582
43183SOL    HW233912   7.817   4.286   2.206 -1.6666  0.6481 -0.5982
43184SOL     OW33913   8.341   5.434   7.385  0.0320 -0.3848 -0.5083
43184SOL    HW133914   8.403   5.502   7.357  0.5404  0.1607  1.7616
43184SOL    HW233915   8.335   5.376   7.310  1.3894  0.9010 -1.6907
43185SOL     OW33916   2.377  11.038   1.581 -0.5702  0.1537  0.0468
43185SOL    HW133917   2.455  10.987   1.558 -0.2037  0.9257 -0.4753
43185SOL    HW233918   2.390  11.123   1.538 -0.7451  1.0143  1.6077
43186SOL     OW33919   8.004   4.130   9.634 -0.0920 -0.3418  0.0828
43186SOL    HW133920   8.006   4.215   9.676  1.9829 -0.3510  0.0965
43186SOL    HW233921   7.972   4.148   9.545  2.6558  0.9140 -0.7472
43187SOL     OW33922   7.743   9.063  10.389  0.4378 -0.2785 -0.1204
43187SOL    HW133923   7.704   9.035  10.306  0.1760  1.3727 -0.5830
43187SOL    HW233924   7.837   9.049  10.378  0.5595  1.2160 -1.2546
43188SOL     OW33925   3.401   2.668  11.021 -0.2473  0.4180  0.2381
43188SOL    HW133926   3.325   2.639  11.072 -1.7063  0.2191 -1.9356
43188SOL    HW233927   3.454   2.589  11.010  0.0300  0.4384  1.2910
43189SOL     OW33928   8.368   8.949   2.483  0.2072  0.2580  0.1708
43189SOL    HW133929   8.409   8.880   2.534 -0.4466  1.0689  1.8774
43189SOL    HW233930   8.435   9.018   2.479  0.1799  0.2823  0.1262
43190SOL     OW33931   3.305   7.562   0.586 -0.1621  0.1713 -0.1047
43190SOL    HW133932   3.228   7.616   0.569 -0.7619  0.3353  2.6010
43190SOL    HW233933   3.279   7.474   0.557 -0.4752  0.6391 -1.3217
43191SOL     OW33934   3.251   3.427   9.700  0.1490  0.3549  0.3382
43191SOL    HW133935   3.202   3.508   9.714 -1.3322 -0.4901  0.2604
43191SOL    HW233936   3.278   3.399   9.787 -0.0634  0.4936  0.4483
43192SOL     OW33937   6.353   0.322   2.235  0.1475 -0.1820  0.4620
43192SOL    HW133938   6.288   0.257   2.211  1.2476 -1.3035  0.3817
43192SOL    HW233939   6.354   0.384   2.162 -0.1053 -0.7334 -0.0193
43193SOL     OW33940   0.032   1.200   9.484 -0.4580 -0.0986 -0.0786
43193SOL    HW133941   0.029   1.222   9.577  2.2984  2.2036 -0.3730
43193SOL    HW233942   0.066   1.111   9.482  1.5209  0.5389  1.2160
43194SOL     OW33943   4.135   1.882   1.479  0.1135  0.4755 -0.0006
43194SOL    HW133944   4.158   1.889   1.572  0.0241  0.7682  0.0009
43194SOL    HW233945   4.106   1.969   1.455 -0.9022  0.1436 -0.0265
43195SOL     OW33946   7.210   6.399   8.121 -0.1757  0.0712 -0.4201
43195SOL    HW133947   7.166   6.482   8.138  2.5895  1.5394  0.1208
43195SOL    HW233948   7.278   6.393   8.189 -1.3088 -3.5134  0.6522
43196SOL     OW33949   4.467   9.662   8.807 -0.6218  0.3577 -0.2583
43196SOL    HW133950   4.478   9.678   8.901  0.2460 -1.2095 -0.0496
43196SOL    HW233951   4.429   9.743   8.773 -1.8160  0.6380  1.5899
43197SOL     OW33952   8.758   4.067   4.468  0.0923 -0.4299  0.1229
43197SOL    HW133953   8.728   4.148   4.427  0.9052  1.2054  2.5393
43197SOL    HW233954   8.679   4.012   4.472 -0.7325  0.6589 -0.5757
43198SOL     OW33955   6.011   4.429   5.186  0.7049 -0.4719 -0.8499
43198SOL    HW133956   6.073   4.356   5.187  2.1661  0.7074  0.4781
43198SOL    HW233957   5.956   4.415   5.263 -0.0017 -0.9427 -1.4278
43199SOL     OW33958   6.599   5.607   2.531 -0.7502 -0.1478 -0.0271
43199SOL    HW133959   6.533   5.558   2.579 -0.9794  1.0133  0.8859
43199SOL    HW233960   6.631   5.673   2.593 -0.5866  0.9683 -1.2439
43200SOL     OW33961   4.484   4.569   9.871 -0.2942  0.1632  0.0820
43200SOL    HW133962   4.402   4.552   9.824 -0.0384  0.3813 -0.4573
43200SOL    HW233963   4.507   4.485   9.911  0.7837 -0.7406 -2.2538
43201SOL     OW33964  10.459   9.116   8.188  0.5543 -0.0568  0.1219
43201SOL    HW133965  10.446   9.202   8.227  1.4286  0.2220 -0.1711
43201SOL    HW233966  10.501   9.064   8.257  1.3224  0.1846 -0.1497
43202SOL     OW33967   7.713   1.231   7.148 -0.0048  0.3219  0.4241
43202SOL    HW133968   7.692   1.140   7.172  0.8571 -0.7101 -2.3072
43202SOL    HW233969   7.631   1.279   7.162 -0.5733 -0.9201  1.6299
43203SOL     OW33970   8.146   8.167   4.227 -0.0494 -0.0181 -0.2306
43203SOL    HW133971   8.095   8.122   4.295  0.3558 -0.4448 -0.2026
43203SOL    HW233972   8.097   8.247   4.210 -1.6783 -1.1734 -1.3896
43204SOL     OW33973   6.456   5.100   6.656  0.0765  0.5261 -0.2176
43204SOL    HW133974   6.404   5.066   6.729  0.2366  2.2350  0.7290
43204SOL    HW233975   6.418   5.058   6.579  0.4864 -2.0522  0.8726
43205SOL     OW33976   0.236   6.604  10.754  0.3063 -0.1469 -0.4418
43205SOL    HW133977   0.273   6.535  10.700  1.6270  0.0306  0.1874
43205SOL    HW233978   0.294   6.609  10.830 -2.1935 -1.3010  1.7233
43206SOL     OW33979  10.693   9.549   3.724 -0.2786  0.1947  0.2774
43206SOL    HW133980  10.748   9.531   3.647  1.6044  2.8886  0.8593
43206SOL    HW233981  10.632   9.617   3.695 -1.1895 -0.4974  0.5312
43207SOL     OW33982   4.232   7.286   4.872 -0.4147 -0.3952  0.2754
43207SOL    HW133983   4.157   7.345   4.861  1.2353  1.4963 -1.7413
43207SOL    HW233984   4.297   7.337   4.920  0.7061 -0.8665 -0.6876
43208SOL     OW33985   1.539   9.894   0.374 -0.0651 -0.0346 -0.2506
43208SOL    HW133986   1.566   9.841   0.299 -0.3854 -0.5385 -0.0126
43208SOL    HW233987   1.499   9.832   0.435  0.0039  0.4014  0.2508
43209SOL     OW33988   8.199   5.706   2.493 -0.1579  0.4949 -0.2713
43209SOL    HW133989   8.182   5.617   2.526 -2.3317  1.1909  0.6337
43209SOL    HW233990   8.113   5.748   2.490  0.9138  2.9043  0.2783
43210SOL     OW33991   8.822  10.484   2.723 -0.3911 -0.1833  0.2341
43210SOL    HW133992   8.870  10.419   2.774  1.8044  1.1965  0.0546
43210SOL    HW233993   8.889  10.544   2.691 -1.8586 -0.0325 -2.9112
43211SOL     OW33994   9.372   0.643   7.790  0.5772 -0.5895  0.4157
43211SOL    HW133995   9.370   0.731   7.752  2.7585 -0.6757 -0.0329
43211SOL    HW233996   9.306   0.594   7.742  1.5101 -0.0120 -1.5357
43212SOL     OW33997  10.223  10.180   2.768 -0.8242 -0.1722  0.0398
43212SOL    HW133998  10.185  10.225   2.844 -1.7174  0.7857 -0.9354
43212SOL    HW233999  10.275  10.247   2.723 -2.7392  0.1792 -1.8265
43213SOL     OW34000   7.227   1.419   7.810 -0.2623  0.2205 -0.0926
43213SOL    HW134001   7.237   1.480   7.882 -2.4485  0.2606  0.2282
43213SOL    HW234002   7.248   1.333   7.847 -1.0422  0.2850  0.4932
43214SOL     OW34003   0.216   5.238   6.635 -0.2644 -0.1554 -0.3355
43214SOL    HW134004   0.124   5.233   6.607  0.1084  0.7592 -1.8391
43214SOL    HW234005   0.256   5.161   6.595 -0.3083 -0.3784  0.0496
43215SOL     OW34006   2.788   8.740   3.611 -0.6112 -0.6678  0.5809
43215SOL    HW134007   2.868   8.699   3.643  1.6400  1.6118 -1.7114
43215SOL    HW234008   2.767   8.806   3.678 -0.2918 -0.9240  0.9362
43216SOL     OW34009   6.752   0.940  11.032  0.3173  0.0056  0.0414
43216SOL    HW134010   6.834   0.907  11.069  1.3673  1.5029 -0.8633
43216SOL    HW234011   6.771   0.954  10.939 -1.2641 -0.5281 -0.3957
43217SOL     OW34012   3.635  10.597   5.201  0.4421  0.4418 -0.1535
43217SOL    HW134013   3.674  10.509   5.192  1.1165  0.5210  1.5978
43217SOL    HW234014   3.554  10.582   5.249  1.1535  0.8600  1.2432
43218SOL     OW34015   7.779   0.261   2.084  0.3105  0.0459  0.0606
43218SOL    HW134016   7.700   0.306   2.057  0.8431  0.9684  0.0057
43218SOL    HW234017   7.768   0.246   2.178  0.9131  1.9654  0.4698
43219SOL     OW34018   1.566   8.446   1.064  0.0079 -0.6469  0.4955
43219SOL    HW134019   1.493   8.386   1.050  0.6471 -0.9771 -1.8612
43219SOL    HW234020   1.621   8.402   1.129 -1.8304 -0.3696  2.3452
43220SOL     OW34021  10.987   3.187   7.645  0.3090  0.5384 -0.9697
43220SOL    HW134022  10.980   3.181   7.740  0.1015 -0.7753 -1.0502
43220SOL    HW234023  10.959   3.276   7.625  1.5113  1.2355  0.2953
43221SOL     OW34024   3.859  10.113   9.377  0.7485  0.0997  0.0388
43221SOL    HW134025   3.932  10.067   9.337  1.1918  2.2034 -1.7218
43221SOL    HW234026   3.898  10.192   9.415 -0.5316  1.0291 -0.5269
43222SOL     OW34027   1.166   8.311   1.015  0.5522  0.3151  0.0117
43222SOL    HW134028   1.077   8.301   1.049  0.7465 -0.6500  0.2873
43222SOL    HW234029   1.176   8.405   1.000 -1.0813  0.2845 -1.6001
43223SOL     OW34030   1.497   1.642   5.310 -0.7627  0.0221 -0.2895
43223SOL    HW134031   1.527   1.617   5.223 -2.2774 -0.1630 -0.7796
43223SOL    HW234032   1.494   1.737   5.308 -0.7322  0.0206 -0.4165
43224SOL     OW34033   6.349   9.421   6.140 -0.2274 -0.3012 -0.5424
43224SOL    HW134034   6.386   9.335   6.160  1.2431  0.2906 -0.6035
43224SOL    HW234035   6.407   9.458   6.074 -0.8550  0.7321 -0.5460
43225SOL     OW34036   5.243  10.521   4.177 -0.3295 -0.0126  0.5965
43225SOL    HW134037   5.278  10.609   4.186 -0.7577  0.2010  0.2425
43225SOL    HW234038   5.319  10.467   4.155 -0.2072  0.4255 -0.0903
43226SOL     OW34039   1.802   5.219   3.684 -0.0886  0.1211  0.5130
43226SOL    HW134040   1.711   5.245   3.673 -0.0822  0.9522  2.0746
43226SOL    HW234041   1.840   5.288   3.739  1.2695 -0.6511  0.5929
43227SOL     OW34042   7.622   5.389   0.258  0.1826  0.0552  0.4206
43227SOL    HW134043   7.584   5.302   0.271 -0.6891  0.3185 -0.3148
43227SOL    HW234044   7.596   5.414   0.170  0.1026  1.2238  0.7653
43228SOL     OW34045  10.807   9.189  10.784  0.4902  0.4134  0.1429
43228SOL    HW134046  10.794   9.274  10.826 -1.6277 -0.9124  2.4402
43228SOL    HW234047  10.888   9.155  10.822  1.6367  1.5609 -1.1849
43229SOL     OW34048   8.979   7.929   0.912  0.2750  0.4696 -0.6883
43229SOL    HW134049   9.007   8.020   0.922 -1.3311  0.8575  0.7489
43229SOL    HW234050   9.048   7.888   0.861  1.3220  2.3568 -0.8689
43230SOL     OW34051   6.052   5.164   4.676 -0.0462 -0.3622 -0.0309
43230SOL    HW134052   6.038   5.172   4.771  0.0767 -0.3955 -0.0088
43230SOL    HW234053   6.024   5.249   4.641 -0.4989 -0.5034 -0.0156
43231SOL     OW34054  10.962   9.850   9.895  0.5843 -0.7032 -0.1623
43231SOL    HW134055  10.996   9.833   9.983 -1.1253  1.3583  0.9854
43231SOL    HW234056  10.880   9.897   9.910  0.0947 -0.5454 -2.8858
43232SOL     OW34057   5.594   0.490   5.331  0.3357  0.7035 -0.2935
43232SOL    HW134058   5.637   0.412   5.366  0.4711  1.2021  0.6718
43232SOL    HW234059   5.589   0.473   5.237 -2.6975 -1.9980  0.1712
43233SOL     OW34060   8.863   1.975   5.888  0.0370  0.3381  0.2138
43233SOL    HW134061   8.889   1.898   5.837 -0.6096  0.5066 -0.3850
43233SOL    HW234062   8.830   1.939   5.970 -0.5505 -0.0486 -0.1837
43234SOL     OW34063   1.365  10.291   3.553  0.4432 -0.6453  0.2088
43234SOL    HW134064   1.365  10.269   3.460 -0.8495 -0.2947  0.1052
43234SOL    HW234065   1.278  10.267   3.584  1.0162 -1.2177  1.4527
43235SOL     OW34066  10.409   6.343   5.646 -0.5038 -0.4873  0.0387
43235SOL    HW134067  10.491   6.302   5.675  0.1982  1.5510  1.1681
43235SOL    HW234068  10.349   6.331   5.720 -0.0509  1.1169  0.6907
43236SOL     OW34069   8.173   8.814   9.180  0.6632  0.2451 -0.1365
43236SOL    HW134070   8.191   8.720   9.191 -0.9291 -0.1328 -0.4723
43236SOL    HW234071   8.131   8.840   9.261  2.1007  0.9750  0.4162
43237SOL     OW34072   0.162   1.015   1.060 -0.0674  0.3165  0.1308
43237SOL    HW134073   0.123   0.949   1.003  0.1028  1.2053 -1.0756
43237SOL    HW234074   0.106   1.017   1.137 -0.7548 -0.4100 -0.3368
43238SOL     OW34075   6.149   6.852   4.770  0.5432 -0.1600 -0.2276
43238SOL    HW134076   6.228   6.799   4.777  0.2211 -0.5410  0.6215
43238SOL    HW234077   6.145   6.901   4.852  0.8180  1.1712 -0.9770
43239SOL     OW34078   4.758   7.081   0.135 -0.8659  0.0014  0.4836
43239SOL    HW134079   4.825   7.046   0.195  0.0519  1.3090  0.2628
43239SOL    HW234080   4.687   7.109   0.193 -0.6214 -0.1061  0.8424
43240SOL     OW34081   4.483  10.367   1.942  0.1932 -0.2319 -0.5691
43240SOL    HW134082   4.468  10.348   1.849 -0.4059  0.2515 -0.5788
43240SOL    HW234083   4.578  10.378   1.949  0.4737 -2.1436 -0.7544
43241SOL     OW34084   8.860   7.845   1.565 -0.2567  0.6388  0.1474
43241SOL    HW134085   8.780   7.867   1.614 -1.6472 -0.6978 -1.4147
43241SOL    HW234086   8.885   7.760   1.599  0.6523  1.1329  0.7571
43242SOL     OW34087   1.145   4.464   1.667 -0.1985 -0.8189  0.3878
43242SOL    HW134088   1.238   4.440   1.664  0.2904  0.2980  3.2030
43242SOL    HW234089   1.142   4.551   1.629 -0.2295 -1.1377 -0.3534
43243SOL     OW34090   5.089   4.770   8.310  0.1041  0.1401 -0.7604
43243SOL    HW134091   5.076   4.811   8.225 -0.2467 -0.5841 -1.0608
43243SOL    HW234092   5.001   4.761   8.347  0.1116 -0.8617 -0.9548
43244SOL     OW34093   5.506   3.347   5.368  0.3043  0.1420  0.4688
43244SOL    HW134094   5.544   3.274   5.418  0.1532  0.4477  1.0482
43244SOL    HW234095   5.544   3.339   5.281 -0.2514 -1.0544  0.3107
43245SOL     OW34096   9.184   6.092   4.384 -0.0513 -0.4258 -0.2350
43245SOL    HW134097   9.183   5.997   4.391  1.1839 -0.3327  2.2316
43245SOL    HW234098   9.096   6.119   4.409 -0.1017 -0.8670  0.0570
43246SOL     OW34099   4.531   3.347   7.737  0.4498 -0.1710  0.2362
43246SOL    HW134100   4.595   3.417   7.727 -0.7794  0.7296 -2.1562
43246SOL    HW234101   4.510   3.347   7.830  1.8219  1.3896  0.5929
43247SOL     OW34102   9.328   3.096   2.126 -0.4973 -0.7045 -0.0953
43247SOL    HW134103   9.326   3.183   2.086 -1.0321 -0.7432 -0.1487
43247SOL    HW234104   9.418   3.088   2.159 -0.7358  0.3047  0.8574
43248SOL     OW34105   6.911   7.393   7.823 -0.2187  0.3705  0.3437
43248SOL    HW134106   6.953   7.429   7.745  0.0893  0.0739  0.3733
43248SOL    HW234107   6.852   7.326   7.790  1.0668 -0.8629  0.4700
43249SOL     OW34108   0.548   3.938   9.581  0.1979  0.6498 -0.3049
43249SOL    HW134109   0.560   3.992   9.503  0.0359  0.3815 -0.5137
43249SOL    HW234110   0.495   3.993   9.640  0.3373  0.8582 -0.3712
43250SOL     OW34111   8.971   4.304   9.959 -0.3671 -0.0106  0.1409
43250SOL    HW134112   9.060   4.308   9.992 -0.0278 -1.5535 -0.5207
43250SOL    HW234113   8.980   4.315   9.864 -0.7102 -1.5154 -0.0932
43251SOL     OW34114   6.419  10.561   6.961 -0.2353  0.1974  0.2653
43251SOL    HW134115   6.482  10.617   6.917 -1.0589  0.7217 -0.2866
43251SOL    HW234116   6.334  10.599   6.939 -0.7524 -0.5551  0.8929
43252SOL     OW34117   6.235   5.196   3.450  0.5025  0.5366  0.2698
43252SOL    HW134118   6.226   5.269   3.511  1.0769  0.8338 -0.0016
43252SOL    HW234119   6.147   5.184   3.415  0.5030  1.4253 -0.0558
43253SOL     OW34120   6.549   5.281   6.848 -0.1115 -0.6080 -0.2550
43253SOL    HW134121   6.517   5.252   6.763  1.0773  1.5909 -1.5260
43253SOL    HW234122   6.549   5.377   6.843  1.1850 -0.4300  1.7597
43254SOL     OW34123   4.958   3.046   5.086  0.0034 -0.0533 -0.2046
43254SOL    HW134124   4.893   2.982   5.116 -0.1370  0.7570  1.3364
43254SOL    HW234125   4.908   3.126   5.072  0.2435 -0.1411 -1.7489
43255SOL     OW34126   5.249   9.070   3.841  0.3232  0.0161 -0.8369
43255SOL    HW134127   5.225   9.010   3.770  0.0680  1.7059 -2.2415
43255SOL    HW234128   5.237   9.157   3.803 -0.0153  0.9767  1.3643
43256SOL     OW34129   7.937   8.458   1.078  0.0977  0.7363  0.0477
43256SOL    HW134130   7.849   8.479   1.108 -0.2802  1.2004 -1.3263
43256SOL    HW234131   7.924   8.411   0.996  1.0596 -1.6829  1.1959
43257SOL     OW34132   6.546   9.213   3.243 -0.7958 -0.2093  0.3300
43257SOL    HW134133   6.501   9.221   3.327 -0.9973 -1.6100  0.3820
43257SOL    HW234134   6.509   9.284   3.189 -1.8797 -0.3215  0.8970
43258SOL     OW34135   8.170   1.539   8.191  0.6305 -0.3164  0.3013
43258SOL    HW134136   8.234   1.581   8.248  0.6033 -1.3203  1.1089
43258SOL    HW234137   8.089   1.587   8.205  0.7861 -0.1433  0.6092
43259SOL     OW34138   4.693   1.988  10.439  0.0942  0.4652  0.8188
43259SOL    HW134139   4.743   2.052  10.389  3.0432 -1.8387  0.4960
43259SOL    HW234140   4.664   1.924  10.374  1.8859 -1.2960  1.6663
43260SOL     OW34141   2.445   2.628   4.637  0.2876 -0.7683  0.3542
43260SOL    HW134142   2.465   2.702   4.695 -2.3633 -0.6281  1.2054
43260SOL    HW234143   2.506   2.560   4.664  0.8530  0.1582  1.5264
43261SOL     OW34144   2.767  10.369   3.890 -0.0724 -0.0081 -0.1171
43261SOL    HW134145   2.732  10.452   3.858  1.0227  0.4907 -0.0812
43261SOL    HW234146   2.690  10.313   3.900 -1.1169  1.5930  1.6818
43262SOL     OW34147  10.034   0.004   6.550  0.0035  0.4504 -0.4176
43262SOL    HW134148  10.054   0.029   6.459  1.0070  1.9512  0.1745
43262SOL    HW234149  10.090  -0.072   6.567  1.6264  1.6317 -0.3265
43263SOL     OW34150  10.229   5.389   3.901  0.1491  0.4830 -0.3632
43263SOL    HW134151  10.142   5.372   3.936  0.9736 -0.5197  1.3467
43263SOL    HW234152  10.235   5.333   3.824 -0.2881 -0.4118  0.2351
43264SOL     OW34153   5.640   8.888   1.610  0.1061  0.0808  0.1970
43264SOL    HW134154   5.698   8.917   1.680 -1.8329  3.0629  0.7879
43264SOL    HW234155   5.594   8.813   1.646  0.5061  0.3921  1.4062
43265SOL     OW34156   1.913   5.946   6.933 -0.0126 -0.6300 -0.8728
43265SOL    HW134157   1.938   5.871   6.878 -1.0897 -0.5786 -1.4745
43265SOL    HW234158   1.844   5.989   6.883 -0.4540 -0.1059  0.1673
43266SOL     OW34159   5.970   5.248   2.137 -0.9024  0.4757 -0.2922
43266SOL    HW134160   5.996   5.334   2.169 -1.3134  1.1412 -1.6535
43266SOL    HW234161   6.029   5.230   2.063  0.8428 -1.5647  1.4726
43267SOL     OW34162   6.048  11.086   9.205  0.1073 -0.0896  0.1396
43267SOL    HW134163   6.067  10.999   9.169 -2.0992 -0.2950 -0.6767
43267SOL    HW234164   6.107  11.144   9.159  1.1798 -1.0650  0.2367
43268SOL     OW34165   5.679   3.077   1.378  0.2674 -0.2981 -0.2828
43268SOL    HW134166   5.614   3.115   1.319  2.0244  0.6136 -1.7451
43268SOL    HW234167   5.674   3.131   1.456 -0.3162  0.1288 -0.6023
43269SOL     OW34168   5.670   9.515   6.810  0.1863 -0.0555  0.1433
43269SOL    HW134169   5.644   9.605   6.825 -2.0735 -0.8663  1.5248
43269SOL    HW234170   5.605   9.481   6.748  2.0852 -0.2838 -1.8550
43270SOL     OW34171   2.289   6.006   3.844 -0.4968 -0.2719  0.2897
43270SOL    HW134172   2.268   6.075   3.906 -0.3259  1.1991 -1.2217
43270SOL    HW234173   2.258   6.038   3.759  0.2097 -1.7407 -0.5897
43271SOL     OW34174   3.235   9.557   7.530 -0.0453  0.3069 -0.3813
43271SOL    HW134175   3.179   9.624   7.493  2.0758  0.7232 -3.1239
43271SOL    HW234176   3.215   9.558   7.624 -3.0669  1.7743 -0.9325
43272SOL     OW34177   7.895   5.403   4.364 -0.1534 -0.2214 -0.1911
43272SOL    HW134178   7.920   5.435   4.277  1.1777 -1.2010 -0.1941
43272SOL    HW234179   7.839   5.328   4.347  0.4489 -0.6733 -0.2282
43273SOL     OW34180   0.181   6.476   3.084 -0.2796 -0.2604 -0.2541
43273SOL    HW134181   0.110   6.540   3.074 -0.4359 -0.0135  1.8927
43273SOL    HW234182   0.226   6.477   3.000  0.1236  3.1877 -0.1675
43274SOL     OW34183   1.382   4.259   6.064  0.4878  0.6929 -0.3584
43274SOL    HW134184   1.456   4.316   6.084 -0.2656  1.0596  1.6053
43274SOL    HW234185   1.378   4.197   6.138 -1.9294  1.5418  0.3254
43275SOL     OW34186   1.471   4.418   0.531  0.1556 -0.9654 -0.3846
43275SOL    HW134187   1.464   4.336   0.578  1.1200  0.1735  1.9164
43275SOL    HW234188   1.548   4.407   0.474  0.8011 -1.3677  0.5496
43276SOL     OW34189  10.565   6.095   9.509 -0.4104 -0.6837 -0.2668
43276SOL    HW134190  10.541   6.003   9.517  1.1227 -1.3681 -2.5385
43276SOL    HW234191  10.623   6.111   9.584  0.1064 -1.8880 -0.3794
43277SOL     OW34192   5.981   0.185   3.241  0.5735 -0.1415  0.0406
43277SOL    HW134193   5.926   0.208   3.316 -1.0058  0.2675 -1.2104
43277SOL    HW234194   6.067   0.221   3.263  0.0160  0.4241  1.4208
43278SOL     OW34195   8.749   4.556   2.298  0.1034  0.0164 -0.3364
43278SOL    HW134196   8.656   4.552   2.319  0.1098  0.1353 -0.2843
43278SOL    HW234197   8.769   4.649   2.294  0.3843 -0.0062  0.3832
43279SOL     OW34198  10.944   6.357   1.997 -0.1043 -0.6277  0.0584
43279SOL    HW134199  10.933   6.402   2.080  3.7277 -1.1508  1.0388
43279SOL    HW234200  10.936   6.264   2.019 -1.3484 -0.7308 -0.6867
43280SOL     OW34201   2.247  10.462   3.821  0.5449 -0.1210  0.2201
43280SOL    HW134202   2.217  10.541   3.776  0.4867  0.6658  1.5790
43280SOL    HW234203   2.338  10.451   3.794  0.0027 -0.7196 -1.4739
43281SOL     OW34204   8.172   0.763   4.507 -0.2324  0.4963 -0.5392
43281SOL    HW134205   8.256   0.747   4.462 -1.1631 -0.6248 -1.9627
43281SOL    HW234206   8.151   0.854   4.485  1.5874  1.5475  1.6134
43282SOL     OW34207   8.929  10.236   9.259  0.3295  0.4596 -0.2091
43282SOL    HW134208   8.864  10.168   9.236  1.6993 -0.7557 -0.6574
43282SOL    HW234209   8.957  10.271   9.174  1.4087 -0.1621 -0.1237
43283SOL     OW34210   2.351   6.883   6.755 -0.5029 -0.1409  0.0894
43283SOL    HW134211   2.345   6.940   6.831 -0.2431 -0.2472  0.1883
43283SOL    HW234212   2.260   6.873   6.726 -0.5673  0.1686  0.1854
43284SOL     OW34213   7.233   8.572   1.521 -0.4561 -0.0174 -0.1974
43284SOL    HW134214   7.173   8.497   1.515 -2.2630  1.0808  2.2450
43284SOL    HW234215   7.182   8.639   1.567  1.7139  2.0767 -0.6642
43285SOL     OW34216  10.327   6.286   8.789 -0.3448  0.4222  0.2220
43285SOL    HW134217  10.406   6.340   8.783  0.5165 -0.1273  4.1058
43285SOL    HW234218  10.358   6.196   8.776 -0.3420  0.2225  1.5417
43286SOL     OW34219   8.492  10.658   6.814  0.1831 -0.5142 -0.1930
43286SOL    HW134220   8.505  10.700   6.729  3.3764 -0.4526  0.1949
43286SOL    HW234221   8.421  10.596   6.800  0.4835 -0.3698 -2.8565
43287SOL     OW34222   8.626   6.080   5.636  0.3963  0.2842 -0.4589
43287SOL    HW134223   8.679   6.144   5.684  0.9597  0.2112 -0.9769
43287SOL    HW234224   8.670   6.070   5.552  0.9969 -1.6715  0.0304
43288SOL     OW34225   7.394   1.752  10.280 -0.2984 -0.0508 -0.2923
43288SOL    HW134226   7.443   1.834  10.282 -0.6395  0.2213 -1.9515
43288SOL    HW234227   7.458   1.687  10.251 -0.3957 -0.0906 -0.4190
43289SOL     OW34228   1.826   5.821   0.743  0.6660  0.6360 -0.6641
43289SOL    HW134229   1.810   5.914   0.757 -2.5891  0.1697 -0.4992
43289SOL    HW234230   1.744   5.788   0.704  2.5030 -1.7519 -2.8998
43290SOL     OW34231   1.996   0.826   3.107  0.7525 -0.6919  0.0328
43290SOL    HW134232   2.040   0.753   3.150 -1.1854 -1.8000  0.2665
43290SOL    HW234233   1.933   0.785   3.048 -2.1886  0.6755  2.0013
43291SOL     OW34234  10.942   2.691   1.623 -0.0714 -0.4709 -0.6060
43291SOL    HW134235  10.847   2.706   1.614  0.0986  3.0756  1.5662
43291SOL    HW234236  10.950   2.640   1.704 -0.1031  1.0572  0.3907
43292SOL     OW34237   0.173   0.895   5.797 -0.4653 -0.1750 -0.2708
43292SOL    HW134238   0.091   0.875   5.752 -0.4362 -1.1775  0.0869
43292SOL    HW234239   0.163   0.854   5.883  0.5815 -0.7015 -0.3891
43293SOL     OW34240  10.269   8.479   4.874 -0.5011  0.3072 -0.4132
43293SOL    HW134241  10.290   8.465   4.782  0.5804 -1.3475  0.0396
43293SOL    HW234242  10.351   8.507   4.914 -0.6590 -0.1606  0.2574
43294SOL     OW34243   6.376   5.577  11.001 -0.5965 -0.2716  0.2462
43294SOL    HW134244   6.336   5.648  10.952 -0.0480 -0.4938 -0.5397
43294SOL    HW234245   6.409   5.517  10.935 -1.4312 -1.4967  0.8870
43295SOL     OW34246   4.628   8.667   8.695 -0.5311 -0.0052  0.0974
43295SOL    HW134247   4.713   8.658   8.651 -0.8856 -0.6516 -0.4605
43295SOL    HW234248   4.576   8.595   8.661 -1.0701 -0.0459  0.9934
43296SOL     OW34249   0.582   7.961   8.856 -0.4278  0.0883 -0.1036
43296SOL    HW134250   0.522   7.887   8.864  0.2909 -0.4072  0.9277
43296SOL    HW234251   0.666   7.927   8.885  0.6454  0.4557 -2.5468
43297SOL     OW34252   3.772   1.693   7.709 -0.0393  0.4438  0.2622
43297SOL    HW134253   3.690   1.738   7.729 -0.9776 -1.6889  1.4705
43297SOL    HW234254   3.747   1.624   7.647  1.0115  0.3225 -0.0455
43298SOL     OW34255  10.159   7.049   6.447 -0.3952 -0.2327 -0.0440
43298SOL    HW134256  10.083   7.093   6.486 -0.3329 -1.1496  1.1699
43298SOL    HW234257  10.151   6.958   6.476  1.1971 -0.3320  0.1536
43299SOL     OW34258   4.650   2.062   0.907  0.2765 -0.1612 -0.2788
43299SOL    HW134259   4.631   2.117   0.983  1.7725  1.7558 -1.2170
43299SOL    HW234260   4.565   2.049   0.865 -0.1849  0.9139  0.2929
43300SOL     OW34261   0.348  10.172   7.550 -0.1517  0.1743 -0.2849
43300SOL    HW134262   0.409  10.215   7.490  0.4749  0.4049  0.5029
43300SOL    HW234263   0.394  10.092   7.577  0.1355  0.7040  0.8712
43301SOL     OW34264   2.541   4.388   6.649  0.4451  0.1763 -0.5169
43301SOL    HW134265   2.505   4.463   6.603  0.3936  1.4923  1.5753
43301SOL    HW234266   2.627   4.417   6.679  0.9427 -1.0329 -0.7153
43302SOL     OW34267   8.810   7.084   5.220 -0.1309 -0.1807  0.0343
43302SOL    HW134268   8.772   7.072   5.133 -1.1518  1.9716  0.1199
43302SOL    HW234269   8.771   7.166   5.252  2.5183  0.6929  1.2712
43303SOL     OW34270   8.934   7.372   7.214 -0.2630  0.4666 -0.5238
43303SOL    HW134271   8.997   7.410   7.153  0.5004 -0.6277 -0.4381
43303SOL    HW234272   8.946   7.278   7.206  0.6366  0.2816  2.1028
43304SOL     OW34273   3.347   6.749   4.210  0.3532 -0.2024 -0.6074
43304SOL    HW134274   3.396   6.819   4.253  0.8395 -0.6677 -0.3949
43304SOL    HW234275   3.256   6.770   4.228  0.3959  1.2565 -1.8981
43305SOL     OW34276   1.819   0.708   2.034 -0.4681 -0.1858  0.1128
43305SOL    HW134277   1.757   0.769   2.073  0.1958  0.7114 -0.1946
43305SOL    HW234278   1.774   0.623   2.036 -2.3047  0.6784 -1.4660
43306SOL     OW34279   7.225   3.257   4.354  0.0933  0.1782  0.0773
43306SOL    HW134280   7.256   3.343   4.383 -0.1501  0.3944 -0.3015
43306SOL    HW234281   7.198   3.213   4.435 -1.8254  1.2684  0.0785
43307SOL     OW34282   5.372   3.146   4.441 -0.0768 -0.1419  0.2346
43307SOL    HW134283   5.332   3.114   4.360  0.8428 -0.8428  0.0407
43307SOL    HW234284   5.299   3.177   4.494 -0.8056 -0.8210 -0.3617
43308SOL     OW34285   3.086  10.920   8.652 -0.2772 -0.0816 -0.8423
43308SOL    HW134286   3.104  10.952   8.741 -0.3446  1.1441 -1.2615
43308SOL    HW234287   3.132  10.980   8.594 -3.0318  1.2684 -1.7969
43309SOL     OW34288   9.664  11.104  10.571 -0.7773 -0.0075 -0.4754
43309SOL    HW134289   9.642  11.097  10.478 -1.0472  1.0062 -0.5070
43309SOL    HW234290   9.719  11.183  10.577 -0.8263 -0.0185  0.2295
43310SOL     OW34291   7.134   5.802   3.250  0.7343 -0.3195  0.0068
43310SOL    HW134292   7.076   5.871   3.284  0.1299 -1.1298  0.6664
43310SOL    HW234293   7.076   5.744   3.201  1.1064 -0.7567  0.0786
43311SOL     OW34294   7.421   7.101   7.081 -0.8045  0.2467 -0.3327
43311SOL    HW134295   7.436   7.055   6.999  0.3277  0.4001 -0.2237
43311SOL    HW234296   7.507   7.135   7.106 -1.7326  3.4081 -1.0039
43312SOL     OW34297   5.008   4.981   6.782  0.2490 -0.5755 -0.2709
43312SOL    HW134298   5.056   4.900   6.797 -1.6914 -2.2092 -2.2780
43312SOL    HW234299   5.035   5.010   6.695 -1.5770 -1.0411 -1.0580
43313SOL     OW34300   8.879   2.776   2.573 -0.2097 -0.0909 -0.5018
43313SOL    HW134301   8.813   2.804   2.637  0.4985 -0.3145  0.3572
43313SOL    HW234302   8.952   2.837   2.586  0.0409 -0.2970 -0.9242
43314SOL     OW34303   3.650   3.195   6.455 -0.5309 -0.4109 -0.1731
43314SOL    HW134304   3.615   3.121   6.504 -0.6629  0.7823  1.6516
43314SOL    HW234305   3.745   3.190   6.468 -0.6389  0.5450  1.2776
43315SOL     OW34306  10.096   7.089   5.494 -0.4140  0.7414 -0.1282
43315SOL    HW134307  10.023   7.035   5.524  0.1475  0.3918  0.6803
43315SOL    HW234308  10.060   7.177   5.488 -0.3302  1.1224  2.9152
43316SOL     OW34309  10.198  10.815   5.759 -0.3030 -0.6161 -0.3970
43316SOL    HW134310  10.234  10.728   5.741 -0.9066 -0.9474 -0.0278
43316SOL    HW234311  10.214  10.864   5.678  3.9558  0.3093  0.8035
43317SOL     OW34312  10.145   0.082   6.322  0.0267  0.6579  0.0059
43317SOL    HW134313  10.224   0.132   6.344  1.2206 -0.7672 -0.7748
43317SOL    HW234314  10.084   0.146   6.287  0.9554  1.7615  0.3374
43318SOL     OW34315   4.042   4.619   1.610  0.1382  0.2048  0.6349
43318SOL    HW134316   4.137   4.621   1.598  0.0494 -0.9703 -0.6045
43318SOL    HW234317   4.028   4.554   1.679  0.1260 -3.1515 -2.2200
43319SOL     OW34318   3.079   5.568   9.685  0.1755  0.0108 -0.2408
43319SOL    HW134319   3.066   5.556   9.779 -1.1155 -0.1554 -0.4219
43319SOL    HW234320   3.018   5.506   9.645  1.1172 -0.3218 -1.1945
43320SOL     OW34321  10.250   3.442   8.424 -0.3775  0.3966 -0.0194
43320SOL    HW134322  10.192   3.503   8.378 -0.1062  0.5906 -0.1060
43320SOL    HW234323  10.266   3.484   8.509  0.4702  0.8496 -0.3893
43321SOL     OW34324   1.653   8.653   2.512 -0.1748  0.3290 -0.6528
43321SOL    HW134325   1.623   8.676   2.600 -1.6882 -1.1881 -0.7224
43321SOL    HW234326   1.748   8.664   2.515 -0.0183 -1.1191  1.6441
43322SOL     OW34327   0.045   2.023   7.757 -0.3418 -0.2079 -0.1907
43322SOL    HW134328   0.117   1.976   7.800  0.8022  0.0172 -1.7722
43322SOL    HW234329   0.005   1.958   7.699 -0.6490 -0.0052 -0.2108
43323SOL     OW34330   9.297   8.839   6.682  0.6251 -0.0640 -0.1323
43323SOL    HW134331   9.261   8.927   6.677  0.7181 -0.1029 -2.1741
43323SOL    HW234332   9.322   8.829   6.774 -2.2509  0.8512  0.8524
43324SOL     OW34333  10.644   7.163   4.718  0.8600 -0.0331 -0.0900
43324SOL    HW134334  10.594   7.187   4.640  0.8305 -0.0415 -0.0736
43324SOL    HW234335  10.596   7.089   4.755 -0.1918  1.1454  0.9859
43325SOL     OW34336   3.661   8.487   5.842  0.1298  0.2776 -0.0720
43325SOL    HW134337   3.640   8.444   5.925  0.3571  1.6250  0.7110
43325SOL    HW234338   3.591   8.551   5.830 -0.4418 -0.5650 -1.4344
43326SOL     OW34339   3.265  10.340   9.233  0.0016  0.7456 -0.4063
43326SOL    HW134340   3.329  10.347   9.304  0.3958 -0.2287 -0.6530
43326SOL    HW234341   3.275  10.420   9.183  0.3293  1.0484  0.1398
43327SOL     OW34342   1.045  10.716   8.030  0.7501  0.5075 -0.0927
43327SOL    HW134343   1.051  10.639   7.974  2.7973 -0.0151  0.7405
43327SOL    HW234344   1.051  10.791   7.970  0.7071 -0.0053 -0.7450
43328SOL     OW34345   4.789   5.240   0.718  0.0428 -0.6731  0.1006
43328SOL    HW134346   4.848   5.216   0.789  0.7724 -1.6586 -0.8119
43328SOL    HW234347   4.824   5.195   0.641 -2.1641 -1.7029 -0.3879
43329SOL     OW34348   8.912   5.741   5.422 -0.3856  0.1217 -0.0230
43329SOL    HW134349   8.985   5.782   5.468 -0.5647  1.2923 -0.7324
43329SOL    HW234350   8.933   5.648   5.421  0.2188  0.2249  1.3250
43330SOL     OW34351   1.869  10.130   0.154 -0.4568  0.1341  0.2792
43330SOL    HW134352   1.956  10.126   0.195 -0.1914  0.4924 -0.2348
43330SOL    HW234353   1.808  10.107   0.224  0.0847 -0.5784  0.5352
43331SOL     OW34354   8.331   8.958   7.919 -0.8398 -0.0006  0.0715
43331SOL    HW134355   8.337   8.976   7.825 -1.0658 -0.4848 -0.0386
43331SOL    HW234356   8.348   8.864   7.926  2.0181  0.4786  0.7974
43332SOL     OW34357   0.137   4.254   1.293  0.0326 -0.1811 -0.1595
43332SOL    HW134358   0.073   4.277   1.361 -1.0926 -1.4482 -0.7475
43332SOL    HW234359   0.180   4.337   1.272  2.1609 -0.0274  3.7500
43333SOL     OW34360   4.493   5.467   6.881 -0.0631 -0.0616  0.4467
43333SOL    HW134361   4.469   5.426   6.964  2.2289 -0.7162  0.8715
43333SOL    HW234362   4.583   5.498   6.895 -0.7143  2.7376 -0.7629
43334SOL     OW34363   7.875  10.319   8.894 -0.1693 -0.3023 -0.4847
43334SOL    HW134364   7.934  10.337   8.968 -0.6948  0.3829 -0.2199
43334SOL    HW234365   7.856  10.405   8.857 -1.8062 -0.3945  0.0704
43335SOL     OW34366   1.592   6.597   8.229  0.2363 -0.2312 -0.3384
43335SOL    HW134367   1.577   6.632   8.317  1.6353  1.6749 -0.7955
43335SOL    HW234368   1.687   6.588   8.223  0.1615 -0.3242 -1.6471
43336SOL     OW34369   7.404   0.858   4.843 -0.4494 -0.2103 -0.0989
43336SOL    HW134370   7.327   0.834   4.792  0.5302 -0.9485 -1.2683
43336SOL    HW234371   7.369   0.914   4.913 -1.7583  1.4170 -1.9415
43337SOL     OW34372   8.328   5.651   2.218 -0.3707 -0.0377  0.1652
43337SOL    HW134373   8.295   5.650   2.308 -0.2740 -1.1836  0.2097
43337SOL    HW234374   8.402   5.712   2.220 -0.3501 -0.0746  0.8756
43338SOL     OW34375   6.000   2.501   6.302  0.4622 -0.5821 -0.0897
43338SOL    HW134376   5.951   2.452   6.368  0.2533 -0.5738 -0.2344
43338SOL    HW234377   6.092   2.492   6.327  0.3515 -0.1093  0.5258
43339SOL     OW34378   0.499   7.423   2.554  0.1661  0.5244  0.0793
43339SOL    HW134379   0.450   7.382   2.482  0.2067  0.7198 -0.0619
43339SOL    HW234380   0.433   7.444   2.620  0.1622  0.1170  0.2073
43340SOL     OW34381   0.058   3.339   2.333 -0.5777 -0.0913 -0.4378
43340SOL    HW134382   0.059   3.409   2.267 -0.8527  0.4607  0.1253
43340SOL    HW234383  -0.011   3.365   2.393 -0.8356 -0.9791 -0.3418
43341SOL     OW34384   3.854   6.020   4.101 -0.1342 -0.0937  0.0887
43341SOL    HW134385   3.902   6.059   4.027  0.7276 -1.1657  0.0572
43341SOL    HW234386   3.869   5.926   4.092 -4.3596 -0.8439 -1.4470
43342SOL     OW34387   7.894   5.560   8.542  0.1594  0.6076 -0.4218
43342SOL    HW134388   7.930   5.509   8.469  2.5722  1.3235  0.1834
43342SOL    HW234389   7.812   5.595   8.508  0.3533 -0.5015 -2.1699
43343SOL     OW34390   2.014   0.343   0.972  0.4332 -0.2595 -0.3565
43343SOL    HW134391   2.069   0.291   0.914  1.3272 -1.1563  1.2301
43343SOL    HW234392   2.075   0.384   1.033 -0.5342 -0.1589  0.5765
43344SOL     OW34393   8.330  10.297   7.564 -0.5203 -0.2432  0.0672
43344SOL    HW134394   8.306  10.378   7.610  3.7208  1.0721  0.4029
43344SOL    HW234395   8.322  10.319   7.471  1.3010  0.9761  0.1345
43345SOL     OW34396   9.718   5.069   2.014  0.4765 -0.2724  0.0099
43345SOL    HW134397   9.745   5.015   1.941 -0.4469 -0.8498  0.0731
43345SOL    HW234398   9.786   5.135   2.022 -0.2472  0.8936 -2.4799
43346SOL     OW34399   0.152   4.082   7.801  0.5573  0.0454 -0.4847
43346SOL    HW134400   0.188   3.999   7.769  1.3176 -0.0796  0.6373
43346SOL    HW234401   0.228   4.130   7.835  0.4386  2.0354 -2.7611
43347SOL     OW34402   9.730  10.233   1.005 -0.0965  0.0557  0.0800
43347SOL    HW134403   9.710  10.182   1.083  2.5665 -1.4764 -0.1331
43347SOL    HW234404   9.668  10.203   0.940  0.4549 -1.8750  0.3946
43348SOL     OW34405   3.455  10.099   7.271  0.0317  0.1246 -0.2732
43348SOL    HW134406   3.471  10.007   7.249  0.0026 -0.2634  1.2285
43348SOL    HW234407   3.541  10.133   7.295 -0.4252 -0.5310  2.6617
43349SOL     OW34408   2.493   6.710   2.949 -0.0974 -0.5129 -0.2867
43349SOL    HW134409   2.472   6.803   2.940 -0.1799 -0.5729 -0.7181
43349SOL    HW234410   2.494   6.676   2.859  0.5535 -0.7935 -0.1809
43350SOL     OW34411   4.295   0.610   3.866 -0.0516 -0.6050 -0.4149
43350SOL    HW134412   4.217   0.663   3.879 -0.5992 -1.0263 -1.7971
43350SOL    HW234413   4.313   0.617   3.773 -0.0861 -2.7495 -0.6312
43351SOL     OW34414   2.631   5.774   8.613 -0.0577  0.5926  0.4135
43351SOL    HW134415   2.713   5.766   8.662 -0.3566 -0.3518  0.7796
43351SOL    HW234416   2.563   5.775   8.680 -0.4981 -1.0908  0.0463
43352SOL     OW34417   1.010  10.069  10.435  0.2791 -0.4941  0.2474
43352SOL    HW134418   0.922  10.030  10.428  0.1705  0.0539 -2.3588
43352SOL    HW234419   1.069   9.994  10.443 -0.3474 -0.8856  1.4966
43353SOL     OW34420  10.231   3.793   9.794  0.3756  0.0775 -0.3468
43353SOL    HW134421  10.249   3.764   9.705 -1.2102  0.9391 -0.9886
43353SOL    HW234422  10.151   3.748   9.820  0.7346 -0.0551  0.6008
43354SOL     OW34423   5.700   1.371   1.835  0.0937  0.7026  0.1922
43354SOL    HW134424   5.611   1.339   1.852  0.7574 -2.0490 -0.9546
43354SOL    HW234425   5.723   1.421   1.913 -1.4004 -1.0437  1.8631
43355SOL     OW34426   4.853   5.675   9.385 -0.1911  1.0546  0.0030
43355SOL    HW134427   4.797   5.695   9.310 -0.7107  2.2361  0.6836
43355SOL    HW234428   4.899   5.757   9.402 -0.3552  0.9032  1.2101
43356SOL     OW34429   5.493   8.212   8.684  0.0543  0.2498  0.1901
43356SOL    HW134430   5.465   8.282   8.743  1.3258  0.6374  0.3856
43356SOL    HW234431   5.548   8.156   8.739 -2.0926 -1.7637  0.4131
43357SOL     OW34432   4.538   8.977   5.298 -0.5794 -0.6430 -0.2511
43357SOL    HW134433   4.584   8.988   5.215 -0.4219  1.5079  0.0541
43357SOL    HW234434   4.446   8.967   5.273 -0.3334 -1.8618 -0.7317
43358SOL     OW34435   9.373   1.539   0.002  0.4277  0.3644 -0.7278
43358SOL    HW134436   9.442   1.580   0.053  1.9484 -0.8875 -1.6651
43358SOL    HW234437   9.418   1.501  -0.074 -1.4552  0.4788 -1.9909
43359SOL     OW34438   6.048  10.842   1.820 -0.3317 -0.5257 -0.1740
43359SOL    HW134439   5.994  10.799   1.887 -0.6174  0.1107  0.0043
43359SOL    HW234440   6.134  10.851   1.861 -0.7455  0.7034  0.4639
43360SOL     OW34441   9.894   7.504  10.990  0.5259  0.4924 -0.1355
43360SOL    HW134442   9.855   7.477  10.907  0.0112  1.1769 -0.1323
43360SOL    HW234443   9.954   7.575  10.967  1.2542 -0.0909 -0.0541
43361SOL     OW34444   5.363   7.388   7.437  0.1399  0.2178 -0.5380
43361SOL    HW134445   5.347   7.479   7.461  1.5399  0.4995 -0.6116
43361SOL    HW234446   5.398   7.347   7.516 -0.5303 -0.2923 -0.4896
43362SOL     OW34447   8.698   9.964   9.909  0.5769  0.5569  0.4680
43362SOL    HW134448   8.648   9.978   9.990  0.1764  2.1961 -0.0202
43362SOL    HW234449   8.705   9.869   9.902 -2.0090  0.2402  0.8651
43363SOL     OW34450   0.745   6.311   8.944  0.3298  0.7374 -0.2254
43363SOL    HW134451   0.726   6.404   8.958 -1.4551  0.4470 -0.4064
43363SOL    HW234452   0.728   6.270   9.028 -0.5094  0.3668 -0.5640
43364SOL     OW34453   5.676   7.619   4.187 -0.1065 -0.4167  0.3593
43364SOL    HW134454   5.718   7.593   4.269  0.3506 -0.3858  0.1428
43364SOL    HW234455   5.714   7.561   4.121 -4.3298 -4.2614  0.8347
43365SOL     OW34456   9.749   8.979  10.115 -0.0181 -0.5066 -0.2399
43365SOL    HW134457   9.829   9.008  10.159 -0.1438  2.1673 -1.6060
43365SOL    HW234458   9.774   8.897  10.071  1.2709 -0.9519  1.2506
43366SOL     OW34459   7.890   1.348   4.162  0.2097 -0.8038  0.6587
43366SOL    HW134460   7.849   1.413   4.106  2.3172  1.6534  1.7518
43366SOL    HW234461   7.902   1.271   4.106 -1.2662  0.1406 -1.0432
43367SOL     OW34462   1.249   3.670   8.715 -0.1012 -0.0089 -0.5392
43367SOL    HW134463   1.291   3.720   8.645 -0.5816  0.7220 -0.3121
43367SOL    HW234464   1.303   3.687   8.792  0.8682 -1.4134 -0.8681
43368SOL     OW34465   9.102   1.760   9.881  0.0677 -0.1995 -0.5141
43368SOL    HW134466   9.161   1.765   9.956 -0.1441 -0.6275 -0.3143
43368SOL    HW234467   9.055   1.843   9.881  0.2020 -0.1238 -0.2841
43369SOL     OW34468   0.838  10.417   7.617  0.7987 -0.0490 -0.2777
43369SOL    HW134469   0.879  10.330   7.621  0.2207 -0.2927  0.9779
43369SOL    HW234470   0.890  10.470   7.678  0.1021  0.0085  0.2769
43370SOL     OW34471   7.757  10.907   6.533  0.2877  0.2970 -0.6269
43370SOL    HW134472   7.722  10.829   6.490  2.0465 -1.6401  1.1915
43370SOL    HW234473   7.814  10.872   6.602  0.5841  3.2200  0.7452
43371SOL     OW34474   9.486   6.796   1.337  0.2080  0.1482 -0.2702
43371SOL    HW134475   9.533   6.855   1.278 -0.0989  1.5955  0.8884
43371SOL    HW234476   9.550   6.728   1.358  1.3262  1.2581  0.0874
43372SOL     OW34477   9.422  10.893   6.652  0.2259  0.3381 -0.4389
43372SOL    HW134478   9.368  10.850   6.585  1.0689 -0.9334 -0.3220
43372SOL    HW234479   9.433  10.827   6.721  1.4065  0.7833 -0.1754
43373SOL     OW34480   2.828   0.274   2.318  0.2185 -0.2255 -0.0433
43373SOL    HW134481   2.787   0.353   2.285 -1.2512 -0.8005  0.3066
43373SOL    HW234482   2.899   0.305   2.375 -2.3017  1.0067  2.6715
43374SOL     OW34483   8.974   7.283   9.655  0.1904 -0.1489  0.2454
43374SOL    HW134484   8.951   7.191   9.642 -3.8451  0.7793 -0.4750
43374SOL    HW234485   8.988   7.317   9.567  2.6394 -0.1538  0.5568
43375SOL     OW34486   5.682   5.704   9.415  0.0484  0.0543  0.1054
43375SOL    HW134487   5.704   5.795   9.434  0.2582  0.1584 -0.6009
43375SOL    HW234488   5.638   5.707   9.330  0.8573 -0.5949 -0.3580
43376SOL     OW34489   2.065   1.024   0.884 -0.3295 -0.3732 -0.1797
43376SOL    HW134490   1.986   1.034   0.938 -0.1062 -1.3386  0.3571
43376SOL    HW234491   2.113   0.954   0.926 -0.4100 -1.5630 -1.9700
43377SOL     OW34492   2.150   6.950   3.412 -0.4994 -0.6334 -0.0686
43377SOL    HW134493   2.235   6.993   3.422 -0.9216 -0.1658  1.7602
43377SOL    HW234494   2.152   6.914   3.323  0.6113  1.5396 -1.0064
43378SOL     OW34495   3.240   0.132   0.095 -0.1254  0.2224 -0.5510
43378SOL    HW134496   3.169   0.190   0.065 -0.9165 -1.8432 -3.0599
43378SOL    HW234497   3.315   0.159   0.042  0.1177  0.3559 -0.1424
43379SOL     OW34498   5.212   6.437   6.859  0.1267 -0.5024 -0.2043
43379SOL    HW134499   5.300   6.474   6.850  0.6086 -1.4954  0.3213
43379SOL    HW234500   5.181   6.428   6.769  0.9757 -1.0990 -0.4504
43380SOL     OW34501   8.810   9.204   4.637 -0.2239  0.1641  0.9786
43380SOL    HW134502   8.754   9.128   4.623 -0.0095  0.1704  0.0827
43380SOL    HW234503   8.843   9.193   4.726 -1.1939 -0.1311  1.3160
43381SOL     OW34504  10.735   2.723   5.864 -0.3932  0.5869  0.1879
43381SOL    HW134505  10.802   2.666   5.901 -0.2878 -0.8848 -2.1155
43381SOL    HW234506  10.671   2.664   5.825 -3.3822  1.9115  2.6578
43382SOL     OW34507   9.076   3.507  10.316 -0.1217  0.8398  0.3298
43382SOL    HW134508   9.110   3.452  10.387 -1.1220  1.3109  1.1953
43382SOL    HW234509   9.019   3.570  10.359 -0.9673  0.9785 -0.9215
43383SOL     OW34510   5.385  10.876   2.517 -0.4441 -0.6804  0.0389
43383SOL    HW134511   5.472  10.847   2.489  1.4552  1.4974  3.1969
43383SOL    HW234512   5.340  10.795   2.541  1.2511 -1.7553 -0.2286
43384SOL     OW34513   6.950   7.950   4.214 -0.5722  0.4260 -0.4394
43384SOL    HW134514   6.944   7.877   4.275  3.1654 -1.1534 -1.6417
43384SOL    HW234515   6.929   7.912   4.129  0.1125  1.0321 -0.9026
43385SOL     OW34516   2.790   7.531   5.701 -0.0560 -0.6092 -0.2592
43385SOL    HW134517   2.778   7.445   5.743  0.6608 -0.2163  0.8103
43385SOL    HW234518   2.879   7.528   5.666  0.5721  0.2355  1.1750
43386SOL     OW34519   5.223  10.466   6.302  0.5959  0.6337 -0.2093
43386SOL    HW134520   5.173  10.466   6.384 -2.5798  0.4822 -1.9928
43386SOL    HW234521   5.255  10.556   6.294  0.0680  0.9194  0.6978
43387SOL     OW34522  10.540   5.420   2.833 -0.0377  0.1456  0.0254
43387SOL    HW134523  10.571   5.510   2.832  2.1949 -0.5415 -2.2350
43387SOL    HW234524  10.538   5.396   2.926 -0.6914  2.4529  0.6778
43388SOL     OW34525   9.841   2.015   0.735  0.4775 -0.1613 -0.1980
43388SOL    HW134526   9.856   2.057   0.650 -1.1333 -0.0412 -0.4426
43388SOL    HW234527   9.783   1.941   0.715  1.0741 -0.8779  0.6327
43389SOL     OW34528   4.267  10.654   1.751  0.0322 -0.3891 -0.0758
43389SOL    HW134529   4.309  10.640   1.836 -0.6598 -3.4686 -0.1181
43389SOL    HW234530   4.324  10.715   1.705  1.1860  0.2337  2.0726
43390SOL     OW34531   6.811   1.087   4.221  0.0712 -0.3967 -0.4260
43390SOL    HW134532   6.898   1.125   4.230 -0.6335  1.3045 -0.4435
43390SOL    HW234533   6.778   1.123   4.138 -1.0884 -0.0752  0.1589
43391SOL     OW34534   0.797   2.669   5.008  0.9050 -0.2570 -0.5123
43391SOL    HW134535   0.709   2.706   5.003  0.5738 -1.1545 -2.3095
43391SOL    HW234536   0.797   2.618   5.089 -0.2177 -0.2037 -0.4636
43392SOL     OW34537   7.874   4.899   8.890  0.1957 -0.1954 -0.1083
43392SOL    HW134538   7.823   4.836   8.838  1.3448 -1.7493  0.5653
43392SOL    HW234539   7.848   4.882   8.980 -0.3399  1.1562  0.0244
43393SOL     OW34540   3.187   6.194  10.699 -0.0188  0.3887 -0.2780
43393SOL    HW134541   3.174   6.099  10.700  1.2798  0.1851 -1.1040
43393SOL    HW234542   3.267   6.207  10.648 -1.4371  2.0952 -2.2104
43394SOL     OW34543   1.397   2.085   5.603 -0.2650  0.4019 -0.1406
43394SOL    HW134544   1.301   2.077   5.602 -0.2054 -0.4513 -1.6576
43394SOL    HW234545   1.427   2.016   5.545  1.4741 -1.3039  2.5766
43395SOL     OW34546   3.536   0.750   0.849  0.0997  0.5785 -0.2301
43395SOL    HW134547   3.588   0.677   0.883 -1.8173 -0.0147  1.6095
43395SOL    HW234548   3.485   0.711   0.777  0.1092  0.4411 -0.1626
43396SOL     OW34549   8.463   7.552   2.439 -0.6101 -0.4498  0.2719
43396SOL    HW134550   8.381   7.589   2.407 -0.4120  0.1918  0.4840
43396SOL    HW234551   8.462   7.568   2.533 -0.7212 -1.4000  0.4336
43397SOL     OW34552   0.584   8.511   2.015  0.4695  0.0251  0.2780
43397SOL    HW134553   0.591   8.588   1.960  2.2115 -0.6666 -0.5396
43397SOL    HW234554   0.492   8.485   2.008  0.4494  0.4659 -1.6016
43398SOL     OW34555   9.391   0.680   6.362  0.7065 -0.1352  0.3323
43398SOL    HW134556   9.296   0.666   6.362  0.3414  1.9609 -0.9481
43398SOL    HW234557   9.401   0.770   6.395  2.1195  0.2460 -1.0583
43399SOL     OW34558   7.580   2.383   5.932 -0.6369  0.0974 -0.7572
43399SOL    HW134559   7.580   2.308   5.873  1.3010 -0.9857  0.5450
43399SOL    HW234560   7.599   2.347   6.018 -0.7861  1.9666  0.1086
43400SOL     OW34561   5.782   5.039   9.410 -0.0187 -0.1108  0.2983
43400SOL    HW134562   5.736   5.026   9.493  0.0550 -0.1715  0.3292
43400SOL    HW234563   5.761   4.962   9.358 -0.3410  0.0840  0.1320
43401SOL     OW34564   2.903   9.549   5.525  0.0919  0.3091  0.5735
43401SOL    HW134565   2.850   9.614   5.480 -0.7986  0.3429  1.6309
43401SOL    HW234566   2.953   9.506   5.455 -0.6989  0.8440 -0.3463
43402SOL     OW34567   0.161   4.884   5.827 -0.1556 -0.5304  0.3968
43402SOL    HW134568   0.238   4.888   5.884 -1.0487 -2.7113  1.9111
43402SOL    HW234569   0.098   4.944   5.867  0.4508  0.6913 -0.4221
43403SOL     OW34570   5.892   9.018   9.884  0.0985 -0.3786 -0.0290
43403SOL    HW134571   5.940   9.071   9.821  0.8910 -0.3917  0.5390
43403SOL    HW234572   5.860   9.080   9.949  2.3249 -0.6680  1.4754
43404SOL     OW34573   8.691   7.099   0.892  0.1895  0.4644 -0.7486
43404SOL    HW134574   8.776   7.056   0.898  0.0215  0.2382  0.3662
43404SOL    HW234575   8.687   7.154   0.971 -0.7355  0.3913 -0.7327
43405SOL     OW34576   0.099   0.423   9.096  0.1020  0.1583 -0.3329
43405SOL    HW134577   0.128   0.400   9.008 -0.3804 -1.9185  0.0080
43405SOL    HW234578   0.141   0.359   9.153 -1.3775  0.0501  0.6987
43406SOL     OW34579   5.367   9.352   5.079 -0.2877  0.3166 -0.2862
43406SOL    HW134580   5.348   9.422   5.017  1.2672  0.1362 -0.9934
43406SOL    HW234581   5.438   9.302   5.039 -0.9145 -1.2909  0.5077
43407SOL     OW34582   4.163   3.056   5.033 -0.3502 -0.2480 -0.4601
43407SOL    HW134583   4.174   2.994   4.961 -0.1973 -0.3820 -0.3226
43407SOL    HW234584   4.119   3.006   5.102 -2.3526  0.4236 -1.1813
43408SOL     OW34585   1.571   0.677   5.384 -0.4266 -0.0029 -0.1594
43408SOL    HW134586   1.659   0.669   5.421  0.2407 -2.2135 -1.9790
43408SOL    HW234587   1.585   0.704   5.293 -1.7932  1.6702  0.0712
43409SOL     OW34588   9.301   6.980   3.327  0.7142  0.3639 -0.1062
43409SOL    HW134589   9.307   6.897   3.374 -0.0594 -0.5054 -1.4553
43409SOL    HW234590   9.391   7.002   3.305  1.0147  0.4015  1.0963
43410SOL     OW34591   8.598   9.474   9.290  0.4866 -0.3486 -0.4579
43410SOL    HW134592   8.678   9.461   9.239  1.0099  2.7338 -0.5798
43410SOL    HW234593   8.625   9.527   9.365 -1.1423 -0.8118  0.5218
43411SOL     OW34594   7.570   9.426   6.788  0.0524  0.3536 -0.2361
43411SOL    HW134595   7.568   9.333   6.768 -4.0536 -0.1318  1.4945
43411SOL    HW234596   7.585   9.430   6.882 -1.2908  1.2803 -0.0303
43412SOL     OW34597   0.660   9.132   6.603  0.0467  0.7110 -0.1144
43412SOL    HW134598   0.704   9.093   6.527  0.0593  0.7013 -0.1024
43412SOL    HW234599   0.577   9.085   6.609  0.9585 -0.8616  1.1874
43413SOL     OW34600   9.564   9.763   5.377  0.3533  0.3248  0.0082
43413SOL    HW134601   9.497   9.771   5.444 -0.0522 -1.1118 -0.1885
43413SOL    HW234602   9.516   9.755   5.294  0.7694 -0.1296 -0.1995
43414SOL     OW34603   2.353   7.119   1.319  0.5306 -0.2209 -0.2497
43414SOL    HW134604   2.315   7.039   1.285 -0.4676  0.1117  0.0602
43414SOL    HW234605   2.416   7.090   1.385  0.1440 -0.7505 -0.1103
43415SOL     OW34606   1.008   9.646   2.850  0.2338 -0.1112  0.2867
43415SOL    HW134607   1.015   9.552   2.839 -0.3724 -0.5555  2.9940
43415SOL    HW234608   1.066   9.683   2.784  0.0144 -2.3382 -1.2356
43416SOL     OW34609   3.782   7.362  10.525  0.9993  0.0187 -0.4305
43416SOL    HW134610   3.807   7.298  10.459 -0.7081 -3.0089  1.6048
43416SOL    HW234611   3.735   7.311  10.591 -2.1596  3.6741  0.5047
43417SOL     OW34612   6.923   7.649   2.088  0.5272  0.1015  0.2229
43417SOL    HW134613   6.853   7.713   2.101  1.3184  1.1097 -0.2918
43417SOL    HW234614   6.987   7.671   2.157  0.0474 -1.2557  1.1339
43418SOL     OW34615  10.806  10.098   3.851 -0.1872  0.7920  0.1055
43418SOL    HW134616  10.877  10.138   3.801 -1.3611  0.7430 -1.6667
43418SOL    HW234617  10.837  10.009   3.869  0.1825  0.7618 -0.6764
43419SOL     OW34618   5.344   2.722   5.877 -0.4258 -0.3517 -0.4471
43419SOL    HW134619   5.367   2.683   5.792  2.1417  0.0260 -0.0089
43419SOL    HW234620   5.421   2.706   5.932 -1.2052  1.1872  1.1782
43420SOL     OW34621   3.008   0.368   5.346  0.3789 -0.8000  0.0732
43420SOL    HW134622   3.071   0.378   5.418  0.4650 -0.5381 -0.0353
43420SOL    HW234623   3.045   0.298   5.292  1.3894  0.3698 -0.8171
43421SOL     OW34624   2.921   2.311   3.397  0.0158  0.1464  0.2333
43421SOL    HW134625   2.846   2.260   3.368  0.2926  0.7890 -1.7122
43421SOL    HW234626   2.887   2.367   3.467 -0.8288 -0.9745  0.7520
43422SOL     OW34627   3.054   9.304   1.827  0.1262 -0.0429  0.3309
43422SOL    HW134628   2.971   9.259   1.819  0.5962 -0.8130 -0.4341
43422SOL    HW234629   3.101   9.258   1.897  0.3489 -0.3359 -0.0070
43423SOL     OW34630   7.216   6.684   0.231  0.4488  0.0498 -0.0628
43423SOL    HW134631   7.210   6.603   0.180  1.3564 -0.3066  0.3758
43423SOL    HW234632   7.163   6.667   0.309  0.0470  0.1540 -0.3086
43424SOL     OW34633   8.945   7.832   2.124 -0.3649  0.5229 -0.0868
43424SOL    HW134634   9.015   7.897   2.125  0.0578  0.1335  2.4049
43424SOL    HW234635   8.880   7.866   2.187  0.6196 -2.1102  2.5830
43425SOL     OW34636   7.251   7.551   9.454  0.7854 -0.1604  0.3752
43425SOL    HW134637   7.205   7.629   9.423  2.6493 -0.1128 -2.7237
43425SOL    HW234638   7.277   7.572   9.543 -0.6420  1.8569  0.3874
43426SOL     OW34639  11.070   1.201   6.993 -0.2940  0.2191  0.1525
43426SOL    HW134640  10.985   1.243   6.997 -1.1580 -1.3837 -0.3180
43426SOL    HW234641  11.130   1.270   6.966 -1.4956  1.3142  0.2125
43427SOL     OW34642   8.022   5.453   2.149  0.6380  0.3524  0.6650
43427SOL    HW134643   8.093   5.478   2.090 -0.2207 -0.4644 -0.7632
43427SOL    HW234644   8.010   5.360   2.134  0.1220  0.2033  1.8599
43428SOL     OW34645   4.855   8.162   2.482 -0.1169 -0.5882  0.2169
43428SOL    HW134646   4.875   8.106   2.556 -1.8492 -0.6685  0.6487
43428SOL    HW234647   4.941   8.190   2.450  0.6822 -1.0238  1.8707
43429SOL     OW34648   4.333   2.699   8.359 -0.2430  0.3308 -0.2723
43429SOL    HW134649   4.416   2.716   8.403 -0.5867  0.7386  0.2265
43429SOL    HW234650   4.269   2.690   8.430 -0.3534 -1.6145 -0.5559
43430SOL     OW34651  10.123   8.853   2.158  0.3541  0.3604  0.2975
43430SOL    HW134652  10.124   8.810   2.244  0.1190  0.3981  0.3173
43430SOL    HW234653  10.193   8.918   2.163 -1.1833  2.0356  1.2993
43431SOL     OW34654   0.073   1.402   6.437 -0.3409  0.2066  0.4978
43431SOL    HW134655  -0.006   1.374   6.391 -0.1600  0.9136 -0.2692
43431SOL    HW234656   0.102   1.324   6.483  0.2245 -0.9764 -1.6832
43432SOL     OW34657   5.412   1.205   9.250  0.0805 -0.3333  0.1469
43432SOL    HW134658   5.460   1.127   9.277  0.3442 -0.4443 -0.6424
43432SOL    HW234659   5.352   1.222   9.323  0.1283 -1.1752  0.3945
43433SOL     OW34660   5.695   8.228   6.194 -0.4952 -0.4853  0.3596
43433SOL    HW134661   5.613   8.179   6.193 -0.6946 -0.2184  1.4324
43433SOL    HW234662   5.722   8.226   6.286 -0.5307  1.4368  0.4586
43434SOL     OW34663   0.090   7.612   9.767 -0.0659 -0.1056  0.4460
43434SOL    HW134664   0.044   7.694   9.784  0.7679  0.1493  1.6303
43434SOL    HW234665   0.138   7.628   9.686  1.4525  1.2364  1.5403
43435SOL     OW34666   6.851   0.597   5.809  0.3584  0.0577  0.3414
43435SOL    HW134667   6.823   0.593   5.718 -1.3707 -0.1994  0.8474
43435SOL    HW234668   6.915   0.526   5.818 -0.4836 -0.8093 -0.3552
43436SOL     OW34669   2.348   4.931   2.516  0.0162 -0.2702 -0.7532
43436SOL    HW134670   2.275   4.926   2.454 -2.5628 -0.5047  2.0580
43436SOL    HW234671   2.369   4.839   2.536 -0.4106 -0.2171 -0.0030
43437SOL     OW34672   5.560   5.790   0.679  0.1769 -0.2082 -0.0581
43437SOL    HW134673   5.588   5.874   0.716 -1.1477  0.3059 -0.1747
43437SOL    HW234674   5.558   5.730   0.753 -0.5426  0.3043  0.3410
43438SOL     OW34675   8.652  10.534   0.661 -0.3432  0.1695 -0.5159
43438SOL    HW134676   8.738  10.549   0.622 -0.7928  0.3766 -1.4571
43438SOL    HW234677   8.600  10.609   0.633 -1.0393 -0.3227 -0.5653
43439SOL     OW34678   5.846   0.014   1.274  0.0082 -0.2456  0.0372
43439SOL    HW134679   5.843   0.039   1.182 -0.1030  0.2271  0.1653
43439SOL    HW234680   5.805  -0.072   1.277 -0.3980 -0.0643 -0.2904
43440SOL     OW34681   0.645   1.547   3.257 -0.1174 -0.7875 -0.2960
43440SOL    HW134682   0.558   1.568   3.290  0.0861  1.0461 -0.7727
43440SOL    HW234683   0.705   1.584   3.322  0.2720  0.3697 -1.2636
43441SOL     OW34684   3.609   6.782   7.728 -0.5087  0.0530 -0.5630
43441SOL    HW134685   3.555   6.745   7.657 -2.1851  1.2993 -0.0180
43441SOL    HW234686   3.596   6.721   7.801 -0.0269 -0.3927 -0.8362
43442SOL     OW34687   5.383   3.874   7.394  0.0440  0.7205  0.0114
43442SOL    HW134688   5.389   3.804   7.329  0.8255 -1.0269  1.8697
43442SOL    HW234689   5.425   3.838   7.472 -1.0233  2.6736  1.5675
43443SOL     OW34690   3.311   1.088   2.760  0.6006 -0.4007 -0.0602
43443SOL    HW134691   3.237   1.037   2.730  1.7024 -2.0963  0.0022
43443SOL    HW234692   3.378   1.024   2.781  1.2324  0.9013  2.3356
43444SOL     OW34693   5.772   2.424   6.608 -0.4753 -0.0898  0.8679
43444SOL    HW134694   5.708   2.396   6.544 -0.5437 -0.4148  1.0749
43444SOL    HW234695   5.790   2.346   6.660  0.8063 -0.2610  0.2057
43445SOL     OW34696   3.552   7.438   0.658 -0.0277 -0.2254 -0.0093
43445SOL    HW134697   3.598   7.464   0.737 -0.4535  1.3377 -0.2320
43445SOL    HW234698   3.467   7.483   0.664 -0.6393 -1.2514 -0.6655
43446SOL     OW34699   5.871   5.661  10.779  0.3691 -0.2687  0.2522
43446SOL    HW134700   5.857   5.725  10.709  0.9776  0.1144  0.4799
43446SOL    HW234701   5.826   5.582  10.748  1.3428 -0.3693 -0.9632
43447SOL     OW34702   7.174   3.935   9.604  0.5586 -0.3442 -0.5250
43447SOL    HW134703   7.146   3.880   9.678 -1.5968 -0.5138 -1.3912
43447SOL    HW234704   7.238   3.881   9.558  1.4468 -0.5019  0.8280
43448SOL     OW34705   4.150   9.895   4.473 -0.1890 -0.1776 -0.1507
43448SOL    HW134706   4.197   9.841   4.410  1.6091 -0.0283  1.0080
43448SOL    HW234707   4.102   9.958   4.419  0.9618 -0.3221 -1.3975
43449SOL     OW34708   8.013   1.021   9.810  0.4400  0.1296  0.4276
43449SOL    HW134709   7.991   1.000   9.719  0.0119  0.4907  0.4505
43449SOL    HW234710   8.095   0.974   9.825  1.9317  2.1256 -0.9594
43450SOL     OW34711   4.074   6.261   9.786  0.5876 -0.7350 -0.3119
43450SOL    HW134712   4.063   6.191   9.721 -0.5689 -0.3963 -0.4876
43450SOL    HW234713   3.998   6.254   9.843  1.1431 -0.4564  0.4933
43451SOL     OW34714   1.424   6.278   0.520 -0.0510  0.0270 -0.0415
43451SOL    HW134715   1.450   6.363   0.556 -1.7782  0.2353  0.8153
43451SOL    HW234716   1.377   6.235   0.592 -3.6262  0.4283 -1.8906
43452SOL     OW34717   4.383   0.679   2.921 -0.3882 -0.0259  0.0576
43452SOL    HW134718   4.293   0.647   2.917 -0.2094 -0.5944  0.4503
43452SOL    HW234719   4.433   0.616   2.868  0.3815 -1.9295  2.8339
43453SOL     OW34720  10.784  10.326   8.565  0.3587  0.6140  0.8343
43453SOL    HW134721  10.863  10.298   8.611  0.4354 -0.8065 -0.0930
43453SOL    HW234722  10.783  10.273   8.485 -1.7802  0.2544  1.0468
43454SOL     OW34723   9.136   1.800   6.180 -0.2270 -0.1805 -0.1801
43454SOL    HW134724   9.221   1.841   6.167 -0.0088 -0.9842 -1.4202
43454SOL    HW234725   9.142   1.717   6.132 -1.9457  0.0790 -0.9040
43455SOL     OW34726   9.599   9.235   1.673 -0.2588 -0.4006 -0.6437
43455SOL    HW134727   9.678   9.183   1.687 -0.3954 -0.7679 -1.2122
43455SOL    HW234728   9.624   9.325   1.694  0.1383 -0.6057 -0.2253
43456SOL     OW34729   4.138   3.800   8.304 -0.6158 -0.0314  0.4919
43456SOL    HW134730   4.141   3.769   8.394 -2.3147 -1.5387  0.0803
43456SOL    HW234731   4.175   3.728   8.253  1.7882  1.3978  0.0373
43457SOL     OW34732   6.409   3.595  10.310 -0.0641  0.7993 -0.0301
43457SOL    HW134733   6.375   3.607  10.221  0.1694  0.2915 -0.1902
43457SOL    HW234734   6.351   3.528  10.348  0.0288  0.7891  0.0925
43458SOL     OW34735   0.639   2.147   9.314  0.1814  0.1959  0.0222
43458SOL    HW134736   0.667   2.056   9.315 -0.2699  0.0420  1.6831
43458SOL    HW234737   0.628   2.170   9.406 -0.4882  1.6948 -0.3944
43459SOL     OW34738   7.750   9.553   2.825 -0.2165 -0.3804  0.1197
43459SOL    HW134739   7.782   9.505   2.902  0.3149 -1.3734 -0.6932
43459SOL    HW234740   7.828   9.596   2.790 -0.4000 -0.1583 -0.0184
43460SOL     OW34741   6.197   4.248   9.546 -0.1916  0.3540  0.0477
43460SOL    HW134742   6.144   4.266   9.623 -0.7065 -0.2563 -0.1592
43460SOL    HW234743   6.135   4.247   9.473  0.3720  1.5643 -0.4860
43461SOL     OW34744   9.885   7.612   0.897  0.3257  0.2067  0.6917
43461SOL    HW134745   9.843   7.620   0.812  0.9778  1.0552  0.4431
43461SOL    HW234746   9.815   7.629   0.960 -0.0066  0.2489  0.3182
43462SOL     OW34747   0.331   8.474   1.220  0.4200 -0.1686  0.5743
43462SOL    HW134748   0.426   8.475   1.234  0.3376 -2.1307  1.6859
43462SOL    HW234749   0.294   8.487   1.307 -0.3405  0.3520  0.1814
43463SOL     OW34750   2.018   3.446   8.311  1.0387  0.2402  0.4520
43463SOL    HW134751   1.976   3.509   8.370  0.7523  1.3974 -0.9270
43463SOL    HW234752   2.111   3.468   8.316  0.7544  2.3518 -1.6731
43464SOL     OW34753   6.459  10.927  10.169 -0.5507 -0.3288 -0.2317
43464SOL    HW134754   6.503  10.880  10.239 -1.1998  1.2300  1.2866
43464SOL    HW234755   6.374  10.883  10.161 -0.7535 -0.0687  0.4557
43465SOL     OW34756   5.880   7.914  10.093 -0.0051  0.6358 -0.4697
43465SOL    HW134757   5.800   7.875  10.129  1.6055 -1.9086  0.6324
43465SOL    HW234758   5.851   7.958  10.013 -2.2359 -1.9275 -1.2307
43466SOL     OW34759   4.190   9.948   6.983 -0.0029  0.0399  0.0351
43466SOL    HW134760   4.170   9.876   6.924 -0.6610 -0.3789  0.7440
43466SOL    HW234761   4.114  10.007   6.976 -0.5115 -0.4570  1.1000
43467SOL     OW34762   8.752   3.871  10.980 -0.0589 -0.3089  0.0326
43467SOL    HW134763   8.705   3.813  10.920 -0.8655  0.9805 -0.6205
43467SOL    HW234764   8.828   3.900  10.931 -0.7829  0.8430 -0.4461
43468SOL     OW34765   8.218   4.306   0.022  0.2822  0.1145  0.0436
43468SOL    HW134766   8.209   4.218   0.059 -0.2575  0.1928  0.1140
43468SOL    HW234767   8.300   4.303  -0.027  1.5746  0.3174  2.0769
43469SOL     OW34768   5.517   0.346   2.715 -0.0010  0.5761  0.2551
43469SOL    HW134769   5.498   0.429   2.672 -0.2182  1.2774  1.6399
43469SOL    HW234770   5.445   0.335   2.778  0.4346 -0.2722  0.6232
43470SOL     OW34771   3.538   5.271  10.435  0.3642  0.2120  0.3987
43470SOL    HW134772   3.540   5.307  10.524 -0.5228 -0.0395  0.5246
43470SOL    HW234773   3.571   5.342  10.380 -0.2499  0.8125  0.7845
43471SOL     OW34774   1.016   0.666  10.068  0.1010 -0.0537  0.1871
43471SOL    HW134775   1.037   0.674  10.161 -1.5549  0.0562  0.5811
43471SOL    HW234776   1.043   0.577  10.045  2.7961  0.7010  0.1136
43472SOL     OW34777   8.882   1.736   4.972 -0.2564  0.0270  0.3063
43472SOL    HW134778   8.879   1.642   4.989 -0.0350  0.0237  0.3271
43472SOL    HW234779   8.790   1.763   4.969 -0.3976 -0.5295 -1.6119
43473SOL     OW34780  10.029   9.649   2.326  0.4298 -0.0321  0.1083
43473SOL    HW134781   9.954   9.705   2.308  1.1069  0.8440 -0.0726
43473SOL    HW234782  10.068   9.684   2.406  3.0407  2.2411 -1.9392
43474SOL     OW34783  10.397  10.154   9.959  0.7924 -0.3342 -0.4399
43474SOL    HW134784  10.406  10.206   9.879  0.9305  1.3199  0.6007
43474SOL    HW234785  10.474  10.176  10.011  1.3689 -2.3707 -0.3514
43475SOL     OW34786   2.027   1.873   5.043  0.5283  0.5903 -0.3088
43475SOL    HW134787   1.965   1.826   4.987  1.1309  0.6313 -1.0251
43475SOL    HW234788   2.006   1.965   5.030  0.3760  0.5857 -0.1114
43476SOL     OW34789   4.621   7.140   8.020  0.3999  0.1309  0.0609
43476SOL    HW134790   4.643   7.048   8.008  0.3819 -0.2360  2.3892
43476SOL    HW234791   4.572   7.143   8.102 -1.0053  2.0327 -0.7636
43477SOL     OW34792   9.082   7.205   5.133  0.3165 -0.0737 -0.1452
43477SOL    HW134793   9.080   7.198   5.229 -2.7080  2.0878  0.1230
43477SOL    HW234794   9.039   7.126   5.102 -1.1244  0.3952  0.5295
43478SOL     OW34795   1.062   0.975   2.379 -0.0826 -0.0442  0.3560
43478SOL    HW134796   1.127   1.043   2.358 -0.4992  0.1032 -0.5124
43478SOL    HW234797   0.979   1.023   2.385 -0.6587 -0.6703 -1.8953
43479SOL     OW34798   1.425   2.521   4.716  0.2377 -0.3785 -0.1306
43479SOL    HW134799   1.376   2.530   4.634  0.4436  3.2151 -0.0040
43479SOL    HW234800   1.368   2.561   4.782  1.6984  0.2914  0.7624
43480SOL     OW34801   5.860   0.117   2.993  0.2905  0.2000 -0.1021
43480SOL    HW134802   5.918   0.115   2.918 -0.9627  2.4660 -1.2513
43480SOL    HW234803   5.910   0.163   3.061  0.4126  0.7381 -0.5504
43481SOL     OW34804  10.414   3.621   4.805 -0.3503 -0.3146 -0.2135
43481SOL    HW134805  10.403   3.693   4.742  0.0832 -1.6556 -1.8837
43481SOL    HW234806  10.485   3.568   4.769  0.0201 -1.0558  1.5075
43482SOL     OW34807   0.554   9.840   9.285 -0.4375  0.0393 -0.6272
43482SOL    HW134808   0.488   9.785   9.243 -2.2613  2.2119 -0.7598
43482SOL    HW234809   0.506   9.888   9.352  0.9926  1.7691 -0.7760
43483SOL     OW34810   1.348  10.838   6.047 -0.2108  0.1628 -0.6796
43483SOL    HW134811   1.315  10.777   6.113 -1.5144  0.4981 -0.9981
43483SOL    HW234812   1.440  10.849   6.069 -0.8263  1.1639  1.8326
43484SOL     OW34813   2.378   1.303   7.319 -0.0376 -0.0169  0.2287
43484SOL    HW134814   2.382   1.212   7.290  1.4111  0.3540 -0.8638
43484SOL    HW234815   2.376   1.298   7.414 -1.0913 -1.1905  0.1746
43485SOL     OW34816   4.080   5.194   8.290 -0.1461  0.3320 -0.3235
43485SOL    HW134817   4.091   5.227   8.201 -0.6384 -1.2609 -1.0131
43485SOL    HW234818   4.128   5.256   8.345  1.5573  0.4706 -1.8728
43486SOL     OW34819   6.327   3.784   2.155 -0.7379 -0.5756  0.0131
43486SOL    HW134820   6.285   3.721   2.214 -3.9858 -0.2254 -1.6704
43486SOL    HW234821   6.285   3.769   2.070  1.7374  0.7941 -1.5599
43487SOL     OW34822   0.190   7.893   7.966  0.0788  0.0280 -0.1560
43487SOL    HW134823   0.282   7.920   7.966  0.1492 -0.1256  1.4122
43487SOL    HW234824   0.159   7.913   7.877  0.8042  2.9809  0.1287
43488SOL     OW34825   2.702   5.234   6.345  0.0634  0.2104 -0.2347
43488SOL    HW134826   2.738   5.165   6.400 -1.8385 -0.5452  0.1607
43488SOL    HW234827   2.775   5.265   6.293  1.1347 -1.5840  0.1240
43489SOL     OW34828   5.090   9.254   8.175 -0.1173  0.1481 -0.6659
43489SOL    HW134829   5.063   9.216   8.091  0.4437 -1.2333 -0.2554
43489SOL    HW234830   5.012   9.301   8.206 -0.8264 -0.5811 -1.2678
43490SOL     OW34831   5.205   8.683   8.732  0.4699  0.1263 -0.0444
43490SOL    HW134832   5.190   8.645   8.645 -2.2455 -1.1902  0.9090
43490SOL    HW234833   5.178   8.615   8.793  2.6285  0.8899  1.9285
43491SOL     OW34834   7.914   5.221   2.067 -0.3036  0.1325  0.3489
43491SOL    HW134835   7.821   5.242   2.081  0.5273  3.5244  1.4933
43491SOL    HW234836   7.932   5.251   1.978 -0.2817 -0.6979  0.0571
43492SOL     OW34837   7.966   6.561   7.788  0.2509 -0.1200 -0.3712
43492SOL    HW134838   7.908   6.594   7.719  0.7112 -1.2861 -1.3646
43492SOL    HW234839   7.938   6.471   7.801  0.7793 -0.1918  0.3027
43493SOL     OW34840   5.948   4.456   9.027  0.0449  0.3124 -0.7323
43493SOL    HW134841   6.029   4.430   9.071  0.5728 -2.4504 -3.0318
43493SOL    HW234842   5.975   4.523   8.964 -0.2275  2.1382  0.9681
43494SOL     OW34843   2.679   5.910   0.507  0.5469  0.0539  0.0484
43494SOL    HW134844   2.635   5.990   0.537 -0.5100 -0.3482 -0.3994
43494SOL    HW234845   2.648   5.842   0.567  1.2894 -0.0647  0.3046
43495SOL     OW34846   3.572   9.247   9.733 -0.1254 -0.2249  0.1878
43495SOL    HW134847   3.664   9.270   9.722 -0.1229  0.5463  1.5829
43495SOL    HW234848   3.538   9.241   9.644  1.2098 -0.2556 -0.3384
43496SOL     OW34849   6.608   5.949   3.816 -0.8819  0.2907  0.0237
43496SOL    HW134850   6.637   5.860   3.836  1.2036  0.8985 -0.0683
43496SOL    HW234851   6.655   6.004   3.878 -0.3507  1.5104 -1.4022
43497SOL     OW34852   6.880   1.628  10.882  0.1621 -0.0927 -0.0783
43497SOL    HW134853   6.919   1.651  10.798  1.6712  1.4149  0.9615
43497SOL    HW234854   6.805   1.687  10.891  0.0169 -0.2347 -0.3516
43498SOL     OW34855   1.303   8.269   5.433 -0.8692  0.8732  0.8276
43498SOL    HW134856   1.385   8.224   5.452 -0.9765  1.0297  1.7375
43498SOL    HW234857   1.245   8.202   5.397 -0.4389  0.6992  0.4583
43499SOL     OW34858   1.666   2.418   4.118 -0.7104  0.0380  0.2871
43499SOL    HW134859   1.733   2.464   4.068 -1.8782  3.6996  1.7646
43499SOL    HW234860   1.711   2.390   4.198  0.1464 -2.0876 -0.8659
43500SOL     OW34861   8.575   5.341   3.856 -0.4905 -0.0816 -0.0625
43500SOL    HW134862   8.592   5.360   3.764 -3.1173 -0.6664 -0.7614
43500SOL    HW234863   8.576   5.245   3.861 -3.2523 -0.2075 -0.2412
43501SOL     OW34864   1.808   2.848   1.496 -0.9321 -0.3044  0.1040
43501SOL    HW134865   1.726   2.851   1.448 -0.2638 -0.2813 -1.0794
43501SOL    HW234866   1.837   2.757   1.488 -0.7049 -0.2490  0.2721
43502SOL     OW34867   7.539   6.874   0.009 -0.0917  0.3396 -0.5488
43502SOL    HW134868   7.589   6.820  -0.052  0.5671  1.4542 -1.0258
43502SOL    HW234869   7.587   6.867   0.092  1.1951  1.7921 -1.1224
43503SOL     OW34870   7.469   4.813   5.422  0.2890 -0.0794 -0.3763
43503SOL    HW134871   7.440   4.799   5.332  1.6366  1.2297 -1.0462
43503SOL    HW234872   7.389   4.805   5.474 -0.6854  0.1496 -1.7890
43504SOL     OW34873   6.709   4.558   9.721  0.0976 -0.2972 -0.6906
43504SOL    HW134874   6.759   4.580   9.799 -0.9123 -0.3212 -0.0175
43504SOL    HW234875   6.766   4.498   9.672  0.6620 -0.4330  0.1122
43505SOL     OW34876  10.741   6.429   2.209 -0.2767  0.1098 -0.5886
43505SOL    HW134877  10.677   6.399   2.144 -2.2911  0.9006  0.9315
43505SOL    HW234878  10.689   6.476   2.274  1.6368 -0.6071  1.6065
43506SOL     OW34879   8.326   9.243   1.054  0.0222  0.0524  0.3212
43506SOL    HW134880   8.251   9.302   1.045 -0.5753 -0.6697  0.3841
43506SOL    HW234881   8.403   9.300   1.048 -0.5343  0.8534  0.5522
43507SOL     OW34882  11.077   6.819   8.028  0.2385  0.1259 -0.2547
43507SOL    HW134883  11.116   6.877   8.094  0.4112  0.2806 -0.4896
43507SOL    HW234884  11.147   6.807   7.963  0.8065 -1.7153  0.6345
43508SOL     OW34885   5.788   9.892   2.965  0.1652 -0.7366  0.2288
43508SOL    HW134886   5.731   9.959   2.927 -1.8945 -1.1168  2.4181
43508SOL    HW234887   5.838   9.859   2.891 -1.3349  0.7124 -1.5519
43509SOL     OW34888  10.738   7.894   6.072 -0.0367  0.1297 -0.1000
43509SOL    HW134889  10.724   7.867   5.981 -1.1853  2.6101 -0.7268
43509SOL    HW234890  10.795   7.971   6.065 -0.0386  0.2720  1.2991
43510SOL     OW34891   4.290  11.072   3.793 -0.0226  0.0418 -0.7362
43510SOL    HW134892   4.281  11.021   3.712 -1.2753 -2.1758  0.6953
43510SOL    HW234893   4.300  11.006   3.862 -0.9129  1.7610  1.1474
43511SOL     OW34894   0.177   0.787   1.335  0.5414 -0.6707 -0.3061
43511SOL    HW134895   0.090   0.818   1.310  0.9885  1.6379  0.7474
43511SOL    HW234896   0.169   0.692   1.336 -1.9769 -0.5259 -0.1869
43512SOL     OW34897   9.700   4.060   1.648 -0.2504  0.1441 -0.3433
43512SOL    HW134898   9.743   4.027   1.569  1.2106  1.0118  0.0383
43512SOL    HW234899   9.631   3.997   1.667  1.9436 -2.2980 -0.0287
43513SOL     OW34900   4.565   4.083   6.719  0.2387 -0.3846  0.4272
43513SOL    HW134901   4.643   4.050   6.764  0.9863  0.6328 -0.1016
43513SOL    HW234902   4.549   4.169   6.758 -0.7262 -0.6419  0.6342
43514SOL     OW34903   4.296   7.231   3.116 -0.9929  0.4648  0.1843
43514SOL    HW134904   4.387   7.204   3.108 -0.7937  1.0992  0.2481
43514SOL    HW234905   4.250   7.152   3.147 -0.5089  0.0850 -0.0499
43515SOL     OW34906   8.723   2.976   1.725  0.2992 -0.3575 -0.1156
43515SOL    HW134907   8.722   3.021   1.809  1.0556 -0.3052 -0.1273
43515SOL    HW234908   8.635   2.938   1.717 -0.7251  1.8796 -0.5308
43516SOL     OW34909   4.265  11.107   7.439 -0.2347  0.6905 -0.5582
43516SOL    HW134910   4.266  11.192   7.484 -0.9486  1.2849 -1.6254
43516SOL    HW234911   4.326  11.053   7.490 -1.9442  0.9066  1.8791
43517SOL     OW34912   9.418   6.848   7.209 -0.1624 -0.1158  0.7207
43517SOL    HW134913   9.468   6.902   7.271  1.0811 -1.1558  0.6582
43517SOL    HW234914   9.464   6.859   7.126 -0.4629 -0.5275  0.5016
43518SOL     OW34915   7.292   0.937   2.286 -0.1209  0.8556  0.2337
43518SOL    HW134916   7.210   0.907   2.247  0.1247 -0.5895  0.7753
43518SOL    HW234917   7.337   0.983   2.216 -0.2198 -0.6424 -0.8437
43519SOL     OW34918   9.071   3.230   9.421 -0.4185 -0.5169 -0.1382
43519SOL    HW134919   9.040   3.143   9.446  0.0914 -0.7230 -0.2183
43519SOL    HW234920   9.123   3.215   9.342 -0.0069 -0.1913  0.0703
43520SOL     OW34921   3.623   3.622   6.348 -0.3357 -0.4906 -0.3922
43520SOL    HW134922   3.705   3.638   6.301  0.2735 -0.5767  0.6181
43520SOL    HW234923   3.564   3.689   6.315  0.5175  0.3577 -0.2530
43521SOL     OW34924   3.663  10.091   8.143  0.0632  0.2607 -0.2464
43521SOL    HW134925   3.645  10.064   8.233 -0.1111  1.8829  0.2366
43521SOL    HW234926   3.598  10.045   8.091 -1.5989  1.3159  0.7780
43522SOL     OW34927  10.080   7.183   9.525 -0.2015 -0.6099 -0.8440
43522SOL    HW134928  10.023   7.109   9.545  0.3974 -0.6808  0.7797
43522SOL    HW234929  10.116   7.209   9.610  1.1324  0.2937 -1.6461
43523SOL     OW34930   2.070   2.173   0.429 -0.3808 -0.1177  0.0059
43523SOL    HW134931   2.121   2.253   0.442 -1.7050  0.8267 -0.4213
43523SOL    HW234932   1.980   2.203   0.420 -1.1667 -1.8253  1.6611
43524SOL     OW34933   9.064   9.392   1.242  0.1048  0.1560 -0.0784
43524SOL    HW134934   9.041   9.459   1.306 -0.6018 -0.6502  0.5480
43524SOL    HW234935   9.159   9.385   1.248 -0.0239 -0.8026  1.8724
43525SOL     OW34936   0.654   6.579   7.650 -0.3015 -0.6074 -0.5214
43525SOL    HW134937   0.600   6.511   7.609 -1.3113  0.8047 -1.6369
43525SOL    HW234938   0.728   6.590   7.591 -0.3453 -0.4514 -0.5454
43526SOL     OW34939   7.633   7.603   4.132 -0.2959  0.2161 -0.1038
43526SOL    HW134940   7.636   7.510   4.108 -1.2941  0.3512 -0.8122
43526SOL    HW234941   7.674   7.648   4.059  0.5002  0.3203  0.3965
43527SOL     OW34942   8.068   3.376   2.001 -0.8077  0.3444  0.1594
43527SOL    HW134943   8.135   3.378   1.932  1.3398 -0.7633  2.0903
43527SOL    HW234944   8.048   3.284   2.013 -2.1531  0.6159  0.1464
43528SOL     OW34945   0.815   4.482   7.957  0.7709 -0.3912 -0.1353
43528SOL    HW134946   0.754   4.477   7.883  0.1283 -1.0565  0.4160
43528SOL    HW234947   0.841   4.391   7.972 -0.3932 -0.5062  1.4770
43529SOL     OW34948   6.948   9.292   2.006  0.0832  0.3993 -0.3058
43529SOL    HW134949   6.885   9.363   1.994 -1.2473 -0.6087  0.3276
43529SOL    HW234950   7.001   9.320   2.081 -2.1478 -0.3127  1.7121
43530SOL     OW34951   4.904   8.141   9.059 -0.0633 -0.1267 -0.0554
43530SOL    HW134952   4.920   8.052   9.027  0.8451 -0.1950  0.5627
43530SOL    HW234953   4.900   8.133   9.154 -0.8184  0.3688 -0.0385
43531SOL     OW34954   6.006   3.893   0.305  0.0281  0.0404 -0.1700
43531SOL    HW134955   5.939   3.960   0.307 -0.3532 -0.3552  0.6447
43531SOL    HW234956   6.058   3.913   0.226  1.9967  3.2832  1.7247
43532SOL     OW34957   0.535   6.528   8.085 -0.1230  0.4469  0.5359
43532SOL    HW134958   0.573   6.511   8.171 -0.4850  1.4001  0.9016
43532SOL    HW234959   0.561   6.618   8.065  0.1500  0.1632 -0.4663
43533SOL     OW34960   5.249   8.170   8.307 -0.3239 -0.4886  0.3081
43533SOL    HW134961   5.323   8.204   8.357  1.7064 -2.5894 -1.0768
43533SOL    HW234962   5.229   8.237   8.242 -0.6134  0.6942  1.5811
43534SOL     OW34963   0.538   5.413   0.937  0.0886 -0.0548  0.0877
43534SOL    HW134964   0.614   5.361   0.911 -2.0401 -2.1289 -2.5917
43534SOL    HW234965   0.472   5.349   0.962 -1.2992  1.5916  0.8329
43535SOL     OW34966   9.511   3.035   9.731  0.1199  0.4040  0.0336
43535SOL    HW134967   9.474   3.033   9.820 -0.5304 -0.6671 -0.2422
43535SOL    HW234968   9.475   2.957   9.689  2.0702 -0.2703 -0.5082
43536SOL     OW34969   7.004   3.933  10.569  0.6372 -0.0973  0.2081
43536SOL    HW134970   6.959   3.851  10.548  1.8423 -0.5625 -0.6704
43536SOL    HW234971   7.002   3.983  10.488  2.1410 -0.3616 -0.0306
43537SOL     OW34972  10.672   2.731   7.566  0.4117 -0.3337 -0.3519
43537SOL    HW134973  10.759   2.691   7.574  1.8218  2.2650 -1.3108
43537SOL    HW234974  10.641   2.703   7.479  1.2728  0.3746 -0.9119
43538SOL     OW34975   7.454   7.306   0.669  0.2020 -0.4536  0.1518
43538SOL    HW134976   7.401   7.298   0.748 -0.1213 -0.0483 -0.0197
43538SOL    HW234977   7.494   7.220   0.657  0.6456 -0.3744  1.0325
43539SOL     OW34978   4.257   6.387   7.092  0.2808 -0.2833  0.5025
43539SOL    HW134979   4.241   6.352   7.179  3.0271 -1.9258  0.4474
43539SOL    HW234980   4.280   6.479   7.107  1.1008 -0.6474  1.5753
43540SOL     OW34981   3.837   0.594   2.460  0.7083 -0.3477  0.0641
43540SOL    HW134982   3.777   0.538   2.511  1.3423  0.1294  1.3887
43540SOL    HW234983   3.924   0.556   2.476  0.8662 -0.5422 -1.1689
43541SOL     OW34984   6.286   8.046   0.939  0.2222  0.3709  0.2756
43541SOL    HW134985   6.249   8.090   0.862  0.6295  0.7807  0.3131
43541SOL    HW234986   6.291   8.114   1.005  1.4149  0.4215  0.1502
43542SOL     OW34987   2.500   1.056   5.856 -0.0666 -0.1532 -0.0024
43542SOL    HW134988   2.572   0.999   5.883  2.0511  1.0251 -2.6939
43542SOL    HW234989   2.510   1.135   5.908 -0.5151 -0.6398  0.8438
43543SOL     OW34990  10.463   0.213   8.886  0.2880  0.6794 -0.0743
43543SOL    HW134991  10.527   0.180   8.949 -1.1372  0.4273  1.3207
43543SOL    HW234992  10.481   0.307   8.880 -0.5862  1.0515  2.0741
43544SOL     OW34993   4.487   0.251   4.804 -0.5532  0.1370  0.1095
43544SOL    HW134994   4.497   0.156   4.803 -0.1216  0.1554  1.3927
43544SOL    HW234995   4.534   0.281   4.725 -1.1146 -0.7293 -0.5730
43545SOL     OW34996   1.556   2.641   5.861  0.3515 -0.6721 -0.4620
43545SOL    HW134997   1.482   2.687   5.899  1.6873  1.6304 -0.4935
43545SOL    HW234998   1.530   2.625   5.770  0.9062  2.7235 -1.3328
43546SOL     OW34999   2.513   4.526   8.061  0.3778 -0.0556  0.2349
43546SOL    HW135000   2.492   4.546   8.152 -0.0357  0.6238  0.0002
43546SOL    HW235001   2.507   4.430   8.055 -1.2731 -0.0059  0.5348
43547SOL     OW35002   9.722   2.679   3.056  0.6617 -0.2101 -0.2949
43547SOL    HW135003   9.715   2.738   2.982  1.0538  0.6476  0.3371
43547SOL    HW235004   9.778   2.725   3.119 -0.2919 -0.5660  0.8539
43548SOL     OW35005   0.930   4.710   4.386 -0.5249 -0.2416 -0.0375
43548SOL    HW135006   0.962   4.787   4.432  1.1193 -1.2525  0.5775
43548SOL    HW235007   0.940   4.731   4.293 -0.3754  0.3884  0.1191
43549SOL     OW35008   7.709   7.512   7.980  0.4451  0.3625  0.5571
43549SOL    HW135009   7.635   7.518   7.919  1.6174 -0.7155 -1.0700
43549SOL    HW235010   7.747   7.600   7.981 -1.3010  1.1355  2.0436
43550SOL     OW35011   9.840  10.511  10.152  0.2583 -0.1024  0.0422
43550SOL    HW135012   9.791  10.446  10.101 -2.1776  0.2974  1.7036
43550SOL    HW235013   9.877  10.461  10.225 -0.4223  0.0882  0.5354
43551SOL     OW35014   6.139   6.249   0.270  0.4584  0.1717 -0.0757
43551SOL    HW135015   6.225   6.283   0.246  0.1446  0.0517 -1.4351
43551SOL    HW235016   6.113   6.194   0.196  0.0624 -1.3977  1.1775
43552SOL     OW35017   7.567   5.561   1.728  0.6167 -0.3067  0.4367
43552SOL    HW135018   7.518   5.513   1.662  1.0899 -1.7772  1.1122
43552SOL    HW235019   7.562   5.507   1.806 -0.0411  1.4608  1.6799
43553SOL     OW35020   3.482   4.785   0.245  0.5123  0.2634 -0.1124
43553SOL    HW135021   3.466   4.850   0.177 -1.7935  0.0707  0.1861
43553SOL    HW235022   3.456   4.828   0.326  0.4068 -0.5224  0.2768
43554SOL     OW35023   6.388   6.927   3.270 -0.3405  0.3153 -0.7226
43554SOL    HW135024   6.408   7.019   3.285  2.2695  0.0684 -2.1108
43554SOL    HW235025   6.328   6.903   3.341  0.9610  2.4182  1.1849
43555SOL     OW35026  10.283   0.083   0.284 -0.3403 -0.2255 -0.1870
43555SOL    HW135027  10.357   0.037   0.243  1.3911  1.4717  0.9061
43555SOL    HW235028  10.212   0.075   0.220  1.3325 -0.3219 -2.1217
43556SOL     OW35029   4.053   0.273   8.482 -0.4199 -0.5495 -0.5322
43556SOL    HW135030   4.046   0.218   8.560 -0.1151  1.9442  1.3476
43556SOL    HW235031   4.084   0.213   8.414 -1.5982 -3.0173  0.9628
43557SOL     OW35032   6.906   2.797   4.413 -0.0539  0.1228 -0.0895
43557SOL    HW135033   6.948   2.762   4.335  1.3770 -1.0076  1.1481
43557SOL    HW235034   6.973   2.793   4.481 -0.3438  3.7100  0.5810
43558SOL     OW35035   1.129   7.675   0.129  0.6301  0.1921  0.1915
43558SOL    HW135036   1.107   7.756   0.082  0.8672 -1.1547 -2.4674
43558SOL    HW235037   1.049   7.652   0.176  0.9032  2.4720  1.9183
43559SOL     OW35038   4.516   8.228   3.617  0.5539  0.3285 -0.1475
43559SOL    HW135039   4.511   8.220   3.712 -3.4333  0.1776 -0.2094
43559SOL    HW235040   4.610   8.224   3.597  1.5327  0.3934  3.7253
43560SOL     OW35041   7.143   0.072   1.323 -0.3185  0.7511  0.1290
43560SOL    HW135042   7.111   0.109   1.405  2.1299 -1.9636  2.5602
43560SOL    HW235043   7.077   0.008   1.298 -0.1179  0.0698  1.2566
43561SOL     OW35044   9.005   3.080   1.145  0.5675  0.0429 -0.3250
43561SOL    HW135045   8.951   3.010   1.108  0.9745 -0.4518 -0.0061
43561SOL    HW235046   9.058   3.036   1.212  0.4039  0.7726  0.2938
43562SOL     OW35047   2.332  10.985   3.576  0.4933  0.1210 -0.0883
43562SOL    HW135048   2.354  11.015   3.488  0.7655 -2.3624 -0.9487
43562SOL    HW235049   2.314  11.065   3.625  0.3620  1.5740 -2.3771
43563SOL     OW35050   5.536   2.777   8.261 -0.4095 -0.1818  0.2817
43563SOL    HW135051   5.622   2.817   8.260 -1.3066  1.9997  1.9915
43563SOL    HW235052   5.522   2.746   8.172  2.0169 -0.3850 -0.0782
43564SOL     OW35053   7.786   8.325   2.967 -0.8989  0.8083  0.3698
43564SOL    HW135054   7.861   8.372   3.003  0.1209  1.5581 -2.3981
43564SOL    HW235055   7.793   8.236   3.001 -0.0993  1.4490  1.9559
43565SOL     OW35056   8.608   4.751   5.515  1.3657  0.3823 -0.5816
43565SOL    HW135057   8.634   4.729   5.605 -0.7742  0.7504  0.1958
43565SOL    HW235058   8.689   4.746   5.465  2.4298 -0.9731  1.1387
43566SOL     OW35059   7.384   9.469   3.582 -0.3695 -0.3334 -0.1722
43566SOL    HW135060   7.473   9.469   3.618  0.2616  0.0317 -1.6428
43566SOL    HW235061   7.361   9.561   3.576 -0.4245 -0.3807 -0.7585
43567SOL     OW35062   0.405   9.807   2.369  0.4383  0.0106 -0.0725
43567SOL    HW135063   0.432   9.725   2.411  0.2616 -0.3279 -0.6095
43567SOL    HW235064   0.309   9.806   2.372  0.4067 -0.2504 -0.9087
43568SOL     OW35065   3.708  10.085   7.727  0.1596 -0.1088 -0.1653
43568SOL    HW135066   3.705  10.033   7.647 -0.1336  0.3128 -0.4308
43568SOL    HW235067   3.725  10.021   7.796 -0.2148 -0.5586 -0.4842
43569SOL     OW35068   5.397   1.796   5.839  0.3309 -0.1239  0.3264
43569SOL    HW135069   5.370   1.823   5.751  0.2124 -0.8529  0.1305
43569SOL    HW235070   5.325   1.821   5.896  1.1027  1.8891  0.5074
43570SOL     OW35071   7.765   9.988   2.890  0.2805 -0.3713 -0.0584
43570SOL    HW135072   7.831  10.035   2.942 -0.1966  0.1495  0.0858
43570SOL    HW235073   7.718   9.934   2.953 -0.2793  0.2394  0.0609
43571SOL     OW35074   2.113   9.099   6.525  0.0624 -0.4764 -0.3136
43571SOL    HW135075   2.137   9.022   6.474 -0.4326 -1.2694  0.6098
43571SOL    HW235076   2.100   9.168   6.460 -2.4071 -1.9141 -1.4607
43572SOL     OW35077  10.306   0.297   9.604 -0.1794  0.3127  0.6145
43572SOL    HW135078  10.351   0.251   9.533  1.2759  1.4856  0.7258
43572SOL    HW235079  10.308   0.236   9.677  0.1862 -0.1037  0.2651
43573SOL     OW35080   3.223   6.852  10.944 -0.1623 -0.0728 -0.3222
43573SOL    HW135081   3.162   6.778  10.950 -0.1320 -0.1815 -1.1581
43573SOL    HW235082   3.178   6.925  10.987 -0.4644 -0.4082 -0.0652
43574SOL     OW35083   4.623   2.492   4.268 -0.0645 -0.2704 -0.3939
43574SOL    HW135084   4.543   2.474   4.219  0.1621  1.1873 -1.3855
43574SOL    HW235085   4.664   2.407   4.282 -1.6352 -1.0008 -0.1294
43575SOL     OW35086   5.997   2.559   6.647 -0.3972  0.1449 -0.1592
43575SOL    HW135087   5.906   2.534   6.630 -1.0542  0.9765  1.7930
43575SOL    HW235088   6.026   2.498   6.715 -0.1279  0.9852  0.5063
43576SOL     OW35089   4.261   7.059   8.861 -0.4049 -0.5898 -0.3389
43576SOL    HW135090   4.247   7.094   8.773  0.1514 -1.6105 -0.8564
43576SOL    HW235091   4.333   6.997   8.851 -1.0790 -1.5670  0.6155
43577SOL     OW35092   7.047   4.989   9.465  0.3502  0.2843 -0.2851
43577SOL    HW135093   7.072   4.933   9.391 -3.3180 -0.6922 -0.9843
43577SOL    HW235094   7.032   5.075   9.425  0.2095  0.2375 -0.3344
43578SOL     OW35095   9.354   6.301   0.806 -0.1548  0.3995 -0.2362
43578SOL    HW135096   9.443   6.334   0.818  1.5870 -2.7987 -2.5643
43578SOL    HW235097   9.336   6.251   0.886  0.8292 -0.2233 -0.3889
43579SOL     OW35098   7.176   6.010   2.362 -0.0558 -0.6083  0.4828
43579SOL    HW135099   7.256   6.026   2.412  0.2487 -0.4466 -0.0436
43579SOL    HW235100   7.155   6.094   2.321  0.0344 -0.8739 -0.1295
43580SOL     OW35101   9.851   6.594  10.979  0.2513  0.5366 -0.2570
43580SOL    HW135102   9.832   6.623  10.890  1.0507 -2.1025 -1.3801
43580SOL    HW235103   9.946   6.586  10.982  0.1046 -1.9535 -0.1212
43581SOL     OW35104   6.534   3.807   0.280 -0.4814  0.0822  1.0013
43581SOL    HW135105   6.439   3.796   0.277 -0.4239 -0.2060 -0.4089
43581SOL    HW235106   6.561   3.759   0.358 -1.3042 -1.4334  0.4040
43582SOL     OW35107   4.619   8.137  10.739 -0.2502  0.7712  0.3855
43582SOL    HW135108   4.534   8.182  10.738 -0.6945  0.1242  2.5293
43582SOL    HW235109   4.599   8.050  10.775  1.3482  0.6947  1.1753
43583SOL     OW35110   3.351   5.323   7.772  0.3818 -0.1216  0.8777
43583SOL    HW135111   3.445   5.317   7.791  0.0248 -0.4263  2.6548
43583SOL    HW235112   3.347   5.332   7.676  2.3200  2.1653  0.9161
43584SOL     OW35113   7.171   5.001  10.467 -0.9533 -0.2678  0.3862
43584SOL    HW135114   7.196   4.951  10.544 -0.0399  0.8903  0.8814
43584SOL    HW235115   7.146   5.087  10.501  0.1395  0.4999 -0.6321
43585SOL     OW35116   7.494   1.477   1.910  0.0067  0.0242  0.3762
43585SOL    HW135117   7.422   1.431   1.868 -0.0333 -0.2736  0.7682
43585SOL    HW235118   7.466   1.489   2.001 -0.8321  2.5389 -0.1333
43586SOL     OW35119   9.070  10.788   9.985 -0.0258  0.3187  0.0735
43586SOL    HW135120   9.020  10.861   9.946  1.1304 -0.2763 -2.8070
43586SOL    HW235121   9.148  10.829  10.022 -1.2512  0.9272  2.1618
43587SOL     OW35122   2.453   9.401   2.202  0.4007  0.2282 -0.0661
43587SOL    HW135123   2.371   9.409   2.154  0.8388 -0.9325 -1.0522
43587SOL    HW235124   2.520   9.438   2.144  1.0286 -1.7540 -0.6910
43588SOL     OW35125   2.665   1.838   7.596  0.1530  0.2367  0.1952
43588SOL    HW135126   2.591   1.811   7.543 -0.3503 -2.0813  1.9127
43588SOL    HW235127   2.742   1.811   7.546 -0.2908 -0.9839  0.1373
43589SOL     OW35128   7.252   1.593   3.759  0.0427 -0.1346  0.5153
43589SOL    HW135129   7.282   1.668   3.709 -0.9751  0.4071  0.6760
43589SOL    HW235130   7.157   1.605   3.764 -0.1438 -1.4904  0.4566
43590SOL     OW35131   7.531   0.500   6.777 -0.6625  0.3482 -0.0195
43590SOL    HW135132   7.564   0.524   6.864 -0.4205  2.2039 -0.5823
43590SOL    HW235133   7.444   0.465   6.794  0.1831 -1.3677  1.1526
43591SOL     OW35134   7.806   4.777   2.202 -0.3474  0.1517  0.1501
43591SOL    HW135135   7.869   4.793   2.131 -0.8976  0.7217 -0.2149
43591SOL    HW235136   7.821   4.848   2.264  0.1281 -0.3410  0.6190
43592SOL     OW35137   0.262   0.062   1.531 -0.2694  0.1230 -0.2381
43592SOL    HW135138   0.173   0.034   1.553 -0.6239  0.1664 -1.5590
43592SOL    HW235139   0.304  -0.016   1.495  0.5045 -0.1089  1.0729
43593SOL     OW35140   4.720   4.019   4.955 -0.1756 -0.1424  0.1379
43593SOL    HW135141   4.679   3.939   4.987 -1.1488  0.5129  0.5913
43593SOL    HW235142   4.719   4.010   4.859 -1.8202  0.0289  0.1073
43594SOL     OW35143   0.484   7.554   2.988 -0.0673 -0.8579 -0.0512
43594SOL    HW135144   0.579   7.563   2.987  0.1173 -2.4654 -1.0868
43594SOL    HW235145   0.466   7.511   3.072 -0.2869  2.3644  1.7024
43595SOL     OW35146   2.946   9.612   2.356  0.3555 -0.0042 -0.0985
43595SOL    HW135147   3.031   9.576   2.380  0.6067 -0.3197 -1.4012
43595SOL    HW235148   2.883   9.555   2.400  0.7695 -1.4406 -1.2797
43596SOL     OW35149   1.053   1.147   4.970  0.4149 -0.0871  0.2344
43596SOL    HW135150   0.982   1.188   4.921  0.4141 -0.5367 -0.1569
43596SOL    HW235151   1.069   1.205   5.043  0.1952  0.4348 -0.1280
43597SOL     OW35152   8.285   1.012   7.293  0.2170 -0.3490 -0.7997
43597SOL    HW135153   8.347   1.048   7.229  0.2038  2.0280  0.3912
43597SOL    HW235154   8.208   0.988   7.240  0.1176  1.7333 -1.7348
43598SOL     OW35155   5.505   6.816   3.084  0.4873  0.0389 -0.4750
43598SOL    HW135156   5.469   6.727   3.087 -1.4562  0.8079  1.2634
43598SOL    HW235157   5.466   6.861   3.159  2.1463  2.1245 -0.7516
43599SOL     OW35158   6.885   5.813   1.661 -0.1106 -0.4842  0.7232
43599SOL    HW135159   6.941   5.743   1.628 -0.1713 -0.5339  0.7257
43599SOL    HW235160   6.943   5.865   1.717  0.1759  0.0300 -0.0408
43600SOL     OW35161   9.405   5.277   4.711 -0.0169 -0.0901 -0.4083
43600SOL    HW135162   9.335   5.269   4.646 -1.8349  0.4624  1.3743
43600SOL    HW235163   9.405   5.194   4.757  2.5505 -1.2142 -2.2087
43601SOL     OW35164   6.041   1.336   4.996  0.2358 -0.1612 -0.1571
43601SOL    HW135165   6.025   1.294   4.911  0.5049  0.7074 -0.6409
43601SOL    HW235166   6.080   1.266   5.049 -1.8542 -1.3408 -0.0451
43602SOL     OW35167   7.258   3.766   1.712  0.4083 -0.0065  0.2880
43602SOL    HW135168   7.223   3.682   1.682 -0.5170  0.7578 -0.8832
43602SOL    HW235169   7.222   3.830   1.651  3.3466  0.9513 -0.6454
43603SOL     OW35170   1.336   7.979   5.748  0.3856 -0.0857 -0.0760
43603SOL    HW135171   1.426   7.992   5.718  0.7758 -0.9398  0.6909
43603SOL    HW235172   1.310   8.064   5.784  1.4422 -0.2533  1.1424
43604SOL     OW35173   0.465   8.112  10.909 -0.2955 -0.2709  0.5581
43604SOL    HW135174   0.418   8.119  10.826  1.1036 -1.6043 -0.3906
43604SOL    HW235175   0.409   8.058  10.964 -0.9301  0.0850  0.2764
43605SOL     OW35176   6.231   3.858   9.901 -0.3536 -0.3483  0.1380
43605SOL    HW135177   6.256   3.927   9.840  0.2094 -0.3667  0.3402
43605SOL    HW235178   6.291   3.868   9.975 -1.0005 -0.3506  0.6738
43606SOL     OW35179   4.332   7.022   0.754  0.8474  0.3539 -0.1808
43606SOL    HW135180   4.419   6.984   0.769  0.3444  0.1930  3.0878
43606SOL    HW235181   4.271   6.953   0.781 -0.3214  0.6697 -1.8986
43607SOL     OW35182   8.139   1.344   7.988  0.3406 -0.1319  0.1515
43607SOL    HW135183   8.141   1.386   8.074 -1.7198 -0.9350  0.6429
43607SOL    HW235184   8.056   1.373   7.949  1.1134  0.0007 -1.4763
43608SOL     OW35185   7.025   2.707   3.059  0.1929  0.1703 -0.0225
43608SOL    HW135186   7.025   2.626   3.111 -0.9762  1.1854  1.6607
43608SOL    HW235187   6.948   2.700   3.004 -0.2665  0.3857  0.5784
43609SOL     OW35188   5.300   5.754   6.100 -1.0714  0.2154 -0.0821
43609SOL    HW135189   5.358   5.754   6.025 -1.9624  0.6751 -0.7890
43609SOL    HW235190   5.244   5.678   6.087  1.0193 -1.8277  1.9582
43610SOL     OW35191   6.069   0.585   3.909 -0.0003  0.6065 -0.6883
43610SOL    HW135192   6.100   0.662   3.861  2.7008 -0.8905 -1.5119
43610SOL    HW235193   6.148   0.542   3.941 -1.4149 -1.7685 -0.0961
43611SOL     OW35194   5.049   8.391   4.775  0.6947  0.1519 -0.2825
43611SOL    HW135195   5.081   8.312   4.819 -1.9807 -1.5293 -1.1509
43611SOL    HW235196   5.122   8.417   4.718  1.0539 -2.7921 -1.3453
43612SOL     OW35197  10.398   3.172  10.951  0.1542 -0.5758 -0.1945
43612SOL    HW135198  10.339   3.176  10.875  0.8277  1.9087 -0.6680
43612SOL    HW235199  10.340   3.179  11.026 -0.2444  1.5411 -0.6501
43613SOL     OW35200   2.468   6.792   6.137 -0.7489 -0.1278 -1.0594
43613SOL    HW135201   2.512   6.876   6.144 -0.0659 -0.5559  0.0967
43613SOL    HW235202   2.507   6.739   6.206  0.4501 -2.1309 -3.1059
43614SOL     OW35203   7.774   2.055   2.940 -0.4407  0.2384  0.1748
43614SOL    HW135204   7.729   1.973   2.922 -1.1488  1.1172 -2.6881
43614SOL    HW235205   7.705   2.115   2.967 -0.6386  0.8748 -1.6027
43615SOL     OW35206   3.103  10.091   8.760  1.0217 -0.5471 -0.4965
43615SOL    HW135207   3.022  10.112   8.807 -0.4711 -2.0742 -2.2147
43615SOL    HW235208   3.125  10.172   8.713  0.9916  0.1304  0.6123
43616SOL     OW35209   1.769   8.002   7.330  0.2954 -0.4640  0.0964
43616SOL    HW135210   1.819   7.923   7.352 -0.4431 -0.6606  1.1032
43616SOL    HW235211   1.796   8.067   7.394 -0.3074 -0.4038  0.2985
43617SOL     OW35212   2.568   7.117   8.285 -0.1335  0.0581 -0.4795
43617SOL    HW135213   2.506   7.086   8.219  0.4747 -2.4877  0.0633
43617SOL    HW235214   2.536   7.082   8.368  1.5096 -0.5436 -0.0653
43618SOL     OW35215  10.254   5.705   3.270  0.5243 -0.1482 -0.3899
43618SOL    HW135216  10.310   5.673   3.341  2.5306  1.5605 -1.1001
43618SOL    HW235217  10.281   5.655   3.193 -0.2988 -0.6536 -0.3585
43619SOL     OW35218   0.852   0.184   2.182 -0.7374 -0.0784 -0.1250
43619SOL    HW135219   0.828   0.142   2.265  0.0103 -0.9066 -0.3155
43619SOL    HW235220   0.795   0.261   2.177 -1.2430 -0.3722  0.8447
43620SOL     OW35221   9.099   7.616   0.584 -0.0931  0.5576 -0.2028
43620SOL    HW135222   9.014   7.577   0.604 -0.1332  1.1127  0.7279
43620SOL    HW235223   9.116   7.589   0.493 -0.0017 -1.8011  0.4565
43621SOL     OW35224   4.790  10.456   7.335  0.3379  0.3294  0.3194
43621SOL    HW135225   4.732  10.489   7.404  1.6180 -0.1913  1.7108
43621SOL    HW235226   4.774  10.361   7.334 -1.3426  0.5620 -1.7613
43622SOL     OW35227   5.940   8.609  10.490 -0.0606  0.5772  0.0980
43622SOL    HW135228   5.970   8.599  10.400 -1.5608  0.7005 -0.4438
43622SOL    HW235229   5.883   8.534  10.505  1.9665 -0.7710  1.7819
43623SOL     OW35230   3.019   5.917   7.070 -0.2603  0.5084  0.6975
43623SOL    HW135231   3.082   5.846   7.060  0.0669  0.7148  1.2865
43623SOL    HW235232   2.989   5.911   7.160 -0.5080  0.8878  0.6437
43624SOL     OW35233   4.193   7.123  10.231 -0.0112 -0.6332 -0.9444
43624SOL    HW135234   4.114   7.168  10.201  0.2606  0.1612 -0.4906
43624SOL    HW235235   4.186   7.123  10.326 -0.6291 -2.7022 -0.9417
43625SOL     OW35236   9.422   9.106   5.097 -0.2224  0.1170  0.1741
43625SOL    HW135237   9.443   9.015   5.120  0.9523  0.4126  0.3050
43625SOL    HW235238   9.393   9.101   5.006 -0.3148 -0.4000  0.2262
43626SOL     OW35239   8.305   4.170   4.544  0.4094  0.1308  0.7044
43626SOL    HW135240   8.262   4.144   4.625 -0.2088  1.5921  0.8752
43626SOL    HW235241   8.328   4.262   4.557  1.3785  0.0623 -0.3336
43627SOL     OW35242   4.701   2.622   3.290 -0.1069  0.1081  0.2581
43627SOL    HW135243   4.665   2.557   3.229  0.1138  0.3950 -0.1818
43627SOL    HW235244   4.794   2.600   3.295 -0.0983  0.1735  0.3836
43628SOL     OW35245   2.592   6.208   6.165  0.1546 -0.5250  0.0055
43628SOL    HW135246   2.547   6.169   6.240  0.3808  0.0914  0.4732
43628SOL    HW235247   2.559   6.298   6.161  1.6720  0.0887  0.6469
43629SOL     OW35248   9.155   9.737   0.201  0.0096 -0.0337 -0.2428
43629SOL    HW135249   9.184   9.650   0.228 -0.0278  0.0280 -0.0004
43629SOL    HW235250   9.218   9.797   0.240 -0.1879  0.0727 -0.0841
43630SOL     OW35251   0.217   8.463  10.759 -0.0138 -0.0948 -0.0066
43630SOL    HW135252   0.278   8.418  10.701 -0.4671  0.1801 -0.7105
43630SOL    HW235253   0.225   8.555  10.737 -0.9313 -0.0854 -0.3663
43631SOL     OW35254   1.864   5.894   1.949  0.2112 -0.2997 -0.1605
43631SOL    HW135255   1.846   5.819   2.007  0.5414 -0.6275 -0.4765
43631SOL    HW235256   1.778   5.930   1.928  0.1194  0.5653  1.4938
43632SOL     OW35257   2.460   3.740   8.232 -0.3155 -0.1237 -0.0641
43632SOL    HW135258   2.503   3.765   8.150 -1.3728 -0.6672 -0.8031
43632SOL    HW235259   2.521   3.677   8.272  0.6286  0.8098  0.0276
43633SOL     OW35260   1.582   3.972   3.134  0.2431 -0.2136  0.4758
43633SOL    HW135261   1.510   4.031   3.114  0.9480  0.1828 -1.0025
43633SOL    HW235262   1.646   3.986   3.065  2.6456  0.8399  2.7279
43634SOL     OW35263   4.444   4.880   2.182  0.2048  0.4573  0.1406
43634SOL    HW135264   4.475   4.892   2.092 -0.3499  1.9306  0.1372
43634SOL    HW235265   4.512   4.920   2.236 -0.0059  0.5699  0.3219
43635SOL     OW35266  10.062   1.078   0.090 -0.5420 -0.0847 -0.0215
43635SOL    HW135267  10.055   1.173   0.075 -1.9068 -0.2225 -0.3809
43635SOL    HW235268  10.124   1.070   0.163 -0.2748  1.0715 -0.1011
43636SOL     OW35269   7.111   0.994   1.581 -0.1304  0.3358  0.1857
43636SOL    HW135270   7.016   1.002   1.593  0.0065  1.3168  0.6973
43636SOL    HW235271   7.146   1.078   1.611  1.1328 -0.8658  2.3107
43637SOL     OW35272   6.880   6.166  10.089 -0.0593 -0.2003 -0.4591
43637SOL    HW135273   6.856   6.255  10.061  0.7079  0.2144  0.1369
43637SOL    HW235274   6.951   6.141  10.031 -0.6794 -0.6765 -1.0202
43638SOL     OW35275   8.626   5.894   4.784  0.0684  0.1051 -0.3260
43638SOL    HW135276   8.699   5.839   4.811 -1.7799 -2.0790  0.6042
43638SOL    HW235277   8.579   5.912   4.865 -1.6812 -0.5271 -1.1486
43639SOL     OW35278   5.741   3.782   1.278 -0.6697 -0.0375 -0.7162
43639SOL    HW135279   5.795   3.703   1.282 -0.7926 -0.0853  1.1404
43639SOL    HW235280   5.654   3.753   1.305 -0.7121  0.7138 -0.0016
43640SOL     OW35281   0.615  10.295   7.482 -0.0175 -0.5459 -0.0759
43640SOL    HW135282   0.698  10.256   7.456  0.1350 -0.4109  0.2071
43640SOL    HW235283   0.639  10.375   7.529 -0.3293  0.5911 -1.7294
43641SOL     OW35284   3.465   3.730   7.729  0.1733  0.7112  0.2591
43641SOL    HW135285   3.493   3.801   7.672 -0.2986  0.7909  0.1175
43641SOL    HW235286   3.443   3.773   7.812  1.6926  0.4851  0.7957
43642SOL     OW35287   7.501   9.611   1.049 -0.4012  0.0611 -0.4137
43642SOL    HW135288   7.514   9.692   1.098  0.2002 -0.7099  0.7473
43642SOL    HW235289   7.426   9.569   1.092  0.4152 -0.8373  0.1758
43643SOL     OW35290   2.644   2.547   2.682  0.2024  0.3375 -0.2071
43643SOL    HW135291   2.615   2.506   2.763 -0.4489  0.5290 -0.3367
43643SOL    HW235292   2.687   2.476   2.634  0.7241  0.2619  0.3657
43644SOL     OW35293   8.581   2.780   8.366 -0.2601 -0.1741 -0.2491
43644SOL    HW135294   8.515   2.827   8.315 -0.2385 -0.3265 -0.4193
43644SOL    HW235295   8.551   2.787   8.457  0.0868  0.7340 -0.1897
43645SOL     OW35296   9.282   9.425  10.947 -0.1185 -0.0135  0.1155
43645SOL    HW135297   9.223   9.493  10.979 -0.6904 -0.2448 -0.4264
43645SOL    HW235298   9.224   9.354  10.919  0.5001 -1.1571  1.6083
43646SOL     OW35299   6.650   0.056   7.686  0.1930  0.4715  0.4027
43646SOL    HW135300   6.567   0.058   7.637 -0.0347 -1.7911  0.5937
43646SOL    HW235301   6.667  -0.037   7.701  3.2545  0.7806 -0.4240
43647SOL     OW35302  10.470   7.506   9.487 -0.4309 -0.1246 -0.1590
43647SOL    HW135303  10.500   7.596   9.499 -1.5365  0.2748 -0.2845
43647SOL    HW235304  10.486   7.464   9.572  0.6471  0.0081 -0.2833
43648SOL     OW35305   4.335  10.307   8.173 -0.0235  0.2678 -0.0075
43648SOL    HW135306   4.429  10.310   8.190  0.0252  0.9044 -0.3466
43648SOL    HW235307   4.300  10.385   8.216  0.0289  1.6371 -2.2311
43649SOL     OW35308   8.779   7.190   0.099  0.2756  0.2702  0.0099
43649SOL    HW135309   8.771   7.284   0.083  0.8430  0.6259  1.5854
43649SOL    HW235310   8.738   7.177   0.185  0.4780 -0.8808 -0.0517
43650SOL     OW35311   2.478  10.480   6.691 -0.4863 -0.3870  0.0844
43650SOL    HW135312   2.499  10.507   6.601  0.3200 -0.7546  0.1547
43650SOL    HW235313   2.558  10.496   6.740 -0.8560 -0.3938  0.6961
43651SOL     OW35314   7.242   3.377   5.275 -0.1132 -0.1419 -0.4496
43651SOL    HW135315   7.318   3.419   5.235 -0.0683 -0.7438 -1.0300
43651SOL    HW235316   7.199   3.446   5.325  0.0766  0.5344 -1.2013
43652SOL     OW35317   5.087   2.587   3.410  0.5589  0.1354 -0.1470
43652SOL    HW135318   5.025   2.552   3.346  1.0022 -2.6782  0.8282
43652SOL    HW235319   5.034   2.603   3.488  0.3155  2.0390 -0.6523
43653SOL     OW35320   6.553   8.004   7.801 -0.0506  0.3330 -0.5811
43653SOL    HW135321   6.466   8.030   7.773  0.0812  0.6270 -0.7249
43653SOL    HW235322   6.539   7.961   7.886 -0.4474 -0.5702 -1.0922
43654SOL     OW35323   6.483   7.362   6.010 -0.1836  0.0515  0.3826
43654SOL    HW135324   6.512   7.427   5.946 -0.0149 -0.1273  0.2769
43654SOL    HW235325   6.561   7.343   6.063 -0.1129 -0.3957  0.1274
43655SOL     OW35326   6.176   9.336   6.915  0.1685 -0.8870  0.3010
43655SOL    HW135327   6.134   9.275   6.975 -1.6149 -0.0758 -0.0588
43655SOL    HW235328   6.110   9.355   6.849  1.4944 -0.4011 -0.9611
43656SOL     OW35329   7.878   2.222   5.921 -0.0926 -0.1721  0.4520
43656SOL    HW135330   7.846   2.162   5.988 -0.5049 -1.4154 -0.8268
43656SOL    HW235331   7.806   2.229   5.858  0.6268  0.2468 -0.3530
43657SOL     OW35332   6.374   6.026   8.483 -0.2361 -0.3703 -0.0962
43657SOL    HW135333   6.383   6.028   8.387  1.0062  1.5151  0.0097
43657SOL    HW235334   6.460   6.050   8.516 -1.4066  2.2226  1.4093
43658SOL     OW35335   3.995   5.996  10.025  0.5144 -0.1241 -0.0849
43658SOL    HW135336   4.073   6.002  10.080  0.7896 -2.3142 -0.1728
43658SOL    HW235337   3.946   6.076  10.045  2.9388  1.5295 -0.3318
43659SOL     OW35338   8.464   6.551   2.758 -0.2010  0.3532  0.4780
43659SOL    HW135339   8.557   6.564   2.775 -0.4291  3.0050  0.0081
43659SOL    HW235340   8.460   6.525   2.666  0.1244 -1.1396  0.8576
43660SOL     OW35341   2.785   2.780   5.469  0.0428 -0.3773 -0.2924
43660SOL    HW135342   2.767   2.795   5.562  1.2849 -0.0164 -0.0956
43660SOL    HW235343   2.790   2.685   5.461 -0.0948 -0.4111 -0.0005
43661SOL     OW35344   1.381   9.720   8.015 -0.0311 -0.1394  0.3032
43661SOL    HW135345   1.294   9.691   8.041  0.2476 -0.0392  1.3968
43661SOL    HW235346   1.371   9.747   7.924 -1.3821  0.8267  0.7078
43662SOL     OW35347   5.504   8.599  10.953 -0.3447 -0.1024  0.2528
43662SOL    HW135348   5.508   8.604  10.857 -1.6624 -1.1051  0.1103
43662SOL    HW235349   5.425   8.648  10.976 -2.3346 -3.1372  0.4233
43663SOL     OW35350   2.782   3.946   6.470 -0.1050 -0.4965 -0.2853
43663SOL    HW135351   2.823   4.032   6.462 -0.6304 -0.3058 -1.0442
43663SOL    HW235352   2.731   3.952   6.551  0.1446 -0.2199 -0.1433
43664SOL     OW35353   6.352   2.853  10.480 -0.1898 -0.0530  0.2139
43664SOL    HW135354   6.274   2.853  10.424  1.3950  2.0750 -2.2472
43664SOL    HW235355   6.419   2.809  10.428  0.8397  0.1275  1.3464
43665SOL     OW35356  10.006   0.234   6.088  0.2076  0.2724 -0.5891
43665SOL    HW135357   9.913   0.219   6.070  0.6425 -1.4911 -1.6244
43665SOL    HW235358  10.051   0.185   6.020  1.9182  0.7472  0.1571
43666SOL     OW35359   5.453   6.590   3.233  0.0288  1.0441 -0.5430
43666SOL    HW135360   5.529   6.565   3.286  0.2677  3.4642  0.3764
43666SOL    HW235361   5.383   6.604   3.297 -1.5361 -1.9133 -1.4259
43667SOL     OW35362   2.800   2.976   6.167  0.2307 -0.3815  0.2731
43667SOL    HW135363   2.831   3.066   6.175  0.0675 -0.3224  0.2451
43667SOL    HW235364   2.878   2.925   6.145  0.5327 -0.4131  1.3451
43668SOL     OW35365   5.685   4.171   0.593  0.1891  0.3565 -0.5209
43668SOL    HW135366   5.717   4.259   0.571  0.5096 -0.1294 -2.1630
43668SOL    HW235367   5.746   4.113   0.548 -0.4311 -0.7000 -0.0130
43669SOL     OW35368   5.719   5.987   9.492 -0.5837 -0.0946  0.0537
43669SOL    HW135369   5.671   6.054   9.444  1.2119  1.4121  0.2697
43669SOL    HW235370   5.801   6.029   9.517  1.7867 -3.1042 -1.9931
43670SOL     OW35371  10.468   3.444   4.355  0.3501  0.6276 -0.3430
43670SOL    HW135372  10.474   3.366   4.300 -1.4051  1.0702 -1.2230
43670SOL    HW235373  10.446   3.411   4.442 -0.3672  0.1195 -0.7082
43671SOL     OW35374   7.585   3.267   7.658  0.7242 -0.1412 -0.2485
43671SOL    HW135375   7.660   3.247   7.714 -1.1084 -0.9523  2.1035
43671SOL    HW235376   7.552   3.351   7.690  1.0263  0.5962 -1.7713
43672SOL     OW35377   8.438  10.458   4.463  0.1150 -0.7428  0.4124
43672SOL    HW135378   8.408  10.414   4.383  0.8371  0.7375 -0.7449
43672SOL    HW235379   8.445  10.550   4.437 -2.9640  0.4728  3.1508
43673SOL     OW35380   6.683   2.868   3.044  0.3989 -0.0498  0.1880
43673SOL    HW135381   6.662   2.780   3.012 -0.1852  0.6356 -1.4695
43673SOL    HW235382   6.729   2.909   2.970 -2.4704  2.1840 -0.5323
43674SOL     OW35383   0.237   3.128   6.080  0.5808  0.0792  0.5362
43674SOL    HW135384   0.330   3.131   6.102  1.1656  0.1667 -1.6972
43674SOL    HW235385   0.211   3.220   6.074  0.4653  0.0576  0.6937
43675SOL     OW35386   0.818   7.463   2.282  0.0113 -0.3502 -0.2228
43675SOL    HW135387   0.806   7.511   2.200  0.0369 -0.1053 -0.0842
43675SOL    HW235388   0.760   7.387   2.274 -0.0208 -0.3017 -0.4475
43676SOL     OW35389   8.835   1.485   8.597 -0.7023  0.0847  0.0895
43676SOL    HW135390   8.844   1.418   8.529 -2.4233 -1.0405  0.8907
43676SOL    HW235391   8.888   1.453   8.669 -0.3879  0.3176 -0.0374
43677SOL     OW35392   9.888  10.043   4.837  0.1658 -0.1278  0.2572
43677SOL    HW135393   9.862  10.118   4.783  1.6149  0.0164 -0.2779
43677SOL    HW235394   9.840  10.055   4.919 -1.1298  0.3147 -0.5462
43678SOL     OW35395   8.465   1.863  10.104 -0.3876  0.0614  0.1761
43678SOL    HW135396   8.395   1.798  10.095  0.3316 -0.5507 -1.3318
43678SOL    HW235397   8.544   1.816  10.079  0.2187  1.3926 -0.4808
43679SOL     OW35398   6.434   7.568   3.232 -0.0753  0.3976  0.1605
43679SOL    HW135399   6.518   7.554   3.275  0.1698 -1.6752 -0.8653
43679SOL    HW235400   6.449   7.547   3.140 -2.1539 -2.4658  0.3046
43680SOL     OW35401   6.627   2.841  10.094  0.0476  0.3847  0.3608
43680SOL    HW135402   6.718   2.820  10.076  0.7412  3.9516 -1.2225
43680SOL    HW235403   6.579   2.811  10.017  0.3217  0.7215  0.0540
43681SOL     OW35404   2.068   4.221   7.826  0.4977  0.2680  0.4747
43681SOL    HW135405   2.132   4.287   7.799 -1.2132  1.7179 -0.2432
43681SOL    HW235406   2.024   4.260   7.902  1.0624 -1.1221  1.5729
43682SOL     OW35407   6.628   5.891   7.529  0.6114  0.0403 -0.1134
43682SOL    HW135408   6.551   5.899   7.472 -0.0397  0.0973  0.7541
43682SOL    HW235409   6.617   5.807   7.573  0.4788  0.5262  0.8118
43683SOL     OW35410   4.482   4.999  10.036 -0.2014  0.1115  0.5084
43683SOL    HW135411   4.520   4.912  10.027  0.5140  0.0024  3.5958
43683SOL    HW235412   4.423   5.007   9.961  0.7035 -2.4798 -0.5887
43684SOL     OW35413   8.531   6.085  11.043 -0.0553 -0.1360 -0.2439
43684SOL    HW135414   8.612   6.062  11.089  0.5424 -0.4027 -1.4124
43684SOL    HW235415   8.481   6.003  11.040 -0.1258 -0.1026 -0.0244
43685SOL     OW35416   4.121   1.713   2.938 -0.3932  0.0106 -0.4092
43685SOL    HW135417   4.047   1.659   2.965 -1.7226  1.0969 -1.7113
43685SOL    HW235418   4.169   1.658   2.876  1.2888 -1.5609  2.0926
43686SOL     OW35419   0.657   0.783   1.816 -0.6563 -0.3898 -0.6453
43686SOL    HW135420   0.662   0.784   1.720 -0.8388  1.2054 -0.6760
43686SOL    HW235421   0.741   0.747   1.844 -0.1241  0.1988 -1.4150
43687SOL     OW35422   6.383   4.225  10.673 -0.0981 -0.5255 -0.2874
43687SOL    HW135423   6.373   4.147  10.619 -0.0087  0.8908 -2.4448
43687SOL    HW235424   6.460   4.270  10.638 -0.3580  0.7226  0.6499
43688SOL     OW35425  11.047   9.275   2.114 -0.0691  0.0413 -0.0456
43688SOL    HW135426  10.966   9.325   2.117 -0.4501 -0.6345  1.7398
43688SOL    HW235427  11.024   9.188   2.147  0.9498 -0.8378 -1.4983
43689SOL     OW35428   2.055  10.679   7.862 -0.1127 -0.4272 -0.5515
43689SOL    HW135429   2.005  10.598   7.849  2.4417 -1.6103 -5.1960
43689SOL    HW235430   2.028  10.736   7.790  1.6583  0.8390 -0.2661
43690SOL     OW35431   4.589   2.780   7.499  0.4103 -0.2003  0.4609
43690SOL    HW135432   4.620   2.853   7.447 -1.6962  0.1461 -0.4266
43690SOL    HW235433   4.553   2.820   7.578 -1.3641 -0.1303 -0.3255
43691SOL     OW35434   0.343   6.389   7.351  0.1197 -0.2484  0.0489
43691SOL    HW135435   0.288   6.458   7.314 -0.3764 -0.7657 -0.1873
43691SOL    HW235436   0.308   6.377   7.440  1.8907  1.6403  1.1027
43692SOL     OW35437   9.332   3.041   3.179 -0.8348  0.1455 -0.3462
43692SOL    HW135438   9.357   3.023   3.088 -2.5698 -0.5071 -0.7329
43692SOL    HW235439   9.343   3.136   3.188  0.7398  0.0318 -0.7641
43693SOL     OW35440   4.380   2.619   7.371  0.3359  0.0367 -0.8946
43693SOL    HW135441   4.425   2.627   7.455  0.5151  0.5421 -1.0284
43693SOL    HW235442   4.405   2.533   7.338 -0.0193 -0.3075 -0.2724
43694SOL     OW35443   7.219   3.835   8.019  0.6957 -0.0581 -0.1375
43694SOL    HW135444   7.306   3.874   8.021 -0.0778  1.8248 -0.3824
43694SOL    HW235445   7.228   3.755   7.967  2.6871 -1.1150  1.6911
43695SOL     OW35446   8.231   9.791   2.167 -0.0729 -0.4390 -0.5434
43695SOL    HW135447   8.321   9.812   2.191  0.3626 -0.8839 -1.7253
43695SOL    HW235448   8.197   9.744   2.243  0.5300  0.1315  0.1041
43696SOL     OW35449   6.201   7.761   7.992 -0.3966 -1.0001 -0.4130
43696SOL    HW135450   6.284   7.786   7.950  0.7945 -1.4581  1.5504
43696SOL    HW235451   6.160   7.844   8.015  0.3023 -0.7682  0.0276
43697SOL     OW35452   6.491   7.736   1.797 -0.3182  0.3567 -0.2286
43697SOL    HW135453   6.473   7.741   1.891 -0.3708 -0.3389 -0.1971
43697SOL    HW235454   6.522   7.646   1.783 -0.8591  0.2761 -0.9721
43698SOL     OW35455   6.458   9.607   9.604  0.1278 -0.6050  0.4346
43698SOL    HW135456   6.449   9.511   9.604  0.2280 -0.6498  2.2978
43698SOL    HW235457   6.551   9.623   9.593  0.2520 -0.7672  1.2085
43699SOL     OW35458   4.794   5.753  10.313  0.1149  0.2388 -0.0972
43699SOL    HW135459   4.757   5.839  10.332 -0.6723 -0.1394  0.1272
43699SOL    HW235460   4.881   5.755  10.352 -0.0601  0.7886  0.2769
43700SOL     OW35461   1.117   1.704   8.793 -0.3741 -0.0610  0.2097
43700SOL    HW135462   1.054   1.768   8.825 -0.3587 -0.4760  1.1216
43700SOL    HW235463   1.181   1.696   8.865 -0.5375 -1.2909  0.2398
43701SOL     OW35464   6.465  10.038   4.113 -0.2338  0.0832 -0.3146
43701SOL    HW135465   6.452  10.131   4.094  2.7292  0.3599 -1.6295
43701SOL    HW235466   6.536  10.036   4.177  0.1205 -1.2753 -0.7088
43702SOL     OW35467   2.699  10.418   1.301  0.0431 -0.4148  0.0269
43702SOL    HW135468   2.756  10.341   1.308  1.6748  0.6571 -0.9383
43702SOL    HW235469   2.675  10.438   1.391  3.4621  0.7027  0.8219
43703SOL     OW35470  10.470   6.883   8.898  0.4384  0.3631 -0.2305
43703SOL    HW135471  10.424   6.937   8.962  1.0197  1.0493 -0.3761
43703SOL    HW235472  10.434   6.909   8.814 -0.6411 -0.8549 -0.1627
43704SOL     OW35473   6.208   1.470   9.343 -0.1554  0.1342 -1.0698
43704SOL    HW135474   6.193   1.411   9.417 -1.6196  1.3550 -0.3314
43704SOL    HW235475   6.235   1.413   9.272 -1.4513 -1.4322 -0.3649
43705SOL     OW35476   4.288   2.951   8.232  0.6690  0.2333 -0.1213
43705SOL    HW135477   4.351   2.880   8.221  0.0845 -0.4968  1.0254
43705SOL    HW235478   4.211   2.909   8.270  0.8136  1.6919  1.9629
43706SOL     OW35479   9.365   8.845   1.039  0.2949  0.1804 -0.2627
43706SOL    HW135480   9.387   8.795   1.117 -1.3884 -0.0466  0.1086
43706SOL    HW235481   9.302   8.790   0.992  0.6557  0.6758 -1.3632
43707SOL     OW35482   6.382   4.367   3.184 -0.6290  0.4062 -0.2690
43707SOL    HW135483   6.350   4.436   3.125  1.1445  1.7058  0.1709
43707SOL    HW235484   6.475   4.359   3.162 -0.7500 -1.7906 -0.1919
43708SOL     OW35485   7.248   3.344   4.820  0.2393  0.0708  0.3233
43708SOL    HW135486   7.339   3.359   4.848  0.4789  0.3624 -0.5971
43708SOL    HW235487   7.247   3.254   4.789  0.0904 -0.0894  0.7772
43709SOL     OW35488   0.688   0.814   9.254  0.1468  0.2655  0.3919
43709SOL    HW135489   0.701   0.729   9.211 -1.4185  0.7850 -1.2203
43709SOL    HW235490   0.613   0.801   9.311 -0.9128  0.8729 -0.8304
43710SOL     OW35491   0.915  10.356   5.308  0.3923  0.3054 -0.2026
43710SOL    HW135492   0.847  10.319   5.364  1.1070 -0.3474  0.2475
43710SOL    HW235493   0.872  10.431   5.266 -0.5951 -0.0734  0.0816
43711SOL     OW35494   9.166   3.421   2.287  0.0106 -0.3030 -0.2647
43711SOL    HW135495   9.210   3.500   2.318 -0.9141  0.3793 -0.6417
43711SOL    HW235496   9.117   3.389   2.363 -0.4707  0.0989 -0.4042
43712SOL     OW35497   0.183   5.084   9.273  0.0363 -0.4254  0.1660
43712SOL    HW135498   0.134   5.060   9.195 -1.2774  2.0130  0.1518
43712SOL    HW235499   0.198   5.001   9.318 -1.8271 -1.5671 -1.1672
43713SOL     OW35500   1.915   6.578   1.169  0.7641 -0.1243 -0.1199
43713SOL    HW135501   1.867   6.600   1.248 -0.2495 -0.3665 -0.6519
43713SOL    HW235502   1.983   6.517   1.198  0.2619 -0.3851  0.5253
43714SOL     OW35503  10.969   8.622  10.724 -0.4109  0.0422 -0.0349
43714SOL    HW135504  11.000   8.542  10.682  0.2670 -0.5691  1.5597
43714SOL    HW235505  11.003   8.692  10.669  0.8525 -0.7110 -0.2460
43715SOL     OW35506   8.993  10.537   6.950  0.2274  0.0768  0.2471
43715SOL    HW135507   9.056  10.466   6.965 -2.2096 -2.9787 -2.4095
43715SOL    HW235508   9.035  10.594   6.886  0.6985 -1.4621 -0.8823
43716SOL     OW35509   1.359   4.756   1.306 -0.2245 -0.0882 -0.7209
43716SOL    HW135510   1.339   4.663   1.318  3.1560 -0.7683  0.5917
43716SOL    HW235511   1.406   4.759   1.222 -0.9520  0.6116 -1.1209
43717SOL     OW35512   2.711   6.611   9.001 -0.7214 -0.3181  0.0712
43717SOL    HW135513   2.806   6.606   8.984 -1.0268 -1.0525 -1.6005
43717SOL    HW235514   2.682   6.520   9.003 -1.3953 -0.0933  0.5890
43718SOL     OW35515   7.204   3.306   4.060  0.4551  0.5818  0.1818
43718SOL    HW135516   7.241   3.220   4.042  0.2920  0.8412 -1.5485
43718SOL    HW235517   7.275   3.367   4.040  0.8795  0.8491  2.2874
43719SOL     OW35518   9.443   9.991   1.612 -0.4274  0.2320  0.6631
43719SOL    HW135519   9.349   9.987   1.597 -0.4620 -0.6840  1.0786
43719SOL    HW235520   9.459   9.929   1.684  0.7007 -0.9731 -0.5560
43720SOL     OW35521   9.946   2.560   0.137  0.3242  0.4359 -0.2007
43720SOL    HW135522   9.996   2.623   0.189 -0.2018 -0.1205  1.0218
43720SOL    HW235523   9.870   2.609   0.107 -0.0940  0.3949  0.7649
43721SOL     OW35524  10.455   4.179   9.337  0.3499 -0.5268 -0.3281
43721SOL    HW135525  10.454   4.153   9.245  1.6665 -0.1338 -0.4696
43721SOL    HW235526  10.479   4.099   9.384  0.8882 -0.4341 -0.4417
43722SOL     OW35527  10.518   1.530   9.147  0.2828 -0.5388 -0.0812
43722SOL    HW135528  10.479   1.475   9.079 -0.0493 -1.2987  0.7121
43722SOL    HW235529  10.476   1.615   9.135 -0.0683 -0.7737 -0.5719
43723SOL     OW35530   0.294   7.540   5.529  0.4101  0.1429  0.1617
43723SOL    HW135531   0.235   7.540   5.604  1.6398 -0.1468  1.1689
43723SOL    HW235532   0.265   7.466   5.476 -0.7476  0.6150  0.0937
43724SOL     OW35533   9.966   4.582   9.685  0.4195 -0.1400  0.2966
43724SOL    HW135534   9.915   4.661   9.704  2.9466  1.7537 -0.1931
43724SOL    HW235535  10.045   4.591   9.739  2.4378 -0.4035 -2.3974
43725SOL     OW35536   3.813   0.258   3.548 -0.1316  0.0779  0.3742
43725SOL    HW135537   3.795   0.292   3.636  1.1809  0.8881  0.3473
43725SOL    HW235538   3.889   0.200   3.560  0.2928  0.4861 -0.2721
43726SOL     OW35539   1.283   8.026   1.624 -0.4332  0.5431 -0.0341
43726SOL    HW135540   1.211   7.999   1.566 -0.5824  2.1218 -0.6133
43726SOL    HW235541   1.361   8.019   1.571 -0.0840 -1.2321  0.6155
43727SOL     OW35542   6.016   4.746   2.232 -0.0607  0.1076  0.4568
43727SOL    HW135543   5.951   4.807   2.266 -0.4481  0.3242 -0.6344
43727SOL    HW235544   5.972   4.704   2.158  0.5911 -0.6898  0.5113
43728SOL     OW35545   0.696   5.322   4.352  0.0609 -0.1031 -0.4474
43728SOL    HW135546   0.620   5.290   4.400 -0.3786 -0.0969 -1.1199
43728SOL    HW235547   0.681   5.416   4.344 -0.5915 -0.2986 -1.8104
43729SOL     OW35548   9.992   2.854   0.296 -0.1354 -0.1709  0.8024
43729SOL    HW135549   9.955   2.909   0.366 -1.2915  1.7108 -1.1753
43729SOL    HW235550   9.941   2.876   0.219  1.9985 -1.1383 -0.9839
43730SOL     OW35551   9.228   9.268   9.815 -0.4258  0.2935 -0.4790
43730SOL    HW135552   9.199   9.250   9.725 -1.7319  3.1019 -0.7177
43730SOL    HW235553   9.189   9.198   9.867  1.5852 -2.2945 -2.1773
43731SOL     OW35554   2.599   3.743   4.159  0.0637 -0.5099  0.5391
43731SOL    HW135555   2.693   3.733   4.174  0.3388  1.5450  0.4299
43731SOL    HW235556   2.565   3.769   4.244 -0.2546 -0.2880  0.3417
43732SOL     OW35557   1.724   4.874   1.285 -0.2102 -0.3630 -0.3776
43732SOL    HW135558   1.703   4.866   1.378 -0.0274  0.0357 -0.2986
43732SOL    HW235559   1.811   4.916   1.284 -0.4086  0.0528 -0.7322
43733SOL     OW35560   7.469   3.649   1.480  0.0047  0.1299 -0.1251
43733SOL    HW135561   7.551   3.600   1.482  0.8076  1.4350  0.0008
43733SOL    HW235562   7.427   3.627   1.564  0.7329  0.2764  0.2889
43734SOL     OW35563   5.731   5.837   7.939  0.3136  0.0272 -0.1824
43734SOL    HW135564   5.754   5.886   8.018  0.4309  0.8699 -0.7415
43734SOL    HW235565   5.798   5.768   7.934  1.4780  1.1413 -0.5977
43735SOL     OW35566   0.672  10.568  10.666  0.8398  0.5466 -0.2418
43735SOL    HW135567   0.660  10.620  10.745  0.6259 -0.0520  0.1274
43735SOL    HW235568   0.765  10.545  10.667  0.3954 -1.4621  1.1380
43736SOL     OW35569   9.524   9.815  10.207  0.1409 -0.4865 -0.1439
43736SOL    HW135570   9.514   9.857  10.122 -1.6358  0.2384  0.3851
43736SOL    HW235571   9.458   9.746  10.208  0.2202 -0.5658  0.6116
43737SOL     OW35572   9.972   1.133   6.326  0.2502 -0.5852 -0.2236
43737SOL    HW135573  10.035   1.138   6.398  0.6952 -3.1909 -0.3619
43737SOL    HW235574   9.928   1.049   6.337 -1.4240  0.0255 -1.6317
43738SOL     OW35575   3.213   4.250   4.901 -0.4346  0.3931  0.6203
43738SOL    HW135576   3.135   4.298   4.929 -1.1571 -0.5612  0.3106
43738SOL    HW235577   3.254   4.220   4.982 -0.5773  0.6126  0.7732
43739SOL     OW35578   4.847   7.715   3.973  0.2636  0.4471 -0.2213
43739SOL    HW135579   4.803   7.644   3.925 -0.8912  0.5631  0.6152
43739SOL    HW235580   4.852   7.787   3.909 -2.9213  1.2508  0.2227
43740SOL     OW35581   1.079   1.654  10.489 -0.3972  0.1103  0.2255
43740SOL    HW135582   1.086   1.651  10.394  0.8089 -0.2967  0.3137
43740SOL    HW235583   1.110   1.741  10.513  1.5703 -0.6033  0.3954
43741SOL     OW35584  10.104   3.029  10.480 -0.1148  0.2146 -0.3788
43741SOL    HW135585  10.052   2.968  10.429 -1.4193 -0.9862  2.2013
43741SOL    HW235586  10.040   3.076  10.534  1.0435  2.5020 -0.8497
43742SOL     OW35587   3.676   0.006   3.502  0.0247 -0.1282 -0.1972
43742SOL    HW135588   3.705  -0.048   3.575 -0.3537 -0.5857 -0.3785
43742SOL    HW235589   3.640   0.085   3.543  0.1496 -0.2187  0.0888
43743SOL     OW35590   9.281   2.131   2.510  0.5738  0.5296  0.3841
43743SOL    HW135591   9.353   2.088   2.464  0.2005 -0.6014  0.8223
43743SOL    HW235592   9.267   2.213   2.461  1.3891  0.2254 -0.3919
43744SOL     OW35593   5.009   2.477   2.801 -0.1937  0.0986 -0.0157
43744SOL    HW135594   5.072   2.413   2.835 -1.0047 -0.2355  0.8723
43744SOL    HW235595   4.966   2.432   2.728 -0.2749 -0.1197  0.1670
43745SOL     OW35596   2.877   9.130   8.657 -0.4647  0.0734 -0.5926
43745SOL    HW135597   2.865   9.086   8.741  1.6684  1.2685  0.3881
43745SOL    HW235598   2.834   9.215   8.668  0.8349  0.7112 -0.2461
43746SOL     OW35599  10.998   1.618  10.425 -0.0609  0.2497  0.5083
43746SOL    HW135600  10.955   1.682  10.369  1.2112  1.0382  0.4034
43746SOL    HW235601  10.969   1.533  10.391  0.1897  0.7279 -0.9377
43747SOL     OW35602   5.436   5.134   5.233 -0.5588 -0.8278 -0.6753
43747SOL    HW135603   5.441   5.085   5.152  0.4436 -0.2043 -1.0104
43747SOL    HW235604   5.496   5.208   5.221 -1.7049  0.2595 -0.0403
43748SOL     OW35605   9.253  10.805   7.662  0.3666 -0.0395 -0.5437
43748SOL    HW135606   9.345  10.805   7.637  1.4622  2.0631  2.8287
43748SOL    HW235607   9.215  10.879   7.615  0.9763  0.4824 -0.2279
43749SOL     OW35608   7.951   0.709   1.896 -0.0683 -0.0780 -0.2313
43749SOL    HW135609   7.897   0.644   1.942 -0.8410  0.6652 -0.0549
43749SOL    HW235610   7.948   0.786   1.952  0.1936  0.3683 -0.8207
43750SOL     OW35611   8.391   4.529  10.808 -0.2727  0.2049  0.1648
43750SOL    HW135612   8.363   4.452  10.758 -0.9336  1.0092 -0.7524
43750SOL    HW235613   8.437   4.584  10.744  0.6808  0.3278  0.9376
43751SOL     OW35614   0.658   0.218   9.686 -1.0718 -0.1054  0.3208
43751SOL    HW135615   0.732   0.184   9.636 -1.2149 -0.0441  0.0651
43751SOL    HW235616   0.686   0.212   9.777  0.0051  1.6922  0.1510
43752SOL     OW35617  10.636   5.460   8.568 -0.1679 -0.6265  0.5979
43752SOL    HW135618  10.659   5.391   8.630  3.9476 -0.6006 -0.5368
43752SOL    HW235619  10.571   5.420   8.511  0.0895 -2.6311  1.6026
43753SOL     OW35620   2.164   1.694  11.097 -0.9088 -0.3249 -0.3397
43753SOL    HW135621   2.187   1.658  11.183 -2.1826 -0.3771  0.0001
43753SOL    HW235622   2.117   1.623  11.054 -1.5901  0.2088 -0.4884
43754SOL     OW35623   1.232   8.987   7.996  0.5753  0.0728 -1.0112
43754SOL    HW135624   1.318   8.978   8.037  0.0247 -1.1971 -0.0516
43754SOL    HW235625   1.204   8.896   7.980 -0.2870  0.4901 -1.9467
43755SOL     OW35626   7.157  10.009   1.968  0.0951 -0.2712 -0.4805
43755SOL    HW135627   7.241  10.017   2.012  0.0059 -4.8663  1.0020
43755SOL    HW235628   7.107  10.084   1.999  2.3486  0.4388  1.7515
43756SOL     OW35629   5.214   0.746   1.763 -0.3901 -0.3797  0.0893
43756SOL    HW135630   5.199   0.716   1.673 -0.7359 -1.9906  0.6457
43756SOL    HW235631   5.305   0.722   1.782 -0.3766 -0.2211  0.2265
43757SOL     OW35632   1.218   4.576   0.436 -0.2556  0.0909  0.6531
43757SOL    HW135633   1.261   4.619   0.362 -0.1518 -0.1834  0.5534
43757SOL    HW235634   1.287   4.523   0.476 -0.3508  0.1207  0.8578
43758SOL     OW35635   5.322   3.766   7.885 -0.6855  0.2440  0.3788
43758SOL    HW135636   5.375   3.755   7.964 -0.9123 -1.0264  0.3734
43758SOL    HW235637   5.249   3.822   7.913 -1.7636 -1.6388  1.6033
43759SOL     OW35638   0.417   2.317   9.546  0.5802  0.6065 -0.2523
43759SOL    HW135639   0.371   2.300   9.629  1.1549 -2.4430 -0.4504
43759SOL    HW235640   0.508   2.329   9.572  1.1948 -2.5938 -0.4340
43760SOL     OW35641   5.159  10.262   0.738  0.1160 -0.3248  0.3515
43760SOL    HW135642   5.204  10.300   0.814  0.4697  3.5263 -1.5635
43760SOL    HW235643   5.229  10.240   0.677 -0.2960 -1.1654  0.1612
43761SOL     OW35644   0.482   8.486   6.108  0.3884 -0.6231  0.4337
43761SOL    HW135645   0.556   8.426   6.101  0.5810 -0.5842  1.8452
43761SOL    HW235646   0.407   8.435   6.076  0.8620 -0.9447 -0.1968
43762SOL     OW35647   9.248   1.842   0.354 -0.4250 -0.4510 -0.0133
43762SOL    HW135648   9.217   1.925   0.320 -1.5287 -0.7925  0.1361
43762SOL    HW235649   9.329   1.864   0.400 -0.2933  0.4097 -0.6279
43763SOL     OW35650   9.726   3.497   0.778 -0.3806  0.1172 -0.4240
43763SOL    HW135651   9.706   3.419   0.726  0.2363 -0.9939  0.9372
43763SOL    HW235652   9.771   3.556   0.717 -1.0372 -0.5005 -1.5290
43764SOL     OW35653   8.628   8.687   4.975 -0.5810 -0.1913 -0.0183
43764SOL    HW135654   8.572   8.698   4.898  0.1609  0.3585 -0.4975
43764SOL    HW235655   8.574   8.640   5.038 -1.0899 -0.9601 -1.0065
43765SOL     OW35656   1.469   8.916   5.834  0.1219  0.1790  0.3047
43765SOL    HW135657   1.515   8.899   5.916 -0.0833 -0.7207  0.2448
43765SOL    HW235658   1.392   8.859   5.838 -1.5109  2.2814  0.8061
43766SOL     OW35659   0.281   5.561   8.118 -0.1069 -0.3280 -0.7548
43766SOL    HW135660   0.210   5.626   8.123 -0.0277 -0.3171  1.8417
43766SOL    HW235661   0.342   5.596   8.054 -0.3420  1.9457  0.1609
43767SOL     OW35662   7.050   3.735   0.582 -0.5612  0.1373 -0.3872
43767SOL    HW135663   7.102   3.805   0.620  0.2726 -0.4449 -0.4298
43767SOL    HW235664   6.963   3.773   0.569  0.4371  1.9091 -2.5697
43768SOL     OW35665   7.065  11.002   0.223 -0.4870  0.3350  0.6422
43768SOL    HW135666   7.115  10.949   0.161 -0.2849  0.2054  0.9132
43768SOL    HW235667   7.114  11.084   0.230 -0.2165  0.1393  1.0426
43769SOL     OW35668   7.856   5.741   4.130 -0.0482 -0.1780  0.3806
43769SOL    HW135669   7.940   5.787   4.131  0.4519 -1.0772  0.5787
43769SOL    HW235670   7.810   5.774   4.207  0.7504 -0.7989  1.1448
43770SOL     OW35671   3.617   3.204   4.891 -0.4786  0.1990 -0.6451
43770SOL    HW135672   3.680   3.178   4.958 -1.3927 -0.1650  0.0916
43770SOL    HW235673   3.532   3.180   4.927 -0.9186 -1.2938 -2.5218
43771SOL     OW35674  10.279   8.274   4.365 -0.5426  0.3279  0.3293
43771SOL    HW135675  10.366   8.254   4.399  1.0802  3.8125 -1.2566
43771SOL    HW235676  10.270   8.218   4.288  1.1499  1.1526 -0.5240
43772SOL     OW35677   7.122   1.479   1.435  0.0755 -0.3231  0.0453
43772SOL    HW135678   7.065   1.419   1.388 -0.1650  0.1881 -0.3343
43772SOL    HW235679   7.068   1.556   1.451 -0.1076 -0.8136  1.9258
43773SOL     OW35680   0.817   9.052   5.803 -0.3414 -0.0351  0.4195
43773SOL    HW135681   0.887   8.994   5.773 -0.8013 -0.4178  0.0682
43773SOL    HW235682   0.764   8.997   5.860 -1.0352 -0.1015 -0.2706
43774SOL     OW35683   0.449   4.467   8.651  0.5813 -0.6478  0.5274
43774SOL    HW135684   0.504   4.492   8.726 -0.1622  1.3685  0.4599
43774SOL    HW235685   0.489   4.511   8.576 -1.3521  1.3268  0.5596
43775SOL     OW35686   6.801   2.405   5.782  0.1932 -0.7316 -0.0301
43775SOL    HW135687   6.735   2.371   5.722 -0.7638  1.2813 -0.2011
43775SOL    HW235688   6.778   2.497   5.793  2.3612 -0.2289  0.7621
43776SOL     OW35689   8.422   1.702   6.234 -0.0186 -0.0725 -0.2462
43776SOL    HW135690   8.387   1.662   6.314 -1.9763 -1.1559 -1.5584
43776SOL    HW235691   8.460   1.784   6.264  0.4143 -0.9893  1.9618
43777SOL     OW35692   4.118   1.216   1.128 -0.2970  0.2151 -0.3241
43777SOL    HW135693   4.084   1.151   1.066  0.9902 -1.3276  0.4932
43777SOL    HW235694   4.208   1.232   1.098  0.3267 -0.5046  1.0376
43778SOL     OW35695   5.734   8.199   0.680  0.2864 -0.0060  0.2348
43778SOL    HW135696   5.673   8.249   0.734  0.8891 -0.1842  1.0973
43778SOL    HW235697   5.773   8.135   0.739  1.2150  0.0137 -0.3254
43779SOL     OW35698   8.973   8.414   4.566  0.4849 -0.3561 -0.2593
43779SOL    HW135699   9.008   8.439   4.652 -1.0545 -1.8432  0.8763
43779SOL    HW235700   8.905   8.478   4.547  0.1910 -0.5536  0.1019
43780SOL     OW35701   4.882   6.381   3.396 -0.1888 -0.4428 -0.4783
43780SOL    HW135702   4.823   6.384   3.321  1.0460  0.3738 -1.4625
43780SOL    HW235703   4.948   6.316   3.372 -0.3101 -0.8664  0.3156
43781SOL     OW35704   5.025   0.188   4.431  0.6359  0.0591  0.3266
43781SOL    HW135705   5.074   0.212   4.509  0.6188  0.4948  0.2100
43781SOL    HW235706   5.084   0.131   4.382  1.8949  2.1839 -0.8099
43782SOL     OW35707   3.662   1.571  10.099 -0.5560 -0.5445 -0.5116
43782SOL    HW135708   3.626   1.649  10.057  0.5159 -0.1139 -0.6375
43782SOL    HW235709   3.757   1.581  10.093 -0.3298 -0.3819  2.1471
43783SOL     OW35710   2.929   3.665   9.505  0.8850  0.2529 -0.2485
43783SOL    HW135711   2.974   3.619   9.435 -0.8513 -0.1731 -1.1379
43783SOL    HW235712   2.899   3.747   9.465  0.4808  0.3249  0.1894
43784SOL     OW35713   1.920   6.727   4.732  0.2197 -0.1208  0.1547
43784SOL    HW135714   2.002   6.692   4.768 -0.6283  0.1564  2.4801
43784SOL    HW235715   1.858   6.655   4.739 -0.5629  0.6609  1.4611
43785SOL     OW35716   3.685   7.268   0.512  0.2790  0.1632 -0.1837
43785SOL    HW135717   3.744   7.327   0.465 -0.1928  0.1264 -0.8417
43785SOL    HW235718   3.626   7.326   0.560  0.0253  0.2285 -0.5675
43786SOL     OW35719   3.955   3.289   3.543  0.3272  0.1839 -0.3163
43786SOL    HW135720   3.926   3.262   3.455  0.6562  1.0948 -0.7170
43786SOL    HW235721   3.921   3.220   3.601 -0.3619 -0.1535 -1.0853
43787SOL     OW35722   1.375   0.134   2.977  0.1713  0.2078  0.1647
43787SOL    HW135723   1.298   0.104   2.928  1.2879  0.9997 -2.2635
43787SOL    HW235724   1.352   0.221   3.008  1.3696  2.5114 -4.4507
43788SOL     OW35725   4.035   8.608   6.064 -0.1976  0.1187  0.1267
43788SOL    HW135726   3.987   8.645   5.990 -0.4454  1.1480  0.7832
43788SOL    HW235727   3.967   8.581   6.126 -0.0239 -1.4794 -0.3307
43789SOL     OW35728   3.038   6.400   5.786 -0.0036  0.4014 -0.1070
43789SOL    HW135729   2.949   6.377   5.814  0.3901  0.0321  0.8973
43789SOL    HW235730   3.071   6.458   5.855  0.6757  0.1989 -0.2529
43790SOL     OW35731   9.221   2.817  10.431 -0.4318 -0.0582  0.7908
43790SOL    HW135732   9.254   2.846  10.346  1.4339 -0.9814  1.1609
43790SOL    HW235733   9.132   2.786  10.412  0.4037 -1.5060 -1.1107
43791SOL     OW35734   8.937   4.399   3.172 -0.3621  0.2614  0.4880
43791SOL    HW135735   8.899   4.456   3.238 -1.2259 -0.5120  0.6728
43791SOL    HW235736   8.985   4.334   3.221 -1.1237 -0.3993  0.3793
43792SOL     OW35737   1.037   2.755   7.179 -0.0072 -1.0127 -0.5622
43792SOL    HW135738   1.090   2.684   7.213  1.9213 -0.5596 -2.3981
43792SOL    HW235739   1.036   2.741   7.084  1.9956  2.2737 -1.2322
43793SOL     OW35740   9.893   6.683   5.437 -0.3799 -0.0789 -0.0992
43793SOL    HW135741   9.927   6.695   5.349  0.8288 -0.9207  0.2284
43793SOL    HW235742   9.807   6.642   5.424 -0.6110  0.6397 -0.9000
43794SOL     OW35743   0.685   8.086   7.515  0.3368  0.5119 -0.0130
43794SOL    HW135744   0.660   8.172   7.481 -3.2210 -0.2057  0.3756
43794SOL    HW235745   0.644   8.024   7.455 -0.2617 -0.8396  1.7080
43795SOL     OW35746   8.427   2.767  10.578  0.4289  0.7968  0.0429
43795SOL    HW135747   8.402   2.708  10.649  1.8602  1.3815  1.0955
43795SOL    HW235748   8.438   2.710  10.502 -3.3013  0.4348 -0.4095
43796SOL     OW35749  10.031   9.166   1.498  0.3478 -0.4126  0.0252
43796SOL    HW135750  10.102   9.122   1.452  0.8650 -0.2955  0.7021
43796SOL    HW235751  10.069   9.247   1.530 -0.8399  1.0594 -2.0515
43797SOL     OW35752   8.755   0.889   7.393 -0.4601 -0.0485 -0.6314
43797SOL    HW135753   8.766   0.879   7.299 -0.4353 -0.9908 -0.5382
43797SOL    HW235754   8.682   0.831   7.416 -0.6406  0.3740 -0.1103
43798SOL     OW35755   2.272  10.575   9.390  0.0913  0.4774  0.1123
43798SOL    HW135756   2.274  10.513   9.317  1.8687  0.3638  0.2179
43798SOL    HW235757   2.278  10.661   9.348 -2.1368  0.6258 -0.0190
43799SOL     OW35758   0.745   8.544   3.640  0.5074 -0.2814 -0.5993
43799SOL    HW135759   0.701   8.510   3.562  3.8820 -2.4005 -1.8066
43799SOL    HW235760   0.785   8.626   3.611 -0.3241  0.2572 -0.2770
43800SOL     OW35761   9.450   9.704   9.409  0.3866  0.5221 -0.0871
43800SOL    HW135762   9.449   9.634   9.474 -1.3548  1.6159  1.1558
43800SOL    HW235763   9.473   9.783   9.459 -1.7185  1.5151 -0.5838
43801SOL     OW35764   3.644  10.561   4.211  0.1513 -0.5849 -0.0429
43801SOL    HW135765   3.601  10.510   4.143 -1.6651 -0.2297  0.7711
43801SOL    HW235766   3.722  10.597   4.169 -1.0670 -0.1292 -2.0253
43802SOL     OW35767   0.015   2.837   3.933  0.3609  0.0287  0.0882
43802SOL    HW135768   0.030   2.918   3.982  1.2866  0.0716 -0.2313
43802SOL    HW235769   0.065   2.850   3.852 -1.3099  0.0558 -0.9713
43803SOL     OW35770   0.973   1.100   1.419 -0.1164 -0.2711 -0.4357
43803SOL    HW135771   0.944   1.060   1.338  1.4411 -0.2655 -1.0352
43803SOL    HW235772   0.999   1.189   1.395  1.7910 -0.7351 -0.2939
43804SOL     OW35773   0.757   7.803   2.226 -0.5384  0.0184 -0.0975
43804SOL    HW135774   0.677   7.759   2.256  0.3823 -0.7767  1.2980
43804SOL    HW235775   0.797   7.836   2.307  1.6255 -1.4821 -0.4842
43805SOL     OW35776   1.845   8.056   6.511  0.2424  0.3976 -0.1902
43805SOL    HW135777   1.816   8.145   6.488  1.2023  0.5163 -0.9981
43805SOL    HW235778   1.940   8.061   6.509  0.3589 -1.1733 -2.4182
43806SOL     OW35779   2.449   6.060   2.041 -0.8082  0.0106 -0.3833
43806SOL    HW135780   2.435   6.125   1.972  0.6354 -0.9700 -1.6739
43806SOL    HW235781   2.497   6.107   2.109  0.4429  0.2883 -1.4085
43807SOL     OW35782   2.721   3.623   3.004 -0.2456  0.6167  0.0778
43807SOL    HW135783   2.683   3.706   2.975 -2.8562 -0.7631 -0.7196
43807SOL    HW235784   2.752   3.582   2.924 -0.3098  0.1932  0.2713
43808SOL     OW35785   8.343   0.880   2.007 -0.1790  0.0806  0.0356
43808SOL    HW135786   8.392   0.934   2.069  0.6007 -0.4017 -0.1447
43808SOL    HW235787   8.285   0.828   2.062  1.4926 -1.3680  0.5235
43809SOL     OW35788   5.887   5.767   4.325  0.1772 -0.3428  0.1118
43809SOL    HW135789   5.983   5.764   4.327  0.2031 -0.1465  3.4232
43809SOL    HW235790   5.860   5.677   4.343 -0.0410  0.4301  4.9120
43810SOL     OW35791   8.048   6.679   3.273 -0.3133 -0.1108  0.0812
43810SOL    HW135792   8.129   6.715   3.237 -0.4441 -1.2832 -1.5052
43810SOL    HW235793   7.979   6.733   3.236 -0.3851 -0.7119 -0.7034
43811SOL     OW35794   9.003   4.730   4.648 -0.2119  0.2088  0.5189
43811SOL    HW135795   9.077   4.706   4.593  0.6721  0.0324  1.7449
43811SOL    HW235796   9.035   4.721   4.737 -1.4746  0.8950  1.0754
43812SOL     OW35797   4.017  10.105   6.405  0.3860 -0.2740 -0.6510
43812SOL    HW135798   3.959  10.065   6.470  2.1261 -0.4363  0.8883
43812SOL    HW235799   3.960  10.125   6.331 -1.7668  0.2398  1.0452
43813SOL     OW35800  10.418   8.312  10.134  0.1829  0.6019 -0.0560
43813SOL    HW135801  10.388   8.226  10.165 -1.2371  1.3090  0.6250
43813SOL    HW235802  10.503   8.323  10.177  1.0605 -1.0294 -1.2503
43814SOL     OW35803   0.125   0.596  10.679  0.0450 -0.5947  0.4199
43814SOL    HW135804   0.077   0.542  10.616  1.5364 -1.2772 -0.1621
43814SOL    HW235805   0.058   0.625  10.740 -1.0713 -1.7481 -0.1984
43815SOL     OW35806   0.740   5.360   7.884 -0.0522  0.3566  0.4241
43815SOL    HW135807   0.661   5.323   7.923  1.0303 -0.6362  1.7708
43815SOL    HW235808   0.734   5.338   7.791 -2.0928  1.6775  0.1700
43816SOL     OW35809   9.563   2.301   7.838 -0.1699 -0.6775  0.0314
43816SOL    HW135810   9.616   2.372   7.874 -1.5563  2.2090 -3.0195
43816SOL    HW235811   9.492   2.289   7.900 -1.8218  3.2347 -0.8274
43817SOL     OW35812   1.713   4.396   4.537 -0.6420  0.2374 -0.3310
43817SOL    HW135813   1.735   4.307   4.566  2.3586  0.6890 -0.9003
43817SOL    HW235814   1.634   4.385   4.484 -0.6925 -1.9725  0.0909
43818SOL     OW35815   6.899   2.529   9.471 -0.7230 -0.0548 -0.0784
43818SOL    HW135816   6.835   2.532   9.543  0.0132 -2.2624  0.7798
43818SOL    HW235817   6.983   2.548   9.514 -0.4489 -0.0722 -0.6068
43819SOL     OW35818  10.522   5.529   0.362 -0.1682  0.6781 -0.1520
43819SOL    HW135819  10.566   5.533   0.277  1.3523 -0.0229  0.5583
43819SOL    HW235820  10.536   5.439   0.392 -3.3257 -0.0562 -0.4566
43820SOL     OW35821   3.994   7.634   3.962  0.8710 -0.0753 -0.1291
43820SOL    HW135822   4.035   7.647   4.047 -0.1800 -1.5723  0.6474
43820SOL    HW235823   3.931   7.563   3.976 -0.0855  0.3634 -1.9007
43821SOL     OW35824   3.291   7.043   7.319  0.1446  0.2276 -0.4535
43821SOL    HW135825   3.200   7.019   7.336 -0.2152  1.6822 -0.1209
43821SOL    HW235826   3.337   7.023   7.400 -0.3323  1.4205  0.1461
43822SOL     OW35827   1.456   0.466   5.554  0.2423 -0.4170  0.7099
43822SOL    HW135828   1.508   0.397   5.595 -0.9331 -1.7358  0.0836
43822SOL    HW235829   1.514   0.541   5.550  2.4278 -2.0606 -0.7958
43823SOL     OW35830   5.398  10.853   4.702 -1.2354 -0.0983 -0.0057
43823SOL    HW135831   5.372  10.865   4.610 -1.8055  0.7874  0.2566
43823SOL    HW235832   5.320  10.817   4.744 -0.6468 -1.4795 -0.0628
43824SOL     OW35833   0.975   0.324   6.366  0.0747 -0.1770 -0.2947
43824SOL    HW135834   0.958   0.415   6.340  0.8206 -0.1881 -0.8862
43824SOL    HW235835   0.940   0.317   6.454 -2.0248  0.0463 -1.0518
43825SOL     OW35836   3.139   5.196   5.705 -0.2173 -0.0320 -0.0110
43825SOL    HW135837   3.060   5.181   5.757 -0.3317 -1.7569 -0.6304
43825SOL    HW235838   3.210   5.191   5.768 -0.5835  2.2112  0.6725
43826SOL     OW35839   1.419   5.464   0.003 -0.2043 -0.2551  0.8451
43826SOL    HW135840   1.387   5.385  -0.040  1.6507 -0.5957 -0.0127
43826SOL    HW235841   1.395   5.453   0.095 -1.7209 -0.8597  0.4002
43827SOL     OW35842   1.097   1.080   2.813  0.0799  0.4814 -0.3264
43827SOL    HW135843   1.106   1.054   2.905  0.6415 -0.0261 -0.5218
43827SOL    HW235844   1.168   1.035   2.768 -1.5163 -1.1343 -1.3930
43828SOL     OW35845   9.522   3.201   0.875  0.1544  0.6038 -0.3113
43828SOL    HW135846   9.460   3.160   0.816  1.9704 -0.4891 -1.5562
43828SOL    HW235847   9.495   3.292   0.880 -1.7911  0.0671 -0.4165
43829SOL     OW35848   7.296   5.622   2.604 -0.1987  0.1814 -0.3117
43829SOL    HW135849   7.299   5.632   2.699 -1.2775  2.1556 -0.4300
43829SOL    HW235850   7.202   5.621   2.583  0.0179  1.2063 -1.4563
43830SOL     OW35851   7.652  10.703   6.407 -0.0975  0.2262 -0.2673
43830SOL    HW135852   7.621  10.645   6.476 -2.5161  1.7159  0.0132
43830SOL    HW235853   7.618  10.664   6.326  0.0386  0.1772 -0.3020
43831SOL     OW35854   4.707   7.189   7.233  0.0086  0.2942  0.9882
43831SOL    HW135855   4.718   7.138   7.152  0.5214  2.7262 -0.5878
43831SOL    HW235856   4.614   7.179   7.254 -0.1831 -0.2272 -0.0128
43832SOL     OW35857   6.644   6.279   3.158  0.2070 -0.2952 -0.1324
43832SOL    HW135858   6.730   6.281   3.200  1.8572 -1.6855 -3.1485
43832SOL    HW235859   6.643   6.357   3.103 -1.4694  0.9175  1.4995
43833SOL     OW35860   2.932  10.357   3.214 -0.2346 -0.2409 -0.2995
43833SOL    HW135861   3.011  10.411   3.221  0.1254 -0.9100  1.1756
43833SOL    HW235862   2.894  10.382   3.130  0.6812  1.2573 -0.3153
43834SOL     OW35863   9.793   1.935   1.225  0.6558  0.0000 -1.2116
43834SOL    HW135864   9.776   2.029   1.226  0.7258  0.0147 -1.3039
43834SOL    HW235865   9.759   1.903   1.308  2.3267  0.4190 -0.3233
43835SOL     OW35866   5.488   2.474   7.376 -0.3351 -0.0709  0.9215
43835SOL    HW135867   5.522   2.503   7.461  0.5400 -0.2207  0.6393
43835SOL    HW235868   5.566   2.445   7.328 -0.7994  0.1035  0.0333
43836SOL     OW35869   3.216   8.489  10.970 -0.5754  0.3349  0.1540
43836SOL    HW135870   3.130   8.455  10.994 -0.9276  0.0548 -1.3849
43836SOL    HW235871   3.275   8.414  10.978 -0.8538  0.0219 -0.6861
43837SOL     OW35872  10.525   2.399  10.707  0.6171 -0.5864 -0.1670
43837SOL    HW135873  10.506   2.350  10.627  3.1709  0.7081 -1.6827
43837SOL    HW235874  10.580   2.339  10.758 -0.8234 -1.3249  0.5802
43838SOL     OW35875   5.002   8.845   4.488  0.0506 -0.0775  0.2729
43838SOL    HW135876   4.986   8.874   4.578 -0.0453 -0.1289  0.2728
43838SOL    HW235877   5.021   8.751   4.497  1.3854  0.1763  0.3910
43839SOL     OW35878   6.272   8.066   4.701  0.0924 -0.4991  0.0625
43839SOL    HW135879   6.329   8.142   4.716 -2.6760  1.5382  0.9383
43839SOL    HW235880   6.219   8.060   4.781 -0.6374 -2.5977 -0.5271
43840SOL     OW35881   7.481   8.746   6.111  0.2063  0.2043  0.3753
43840SOL    HW135882   7.437   8.741   6.026 -0.2252  1.3653  0.5165
43840SOL    HW235883   7.422   8.798   6.166  0.7561 -0.0379  1.2148
43841SOL     OW35884   6.520   7.355   6.426 -0.6434 -0.0555  0.2436
43841SOL    HW135885   6.542   7.436   6.380  0.8188 -0.2100  0.6076
43841SOL    HW235886   6.425   7.356   6.433 -0.7614  0.8802 -1.1060
43842SOL     OW35887   6.897   4.025   7.305  0.3737  0.6041 -0.4093
43842SOL    HW135888   6.893   4.121   7.301 -0.0548  0.5932 -0.2737
43842SOL    HW235889   6.826   4.001   7.365  1.1337  0.2568  0.3664
43843SOL     OW35890  10.696   8.685   0.033 -0.3604 -0.2634  0.2775
43843SOL    HW135891  10.668   8.698  -0.058 -0.6142  0.5188  0.4576
43843SOL    HW235892  10.781   8.641   0.026 -0.9493 -1.3583 -0.3014
43844SOL     OW35893  10.914   1.967   7.304  0.3133  0.2141  0.2718
43844SOL    HW135894  10.892   1.893   7.361  0.7800  0.0592  0.2537
43844SOL    HW235895  10.892   1.937   7.216 -1.5901  0.8926  0.4537
43845SOL     OW35896  10.367   2.903   5.272 -0.1664  0.2177  0.3284
43845SOL    HW135897  10.319   2.876   5.194 -2.0275  0.5694  1.2725
43845SOL    HW235898  10.344   2.996   5.283 -1.3491 -0.2355  2.1854
43846SOL     OW35899   4.440   0.829   2.548 -0.6090  0.1339 -0.7541
43846SOL    HW135900   4.349   0.839   2.576  0.2734  0.6684  2.2801
43846SOL    HW235901   4.478   0.916   2.560  1.6582 -1.1577  4.0067
43847SOL     OW35902   1.874  10.057   0.496 -0.1697  0.2131  0.6355
43847SOL    HW135903   1.932  10.108   0.439 -0.6347  1.1722  1.0035
43847SOL    HW235904   1.787  10.072   0.461 -0.4247  0.5355  1.3828
43848SOL     OW35905   3.616  11.014   5.261 -0.5252 -0.1693 -0.6387
43848SOL    HW135906   3.660  11.016   5.346  0.7355  2.0517 -1.2678
43848SOL    HW235907   3.534  10.967   5.277 -0.7319  0.9320  1.9956
43849SOL     OW35908   8.635   4.565   8.642  0.2938 -0.2986 -0.2078
43849SOL    HW135909   8.609   4.504   8.574  0.7330  0.1851 -0.8251
43849SOL    HW235910   8.723   4.538   8.666  0.0920 -0.5476  0.2687
43850SOL     OW35911   3.166   4.386   5.645 -0.4990  0.2034  0.0898
43850SOL    HW135912   3.164   4.373   5.740  2.5125 -0.1116  0.1826
43850SOL    HW235913   3.220   4.464   5.632 -1.5613  0.7490 -1.3837
43851SOL     OW35914   6.074   3.605   2.470  0.2545 -0.3909  0.1115
43851SOL    HW135915   5.998   3.569   2.424  0.5845 -0.3800 -0.4430
43851SOL    HW235916   6.084   3.549   2.547 -1.0039  0.2896  0.8014
43852SOL     OW35917   5.797   5.931   3.167  0.0440 -0.3044 -0.0924
43852SOL    HW135918   5.703   5.915   3.158  0.0451 -1.8139  1.8255
43852SOL    HW235919   5.803   5.992   3.242  0.5969 -0.3976 -0.0621
43853SOL     OW35920  10.707   9.475   2.492  0.5356  0.2998 -0.0855
43853SOL    HW135921  10.731   9.497   2.581  0.1063  0.1967  0.0571
43853SOL    HW235922  10.772   9.520   2.438  1.3291 -0.3484  0.3059
43854SOL     OW35923  10.870   3.386  10.681  0.0402  0.9164 -0.0386
43854SOL    HW135924  10.823   3.451  10.628  1.1492  1.0039 -0.9294
43854SOL    HW235925  10.818   3.306  10.672 -0.2960  1.1793 -0.4670
43855SOL     OW35926   8.543   3.915  10.280  0.1888 -0.0611  0.1125
43855SOL    HW135927   8.591   3.877  10.206 -0.6534  0.8902 -0.9633
43855SOL    HW235928   8.462   3.864  10.284  0.2781 -0.1775  0.4518
43856SOL     OW35929   5.773   8.079  10.645 -0.7295  0.5292  0.2955
43856SOL    HW135930   5.685   8.069  10.682 -0.7274  0.8157  0.3765
43856SOL    HW235931   5.831   8.036  10.708 -0.8800 -0.2460 -0.0835
43857SOL     OW35932   2.499   5.900   4.378 -0.0251 -0.3741 -0.0287
43857SOL    HW135933   2.437   5.828   4.373 -1.1675  0.6051 -0.3958
43857SOL    HW235934   2.509   5.930   4.288  0.4174 -0.0568  0.1188
43858SOL     OW35935  10.365   8.618   5.252  0.5666  0.5853 -0.1721
43858SOL    HW135936  10.416   8.663   5.185 -1.0691  1.2643 -1.0452
43858SOL    HW235937  10.350   8.684   5.319  1.9942 -0.0231  0.7926
43859SOL     OW35938   4.576  10.735   6.475 -0.1709  0.0315 -0.1697
43859SOL    HW135939   4.592  10.685   6.395 -1.4820  0.0049 -0.4369
43859SOL    HW235940   4.565  10.825   6.446  0.6615  0.2327  0.1349
43860SOL     OW35941   2.879   5.765   1.551 -0.2331  0.6831  0.0929
43860SOL    HW135942   2.784   5.764   1.541 -0.0608 -1.0617 -2.0397
43860SOL    HW235943   2.899   5.683   1.595  0.3498  0.8365  0.1222
43861SOL     OW35944   4.016   3.094   6.913  0.0754 -0.5899 -0.2953
43861SOL    HW135945   3.976   3.035   6.849 -1.3652 -0.8487  0.7888
43861SOL    HW235946   4.100   3.054   6.934  0.2378 -0.8912 -1.4544
43862SOL     OW35947   9.565   3.997   2.432 -0.1722  0.4543  0.1302
43862SOL    HW135948   9.651   3.986   2.473 -0.7544 -1.6034  0.8999
43862SOL    HW235949   9.578   4.067   2.367  1.8032  0.8848  0.9261
43863SOL     OW35950   0.744   9.773  10.467 -0.5381  0.3847  0.3886
43863SOL    HW135951   0.742   9.692  10.415 -0.4368  1.1038 -0.7626
43863SOL    HW235952   0.792   9.835  10.412 -2.0943  1.7364  0.4940
43864SOL     OW35953  10.944   6.008   0.479 -0.3739 -0.1446  0.0047
43864SOL    HW135954  10.871   6.038   0.533 -1.1228  0.2496 -1.1835
43864SOL    HW235955  11.013   6.073   0.492 -0.2823 -0.4215  0.9933
43865SOL     OW35956   3.526   6.650   6.912  0.2514 -0.0743 -0.3834
43865SOL    HW135957   3.481   6.600   6.981 -0.8883 -1.8622 -2.3213
43865SOL    HW235958   3.475   6.731   6.905  0.6622  0.3605  1.1251
43866SOL     OW35959   5.565   8.670   2.810  0.4441  0.3721 -0.2222
43866SOL    HW135960   5.487   8.683   2.755  0.8423  1.2564 -0.5965
43866SOL    HW235961   5.549   8.587   2.854 -0.2729  0.0541 -1.0388
43867SOL     OW35962   9.105  10.269  10.656  0.3754 -0.7949  0.0195
43867SOL    HW135963   9.061  10.222  10.586  0.1328  1.2353 -1.2655
43867SOL    HW235964   9.189  10.295  10.619  1.5060 -2.1000  1.4809
43868SOL     OW35965   6.658   8.864  10.409 -0.1238  0.8291 -0.9070
43868SOL    HW135966   6.625   8.896  10.494  0.9970  0.5347 -0.3428
43868SOL    HW235967   6.606   8.785  10.392 -0.4978  1.0004 -0.5915
43869SOL     OW35968   2.747   0.001   5.526  0.3569 -0.3135 -0.4928
43869SOL    HW135969   2.669   0.001   5.581 -0.3482  0.2604 -1.4714
43869SOL    HW235970   2.819  -0.017   5.587 -0.6318 -1.9746  0.2469
43870SOL     OW35971   6.487   0.604   0.683 -0.2450  0.4501 -0.4302
43870SOL    HW135972   6.543   0.527   0.674 -0.1075  0.4179  0.5881
43870SOL    HW235973   6.543   0.670   0.725 -0.9831  0.3783  0.7027
43871SOL     OW35974  10.967   3.134   6.874  0.1945  0.5243 -0.0682
43871SOL    HW135975  11.000   3.223   6.881 -0.6471  0.8426 -0.0388
43871SOL    HW235976  11.041   3.079   6.898  1.0519  1.1685 -1.1276
43872SOL     OW35977   8.758   7.887   4.560 -0.4064  0.3484 -0.2458
43872SOL    HW135978   8.834   7.886   4.619 -0.1792  1.0702 -0.5171
43872SOL    HW235979   8.770   7.965   4.506 -1.4911  0.6400 -0.1007
43873SOL     OW35980   9.300   0.737  10.093 -0.0596 -0.3051 -0.3290
43873SOL    HW135981   9.352   0.765  10.169 -2.0249 -0.9351  1.3259
43873SOL    HW235982   9.307   0.642  10.094 -0.6607 -0.3497 -0.5212
43874SOL     OW35983   0.531  10.897   8.785 -0.6427  0.4479  0.2262
43874SOL    HW135984   0.583  10.819   8.768 -0.2649  0.8838 -0.6624
43874SOL    HW235985   0.583  10.947   8.849 -1.4276 -0.5446  1.7109
43875SOL     OW35986   9.777   2.309   6.146  0.5543  0.4494  0.3064
43875SOL    HW135987   9.762   2.249   6.219  1.8919  0.9049  0.9852
43875SOL    HW235988   9.809   2.389   6.187 -0.4741  1.3854 -0.6460
43876SOL     OW35989   4.444   6.489   6.397 -0.2572  0.2597 -0.1824
43876SOL    HW135990   4.532   6.512   6.426  0.0226 -1.5123  0.5176
43876SOL    HW235991   4.388   6.511   6.471 -0.1377 -0.2625  0.0704
43877SOL     OW35992   8.729   9.900   3.392  0.2047  0.5679  0.2672
43877SOL    HW135993   8.745   9.943   3.476  1.7343 -1.2076  0.9638
43877SOL    HW235994   8.678   9.823   3.415 -0.0269  0.4749 -0.5568
43878SOL     OW35995   1.145   6.145   9.328 -0.5352  0.3903 -0.0904
43878SOL    HW135996   1.074   6.087   9.356  0.9022 -0.9483  0.9061
43878SOL    HW235997   1.225   6.101   9.356  0.6542  2.5527  0.0978
43879SOL     OW35998   1.932   4.057   7.418 -0.0091  0.5357  0.1714
43879SOL    HW135999   1.938   4.130   7.480 -0.5266 -1.5038  2.7844
43879SOL    HW236000   1.865   4.000   7.455  1.8976 -2.3644 -0.5539
43880SOL     OW36001   7.480   5.942   3.886 -0.0772  0.5381  0.1318
43880SOL    HW136002   7.569   5.970   3.910  0.0401  0.6935 -0.4606
43880SOL    HW236003   7.437   6.021   3.855 -0.9192  0.7689  1.7950
43881SOL     OW36004   4.997   0.460   3.430  0.0669  0.1345  0.4018
43881SOL    HW136005   5.042   0.392   3.481 -0.9780 -0.5400  0.4644
43881SOL    HW236006   4.937   0.501   3.492 -0.4887 -0.0102 -0.0290
43882SOL     OW36007   1.187   4.577   2.335  0.2327 -0.2958  0.4663
43882SOL    HW136008   1.259   4.519   2.310 -1.5807 -3.9280  2.7732
43882SOL    HW236009   1.214   4.613   2.420 -0.1090 -0.5876  0.7002
43883SOL     OW36010   9.341   1.594   0.627 -0.0357  0.1728  0.2501
43883SOL    HW136011   9.351   1.532   0.699  0.0439 -1.0354 -0.7661
43883SOL    HW236012   9.248   1.589   0.603  0.3797 -1.2084 -1.2279
43884SOL     OW36013   2.938   8.519   1.806  0.2061 -0.1568  0.1798
43884SOL    HW136014   2.898   8.484   1.726 -0.1531  0.9706 -0.1562
43884SOL    HW236015   2.887   8.598   1.826  1.4011  0.5574  0.5307
43885SOL     OW36016   8.351   4.510   4.906 -0.4746  0.5334  0.5598
43885SOL    HW136017   8.358   4.572   4.834 -0.9776  0.0027  0.0456
43885SOL    HW236018   8.278   4.542   4.958 -1.7961 -0.5042 -0.5963
43886SOL     OW36019   8.397   8.029   4.544 -0.1595  0.6699 -0.1833
43886SOL    HW136020   8.369   8.058   4.631  0.9376  0.1154  0.3763
43886SOL    HW236021   8.414   7.935   4.554  0.8484  0.7729 -0.7562
43887SOL     OW36022   6.425   9.065   8.179  0.1818  1.1934 -0.3661
43887SOL    HW136023   6.411   8.971   8.175 -0.4058  1.0578  2.6277
43887SOL    HW236024   6.351   9.103   8.132  1.0131  0.2064 -2.5725
43888SOL     OW36025   1.742   4.846   9.285 -0.2196 -0.2910 -0.4865
43888SOL    HW136026   1.744   4.768   9.341 -1.0741 -0.1600 -0.2573
43888SOL    HW236027   1.831   4.880   9.288  0.0683 -1.0427 -0.2814
43889SOL     OW36028   3.987   8.482   0.627  0.3204 -0.3066  0.2180
43889SOL    HW136029   4.049   8.533   0.574  2.8205 -0.0091  3.1717
43889SOL    HW236030   3.926   8.547   0.662 -0.0624 -0.2134 -0.6048
43890SOL     OW36031   6.486   3.256   8.389 -0.0505  0.4045  0.2910
43890SOL    HW136032   6.469   3.162   8.380  2.1902  0.0921 -1.6000
43890SOL    HW236033   6.575   3.261   8.425 -0.2254  1.8257  0.5835
43891SOL     OW36034   2.796   8.746   1.893 -0.7765  0.0770  0.0247
43891SOL    HW136035   2.833   8.828   1.862 -0.5528 -0.4020 -0.9950
43891SOL    HW236036   2.720   8.773   1.945 -0.9120  0.9171 -0.5840
43892SOL     OW36037   5.172   5.510   1.499 -0.2923  0.3622 -0.2123
43892SOL    HW136038   5.106   5.480   1.561 -0.4310 -0.7782 -0.8913
43892SOL    HW236039   5.133   5.497   1.413  1.3958 -1.9174 -0.7093
43893SOL     OW36040   8.022   2.114   1.066  0.0439 -0.0640  0.1805
43893SOL    HW136041   7.987   2.152   0.986  1.4435 -0.9417 -0.9020
43893SOL    HW236042   8.060   2.030   1.038  1.0539 -0.1427  1.6617
43894SOL     OW36043   5.185  10.293   5.319 -0.3877 -0.0049 -0.2385
43894SOL    HW136044   5.154  10.245   5.395  2.2378  0.7564  1.4528
43894SOL    HW236045   5.147  10.381   5.329 -1.7199 -0.4672 -0.9984
43895SOL     OW36046   2.684   1.788   8.154 -0.0174 -0.2041  0.0991
43895SOL    HW136047   2.619   1.776   8.224 -0.1988 -1.1924 -0.2217
43895SOL    HW236048   2.666   1.875   8.120 -1.3735 -0.5574 -0.1526
43896SOL     OW36049   1.925   7.747  10.418  0.0732 -0.3323  0.3167
43896SOL    HW136050   1.841   7.764  10.374  0.1209 -0.7270  0.0670
43896SOL    HW236051   1.962   7.673  10.370  0.9134  0.3135 -0.0622
43897SOL     OW36052   8.091   3.930   2.779 -0.5836 -0.1759 -0.1743
43897SOL    HW136053   8.005   3.894   2.801 -0.5850 -0.1745 -0.1779
43897SOL    HW236054   8.107   3.996   2.846  0.0082 -1.0920  0.6094
43898SOL     OW36055   6.321   7.039  10.799 -0.1756  0.0272 -0.3161
43898SOL    HW136056   6.245   7.006  10.846  1.1111 -1.3395  0.9226
43898SOL    HW236057   6.363   7.100  10.861  0.3944 -0.1732 -0.4990
43899SOL     OW36058   0.819   6.277  11.036 -0.0587 -0.7134 -0.3122
43899SOL    HW136059   0.783   6.334  11.104 -1.7729 -0.3563 -1.4549
43899SOL    HW236060   0.860   6.205  11.084  0.7109  0.6348  1.1267
43900SOL     OW36061   0.028   4.831   9.412 -0.0640  0.3202 -0.1221
43900SOL    HW136062   0.019   4.799   9.501  0.7691 -0.6840 -0.3746
43900SOL    HW236063  -0.061   4.829   9.377 -0.2520 -0.2569  0.3710
43901SOL     OW36064   8.903   2.058   3.608  0.2556 -0.2621 -0.8583
43901SOL    HW136065   8.996   2.061   3.584  0.7354  5.4657  0.3349
43901SOL    HW236066   8.903   2.048   3.703 -0.1971  1.3872 -0.6628
43902SOL     OW36067   3.747  10.907   7.968  0.2976 -0.3498  0.2221
43902SOL    HW136068   3.750  10.815   7.993 -0.7751 -0.6202 -0.5466
43902SOL    HW236069   3.803  10.914   7.891  1.0941 -0.1641  0.8086
43903SOL     OW36070   4.386   4.611   2.078 -0.2180 -0.3072  0.5105
43903SOL    HW136071   4.311   4.624   2.019  0.3374  0.6504 -0.0060
43903SOL    HW236072   4.396   4.696   2.122  0.3849 -0.5147  0.7807
43904SOL     OW36073   0.665   8.795   2.057  0.2668  0.4034  0.9556
43904SOL    HW136074   0.749   8.837   2.073 -0.2568  0.9158  2.4813
43904SOL    HW236075   0.602   8.844   2.109 -0.5642 -1.5166  1.8838
43905SOL     OW36076   4.687   5.258   3.724 -0.0999  0.3032  0.1849
43905SOL    HW136077   4.773   5.271   3.682 -0.8233  0.7864 -1.2261
43905SOL    HW236078   4.641   5.340   3.707 -1.1422 -0.2749  0.1850
43906SOL     OW36079   4.140   2.302   9.488  0.4163 -0.1915  0.3706
43906SOL    HW136080   4.214   2.243   9.474  0.3059 -0.3748  0.5368
43906SOL    HW236081   4.174   2.370   9.546 -0.1586 -1.5928  2.4943
43907SOL     OW36082   3.847   5.956   4.408 -0.0665  0.5098 -0.1303
43907SOL    HW136083   3.935   5.919   4.402 -1.0911 -2.3034  0.7778
43907SOL    HW236084   3.836   6.006   4.327  1.6010 -0.9020 -1.2841
43908SOL     OW36085   5.586   1.394   1.283  0.0590  0.6135  0.1484
43908SOL    HW136086   5.634   1.358   1.209  1.0451  1.5737  0.2941
43908SOL    HW236087   5.608   1.337   1.357  1.8216  1.6176  0.4386
43909SOL     OW36088   4.720   3.094  10.179 -0.6476 -0.1732 -0.1273
43909SOL    HW136089   4.678   3.057  10.257 -0.7591 -0.1583 -0.1799
43909SOL    HW236090   4.647   3.127  10.126 -0.4775  2.5671  1.1306
43910SOL     OW36091  10.885  10.765   8.198 -0.0727  0.2616 -0.4350
43910SOL    HW136092  10.973  10.774   8.233  0.3298  1.1191 -1.5736
43910SOL    HW236093  10.828  10.768   8.274  0.9604 -3.4917  0.6998
43911SOL     OW36094   5.675   8.830   8.328  0.5129  1.0963 -0.7129
43911SOL    HW136095   5.626   8.876   8.260 -0.3258 -1.3544 -1.9044
43911SOL    HW236096   5.657   8.878   8.408 -2.4422  1.3310 -1.4082
43912SOL     OW36097   9.673   5.560   1.740 -0.8802 -0.0683 -0.2543
43912SOL    HW136098   9.666   5.640   1.792 -1.6051  0.5139 -1.2086
43912SOL    HW236099   9.660   5.489   1.803 -0.0230  0.5433  0.6415
43913SOL     OW36100   3.712   1.308   2.734  0.1533  1.2655 -0.3613
43913SOL    HW136101   3.636   1.272   2.780  0.8936  0.5064  0.2684
43913SOL    HW236102   3.784   1.303   2.796  0.7740  1.8347 -1.0102
43914SOL     OW36103   0.802   5.809   6.111 -0.2664  0.4060  0.0661
43914SOL    HW136104   0.864   5.738   6.130 -0.0289  0.8001  0.8395
43914SOL    HW236105   0.829   5.880   6.170  1.2001  2.1561 -2.4682
43915SOL     OW36106  10.468   8.243   0.604 -0.5691  0.6834 -0.7652
43915SOL    HW136107  10.392   8.231   0.547  0.5591  0.7225 -2.3123
43915SOL    HW236108  10.430   8.270   0.688 -2.3817 -1.0229 -0.9457
43916SOL     OW36109   7.830   8.067   3.006 -0.0041  0.1511  0.2192
43916SOL    HW136110   7.820   8.008   2.931  0.3364  0.5300 -0.1242
43916SOL    HW236111   7.906   8.033   3.053  0.0572  0.1866  0.1445
43917SOL     OW36112   6.523  10.743   5.200 -0.1785  0.3421  0.0282
43917SOL    HW136113   6.582  10.809   5.238  0.4990 -0.5157  0.5009
43917SOL    HW236114   6.477  10.706   5.274 -2.2733  1.8519 -0.4410
43918SOL     OW36115  10.868   0.454   5.078  0.7036  0.5753 -0.0987
43918SOL    HW136116  10.786   0.478   5.034  0.8418  2.7162  0.7132
43918SOL    HW236117  10.840   0.401   5.153  0.3444 -1.5073 -1.6008
43919SOL     OW36118   9.114   1.242   0.463  0.5502 -0.1630 -0.0361
43919SOL    HW136119   9.186   1.182   0.481  1.3947  1.5104  2.5455
43919SOL    HW236120   9.059   1.237   0.541 -0.9519  0.2881 -1.0217
43920SOL     OW36121   1.548   2.302   1.442  0.0563  0.0863  0.1102
43920SOL    HW136122   1.576   2.284   1.353  0.5826 -0.0431  0.3004
43920SOL    HW236123   1.629   2.305   1.493 -0.3206 -1.1996  0.8273
43921SOL     OW36124   3.915   2.566   6.488 -0.2913  0.3254 -0.2831
43921SOL    HW136125   3.839   2.600   6.535 -1.1872  0.5944 -1.8423
43921SOL    HW236126   3.878   2.499   6.430  1.1836 -2.1178  1.4223
43922SOL     OW36127  10.367  10.414   7.208 -0.1144  0.1738 -0.4708
43922SOL    HW136128  10.441  10.466   7.177 -0.9435  0.7828 -1.4936
43922SOL    HW236129  10.390  10.324   7.186  0.5838  0.2882 -0.2240
43923SOL     OW36130   9.409   4.868   6.284  0.3774 -0.2273 -0.5432
43923SOL    HW136131   9.489   4.827   6.318  0.7913 -0.6724 -1.9895
43923SOL    HW236132   9.356   4.883   6.362  1.9505  0.2902  0.4862
43924SOL     OW36133   0.509   0.028   2.225  0.4639 -0.1169  0.3843
43924SOL    HW136134   0.541   0.072   2.303  1.9867  1.0753 -0.8478
43924SOL    HW236135   0.577   0.043   2.159  0.4440 -3.2176 -0.5166
43925SOL     OW36136   9.200   8.665   9.420  0.3082  0.5780  0.2770
43925SOL    HW136137   9.255   8.724   9.368 -0.9458  0.8966 -0.7451
43925SOL    HW236138   9.255   8.590   9.439  1.1644  0.9923 -0.5265
43926SOL     OW36139   3.061   3.426   0.036 -0.0267  0.3684 -0.1669
43926SOL    HW136140   3.116   3.358  -0.004 -0.3511  0.3688 -0.6221
43926SOL    HW236141   3.069   3.501  -0.023  0.8451  0.9533  0.6799
43927SOL     OW36142  10.956   2.913   0.996  0.1625 -0.0014  0.0575
43927SOL    HW136143  10.907   2.896   0.915 -1.3976 -1.8903  1.3184
43927SOL    HW236144  10.944   3.007   1.012 -0.3436  0.2007 -1.3609
43928SOL     OW36145   5.486   6.189   2.011 -0.1073  0.4098 -0.2083
43928SOL    HW136146   5.510   6.107   2.053 -1.6594  0.0074 -0.0572
43928SOL    HW236147   5.447   6.163   1.927 -1.2258  0.9250  0.1272
43929SOL     OW36148   2.378   6.468   3.303 -0.0249  0.0319 -0.6401
43929SOL    HW136149   2.294   6.474   3.259  0.5635  0.5252 -1.7286
43929SOL    HW236150   2.432   6.415   3.245  0.6290  0.3078 -0.2984
43930SOL     OW36151  10.049   2.152   3.757 -0.2183 -0.9524 -0.8412
43930SOL    HW136152  10.027   2.059   3.752  1.2330 -1.5013  1.4475
43930SOL    HW236153  10.140   2.158   3.731 -0.0877 -0.2926 -0.2831
43931SOL     OW36154   0.393  10.833  10.588 -0.1652 -0.2573  1.0224
43931SOL    HW136155   0.377  10.739  10.581 -0.1617 -0.2930  1.4910
43931SOL    HW236156   0.451  10.843  10.663 -0.4601  0.1500  1.2021
43932SOL     OW36157   1.154   9.251   3.006 -0.2633  0.1090 -0.1408
43932SOL    HW136158   1.191   9.167   3.032 -1.2312  0.3689  2.4135
43932SOL    HW236159   1.202   9.315   3.059 -0.9531  0.9358 -0.4921
43933SOL     OW36160   6.008   9.403  10.077 -0.1344 -0.2425  0.3481
43933SOL    HW136161   6.075   9.468  10.096  0.1034 -0.7021  1.0929
43933SOL    HW236162   6.035   9.324  10.124  0.0518 -1.1795 -1.2569
43934SOL     OW36163   0.622   8.277   8.531 -0.0620 -0.0453 -0.0739
43934SOL    HW136164   0.687   8.214   8.501 -0.1926 -0.7568  1.0728
43934SOL    HW236165   0.606   8.254   8.622  0.0569  1.8058  0.4671
43935SOL     OW36166   5.356   9.425   7.786 -0.0053  0.4304 -0.6684
43935SOL    HW136167   5.404   9.342   7.792  0.6034  0.8307  0.1567
43935SOL    HW236168   5.330   9.443   7.876 -1.9216  0.1093 -1.1211
43936SOL     OW36169   5.212   6.510   7.917 -0.8980  0.1728 -0.7053
43936SOL    HW136170   5.247   6.426   7.886 -1.2958 -0.2961  0.0641
43936SOL    HW236171   5.238   6.573   7.851 -1.0582 -0.6535 -1.5902
43937SOL     OW36172   6.693   9.420   4.314 -0.1674 -0.6929 -0.0262
43937SOL    HW136173   6.695   9.355   4.244  0.1431 -1.1914  0.4338
43937SOL    HW236174   6.642   9.493   4.279  1.7059 -0.0161 -1.5729
43938SOL     OW36175   8.164   7.468   5.502  0.5966 -0.6362 -0.5071
43938SOL    HW136176   8.122   7.461   5.588  0.3529 -2.2119 -0.7120
43938SOL    HW236177   8.251   7.429   5.515  1.1577  0.5507 -0.6176
43939SOL     OW36178   3.734   5.470   2.007 -0.0172 -0.5158 -0.1055
43939SOL    HW136179   3.771   5.426   2.084 -0.8910 -1.6626 -0.3223
43939SOL    HW236180   3.688   5.402   1.960 -0.2546  0.3672 -1.1954
43940SOL     OW36181   9.411   8.847   3.283 -0.0225  0.0855 -0.1041
43940SOL    HW136182   9.370   8.928   3.312 -1.6485 -2.0086  4.3789
43940SOL    HW236183   9.342   8.800   3.236 -0.2676 -0.1980  0.5346
43941SOL     OW36184   0.140   4.448   1.620  0.4891  0.5615 -0.5490
43941SOL    HW136185   0.226   4.410   1.638  0.4185  0.8230  0.3751
43941SOL    HW236186   0.160   4.533   1.579  0.6559  0.1621 -1.3069
43942SOL     OW36187   7.933   7.885  10.404 -0.0123 -0.4726 -0.1561
43942SOL    HW136188   8.021   7.924  10.403  0.4043 -1.3756 -0.0973
43942SOL    HW236189   7.948   7.792  10.384 -0.8598 -0.8217  0.7434
43943SOL     OW36190   6.689   7.385   2.772  0.3942 -0.7623 -0.2053
43943SOL    HW136191   6.645   7.375   2.688  1.8012  1.6968 -1.3444
43943SOL    HW236192   6.728   7.299   2.790 -0.5128 -1.5188 -1.6977
43944SOL     OW36193   4.757   8.812   9.477 -0.2768 -0.1936  0.0469
43944SOL    HW136194   4.766   8.764   9.394 -2.1129  0.3418 -0.5223
43944SOL    HW236195   4.807   8.892   9.463 -1.9077  0.6707 -1.2485
43945SOL     OW36196   5.970   4.803   5.252  0.0931  0.0406  0.5398
43945SOL    HW136197   5.882   4.799   5.213  1.1739 -0.3136 -2.0497
43945SOL    HW236198   5.959   4.766   5.340 -2.2253 -0.5417  0.0749
43946SOL     OW36199   9.204   8.974   2.587 -0.0383  0.4054 -0.5812
43946SOL    HW136200   9.228   9.064   2.563  0.1132  0.2769 -0.9231
43946SOL    HW236201   9.270   8.920   2.544 -1.0651  0.0264 -1.7337
43947SOL     OW36202   5.575   8.601   3.617  0.1807 -0.2604  0.2544
43947SOL    HW136203   5.519   8.666   3.660  1.8009  0.6289  1.1416
43947SOL    HW236204   5.539   8.593   3.529 -1.4349  0.1250  0.8496
43948SOL     OW36205   5.588  10.031   6.892  0.6211 -0.3471 -0.2240
43948SOL    HW136206   5.607  10.059   6.981  0.2282 -1.7365  0.3235
43948SOL    HW236207   5.493  10.021   6.889  0.3600  1.9059 -1.5107
43949SOL     OW36208   4.229   8.408   6.689 -0.5152 -0.3599 -0.4414
43949SOL    HW136209   4.316   8.396   6.729 -0.6476 -0.3495 -0.1491
43949SOL    HW236210   4.242   8.382   6.598  0.1008  0.8305 -0.7178
43950SOL     OW36211  10.067   7.600   6.099 -0.3061  0.2548 -1.0289
43950SOL    HW136212  10.074   7.659   6.174 -1.1177  0.8324 -1.3899
43950SOL    HW236213  10.155   7.598   6.062  0.8604 -2.2267  1.4948
43951SOL     OW36214  10.101   6.895  11.013  0.5607  0.5009  0.2525
43951SOL    HW136215  10.090   6.989  10.997 -3.4667  0.6058  2.3064
43951SOL    HW236216  10.073   6.854  10.932 -0.4983  1.1054  0.2937
43952SOL     OW36217   7.502   4.830   4.688  0.4480 -0.3084  0.0018
43952SOL    HW136218   7.514   4.782   4.606 -0.8866 -0.3247 -0.1905
43952SOL    HW236219   7.459   4.768   4.747 -0.2032  0.2646  0.1376
43953SOL     OW36220   2.775  10.573   9.109  0.1923 -0.7639 -0.5114
43953SOL    HW136221   2.803  10.661   9.084  0.0930 -0.8640 -0.9754
43953SOL    HW236222   2.845  10.516   9.077  0.8642 -0.7486  0.8699
43954SOL     OW36223   0.832   2.370   6.175 -0.4678  0.5205  0.5649
43954SOL    HW136224   0.764   2.362   6.109 -0.1562  1.2442  0.1424
43954SOL    HW236225   0.883   2.289   6.168  1.0910  1.5903 -1.8317
43955SOL     OW36226   9.893   4.424   7.543  0.5072 -0.3751 -0.2781
43955SOL    HW136227   9.945   4.433   7.463  0.6302  0.6121 -0.1037
43955SOL    HW236228   9.929   4.346   7.586  0.3898 -0.9564 -1.2096
43956SOL     OW36229  10.997   7.028   1.071  0.2108  0.0490 -0.4086
43956SOL    HW136230  10.937   7.100   1.053  0.1027  0.2182  0.5816
43956SOL    HW236231  10.960   6.953   1.025 -0.3263  0.3405 -0.4570
43957SOL     OW36232   9.724   1.145   0.354  0.2540 -0.1573 -0.1447
43957SOL    HW136233   9.633   1.172   0.348  0.5839  1.1144  0.2561
43957SOL    HW236234   9.739   1.095   0.274 -0.7794 -0.3445 -0.2357
43958SOL     OW36235   0.253   4.268   5.075  0.1343 -0.4900 -0.3778
43958SOL    HW136236   0.301   4.192   5.041  0.3507 -0.7310  0.4494
43958SOL    HW236237   0.214   4.237   5.157 -1.5644 -0.3380 -1.0877
43959SOL     OW36238  10.895   1.878   4.005 -0.1428 -0.7874 -0.7036
43959SOL    HW136239  10.876   1.801   4.058  1.4652 -1.8246 -1.5343
43959SOL    HW236240  10.977   1.912   4.041 -0.3457 -0.0239 -0.9471
43960SOL     OW36241   0.682   5.997   7.665 -0.1149  0.3816 -0.1417
43960SOL    HW136242   0.593   5.960   7.665 -0.1225  0.3923  0.3836
43960SOL    HW236243   0.731   5.939   7.607 -0.4522  0.3457 -0.3984
43961SOL     OW36244   9.645   6.387   4.068 -0.0736  0.2446 -0.1537
43961SOL    HW136245   9.603   6.338   4.139  0.0933  0.0080 -0.2180
43961SOL    HW236246   9.605   6.474   4.072  0.2266  0.3559  0.4910
43962SOL     OW36247   6.699  10.913   5.291 -0.8860 -0.1857  0.2672
43962SOL    HW136248   6.723  10.963   5.369  0.5606 -0.3606 -0.0318
43962SOL    HW236249   6.767  10.936   5.227 -2.3733  0.4089 -1.1476
43963SOL     OW36250   6.641   0.455   8.642 -0.4978 -0.4673  0.2917
43963SOL    HW136251   6.584   0.381   8.620  0.0074 -0.8506  0.2319
43963SOL    HW236252   6.684   0.428   8.724  0.9480 -0.9913 -0.5984
43964SOL     OW36253   7.581   0.344   2.935 -0.2440  0.7984  1.0378
43964SOL    HW136254   7.520   0.381   2.872  0.8605  2.7793  1.0530
43964SOL    HW236255   7.658   0.321   2.884  0.5071  2.0582  1.5400
43965SOL     OW36256   7.503  10.563   3.863  0.4198  0.3396  0.0782
43965SOL    HW136257   7.561  10.489   3.882  0.0349 -0.1761 -0.7345
43965SOL    HW236258   7.522  10.626   3.933  1.1169 -0.3068  0.4897
43966SOL     OW36259   8.936   5.997   0.692 -0.0708  0.5232  1.4024
43966SOL    HW136260   9.003   5.961   0.750  0.1535 -0.2220  0.6939
43966SOL    HW236261   8.915   5.925   0.633  0.1580  1.4537  0.1574
43967SOL     OW36262   6.121   7.799   0.580  0.9407 -0.0731 -0.0616
43967SOL    HW136263   6.026   7.803   0.567  0.8390 -1.5183  0.1380
43967SOL    HW236264   6.147   7.891   0.591 -0.2492  0.4462 -1.3295
43968SOL     OW36265   4.064   4.633  11.001  0.1901  0.0493  0.0952
43968SOL    HW136266   4.103   4.556  11.043 -1.3571 -1.0210 -0.3370
43968SOL    HW236267   3.999   4.664  11.064  0.9139  1.1324  0.3382
43969SOL     OW36268   1.519  10.529   9.420 -0.3646  0.3416  0.8460
43969SOL    HW136269   1.435  10.527   9.464 -0.5957  0.6367  0.4289
43969SOL    HW236270   1.519  10.453   9.362  0.5062 -0.8514  2.3544
43970SOL     OW36271   3.828   3.986   6.002 -0.0289  0.2673  0.2555
43970SOL    HW136272   3.821   4.064   6.058  0.6082 -0.3964  1.2919
43970SOL    HW236273   3.766   3.924   6.041 -0.6479  0.2842 -0.6589
43971SOL     OW36274  10.167   2.551   2.735  0.2003  0.2970  0.2507
43971SOL    HW136275  10.207   2.591   2.658 -1.2806  1.2038 -0.0824
43971SOL    HW236276  10.223   2.578   2.808  0.7564  0.6842 -0.3125
43972SOL     OW36277   7.221   9.563   0.130 -0.4925  0.4671 -0.1719
43972SOL    HW136278   7.265   9.620   0.193 -1.0754  0.9298 -0.1666
43972SOL    HW236279   7.290   9.535   0.071 -0.1097  0.8074  0.1042
43973SOL     OW36280   5.258   2.738   0.682  0.1450 -0.0246  0.2381
43973SOL    HW136281   5.322   2.696   0.739 -0.2147 -0.9094  0.0046
43973SOL    HW236282   5.193   2.670   0.664 -0.8056  0.8235  0.3749
43974SOL     OW36283  11.096   6.589   2.543  0.4268  0.4696  0.8923
43974SOL    HW136284  11.045   6.587   2.624  0.2420  0.9398  0.7927
43974SOL    HW236285  11.037   6.628   2.479  0.4347 -0.2677  0.4274
43975SOL     OW36286  10.280  10.581   5.636 -0.0806 -0.1661  0.0239
43975SOL    HW136287  10.195  10.545   5.611  0.2841 -1.1779  0.2109
43975SOL    HW236288  10.340  10.551   5.568  0.4587 -0.9440  0.8299
43976SOL     OW36289   0.347   1.311   2.364  0.1544 -0.1233  0.5697
43976SOL    HW136290   0.364   1.296   2.271 -0.9722  0.3945  0.2648
43976SOL    HW236291   0.432   1.301   2.406  0.6906 -0.2770 -0.5277
43977SOL     OW36292   5.796   4.624   0.283 -0.4090 -0.4755 -0.7183
43977SOL    HW136293   5.761   4.621   0.194 -1.9060 -0.6652 -0.1483
43977SOL    HW236294   5.785   4.535   0.316 -0.1177 -0.3363 -0.2391
43978SOL     OW36295   3.377   0.725   7.844 -0.0509  0.1711  0.4247
43978SOL    HW136296   3.411   0.784   7.777 -1.0558  0.9223  0.5601
43978SOL    HW236297   3.370   0.779   7.923  1.0186 -0.6707  1.1423
43979SOL     OW36298   3.547   7.692   0.453  0.3221  0.5072  0.1416
43979SOL    HW136299   3.540   7.782   0.422  0.1235  0.9133  1.2875
43979SOL    HW236300   3.471   7.681   0.512  1.3243  0.1967  1.4282
43980SOL     OW36301   6.149  10.749   6.200 -0.2480  0.1543 -0.2066
43980SOL    HW136302   6.191  10.670   6.168  0.5711  0.9703 -1.2446
43980SOL    HW236303   6.147  10.739   6.295  1.1651 -0.4689 -0.2247
43981SOL     OW36304   6.164   6.346  10.123  0.3107  0.0983  0.0707
43981SOL    HW136305   6.175   6.412  10.055  2.4616  0.3240  0.5577
43981SOL    HW236306   6.183   6.263  10.079  1.0054  0.1777  0.1991
43982SOL     OW36307   5.863   4.317   2.278 -0.5012  0.4844 -0.1535
43982SOL    HW136308   5.803   4.381   2.240 -1.1565  1.7395  2.7017
43982SOL    HW236309   5.812   4.237   2.283 -0.7814  0.6155 -0.8281
43983SOL     OW36310   4.982   5.576   2.235 -0.0432  0.7854  0.0134
43983SOL    HW136311   4.900   5.558   2.282 -0.5760  0.4673 -1.0048
43983SOL    HW236312   4.964   5.550   2.145  0.8812  1.6038 -0.4223
43984SOL     OW36313  10.406   0.367   2.973 -0.0012  0.6100  0.1891
43984SOL    HW136314  10.472   0.437   2.976 -0.4649  1.0493  0.3031
43984SOL    HW236315  10.324   0.411   2.995 -0.2284 -0.0591  0.7219
43985SOL     OW36316   1.336   9.659   5.715  0.4280 -0.2746 -0.1423
43985SOL    HW136317   1.414   9.651   5.660  1.6517  0.0430  1.4666
43985SOL    HW236318   1.268   9.612   5.666  1.7870 -1.1960 -1.2622
43986SOL     OW36319   9.685   7.198   2.390  0.2932  0.0942 -1.0702
43986SOL    HW136320   9.678   7.103   2.402 -0.1161  0.2286 -0.1662
43986SOL    HW236321   9.731   7.208   2.307 -1.9437 -0.8931 -2.5179
43987SOL     OW36322   8.844   9.796   2.948 -0.1392 -0.7660  0.2852
43987SOL    HW136323   8.757   9.788   2.988 -1.3782  0.8065 -1.8678
43987SOL    HW236324   8.885   9.870   2.992  0.1434 -1.5015  1.2938
43988SOL     OW36325   7.627   6.500   5.135 -0.6840 -0.1500  0.3317
43988SOL    HW136326   7.692   6.436   5.106 -0.4049  0.1013  0.4050
43988SOL    HW236327   7.565   6.449   5.188 -0.2715 -0.2957  0.6737
43989SOL     OW36328   8.763   6.263   9.765  0.1528 -0.1693 -0.1789
43989SOL    HW136329   8.843   6.311   9.788 -0.4576  0.1659  1.3525
43989SOL    HW236330   8.794   6.180   9.729  1.1878 -0.2704  0.8955
43990SOL     OW36331   8.134   8.791   6.904 -0.4348 -0.0083  0.0093
43990SOL    HW136332   8.226   8.809   6.885 -0.6633 -0.6739 -1.9976
43990SOL    HW236333   8.089   8.874   6.887 -0.2074  0.4223  1.3460
43991SOL     OW36334   1.087   9.227   3.292 -0.4441  0.3966  0.1076
43991SOL    HW136335   1.086   9.184   3.206  0.1279 -0.2439  0.4126
43991SOL    HW236336   1.034   9.307   3.279 -0.8996 -0.0127 -0.6622
43992SOL     OW36337   5.090   2.230   1.452  0.4062 -0.0937  0.1148
43992SOL    HW136338   5.176   2.207   1.417  0.8246 -0.1403  1.1250
43992SOL    HW236339   5.039   2.149   1.444  1.1426 -0.7358  1.4737
43993SOL     OW36340   8.326   7.468  10.295 -0.6416  0.6659 -0.3853
43993SOL    HW136341   8.320   7.467  10.390  1.2893 -2.3655 -0.1559
43993SOL    HW236342   8.238   7.446  10.264 -0.5128 -1.8724  0.8938
43994SOL     OW36343   2.204   3.328   7.354 -1.0039 -0.3043  0.5528
43994SOL    HW136344   2.222   3.388   7.427 -1.2437  1.2795 -0.6355
43994SOL    HW236345   2.260   3.359   7.283 -1.4224 -1.2630 -0.2197
43995SOL     OW36346   7.929   8.715   6.288  0.3510  0.0059 -0.1920
43995SOL    HW136347   7.967   8.650   6.348 -0.4027 -1.2257 -1.0121
43995SOL    HW236348   7.916   8.792   6.343  2.3144 -0.1301  0.5453
43996SOL     OW36349   0.201  10.455   2.662  0.7263 -0.1419  0.1030
43996SOL    HW136350   0.294  10.449   2.681  0.1938 -1.1618  2.7321
43996SOL    HW236351   0.162  10.495   2.740 -1.0640  0.1994 -0.9055
43997SOL     OW36352   7.716   9.246   1.061  0.5413  0.1243 -0.1423
43997SOL    HW136353   7.649   9.252   1.128 -0.3180 -0.6616 -0.9058
43997SOL    HW236354   7.786   9.304   1.091 -0.8621  1.6935  0.2170
43998SOL     OW36355   2.827   6.187   7.991 -0.6774 -0.4705  0.4993
43998SOL    HW136356   2.877   6.132   7.931  0.4946  0.3121  0.7154
43998SOL    HW236357   2.890   6.214   8.057 -1.2434  1.0211  0.4709
43999SOL     OW36358   0.251   6.081   5.956 -0.2452  0.2233 -0.0591
43999SOL    HW136359   0.261   6.039   6.042 -0.4831 -2.0516 -1.0670
43999SOL    HW236360   0.332   6.131   5.945 -0.4132  0.9519  1.6514
44000SOL     OW36361   6.878   8.536   0.311 -0.2203 -0.6291 -0.0149
44000SOL    HW136362   6.787   8.507   0.309 -0.0929 -1.0135 -0.8982
44000SOL    HW236363   6.924   8.474   0.255  0.0368  1.3604 -2.1671
44001SOL     OW36364   4.052   5.697   4.519  0.1824  0.2296 -0.8313
44001SOL    HW136365   3.978   5.736   4.566 -0.1684 -0.0904 -1.1194
44001SOL    HW236366   4.095   5.772   4.477  1.4679  0.7715  1.2873
44002SOL     OW36367   8.481   5.436   4.131  0.2034  0.0243  0.0065
44002SOL    HW136368   8.467   5.373   4.060 -1.2775  1.7236 -1.2982
44002SOL    HW236369   8.410   5.420   4.192  0.5919 -0.4294  0.3426
44003SOL     OW36370   0.715   6.903   1.746  0.2283  0.1991 -0.5146
44003SOL    HW136371   0.746   6.879   1.833  0.2974 -1.5151 -0.9740
44003SOL    HW236372   0.744   6.994   1.734  0.2327  0.4548  1.2210
44004SOL     OW36373  10.139   6.793   1.969 -0.9789 -0.1680  0.1264
44004SOL    HW136374  10.185   6.716   2.000 -0.2662 -0.0323 -0.5547
44004SOL    HW236375  10.112   6.840   2.048 -1.2699 -1.0184  0.5401
44005SOL     OW36376   3.916   8.957   5.560  0.3874 -0.2861 -0.0110
44005SOL    HW136377   3.987   9.022   5.562  0.5034 -0.3087 -1.8739
44005SOL    HW236378   3.855   8.990   5.494  0.2318 -1.8526 -0.6819
44006SOL     OW36379  10.557   1.975   6.582  0.1519  0.0515  0.1075
44006SOL    HW136380  10.516   2.042   6.526  0.7545  0.1650 -0.2083
44006SOL    HW236381  10.560   2.015   6.669 -3.4298 -1.1737  0.9804
44007SOL     OW36382   3.363   4.953   6.230  0.4700 -0.4411  0.3812
44007SOL    HW136383   3.358   4.860   6.208  1.2340  0.0108 -2.0313
44007SOL    HW236384   3.284   4.991   6.194  1.6037  0.2863 -1.4574
44008SOL     OW36385   8.099   7.502   8.189 -0.3080 -0.2800 -0.0815
44008SOL    HW136386   8.140   7.432   8.239  1.1634  0.1515 -0.6451
44008SOL    HW236387   8.034   7.539   8.249  1.7772  0.5777  1.7741
44009SOL     OW36388   5.056   6.307   8.949  0.1035  0.0112 -0.2372
44009SOL    HW136389   4.965   6.311   8.979 -0.1678 -0.3372 -1.0064
44009SOL    HW236390   5.107   6.321   9.029 -0.6222  0.9797  0.0898
44010SOL     OW36391   2.936   1.664   3.999  0.8944  0.0449 -0.2153
44010SOL    HW136392   2.877   1.664   4.074  0.0719 -0.1194 -0.8482
44010SOL    HW236393   3.000   1.733   4.019  0.1091  0.6706  0.1908
44011SOL     OW36394   0.410   8.217   0.588  0.0955 -0.0078  0.3954
44011SOL    HW136395   0.376   8.129   0.574  1.1466 -0.5022  0.8737
44011SOL    HW236396   0.482   8.226   0.525  0.1179  0.4361  0.4758
44012SOL     OW36397   4.321   2.082   2.907  0.1640 -0.2227 -0.1296
44012SOL    HW136398   4.254   2.044   2.850  0.4973  0.4489 -0.9979
44012SOL    HW236399   4.398   2.026   2.895  0.7157  0.7780 -1.5573
44013SOL     OW36400   9.567   4.220   2.578 -0.7185  0.0725 -0.2258
44013SOL    HW136401   9.654   4.198   2.611 -0.1934 -0.0140 -1.5865
44013SOL    HW236402   9.525   4.135   2.564 -1.6298  0.1158  1.8403
44014SOL     OW36403   7.909   8.833   4.221 -0.1420 -0.4684  0.1059
44014SOL    HW136404   7.826   8.881   4.218  0.3700  0.4544  0.5089
44014SOL    HW236405   7.896   8.769   4.290 -0.9724 -1.2184 -0.7043
44015SOL     OW36406   7.256   6.752  10.870  0.1933  0.3748  0.6350
44015SOL    HW136407   7.172   6.768  10.915 -0.4777  0.0030 -0.4417
44015SOL    HW236408   7.303   6.693  10.929 -0.7429 -0.2601  0.7806
44016SOL     OW36409   2.664   4.180  11.030  0.5296  0.2224  0.3694
44016SOL    HW136410   2.708   4.184  10.945  0.8965 -0.4404  0.5191
44016SOL    HW236411   2.719   4.233  11.088  2.6916 -2.7046  1.2045
44017SOL     OW36412   9.469   1.127   9.295  0.0622  0.0741 -0.0728
44017SOL    HW136413   9.397   1.180   9.329  0.3169 -0.1549  0.8367
44017SOL    HW236414   9.443   1.036   9.314 -0.2894 -0.1510 -1.4623
44018SOL     OW36415   6.951   2.420   4.534 -0.4091  0.1093 -0.0316
44018SOL    HW136416   6.884   2.359   4.565  0.1855 -0.3918  0.2906
44018SOL    HW236417   7.024   2.409   4.595  1.1672 -1.5781 -2.0808
44019SOL     OW36418   1.064   8.927   2.600 -0.5099 -0.0799 -0.1080
44019SOL    HW136419   1.043   8.892   2.513  0.2854 -1.2014  0.1209
44019SOL    HW236420   1.138   8.985   2.586 -0.1198 -0.5769 -0.1379
44020SOL     OW36421   2.403   2.162   7.695  0.2611 -0.3099 -0.4532
44020SOL    HW136422   2.459   2.098   7.738 -0.7325 -0.2634  1.0081
44020SOL    HW236423   2.442   2.247   7.717  0.2434 -0.3245 -0.3644
44021SOL     OW36424   7.326   4.551   5.670  0.2463  0.5952 -0.0469
44021SOL    HW136425   7.418   4.534   5.650  0.0028  1.1583 -1.7985
44021SOL    HW236426   7.317   4.525   5.762  1.4488 -2.2972 -0.6304
44022SOL     OW36427   3.834   1.606   9.429 -1.5161  0.5249 -0.7050
44022SOL    HW136428   3.829   1.591   9.524  1.3622  0.8965 -0.4085
44022SOL    HW236429   3.851   1.700   9.421  0.9739  0.0931 -1.3630
44023SOL     OW36430   6.045   6.656   6.019 -0.4880  0.0255 -0.5790
44023SOL    HW136431   6.053   6.688   5.930 -0.7713  2.1554  0.0953
44023SOL    HW236432   6.135   6.652   6.052 -0.4546  0.1963 -0.6512
44024SOL     OW36433  10.181   3.345  11.107  0.0532 -0.8380  0.5603
44024SOL    HW136434  10.141   3.280  11.050 -0.5127 -0.3347  0.3667
44024SOL    HW236435  10.172   3.427  11.059 -0.0185 -0.4842  1.1690
44025SOL     OW36436   8.649   8.827   7.279  0.0918 -0.6367  0.2721
44025SOL    HW136437   8.736   8.865   7.285 -0.6927  1.5459 -0.9601
44025SOL    HW236438   8.625   8.806   7.369  1.3079  0.1371  0.7928
44026SOL     OW36439   9.592   2.158   4.972 -0.4388 -0.6886 -0.1131
44026SOL    HW136440   9.497   2.164   4.963 -0.4765  1.5065  1.0640
44026SOL    HW236441   9.608   2.171   5.066  1.0110 -0.9716 -0.3052
44027SOL     OW36442   5.369   1.967   9.235 -0.1459 -0.0008  0.1055
44027SOL    HW136443   5.412   2.021   9.302  0.1089 -1.5990  1.2708
44027SOL    HW236444   5.334   1.892   9.283 -0.2161 -1.0489 -1.5159
44028SOL     OW36445   6.970   7.225  10.874 -0.3206 -0.4789  0.3431
44028SOL    HW136446   6.953   7.219  10.780 -1.2687  2.0721  0.2621
44028SOL    HW236447   6.886   7.206  10.915  0.0454 -1.3981  0.6984
44029SOL     OW36448   4.753   9.196   4.176  0.3448 -0.0932 -0.4200
44029SOL    HW136449   4.765   9.169   4.267 -0.7055  3.1922  0.8197
44029SOL    HW236450   4.839   9.185   4.137  1.3079  0.1880  1.4987
44030SOL     OW36451   3.762   2.146   8.980  0.7608  0.0377  0.7437
44030SOL    HW136452   3.703   2.221   8.978 -0.5397 -0.8819 -2.1523
44030SOL    HW236453   3.850   2.183   8.985  0.3961  2.1314 -3.5255
44031SOL     OW36454   3.494  10.401   3.054  1.0989  0.3264  0.0922
44031SOL    HW136455   3.477  10.415   2.961  1.5410 -0.0577 -0.0488
44031SOL    HW236456   3.570  10.343   3.057 -0.4765 -1.8413  0.6434
44032SOL     OW36457   8.994   0.268   3.021  0.4586 -0.4284  0.0544
44032SOL    HW136458   8.973   0.185   3.065  1.1762 -0.0429  1.1527
44032SOL    HW236459   8.931   0.331   3.057 -0.0497 -0.4606 -0.7382
44033SOL     OW36460   4.573   0.003   7.258 -0.5624 -0.0898  0.0944
44033SOL    HW136461   4.549   0.012   7.350 -2.1493  1.0046 -0.3857
44033SOL    HW236462   4.498   0.037   7.210  0.8370  0.8198 -1.5790
44034SOL     OW36463   6.353   1.128   9.698 -0.2338 -0.9433 -0.3112
44034SOL    HW136464   6.425   1.115   9.761 -0.1377  0.0764 -0.1915
44034SOL    HW236465   6.310   1.042   9.693 -1.3858 -0.6725  2.5739
44035SOL     OW36466   5.742  10.245   6.808 -0.3867  0.0937 -0.5002
44035SOL    HW136467   5.670  10.184   6.823 -0.8275  0.8407  0.4866
44035SOL    HW236468   5.820  10.190   6.805 -0.7233 -0.4870  0.8331
44036SOL     OW36469   1.526   5.274   2.223  0.1868  0.6298  0.2020
44036SOL    HW136470   1.481   5.238   2.145 -0.0930 -0.2446  0.7475
44036SOL    HW236471   1.619   5.271   2.200  0.2691 -1.3923  0.5580
44037SOL     OW36472  10.978   3.400   9.006 -0.4863  0.0235  0.8779
44037SOL    HW136473  10.964   3.487   8.966  2.2618  0.5839  0.9166
44037SOL    HW236474  10.937   3.339   8.945  0.5538  1.1426 -1.0636
44038SOL     OW36475   8.757   9.817   1.491 -0.4800  0.5767  0.1070
44038SOL    HW136476   8.699   9.764   1.436 -0.5094  1.4690 -0.7451
44038SOL    HW236477   8.790   9.755   1.557 -1.1496 -0.3048 -0.3572
44039SOL     OW36478   5.336   4.008   3.400 -0.5533 -0.2376 -0.2707
44039SOL    HW136479   5.272   3.946   3.366  0.1614 -1.2754  0.2441
44039SOL    HW236480   5.418   3.985   3.356 -0.3880  0.6980 -0.4834
44040SOL     OW36481   2.488   7.908   4.128  0.3394  0.4521  0.1886
44040SOL    HW136482   2.419   7.969   4.155 -0.5084 -0.8654  1.1428
44040SOL    HW236483   2.568   7.961   4.125 -0.5086  1.7757  0.1488
44041SOL     OW36484   0.986   1.652   8.543  0.0114 -0.1253  0.0024
44041SOL    HW136485   0.906   1.702   8.563 -0.0615 -0.2164 -0.0604
44041SOL    HW236486   1.046   1.673   8.615  0.3586  0.8665 -0.5513
44042SOL     OW36487   6.690   0.093   5.335  0.2802 -0.1181 -0.2217
44042SOL    HW136488   6.783   0.080   5.317  0.5581  0.9377  0.3687
44042SOL    HW236489   6.669   0.030   5.404  1.0316  0.8724  0.9621
44043SOL     OW36490   2.967   5.982   4.012  0.1758  0.2522  0.4408
44043SOL    HW136491   2.918   5.904   4.039  0.6844  0.3990  1.8363
44043SOL    HW236492   3.004   6.017   4.093  0.9660  1.2618 -0.3303
44044SOL     OW36493   8.218   2.889   8.563  0.1675 -1.0746 -0.5895
44044SOL    HW136494   8.155   2.818   8.570 -1.2693  0.0879 -1.0612
44044SOL    HW236495   8.166   2.964   8.533  1.5336  0.2888  0.2928
44045SOL     OW36496   8.029   3.604   3.357 -0.0586 -0.3727 -0.3545
44045SOL    HW136497   8.064   3.517   3.338  1.1256 -0.0681  0.3174
44045SOL    HW236498   7.995   3.597   3.446 -0.2154 -0.2315 -0.4042
44046SOL     OW36499   3.735   9.171   2.176  0.0472 -0.1247  0.3098
44046SOL    HW136500   3.740   9.172   2.272 -1.0296 -1.3647  0.4116
44046SOL    HW236501   3.783   9.092   2.151 -0.3900 -0.2562 -0.1155
44047SOL     OW36502   9.410   4.369   9.661 -0.0238  0.6516  0.0715
44047SOL    HW136503   9.504   4.383   9.663  0.0307  0.4087 -0.6561
44047SOL    HW236504   9.399   4.278   9.634 -0.4793  1.0339 -1.0974
44048SOL     OW36505  10.776   0.744   6.489  0.2177  0.0562  0.1205
44048SOL    HW136506  10.686   0.741   6.457  0.4647  0.6049 -0.6598
44048SOL    HW236507  10.826   0.783   6.417  1.1899 -0.7959  0.3090
44049SOL     OW36508   3.611   5.282   5.233  0.2537  0.2552 -0.4824
44049SOL    HW136509   3.559   5.243   5.304 -0.1707  0.7400 -0.5211
44049SOL    HW236510   3.655   5.207   5.192 -1.4921 -0.3751 -1.3311
44050SOL     OW36511   7.362   7.195   5.480  0.6855 -0.0554 -0.0489
44050SOL    HW136512   7.455   7.170   5.477  0.5028 -0.6353 -1.2111
44050SOL    HW236513   7.336   7.202   5.389 -0.4951 -0.1747  0.2653
44051SOL     OW36514   4.471   3.868   8.150  0.3461 -0.0308 -0.4044
44051SOL    HW136515   4.411   3.938   8.125 -0.8011 -0.0702  2.0003
44051SOL    HW236516   4.545   3.913   8.190  1.0241 -0.0865 -1.5560
44052SOL     OW36517   5.726  11.015   7.172 -0.1315 -0.3700 -0.2849
44052SOL    HW136518   5.665  11.076   7.129  1.6972  0.9951 -1.0707
44052SOL    HW236519   5.711  10.931   7.129 -1.1975  0.0043 -0.6871
44053SOL     OW36520   7.973   4.852   3.651 -0.1124  0.1121 -0.3409
44053SOL    HW136521   7.928   4.769   3.663 -1.0372  0.6471 -0.0660
44053SOL    HW236522   8.013   4.845   3.564  1.0939 -1.1908  0.2684
44054SOL     OW36523   1.367   1.190   3.724  0.2005 -0.1730 -0.1035
44054SOL    HW136524   1.318   1.197   3.806  0.8187  0.1458  0.2454
44054SOL    HW236525   1.364   1.278   3.686 -0.7931 -0.5046 -0.8574
44055SOL     OW36526   2.240   5.856   9.439  0.4118  0.1665 -0.5174
44055SOL    HW136527   2.306   5.926   9.438  0.9266 -0.3123 -0.3446
44055SOL    HW236528   2.217   5.846   9.531  1.1936 -0.6861 -0.4088
44056SOL     OW36529   8.491   9.499   6.848 -0.0134 -0.3231  0.1733
44056SOL    HW136530   8.489   9.418   6.899  1.9597 -0.1166  0.6804
44056SOL    HW236531   8.584   9.512   6.828 -0.4927  0.8594 -1.4797
44057SOL     OW36532   5.588   6.189   1.128 -0.8516 -0.2768  0.0482
44057SOL    HW136533   5.630   6.274   1.138  0.0122 -0.7501  0.5474
44057SOL    HW236534   5.568   6.162   1.218  1.7953 -2.0127  0.2403
44058SOL     OW36535   7.030   0.363   4.347 -0.0780 -0.6399 -0.8251
44058SOL    HW136536   7.028   0.454   4.377 -1.3458 -1.0190  0.3768
44058SOL    HW236537   6.949   0.353   4.297  0.9008 -0.6585 -2.4767
44059SOL     OW36538   8.102   1.156   4.930  0.0249 -0.2854 -0.3363
44059SOL    HW136539   8.137   1.068   4.941  1.7893  0.5297  1.0024
44059SOL    HW236540   8.141   1.188   4.849  2.5490  0.6025  1.1201
44060SOL     OW36541   3.944   2.268   0.295  0.3144  0.1623  0.2719
44060SOL    HW136542   3.995   2.279   0.215 -0.1542  1.1720  0.0846
44060SOL    HW236543   3.939   2.357   0.332 -4.5628  1.1046 -1.7482
44061SOL     OW36544  10.876   5.213   9.565 -0.3638  0.2747 -0.1871
44061SOL    HW136545  10.928   5.285   9.601 -0.6960  0.2228  0.4038
44061SOL    HW236546  10.913   5.199   9.478 -0.3322  1.1879 -0.3317
44062SOL     OW36547  11.050   1.721   9.700  0.6866 -0.0779  0.3160
44062SOL    HW136548  11.064   1.804   9.655  2.2546 -0.6069 -0.2499
44062SOL    HW236549  10.959   1.724   9.729 -0.8536 -0.1000 -3.8045
44063SOL     OW36550   9.329   5.624   7.532 -0.1495  0.0964 -0.5014
44063SOL    HW136551   9.409   5.677   7.524 -0.2672  0.4343  0.3999
44063SOL    HW236552   9.302   5.636   7.623 -0.7353 -0.7329 -0.5581
44064SOL     OW36553   4.102   5.731   6.006  0.2505 -0.0488  0.3180
44064SOL    HW136554   4.069   5.728   5.916  0.3725  0.4882  0.2501
44064SOL    HW236555   4.025   5.755   6.059  0.3134  0.2391  0.2802
44065SOL     OW36556   0.253   8.432   0.620  0.2838 -0.2438  0.1719
44065SOL    HW136557   0.296   8.512   0.652 -0.2221 -0.2556  0.9026
44065SOL    HW236558   0.320   8.364   0.626  1.1391  0.3675 -1.7012
44066SOL     OW36559  10.020   0.795   8.548 -0.3527  0.2188  0.1309
44066SOL    HW136560   9.944   0.770   8.600 -0.0546 -1.0339  0.0047
44066SOL    HW236561  10.080   0.836   8.611  0.5721 -2.4553  1.1695
44067SOL     OW36562   2.721   0.542   9.191 -0.3681  0.5311  0.0210
44067SOL    HW136563   2.665   0.618   9.173  1.4902  1.3497 -3.2673
44067SOL    HW236564   2.687   0.473   9.134 -0.9734 -0.5942  1.6872
44068SOL     OW36565   8.269   5.227   3.302  0.5487 -0.0825  0.1952
44068SOL    HW136566   8.245   5.134   3.304  0.1303  0.0115 -0.3012
44068SOL    HW236567   8.268   5.254   3.394 -3.0526  0.3618  0.1753
44069SOL     OW36568   6.002   0.304   8.493  0.1762 -0.4421 -0.6584
44069SOL    HW136569   6.068   0.320   8.561  0.4413 -1.4630 -0.6536
44069SOL    HW236570   5.995   0.387   8.445 -0.4988  0.5282  1.0127
44070SOL     OW36571   7.171   0.944   5.783 -0.1295  0.9081 -0.1319
44070SOL    HW136572   7.165   0.897   5.866  0.1870 -0.6724 -0.9782
44070SOL    HW236573   7.256   0.919   5.747  0.1109  2.2408 -0.5699
44071SOL     OW36574   6.890  11.108   1.220  0.2218 -0.1408 -0.5260
44071SOL    HW136575   6.807  11.139   1.257  0.4236  0.7536 -0.8222
44071SOL    HW236576   6.876  11.111   1.126  0.1597 -1.2039 -0.5644
44072SOL     OW36577   2.657   2.515   4.445 -0.0360  0.4663  0.2920
44072SOL    HW136578   2.656   2.423   4.418 -1.1844  0.1156  1.3996
44072SOL    HW236579   2.674   2.512   4.540 -1.8412  1.2443  0.6922
44073SOL     OW36580   3.959   4.239   1.561 -0.3972 -0.1713  0.4314
44073SOL    HW136581   3.998   4.231   1.648  0.1033 -2.1603  0.0654
44073SOL    HW236582   3.887   4.176   1.562 -0.2499 -0.3636 -0.6532
44074SOL     OW36583   3.420   2.113   9.113  0.2028 -0.1438  0.4373
44074SOL    HW136584   3.457   2.173   9.048 -0.7646  1.1508  1.0439
44074SOL    HW236585   3.430   2.158   9.197 -1.2015 -0.4889  0.8176
44075SOL     OW36586   6.519   4.185   4.777  0.0905 -0.3758 -0.0225
44075SOL    HW136587   6.495   4.272   4.808  1.2684  0.3779 -1.1216
44075SOL    HW236588   6.590   4.158   4.835  0.5288 -0.0794 -0.4110
44076SOL     OW36589   0.568   5.826   4.575  0.2004  0.3600 -0.2892
44076SOL    HW136590   0.551   5.896   4.512  2.2724 -0.9102 -2.4256
44076SOL    HW236591   0.489   5.773   4.575  0.7047 -0.5051 -3.1198
44077SOL     OW36592   8.944   5.515   9.905  0.0112 -0.3593  0.1063
44077SOL    HW136593   8.967   5.568   9.829 -0.1647 -0.5524 -0.0847
44077SOL    HW236594   8.856   5.544   9.929 -0.1584 -0.6877 -0.1102
44078SOL     OW36595  10.734   7.679   3.082  0.0093 -0.5701  0.3805
44078SOL    HW136596  10.692   7.695   2.997 -3.4749  0.7744  2.1202
44078SOL    HW236597  10.807   7.741   3.085 -1.4769  1.3769 -0.6682
44079SOL     OW36598   8.286  10.495   6.783  0.1267  0.8226  0.6088
44079SOL    HW136599   8.239  10.416   6.756 -2.3076  1.6110  2.1139
44079SOL    HW236600   8.258  10.562   6.720  0.7296  0.8900  0.4112
44080SOL     OW36601   4.226   0.281   4.610 -0.1417 -0.2486 -0.0446
44080SOL    HW136602   4.152   0.301   4.553 -0.4366  0.4892  0.5881
44080SOL    HW236603   4.246   0.189   4.591 -0.7384 -0.2396 -0.7556
44081SOL     OW36604   9.151   6.055   6.070 -0.4240 -0.1014  0.3715
44081SOL    HW136605   9.095   5.978   6.080  0.8113 -0.8246  2.3383
44081SOL    HW236606   9.152   6.095   6.158 -1.4124  2.4899 -0.6845
44082SOL     OW36607   4.743  10.525   6.590  0.0360  0.0354 -0.0083
44082SOL    HW136608   4.831  10.560   6.579 -0.7766  2.1218 -0.2387
44082SOL    HW236609   4.685  10.590   6.551 -1.6347 -1.2772  0.1235
44083SOL     OW36610   2.737   5.428   3.442 -0.1701  0.4003 -0.5589
44083SOL    HW136611   2.753   5.509   3.393  0.6537  0.4266 -0.2725
44083SOL    HW236612   2.650   5.400   3.415 -1.2437  2.3339  0.6316
44084SOL     OW36613   1.277   1.348   8.655  0.0285 -0.1046 -0.3393
44084SOL    HW136614   1.346   1.293   8.691 -0.4423 -0.7051 -0.3517
44084SOL    HW236615   1.255   1.308   8.571 -0.4138  0.0212 -0.2853
44085SOL     OW36616   5.060   8.900   0.250  0.5367 -0.1442 -0.4863
44085SOL    HW136617   5.030   8.990   0.264 -1.5800 -0.7374 -0.9544
44085SOL    HW236618   5.083   8.896   0.157  1.3682  0.0949 -0.3002
44086SOL     OW36619   1.184   5.592   6.597 -0.2169 -0.0676  0.4534
44086SOL    HW136620   1.166   5.528   6.529  0.2329  0.1644  0.1172
44086SOL    HW236621   1.118   5.574   6.664  0.8025 -1.8394  1.0431
44087SOL     OW36622   8.348  10.394   2.289 -0.8042  0.1603  0.4503
44087SOL    HW136623   8.360  10.407   2.383 -1.4022 -2.1345  0.9215
44087SOL    HW236624   8.434  10.370   2.256 -0.2466  2.4651  0.0460
44088SOL     OW36625   8.832   2.116   7.873  0.2753  0.1777 -0.0681
44088SOL    HW136626   8.851   2.208   7.853  0.4229 -0.1525 -1.4934
44088SOL    HW236627   8.765   2.091   7.810  0.5044 -0.8149  0.0754
44089SOL     OW36628   9.416  10.688   9.366 -0.6540 -0.5080  0.2256
44089SOL    HW136629   9.344  10.652   9.315 -0.8931 -1.7750  1.3841
44089SOL    HW236630   9.373  10.734   9.438 -0.3188 -0.5961  0.4856
44090SOL     OW36631   5.670   7.158   7.230 -0.6324 -0.0190 -0.0219
44090SOL    HW136632   5.723   7.078   7.230  0.5256  0.6984 -1.5232
44090SOL    HW236633   5.729   7.226   7.262 -0.8982  0.6461 -0.9195
44091SOL     OW36634   3.607   2.627  10.685 -0.1617 -0.8099  0.0903
44091SOL    HW136635   3.669   2.597  10.751  0.7719  0.9525  0.0629
44091SOL    HW236636   3.637   2.587  10.604  1.6143  0.7916 -0.1146
44092SOL     OW36637   2.016   1.493   3.949 -0.4245 -0.0102  0.4702
44092SOL    HW136638   2.013   1.584   3.977 -0.8405  0.5483 -1.2606
44092SOL    HW236639   2.093   1.488   3.893 -0.7471 -0.5696  0.0646
44093SOL     OW36640   1.415   4.675   5.052 -0.2420 -0.2828 -0.1414
44093SOL    HW136641   1.338   4.729   5.038 -0.2464 -0.3438 -0.3526
44093SOL    HW236642   1.391   4.616   5.123 -0.1780  0.1068  0.2050
44094SOL     OW36643   4.361  10.068   3.415 -0.0802 -0.4978 -0.4826
44094SOL    HW136644   4.267  10.082   3.423 -0.2059 -1.5728  0.0370
44094SOL    HW236645   4.370   9.975   3.395  0.9578 -0.9440  1.7674
44095SOL     OW36646   9.867   9.277   5.862  0.1900 -0.1428 -0.0328
44095SOL    HW136647   9.918   9.198   5.882  0.1632 -0.4836 -1.2271
44095SOL    HW236648   9.800   9.280   5.930  1.2020 -0.2259  0.9919
44096SOL     OW36649   5.848   5.828  10.534  0.3707 -0.1473  0.3963
44096SOL    HW136650   5.841   5.916  10.571  2.7870 -0.1701  1.0720
44096SOL    HW236651   5.925   5.831  10.478 -1.9614 -0.7010 -3.1680
44097SOL     OW36652   3.049   6.568  10.017 -0.2147 -0.0386 -0.3207
44097SOL    HW136653   3.111   6.510   9.972  1.1979  1.0153  0.1595
44097SOL    HW236654   3.095   6.593  10.097 -1.2833  0.7876  0.0516
44098SOL     OW36655  10.821   6.684   7.638  0.0327  0.0339 -0.4966
44098SOL    HW136656  10.758   6.753   7.616 -2.3198 -1.7740  0.1162
44098SOL    HW236657  10.846   6.703   7.728  2.2766  2.0430 -1.4233
44099SOL     OW36658   1.957   2.401   4.797 -0.0497  0.3694 -0.3736
44099SOL    HW136659   1.959   2.490   4.760 -0.8692  0.5020 -0.1074
44099SOL    HW236660   2.002   2.410   4.881  0.5172  0.3729 -0.6705
44100SOL     OW36661   9.321   8.632   0.596 -0.3689  0.0668  0.3228
44100SOL    HW136662   9.273   8.651   0.516 -0.1178  1.9851  0.5704
44100SOL    HW236663   9.255   8.642   0.666 -0.4662 -1.0773  0.4087
44101SOL     OW36664  10.005  10.491  11.048 -0.5386  0.9572  0.2117
44101SOL    HW136665  10.092  10.478  11.086 -0.7294  0.1246  0.3837
44101SOL    HW236666   9.994  10.586  11.046 -0.0152  1.0546  1.0839
44102SOL     OW36667   7.097   8.176   0.897  0.4489 -0.0033  0.2978
44102SOL    HW136668   7.179   8.126   0.903 -0.8347 -2.1971  0.5110
44102SOL    HW236669   7.037   8.130   0.955 -0.6605  2.2099  1.0045
44103NA      NA36670   6.151   1.883   9.196 -0.3070 -0.1259 -0.0539
44104NA      NA36671   4.026   3.989   5.915 -0.3250 -0.3986  0.2438
44105NA      NA36672   3.837   3.596   6.695  0.2571 -0.0072 -0.4093
44106NA      NA36673   7.208   8.827   3.604  0.1182 -0.3449  0.0061
44107NA      NA36674   7.698   7.510  11.033  0.3040  0.2433 -0.1153
44108NA      NA36675   8.266  10.841   2.159 -0.1126 -0.0332  0.0312
44109NA      NA36676   6.895   9.534   0.390  0.4454 -0.0531 -0.1637
44110NA      NA36677   8.209   0.062   8.348 -0.6837  0.0672 -0.5062
44111NA      NA36678   4.791   3.570  10.449 -0.0029  0.7923 -0.0152
44112NA      NA36679   8.980   7.092   0.086  0.2249 -0.2282 -0.0672
44113NA      NA36680   4.076   1.226   1.717  0.1637  0.2149 -0.3698
44114NA      NA36681   2.453   3.770   1.544  0.2797  0.2753  0.0257
44115NA      NA36682  10.688   4.666   6.639  0.2081  0.2544 -0.4078
44116NA      NA36683   8.852   9.271   9.047  0.0571  0.0205  0.3342
44117NA      NA36684   2.645   3.313   1.815 -0.1920  0.6635 -0.0537
44118NA      NA36685   9.304   2.252   4.582  0.9560 -0.0920  0.0569
44119NA      NA36686   1.322  10.934   8.386  0.1226  0.5013 -0.0064
44120NA      NA36687   5.333   4.237   7.656 -0.0006 -0.3133 -0.1874
44121NA      NA36688   3.443   4.042   2.829 -0.4465 -0.7209 -0.4833
44122NA      NA36689   8.761   3.114   6.736 -0.4657  0.7137  0.0482
44123NA      NA36690   6.030  10.694   1.036 -0.0839 -0.1210  0.1221
44124NA      NA36691   0.954   2.969   5.827  0.3270  0.4103 -0.0306
44125NA      NA36692  10.348   5.519   4.005  0.2102 -0.7106  0.0731
44126NA      NA36693   1.058   6.401   2.245  0.1097 -0.0772  0.2479
44127NA      NA36694   0.399   9.845   4.326 -0.3110  0.3855 -0.2613
44128NA      NA36695   9.586   0.985  10.281 -0.1970  0.0269  0.4560
44129NA      NA36696   4.736   3.663   5.996 -0.6377  0.7050  0.3829
44130NA      NA36697   9.990   4.643   5.158  0.0394  0.2638 -0.0623
44131NA      NA36698   8.714  10.170   6.892  0.1577 -0.2907 -0.4142
44132NA      NA36699   1.063   5.825   1.477 -0.5040  0.0384 -0.1111
44133NA      NA36700  10.516  10.164   5.778  0.3296 -0.1586 -0.0308
44134NA      NA36701   4.261  10.347   7.191 -0.1090  0.1237  0.1278
44135NA      NA36702   8.161   7.778   1.400  0.0392  0.1163  0.7376
44136NA      NA36703  10.911   1.176   1.314 -0.0175 -0.1767  0.0384
44137NA      NA36704   0.888   2.802   7.316  0.3458 -0.1578 -0.3233
44138NA      NA36705  10.119   8.741   9.761  0.5300  0.4068 -0.3143
44139NA      NA36706   3.339   5.670   0.414 -0.5601  0.3321 -0.5302
44140NA      NA36707   9.673   4.720   3.810 -0.5504 -0.0160  0.1283
44141NA      NA36708   5.344   9.125   4.486 -0.2828 -0.3690 -0.5200
44142NA      NA36709   1.533   3.373   0.025  0.0989  0.4759  0.2494
44143NA      NA36710   6.957   2.380   8.889  0.0963 -0.1847  0.1776
44144NA      NA36711   5.192   7.880   5.839  0.2189  0.1632 -0.3349
44145NA      NA36712   1.126   6.043   6.954  0.2083 -0.1032 -0.3205
44146NA      NA36713   1.464   0.615   9.258 -0.1307 -0.7235 -0.2671
44147NA      NA36714   5.900   4.757   0.414 -0.5635  0.3659 -0.1489
44148NA      NA36715   6.306   5.364   1.326  0.0862 -0.1957 -0.2411
44149NA      NA36716   8.367   2.525   7.641 -0.1743 -0.4151 -0.1396
44150NA      NA36717   4.907   9.845   9.942  0.0051  0.6202  0.2027
44151NA      NA36718   1.038   7.387   2.301  0.0772  0.6880  0.0352
44152NA      NA36719  10.796   0.281   2.022  0.2288 -0.0887  0.3510
44153NA      NA36720   6.242   6.476   3.141 -1.0781  0.4231  0.4186
44154NA      NA36721   7.210   4.671  10.758  0.6391  0.0037 -0.0496
44155NA      NA36722   9.828   8.259   8.137  0.2755 -0.0821 -0.1497
44156NA      NA36723   9.080   3.290   1.123  0.4340 -0.2657  0.6431
44157NA      NA36724   3.744   2.770   3.389  0.2308 -0.0811 -0.3680
44158NA      NA36725   2.293   8.808   7.733 -0.1664 -0.3452  0.5382
44159NA      NA36726   9.513   0.485   7.862 -0.2203  0.1788  0.0127
44160NA      NA36727   1.779  10.914   9.556  0.3322 -0.1022 -0.3877
44161NA      NA36728   7.171   4.340   1.397 -0.1371  0.1738  0.2699
44162NA      NA36729   7.348   5.075   7.518  0.0704 -0.1697  0.3952
44163NA      NA36730   3.815   5.766   9.371  0.3484 -0.5336  0.4025
44164NA      NA36731   1.217   9.265   9.562  0.0669 -0.3616 -0.0042
44165NA      NA36732   5.127   2.809   6.828 -0.0177  0.3999  0.1155
44166NA      NA36733   6.363   2.789  10.994 -0.1624 -0.0802 -0.0567
44167NA      NA36734   0.554   2.539  10.778 -0.4187 -0.3368 -0.2128
44168NA      NA36735   1.569   2.020   8.663  0.0281  0.3138  0.1215
44169NA      NA36736   6.435   7.709   7.012 -0.4329 -0.0801  0.6793
44170NA      NA36737   7.764  10.902   0.447 -0.3033 -0.0161  0.2496
44171NA      NA36738   8.871   2.456   3.589 -0.1019 -0.5575 -0.3777
44172NA      NA36739   8.553   2.941  10.542 -0.3567  0.3260 -0.1242
44173NA      NA36740   9.395   2.516   8.138  0.4729 -0.2827  0.3084
44174NA      NA36741   3.878   7.018   6.338  0.2295  0.0997 -0.3112
44175NA      NA36742  10.692   3.040  10.581  0.2344 -0.4350 -0.0082
44176NA      NA36743   6.745   4.147   5.922 -0.3353  0.1681  0.1363
44177NA      NA36744   8.714   6.757   4.575  0.1603 -0.2218  1.1477
44178NA      NA36745   1.146   2.914  10.284 -0.0345 -0.7696 -0.0273
44179NA      NA36746   4.228   9.957   4.650  0.3451 -0.1755 -0.0372
44180NA      NA36747   5.883   1.771   8.603  0.1395  0.0743 -0.2178
44181NA      NA36748   8.133   0.774   9.137  0.2085 -0.3402  0.3730
44182NA      NA36749   8.231   7.916   8.153  0.0381  0.5533  0.1443
44183NA      NA36750   2.992   5.796   1.379 -0.1334  0.6413 -0.2215
44184NA      NA36751   7.036   9.363   7.524  0.2529 -0.4351  0.2624
44185NA      NA36752   0.962   0.818   9.449  0.0465 -0.0917 -0.0247
44186NA      NA36753   4.271   3.868   0.354  0.4739 -0.3209  0.3884
44187NA      NA36754   0.524   9.004  11.098 -0.1921 -0.1463 -0.2000
44188NA      NA36755   7.185   3.826   2.284 -0.4309 -0.1688 -0.0879
44189NA      NA36756   5.998   4.995   4.561  0.5420 -0.2007  0.5546
44190NA      NA36757   7.584   0.362   3.649  0.2890 -0.4623 -0.4511
44191NA      NA36758   6.157   9.471   6.055  0.1631  0.1103 -0.1078
44192NA      NA36759   1.186   8.932  10.802 -0.2143 -0.1574  0.7241
44193NA      NA36760   8.705   1.666   8.975  0.1298 -0.0538 -0.1471
44194NA      NA36761   5.767   6.812   0.853  0.1347  0.5270 -0.3224
44195NA      NA36762   4.974   0.083   8.580  0.1859 -0.3993  0.2057
44196NA      NA36763   0.814   1.328   5.482  0.1915  0.2316 -0.3431
44197NA      NA36764   4.720   8.812   1.805  0.6191 -0.1624 -0.3012
44198NA      NA36765   2.433   1.413   1.456 -0.9845 -0.0906  0.2118
44199NA      NA36766   4.282   0.332   4.821 -0.0094  0.0245  0.1714
44200NA      NA36767   1.221   7.272   3.901 -0.1973 -0.3788 -0.2228
44201NA      NA36768   4.643   5.850   6.543  0.1387 -0.3849  0.5046
44202NA      NA36769   1.712   7.333   8.577 -0.4703  0.2676 -0.2012
44203NA      NA36770   5.715   8.285   3.954  0.2575 -0.0636 -0.1587
44204NA      NA36771   0.822   0.370  10.855  0.1322 -0.0982  0.0198
44205NA      NA36772   4.822   3.608   7.871  0.0928 -0.3307 -0.1138
44206NA      NA36773   3.027   6.703   2.307  0.1811  0.0921 -0.1547
44207NA      NA36774   1.516   5.469   7.937  0.1652 -0.1314  0.3752
44208NA      NA36775   5.200   2.347   4.161  0.3016  0.0585  0.3199
44209NA      NA36776   6.639   2.448   4.196  0.0477  0.0732  0.1551
44210NA      NA36777   3.678   5.167   9.341  0.4022  0.1118  0.5956
44211NA      NA36778   5.903   9.711   9.007 -0.0190 -0.5386  0.4522
44212NA      NA36779   5.672  10.851   7.869  0.5157 -0.3934 -0.1960
44213NA      NA36780   0.719   9.147   1.718  0.2308  0.1457 -0.1317
44214NA      NA36781   8.624   6.502  10.460  0.1733  0.2771 -0.1041
44215NA      NA36782   7.714   4.022   0.725 -0.0209  0.2816  0.0963
44216NA      NA36783   8.715   8.383   6.047  0.2097  0.0991  0.1576
44217NA      NA36784   0.519   8.819   8.412  0.7727  0.0183  0.2625
44218NA      NA36785   4.333   2.031   5.958  0.5467 -0.1473 -0.2604
44219NA      NA36786   0.267   4.050   9.189 -0.0470  0.3967  0.7740
44220NA      NA36787   3.854   7.520   1.535  0.0725  0.0128  0.2864
44221NA      NA36788   5.460   2.843   5.293 -0.5741 -0.2237 -0.1759
44222NA      NA36789   7.206   4.080   4.438 -0.0275 -0.2852 -0.0268
44223NA      NA36790  10.675   4.767   8.154  0.6256  0.4273 -0.2339
44224NA      NA36791   8.271   4.613   5.759  0.4517 -0.2133  0.7516
44225NA      NA36792   5.470   6.197   3.699  0.2476  0.1315 -0.4034
44226NA      NA36793   0.093   1.652  10.411  0.4162 -0.4379 -0.3815
44227NA      NA36794   7.975   5.837   2.032  0.1622 -0.2535  0.3295
44228NA      NA36795   6.235   0.506   1.421  0.3294 -0.4374 -0.1851
44229NA      NA36796   9.062  10.481  10.162  0.4819 -0.3328  0.1145
44230NA      NA36797   0.066  10.430   2.503 -0.3885 -0.2674  0.3452
44231CL      CL36798   9.177   1.465   9.534 -0.2320  0.3793 -0.0387
44232CL      CL36799   3.989   5.352   0.763  0.1072  0.6854  0.3827
44233CL      CL36800   7.868  10.942   8.165 -0.2079  0.3650 -0.0887
44234CL      CL36801   5.384   3.054   9.127 -0.0167  0.0939  0.1301
44235CL      CL36802   0.855   7.673   0.267  0.0647  0.1530 -0.3944
44236CL      CL36803   9.938   2.573   9.229 -0.0798  0.1569 -0.2677
44237CL      CL36804   6.175   5.428   3.663  0.4008 -0.1371  0.1411
44238CL      CL36805   9.458   0.757  10.355  0.2093  0.1170 -0.0130
44239CL      CL36806   4.661   2.517   3.750 -0.0891 -0.2103  0.0986
44240CL      CL36807   0.274   5.077   2.547 -0.1349  0.0924  0.2859
44241CL      CL36808   6.643   8.390   5.758 -0.3714  0.1472  0.4102
44242CL      CL36809   5.678   2.478  10.157 -0.2491 -0.1114  0.0326
44243CL      CL36810   2.321   6.403  10.209  0.2181  0.2400  0.1009
44244CL      CL36811   1.138   5.631   7.539 -0.2517  0.3329  0.2901
44245CL      CL36812   0.822   9.075   1.515  0.2253  0.1256 -0.3208
44246CL      CL36813   8.507   3.330   3.049 -0.1190 -0.2657 -0.0033
44247CL      CL36814   0.908   8.625   0.051 -0.0356 -0.4018 -0.1200
44248CL      CL36815   7.570  10.676   6.923  0.2806  0.2018  0.7203
44249CL      CL36816   6.642   1.537   8.598  0.5277 -0.0008  0.3691
44250CL      CL36817   1.921   8.587   8.277  0.5435  0.1100  0.0001
44251CL      CL36818   4.324   3.082   2.176 -0.3244  0.1722  0.3108
44252CL      CL36819   9.467   8.068   8.407 -0.7201  0.1647  0.0749
44253CL      CL36820   8.779   5.399  10.997  0.0647  0.3572 -0.0252
44254CL      CL36821   4.007   7.548   1.345 -0.2018  0.0615  0.4672
44255CL      CL36822   2.808   4.010   8.376  0.0094  0.0367 -0.0142
44256CL      CL36823   8.121   3.463  10.420 -0.1095  0.0042 -0.0446
44257CL      CL36824  10.031   5.256   4.474  0.1297 -0.2414  0.1989
44258CL      CL36825   0.313   5.643   1.461 -0.3621 -0.2409 -0.8846
44259CL      CL36826   7.678   9.236   7.655  0.4607  0.0929  0.3547
44260CL      CL36827   2.861  10.883   7.093  0.0167 -0.2699  0.1032
44261CL      CL36828   0.594   9.687  11.020  0.1720 -0.2648 -0.0203
44262CL      CL36829   5.504   1.305   5.587  0.0436 -0.2509  0.2339
44263CL      CL36830   3.036   6.883   4.284 -0.1476  0.1360 -0.0190
44264CL      CL36831   8.514   8.807   9.792 -0.1695  0.2044 -0.3914
44265CL      CL36832   3.268   7.363   3.963  0.1004 -0.2100  0.4939
44266CL      CL36833   0.619   0.947   2.234 -0.5106  0.2058  0.1062
44267CL      CL36834   8.740   3.511   6.028 -0.0168 -0.2084 -0.0413
44268CL      CL36835   5.745   7.033   0.780 -0.1879  0.5457  0.1005
44269CL      CL36836   5.385   4.457   0.742  0.3122  0.3885  0.0917
44270CL      CL36837   1.712   4.456   9.913  0.3342  0.0985  0.4156
44271CL      CL36838   6.343   3.568   7.322 -0.0305 -0.0087  0.0133
44272CL      CL36839  10.689   6.193   7.087  0.1543  0.0972 -0.1127
44273CL      CL36840   7.395   6.293  10.645  0.1741  0.0588  0.0877
44274CL      CL36841   6.213   7.769   7.049  0.2642 -0.0355  0.0050
44275CL      CL36842   9.950   0.398   7.820  0.2164 -0.1353 -0.0903
44276CL      CL36843   3.584   4.249   1.769 -0.1542 -0.0605 -0.0144
44277CL      CL36844   2.865   5.845   0.954  0.4953  0.4572  0.0886
44278CL      CL36845  10.028   1.848  10.861 -0.0025 -0.1164 -0.1321
44279CL      CL36846   2.289   3.170   9.598  0.4138  0.2432 -0.1434
44280CL      CL36847   1.946   7.438   7.036 -0.1666  0.0734  0.1333
44281CL      CL36848   4.987   9.690   9.776  0.4212  0.2546 -0.1395
44282CL      CL36849  10.805  10.951   1.867  0.2300 -0.0456 -0.0728
44283CL      CL36850   8.964   4.968  10.701 -0.4113 -0.2509 -0.1193
44284CL      CL36851   2.282   0.452   2.667  0.0315  0.3517 -0.2474
44285CL      CL36852   6.428  10.860  10.807  0.3085  0.0549  0.0750
44286CL      CL36853   5.053   3.745   3.043 -0.1412  0.0453 -0.1703
44287CL      CL36854   5.044   1.677   5.926 -0.1739 -0.7311  0.0326
44288CL      CL36855   4.817   8.364   5.894  0.3347  0.3481  0.1005
44289CL      CL36856   6.579   4.886   7.492  0.3336  0.0632 -0.2514
44290CL      CL36857   7.150   0.263   2.825 -0.1133  0.1738  0.1880
44291CL      CL36858   0.165   1.887  10.883 -0.1508 -0.2431  0.1938
44292CL      CL36859   6.919   6.774   1.562 -0.1187 -0.0178 -0.2214
44293CL      CL36860   0.190   6.142   1.586 -0.2852 -0.0833 -0.2082
44294CL      CL36861   1.901   0.495   5.876  0.0657 -0.1130 -0.3076
44295CL      CL36862   8.470   5.795   3.097  0.1991 -0.0814  0.6787
44296CL      CL36863   4.206   6.376   6.575 -0.3084  0.0386 -0.2271
44297CL      CL36864   9.662   6.966   4.742 -0.1040  0.0436 -0.0419
44298CL      CL36865   8.526   1.824   9.049  0.2106  0.2839 -0.2240
44299CL      CL36866   3.644   9.705   8.783 -0.2812 -0.3468  0.1279
44300CL      CL36867   4.573   3.436   9.841 -0.2304  0.0458  0.4323
44301CL      CL36868   1.183   9.827  10.458 -0.1227  0.0315  0.0467
44302CL      CL36869   1.098   1.789   1.675  0.0947 -0.1691  0.4665
44303CL      CL36870   2.890  10.868   9.136  0.1272  0.3129 -0.3079
44304CL      CL36871   5.537   2.384   9.180  0.4469  0.5945 -0.3591
44305CL      CL36872  10.951   5.112   8.122 -0.3914 -0.3228 -0.2883
44306CL      CL36873   6.684   9.395   5.008  0.3530  0.1510  0.2814
44307CL      CL36874   8.407   2.687   5.920 -0.1137  0.5058 -0.0996
44308CL      CL36875   3.684   8.055   8.557 -0.3121  0.1802  0.3571
44309CL      CL36876   8.816   3.038   8.854 -0.2709 -0.1047 -0.3128
44310CL      CL36877   9.131   9.187  10.793 -0.1922  0.2763 -0.1971
44311CL      CL36878   6.176  10.503   2.518 -0.0070 -0.2290 -0.1042
44312CL      CL36879   0.046  10.787   0.179  0.5388 -0.0075  0.3292
44313CL      CL36880   2.345   7.061   8.540  0.2484  0.1917 -0.1520
44314CL      CL36881   8.232  11.115   3.535 -0.1389 -0.3874  0.0328
44315CL      CL36882   5.747   7.714   8.039  0.3503 -0.0472 -0.1129
44316CL      CL36883  10.344  10.018   4.173  0.1517 -0.0433 -0.3528
44317CL      CL36884   2.099   4.198   1.553  0.1317  0.5538  0.3209
44318CL      CL36885  10.071   3.863   2.793 -0.2009  0.0703 -0.2952
44319CL      CL36886   3.098  10.646   1.215 -0.0530 -0.0438  0.2523
44320CL      CL36887   7.983   2.821   6.807  0.4250  0.1360  0.0110
44321CL      CL36888   6.662   1.989   0.398 -0.3524 -0.3832 -0.6209
44322CL      CL36889   0.874   1.472   5.914 -0.1870 -0.0528  0.2892
44323CL      CL36890   6.678   6.793   4.774  0.1965 -0.6366  0.1633
44324CL      CL36891   5.994   2.951   6.347 -0.4449  0.2318  0.4519
44325CL      CL36892   5.881   6.175   3.690  0.0774 -0.2263  0.0097
44326CL      CL36893   6.961   4.200   9.164  0.1220 -0.2478 -0.1068
44327CL      CL36894   5.250  10.956   7.930  0.2275 -0.2153 -0.1053
44328CL      CL36895   1.377   1.479   3.642  0.2020  0.2603 -0.3877
44329CL      CL36896   7.599   4.126   0.921  0.2661  0.4297  0.1920
44330CL      CL36897   1.474   8.404  10.572 -0.0909  0.2604  0.2271
44331CL      CL36898   4.682   0.311   3.006 -0.3575  0.1326 -0.4406
44332CL      CL36899  10.545   0.828   0.653 -0.3252  0.1175 -0.1375
44333CL      CL36900   5.966  10.193   4.383  0.3511 -0.0665  0.2810
44334CL      CL36901   7.864   9.380   3.049 -0.2442  0.3110 -0.0761
44335CL      CL36902   4.590  10.114   6.376  0.0300  0.0378 -0.2205
44336CL      CL36903   8.776   2.368   1.072  0.1197 -0.6804  0.1933
44337CL      CL36904   6.746   0.782   3.714  0.4217 -0.0059 -0.0028
44338CL      CL36905   6.649   4.205   5.186  0.3807  0.1008  0.0309
44339CL      CL36906   8.523   1.145   7.130  0.0603  0.2405 -0.0226
44340CL      CL36907   9.241   0.030   7.296  0.4337  0.2399 -0.1886
44341CL      CL36908   4.913   1.611   2.725  0.0006 -0.0479  0.0633
44342CL      CL36909   7.586   2.150   5.737  0.0733  0.4372  0.0408
44343CL      CL36910   4.711   8.164   5.118  0.0696  0.0347 -0.1141
44344CL      CL36911   1.419   5.057   6.332  0.0217  0.4004 -0.3753
44345CL      CL36912   3.709   2.789   5.480  0.0770 -0.0420 -0.0687
44346CL      CL36913   9.732   5.107   8.127  0.5574 -0.1161 -0.0829
44347CL      CL36914   7.112   2.810   0.922 -0.2781  0.0769  0.1928
44348CL      CL36915   7.972   0.610   8.622 -0.5955  0.2477  0.0436
44349CL      CL36916   5.249   8.713  11.006  0.2607  0.0805 -0.3668
44350CL      CL36917   4.285   9.767   7.626 -0.1682  0.0194  0.4025
44351CL      CL36918  10.341   4.769   5.920  0.0624  0.2455 -0.2061
44352CL      CL36919   7.006  10.356   6.130  0.3565 -0.2631 -0.3459
44353CL      CL36920   3.637   5.673   9.820 -0.1321 -0.0008 -0.3364
44354CL      CL36921   8.823  10.342   3.653  0.0877  0.3059  0.3360
44355CL      CL36922  10.927   0.877   6.252  0.1922  0.4313  0.0547
44356CL      CL36923   8.930   1.262   5.364  0.0108 -0.3451 -0.0665
44357CL      CL36924   0.882   0.077   9.535 -0.0113  0.0244 -0.1073
44358CL      CL36925   0.720  10.003   8.896  0.2593  0.1070 -0.1708
  11.11804  11.11804  11.11804
